Title t= 169.00000 step= 84500
44434
    1GLY      N    1   4.732   4.213   4.890
    1GLY    HT1    2   4.758   4.313   4.882
    1GLY    HT2    3   4.743   4.162   4.801
    1GLY    HT3    4   4.795   4.160   4.954
    1GLY     CA    5   4.581   4.208   4.923
    1GLY    HA1    6   4.524   4.250   4.842
    1GLY    HA2    7   4.563   4.265   5.013
    1GLY      C    8   4.524   4.068   4.947
    1GLY      O    9   4.599   3.969   4.951
    2PRO      N   10   4.393   4.051   4.980
    2PRO     CD   11   4.301   4.162   4.978
    2PRO    HD1   12   4.303   4.232   4.891
    2PRO    HD2   13   4.318   4.217   5.073
    2PRO     CA   14   4.326   3.922   4.988
    2PRO     HA   15   4.369   3.862   5.067
    2PRO     CB   16   4.183   3.965   5.041
    2PRO    HB1   17   4.185   3.965   5.152
    2PRO    HB2   18   4.103   3.892   5.016
    2PRO     CG   19   4.159   4.103   4.983
    2PRO    HG1   20   4.117   4.085   4.882
    2PRO    HG2   21   4.093   4.174   5.038
    2PRO      C   22   4.318   3.834   4.862
    2PRO      O   23   4.324   3.885   4.751
    3GLY      N   24   4.302   3.703   4.884
    3GLY     HN   25   4.301   3.673   4.979
    3GLY     CA   26   4.292   3.596   4.786
    3GLY    HA1   27   4.229   3.633   4.707
    3GLY    HA2   28   4.271   3.507   4.843
    3GLY      C   29   4.423   3.572   4.726
    3GLY      O   30   4.519   3.609   4.789
    4ASP      N   31   4.430   3.500   4.615
    4ASP     HN   32   4.350   3.447   4.591
    4ASP     CA   33   4.554   3.485   4.539
    4ASP     HA   34   4.630   3.477   4.614
    4ASP     CB   35   4.535   3.356   4.455
    4ASP    HB1   36   4.626   3.336   4.395
    4ASP    HB2   37   4.454   3.353   4.378
    4ASP     CG   38   4.524   3.235   4.549
    4ASP    OD1   39   4.573   3.238   4.663
    4ASP    OD2   40   4.477   3.129   4.508
    4ASP      C   41   4.589   3.613   4.456
    4ASP      O   42   4.502   3.687   4.422
    5PRO      N   43   4.716   3.639   4.421
    5PRO     CD   44   4.819   3.533   4.399
    5PRO    HD1   45   4.799   3.477   4.305
    5PRO    HD2   46   4.825   3.464   4.486
    5PRO     CA   47   4.754   3.766   4.359
    5PRO     HA   48   4.733   3.841   4.434
    5PRO     CB   49   4.901   3.750   4.331
    5PRO    HB1   50   4.965   3.833   4.366
    5PRO    HB2   51   4.919   3.730   4.223
    5PRO     CG   52   4.947   3.620   4.400
    5PRO    HG1   53   5.027   3.572   4.340
    5PRO    HG2   54   4.983   3.638   4.504
    5PRO      C   55   4.671   3.816   4.239
    5PRO      O   56   4.622   3.732   4.167
    6GLY      N   57   4.654   3.951   4.221
    6GLY     HN   58   4.698   4.016   4.283
    6GLY     CA   59   4.580   4.006   4.103
    6GLY    HA1   60   4.570   4.113   4.117
    6GLY    HA2   61   4.479   3.970   4.090
    6GLY      C   62   4.654   3.977   3.971
    6GLY      O   63   4.772   3.938   3.971
    7SER      N   64   4.587   4.011   3.861
    7SER     HN   65   4.490   4.030   3.871
    7SER     CA   66   4.638   4.016   3.720
    7SER     HA   67   4.627   3.918   3.677
    7SER     CB   68   4.558   4.111   3.630
    7SER    HB1   69   4.597   4.114   3.526
    7SER    HB2   70   4.567   4.210   3.679
    7SER     OG   71   4.417   4.085   3.633
    7SER    HG1   72   4.410   3.992   3.611
    7SER      C   73   4.781   4.057   3.697
    7SER      O   74   4.822   4.160   3.751
    8GLY      N   75   4.850   3.995   3.600
    8GLY     HN   76   4.804   3.927   3.543
    8GLY     CA   77   4.987   4.025   3.562
    8GLY    HA1   78   5.016   3.965   3.477
    8GLY    HA2   79   5.050   4.007   3.648
    8GLY      C   80   5.010   4.163   3.517
    8GLY      O   81   4.923   4.237   3.479
    9ASN      N   82   5.133   4.210   3.530
    9ASN     HN   83   5.199   4.153   3.579
    9ASN     CA   84   5.186   4.343   3.500
    9ASN     HA   85   5.109   4.402   3.548
    9ASN     CB   86   5.336   4.362   3.556
    9ASN    HB1   87   5.416   4.308   3.501
    9ASN    HB2   88   5.347   4.310   3.654
    9ASN     CG   89   5.371   4.504   3.579
    9ASN    OD1   90   5.438   4.566   3.499
    9ASN    ND2   91   5.318   4.571   3.685
    9ASN   HD21   92   5.338   4.668   3.699
    9ASN   HD22   93   5.265   4.518   3.752
    9ASN      C   94   5.177   4.387   3.348
    9ASN      O   95   5.197   4.300   3.263
   10PRO      N   96   5.146   4.513   3.313
   10PRO     CD   97   5.048   4.582   3.396
   10PRO    HD1   98   5.104   4.614   3.486
   10PRO    HD2   99   4.970   4.509   3.426
   10PRO     CA  100   5.144   4.551   3.172
   10PRO     HA  101   5.084   4.475   3.124
   10PRO     CB  102   5.063   4.686   3.172
   10PRO    HB1  103   4.987   4.681   3.092
   10PRO    HB2  104   5.132   4.772   3.176
   10PRO     CG  105   4.992   4.692   3.305
   10PRO    HG1  106   4.992   4.792   3.353
   10PRO    HG2  107   4.889   4.653   3.288
   10PRO      C  108   5.281   4.551   3.108
   10PRO      O  109   5.377   4.570   3.185
   11GLY      N  110   5.290   4.516   2.974
   11GLY     HN  111   5.205   4.505   2.923
   11GLY     CA  112   5.411   4.521   2.895
   11GLY    HA1  113   5.397   4.472   2.800
   11GLY    HA2  114   5.484   4.461   2.948
   11GLY      C  115   5.456   4.660   2.862
   11GLY      O  116   5.412   4.768   2.903
   12SER      N  117   5.551   4.670   2.767
   12SER     HN  118   5.588   4.587   2.726
   12SER     CA  119   5.608   4.790   2.709
   12SER     HA  120   5.658   4.843   2.790
   12SER     CB  121   5.716   4.752   2.611
   12SER    HB1  122   5.755   4.839   2.554
   12SER    HB2  123   5.664   4.684   2.540
   12SER     OG  124   5.815   4.678   2.678
   12SER    HG1  125   5.778   4.590   2.686
   12SER      C  126   5.507   4.881   2.640
   12SER      O  127   5.403   4.839   2.589
   13GLY      N  128   5.537   5.014   2.646
   13GLY     HN  129   5.621   5.044   2.691
   13GLY     CA  130   5.459   5.117   2.573
   13GLY    HA1  131   5.481   5.214   2.616
   13GLY    HA2  132   5.353   5.101   2.584
   13GLY      C  133   5.486   5.119   2.428
   13GLY      O  134   5.561   5.039   2.373
   14ASP      N  135   5.439   5.221   2.353
   14ASP     HN  136   5.375   5.282   2.399
   14ASP     CA  137   5.471   5.255   2.216
   14ASP     HA  138   5.429   5.174   2.158
   14ASP     CB  139   5.415   5.390   2.174
   14ASP    HB1  140   5.440   5.430   2.073
   14ASP    HB2  141   5.434   5.468   2.251
   14ASP     CG  142   5.259   5.383   2.160
   14ASP    OD1  143   5.192   5.464   2.224
   14ASP    OD2  144   5.207   5.297   2.084
   14ASP      C  145   5.624   5.269   2.175
   14ASP      O  146   5.703   5.327   2.255
   15PRO      N  147   5.672   5.205   2.067
   15PRO     CD  148   5.602   5.085   2.012
   15PRO    HD1  149   5.503   5.117   1.974
   15PRO    HD2  150   5.585   5.010   2.092
   15PRO     CA  151   5.804   5.224   2.011
   15PRO     HA  152   5.871   5.188   2.088
   15PRO     CB  153   5.800   5.148   1.884
   15PRO    HB1  154   5.901   5.113   1.853
   15PRO    HB2  155   5.753   5.209   1.804
   15PRO     CG  156   5.697   5.033   1.904
   15PRO    HG1  157   5.637   5.012   1.813
   15PRO    HG2  158   5.754   4.945   1.942
   15PRO      C  159   5.836   5.370   1.984
   15PRO    OT1  160   5.753   5.439   1.918
   15PRO    OT2  161   5.939   5.415   2.031
   16LIT    LIT  162   4.508   3.044   4.675
   17LIT    LIT  163   5.911   3.824   2.252
   18LIT    LIT  164   5.760   0.901   1.799
   19LIT    LIT  165   3.484   4.461   4.132
   20LIT    LIT  166   6.421   5.838   4.379
   21LIT    LIT  167   1.065   2.248   5.222
   22LIT    LIT  168   6.512   1.039   5.437
   23LIT    LIT  169   4.503   2.007   0.374
   24LIT    LIT  170   2.003   0.092   2.960
   25LIT    LIT  171   6.943   0.633   4.718
   26LIT    LIT  172   2.643   3.853   3.153
   27LIT    LIT  173   7.018   7.384   4.195
   28LIT    LIT  174   6.600   2.543   1.715
   29LIT    LIT  175   7.913   0.860   2.951
   30LIT    LIT  176   5.842   6.814   5.387
   31LIT    LIT  177   1.439   0.784   2.525
   32LIT    LIT  178   1.325   2.829   4.873
   33LIT    LIT  179   1.653   7.378   0.975
   34LIT    LIT  180   5.389   4.105   6.652
   35LIT    LIT  181   4.794   3.061   1.417
   36LIT    LIT  182   3.778   7.475   1.781
   37LIT    LIT  183   8.277   4.673   0.906
   38LIT    LIT  184   4.266   5.046   4.948
   39LIT    LIT  185   3.337   1.038   4.438
   40LIT    LIT  186   6.604   5.764   3.295
   41LIT    LIT  187   5.819   5.598   2.016
   42LIT    LIT  188   2.451   1.413   6.204
   43LIT    LIT  189   0.644   0.814   2.105
   44LIT    LIT  190   0.902   0.151   2.148
   45LIT    LIT  191   0.767   1.995   2.995
   46LIT    LIT  192   7.210   7.678   6.606
   47LIT    LIT  193   3.751   1.967   0.749
   48LIT    LIT  194   7.749   6.113   4.342
   49LIT    LIT  195   5.040   5.377   2.164
   50LIT    LIT  196   5.153   1.633   1.898
   51LIT    LIT  197   7.744   7.587   0.394
   52LIT    LIT  198   6.592   1.809   5.881
   53LIT    LIT  199   3.213   5.344   1.737
   54LIT    LIT  200   1.312   6.906   4.119
   55LIT    LIT  201   2.513   0.267   4.253
   56LIT    LIT  202   0.283   0.996   5.622
   57LIT    LIT  203   7.805   0.617   2.260
   58LIT    LIT  204   7.254   4.232   0.989
   59LIT    LIT  205   4.003   3.964   0.844
   60CLA    CLA  206   2.302   0.572   2.198
   61CLA    CLA  207   5.980   4.738   4.600
   62CLA    CLA  208   6.589   3.854   0.883
   63CLA    CLA  209   0.565   1.654   1.428
   64CLA    CLA  210   7.014   7.462   2.885
   65CLA    CLA  211   2.792   0.662   1.791
   66CLA    CLA  212   3.808   1.615   4.695
   67CLA    CLA  213   0.620   1.101   6.533
   68CLA    CLA  214   6.824   1.225   5.766
   69CLA    CLA  215   1.374   0.641   4.823
   70CLA    CLA  216   4.012   5.595   0.876
   71CLA    CLA  217   2.159   0.842   3.656
   72CLA    CLA  218   0.153   2.748   2.494
   73CLA    CLA  219   3.793   4.766   4.304
   74CLA    CLA  220   4.291   5.319   0.648
   75CLA    CLA  221   3.591   2.282   3.859
   76CLA    CLA  222   3.896   5.553   4.479
   77CLA    CLA  223   4.054   3.566   5.652
   78CLA    CLA  224   7.861   1.887   0.370
   79CLA    CLA  225   6.788   7.679   0.890
   80CLA    CLA  226   2.335   7.429   0.960
   81CLA    CLA  227   7.732   0.414   2.348
   82CLA    CLA  228   7.646   0.704   6.067
   83CLA    CLA  229   7.164   3.541   5.074
   84CLA    CLA  230   5.298   1.610   5.609
   85CLA    CLA  231   0.481   4.480   6.074
   86CLA    CLA  232   5.895   4.136   2.604
   87CLA    CLA  233   0.064   5.433   2.451
   88CLA    CLA  234   0.989   6.725   2.783
   89CLA    CLA  235   7.589   4.046   6.107
   90CLA    CLA  236   2.295   0.163   2.676
   91CLA    CLA  237   2.801   7.723   2.025
   92CLA    CLA  238   2.218   4.181   6.634
   93CLA    CLA  239   4.927   1.362   4.138
   94CLA    CLA  240   4.608   4.315   6.332
   95CLA    CLA  241   7.443   4.110   0.999
   96CLA    CLA  242   7.010   0.429   4.804
   97CLA    CLA  243   5.158   4.246   2.688
   98CLA    CLA  244   1.195   4.323   6.381
   99CLA    CLA  245   4.915   4.124   0.281
  100CLA    CLA  246   1.919   5.178   2.663
  101CLA    CLA  247   6.026   1.848   1.433
  102TIP3   OH2  248   5.172   2.930   2.339
  102TIP3    H1  249   5.199   2.882   2.417
  102TIP3    H2  250   5.197   2.874   2.266
  103TIP3   OH2  251   7.789   0.583   5.420
  103TIP3    H1  252   7.769   0.676   5.430
  103TIP3    H2  253   7.813   0.554   5.508
  104TIP3   OH2  254   3.894   1.402   5.584
  104TIP3    H1  255   3.972   1.354   5.557
  104TIP3    H2  256   3.871   1.365   5.669
  105TIP3   OH2  257   3.841   6.169   1.003
  105TIP3    H1  258   3.850   6.075   1.019
  105TIP3    H2  259   3.833   6.177   0.908
  106TIP3   OH2  260   6.783   4.396   6.296
  106TIP3    H1  261   6.796   4.426   6.386
  106TIP3    H2  262   6.865   4.419   6.251
  107TIP3   OH2  263   5.161   3.107   0.328
  107TIP3    H1  264   5.077   3.136   0.364
  107TIP3    H2  265   5.212   3.081   0.405
  108TIP3   OH2  266   2.106   7.062   6.718
  108TIP3    H1  267   2.062   7.089   6.638
  108TIP3    H2  268   2.189   7.109   6.717
  109TIP3   OH2  269   3.466   1.730   1.176
  109TIP3    H1  270   3.509   1.812   1.154
  109TIP3    H2  271   3.468   1.726   1.272
  110TIP3   OH2  272   7.389   2.813   2.321
  110TIP3    H1  273   7.426   2.855   2.244
  110TIP3    H2  274   7.305   2.856   2.334
  111TIP3   OH2  275   7.274   3.509   4.630
  111TIP3    H1  276   7.232   3.568   4.693
  111TIP3    H2  277   7.288   3.563   4.552
  112TIP3   OH2  278   5.445   6.424   3.801
  112TIP3    H1  279   5.424   6.355   3.864
  112TIP3    H2  280   5.384   6.495   3.822
  113TIP3   OH2  281   5.860   3.767   1.597
  113TIP3    H1  282   5.773   3.730   1.584
  113TIP3    H2  283   5.847   3.835   1.664
  114TIP3   OH2  284   6.919   1.754   3.822
  114TIP3    H1  285   6.847   1.816   3.807
  114TIP3    H2  286   6.962   1.746   3.737
  115TIP3   OH2  287   6.245   0.854   1.621
  115TIP3    H1  288   6.330   0.889   1.646
  115TIP3    H2  289   6.230   0.890   1.533
  116TIP3   OH2  290   3.184   2.268   3.478
  116TIP3    H1  291   3.205   2.306   3.393
  116TIP3    H2  292   3.268   2.264   3.524
  117TIP3   OH2  293   3.189   6.019   4.988
  117TIP3    H1  294   3.226   5.947   5.039
  117TIP3    H2  295   3.250   6.031   4.915
  118TIP3   OH2  296   7.630   3.924   0.663
  118TIP3    H1  297   7.686   3.851   0.639
  118TIP3    H2  298   7.541   3.893   0.647
  119TIP3   OH2  299   1.843   3.675   1.481
  119TIP3    H1  300   1.823   3.757   1.527
  119TIP3    H2  301   1.878   3.703   1.396
  120TIP3   OH2  302   1.036   7.713   4.747
  120TIP3    H1  303   0.957   7.669   4.714
  120TIP3    H2  304   1.005   7.762   4.823
  121TIP3   OH2  305   0.139   0.819   3.964
  121TIP3    H1  306   0.196   0.844   3.891
  121TIP3    H2  307   0.196   0.773   4.025
  122TIP3   OH2  308   0.343   5.556   1.504
  122TIP3    H1  309   0.290   5.504   1.564
  122TIP3    H2  310   0.382   5.624   1.559
  123TIP3   OH2  311   6.389   6.375   2.445
  123TIP3    H1  312   6.396   6.455   2.498
  123TIP3    H2  313   6.306   6.336   2.472
  124TIP3   OH2  314   3.577   6.186   3.483
  124TIP3    H1  315   3.634   6.262   3.469
  124TIP3    H2  316   3.612   6.145   3.562
  125TIP3   OH2  317   7.426   5.516   4.781
  125TIP3    H1  318   7.344   5.478   4.814
  125TIP3    H2  319   7.460   5.449   4.722
  126TIP3   OH2  320   7.767   0.340   0.375
  126TIP3    H1  321   7.770   0.435   0.389
  126TIP3    H2  322   7.843   0.322   0.320
  127TIP3   OH2  323   6.031   0.574   4.384
  127TIP3    H1  324   6.102   0.634   4.362
  127TIP3    H2  325   5.994   0.549   4.299
  128TIP3   OH2  326   2.328   3.163   5.761
  128TIP3    H1  327   2.376   3.083   5.739
  128TIP3    H2  328   2.358   3.185   5.849
  129TIP3   OH2  329   5.589   1.025   6.439
  129TIP3    H1  330   5.613   1.084   6.510
  129TIP3    H2  331   5.655   1.043   6.371
  130TIP3   OH2  332   2.080   4.529   5.998
  130TIP3    H1  333   2.018   4.530   6.071
  130TIP3    H2  334   2.039   4.472   5.932
  131TIP3   OH2  335   1.345   2.604   1.391
  131TIP3    H1  336   1.435   2.617   1.364
  131TIP3    H2  337   1.320   2.686   1.433
  132TIP3   OH2  338   0.950   5.443   5.136
  132TIP3    H1  339   1.040   5.422   5.161
  132TIP3    H2  340   0.924   5.371   5.078
  133TIP3   OH2  341   6.241   2.775   6.095
  133TIP3    H1  342   6.176   2.716   6.133
  133TIP3    H2  343   6.239   2.852   6.152
  134TIP3   OH2  344   4.170   1.148   5.773
  134TIP3    H1  345   4.104   1.108   5.829
  134TIP3    H2  346   4.180   1.237   5.808
  135TIP3   OH2  347   7.782   1.275   5.381
  135TIP3    H1  348   7.798   1.369   5.373
  135TIP3    H2  349   7.735   1.265   5.464
  136TIP3   OH2  350   5.181   3.035   4.052
  136TIP3    H1  351   5.094   2.999   4.069
  136TIP3    H2  352   5.236   2.958   4.037
  137TIP3   OH2  353   1.720   2.982   4.810
  137TIP3    H1  354   1.815   2.992   4.807
  137TIP3    H2  355   1.686   3.069   4.792
  138TIP3   OH2  356   6.001   0.780   4.935
  138TIP3    H1  357   6.064   0.842   4.898
  138TIP3    H2  358   6.051   0.699   4.945
  139TIP3   OH2  359   5.461   3.510   6.511
  139TIP3    H1  360   5.501   3.424   6.523
  139TIP3    H2  361   5.368   3.491   6.495
  140TIP3   OH2  362   2.319   6.744   6.213
  140TIP3    H1  363   2.278   6.701   6.288
  140TIP3    H2  364   2.410   6.759   6.240
  141TIP3   OH2  365   2.400   6.844   2.666
  141TIP3    H1  366   2.459   6.918   2.680
  141TIP3    H2  367   2.321   6.883   2.629
  142TIP3   OH2  368   1.596   4.480   3.027
  142TIP3    H1  369   1.503   4.491   3.047
  142TIP3    H2  370   1.631   4.431   3.101
  143TIP3   OH2  371   5.149   1.991   1.504
  143TIP3    H1  372   5.056   1.971   1.512
  143TIP3    H2  373   5.172   1.965   1.414
  144TIP3   OH2  374   6.584   6.734   4.772
  144TIP3    H1  375   6.514   6.782   4.816
  144TIP3    H2  376   6.661   6.791   4.779
  145TIP3   OH2  377   3.328   4.401   0.890
  145TIP3    H1  378   3.296   4.479   0.844
  145TIP3    H2  379   3.257   4.376   0.948
  146TIP3   OH2  380   5.588   1.650   1.373
  146TIP3    H1  381   5.625   1.617   1.291
  146TIP3    H2  382   5.664   1.660   1.431
  147TIP3   OH2  383   4.390   1.603   2.624
  147TIP3    H1  384   4.306   1.639   2.653
  147TIP3    H2  385   4.369   1.554   2.544
  148TIP3   OH2  386   7.001   2.541   1.999
  148TIP3    H1  387   6.919   2.586   2.017
  148TIP3    H2  388   7.068   2.596   2.039
  149TIP3   OH2  389   7.247   7.832   5.631
  149TIP3    H1  390   7.324   7.854   5.683
  149TIP3    H2  391   7.209   7.756   5.676
  150TIP3   OH2  392   7.616   1.701   6.414
  150TIP3    H1  393   7.701   1.667   6.387
  150TIP3    H2  394   7.554   1.633   6.388
  151TIP3   OH2  395   4.507   7.646   1.205
  151TIP3    H1  396   4.553   7.629   1.287
  151TIP3    H2  397   4.423   7.683   1.231
  152TIP3   OH2  398   8.237   7.328   0.550
  152TIP3    H1  399   8.169   7.285   0.498
  152TIP3    H2  400   8.317   7.280   0.529
  153TIP3   OH2  401   7.568   3.988   1.229
  153TIP3    H1  402   7.496   3.925   1.238
  153TIP3    H2  403   7.545   4.039   1.151
  154TIP3   OH2  404   7.839   7.035   1.019
  154TIP3    H1  405   7.837   7.032   1.115
  154TIP3    H2  406   7.923   7.075   0.998
  155TIP3   OH2  407   2.831   6.585   1.222
  155TIP3    H1  408   2.836   6.513   1.159
  155TIP3    H2  409   2.810   6.542   1.305
  156TIP3   OH2  410   0.966   5.957   6.179
  156TIP3    H1  411   1.056   5.945   6.150
  156TIP3    H2  412   0.952   5.888   6.244
  157TIP3   OH2  413   6.105   3.931   0.336
  157TIP3    H1  414   6.011   3.944   0.322
  157TIP3    H2  415   6.145   3.949   0.251
  158TIP3   OH2  416   2.886   6.489   3.811
  158TIP3    H1  417   2.917   6.579   3.817
  158TIP3    H2  418   2.910   6.451   3.896
  159TIP3   OH2  419   7.597   1.356   0.288
  159TIP3    H1  420   7.612   1.425   0.353
  159TIP3    H2  421   7.518   1.382   0.242
  160TIP3   OH2  422   1.272   0.598   4.020
  160TIP3    H1  423   1.200   0.655   4.044
  160TIP3    H2  424   1.279   0.605   3.925
  161TIP3   OH2  425   1.460   1.142   4.693
  161TIP3    H1  426   1.546   1.160   4.655
  161TIP3    H2  427   1.429   1.227   4.723
  162TIP3   OH2  428   7.610   3.673   3.029
  162TIP3    H1  429   7.667   3.620   3.084
  162TIP3    H2  430   7.567   3.733   3.090
  163TIP3   OH2  431   1.366   2.809   2.281
  163TIP3    H1  432   1.367   2.713   2.281
  163TIP3    H2  433   1.362   2.833   2.373
  164TIP3   OH2  434   3.511   7.722   0.137
  164TIP3    H1  435   3.564   7.724   0.057
  164TIP3    H2  436   3.538   7.800   0.185
  165TIP3   OH2  437   3.254   0.118   1.862
  165TIP3    H1  438   3.330   0.093   1.913
  165TIP3    H2  439   3.275   0.206   1.829
  166TIP3   OH2  440   2.849   0.531   0.558
  166TIP3    H1  441   2.905   0.526   0.480
  166TIP3    H2  442   2.854   0.623   0.586
  167TIP3   OH2  443   1.102   0.023   1.822
  167TIP3    H1  444   1.083   0.076   1.900
  167TIP3    H2  445   1.129  -0.062   1.858
  168TIP3   OH2  446   5.389   1.716   2.479
  168TIP3    H1  447   5.394   1.802   2.521
  168TIP3    H2  448   5.481   1.691   2.465
  169TIP3   OH2  449   2.510   6.430   6.389
  169TIP3    H1  450   2.507   6.371   6.314
  169TIP3    H2  451   2.555   6.509   6.357
  170TIP3   OH2  452   1.561   6.827   1.328
  170TIP3    H1  453   1.502   6.816   1.402
  170TIP3    H2  454   1.645   6.849   1.368
  171TIP3   OH2  455   7.156   2.660   0.375
  171TIP3    H1  456   7.075   2.636   0.420
  171TIP3    H2  457   7.207   2.579   0.373
  172TIP3   OH2  458   5.000   7.380   6.033
  172TIP3    H1  459   4.940   7.452   6.014
  172TIP3    H2  460   5.087   7.420   6.029
  173TIP3   OH2  461   3.563   0.617   1.109
  173TIP3    H1  462   3.631   0.549   1.110
  173TIP3    H2  463   3.584   0.671   1.033
  174TIP3   OH2  464   6.284   1.332   5.068
  174TIP3    H1  465   6.262   1.239   5.075
  174TIP3    H2  466   6.239   1.373   5.142
  175TIP3   OH2  467   7.910   5.590   0.579
  175TIP3    H1  468   7.967   5.665   0.596
  175TIP3    H2  469   7.822   5.621   0.601
  176TIP3   OH2  470   3.637   0.591   5.365
  176TIP3    H1  471   3.733   0.593   5.364
  176TIP3    H2  472   3.616   0.498   5.355
  177TIP3   OH2  473   6.789   0.838   2.847
  177TIP3    H1  474   6.796   0.886   2.764
  177TIP3    H2  475   6.764   0.904   2.911
  178TIP3   OH2  476   7.612   4.395   5.364
  178TIP3    H1  477   7.556   4.464   5.400
  178TIP3    H2  478   7.610   4.408   5.269
  179TIP3   OH2  479   4.133   4.943   1.523
  179TIP3    H1  480   4.190   4.941   1.600
  179TIP3    H2  481   4.115   5.036   1.508
  180TIP3   OH2  482   5.337   3.362   5.043
  180TIP3    H1  483   5.370   3.427   4.981
  180TIP3    H2  484   5.402   3.362   5.114
  181TIP3   OH2  485   2.723   3.188   3.105
  181TIP3    H1  486   2.700   3.146   3.187
  181TIP3    H2  487   2.800   3.242   3.126
  182TIP3   OH2  488   0.071   3.941   6.046
  182TIP3    H1  489   0.111   3.904   5.967
  182TIP3    H2  490  -0.011   3.980   6.015
  183TIP3   OH2  491   5.815   2.866   3.990
  183TIP3    H1  492   5.733   2.818   4.001
  183TIP3    H2  493   5.826   2.915   4.072
  184TIP3   OH2  494   4.324   0.922   3.687
  184TIP3    H1  495   4.337   0.827   3.682
  184TIP3    H2  496   4.314   0.950   3.596
  185TIP3   OH2  497   1.801   5.737   5.743
  185TIP3    H1  498   1.838   5.825   5.738
  185TIP3    H2  499   1.827   5.705   5.829
  186TIP3   OH2  500   2.956   3.919   2.564
  186TIP3    H1  501   2.960   3.890   2.473
  186TIP3    H2  502   2.965   4.014   2.559
  187TIP3   OH2  503   2.095   4.711   5.619
  187TIP3    H1  504   2.183   4.697   5.655
  187TIP3    H2  505   2.063   4.623   5.600
  188TIP3   OH2  506   4.492   0.739   4.471
  188TIP3    H1  507   4.510   0.743   4.565
  188TIP3    H2  508   4.402   0.706   4.465
  189TIP3   OH2  509   3.519   0.882   1.490
  189TIP3    H1  510   3.486   0.972   1.494
  189TIP3    H2  511   3.596   0.887   1.433
  190TIP3   OH2  512   2.019   5.954   1.843
  190TIP3    H1  513   1.966   5.892   1.792
  190TIP3    H2  514   1.961   5.984   1.913
  191TIP3   OH2  515   7.331   1.320   5.733
  191TIP3    H1  516   7.382   1.261   5.789
  191TIP3    H2  517   7.311   1.395   5.788
  192TIP3   OH2  518   1.793   7.397   6.592
  192TIP3    H1  519   1.769   7.476   6.639
  192TIP3    H2  520   1.769   7.415   6.501
  193TIP3   OH2  521   2.493   5.762   5.077
  193TIP3    H1  522   2.570   5.711   5.101
  193TIP3    H2  523   2.448   5.779   5.160
  194TIP3   OH2  524   4.066   4.386   1.638
  194TIP3    H1  525   4.088   4.439   1.715
  194TIP3    H2  526   3.995   4.434   1.596
  195TIP3   OH2  527   2.706   1.537   3.422
  195TIP3    H1  528   2.705   1.563   3.329
  195TIP3    H2  529   2.620   1.497   3.436
  196TIP3   OH2  530   7.961   5.685   3.988
  196TIP3    H1  531   7.881   5.672   4.039
  196TIP3    H2  532   8.020   5.616   4.019
  197TIP3   OH2  533   6.176   6.978   0.494
  197TIP3    H1  534   6.217   6.984   0.580
  197TIP3    H2  535   6.188   7.065   0.455
  198TIP3   OH2  536   4.232   5.339   3.900
  198TIP3    H1  537   4.322   5.324   3.931
  198TIP3    H2  538   4.188   5.381   3.973
  199TIP3   OH2  539   1.415   5.997   5.401
  199TIP3    H1  540   1.472   5.921   5.398
  199TIP3    H2  541   1.462   6.060   5.457
  200TIP3   OH2  542   2.665   6.645   6.318
  200TIP3    H1  543   2.729   6.690   6.375
  200TIP3    H2  544   2.679   6.683   6.232
  201TIP3   OH2  545   1.731   5.317   1.714
  201TIP3    H1  546   1.821   5.350   1.723
  201TIP3    H2  547   1.682   5.362   1.782
  202TIP3   OH2  548   8.056   2.226   6.461
  202TIP3    H1  549   8.030   2.197   6.549
  202TIP3    H2  550   8.119   2.296   6.477
  203TIP3   OH2  551   0.541   3.255   3.661
  203TIP3    H1  552   0.447   3.244   3.649
  203TIP3    H2  553   0.559   3.219   3.747
  204TIP3   OH2  554   4.108   0.614   4.044
  204TIP3    H1  555   4.068   0.642   3.961
  204TIP3    H2  556   4.202   0.625   4.030
  205TIP3   OH2  557   2.578   0.783   4.552
  205TIP3    H1  558   2.637   0.777   4.477
  205TIP3    H2  559   2.565   0.877   4.565
  206TIP3   OH2  560   6.278   1.154   4.672
  206TIP3    H1  561   6.233   1.231   4.705
  206TIP3    H2  562   6.294   1.173   4.579
  207TIP3   OH2  563   5.735   1.066   4.876
  207TIP3    H1  564   5.642   1.072   4.897
  207TIP3    H2  565   5.742   0.990   4.818
  208TIP3   OH2  566   5.363   0.148   3.801
  208TIP3    H1  567   5.277   0.114   3.779
  208TIP3    H2  568   5.346   0.233   3.842
  209TIP3   OH2  569   3.517   4.205   2.267
  209TIP3    H1  570   3.451   4.271   2.243
  209TIP3    H2  571   3.469   4.123   2.270
  210TIP3   OH2  572   4.610   0.236   5.258
  210TIP3    H1  573   4.593   0.309   5.199
  210TIP3    H2  574   4.703   0.216   5.245
  211TIP3   OH2  575   2.746   1.678   4.687
  211TIP3    H1  576   2.834   1.708   4.709
  211TIP3    H2  577   2.732   1.708   4.597
  212TIP3   OH2  578   3.917   4.148   1.550
  212TIP3    H1  579   3.830   4.187   1.554
  212TIP3    H2  580   3.974   4.214   1.590
  213TIP3   OH2  581   6.572   3.228   2.281
  213TIP3    H1  582   6.579   3.206   2.374
  213TIP3    H2  583   6.623   3.309   2.272
  214TIP3   OH2  584   0.319   7.219   4.802
  214TIP3    H1  585   0.267   7.261   4.870
  214TIP3    H2  586   0.406   7.209   4.840
  215TIP3   OH2  587   6.197   6.352   4.188
  215TIP3    H1  588   6.114   6.321   4.225
  215TIP3    H2  589   6.171   6.410   4.116
  216TIP3   OH2  590   7.448   6.709   4.781
  216TIP3    H1  591   7.357   6.734   4.764
  216TIP3    H2  592   7.455   6.710   4.877
  217TIP3   OH2  593   5.864   4.243   4.704
  217TIP3    H1  594   5.808   4.320   4.715
  217TIP3    H2  595   5.832   4.181   4.770
  218TIP3   OH2  596   5.114   2.047   2.152
  218TIP3    H1  597   5.021   2.024   2.148
  218TIP3    H2  598   5.143   2.046   2.061
  219TIP3   OH2  599   7.236   4.009   4.068
  219TIP3    H1  600   7.205   4.099   4.078
  219TIP3    H2  601   7.326   4.018   4.035
  220TIP3   OH2  602   2.980   0.956   5.077
  220TIP3    H1  603   3.006   1.023   5.140
  220TIP3    H2  604   2.885   0.957   5.079
  221TIP3   OH2  605   6.309   2.764   4.049
  221TIP3    H1  606   6.348   2.777   3.963
  221TIP3    H2  607   6.245   2.694   4.036
  222TIP3   OH2  608   4.900   2.023   2.894
  222TIP3    H1  609   4.811   2.024   2.929
  222TIP3    H2  610   4.893   2.061   2.807
  223TIP3   OH2  611   6.156   7.239   2.268
  223TIP3    H1  612   6.164   7.170   2.333
  223TIP3    H2  613   6.218   7.215   2.199
  224TIP3   OH2  614   0.075   1.636   2.975
  224TIP3    H1  615   0.005   1.632   2.910
  224TIP3    H2  616   0.031   1.624   3.059
  225TIP3   OH2  617   6.735   0.280   0.926
  225TIP3    H1  618   6.665   0.286   0.991
  225TIP3    H2  619   6.697   0.317   0.847
  226TIP3   OH2  620   5.262   2.838   3.746
  226TIP3    H1  621   5.169   2.829   3.725
  226TIP3    H2  622   5.292   2.911   3.691
  227TIP3   OH2  623   7.164   6.581   0.650
  227TIP3    H1  624   7.251   6.581   0.610
  227TIP3    H2  625   7.140   6.489   0.655
  228TIP3   OH2  626   0.661   1.110   4.383
  228TIP3    H1  627   0.672   1.169   4.457
  228TIP3    H2  628   0.743   1.059   4.380
  229TIP3   OH2  629   8.010   0.572   5.241
  229TIP3    H1  630   7.925   0.543   5.276
  229TIP3    H2  631   8.002   0.667   5.235
  230TIP3   OH2  632   3.938   6.264   5.656
  230TIP3    H1  633   3.939   6.316   5.737
  230TIP3    H2  634   4.028   6.234   5.647
  231TIP3   OH2  635   2.183   6.202   2.794
  231TIP3    H1  636   2.171   6.261   2.869
  231TIP3    H2  637   2.160   6.116   2.828
  232TIP3   OH2  638   4.362   1.300   4.447
  232TIP3    H1  639   4.426   1.370   4.436
  232TIP3    H2  640   4.411   1.229   4.487
  233TIP3   OH2  641   0.089   4.295   3.838
  233TIP3    H1  642   0.069   4.286   3.745
  233TIP3    H2  643   0.182   4.320   3.840
  234TIP3   OH2  644   4.696   2.465   6.112
  234TIP3    H1  645   4.744   2.476   6.194
  234TIP3    H2  646   4.665   2.553   6.090
  235TIP3   OH2  647   6.998   5.407   2.059
  235TIP3    H1  648   6.942   5.484   2.068
  235TIP3    H2  649   7.086   5.438   2.082
  236TIP3   OH2  650   8.138   4.017   1.643
  236TIP3    H1  651   8.127   3.940   1.700
  236TIP3    H2  652   8.212   4.064   1.681
  237TIP3   OH2  653   3.830   4.117   5.793
  237TIP3    H1  654   3.810   4.175   5.866
  237TIP3    H2  655   3.883   4.047   5.832
  238TIP3   OH2  656   8.069   0.492   1.907
  238TIP3    H1  657   8.129   0.563   1.882
  238TIP3    H2  658   8.015   0.477   1.830
  239TIP3   OH2  659   1.512   4.504   5.217
  239TIP3    H1  660   1.443   4.567   5.197
  239TIP3    H2  661   1.593   4.555   5.212
  240TIP3   OH2  662   7.577   7.470   0.398
  240TIP3    H1  663   7.532   7.429   0.324
  240TIP3    H2  664   7.530   7.438   0.475
  241TIP3   OH2  665   7.239   3.288   1.481
  241TIP3    H1  666   7.163   3.266   1.428
  241TIP3    H2  667   7.308   3.305   1.417
  242TIP3   OH2  668   0.241   2.881   1.100
  242TIP3    H1  669   0.315   2.940   1.086
  242TIP3    H2  670   0.275   2.794   1.080
  243TIP3   OH2  671   6.713   6.212   4.511
  243TIP3    H1  672   6.621   6.239   4.513
  243TIP3    H2  673   6.732   6.187   4.602
  244TIP3   OH2  674   1.337   0.425   0.485
  244TIP3    H1  675   1.399   0.353   0.500
  244TIP3    H2  676   1.302   0.408   0.398
  245TIP3   OH2  677   6.825   5.342   3.398
  245TIP3    H1  678   6.895   5.369   3.338
  245TIP3    H2  679   6.762   5.297   3.342
  246TIP3   OH2  680   3.044   3.388   2.353
  246TIP3    H1  681   3.022   3.425   2.438
  246TIP3    H2  682   2.964   3.399   2.301
  247TIP3   OH2  683   0.952   7.279   5.990
  247TIP3    H1  684   0.997   7.194   5.984
  247TIP3    H2  685   1.016   7.342   5.957
  248TIP3   OH2  686   3.811   3.660   2.798
  248TIP3    H1  687   3.763   3.705   2.728
  248TIP3    H2  688   3.903   3.676   2.777
  249TIP3   OH2  689   0.161   2.570   6.663
  249TIP3    H1  690   0.082   2.527   6.630
  249TIP3    H2  691   0.167   2.544   6.754
  250TIP3   OH2  692   7.517   6.663   5.058
  250TIP3    H1  693   7.576   6.643   5.131
  250TIP3    H2  694   7.508   6.759   5.061
  251TIP3   OH2  695   4.445   1.577  -0.038
  251TIP3    H1  696   4.534   1.608  -0.050
  251TIP3    H2  697   4.425   1.596   0.054
  252TIP3   OH2  698   3.057   5.951   3.419
  252TIP3    H1  699   3.129   5.984   3.365
  252TIP3    H2  700   2.988   6.016   3.410
  253TIP3   OH2  701   6.528   3.905   2.352
  253TIP3    H1  702   6.522   3.994   2.317
  253TIP3    H2  703   6.478   3.908   2.434
  254TIP3   OH2  704   6.760   5.480   1.557
  254TIP3    H1  705   6.783   5.544   1.489
  254TIP3    H2  706   6.832   5.485   1.619
  255TIP3   OH2  707   2.019   6.287   3.989
  255TIP3    H1  708   1.945   6.344   3.969
  255TIP3    H2  709   2.058   6.266   3.904
  256TIP3   OH2  710   6.903   1.035   3.816
  256TIP3    H1  711   6.854   1.107   3.775
  256TIP3    H2  712   6.887   1.047   3.910
  257TIP3   OH2  713   6.765   4.234   0.216
  257TIP3    H1  714   6.730   4.254   0.303
  257TIP3    H2  715   6.691   4.197   0.168
  258TIP3   OH2  716   3.096   6.692   2.963
  258TIP3    H1  717   3.084   6.597   2.958
  258TIP3    H2  718   3.010   6.728   2.943
  259TIP3   OH2  719   5.246   5.007   1.503
  259TIP3    H1  720   5.312   4.953   1.459
  259TIP3    H2  721   5.294   5.083   1.536
  260TIP3   OH2  722   2.325   2.110   2.428
  260TIP3    H1  723   2.286   2.023   2.429
  260TIP3    H2  724   2.277   2.157   2.360
  261TIP3   OH2  725   6.787   1.704   0.076
  261TIP3    H1  726   6.801   1.760   0.153
  261TIP3    H2  727   6.865   1.717   0.022
  262TIP3   OH2  728   1.240   3.984   5.961
  262TIP3    H1  729   1.328   3.946   5.956
  262TIP3    H2  730   1.254   4.072   5.995
  263TIP3   OH2  731   3.893   3.485   4.207
  263TIP3    H1  732   3.900   3.566   4.258
  263TIP3    H2  733   3.956   3.497   4.136
  264TIP3   OH2  734   0.035   7.066   0.354
  264TIP3    H1  735   0.068   6.999   0.295
  264TIP3    H2  736   0.009   7.019   0.433
  265TIP3   OH2  737   1.773   4.160   2.855
  265TIP3    H1  738   1.700   4.215   2.882
  265TIP3    H2  739   1.780   4.173   2.760
  266TIP3   OH2  740   6.920   2.145   4.093
  266TIP3    H1  741   6.974   2.075   4.055
  266TIP3    H2  742   6.882   2.105   4.171
  267TIP3   OH2  743   2.497   4.570   6.035
  267TIP3    H1  744   2.577   4.565   5.983
  267TIP3    H2  745   2.473   4.663   6.033
  268TIP3   OH2  746   7.251   5.909   4.954
  268TIP3    H1  747   7.279   5.997   4.930
  268TIP3    H2  748   7.216   5.872   4.873
  269TIP3   OH2  749   6.396   3.768   1.409
  269TIP3    H1  750   6.325   3.732   1.462
  269TIP3    H2  751   6.370   3.751   1.318
  270TIP3   OH2  752   5.219   2.490   0.461
  270TIP3    H1  753   5.191   2.497   0.370
  270TIP3    H2  754   5.199   2.576   0.499
  271TIP3   OH2  755   6.092   4.315   4.878
  271TIP3    H1  756   6.095   4.343   4.787
  271TIP3    H2  757   6.000   4.324   4.902
  272TIP3   OH2  758   3.702   0.561   3.930
  272TIP3    H1  759   3.775   0.622   3.937
  272TIP3    H2  760   3.627   0.608   3.965
  273TIP3   OH2  761   2.159   0.085   2.399
  273TIP3    H1  762   2.185  -0.007   2.404
  273TIP3    H2  763   2.198   0.125   2.476
  274TIP3   OH2  764   6.614   1.812   4.450
  274TIP3    H1  765   6.547   1.753   4.414
  274TIP3    H2  766   6.647   1.766   4.527
  275TIP3   OH2  767   2.730   2.502   5.129
  275TIP3    H1  768   2.808   2.446   5.128
  275TIP3    H2  769   2.680   2.475   5.051
  276TIP3   OH2  770   6.811   2.581   6.340
  276TIP3    H1  771   6.871   2.561   6.412
  276TIP3    H2  772   6.730   2.608   6.384
  277TIP3   OH2  773   1.728   0.141   3.726
  277TIP3    H1  774   1.675   0.136   3.806
  277TIP3    H2  775   1.704   0.225   3.687
  278TIP3   OH2  776   7.581   3.043   0.232
  278TIP3    H1  777   7.602   3.108   0.165
  278TIP3    H2  778   7.642   2.971   0.215
  279TIP3   OH2  779   2.816   1.442   2.151
  279TIP3    H1  780   2.869   1.364   2.138
  279TIP3    H2  781   2.778   1.432   2.238
  280TIP3   OH2  782   1.268   0.617   4.537
  280TIP3    H1  783   1.178   0.584   4.547
  280TIP3    H2  784   1.296   0.639   4.626
  281TIP3   OH2  785   2.813   1.902   5.804
  281TIP3    H1  786   2.831   1.987   5.845
  281TIP3    H2  787   2.815   1.920   5.710
  282TIP3   OH2  788   2.518   7.841   2.974
  282TIP3    H1  789   2.543   7.765   3.027
  282TIP3    H2  790   2.539   7.814   2.884
  283TIP3   OH2  791   7.416   2.418   1.273
  283TIP3    H1  792   7.462   2.490   1.317
  283TIP3    H2  793   7.326   2.426   1.304
  284TIP3   OH2  794   7.000   5.192   2.415
  284TIP3    H1  795   7.054   5.159   2.343
  284TIP3    H2  796   7.057   5.254   2.461
  285TIP3   OH2  797   1.774   3.264   0.700
  285TIP3    H1  798   1.702   3.234   0.755
  285TIP3    H2  799   1.738   3.266   0.612
  286TIP3   OH2  800   5.657   5.641   3.448
  286TIP3    H1  801   5.569   5.615   3.473
  286TIP3    H2  802   5.710   5.562   3.457
  287TIP3   OH2  803   7.623   0.838   5.194
  287TIP3    H1  804   7.547   0.865   5.143
  287TIP3    H2  805   7.688   0.906   5.177
  288TIP3   OH2  806   5.945   5.031   4.642
  288TIP3    H1  807   5.936   5.061   4.551
  288TIP3    H2  808   5.944   4.936   4.637
  289TIP3   OH2  809   5.390   5.860   1.117
  289TIP3    H1  810   5.332   5.903   1.181
  289TIP3    H2  811   5.332   5.803   1.067
  290TIP3   OH2  812   6.891   5.905   4.238
  290TIP3    H1  813   6.963   5.918   4.175
  290TIP3    H2  814   6.813   5.934   4.191
  291TIP3   OH2  815   6.517   3.134   1.444
  291TIP3    H1  816   6.501   3.228   1.447
  291TIP3    H2  817   6.539   3.110   1.534
  292TIP3   OH2  818   4.121   7.698   4.236
  292TIP3    H1  819   4.102   7.657   4.152
  292TIP3    H2  820   4.168   7.778   4.215
  293TIP3   OH2  821   0.179   6.205   2.558
  293TIP3    H1  822   0.125   6.127   2.548
  293TIP3    H2  823   0.135   6.272   2.506
  294TIP3   OH2  824   7.835   3.810   0.012
  294TIP3    H1  825   7.917   3.860   0.017
  294TIP3    H2  826   7.849   3.749  -0.060
  295TIP3   OH2  827   3.979   0.287   5.354
  295TIP3    H1  828   4.026   0.307   5.436
  295TIP3    H2  829   4.033   0.221   5.311
  296TIP3   OH2  830   4.356   0.819   3.129
  296TIP3    H1  831   4.313   0.773   3.202
  296TIP3    H2  832   4.379   0.905   3.166
  297TIP3   OH2  833   7.552   7.633   1.384
  297TIP3    H1  834   7.586   7.640   1.474
  297TIP3    H2  835   7.593   7.706   1.338
  298TIP3   OH2  836   6.705   0.181   4.143
  298TIP3    H1  837   6.783   0.155   4.192
  298TIP3    H2  838   6.639   0.116   4.167
  299TIP3   OH2  839   3.763   3.495   3.020
  299TIP3    H1  840   3.677   3.477   2.981
  299TIP3    H2  841   3.797   3.568   2.969
  300TIP3   OH2  842   1.920   6.603   1.188
  300TIP3    H1  843   1.836   6.563   1.163
  300TIP3    H2  844   1.983   6.532   1.183
  301TIP3   OH2  845   6.551   5.365   3.559
  301TIP3    H1  846   6.481   5.302   3.573
  301TIP3    H2  847   6.602   5.330   3.486
  302TIP3   OH2  848   4.628   7.759   3.971
  302TIP3    H1  849   4.591   7.839   3.932
  302TIP3    H2  850   4.555   7.698   3.973
  303TIP3   OH2  851   7.139   5.704   5.873
  303TIP3    H1  852   7.173   5.769   5.812
  303TIP3    H2  853   7.195   5.627   5.860
  304TIP3   OH2  854   4.512   4.111   0.085
  304TIP3    H1  855   4.582   4.162   0.044
  304TIP3    H2  856   4.475   4.171   0.150
  305TIP3   OH2  857   7.178   5.803   3.388
  305TIP3    H1  858   7.087   5.830   3.384
  305TIP3    H2  859   7.191   5.776   3.479
  306TIP3   OH2  860   0.906   6.553   6.696
  306TIP3    H1  861   0.922   6.506   6.615
  306TIP3    H2  862   0.965   6.629   6.692
  307TIP3   OH2  863   6.432   0.453   4.845
  307TIP3    H1  864   6.523   0.451   4.817
  307TIP3    H2  865   6.426   0.385   4.912
  308TIP3   OH2  866   7.925   4.098   4.354
  308TIP3    H1  867   7.969   4.063   4.276
  308TIP3    H2  868   7.992   4.152   4.396
  309TIP3   OH2  869   2.656   7.628   3.054
  309TIP3    H1  870   2.710   7.627   3.134
  309TIP3    H2  871   2.676   7.545   3.012
  310TIP3   OH2  872   5.147   5.864   1.797
  310TIP3    H1  873   5.215   5.825   1.851
  310TIP3    H2  874   5.085   5.901   1.859
  311TIP3   OH2  875   2.704   6.172   6.256
  311TIP3    H1  876   2.778   6.220   6.220
  311TIP3    H2  877   2.636   6.177   6.189
  312TIP3   OH2  878   8.262   0.961   0.741
  312TIP3    H1  879   8.328   0.913   0.690
  312TIP3    H2  880   8.255   1.046   0.697
  313TIP3   OH2  881   1.775   2.711   0.090
  313TIP3    H1  882   1.783   2.667   0.174
  313TIP3    H2  883   1.714   2.783   0.106
  314TIP3   OH2  884   3.867   5.449   0.072
  314TIP3    H1  885   3.817   5.485   0.146
  314TIP3    H2  886   3.825   5.364   0.055
  315TIP3   OH2  887   0.304   0.076   6.377
  315TIP3    H1  888   0.228   0.035   6.337
  315TIP3    H2  889   0.353   0.004   6.416
  316TIP3   OH2  890   4.041   6.579   0.759
  316TIP3    H1  891   4.043   6.673   0.781
  316TIP3    H2  892   3.993   6.576   0.676
  317TIP3   OH2  893   5.155   2.476   6.282
  317TIP3    H1  894   5.236   2.425   6.281
  317TIP3    H2  895   5.136   2.489   6.375
  318TIP3   OH2  896   7.021   3.579   5.827
  318TIP3    H1  897   7.063   3.511   5.773
  318TIP3    H2  898   6.966   3.529   5.889
  319TIP3   OH2  899   0.981   6.851   0.961
  319TIP3    H1  900   0.963   6.777   1.019
  319TIP3    H2  901   1.064   6.828   0.918
  320TIP3   OH2  902   3.215   0.770   3.478
  320TIP3    H1  903   3.162   0.779   3.398
  320TIP3    H2  904   3.151   0.762   3.549
  321TIP3   OH2  905   7.326   5.308   2.438
  321TIP3    H1  906   7.337   5.215   2.422
  321TIP3    H2  907   7.393   5.330   2.503
  322TIP3   OH2  908   3.989   0.027   3.469
  322TIP3    H1  909   4.011   0.053   3.379
  322TIP3    H2  910   4.074   0.022   3.513
  323TIP3   OH2  911   5.510   5.477   0.474
  323TIP3    H1  912   5.473   5.389   0.485
  323TIP3    H2  913   5.577   5.466   0.406
  324TIP3   OH2  914   6.265   0.957   1.078
  324TIP3    H1  915   6.287   1.023   1.012
  324TIP3    H2  916   6.266   0.874   1.030
  325TIP3   OH2  917   6.207   3.752   1.917
  325TIP3    H1  918   6.266   3.808   1.865
  325TIP3    H2  919   6.258   3.673   1.934
  326TIP3   OH2  920   6.661   0.469   0.732
  326TIP3    H1  921   6.645   0.462   0.638
  326TIP3    H2  922   6.595   0.531   0.763
  327TIP3   OH2  923   6.866   0.853   3.266
  327TIP3    H1  924   6.942   0.909   3.282
  327TIP3    H2  925   6.819   0.851   3.349
  328TIP3   OH2  926   0.578   1.651   2.006
  328TIP3    H1  927   0.604   1.585   2.071
  328TIP3    H2  928   0.488   1.672   2.029
  329TIP3   OH2  929   7.392   4.761   5.245
  329TIP3    H1  930   7.321   4.701   5.264
  329TIP3    H2  931   7.437   4.722   5.170
  330TIP3   OH2  932   3.806   2.612   3.889
  330TIP3    H1  933   3.768   2.542   3.943
  330TIP3    H2  934   3.855   2.565   3.821
  331TIP3   OH2  935   6.632   0.309   0.236
  331TIP3    H1  936   6.636   0.214   0.224
  331TIP3    H2  937   6.570   0.339   0.170
  332TIP3   OH2  938   0.225   5.365   1.661
  332TIP3    H1  939   0.248   5.389   1.751
  332TIP3    H2  940   0.130   5.356   1.663
  333TIP3   OH2  941   5.171   6.429   2.766
  333TIP3    H1  942   5.213   6.445   2.851
  333TIP3    H2  943   5.166   6.333   2.760
  334TIP3   OH2  944   5.220   0.732   2.966
  334TIP3    H1  945   5.168   0.795   2.915
  334TIP3    H2  946   5.213   0.764   3.056
  335TIP3   OH2  947   2.872   4.939   3.707
  335TIP3    H1  948   2.799   4.992   3.739
  335TIP3    H2  949   2.862   4.941   3.611
  336TIP3   OH2  950   4.381   7.504   6.398
  336TIP3    H1  951   4.427   7.575   6.354
  336TIP3    H2  952   4.355   7.445   6.328
  337TIP3   OH2  953   5.984   6.993   6.361
  337TIP3    H1  954   5.941   6.961   6.282
  337TIP3    H2  955   6.037   6.920   6.391
  338TIP3   OH2  956   1.391   7.010   2.072
  338TIP3    H1  957   1.412   7.092   2.116
  338TIP3    H2  958   1.452   7.006   1.998
  339TIP3   OH2  959   1.968   3.506   6.704
  339TIP3    H1  960   1.981   3.573   6.771
  339TIP3    H2  961   2.035   3.524   6.638
  340TIP3   OH2  962   4.867   2.524   6.348
  340TIP3    H1  963   4.945   2.540   6.294
  340TIP3    H2  964   4.901   2.519   6.437
  341TIP3   OH2  965   0.526   7.468   2.303
  341TIP3    H1  966   0.530   7.413   2.381
  341TIP3    H2  967   0.432   7.477   2.285
  342TIP3   OH2  968   4.660   1.073   0.241
  342TIP3    H1  969   4.674   1.008   0.309
  342TIP3    H2  970   4.685   1.028   0.159
  343TIP3   OH2  971   1.630   3.166   1.600
  343TIP3    H1  972   1.682   3.230   1.552
  343TIP3    H2  973   1.561   3.217   1.642
  344TIP3   OH2  974   4.617   2.007   2.958
  344TIP3    H1  975   4.589   2.078   3.016
  344TIP3    H2  976   4.537   1.962   2.933
  345TIP3   OH2  977   0.824   1.699   3.283
  345TIP3    H1  978   0.891   1.761   3.312
  345TIP3    H2  979   0.765   1.691   3.357
  346TIP3   OH2  980   6.626   7.594   5.199
  346TIP3    H1  981   6.548   7.559   5.242
  346TIP3    H2  982   6.684   7.519   5.188
  347TIP3   OH2  983   5.545   3.198   3.293
  347TIP3    H1  984   5.498   3.233   3.368
  347TIP3    H2  985   5.597   3.125   3.330
  348TIP3   OH2  986   6.601   1.594   5.793
  348TIP3    H1  987   6.558   1.528   5.848
  348TIP3    H2  988   6.639   1.544   5.721
  349TIP3   OH2  989   7.624   3.381   5.101
  349TIP3    H1  990   7.593   3.466   5.071
  349TIP3    H2  991   7.564   3.356   5.171
  350TIP3   OH2  992   1.505   0.317   5.821
  350TIP3    H1  993   1.410   0.313   5.832
  350TIP3    H2  994   1.519   0.320   5.727
  351TIP3   OH2  995   0.510   6.448   5.122
  351TIP3    H1  996   0.593   6.481   5.156
  351TIP3    H2  997   0.443   6.486   5.178
  352TIP3   OH2  998   3.097   3.944   6.648
  352TIP3    H1  999   3.010   3.966   6.681
  352TIP3    H2 1000   3.095   3.970   6.556
  353TIP3   OH2 1001   7.621   1.841   1.187
  353TIP3    H1 1002   7.704   1.876   1.155
  353TIP3    H2 1003   7.646   1.777   1.253
  354TIP3   OH2 1004   5.939   0.876   6.037
  354TIP3    H1 1005   5.911   0.964   6.010
  354TIP3    H2 1006   5.876   0.851   6.105
  355TIP3   OH2 1007   0.410   0.057   2.664
  355TIP3    H1 1008   0.370  -0.010   2.609
  355TIP3    H2 1009   0.475   0.010   2.716
  356TIP3   OH2 1010   1.231   2.112   2.899
  356TIP3    H1 1011   1.212   2.125   2.992
  356TIP3    H2 1012   1.325   2.097   2.896
  357TIP3   OH2 1013   7.479   7.764   3.099
  357TIP3    H1 1014   7.442   7.686   3.057
  357TIP3    H2 1015   7.449   7.759   3.189
  358TIP3   OH2 1016   3.284   4.818   0.886
  358TIP3    H1 1017   3.250   4.872   0.958
  358TIP3    H2 1018   3.379   4.829   0.890
  359TIP3   OH2 1019   2.503   1.770   4.289
  359TIP3    H1 1020   2.451   1.838   4.333
  359TIP3    H2 1021   2.438   1.719   4.240
  360TIP3   OH2 1022   3.523   3.502   3.260
  360TIP3    H1 1023   3.482   3.416   3.274
  360TIP3    H2 1024   3.596   3.484   3.201
  361TIP3   OH2 1025   6.714   5.200   6.009
  361TIP3    H1 1026   6.808   5.188   5.995
  361TIP3    H2 1027   6.706   5.217   6.103
  362TIP3   OH2 1028   5.011   3.277   4.540
  362TIP3    H1 1029   5.102   3.269   4.571
  362TIP3    H2 1030   5.019   3.289   4.445
  363TIP3   OH2 1031   5.121   3.965   5.137
  363TIP3    H1 1032   5.203   3.964   5.088
  363TIP3    H2 1033   5.140   3.914   5.216
  364TIP3   OH2 1034   5.868   7.684   2.367
  364TIP3    H1 1035   5.932   7.617   2.343
  364TIP3    H2 1036   5.836   7.656   2.453
  365TIP3   OH2 1037   3.345   5.339   0.854
  365TIP3    H1 1038   3.362   5.268   0.791
  365TIP3    H2 1039   3.331   5.294   0.937
  366TIP3   OH2 1040   1.412   0.914   2.946
  366TIP3    H1 1041   1.404   0.885   3.038
  366TIP3    H2 1042   1.472   0.850   2.907
  367TIP3   OH2 1043   1.867   6.111   5.476
  367TIP3    H1 1044   1.867   6.206   5.466
  367TIP3    H2 1045   1.820   6.079   5.399
  368TIP3   OH2 1046   0.749   5.470   5.747
  368TIP3    H1 1047   0.688   5.406   5.710
  368TIP3    H2 1048   0.696   5.548   5.761
  369TIP3   OH2 1049   2.335   5.060   1.975
  369TIP3    H1 1050   2.319   5.150   2.003
  369TIP3    H2 1051   2.263   5.041   1.915
  370TIP3   OH2 1052   8.177   2.680   2.649
  370TIP3    H1 1053   8.174   2.584   2.650
  370TIP3    H2 1054   8.263   2.700   2.612
  371TIP3   OH2 1055   5.219   2.731   2.603
  371TIP3    H1 1056   5.257   2.644   2.599
  371TIP3    H2 1057   5.164   2.729   2.681
  372TIP3   OH2 1058   1.033   1.983   2.725
  372TIP3    H1 1059   1.044   2.017   2.636
  372TIP3    H2 1060   1.099   2.029   2.777
  373TIP3   OH2 1061   2.841   3.206   5.188
  373TIP3    H1 1062   2.930   3.229   5.214
  373TIP3    H2 1063   2.852   3.160   5.105
  374TIP3   OH2 1064   5.157   0.494   4.169
  374TIP3    H1 1065   5.106   0.454   4.240
  374TIP3    H2 1066   5.248   0.468   4.188
  375TIP3   OH2 1067   7.706   4.117   2.478
  375TIP3    H1 1068   7.698   4.210   2.458
  375TIP3    H2 1069   7.697   4.073   2.393
  376TIP3   OH2 1070   0.694   7.016   2.195
  376TIP3    H1 1071   0.633   6.992   2.126
  376TIP3    H2 1072   0.708   7.110   2.184
  377TIP3   OH2 1073   6.551   3.149   2.532
  377TIP3    H1 1074   6.472   3.114   2.573
  377TIP3    H2 1075   6.620   3.089   2.560
  378TIP3   OH2 1076   0.275   6.312   4.102
  378TIP3    H1 1077   0.350   6.317   4.043
  378TIP3    H2 1078   0.268   6.399   4.140
  379TIP3   OH2 1079   3.429   2.292   4.548
  379TIP3    H1 1080   3.409   2.381   4.576
  379TIP3    H2 1081   3.347   2.244   4.560
  380TIP3   OH2 1082   4.720   5.712   1.344
  380TIP3    H1 1083   4.647   5.748   1.395
  380TIP3    H2 1084   4.678   5.662   1.274
  381TIP3   OH2 1085   4.931   3.551   5.831
  381TIP3    H1 1086   4.974   3.580   5.750
  381TIP3    H2 1087   4.879   3.626   5.859
  382TIP3   OH2 1088   1.061   4.140   5.013
  382TIP3    H1 1089   1.047   4.231   5.039
  382TIP3    H2 1090   1.001   4.126   4.940
  383TIP3   OH2 1091   5.675   3.811   0.895
  383TIP3    H1 1092   5.758   3.856   0.885
  383TIP3    H2 1093   5.671   3.788   0.988
  384TIP3   OH2 1094   2.472   0.409   6.308
  384TIP3    H1 1095   2.534   0.360   6.361
  384TIP3    H2 1096   2.425   0.343   6.257
  385TIP3   OH2 1097   6.881   7.451   6.032
  385TIP3    H1 1098   6.851   7.523   5.976
  385TIP3    H2 1099   6.874   7.373   5.978
  386TIP3   OH2 1100   3.214   4.737   1.345
  386TIP3    H1 1101   3.155   4.690   1.403
  386TIP3    H2 1102   3.273   4.785   1.403
  387TIP3   OH2 1103   4.191   1.364   1.575
  387TIP3    H1 1104   4.119   1.303   1.564
  387TIP3    H2 1105   4.187   1.420   1.498
  388TIP3   OH2 1106   0.268   2.374   3.999
  388TIP3    H1 1107   0.291   2.455   3.953
  388TIP3    H2 1108   0.188   2.344   3.955
  389TIP3   OH2 1109   5.625   4.663   2.207
  389TIP3    H1 1110   5.586   4.576   2.217
  389TIP3    H2 1111   5.550   4.723   2.208
  390TIP3   OH2 1112   3.217   2.095   4.129
  390TIP3    H1 1113   3.127   2.123   4.148
  390TIP3    H2 1114   3.214   2.067   4.037
  391TIP3   OH2 1115   0.153   6.137   5.423
  391TIP3    H1 1116   0.228   6.196   5.410
  391TIP3    H2 1117   0.088   6.166   5.360
  392TIP3   OH2 1118   0.071   2.503   1.663
  392TIP3    H1 1119   0.001   2.438   1.658
  392TIP3    H2 1120   0.081   2.535   1.573
  393TIP3   OH2 1121   1.798   6.476   5.979
  393TIP3    H1 1122   1.859   6.550   5.978
  393TIP3    H2 1123   1.812   6.434   6.064
  394TIP3   OH2 1124   4.388   2.512   6.313
  394TIP3    H1 1125   4.452   2.539   6.379
  394TIP3    H2 1126   4.438   2.455   6.254
  395TIP3   OH2 1127   2.416   6.639   1.703
  395TIP3    H1 1128   2.471   6.615   1.778
  395TIP3    H2 1129   2.422   6.564   1.644
  396TIP3   OH2 1130   7.206   3.020   6.646
  396TIP3    H1 1131   7.275   3.078   6.615
  396TIP3    H2 1132   7.126   3.072   6.637
  397TIP3   OH2 1133   6.564   6.526   6.071
  397TIP3    H1 1134   6.537   6.502   5.982
  397TIP3    H2 1135   6.643   6.578   6.059
  398TIP3   OH2 1136   6.987   1.621   0.440
  398TIP3    H1 1137   6.919   1.560   0.413
  398TIP3    H2 1138   7.000   1.602   0.533
  399TIP3   OH2 1139   5.979   4.920   2.826
  399TIP3    H1 1140   6.023   4.873   2.896
  399TIP3    H2 1141   6.044   4.927   2.757
  400TIP3   OH2 1142   7.777   2.723   2.801
  400TIP3    H1 1143   7.835   2.752   2.730
  400TIP3    H2 1144   7.741   2.805   2.836
  401TIP3   OH2 1145   8.165   6.586   4.198
  401TIP3    H1 1146   8.177   6.552   4.109
  401TIP3    H2 1147   8.080   6.629   4.195
  402TIP3   OH2 1148   0.039   4.495   6.232
  402TIP3    H1 1149  -0.005   4.488   6.317
  402TIP3    H2 1150   0.100   4.421   6.230
  403TIP3   OH2 1151  -0.025   2.970   2.163
  403TIP3    H1 1152   0.048   3.024   2.193
  403TIP3    H2 1153   0.002   2.939   2.076
  404TIP3   OH2 1154   6.651   1.064   2.322
  404TIP3    H1 1155   6.740   1.072   2.288
  404TIP3    H2 1156   6.620   0.979   2.291
  405TIP3   OH2 1157   7.421   0.186   6.282
  405TIP3    H1 1158   7.451   0.221   6.365
  405TIP3    H2 1159   7.326   0.180   6.292
  406TIP3   OH2 1160   3.096   6.348   3.001
  406TIP3    H1 1161   3.046   6.387   3.073
  406TIP3    H2 1162   3.033   6.292   2.955
  407TIP3   OH2 1163   2.445   5.355   1.789
  407TIP3    H1 1164   2.363   5.317   1.757
  407TIP3    H2 1165   2.433   5.449   1.782
  408TIP3   OH2 1166   7.803   6.252   3.190
  408TIP3    H1 1167   7.854   6.192   3.136
  408TIP3    H2 1168   7.760   6.196   3.254
  409TIP3   OH2 1169   7.978   4.377   2.187
  409TIP3    H1 1170   7.995   4.302   2.131
  409TIP3    H2 1171   8.048   4.439   2.166
  410TIP3   OH2 1172   4.854   5.805   5.902
  410TIP3    H1 1173   4.943   5.791   5.870
  410TIP3    H2 1174   4.825   5.719   5.932
  411TIP3   OH2 1175   0.546   6.405   2.869
  411TIP3    H1 1176   0.458   6.393   2.834
  411TIP3    H2 1177   0.578   6.484   2.825
  412TIP3   OH2 1178   7.514   6.492   3.535
  412TIP3    H1 1179   7.436   6.467   3.485
  412TIP3    H2 1180   7.481   6.548   3.605
  413TIP3   OH2 1181   1.970   0.281   5.052
  413TIP3    H1 1182   1.904   0.350   5.047
  413TIP3    H2 1183   2.038   0.315   5.110
  414TIP3   OH2 1184   1.258   0.058   0.172
  414TIP3    H1 1185   1.333   0.109   0.204
  414TIP3    H2 1186   1.240   0.093   0.085
  415TIP3   OH2 1187   6.730   7.094   1.493
  415TIP3    H1 1188   6.817   7.058   1.510
  415TIP3    H2 1189   6.744   7.158   1.423
  416TIP3   OH2 1190   0.031   0.547   6.562
  416TIP3    H1 1191   0.020   0.606   6.636
  416TIP3    H2 1192   0.117   0.568   6.526
  417TIP3   OH2 1193   0.151   1.321   6.611
  417TIP3    H1 1194   0.201   1.243   6.635
  417TIP3    H2 1195   0.198   1.393   6.655
  418TIP3   OH2 1196   7.994   5.344   2.113
  418TIP3    H1 1197   7.926   5.280   2.131
  418TIP3    H2 1198   8.019   5.378   2.199
  419TIP3   OH2 1199   1.393   3.334   5.916
  419TIP3    H1 1200   1.460   3.317   5.983
  419TIP3    H2 1201   1.347   3.412   5.948
  420TIP3   OH2 1202   2.935   7.154   0.377
  420TIP3    H1 1203   2.890   7.232   0.347
  420TIP3    H2 1204   2.977   7.180   0.459
  421TIP3   OH2 1205   5.119   4.911   6.109
  421TIP3    H1 1206   5.189   4.847   6.096
  421TIP3    H2 1207   5.047   4.861   6.147
  422TIP3   OH2 1208   0.727   7.115   5.341
  422TIP3    H1 1209   0.733   7.210   5.343
  422TIP3    H2 1210   0.646   7.097   5.293
  423TIP3   OH2 1211   4.617   0.375   3.177
  423TIP3    H1 1212   4.624   0.469   3.192
  423TIP3    H2 1213   4.523   0.357   3.180
  424TIP3   OH2 1214   5.510   0.813   4.757
  424TIP3    H1 1215   5.472   0.745   4.811
  424TIP3    H2 1216   5.605   0.798   4.762
  425TIP3   OH2 1217   6.682   1.917   0.689
  425TIP3    H1 1218   6.721   1.918   0.602
  425TIP3    H2 1219   6.757   1.914   0.749
  426TIP3   OH2 1220   6.463   0.411   3.352
  426TIP3    H1 1221   6.495   0.415   3.263
  426TIP3    H2 1222   6.378   0.454   3.349
  427TIP3   OH2 1223   2.889   1.217   2.309
  427TIP3    H1 1224   2.901   1.187   2.399
  427TIP3    H2 1225   2.970   1.192   2.264
  428TIP3   OH2 1226   7.484   4.071   1.595
  428TIP3    H1 1227   7.528   4.155   1.606
  428TIP3    H2 1228   7.538   4.009   1.644
  429TIP3   OH2 1229   7.157   4.726   6.654
  429TIP3    H1 1230   7.078   4.775   6.675
  429TIP3    H2 1231   7.174   4.745   6.562
  430TIP3   OH2 1232   5.148   5.697   2.337
  430TIP3    H1 1233   5.153   5.604   2.316
  430TIP3    H2 1234   5.136   5.741   2.253
  431TIP3   OH2 1235   6.600   4.339   2.768
  431TIP3    H1 1236   6.506   4.333   2.785
  431TIP3    H2 1237   6.616   4.273   2.700
  432TIP3   OH2 1238   3.967   4.145   2.951
  432TIP3    H1 1239   4.022   4.211   2.995
  432TIP3    H2 1240   3.976   4.166   2.858
  433TIP3   OH2 1241   6.465   7.535   4.894
  433TIP3    H1 1242   6.509   7.607   4.849
  433TIP3    H2 1243   6.402   7.578   4.952
  434TIP3   OH2 1244   3.013   3.717   1.038
  434TIP3    H1 1245   2.973   3.771   1.106
  434TIP3    H2 1246   2.945   3.710   0.971
  435TIP3   OH2 1247   6.928   0.867   6.480
  435TIP3    H1 1248   6.940   0.792   6.423
  435TIP3    H2 1249   7.015   0.883   6.518
  436TIP3   OH2 1250   6.215   5.479   5.974
  436TIP3    H1 1251   6.167   5.396   5.971
  436TIP3    H2 1252   6.243   5.494   5.884
  437TIP3   OH2 1253   5.615   0.559   2.138
  437TIP3    H1 1254   5.616   0.649   2.168
  437TIP3    H2 1255   5.585   0.564   2.047
  438TIP3   OH2 1256   1.128   3.134   0.163
  438TIP3    H1 1257   1.130   3.205   0.228
  438TIP3    H2 1258   1.037   3.102   0.166
  439TIP3   OH2 1259   0.812   0.261   6.725
  439TIP3    H1 1260   0.728   0.281   6.684
  439TIP3    H2 1261   0.802   0.172   6.759
  440TIP3   OH2 1262   0.181   3.812   2.127
  440TIP3    H1 1263   0.174   3.724   2.163
  440TIP3    H2 1264   0.245   3.856   2.183
  441TIP3   OH2 1265   0.709   6.753   5.844
  441TIP3    H1 1266   0.792   6.795   5.822
  441TIP3    H2 1267   0.724   6.659   5.829
  442TIP3   OH2 1268   7.620   1.797   2.070
  442TIP3    H1 1269   7.574   1.867   2.117
  442TIP3    H2 1270   7.618   1.824   1.978
  443TIP3   OH2 1271   2.463   4.083   2.733
  443TIP3    H1 1272   2.509   4.021   2.676
  443TIP3    H2 1273   2.463   4.041   2.819
  444TIP3   OH2 1274   0.747   0.142   1.725
  444TIP3    H1 1275   0.781   0.093   1.650
  444TIP3    H2 1276   0.791   0.226   1.721
  445TIP3   OH2 1277   4.480   6.009   0.245
  445TIP3    H1 1278   4.418   6.011   0.318
  445TIP3    H2 1279   4.436   5.956   0.178
  446TIP3   OH2 1280   7.059   3.804   0.200
  446TIP3    H1 1281   7.125   3.870   0.178
  446TIP3    H2 1282   7.011   3.842   0.273
  447TIP3   OH2 1283   7.637   7.452   4.036
  447TIP3    H1 1284   7.581   7.516   3.992
  447TIP3    H2 1285   7.672   7.499   4.112
  448TIP3   OH2 1286   2.813   0.823   3.184
  448TIP3    H1 1287   2.775   0.911   3.179
  448TIP3    H2 1288   2.743   0.769   3.222
  449TIP3   OH2 1289   5.613   6.022   4.831
  449TIP3    H1 1290   5.569   6.013   4.916
  449TIP3    H2 1291   5.662   5.940   4.822
  450TIP3   OH2 1292   7.647   0.481   1.543
  450TIP3    H1 1293   7.577   0.544   1.523
  450TIP3    H2 1294   7.618   0.437   1.623
  451TIP3   OH2 1295   1.538   4.435   6.091
  451TIP3    H1 1296   1.625   4.405   6.114
  451TIP3    H2 1297   1.552   4.516   6.041
  452TIP3   OH2 1298   5.583   2.556   3.060
  452TIP3    H1 1299   5.523   2.494   3.100
  452TIP3    H2 1300   5.667   2.540   3.103
  453TIP3   OH2 1301   4.273   1.336   2.505
  453TIP3    H1 1302   4.259   1.250   2.466
  453TIP3    H2 1303   4.189   1.381   2.495
  454TIP3   OH2 1304   5.192   0.109   5.544
  454TIP3    H1 1305   5.142   0.111   5.625
  454TIP3    H2 1306   5.272   0.060   5.566
  455TIP3   OH2 1307   2.238   6.897   4.957
  455TIP3    H1 1308   2.314   6.902   5.015
  455TIP3    H2 1309   2.259   6.826   4.896
  456TIP3   OH2 1310   4.494   2.917   0.334
  456TIP3    H1 1311   4.539   2.854   0.391
  456TIP3    H2 1312   4.471   2.867   0.256
  457TIP3   OH2 1313   5.858   0.752   2.784
  457TIP3    H1 1314   5.934   0.795   2.744
  457TIP3    H2 1315   5.816   0.821   2.836
  458TIP3   OH2 1316   5.491   0.844   6.663
  458TIP3    H1 1317   5.559   0.850   6.730
  458TIP3    H2 1318   5.525   0.894   6.589
  459TIP3   OH2 1319   0.444   6.197   0.227
  459TIP3    H1 1320   0.416   6.134   0.161
  459TIP3    H2 1321   0.364   6.246   0.249
  460TIP3   OH2 1322   2.448   3.340   6.307
  460TIP3    H1 1323   2.470   3.260   6.259
  460TIP3    H2 1324   2.517   3.402   6.283
  461TIP3   OH2 1325   1.354   2.207   4.741
  461TIP3    H1 1326   1.444   2.174   4.748
  461TIP3    H2 1327   1.305   2.158   4.807
  462TIP3   OH2 1328   6.641   4.329   0.951
  462TIP3    H1 1329   6.725   4.375   0.957
  462TIP3    H2 1330   6.665   4.237   0.946
  463TIP3   OH2 1331   3.393   3.804   5.391
  463TIP3    H1 1332   3.335   3.753   5.447
  463TIP3    H2 1333   3.378   3.895   5.415
  464TIP3   OH2 1334   7.674   6.434   2.293
  464TIP3    H1 1335   7.587   6.423   2.254
  464TIP3    H2 1336   7.698   6.347   2.324
  465TIP3   OH2 1337   2.025   1.252   3.881
  465TIP3    H1 1338   1.972   1.296   3.815
  465TIP3    H2 1339   2.087   1.319   3.911
  466TIP3   OH2 1340   6.530   1.546   0.323
  466TIP3    H1 1341   6.492   1.612   0.265
  466TIP3    H2 1342   6.582   1.596   0.386
  467TIP3   OH2 1343   6.210   5.114   0.389
  467TIP3    H1 1344   6.266   5.182   0.353
  467TIP3    H2 1345   6.147   5.095   0.320
  468TIP3   OH2 1346   3.666   0.684   5.998
  468TIP3    H1 1347   3.592   0.652   5.947
  468TIP3    H2 1348   3.633   0.763   6.041
  469TIP3   OH2 1349   2.266   3.576   5.325
  469TIP3    H1 1350   2.300   3.490   5.353
  469TIP3    H2 1351   2.249   3.622   5.407
  470TIP3   OH2 1352   3.356   2.366   3.251
  470TIP3    H1 1353   3.351   2.271   3.240
  470TIP3    H2 1354   3.347   2.401   3.162
  471TIP3   OH2 1355   7.356   6.023   1.402
  471TIP3    H1 1356   7.344   6.112   1.435
  471TIP3    H2 1357   7.277   6.006   1.350
  472TIP3   OH2 1358   1.416   0.540   1.639
  472TIP3    H1 1359   1.437   0.471   1.576
  472TIP3    H2 1360   1.428   0.622   1.590
  473TIP3   OH2 1361   2.021   2.378   3.839
  473TIP3    H1 1362   1.938   2.423   3.855
  473TIP3    H2 1363   2.019   2.303   3.899
  474TIP3   OH2 1364   4.493   6.841   3.378
  474TIP3    H1 1365   4.427   6.910   3.377
  474TIP3    H2 1366   4.474   6.790   3.457
  475TIP3   OH2 1367   2.777   4.546   0.697
  475TIP3    H1 1368   2.787   4.606   0.771
  475TIP3    H2 1369   2.697   4.576   0.653
  476TIP3   OH2 1370   1.258   5.645   0.746
  476TIP3    H1 1371   1.254   5.615   0.655
  476TIP3    H2 1372   1.208   5.580   0.795
  477TIP3   OH2 1373   4.234   6.554   6.552
  477TIP3    H1 1374   4.202   6.638   6.586
  477TIP3    H2 1375   4.156   6.498   6.552
  478TIP3   OH2 1376   6.649   4.222   1.983
  478TIP3    H1 1377   6.686   4.309   2.001
  478TIP3    H2 1378   6.696   4.192   1.905
  479TIP3   OH2 1379   1.016   0.066   3.227
  479TIP3    H1 1380   1.107   0.088   3.211
  479TIP3    H2 1381   1.001  -0.014   3.177
  480TIP3   OH2 1382   2.982   1.090   2.760
  480TIP3    H1 1383   2.908   1.135   2.718
  480TIP3    H2 1384   2.962   1.096   2.854
  481TIP3   OH2 1385   7.164   2.811   3.595
  481TIP3    H1 1386   7.126   2.726   3.617
  481TIP3    H2 1387   7.125   2.833   3.510
  482TIP3   OH2 1388   5.513   4.293   3.891
  482TIP3    H1 1389   5.448   4.224   3.885
  482TIP3    H2 1390   5.580   4.270   3.827
  483TIP3   OH2 1391   6.090   4.874   1.876
  483TIP3    H1 1392   6.031   4.855   1.803
  483TIP3    H2 1393   6.171   4.829   1.855
  484TIP3   OH2 1394   2.292   0.744   1.927
  484TIP3    H1 1395   2.316   0.678   1.992
  484TIP3    H2 1396   2.299   0.698   1.843
  485TIP3   OH2 1397   3.707   4.769   3.409
  485TIP3    H1 1398   3.757   4.721   3.475
  485TIP3    H2 1399   3.727   4.725   3.327
  486TIP3   OH2 1400   6.039   0.220   6.034
  486TIP3    H1 1401   5.975   0.274   6.080
  486TIP3    H2 1402   6.067   0.154   6.097
  487TIP3   OH2 1403   4.061   2.182   4.275
  487TIP3    H1 1404   4.065   2.201   4.182
  487TIP3    H2 1405   4.151   2.161   4.299
  488TIP3   OH2 1406   1.103   7.329   4.433
  488TIP3    H1 1407   1.013   7.296   4.439
  488TIP3    H2 1408   1.103   7.408   4.488
  489TIP3   OH2 1409   7.073   5.155   4.639
  489TIP3    H1 1410   7.116   5.131   4.721
  489TIP3    H2 1411   7.142   5.143   4.573
  490TIP3   OH2 1412   1.645   3.584   2.486
  490TIP3    H1 1413   1.740   3.591   2.494
  490TIP3    H2 1414   1.631   3.499   2.444
  491TIP3   OH2 1415   4.249   1.997   0.721
  491TIP3    H1 1416   4.307   2.001   0.796
  491TIP3    H2 1417   4.162   2.016   0.756
  492TIP3   OH2 1418   5.998   3.080   3.225
  492TIP3    H1 1419   5.999   3.167   3.186
  492TIP3    H2 1420   5.918   3.078   3.277
  493TIP3   OH2 1421   3.951   5.851   4.550
  493TIP3    H1 1422   3.949   5.853   4.646
  493TIP3    H2 1423   3.943   5.758   4.528
  494TIP3   OH2 1424   4.088   2.390   2.260
  494TIP3    H1 1425   4.151   2.437   2.315
  494TIP3    H2 1426   4.061   2.453   2.194
  495TIP3   OH2 1427   0.538   0.288   2.001
  495TIP3    H1 1428   0.457   0.330   2.030
  495TIP3    H2 1429   0.509   0.216   1.946
  496TIP3   OH2 1430   4.534   0.261   4.884
  496TIP3    H1 1431   4.624   0.232   4.871
  496TIP3    H2 1432   4.537   0.316   4.963
  497TIP3   OH2 1433   4.733   2.314   2.721
  497TIP3    H1 1434   4.710   2.330   2.629
  497TIP3    H2 1435   4.825   2.290   2.719
  498TIP3   OH2 1436   7.996   6.457   0.237
  498TIP3    H1 1437   7.968   6.376   0.195
  498TIP3    H2 1438   7.915   6.494   0.273
  499TIP3   OH2 1439   6.049   4.976   0.804
  499TIP3    H1 1440   6.108   5.032   0.753
  499TIP3    H2 1441   6.055   4.890   0.761
  500TIP3   OH2 1442   0.571   0.818   2.297
  500TIP3    H1 1443   0.486   0.786   2.326
  500TIP3    H2 1444   0.634   0.769   2.351
  501TIP3   OH2 1445   5.260   1.023   2.481
  501TIP3    H1 1446   5.219   1.105   2.508
  501TIP3    H2 1447   5.349   1.029   2.516
  502TIP3   OH2 1448   2.013   5.430   1.794
  502TIP3    H1 1449   1.976   5.406   1.879
  502TIP3    H2 1450   2.056   5.514   1.809
  503TIP3   OH2 1451   1.236   0.682   0.330
  503TIP3    H1 1452   1.257   0.605   0.383
  503TIP3    H2 1453   1.175   0.650   0.264
  504TIP3   OH2 1454   2.671   1.436   2.372
  504TIP3    H1 1455   2.644   1.517   2.416
  504TIP3    H2 1456   2.686   1.375   2.444
  505TIP3   OH2 1457   2.648   5.922   6.434
  505TIP3    H1 1458   2.725   5.917   6.378
  505TIP3    H2 1459   2.586   5.975   6.385
  506TIP3   OH2 1460   6.295   1.310   3.488
  506TIP3    H1 1461   6.311   1.258   3.566
  506TIP3    H2 1462   6.246   1.252   3.430
  507TIP3   OH2 1463   3.355   3.020   5.501
  507TIP3    H1 1464   3.438   3.067   5.501
  507TIP3    H2 1465   3.367   2.949   5.564
  508TIP3   OH2 1466   0.558   5.918   1.304
  508TIP3    H1 1467   0.582   5.831   1.272
  508TIP3    H2 1468   0.541   5.968   1.225
  509TIP3   OH2 1469   0.936   6.147   5.881
  509TIP3    H1 1470   1.019   6.100   5.886
  509TIP3    H2 1471   0.946   6.219   5.943
  510TIP3   OH2 1472   3.426   3.247   1.777
  510TIP3    H1 1473   3.465   3.165   1.746
  510TIP3    H2 1474   3.409   3.232   1.870
  511TIP3   OH2 1475   5.990   3.418   5.129
  511TIP3    H1 1476   6.033   3.446   5.210
  511TIP3    H2 1477   5.899   3.404   5.153
  512TIP3   OH2 1478   5.712   4.317   3.098
  512TIP3    H1 1479   5.673   4.261   3.030
  512TIP3    H2 1480   5.695   4.271   3.180
  513TIP3   OH2 1481   0.825   5.195   1.205
  513TIP3    H1 1482   0.790   5.110   1.181
  513TIP3    H2 1483   0.782   5.216   1.288
  514TIP3   OH2 1484   5.991   6.047   2.307
  514TIP3    H1 1485   5.920   6.027   2.368
  514TIP3    H2 1486   5.953   6.111   2.247
  515TIP3   OH2 1487   3.557   7.215   6.075
  515TIP3    H1 1488   3.495   7.243   6.143
  515TIP3    H2 1489   3.573   7.294   6.023
  516TIP3   OH2 1490   5.735   1.930   6.441
  516TIP3    H1 1491   5.719   1.948   6.534
  516TIP3    H2 1492   5.824   1.893   6.439
  517TIP3   OH2 1493   2.208   3.732   1.448
  517TIP3    H1 1494   2.279   3.723   1.512
  517TIP3    H2 1495   2.157   3.652   1.457
  518TIP3   OH2 1496   8.192   6.771   3.367
  518TIP3    H1 1497   8.230   6.795   3.283
  518TIP3    H2 1498   8.258   6.795   3.432
  519TIP3   OH2 1499   2.458   5.433   0.576
  519TIP3    H1 1500   2.515   5.495   0.530
  519TIP3    H2 1501   2.440   5.365   0.512
  520TIP3   OH2 1502   1.238   7.421   4.791
  520TIP3    H1 1503   1.298   7.481   4.836
  520TIP3    H2 1504   1.286   7.394   4.712
  521TIP3   OH2 1505   2.115   3.058   0.528
  521TIP3    H1 1506   2.172   3.040   0.603
  521TIP3    H2 1507   2.083   3.147   0.543
  522TIP3   OH2 1508   2.107   1.624   3.460
  522TIP3    H1 1509   2.154   1.587   3.535
  522TIP3    H2 1510   2.150   1.587   3.384
  523TIP3   OH2 1511   2.672   0.695   4.200
  523TIP3    H1 1512   2.700   0.626   4.261
  523TIP3    H2 1513   2.680   0.655   4.113
  524TIP3   OH2 1514   3.183   5.537   1.710
  524TIP3    H1 1515   3.247   5.605   1.688
  524TIP3    H2 1516   3.132   5.574   1.781
  525TIP3   OH2 1517   7.218   3.194   2.975
  525TIP3    H1 1518   7.157   3.228   3.041
  525TIP3    H2 1519   7.162   3.169   2.901
  526TIP3   OH2 1520   2.023   5.952   4.271
  526TIP3    H1 1521   2.004   6.043   4.293
  526TIP3    H2 1522   2.003   5.945   4.178
  527TIP3   OH2 1523   2.632   6.602   4.613
  527TIP3    H1 1524   2.644   6.627   4.705
  527TIP3    H2 1525   2.679   6.669   4.564
  528TIP3   OH2 1526   1.383   2.512   5.848
  528TIP3    H1 1527   1.408   2.424   5.875
  528TIP3    H2 1528   1.301   2.530   5.895
  529TIP3   OH2 1529   8.291   1.016   4.625
  529TIP3    H1 1530   8.235   1.085   4.661
  529TIP3    H2 1531   8.273   1.018   4.531
  530TIP3   OH2 1532   5.656   6.981   4.649
  530TIP3    H1 1533   5.616   6.900   4.682
  530TIP3    H2 1534   5.586   7.025   4.602
  531TIP3   OH2 1535   4.798   5.253   6.605
  531TIP3    H1 1536   4.856   5.257   6.529
  531TIP3    H2 1537   4.850   5.293   6.676
  532TIP3   OH2 1538   3.368   5.908   3.891
  532TIP3    H1 1539   3.296   5.941   3.836
  532TIP3    H2 1540   3.373   5.815   3.870
  533TIP3   OH2 1541   0.351   4.280   3.950
  533TIP3    H1 1542   0.410   4.242   3.884
  533TIP3    H2 1543   0.344   4.372   3.926
  534TIP3   OH2 1544   2.602   0.802   3.948
  534TIP3    H1 1545   2.651   0.820   3.867
  534TIP3    H2 1546   2.521   0.853   3.939
  535TIP3   OH2 1547   4.245   1.943   4.724
  535TIP3    H1 1548   4.236   1.848   4.735
  535TIP3    H2 1549   4.329   1.964   4.766
  536TIP3   OH2 1550   1.647   7.216   4.921
  536TIP3    H1 1551   1.659   7.124   4.898
  536TIP3    H2 1552   1.732   7.242   4.958
  537TIP3   OH2 1553   5.058   1.770   0.447
  537TIP3    H1 1554   5.024   1.740   0.531
  537TIP3    H2 1555   5.020   1.857   0.435
  538TIP3   OH2 1556   7.684   6.194   2.450
  538TIP3    H1 1557   7.651   6.106   2.436
  538TIP3    H2 1558   7.763   6.199   2.397
  539TIP3   OH2 1559   0.832   0.407   2.933
  539TIP3    H1 1560   0.869   0.493   2.916
  539TIP3    H2 1561   0.741   0.424   2.958
  540TIP3   OH2 1562   4.504   5.422   4.644
  540TIP3    H1 1563   4.550   5.405   4.726
  540TIP3    H2 1564   4.411   5.415   4.667
  541TIP3   OH2 1565   3.694   0.582   5.071
  541TIP3    H1 1566   3.677   0.620   5.157
  541TIP3    H2 1567   3.742   0.501   5.088
  542TIP3   OH2 1568   3.969   5.152   6.543
  542TIP3    H1 1569   3.894   5.116   6.591
  542TIP3    H2 1570   4.001   5.223   6.599
  543TIP3   OH2 1571   6.692   6.766   6.003
  543TIP3    H1 1572   6.615   6.799   6.049
  543TIP3    H2 1573   6.686   6.805   5.916
  544TIP3   OH2 1574   6.118   1.216   3.126
  544TIP3    H1 1575   6.060   1.241   3.054
  544TIP3    H2 1576   6.112   1.121   3.130
  545TIP3   OH2 1577   7.556   0.203   2.933
  545TIP3    H1 1578   7.535   0.288   2.972
  545TIP3    H2 1579   7.514   0.139   2.991
  546TIP3   OH2 1580   7.346   0.150   3.521
  546TIP3    H1 1581   7.324   0.235   3.560
  546TIP3    H2 1582   7.440   0.140   3.535
  547TIP3   OH2 1583   5.224   4.007   6.256
  547TIP3    H1 1584   5.237   3.912   6.257
  547TIP3    H2 1585   5.264   4.035   6.174
  548TIP3   OH2 1586   7.444   1.749   0.613
  548TIP3    H1 1587   7.421   1.837   0.643
  548TIP3    H2 1588   7.453   1.698   0.693
  549TIP3   OH2 1589   4.225   4.601   5.049
  549TIP3    H1 1590   4.278   4.607   4.970
  549TIP3    H2 1591   4.145   4.556   5.022
  550TIP3   OH2 1592   8.128   4.389   4.341
  550TIP3    H1 1593   8.034   4.398   4.325
  550TIP3    H2 1594   8.156   4.476   4.369
  551TIP3   OH2 1595   7.986   3.771   2.902
  551TIP3    H1 1596   8.001   3.684   2.866
  551TIP3    H2 1597   7.898   3.794   2.874
  552TIP3   OH2 1598   2.671   3.511   3.686
  552TIP3    H1 1599   2.604   3.464   3.735
  552TIP3    H2 1600   2.754   3.487   3.729
  553TIP3   OH2 1601   4.558   0.825   0.776
  553TIP3    H1 1602   4.512   0.887   0.719
  553TIP3    H2 1603   4.529   0.738   0.746
  554TIP3   OH2 1604   4.326   0.958   0.599
  554TIP3    H1 1605   4.275   0.907   0.535
  554TIP3    H2 1606   4.261   0.996   0.658
  555TIP3   OH2 1607   8.033   7.693   4.092
  555TIP3    H1 1608   8.035   7.647   4.175
  555TIP3    H2 1609   7.941   7.692   4.066
  556TIP3   OH2 1610   3.484   4.587   4.499
  556TIP3    H1 1611   3.492   4.683   4.495
  556TIP3    H2 1612   3.400   4.572   4.541
  557TIP3   OH2 1613   6.149   2.522   6.196
  557TIP3    H1 1614   6.093   2.502   6.271
  557TIP3    H2 1615   6.091   2.514   6.120
  558TIP3   OH2 1616   7.988   5.959   5.601
  558TIP3    H1 1617   8.037   5.995   5.674
  558TIP3    H2 1618   7.997   5.864   5.610
  559TIP3   OH2 1619   3.289   4.082   2.229
  559TIP3    H1 1620   3.231   4.151   2.196
  559TIP3    H2 1621   3.229   4.010   2.252
  560TIP3   OH2 1622   6.807   1.661   1.246
  560TIP3    H1 1623   6.851   1.746   1.254
  560TIP3    H2 1624   6.757   1.667   1.165
  561TIP3   OH2 1625   3.052   4.832   2.474
  561TIP3    H1 1626   2.986   4.776   2.433
  561TIP3    H2 1627   3.006   4.914   2.492
  562TIP3   OH2 1628   2.257   7.345   2.732
  562TIP3    H1 1629   2.165   7.366   2.749
  562TIP3    H2 1630   2.304   7.424   2.758
  563TIP3   OH2 1631   2.503   7.024   1.335
  563TIP3    H1 1632   2.490   7.045   1.243
  563TIP3    H2 1633   2.493   6.929   1.340
  564TIP3   OH2 1634   3.128   3.632   2.851
  564TIP3    H1 1635   3.180   3.692   2.798
  564TIP3    H2 1636   3.038   3.661   2.838
  565TIP3   OH2 1637   5.863   0.155   0.255
  565TIP3    H1 1638   5.822   0.093   0.316
  565TIP3    H2 1639   5.926   0.103   0.206
  566TIP3   OH2 1640   5.444   5.999   3.389
  566TIP3    H1 1641   5.526   5.964   3.355
  566TIP3    H2 1642   5.400   5.924   3.429
  567TIP3   OH2 1643   1.429   1.784  -0.006
  567TIP3    H1 1644   1.500   1.818  -0.060
  567TIP3    H2 1645   1.430   1.840   0.073
  568TIP3   OH2 1646   5.990   3.359   3.157
  568TIP3    H1 1647   6.049   3.396   3.223
  568TIP3    H2 1648   5.924   3.427   3.143
  569TIP3   OH2 1649   2.174   4.159   4.984
  569TIP3    H1 1650   2.152   4.252   4.996
  569TIP3    H2 1651   2.188   4.126   5.073
  570TIP3   OH2 1652   4.996   4.947   0.033
  570TIP3    H1 1653   5.054   4.992   0.095
  570TIP3    H2 1654   5.039   4.956  -0.052
  571TIP3   OH2 1655   4.527   1.324   0.156
  571TIP3    H1 1656   4.578   1.254   0.195
  571TIP3    H2 1657   4.553   1.325   0.064
  572TIP3   OH2 1658   0.355   3.395   6.505
  572TIP3    H1 1659   0.312   3.480   6.511
  572TIP3    H2 1660   0.348   3.371   6.412
  573TIP3   OH2 1661   1.559   3.393   5.425
  573TIP3    H1 1662   1.541   3.404   5.518
  573TIP3    H2 1663   1.635   3.336   5.421
  574TIP3   OH2 1664   6.710   3.814   4.437
  574TIP3    H1 1665   6.616   3.805   4.426
  574TIP3    H2 1666   6.747   3.739   4.391
  575TIP3   OH2 1667   0.209   1.396   1.303
  575TIP3    H1 1668   0.181   1.306   1.285
  575TIP3    H2 1669   0.129   1.440   1.332
  576TIP3   OH2 1670   5.698   0.077   0.484
  576TIP3    H1 1671   5.636   0.017   0.526
  576TIP3    H2 1672   5.766   0.091   0.550
  577TIP3   OH2 1673   4.201   2.219   2.709
  577TIP3    H1 1674   4.296   2.208   2.702
  577TIP3    H2 1675   4.188   2.314   2.715
  578TIP3   OH2 1676   1.157   2.865   3.083
  578TIP3    H1 1677   1.208   2.883   3.003
  578TIP3    H2 1678   1.091   2.934   3.085
  579TIP3   OH2 1679   4.581   4.726   1.266
  579TIP3    H1 1680   4.562   4.633   1.271
  579TIP3    H2 1681   4.618   4.749   1.351
  580TIP3   OH2 1682   4.745   1.263   1.393
  580TIP3    H1 1683   4.730   1.283   1.300
  580TIP3    H2 1684   4.703   1.335   1.440
  581TIP3   OH2 1685   5.878   1.097   2.264
  581TIP3    H1 1686   5.834   1.122   2.345
  581TIP3    H2 1687   5.918   1.013   2.284
  582TIP3   OH2 1688   7.009   5.366   3.199
  582TIP3    H1 1689   7.072   5.356   3.128
  582TIP3    H2 1690   7.055   5.334   3.277
  583TIP3   OH2 1691   7.517   3.168   0.482
  583TIP3    H1 1692   7.588   3.218   0.441
  583TIP3    H2 1693   7.490   3.106   0.415
  584TIP3   OH2 1694   3.295   7.064   3.477
  584TIP3    H1 1695   3.272   6.975   3.506
  584TIP3    H2 1696   3.219   7.117   3.498
  585TIP3   OH2 1697   7.014   5.278   5.314
  585TIP3    H1 1698   7.001   5.224   5.392
  585TIP3    H2 1699   6.985   5.224   5.242
  586TIP3   OH2 1700   3.884   4.331   6.448
  586TIP3    H1 1701   3.807   4.387   6.442
  586TIP3    H2 1702   3.856   4.258   6.504
  587TIP3   OH2 1703   2.629   6.323   0.242
  587TIP3    H1 1704   2.559   6.366   0.192
  587TIP3    H2 1705   2.605   6.231   0.242
  588TIP3   OH2 1706   1.687   0.111   5.973
  588TIP3    H1 1707   1.748   0.118   5.900
  588TIP3    H2 1708   1.663   0.201   5.994
  589TIP3   OH2 1709   6.098   3.385   0.720
  589TIP3    H1 1710   6.112   3.379   0.626
  589TIP3    H2 1711   6.181   3.414   0.756
  590TIP3   OH2 1712   4.561   0.570   6.316
  590TIP3    H1 1713   4.619   0.604   6.384
  590TIP3    H2 1714   4.474   0.603   6.340
  591TIP3   OH2 1715   4.605   5.470   4.400
  591TIP3    H1 1716   4.592   5.456   4.494
  591TIP3    H2 1717   4.516   5.471   4.363
  592TIP3   OH2 1718   4.883   4.027   5.017
  592TIP3    H1 1719   4.838   3.943   5.029
  592TIP3    H2 1720   4.971   4.013   5.052
  593TIP3   OH2 1721   5.644   5.224   2.890
  593TIP3    H1 1722   5.630   5.290   2.823
  593TIP3    H2 1723   5.738   5.221   2.903
  594TIP3   OH2 1724   1.670   4.909   5.869
  594TIP3    H1 1725   1.731   4.874   5.804
  594TIP3    H2 1726   1.659   5.001   5.844
  595TIP3   OH2 1727   3.802   0.783   5.761
  595TIP3    H1 1728   3.870   0.716   5.754
  595TIP3    H2 1729   3.764   0.769   5.848
  596TIP3   OH2 1730   2.715   5.022   5.974
  596TIP3    H1 1731   2.632   5.013   6.021
  596TIP3    H2 1732   2.691   5.060   5.889
  597TIP3   OH2 1733   7.437   1.080   1.680
  597TIP3    H1 1734   7.524   1.066   1.643
  597TIP3    H2 1735   7.413   1.168   1.651
  598TIP3   OH2 1736   2.124   0.895   6.013
  598TIP3    H1 1737   2.077   0.852   6.085
  598TIP3    H2 1738   2.194   0.833   5.992
  599TIP3   OH2 1739   7.974   4.391   2.588
  599TIP3    H1 1740   7.967   4.351   2.674
  599TIP3    H2 1741   7.886   4.385   2.550
  600TIP3   OH2 1742   5.635   7.182   4.841
  600TIP3    H1 1743   5.709   7.132   4.807
  600TIP3    H2 1744   5.634   7.263   4.789
  601TIP3   OH2 1745   7.032   7.366   3.996
  601TIP3    H1 1746   6.966   7.401   3.936
  601TIP3    H2 1747   7.107   7.344   3.940
  602TIP3   OH2 1748   3.167   2.402   2.506
  602TIP3    H1 1749   3.184   2.380   2.415
  602TIP3    H2 1750   3.250   2.388   2.550
  603TIP3   OH2 1751   4.572   0.327   1.884
  603TIP3    H1 1752   4.635   0.320   1.812
  603TIP3    H2 1753   4.626   0.334   1.963
  604TIP3   OH2 1754   0.925   6.975   6.526
  604TIP3    H1 1755   0.908   7.062   6.563
  604TIP3    H2 1756   0.879   6.976   6.442
  605TIP3   OH2 1757   7.992   1.949   4.821
  605TIP3    H1 1758   8.025   1.898   4.895
  605TIP3    H2 1759   8.060   2.014   4.805
  606TIP3   OH2 1760   0.510   7.486   5.647
  606TIP3    H1 1761   0.458   7.538   5.585
  606TIP3    H2 1762   0.530   7.546   5.718
  607TIP3   OH2 1763   1.965   7.113   2.883
  607TIP3    H1 1764   1.872   7.126   2.866
  607TIP3    H2 1765   2.002   7.201   2.885
  608TIP3   OH2 1766   5.411   3.194   2.769
  608TIP3    H1 1767   5.402   3.102   2.742
  608TIP3    H2 1768   5.465   3.233   2.701
  609TIP3   OH2 1769   4.555   1.279   5.649
  609TIP3    H1 1770   4.561   1.324   5.564
  609TIP3    H2 1771   4.488   1.327   5.697
  610TIP3   OH2 1772   5.113   2.418   0.195
  610TIP3    H1 1773   5.027   2.419   0.235
  610TIP3    H2 1774   5.098   2.443   0.104
  611TIP3   OH2 1775   0.300   1.163   5.703
  611TIP3    H1 1776   0.379   1.210   5.729
  611TIP3    H2 1777   0.230   1.205   5.753
  612TIP3   OH2 1778   1.607   0.879   2.571
  612TIP3    H1 1779   1.679   0.863   2.511
  612TIP3    H2 1780   1.648   0.909   2.652
  613TIP3   OH2 1781   3.642   0.540   2.609
  613TIP3    H1 1782   3.575   0.514   2.672
  613TIP3    H2 1783   3.723   0.505   2.644
  614TIP3   OH2 1784   1.819   7.732   5.731
  614TIP3    H1 1785   1.740   7.779   5.703
  614TIP3    H2 1786   1.885   7.801   5.739
  615TIP3   OH2 1787   1.303   1.809   2.828
  615TIP3    H1 1788   1.353   1.849   2.899
  615TIP3    H2 1789   1.213   1.807   2.861
  616TIP3   OH2 1790   7.668   5.947   4.933
  616TIP3    H1 1791   7.602   5.885   4.900
  616TIP3    H2 1792   7.725   5.963   4.858
  617TIP3   OH2 1793   6.149   1.883   6.717
  617TIP3    H1 1794   6.225   1.939   6.705
  617TIP3    H2 1795   6.179   1.811   6.772
  618TIP3   OH2 1796   0.454   2.902   5.954
  618TIP3    H1 1797   0.380   2.954   5.922
  618TIP3    H2 1798   0.414   2.833   6.007
  619TIP3   OH2 1799   2.068   4.729   3.756
  619TIP3    H1 1800   1.998   4.754   3.815
  619TIP3    H2 1801   2.080   4.635   3.772
  620TIP3   OH2 1802   6.561   0.645   5.676
  620TIP3    H1 1803   6.623   0.574   5.696
  620TIP3    H2 1804   6.475   0.608   5.694
  621TIP3   OH2 1805   1.235   2.709   5.383
  621TIP3    H1 1806   1.291   2.694   5.460
  621TIP3    H2 1807   1.169   2.771   5.413
  622TIP3   OH2 1808   1.260   6.427   2.523
  622TIP3    H1 1809   1.316   6.428   2.601
  622TIP3    H2 1810   1.299   6.362   2.466
  623TIP3   OH2 1811   5.684   7.544   1.405
  623TIP3    H1 1812   5.694   7.456   1.369
  623TIP3    H2 1813   5.621   7.533   1.476
  624TIP3   OH2 1814   0.339   1.498   1.057
  624TIP3    H1 1815   0.295   1.451   1.127
  624TIP3    H2 1816   0.322   1.445   0.979
  625TIP3   OH2 1817   0.527   3.222   5.942
  625TIP3    H1 1818   0.531   3.146   5.885
  625TIP3    H2 1819   0.573   3.291   5.894
  626TIP3   OH2 1820   0.950   7.722   6.049
  626TIP3    H1 1821   0.973   7.758   5.963
  626TIP3    H2 1822   0.929   7.799   6.102
  627TIP3   OH2 1823   1.442   5.973   1.588
  627TIP3    H1 1824   1.506   5.959   1.659
  627TIP3    H2 1825   1.464   5.906   1.523
  628TIP3   OH2 1826   1.957   5.504   1.169
  628TIP3    H1 1827   2.035   5.455   1.195
  628TIP3    H2 1828   1.973   5.593   1.199
  629TIP3   OH2 1829   3.960   2.004   3.300
  629TIP3    H1 1830   3.907   2.043   3.370
  629TIP3    H2 1831   4.040   2.057   3.297
  630TIP3   OH2 1832   5.176   0.027   3.299
  630TIP3    H1 1833   5.206   0.078   3.224
  630TIP3    H2 1834   5.173   0.089   3.371
  631TIP3   OH2 1835   5.777   4.135   6.090
  631TIP3    H1 1836   5.838   4.072   6.129
  631TIP3    H2 1837   5.723   4.164   6.163
  632TIP3   OH2 1838   1.846   0.593   6.173
  632TIP3    H1 1839   1.788   0.654   6.126
  632TIP3    H2 1840   1.787   0.537   6.222
  633TIP3   OH2 1841   2.974   3.510   5.211
  633TIP3    H1 1842   2.921   3.476   5.139
  633TIP3    H2 1843   3.028   3.578   5.171
  634TIP3   OH2 1844   8.199   2.091   0.189
  634TIP3    H1 1845   8.229   2.070   0.101
  634TIP3    H2 1846   8.238   2.176   0.208
  635TIP3   OH2 1847   3.221   6.913   2.869
  635TIP3    H1 1848   3.191   6.829   2.903
  635TIP3    H2 1849   3.195   6.913   2.777
  636TIP3   OH2 1850   3.112   2.383   4.039
  636TIP3    H1 1851   3.107   2.358   3.947
  636TIP3    H2 1852   3.067   2.312   4.085
  637TIP3   OH2 1853   7.828   0.449   5.674
  637TIP3    H1 1854   7.757   0.504   5.709
  637TIP3    H2 1855   7.783   0.374   5.636
  638TIP3   OH2 1856   3.591   6.806   2.620
  638TIP3    H1 1857   3.680   6.800   2.584
  638TIP3    H2 1858   3.555   6.885   2.581
  639TIP3   OH2 1859   2.927   3.204   6.497
  639TIP3    H1 1860   2.837   3.177   6.478
  639TIP3    H2 1861   2.981   3.128   6.474
  640TIP3   OH2 1862   3.706   5.544   4.919
  640TIP3    H1 1863   3.734   5.503   4.837
  640TIP3    H2 1864   3.625   5.590   4.896
  641TIP3   OH2 1865   5.776   0.859   0.199
  641TIP3    H1 1866   5.794   0.872   0.292
  641TIP3    H2 1867   5.838   0.918   0.155
  642TIP3   OH2 1868   4.751   5.012   0.166
  642TIP3    H1 1869   4.841   5.004   0.136
  642TIP3    H2 1870   4.698   4.982   0.091
  643TIP3   OH2 1871   7.227   0.310   2.573
  643TIP3    H1 1872   7.235   0.376   2.505
  643TIP3    H2 1873   7.175   0.240   2.533
  644TIP3   OH2 1874   0.199   2.420   0.586
  644TIP3    H1 1875   0.232   2.336   0.618
  644TIP3    H2 1876   0.247   2.486   0.636
  645TIP3   OH2 1877   1.422   7.395   4.523
  645TIP3    H1 1878   1.443   7.376   4.431
  645TIP3    H2 1879   1.506   7.418   4.562
  646TIP3   OH2 1880   8.062   1.259   1.846
  646TIP3    H1 1881   8.066   1.354   1.858
  646TIP3    H2 1882   8.064   1.247   1.751
  647TIP3   OH2 1883   5.063   5.689   0.498
  647TIP3    H1 1884   5.020   5.608   0.473
  647TIP3    H2 1885   5.123   5.663   0.568
  648TIP3   OH2 1886   3.621   4.030   0.957
  648TIP3    H1 1887   3.594   3.972   0.885
  648TIP3    H2 1888   3.636   3.971   1.031
  649TIP3   OH2 1889   7.212   4.173   3.070
  649TIP3    H1 1890   7.155   4.131   3.006
  649TIP3    H2 1891   7.156   4.238   3.113
  650TIP3   OH2 1892   2.595   2.479   1.318
  650TIP3    H1 1893   2.516   2.526   1.292
  650TIP3    H2 1894   2.648   2.545   1.363
  651TIP3   OH2 1895   6.391   4.240   5.220
  651TIP3    H1 1896   6.322   4.207   5.162
  651TIP3    H2 1897   6.385   4.185   5.298
  652TIP3   OH2 1898   3.408   3.087   2.418
  652TIP3    H1 1899   3.460   3.078   2.497
  652TIP3    H2 1900   3.472   3.092   2.347
  653TIP3   OH2 1901   6.692   0.688   5.048
  653TIP3    H1 1902   6.727   0.763   5.096
  653TIP3    H2 1903   6.634   0.644   5.110
  654TIP3   OH2 1904   1.939   2.089   1.563
  654TIP3    H1 1905   1.849   2.084   1.594
  654TIP3    H2 1906   1.993   2.076   1.642
  655TIP3   OH2 1907   1.080   3.905   1.387
  655TIP3    H1 1908   1.075   3.952   1.303
  655TIP3    H2 1909   1.034   3.823   1.371
  656TIP3   OH2 1910   2.519   4.680   1.721
  656TIP3    H1 1911   2.614   4.694   1.714
  656TIP3    H2 1912   2.511   4.606   1.782
  657TIP3   OH2 1913   4.430   4.188   4.564
  657TIP3    H1 1914   4.337   4.170   4.570
  657TIP3    H2 1915   4.472   4.103   4.573
  658TIP3   OH2 1916   5.205   7.075   3.176
  658TIP3    H1 1917   5.120   7.068   3.219
  658TIP3    H2 1918   5.267   7.089   3.248
  659TIP3   OH2 1919   0.569   5.387   1.181
  659TIP3    H1 1920   0.489   5.410   1.134
  659TIP3    H2 1921   0.569   5.291   1.182
  660TIP3   OH2 1922   7.072   5.405   1.344
  660TIP3    H1 1923   7.065   5.345   1.418
  660TIP3    H2 1924   7.143   5.369   1.291
  661TIP3   OH2 1925   5.524   3.586   3.212
  661TIP3    H1 1926   5.524   3.541   3.127
  661TIP3    H2 1927   5.607   3.634   3.213
  662TIP3   OH2 1928   0.135   1.032   0.028
  662TIP3    H1 1929   0.057   1.044   0.082
  662TIP3    H2 1930   0.196   0.984   0.084
  663TIP3   OH2 1931   8.130   2.967   6.080
  663TIP3    H1 1932   8.086   2.882   6.083
  663TIP3    H2 1933   8.091   3.018   6.150
  664TIP3   OH2 1934   4.759   1.767   4.923
  664TIP3    H1 1935   4.794   1.784   5.010
  664TIP3    H2 1936   4.781   1.846   4.872
  665TIP3   OH2 1937   6.239   0.597   2.191
  665TIP3    H1 1938   6.204   0.602   2.102
  665TIP3    H2 1939   6.224   0.506   2.218
  666TIP3   OH2 1940   0.328   5.361   2.795
  666TIP3    H1 1941   0.416   5.400   2.799
  666TIP3    H2 1942   0.333   5.298   2.723
  667TIP3   OH2 1943   3.937   4.313   6.753
  667TIP3    H1 1944   3.952   4.317   6.659
  667TIP3    H2 1945   3.848   4.345   6.765
  668TIP3   OH2 1946   3.578   7.777   5.942
  668TIP3    H1 1947   3.601   7.869   5.932
  668TIP3    H2 1948   3.653   7.729   5.905
  669TIP3   OH2 1949   6.871   6.574   0.273
  669TIP3    H1 1950   6.790   6.526   0.258
  669TIP3    H2 1951   6.934   6.508   0.303
  670TIP3   OH2 1952   1.530   1.553   0.371
  670TIP3    H1 1953   1.503   1.461   0.372
  670TIP3    H2 1954   1.493   1.588   0.290
  671TIP3   OH2 1955   0.167   0.951   2.986
  671TIP3    H1 1956   0.119   0.957   3.069
  671TIP3    H2 1957   0.185   0.858   2.975
  672TIP3   OH2 1958   4.209   2.151   2.379
  672TIP3    H1 1959   4.154   2.222   2.346
  672TIP3    H2 1960   4.171   2.129   2.464
  673TIP3   OH2 1961   6.632   4.534   4.558
  673TIP3    H1 1962   6.661   4.527   4.467
  673TIP3    H2 1963   6.713   4.537   4.608
  674TIP3   OH2 1964   2.084   2.561   4.930
  674TIP3    H1 1965   1.989   2.568   4.920
  674TIP3    H2 1966   2.111   2.647   4.961
  675TIP3   OH2 1967   5.825   3.779   2.613
  675TIP3    H1 1968   5.854   3.867   2.640
  675TIP3    H2 1969   5.806   3.734   2.695
  676TIP3   OH2 1970   5.904   0.813   4.193
  676TIP3    H1 1971   5.836   0.753   4.225
  676TIP3    H2 1972   5.935   0.772   4.112
  677TIP3   OH2 1973   4.937   4.431   5.953
  677TIP3    H1 1974   4.844   4.436   5.976
  677TIP3    H2 1975   4.938   4.385   5.870
  678TIP3   OH2 1976   1.234   1.976   6.372
  678TIP3    H1 1977   1.159   2.009   6.321
  678TIP3    H2 1978   1.201   1.968   6.461
  679TIP3   OH2 1979   3.138   2.037   2.421
  679TIP3    H1 1980   3.061   2.077   2.381
  679TIP3    H2 1981   3.173   1.979   2.353
  680TIP3   OH2 1982   7.441   3.581   3.390
  680TIP3    H1 1983   7.467   3.664   3.350
  680TIP3    H2 1984   7.389   3.607   3.466
  681TIP3   OH2 1985   2.882   2.957   4.688
  681TIP3    H1 1986   2.951   2.999   4.637
  681TIP3    H2 1987   2.899   2.863   4.679
  682TIP3   OH2 1988   1.162   0.932   1.108
  682TIP3    H1 1989   1.179   1.018   1.070
  682TIP3    H2 1990   1.235   0.918   1.169
  683TIP3   OH2 1991   3.691   7.794   4.203
  683TIP3    H1 1992   3.743   7.721   4.170
  683TIP3    H2 1993   3.709   7.796   4.297
  684TIP3   OH2 1994   3.723   6.620   5.064
  684TIP3    H1 1995   3.651   6.579   5.113
  684TIP3    H2 1996   3.679   6.674   4.998
  685TIP3   OH2 1997   3.862   2.044   5.622
  685TIP3    H1 1998   3.933   2.075   5.567
  685TIP3    H2 1999   3.846   1.954   5.592
  686TIP3   OH2 2000   2.428   4.080   6.085
  686TIP3    H1 2001   2.439   4.123   6.170
  686TIP3    H2 2002   2.486   4.128   6.026
  687TIP3   OH2 2003   6.039   6.943   5.803
  687TIP3    H1 2004   6.102   6.910   5.740
  687TIP3    H2 2005   6.042   7.038   5.794
  688TIP3   OH2 2006   4.900   5.495   4.338
  688TIP3    H1 2007   4.815   5.505   4.381
  688TIP3    H2 2008   4.917   5.401   4.339
  689TIP3   OH2 2009   6.696   4.934   1.135
  689TIP3    H1 2010   6.785   4.941   1.099
  689TIP3    H2 2011   6.639   4.935   1.058
  690TIP3   OH2 2012   0.095   5.707   5.612
  690TIP3    H1 2013   0.137   5.769   5.551
  690TIP3    H2 2014   0.111   5.621   5.573
  691TIP3   OH2 2015   2.102   5.419   2.549
  691TIP3    H1 2016   2.041   5.351   2.578
  691TIP3    H2 2017   2.159   5.375   2.486
  692TIP3   OH2 2018   1.355   2.619   6.473
  692TIP3    H1 2019   1.356   2.592   6.565
  692TIP3    H2 2020   1.391   2.708   6.474
  693TIP3   OH2 2021   5.471   0.879   1.275
  693TIP3    H1 2022   5.528   0.811   1.311
  693TIP3    H2 2023   5.499   0.888   1.184
  694TIP3   OH2 2024   4.426   2.845   1.396
  694TIP3    H1 2025   4.508   2.799   1.376
  694TIP3    H2 2026   4.401   2.886   1.313
  695TIP3   OH2 2027   7.672   1.580   5.152
  695TIP3    H1 2028   7.755   1.551   5.191
  695TIP3    H2 2029   7.608   1.516   5.183
  696TIP3   OH2 2030   6.116   5.764   5.984
  696TIP3    H1 2031   6.160   5.680   5.989
  696TIP3    H2 2032   6.025   5.742   5.962
  697TIP3   OH2 2033   4.826   3.794   0.543
  697TIP3    H1 2034   4.805   3.803   0.450
  697TIP3    H2 2035   4.858   3.704   0.551
  698TIP3   OH2 2036   2.207   1.712   4.272
  698TIP3    H1 2037   2.164   1.742   4.191
  698TIP3    H2 2038   2.233   1.792   4.316
  699TIP3   OH2 2039   4.712   7.526   0.807
  699TIP3    H1 2040   4.694   7.524   0.901
  699TIP3    H2 2041   4.663   7.602   0.775
  700TIP3   OH2 2042   6.360   4.890   4.978
  700TIP3    H1 2043   6.423   4.820   4.961
  700TIP3    H2 2044   6.275   4.852   4.955
  701TIP3   OH2 2045   2.094   3.783   2.425
  701TIP3    H1 2046   2.036   3.857   2.445
  701TIP3    H2 2047   2.150   3.776   2.503
  702TIP3   OH2 2048   4.508   4.601   2.976
  702TIP3    H1 2049   4.561   4.556   3.041
  702TIP3    H2 2050   4.524   4.553   2.894
  703TIP3   OH2 2051   0.878   2.828   1.977
  703TIP3    H1 2052   0.861   2.779   1.896
  703TIP3    H2 2053   0.792   2.851   2.010
  704TIP3   OH2 2054   7.884   2.332   1.978
  704TIP3    H1 2055   7.819   2.374   1.921
  704TIP3    H2 2056   7.897   2.395   2.049
  705TIP3   OH2 2057   0.589   0.609   2.781
  705TIP3    H1 2058   0.592   0.553   2.859
  705TIP3    H2 2059   0.578   0.697   2.815
  706TIP3   OH2 2060   7.182   5.875   0.639
  706TIP3    H1 2061   7.224   5.813   0.698
  706TIP3    H2 2062   7.228   5.958   0.654
  707TIP3   OH2 2063   0.848   7.692   2.798
  707TIP3    H1 2064   0.764   7.669   2.757
  707TIP3    H2 2065   0.873   7.774   2.756
  708TIP3   OH2 2066   2.391   7.152   2.867
  708TIP3    H1 2067   2.483   7.178   2.872
  708TIP3    H2 2068   2.348   7.224   2.820
  709TIP3   OH2 2069   1.641   0.247   3.035
  709TIP3    H1 2070   1.600   0.168   3.068
  709TIP3    H2 2071   1.731   0.243   3.069
  710TIP3   OH2 2072   2.671   4.236   0.298
  710TIP3    H1 2073   2.660   4.204   0.209
  710TIP3    H2 2074   2.663   4.331   0.291
  711TIP3   OH2 2075   2.582   2.469   2.585
  711TIP3    H1 2076   2.633   2.391   2.608
  711TIP3    H2 2077   2.625   2.540   2.633
  712TIP3   OH2 2078   7.452   1.614   3.287
  712TIP3    H1 2079   7.461   1.705   3.260
  712TIP3    H2 2080   7.358   1.595   3.278
  713TIP3   OH2 2081   5.954   6.481   2.647
  713TIP3    H1 2082   6.049   6.471   2.639
  713TIP3    H2 2083   5.917   6.430   2.575
  714TIP3   OH2 2084   2.951   3.638   5.887
  714TIP3    H1 2085   3.033   3.657   5.842
  714TIP3    H2 2086   2.940   3.709   5.950
  715TIP3   OH2 2087   6.102   6.127   1.619
  715TIP3    H1 2088   6.111   6.125   1.524
  715TIP3    H2 2089   6.118   6.218   1.643
  716TIP3   OH2 2090   2.741   0.337   1.429
  716TIP3    H1 2091   2.760   0.338   1.335
  716TIP3    H2 2092   2.805   0.398   1.467
  717TIP3   OH2 2093   1.069   3.233   3.583
  717TIP3    H1 2094   1.095   3.141   3.574
  717TIP3    H2 2095   0.974   3.232   3.575
  718TIP3   OH2 2096   5.067   6.485   0.172
  718TIP3    H1 2097   5.045   6.409   0.226
  718TIP3    H2 2098   5.032   6.464   0.086
  719TIP3   OH2 2099   5.103   2.791   6.167
  719TIP3    H1 2100   5.114   2.718   6.228
  719TIP3    H2 2101   5.111   2.752   6.080
  720TIP3   OH2 2102   2.481   2.050   3.649
  720TIP3    H1 2103   2.541   2.039   3.576
  720TIP3    H2 2104   2.525   2.112   3.707
  721TIP3   OH2 2105   4.854   5.761   3.001
  721TIP3    H1 2106   4.909   5.743   3.077
  721TIP3    H2 2107   4.808   5.679   2.984
  722TIP3   OH2 2108   5.579   2.072   0.029
  722TIP3    H1 2109   5.590   2.123  -0.052
  722TIP3    H2 2110   5.537   2.133   0.090
  723TIP3   OH2 2111   7.277   5.042   2.477
  723TIP3    H1 2112   7.207   5.025   2.414
  723TIP3    H2 2113   7.249   4.996   2.557
  724TIP3   OH2 2114   7.731   5.746   6.175
  724TIP3    H1 2115   7.825   5.728   6.168
  724TIP3    H2 2116   7.708   5.788   6.091
  725TIP3   OH2 2117   6.754   4.313   4.071
  725TIP3    H1 2118   6.793   4.391   4.031
  725TIP3    H2 2119   6.826   4.250   4.076
  726TIP3   OH2 2120   2.514   0.991   2.814
  726TIP3    H1 2121   2.419   0.989   2.803
  726TIP3    H2 2122   2.546   1.040   2.737
  727TIP3   OH2 2123   7.415   6.401   5.311
  727TIP3    H1 2124   7.510   6.397   5.299
  727TIP3    H2 2125   7.387   6.309   5.309
  728TIP3   OH2 2126   6.430   6.420   0.326
  728TIP3    H1 2127   6.362   6.411   0.258
  728TIP3    H2 2128   6.404   6.358   0.394
  729TIP3   OH2 2129   2.894   3.908   4.606
  729TIP3    H1 2130   2.899   4.000   4.630
  729TIP3    H2 2131   2.801   3.893   4.589
  730TIP3   OH2 2132   0.774   0.068   2.288
  730TIP3    H1 2133   0.758  -0.017   2.248
  730TIP3    H2 2134   0.687   0.106   2.298
  731TIP3   OH2 2135   5.798   0.720   5.376
  731TIP3    H1 2136   5.790   0.625   5.364
  731TIP3    H2 2137   5.799   0.755   5.287
  732TIP3   OH2 2138   3.048   3.344   0.681
  732TIP3    H1 2139   3.038   3.387   0.766
  732TIP3    H2 2140   3.085   3.258   0.703
  733TIP3   OH2 2141   5.818   2.187   4.664
  733TIP3    H1 2142   5.911   2.203   4.676
  733TIP3    H2 2143   5.793   2.128   4.735
  734TIP3   OH2 2144   6.133   5.117   2.000
  734TIP3    H1 2145   6.092   5.032   1.987
  734TIP3    H2 2146   6.101   5.171   1.927
  735TIP3   OH2 2147   0.198   2.424   2.056
  735TIP3    H1 2148   0.180   2.491   2.122
  735TIP3    H2 2149   0.232   2.350   2.106
  736TIP3   OH2 2150   7.752   7.542   4.259
  736TIP3    H1 2151   7.835   7.529   4.304
  736TIP3    H2 2152   7.688   7.555   4.330
  737TIP3   OH2 2153   1.186   6.879   5.796
  737TIP3    H1 2154   1.182   6.793   5.753
  737TIP3    H2 2155   1.279   6.902   5.794
  738TIP3   OH2 2156   1.857   3.206   0.103
  738TIP3    H1 2157   1.938   3.155   0.113
  738TIP3    H2 2158   1.882   3.295   0.128
  739TIP3   OH2 2159   5.313   5.205   6.260
  739TIP3    H1 2160   5.276   5.150   6.328
  739TIP3    H2 2161   5.245   5.210   6.193
  740TIP3   OH2 2162   3.478   6.515   5.975
  740TIP3    H1 2163   3.466   6.429   6.017
  740TIP3    H2 2164   3.497   6.574   6.047
  741TIP3   OH2 2165   5.615   3.833   1.733
  741TIP3    H1 2166   5.603   3.922   1.698
  741TIP3    H2 2167   5.577   3.837   1.821
  742TIP3   OH2 2168   4.253   4.523   1.460
  742TIP3    H1 2169   4.185   4.460   1.435
  742TIP3    H2 2170   4.237   4.599   1.405
  743TIP3   OH2 2171   2.666   1.626   4.926
  743TIP3    H1 2172   2.729   1.558   4.953
  743TIP3    H2 2173   2.700   1.657   4.842
  744TIP3   OH2 2174   2.570   7.167   2.385
  744TIP3    H1 2175   2.654   7.177   2.430
  744TIP3    H2 2176   2.507   7.155   2.455
  745TIP3   OH2 2177   8.183   7.315   5.069
  745TIP3    H1 2178   8.176   7.363   5.152
  745TIP3    H2 2179   8.202   7.382   5.005
  746TIP3   OH2 2180   6.203   3.946   5.790
  746TIP3    H1 2181   6.137   3.899   5.840
  746TIP3    H2 2182   6.286   3.915   5.826
  747TIP3   OH2 2183   8.144   4.293   6.665
  747TIP3    H1 2184   8.094   4.218   6.633
  747TIP3    H2 2185   8.187   4.261   6.744
  748TIP3   OH2 2186   7.687   0.037   6.325
  748TIP3    H1 2187   7.745   0.113   6.323
  748TIP3    H2 2188   7.650   0.033   6.236
  749TIP3   OH2 2189   4.154   5.478   2.157
  749TIP3    H1 2190   4.215   5.543   2.191
  749TIP3    H2 2191   4.072   5.496   2.204
  750TIP3   OH2 2192   6.508   6.111   6.012
  750TIP3    H1 2193   6.440   6.045   6.005
  750TIP3    H2 2194   6.589   6.064   5.989
  751TIP3   OH2 2195   5.640   2.959   2.694
  751TIP3    H1 2196   5.703   3.026   2.723
  751TIP3    H2 2197   5.678   2.876   2.723
  752TIP3   OH2 2198   4.266   0.509   2.931
  752TIP3    H1 2199   4.300   0.595   2.907
  752TIP3    H2 2200   4.334   0.447   2.903
  753TIP3   OH2 2201   3.964   2.015   1.751
  753TIP3    H1 2202   3.933   1.954   1.818
  753TIP3    H2 2203   4.009   2.084   1.799
  754TIP3   OH2 2204   1.854   1.688   2.408
  754TIP3    H1 2205   1.840   1.687   2.313
  754TIP3    H2 2206   1.788   1.628   2.443
  755TIP3   OH2 2207   2.909   2.497   0.358
  755TIP3    H1 2208   2.843   2.562   0.335
  755TIP3    H2 2209   2.966   2.542   0.420
  756TIP3   OH2 2210   5.028   4.704   0.237
  756TIP3    H1 2211   4.971   4.736   0.167
  756TIP3    H2 2212   4.979   4.631   0.276
  757TIP3   OH2 2213   2.761   2.949   6.606
  757TIP3    H1 2214   2.695   3.016   6.590
  757TIP3    H2 2215   2.835   2.995   6.645
  758TIP3   OH2 2216   2.834   7.680   4.361
  758TIP3    H1 2217   2.860   7.742   4.293
  758TIP3    H2 2218   2.799   7.605   4.313
  759TIP3   OH2 2219   3.281   4.607   5.515
  759TIP3    H1 2220   3.274   4.691   5.470
  759TIP3    H2 2221   3.264   4.628   5.607
  760TIP3   OH2 2222   8.252   4.226   1.003
  760TIP3    H1 2223   8.174   4.280   1.016
  760TIP3    H2 2224   8.300   4.233   1.086
  761TIP3   OH2 2225   6.003   1.185   1.653
  761TIP3    H1 2226   5.976   1.236   1.730
  761TIP3    H2 2227   6.097   1.171   1.665
  762TIP3   OH2 2228   8.194   1.962   0.423
  762TIP3    H1 2229   8.111   1.916   0.415
  762TIP3    H2 2230   8.204   2.007   0.339
  763TIP3   OH2 2231   1.997   0.500   3.083
  763TIP3    H1 2232   1.919   0.532   3.127
  763TIP3    H2 2233   2.051   0.463   3.152
  764TIP3   OH2 2234   5.315   1.049   4.312
  764TIP3    H1 2235   5.301   1.008   4.398
  764TIP3    H2 2236   5.227   1.064   4.278
  765TIP3   OH2 2237   7.774   1.689   0.955
  765TIP3    H1 2238   7.839   1.656   0.893
  765TIP3    H2 2239   7.805   1.776   0.978
  766TIP3   OH2 2240   8.012   0.284   6.618
  766TIP3    H1 2241   8.092   0.293   6.669
  766TIP3    H2 2242   8.041   0.255   6.532
  767TIP3   OH2 2243   5.987   3.537   5.835
  767TIP3    H1 2244   5.948   3.456   5.868
  767TIP3    H2 2245   6.080   3.518   5.829
  768TIP3   OH2 2246   5.872   0.738   6.518
  768TIP3    H1 2247   5.877   0.810   6.581
  768TIP3    H2 2248   5.789   0.695   6.537
  769TIP3   OH2 2249   6.292   4.639   2.636
  769TIP3    H1 2250   6.377   4.611   2.668
  769TIP3    H2 2251   6.229   4.603   2.699
  770TIP3   OH2 2252   7.167   1.218   3.751
  770TIP3    H1 2253   7.199   1.294   3.702
  770TIP3    H2 2254   7.095   1.252   3.804
  771TIP3   OH2 2255   5.395   5.934   2.447
  771TIP3    H1 2256   5.379   6.028   2.454
  771TIP3    H2 2257   5.345   5.907   2.370
  772TIP3   OH2 2258   3.304   2.744   4.596
  772TIP3    H1 2259   3.386   2.765   4.639
  772TIP3    H2 2260   3.329   2.690   4.521
  773TIP3   OH2 2261   4.150   1.634   0.309
  773TIP3    H1 2262   4.238   1.619   0.274
  773TIP3    H2 2263   4.094   1.573   0.261
  774TIP3   OH2 2264   1.492   7.634   3.515
  774TIP3    H1 2265   1.409   7.588   3.500
  774TIP3    H2 2266   1.487   7.662   3.607
  775TIP3   OH2 2267   6.200   4.493   1.513
  775TIP3    H1 2268   6.180   4.481   1.420
  775TIP3    H2 2269   6.293   4.516   1.515
  776TIP3   OH2 2270   2.432   4.537   4.880
  776TIP3    H1 2271   2.516   4.493   4.865
  776TIP3    H2 2272   2.372   4.495   4.818
  777TIP3   OH2 2273   5.499   6.455   5.348
  777TIP3    H1 2274   5.488   6.499   5.433
  777TIP3    H2 2275   5.432   6.387   5.347
  778TIP3   OH2 2276   4.254   6.057   3.408
  778TIP3    H1 2277   4.233   6.109   3.331
  778TIP3    H2 2278   4.330   6.005   3.381
  779TIP3   OH2 2279   4.049   0.237   6.257
  779TIP3    H1 2280   4.052   0.150   6.297
  779TIP3    H2 2281   4.122   0.238   6.196
  780TIP3   OH2 2282   6.184   4.620   5.084
  780TIP3    H1 2283   6.169   4.641   4.992
  780TIP3    H2 2284   6.266   4.570   5.084
  781TIP3   OH2 2285   6.671   6.065   0.742
  781TIP3    H1 2286   6.577   6.077   0.754
  781TIP3    H2 2287   6.693   5.993   0.800
  782TIP3   OH2 2288   6.634   1.414   5.092
  782TIP3    H1 2289   6.686   1.373   5.161
  782TIP3    H2 2290   6.683   1.397   5.011
  783TIP3   OH2 2291   7.965   2.933   3.517
  783TIP3    H1 2292   7.959   2.841   3.540
  783TIP3    H2 2293   8.017   2.972   3.587
  784TIP3   OH2 2294   4.741   7.254   2.333
  784TIP3    H1 2295   4.717   7.315   2.404
  784TIP3    H2 2296   4.761   7.311   2.259
  785TIP3   OH2 2297   1.332   5.652   1.526
  785TIP3    H1 2298   1.284   5.644   1.608
  785TIP3    H2 2299   1.265   5.637   1.458
  786TIP3   OH2 2300   4.270   3.936   6.157
  786TIP3    H1 2301   4.234   4.014   6.198
  786TIP3    H2 2302   4.318   3.892   6.227
  787TIP3   OH2 2303   0.505   1.224   6.267
  787TIP3    H1 2304   0.546   1.311   6.270
  787TIP3    H2 2305   0.537   1.180   6.345
  788TIP3   OH2 2306   6.483   7.684   1.130
  788TIP3    H1 2307   6.566   7.671   1.084
  788TIP3    H2 2308   6.417   7.651   1.069
  789TIP3   OH2 2309   7.579   4.285   0.784
  789TIP3    H1 2310   7.560   4.215   0.721
  789TIP3    H2 2311   7.549   4.250   0.868
  790TIP3   OH2 2312   0.848   6.833   4.737
  790TIP3    H1 2313   0.852   6.754   4.791
  790TIP3    H2 2314   0.926   6.883   4.762
  791TIP3   OH2 2315   1.455   1.253   6.054
  791TIP3    H1 2316   1.468   1.274   6.147
  791TIP3    H2 2317   1.371   1.208   6.050
  792TIP3   OH2 2318   1.715   4.299   3.864
  792TIP3    H1 2319   1.704   4.339   3.951
  792TIP3    H2 2320   1.627   4.298   3.827
  793TIP3   OH2 2321   0.871   5.526   1.211
  793TIP3    H1 2322   0.865   5.446   1.159
  793TIP3    H2 2323   0.817   5.508   1.288
  794TIP3   OH2 2324   6.067   1.906   5.307
  794TIP3    H1 2325   6.151   1.950   5.318
  794TIP3    H2 2326   6.086   1.834   5.246
  795TIP3   OH2 2327   2.513   1.419   4.463
  795TIP3    H1 2328   2.591   1.410   4.408
  795TIP3    H2 2329   2.440   1.422   4.401
  796TIP3   OH2 2330   1.907   4.312   2.639
  796TIP3    H1 2331   1.868   4.352   2.717
  796TIP3    H2 2332   1.972   4.375   2.610
  797TIP3   OH2 2333   1.798   1.591   4.845
  797TIP3    H1 2334   1.765   1.503   4.864
  797TIP3    H2 2335   1.893   1.579   4.837
  798TIP3   OH2 2336   4.654   7.565   2.288
  798TIP3    H1 2337   4.637   7.653   2.321
  798TIP3    H2 2338   4.749   7.561   2.279
  799TIP3   OH2 2339   1.307   1.981   4.907
  799TIP3    H1 2340   1.398   1.966   4.932
  799TIP3    H2 2341   1.279   1.899   4.867
  800TIP3   OH2 2342   2.721   4.104   6.564
  800TIP3    H1 2343   2.630   4.114   6.535
  800TIP3    H2 2344   2.770   4.085   6.484
  801TIP3   OH2 2345   6.281   7.737   4.419
  801TIP3    H1 2346   6.328   7.735   4.336
  801TIP3    H2 2347   6.190   7.717   4.397
  802TIP3   OH2 2348   7.219   6.348   6.104
  802TIP3    H1 2349   7.196   6.383   6.018
  802TIP3    H2 2350   7.140   6.301   6.133
  803TIP3   OH2 2351   2.315   4.828   0.713
  803TIP3    H1 2352   2.230   4.794   0.738
  803TIP3    H2 2353   2.310   4.921   0.731
  804TIP3   OH2 2354   7.815   0.752   6.744
  804TIP3    H1 2355   7.851   0.788   6.825
  804TIP3    H2 2356   7.819   0.824   6.681
  805TIP3   OH2 2357   0.536   6.844   3.763
  805TIP3    H1 2358   0.499   6.854   3.851
  805TIP3    H2 2359   0.462   6.820   3.708
  806TIP3   OH2 2360   7.711   2.517   0.709
  806TIP3    H1 2361   7.692   2.452   0.777
  806TIP3    H2 2362   7.716   2.466   0.628
  807TIP3   OH2 2363   0.417   1.632   3.577
  807TIP3    H1 2364   0.352   1.581   3.625
  807TIP3    H2 2365   0.472   1.567   3.533
  808TIP3   OH2 2366   5.620   0.934   0.631
  808TIP3    H1 2367   5.553   0.870   0.654
  808TIP3    H2 2368   5.581   0.985   0.559
  809TIP3   OH2 2369   7.234   5.443   2.228
  809TIP3    H1 2370   7.268   5.402   2.307
  809TIP3    H2 2371   7.294   5.516   2.210
  810TIP3   OH2 2372   5.337   0.817   5.631
  810TIP3    H1 2373   5.432   0.807   5.625
  810TIP3    H2 2374   5.325   0.909   5.654
  811TIP3   OH2 2375   8.094   0.662   1.425
  811TIP3    H1 2376   8.142   0.717   1.362
  811TIP3    H2 2377   8.129   0.574   1.412
  812TIP3   OH2 2378   5.586   2.046   3.900
  812TIP3    H1 2379   5.634   2.081   3.975
  812TIP3    H2 2380   5.651   2.041   3.830
  813TIP3   OH2 2381   3.361   2.165   4.900
  813TIP3    H1 2382   3.435   2.106   4.888
  813TIP3    H2 2383   3.320   2.170   4.814
  814TIP3   OH2 2384   1.320   7.148   4.614
  814TIP3    H1 2385   1.372   7.220   4.578
  814TIP3    H2 2386   1.376   7.071   4.603
  815TIP3   OH2 2387   3.835   5.469   4.002
  815TIP3    H1 2388   3.767   5.505   4.060
  815TIP3    H2 2389   3.789   5.405   3.948
  816TIP3   OH2 2390   6.935   1.389   2.271
  816TIP3    H1 2391   6.896   1.476   2.267
  816TIP3    H2 2392   6.996   1.393   2.345
  817TIP3   OH2 2393   2.862   3.173   6.165
  817TIP3    H1 2394   2.938   3.197   6.112
  817TIP3    H2 2395   2.789   3.223   6.127
  818TIP3   OH2 2396   6.354   4.492   2.127
  818TIP3    H1 2397   6.368   4.582   2.099
  818TIP3    H2 2398   6.334   4.499   2.220
  819TIP3   OH2 2399   3.119   4.642   4.425
  819TIP3    H1 2400   3.052   4.693   4.469
  819TIP3    H2 2401   3.142   4.694   4.348
  820TIP3   OH2 2402   7.607   4.113   3.457
  820TIP3    H1 2403   7.659   4.090   3.380
  820TIP3    H2 2404   7.543   4.177   3.425
  821TIP3   OH2 2405   7.445   4.322   3.374
  821TIP3    H1 2406   7.411   4.367   3.451
  821TIP3    H2 2407   7.396   4.361   3.301
  822TIP3   OH2 2408   2.369   5.250   6.626
  822TIP3    H1 2409   2.275   5.255   6.609
  822TIP3    H2 2410   2.385   5.316   6.694
  823TIP3   OH2 2411   6.079   1.707   2.301
  823TIP3    H1 2412   6.117   1.756   2.228
  823TIP3    H2 2413   6.110   1.617   2.289
  824TIP3   OH2 2414   1.287   5.307   4.280
  824TIP3    H1 2415   1.376   5.290   4.247
  824TIP3    H2 2416   1.280   5.402   4.283
  825TIP3   OH2 2417   4.576   0.847   0.373
  825TIP3    H1 2418   4.489   0.820   0.343
  825TIP3    H2 2419   4.635   0.779   0.340
  826TIP3   OH2 2420   6.462   5.011   5.818
  826TIP3    H1 2421   6.467   4.953   5.742
  826TIP3    H2 2422   6.553   5.020   5.848
  827TIP3   OH2 2423   7.263   1.061   4.149
  827TIP3    H1 2424   7.320   1.125   4.106
  827TIP3    H2 2425   7.194   1.114   4.191
  828TIP3   OH2 2426   2.578   0.616   2.578
  828TIP3    H1 2427   2.512   0.547   2.570
  828TIP3    H2 2428   2.566   0.649   2.667
  829TIP3   OH2 2429   1.684   3.812   1.237
  829TIP3    H1 2430   1.676   3.866   1.158
  829TIP3    H2 2431   1.773   3.829   1.268
  830TIP3   OH2 2432   2.492   7.784   4.032
  830TIP3    H1 2433   2.486   7.800   3.938
  830TIP3    H2 2434   2.403   7.761   4.058
  831TIP3   OH2 2435   4.860   2.689   5.912
  831TIP3    H1 2436   4.779   2.639   5.919
  831TIP3    H2 2437   4.929   2.626   5.933
  832TIP3   OH2 2438   6.499   3.989   3.958
  832TIP3    H1 2439   6.464   3.928   4.023
  832TIP3    H2 2440   6.575   3.945   3.922
  833TIP3   OH2 2441   7.030   2.250   3.238
  833TIP3    H1 2442   6.970   2.322   3.260
  833TIP3    H2 2443   7.073   2.280   3.158
  834TIP3   OH2 2444   8.254   2.914   4.115
  834TIP3    H1 2445   8.210   2.898   4.198
  834TIP3    H2 2446   8.211   2.856   4.053
  835TIP3   OH2 2447   6.493   5.681   0.325
  835TIP3    H1 2448   6.476   5.605   0.381
  835TIP3    H2 2449   6.483   5.756   0.383
  836TIP3   OH2 2450   8.128   1.019   1.471
  836TIP3    H1 2451   8.206   0.965   1.464
  836TIP3    H2 2452   8.068   0.968   1.526
  837TIP3   OH2 2453   7.849   4.167   4.077
  837TIP3    H1 2454   7.877   4.121   3.998
  837TIP3    H2 2455   7.799   4.103   4.126
  838TIP3   OH2 2456   0.795   0.651   0.915
  838TIP3    H1 2457   0.726   0.716   0.898
  838TIP3    H2 2458   0.876   0.702   0.913
  839TIP3   OH2 2459   8.224   0.118   2.551
  839TIP3    H1 2460   8.142   0.069   2.536
  839TIP3    H2 2461   8.284   0.083   2.485
  840TIP3   OH2 2462   8.102   1.698   2.324
  840TIP3    H1 2463   8.124   1.605   2.317
  840TIP3    H2 2464   8.031   1.700   2.388
  841TIP3   OH2 2465   7.581   7.553   4.475
  841TIP3    H1 2466   7.534   7.636   4.470
  841TIP3    H2 2467   7.645   7.566   4.546
  842TIP3   OH2 2468   7.922   2.127   0.823
  842TIP3    H1 2469   7.912   2.118   0.729
  842TIP3    H2 2470   8.014   2.106   0.840
  843TIP3   OH2 2471   6.090   3.902   4.264
  843TIP3    H1 2472   6.034   3.829   4.293
  843TIP3    H2 2473   6.031   3.977   4.261
  844TIP3   OH2 2474   4.241   0.021   6.390
  844TIP3    H1 2475   4.176   0.030   6.460
  844TIP3    H2 2476   4.218  -0.062   6.348
  845TIP3   OH2 2477   3.458   4.055   4.270
  845TIP3    H1 2478   3.448   4.040   4.364
  845TIP3    H2 2479   3.547   4.027   4.250
  846TIP3   OH2 2480   6.231   0.258   1.587
  846TIP3    H1 2481   6.232   0.166   1.613
  846TIP3    H2 2482   6.294   0.300   1.646
  847TIP3   OH2 2483   5.958   1.455   2.725
  847TIP3    H1 2484   6.016   1.439   2.651
  847TIP3    H2 2485   5.959   1.550   2.737
  848TIP3   OH2 2486   7.950   4.231   0.149
  848TIP3    H1 2487   7.966   4.171   0.222
  848TIP3    H2 2488   7.959   4.176   0.071
  849TIP3   OH2 2489   2.408   0.239   1.435
  849TIP3    H1 2490   2.498   0.263   1.455
  849TIP3    H2 2491   2.415   0.168   1.372
  850TIP3   OH2 2492   3.141   1.523   2.390
  850TIP3    H1 2493   3.064   1.578   2.382
  850TIP3    H2 2494   3.113   1.451   2.447
  851TIP3   OH2 2495   6.621   2.598   4.418
  851TIP3    H1 2496   6.615   2.565   4.508
  851TIP3    H2 2497   6.530   2.615   4.393
  852TIP3   OH2 2498   0.534   3.555   5.984
  852TIP3    H1 2499   0.621   3.530   5.953
  852TIP3    H2 2500   0.514   3.637   5.937
  853TIP3   OH2 2501   4.993   5.029   1.858
  853TIP3    H1 2502   5.012   5.022   1.952
  853TIP3    H2 2503   4.989   4.938   1.829
  854TIP3   OH2 2504   3.187   0.069   2.781
  854TIP3    H1 2505   3.208  -0.003   2.840
  854TIP3    H2 2506   3.234   0.049   2.701
  855TIP3   OH2 2507   7.746   4.226   2.073
  855TIP3    H1 2508   7.777   4.156   2.131
  855TIP3    H2 2509   7.668   4.260   2.117
  856TIP3   OH2 2510   8.031   4.306   0.722
  856TIP3    H1 2511   7.995   4.218   0.708
  856TIP3    H2 2512   7.954   4.362   0.731
  857TIP3   OH2 2513   6.226   1.771   3.008
  857TIP3    H1 2514   6.311   1.733   3.028
  857TIP3    H2 2515   6.163   1.702   3.031
  858TIP3   OH2 2516   0.387   1.147   3.595
  858TIP3    H1 2517   0.481   1.164   3.606
  858TIP3    H2 2518   0.384   1.060   3.553
  859TIP3   OH2 2519   6.291   6.741   3.731
  859TIP3    H1 2520   6.305   6.652   3.766
  859TIP3    H2 2521   6.215   6.733   3.675
  860TIP3   OH2 2522   4.329   0.770   2.860
  860TIP3    H1 2523   4.341   0.787   2.954
  860TIP3    H2 2524   4.273   0.841   2.829
  861TIP3   OH2 2525   0.378   0.561   5.077
  861TIP3    H1 2526   0.402   0.516   4.996
  861TIP3    H2 2527   0.420   0.511   5.147
  862TIP3   OH2 2528   1.988   6.622   0.823
  862TIP3    H1 2529   1.971   6.554   0.758
  862TIP3    H2 2530   2.003   6.702   0.772
  863TIP3   OH2 2531   2.473   3.114   6.654
  863TIP3    H1 2532   2.484   3.114   6.749
  863TIP3    H2 2533   2.440   3.027   6.633
  864TIP3   OH2 2534   2.591   3.672   1.141
  864TIP3    H1 2535   2.530   3.728   1.189
  864TIP3    H2 2536   2.538   3.637   1.069
  865TIP3   OH2 2537   4.253   7.435   0.209
  865TIP3    H1 2538   4.255   7.360   0.150
  865TIP3    H2 2539   4.345   7.460   0.220
  866TIP3   OH2 2540   1.482   2.350   5.329
  866TIP3    H1 2541   1.452   2.267   5.290
  866TIP3    H2 2542   1.470   2.338   5.423
  867TIP3   OH2 2543   1.199   3.028   1.654
  867TIP3    H1 2544   1.256   3.104   1.656
  867TIP3    H2 2545   1.243   2.967   1.594
  868TIP3   OH2 2546   7.294   0.530   1.823
  868TIP3    H1 2547   7.379   0.575   1.820
  868TIP3    H2 2548   7.238   0.589   1.874
  869TIP3   OH2 2549   3.691   0.867   3.217
  869TIP3    H1 2550   3.738   0.830   3.291
  869TIP3    H2 2551   3.634   0.797   3.187
  870TIP3   OH2 2552   5.832   2.473   0.364
  870TIP3    H1 2553   5.881   2.540   0.317
  870TIP3    H2 2554   5.898   2.411   0.395
  871TIP3   OH2 2555   3.642   5.557   5.755
  871TIP3    H1 2556   3.671   5.505   5.829
  871TIP3    H2 2557   3.598   5.495   5.697
  872TIP3   OH2 2558   1.426   7.033   2.868
  872TIP3    H1 2559   1.331   7.026   2.876
  872TIP3    H2 2560   1.446   7.123   2.895
  873TIP3   OH2 2561   4.403   5.901   1.021
  873TIP3    H1 2562   4.322   5.951   1.011
  873TIP3    H2 2563   4.384   5.816   0.982
  874TIP3   OH2 2564   2.645   5.611   0.449
  874TIP3    H1 2565   2.671   5.568   0.368
  874TIP3    H2 2566   2.598   5.690   0.421
  875TIP3   OH2 2567   1.624   2.356   6.700
  875TIP3    H1 2568   1.641   2.367   6.606
  875TIP3    H2 2569   1.669   2.430   6.741
  876TIP3   OH2 2570   1.298   7.705   5.822
  876TIP3    H1 2571   1.271   7.625   5.867
  876TIP3    H2 2572   1.227   7.767   5.837
  877TIP3   OH2 2573   7.009   4.151   4.913
  877TIP3    H1 2574   6.990   4.057   4.904
  877TIP3    H2 2575   6.982   4.172   5.002
  878TIP3   OH2 2576   8.050   5.982   2.670
  878TIP3    H1 2577   7.962   5.972   2.708
  878TIP3    H2 2578   8.049   6.067   2.627
  879TIP3   OH2 2579   0.744   2.415   1.239
  879TIP3    H1 2580   0.808   2.446   1.302
  879TIP3    H2 2581   0.702   2.340   1.283
  880TIP3   OH2 2582   0.084   5.845   5.843
  880TIP3    H1 2583   0.105   5.779   5.777
  880TIP3    H2 2584   0.168   5.886   5.863
  881TIP3   OH2 2585   4.345   0.507   1.911
  881TIP3    H1 2586   4.422   0.451   1.901
  881TIP3    H2 2587   4.377   0.595   1.889
  882TIP3   OH2 2588   0.116   1.800   4.605
  882TIP3    H1 2589   0.183   1.864   4.630
  882TIP3    H2 2590   0.079   1.770   4.688
  883TIP3   OH2 2591   1.936   3.594   6.299
  883TIP3    H1 2592   1.996   3.595   6.374
  883TIP3    H2 2593   1.992   3.613   6.224
  884TIP3   OH2 2594   2.118   2.901   5.639
  884TIP3    H1 2595   2.164   2.956   5.575
  884TIP3    H2 2596   2.033   2.884   5.599
  885TIP3   OH2 2597   6.911   7.311   3.744
  885TIP3    H1 2598   6.926   7.218   3.728
  885TIP3    H2 2599   6.845   7.337   3.679
  886TIP3   OH2 2600   0.425   6.253   0.599
  886TIP3    H1 2601   0.341   6.252   0.553
  886TIP3    H2 2602   0.474   6.324   0.558
  887TIP3   OH2 2603   3.183   1.614   4.070
  887TIP3    H1 2604   3.252   1.674   4.042
  887TIP3    H2 2605   3.117   1.619   4.001
  888TIP3   OH2 2606   4.936   5.234   1.296
  888TIP3    H1 2607   4.900   5.307   1.346
  888TIP3    H2 2608   5.024   5.222   1.331
  889TIP3   OH2 2609   2.468   6.450   3.575
  889TIP3    H1 2610   2.405   6.507   3.620
  889TIP3    H2 2611   2.533   6.429   3.642
  890TIP3   OH2 2612   0.446   4.932   1.552
  890TIP3    H1 2613   0.409   4.938   1.463
  890TIP3    H2 2614   0.474   5.021   1.572
  891TIP3   OH2 2615   1.160   2.973   4.548
  891TIP3    H1 2616   1.198   2.898   4.502
  891TIP3    H2 2617   1.129   3.031   4.479
  892TIP3   OH2 2618   4.368   2.892   4.685
  892TIP3    H1 2619   4.368   2.835   4.761
  892TIP3    H2 2620   4.320   2.843   4.618
  893TIP3   OH2 2621   6.317   1.632   5.178
  893TIP3    H1 2622   6.261   1.699   5.139
  893TIP3    H2 2623   6.390   1.624   5.117
  894TIP3   OH2 2624   1.654   7.021   3.433
  894TIP3    H1 2625   1.594   7.040   3.361
  894TIP3    H2 2626   1.731   6.983   3.391
  895TIP3   OH2 2627   3.173   0.450   6.351
  895TIP3    H1 2628   3.161   0.357   6.334
  895TIP3    H2 2629   3.240   0.478   6.289
  896TIP3   OH2 2630   1.428   1.242   1.046
  896TIP3    H1 2631   1.387   1.215   1.128
  896TIP3    H2 2632   1.522   1.247   1.067
  897TIP3   OH2 2633   7.379   3.179   5.108
  897TIP3    H1 2634   7.337   3.234   5.174
  897TIP3    H2 2635   7.350   3.216   5.025
  898TIP3   OH2 2636   3.238   7.798   3.933
  898TIP3    H1 2637   3.316   7.818   3.985
  898TIP3    H2 2638   3.224   7.705   3.946
  899TIP3   OH2 2639   3.598   1.360   1.549
  899TIP3    H1 2640   3.563   1.426   1.609
  899TIP3    H2 2641   3.654   1.409   1.489
  900TIP3   OH2 2642   5.245   2.935   1.501
  900TIP3    H1 2643   5.330   2.905   1.469
  900TIP3    H2 2644   5.250   3.030   1.497
  901TIP3   OH2 2645   4.515   7.504   5.390
  901TIP3    H1 2646   4.459   7.563   5.339
  901TIP3    H2 2647   4.563   7.454   5.324
  902TIP3   OH2 2648   6.290   2.105   6.648
  902TIP3    H1 2649   6.226   2.099   6.577
  902TIP3    H2 2650   6.280   2.193   6.683
  903TIP3   OH2 2651   1.285   6.728   1.446
  903TIP3    H1 2652   1.313   6.636   1.454
  903TIP3    H2 2653   1.191   6.725   1.465
  904TIP3   OH2 2654   7.923   7.657   2.607
  904TIP3    H1 2655   7.967   7.707   2.538
  904TIP3    H2 2656   7.916   7.718   2.680
  905TIP3   OH2 2657   4.188   3.040   1.644
  905TIP3    H1 2658   4.213   3.115   1.698
  905TIP3    H2 2659   4.242   2.968   1.676
  906TIP3   OH2 2660   3.661   6.119   1.207
  906TIP3    H1 2661   3.719   6.155   1.139
  906TIP3    H2 2662   3.573   6.143   1.178
  907TIP3   OH2 2663   4.894   5.401   3.131
  907TIP3    H1 2664   4.816   5.418   3.078
  907TIP3    H2 2665   4.942   5.336   3.081
  908TIP3   OH2 2666   2.837   4.923   4.027
  908TIP3    H1 2667   2.906   4.942   3.962
  908TIP3    H2 2668   2.874   4.952   4.110
  909TIP3   OH2 2669   2.982   3.036   1.140
  909TIP3    H1 2670   3.066   3.016   1.098
  909TIP3    H2 2671   3.006   3.072   1.225
  910TIP3   OH2 2672   5.897   4.707   6.561
  910TIP3    H1 2673   5.875   4.707   6.468
  910TIP3    H2 2674   5.823   4.752   6.603
  911TIP3   OH2 2675   6.487   1.856   5.719
  911TIP3    H1 2676   6.501   1.945   5.687
  911TIP3    H2 2677   6.483   1.802   5.640
  912TIP3   OH2 2678   3.215   7.440   1.716
  912TIP3    H1 2679   3.286   7.376   1.715
  912TIP3    H2 2680   3.140   7.393   1.681
  913TIP3   OH2 2681   4.814   5.430   3.407
  913TIP3    H1 2682   4.729   5.432   3.362
  913TIP3    H2 2683   4.878   5.437   3.336
  914TIP3   OH2 2684   4.877   6.767   1.511
  914TIP3    H1 2685   4.843   6.817   1.585
  914TIP3    H2 2686   4.863   6.824   1.436
  915TIP3   OH2 2687   2.350   6.318   5.745
  915TIP3    H1 2688   2.349   6.394   5.688
  915TIP3    H2 2689   2.432   6.274   5.725
  916TIP3   OH2 2690   6.697   0.913   1.916
  916TIP3    H1 2691   6.765   0.981   1.921
  916TIP3    H2 2692   6.654   0.917   2.002
  917TIP3   OH2 2693   5.621   0.418   1.100
  917TIP3    H1 2694   5.694   0.383   1.152
  917TIP3    H2 2695   5.625   0.513   1.113
  918TIP3   OH2 2696   1.386   3.466   2.610
  918TIP3    H1 2697   1.453   3.401   2.629
  918TIP3    H2 2698   1.392   3.481   2.516
  919TIP3   OH2 2699   0.707   5.440   0.820
  919TIP3    H1 2700   0.773   5.396   0.872
  919TIP3    H2 2701   0.660   5.497   0.882
  920TIP3   OH2 2702   3.832   6.305   6.717
  920TIP3    H1 2703   3.799   6.232   6.769
  920TIP3    H2 2704   3.789   6.295   6.632
  921TIP3   OH2 2705   1.949   3.848   1.298
  921TIP3    H1 2706   1.974   3.930   1.342
  921TIP3    H2 2707   2.025   3.826   1.244
  922TIP3   OH2 2708   5.598   2.261   4.528
  922TIP3    H1 2709   5.523   2.248   4.586
  922TIP3    H2 2710   5.670   2.214   4.570
  923TIP3   OH2 2711   0.394   5.372   0.022
  923TIP3    H1 2712   0.374   5.465   0.010
  923TIP3    H2 2713   0.412   5.364   0.116
  924TIP3   OH2 2714   5.598   2.370   4.013
  924TIP3    H1 2715   5.655   2.435   3.972
  924TIP3    H2 2716   5.657   2.299   4.037
  925TIP3   OH2 2717   0.128   2.299   6.417
  925TIP3    H1 2718   0.115   2.224   6.475
  925TIP3    H2 2719   0.040   2.327   6.394
  926TIP3   OH2 2720   4.818   5.191   5.687
  926TIP3    H1 2721   4.837   5.103   5.719
  926TIP3    H2 2722   4.729   5.186   5.651
  927TIP3   OH2 2723   6.561   3.228   4.046
  927TIP3    H1 2724   6.607   3.146   4.027
  927TIP3    H2 2725   6.472   3.215   4.015
  928TIP3   OH2 2726   6.730   0.046   5.869
  928TIP3    H1 2727   6.788   0.022   5.941
  928TIP3    H2 2728   6.658   0.093   5.910
  929TIP3   OH2 2729   4.127   6.863   2.270
  929TIP3    H1 2730   4.083   6.784   2.298
  929TIP3    H2 2731   4.217   6.853   2.303
  930TIP3   OH2 2732   1.202   0.387   0.823
  930TIP3    H1 2733   1.208   0.294   0.805
  930TIP3    H2 2734   1.293   0.417   0.828
  931TIP3   OH2 2735   0.361   0.974   5.448
  931TIP3    H1 2736   0.306   1.018   5.384
  931TIP3    H2 2737   0.451   0.993   5.419
  932TIP3   OH2 2738   6.262   5.940   6.334
  932TIP3    H1 2739   6.298   5.966   6.249
  932TIP3    H2 2740   6.307   5.858   6.354
  933TIP3   OH2 2741   2.700   6.420   6.069
  933TIP3    H1 2742   2.742   6.340   6.038
  933TIP3    H2 2743   2.608   6.397   6.079
  934TIP3   OH2 2744   5.008   6.225   5.358
  934TIP3    H1 2745   4.916   6.245   5.369
  934TIP3    H2 2746   5.050   6.310   5.344
  935TIP3   OH2 2747   1.550   5.818   5.684
  935TIP3    H1 2748   1.508   5.733   5.697
  935TIP3    H2 2749   1.634   5.810   5.729
  936TIP3   OH2 2750   1.870   2.152   4.898
  936TIP3    H1 2751   1.930   2.103   4.954
  936TIP3    H2 2752   1.891   2.123   4.809
  937TIP3   OH2 2753   4.563   0.315   0.685
  937TIP3    H1 2754   4.598   0.354   0.765
  937TIP3    H2 2755   4.537   0.226   0.711
  938TIP3   OH2 2756   6.664   2.022   3.398
  938TIP3    H1 2757   6.653   2.032   3.492
  938TIP3    H2 2758   6.736   1.960   3.388
  939TIP3   OH2 2759   0.514   2.627   4.646
  939TIP3    H1 2760   0.469   2.632   4.730
  939TIP3    H2 2761   0.560   2.543   4.648
  940TIP3   OH2 2762   7.774   5.823   3.091
  940TIP3    H1 2763   7.722   5.820   3.172
  940TIP3    H2 2764   7.858   5.861   3.118
  941TIP3   OH2 2765   2.791   7.052   5.005
  941TIP3    H1 2766   2.831   7.026   5.088
  941TIP3    H2 2767   2.717   7.107   5.030
  942TIP3   OH2 2768   3.099   0.804   3.229
  942TIP3    H1 2769   3.152   0.882   3.208
  942TIP3    H2 2770   3.009   0.831   3.208
  943TIP3   OH2 2771   5.435   1.413   5.050
  943TIP3    H1 2772   5.513   1.377   5.091
  943TIP3    H2 2773   5.388   1.337   5.017
  944TIP3   OH2 2774   7.828   0.425   4.652
  944TIP3    H1 2775   7.830   0.518   4.677
  944TIP3    H2 2776   7.833   0.378   4.735
  945TIP3   OH2 2777   4.099   5.366   4.312
  945TIP3    H1 2778   4.055   5.421   4.377
  945TIP3    H2 2779   4.107   5.422   4.235
  946TIP3   OH2 2780   2.259   2.412   1.723
  946TIP3    H1 2781   2.227   2.439   1.636
  946TIP3    H2 2782   2.300   2.327   1.707
  947TIP3   OH2 2783   8.193   5.299   2.960
  947TIP3    H1 2784   8.099   5.297   2.978
  947TIP3    H2 2785   8.202   5.366   2.892
  948TIP3   OH2 2786   8.283   6.527   1.172
  948TIP3    H1 2787   8.210   6.527   1.233
  948TIP3    H2 2788   8.261   6.596   1.109
  949TIP3   OH2 2789   5.096   0.275   3.993
  949TIP3    H1 2790   5.143   0.229   4.063
  949TIP3    H2 2791   5.113   0.368   4.010
  950TIP3   OH2 2792   1.661   4.152   3.552
  950TIP3    H1 2793   1.693   4.097   3.623
  950TIP3    H2 2794   1.735   4.210   3.532
  951TIP3   OH2 2795   5.035   7.519   0.240
  951TIP3    H1 2796   5.098   7.456   0.206
  951TIP3    H2 2797   4.973   7.466   0.291
  952TIP3   OH2 2798   5.801   2.352   3.532
  952TIP3    H1 2799   5.813   2.258   3.542
  952TIP3    H2 2800   5.876   2.391   3.577
  953TIP3   OH2 2801   2.268   0.571   2.730
  953TIP3    H1 2802   2.291   0.539   2.643
  953TIP3    H2 2803   2.305   0.507   2.790
  954TIP3   OH2 2804   3.152   2.418   5.616
  954TIP3    H1 2805   3.218   2.357   5.582
  954TIP3    H2 2806   3.199   2.501   5.624
  955TIP3   OH2 2807   4.825   1.621   0.882
  955TIP3    H1 2808   4.747   1.565   0.881
  955TIP3    H2 2809   4.849   1.627   0.974
  956TIP3   OH2 2810   2.016   2.939   2.323
  956TIP3    H1 2811   2.042   2.862   2.273
  956TIP3    H2 2812   1.923   2.925   2.342
  957TIP3   OH2 2813   7.770   5.145   4.887
  957TIP3    H1 2814   7.835   5.214   4.875
  957TIP3    H2 2815   7.722   5.171   4.966
  958TIP3   OH2 2816   6.525   2.628   2.066
  958TIP3    H1 2817   6.494   2.714   2.096
  958TIP3    H2 2818   6.471   2.565   2.114
  959TIP3   OH2 2819   4.181   7.126   2.912
  959TIP3    H1 2820   4.187   7.060   2.842
  959TIP3    H2 2821   4.090   7.120   2.942
  960TIP3   OH2 2822   7.781   1.712   6.677
  960TIP3    H1 2823   7.705   1.753   6.637
  960TIP3    H2 2824   7.836   1.685   6.604
  961TIP3   OH2 2825   1.441   6.240   1.549
  961TIP3    H1 2826   1.450   6.149   1.522
  961TIP3    H2 2827   1.481   6.243   1.636
  962TIP3   OH2 2828   2.317   4.495   0.763
  962TIP3    H1 2829   2.236   4.457   0.730
  962TIP3    H2 2830   2.373   4.505   0.686
  963TIP3   OH2 2831   3.456   0.009   4.718
  963TIP3    H1 2832   3.494  -0.022   4.636
  963TIP3    H2 2833   3.504   0.090   4.738
  964TIP3   OH2 2834   4.082   7.753   3.743
  964TIP3    H1 2835   4.066   7.831   3.690
  964TIP3    H2 2836   4.150   7.780   3.805
  965TIP3   OH2 2837   4.985   6.047   0.070
  965TIP3    H1 2838   5.003   6.117   0.132
  965TIP3    H2 2839   4.969   5.970   0.124
  966TIP3   OH2 2840   6.588   0.989   3.401
  966TIP3    H1 2841   6.653   0.986   3.471
  966TIP3    H2 2842   6.573   0.898   3.377
  967TIP3   OH2 2843   2.860   6.088   4.530
  967TIP3    H1 2844   2.779   6.067   4.484
  967TIP3    H2 2845   2.834   6.149   4.599
  968TIP3   OH2 2846   5.682   4.371   5.682
  968TIP3    H1 2847   5.748   4.309   5.650
  968TIP3    H2 2848   5.703   4.384   5.774
  969TIP3   OH2 2849   2.006   6.508   4.273
  969TIP3    H1 2850   2.060   6.433   4.247
  969TIP3    H2 2851   2.047   6.540   4.354
  970TIP3   OH2 2852   7.803   4.423   3.769
  970TIP3    H1 2853   7.741   4.494   3.783
  970TIP3    H2 2854   7.870   4.436   3.836
  971TIP3   OH2 2855   2.860   0.356   5.681
  971TIP3    H1 2856   2.777   0.355   5.728
  971TIP3    H2 2857   2.851   0.289   5.613
  972TIP3   OH2 2858   3.784   2.373   4.094
  972TIP3    H1 2859   3.741   2.363   4.179
  972TIP3    H2 2860   3.719   2.344   4.031
  973TIP3   OH2 2861   8.200   5.028   1.306
  973TIP3    H1 2862   8.265   5.077   1.256
  973TIP3    H2 2863   8.119   5.040   1.257
  974TIP3   OH2 2864   1.344   5.587   0.460
  974TIP3    H1 2865   1.361   5.682   0.456
  974TIP3    H2 2866   1.377   5.553   0.377
  975TIP3   OH2 2867   3.734   6.571   6.567
  975TIP3    H1 2868   3.746   6.664   6.547
  975TIP3    H2 2869   3.640   6.563   6.582
  976TIP3   OH2 2870   3.161   1.904   5.888
  976TIP3    H1 2871   3.124   1.946   5.810
  976TIP3    H2 2872   3.144   1.966   5.959
  977TIP3   OH2 2873   6.024   2.560   0.626
  977TIP3    H1 2874   5.938   2.542   0.665
  977TIP3    H2 2875   6.029   2.656   0.625
  978TIP3   OH2 2876   4.692   1.357   3.005
  978TIP3    H1 2877   4.711   1.391   2.917
  978TIP3    H2 2878   4.608   1.312   2.995
  979TIP3   OH2 2879   2.706   6.891   5.741
  979TIP3    H1 2880   2.749   6.907   5.825
  979TIP3    H2 2881   2.775   6.858   5.685
  980TIP3   OH2 2882   8.051   6.879   2.736
  980TIP3    H1 2883   7.984   6.948   2.738
  980TIP3    H2 2884   8.078   6.875   2.644
  981TIP3   OH2 2885   5.311   5.139   5.353
  981TIP3    H1 2886   5.370   5.146   5.428
  981TIP3    H2 2887   5.343   5.205   5.291
  982TIP3   OH2 2888   4.363   5.318   2.130
  982TIP3    H1 2889   4.286   5.371   2.147
  982TIP3    H2 2890   4.330   5.228   2.122
  983TIP3   OH2 2891   6.408   4.444   1.023
  983TIP3    H1 2892   6.482   4.400   0.982
  983TIP3    H2 2893   6.331   4.404   0.983
  984TIP3   OH2 2894   3.570   5.714   0.421
  984TIP3    H1 2895   3.501   5.730   0.356
  984TIP3    H2 2896   3.522   5.686   0.499
  985TIP3   OH2 2897   6.340   3.722   6.334
  985TIP3    H1 2898   6.358   3.775   6.256
  985TIP3    H2 2899   6.369   3.776   6.407
  986TIP3   OH2 2900   5.464   3.919   0.655
  986TIP3    H1 2901   5.430   3.853   0.716
  986TIP3    H2 2902   5.559   3.905   0.656
  987TIP3   OH2 2903   1.503   0.389   0.799
  987TIP3    H1 2904   1.578   0.341   0.765
  987TIP3    H2 2905   1.468   0.436   0.723
  988TIP3   OH2 2906   5.063   0.253   0.675
  988TIP3    H1 2907   4.974   0.221   0.661
  988TIP3    H2 2908   5.052   0.346   0.694
  989TIP3   OH2 2909   2.536   4.719   2.566
  989TIP3    H1 2910   2.479   4.756   2.498
  989TIP3    H2 2911   2.476   4.691   2.635
  990TIP3   OH2 2912   8.151   4.014   3.728
  990TIP3    H1 2913   8.224   3.960   3.757
  990TIP3    H2 2914   8.192   4.083   3.675
  991TIP3   OH2 2915   4.999   7.687   6.539
  991TIP3    H1 2916   5.078   7.734   6.567
  991TIP3    H2 2917   4.983   7.720   6.450
  992TIP3   OH2 2918   1.378   0.421   5.056
  992TIP3    H1 2919   1.470   0.394   5.048
  992TIP3    H2 2920   1.374   0.503   5.007
  993TIP3   OH2 2921   6.508   5.354   4.849
  993TIP3    H1 2922   6.591   5.389   4.819
  993TIP3    H2 2923   6.532   5.275   4.898
  994TIP3   OH2 2924   7.494   0.992   3.145
  994TIP3    H1 2925   7.460   0.905   3.167
  994TIP3    H2 2926   7.494   0.993   3.049
  995TIP3   OH2 2927   6.590   0.422   4.093
  995TIP3    H1 2928   6.596   0.327   4.104
  995TIP3    H2 2929   6.680   0.451   4.077
  996TIP3   OH2 2930   7.563   5.317   6.573
  996TIP3    H1 2931   7.480   5.271   6.578
  996TIP3    H2 2932   7.600   5.310   6.661
  997TIP3   OH2 2933   2.818   4.040   0.135
  997TIP3    H1 2934   2.818   4.102   0.062
  997TIP3    H2 2935   2.740   3.985   0.120
  998TIP3   OH2 2936   7.567   3.545   3.779
  998TIP3    H1 2937   7.529   3.633   3.790
  998TIP3    H2 2938   7.556   3.503   3.864
  999TIP3   OH2 2939   4.058   7.631   2.227
  999TIP3    H1 2940   4.024   7.715   2.197
  999TIP3    H2 2941   3.990   7.597   2.286
 1000TIP3   OH2 2942   7.486   0.524   2.556
 1000TIP3    H1 2943   7.532   0.526   2.640
 1000TIP3    H2 2944   7.550   0.488   2.494
 1001TIP3   OH2 2945   7.634   1.094   2.840
 1001TIP3    H1 2946   7.603   1.075   2.751
 1001TIP3    H2 2947   7.724   1.063   2.841
 1002TIP3   OH2 2948   7.682   5.562   0.743
 1002TIP3    H1 2949   7.641   5.567   0.657
 1002TIP3    H2 2950   7.710   5.651   0.762
 1003TIP3   OH2 2951   3.907   3.414   0.543
 1003TIP3    H1 2952   3.946   3.496   0.572
 1003TIP3    H2 2953   3.815   3.421   0.568
 1004TIP3   OH2 2954   6.634   6.198   4.783
 1004TIP3    H1 2955   6.660   6.111   4.811
 1004TIP3    H2 2956   6.575   6.229   4.852
 1005TIP3   OH2 2957   1.566   3.156   3.709
 1005TIP3    H1 2958   1.561   3.143   3.804
 1005TIP3    H2 2959   1.492   3.213   3.689
 1006TIP3   OH2 2960   2.697   1.148   3.961
 1006TIP3    H1 2961   2.777   1.130   3.910
 1006TIP3    H2 2962   2.628   1.154   3.895
 1007TIP3   OH2 2963   3.425   4.855   2.811
 1007TIP3    H1 2964   3.455   4.945   2.822
 1007TIP3    H2 2965   3.433   4.816   2.898
 1008TIP3   OH2 2966   8.018   5.682   1.570
 1008TIP3    H1 2967   7.998   5.773   1.550
 1008TIP3    H2 2968   8.111   5.683   1.594
 1009TIP3   OH2 2969   3.633   1.999   4.291
 1009TIP3    H1 2970   3.588   2.052   4.225
 1009TIP3    H2 2971   3.570   1.930   4.313
 1010TIP3   OH2 2972   6.571   5.537   0.985
 1010TIP3    H1 2973   6.655   5.502   0.956
 1010TIP3    H2 2974   6.509   5.511   0.917
 1011TIP3   OH2 2975   4.752   0.575   6.519
 1011TIP3    H1 2976   4.826   0.520   6.546
 1011TIP3    H2 2977   4.689   0.567   6.591
 1012TIP3   OH2 2978   6.921   3.342   6.363
 1012TIP3    H1 2979   7.004   3.329   6.317
 1012TIP3    H2 2980   6.938   3.412   6.426
 1013TIP3   OH2 2981   5.159   1.478   3.455
 1013TIP3    H1 2982   5.089   1.425   3.493
 1013TIP3    H2 2983   5.236   1.421   3.457
 1014TIP3   OH2 2984   2.239   5.615   5.137
 1014TIP3    H1 2985   2.286   5.579   5.212
 1014TIP3    H2 2986   2.307   5.658   5.085
 1015TIP3   OH2 2987   5.650   6.073   1.315
 1015TIP3    H1 2988   5.706   6.150   1.313
 1015TIP3    H2 2989   5.567   6.102   1.277
 1016TIP3   OH2 2990   4.646   0.210   5.787
 1016TIP3    H1 2991   4.567   0.247   5.828
 1016TIP3    H2 2992   4.678   0.279   5.730
 1017TIP3   OH2 2993   5.116   1.117   5.921
 1017TIP3    H1 2994   5.176   1.044   5.929
 1017TIP3    H2 2995   5.139   1.175   5.994
 1018TIP3   OH2 2996   0.291   0.314   2.514
 1018TIP3    H1 2997   0.263   0.250   2.580
 1018TIP3    H2 2998   0.386   0.322   2.527
 1019TIP3   OH2 2999   0.594   1.948   2.163
 1019TIP3    H1 3000   0.545   1.926   2.084
 1019TIP3    H2 3001   0.526   1.963   2.230
 1020TIP3   OH2 3002   0.994   6.212   2.234
 1020TIP3    H1 3003   0.978   6.132   2.184
 1020TIP3    H2 3004   0.998   6.183   2.326
 1021TIP3   OH2 3005   2.565   7.513   0.525
 1021TIP3    H1 3006   2.484   7.525   0.575
 1021TIP3    H2 3007   2.565   7.420   0.502
 1022TIP3   OH2 3008   7.411   7.393   0.627
 1022TIP3    H1 3009   7.335   7.337   0.615
 1022TIP3    H2 3010   7.405   7.423   0.718
 1023TIP3   OH2 3011   0.164   7.365   3.068
 1023TIP3    H1 3012   0.225   7.436   3.088
 1023TIP3    H2 3013   0.120   7.347   3.151
 1024TIP3   OH2 3014   7.273   2.984   5.267
 1024TIP3    H1 3015   7.270   2.894   5.234
 1024TIP3    H2 3016   7.274   3.038   5.188
 1025TIP3   OH2 3017   1.780   0.768   3.068
 1025TIP3    H1 3018   1.825   0.841   3.026
 1025TIP3    H2 3019   1.832   0.750   3.147
 1026TIP3   OH2 3020   6.145   2.275   4.056
 1026TIP3    H1 3021   6.161   2.368   4.067
 1026TIP3    H2 3022   6.082   2.270   3.984
 1027TIP3   OH2 3023   5.442   5.748   0.559
 1027TIP3    H1 3024   5.448   5.654   0.542
 1027TIP3    H2 3025   5.463   5.758   0.652
 1028TIP3   OH2 3026   6.163   3.399   3.811
 1028TIP3    H1 3027   6.202   3.478   3.775
 1028TIP3    H2 3028   6.139   3.423   3.901
 1029TIP3   OH2 3029   1.304   3.379   0.389
 1029TIP3    H1 3030   1.244   3.307   0.407
 1029TIP3    H2 3031   1.277   3.412   0.303
 1030TIP3   OH2 3032   0.211   2.535   4.752
 1030TIP3    H1 3033   0.216   2.471   4.681
 1030TIP3    H2 3034   0.168   2.488   4.824
 1031TIP3   OH2 3035   0.790   1.015   3.958
 1031TIP3    H1 3036   0.822   1.067   3.884
 1031TIP3    H2 3037   0.818   1.063   4.036
 1032TIP3   OH2 3038   1.153   2.014   3.745
 1032TIP3    H1 3039   1.160   1.980   3.834
 1032TIP3    H2 3040   1.133   2.107   3.756
 1033TIP3   OH2 3041   6.528   2.156   5.140
 1033TIP3    H1 3042   6.494   2.093   5.203
 1033TIP3    H2 3043   6.557   2.102   5.066
 1034TIP3   OH2 3044   0.631   1.962   4.516
 1034TIP3    H1 3045   0.698   1.915   4.467
 1034TIP3    H2 3046   0.595   1.897   4.576
 1035TIP3   OH2 3047   0.564   1.604   6.445
 1035TIP3    H1 3048   0.537   1.663   6.516
 1035TIP3    H2 3049   0.613   1.535   6.489
 1036TIP3   OH2 3050   2.939   5.537   5.263
 1036TIP3    H1 3051   3.006   5.483   5.221
 1036TIP3    H2 3052   2.989   5.603   5.311
 1037TIP3   OH2 3053   5.909   2.872   5.811
 1037TIP3    H1 3054   6.000   2.892   5.831
 1037TIP3    H2 3055   5.907   2.777   5.799
 1038TIP3   OH2 3056   2.133   1.758   1.771
 1038TIP3    H1 3057   2.066   1.726   1.831
 1038TIP3    H2 3058   2.116   1.852   1.764
 1039TIP3   OH2 3059   6.294   7.071   3.371
 1039TIP3    H1 3060   6.203   7.061   3.344
 1039TIP3    H2 3061   6.317   6.987   3.410
 1040TIP3   OH2 3062   7.222   2.393   5.251
 1040TIP3    H1 3063   7.152   2.415   5.313
 1040TIP3    H2 3064   7.284   2.342   5.303
 1041TIP3   OH2 3065   4.941   1.176   1.660
 1041TIP3    H1 3066   4.932   1.083   1.681
 1041TIP3    H2 3067   4.910   1.222   1.738
 1042TIP3   OH2 3068   7.063   6.706   6.474
 1042TIP3    H1 3069   7.076   6.613   6.455
 1042TIP3    H2 3070   7.073   6.750   6.390
 1043TIP3   OH2 3071   5.310   4.313   6.279
 1043TIP3    H1 3072   5.335   4.390   6.329
 1043TIP3    H2 3073   5.262   4.348   6.204
 1044TIP3   OH2 3074   5.489   6.211   2.770
 1044TIP3    H1 3075   5.508   6.231   2.862
 1044TIP3    H2 3076   5.430   6.136   2.774
 1045TIP3   OH2 3077   4.533   4.880   0.798
 1045TIP3    H1 3078   4.609   4.827   0.823
 1045TIP3    H2 3079   4.469   4.866   0.867
 1046TIP3   OH2 3080   6.039   3.145   2.185
 1046TIP3    H1 3081   6.126   3.136   2.147
 1046TIP3    H2 3082   6.000   3.058   2.177
 1047TIP3   OH2 3083   4.821   3.627   0.790
 1047TIP3    H1 3084   4.819   3.611   0.696
 1047TIP3    H2 3085   4.794   3.718   0.800
 1048TIP3   OH2 3086   0.656   0.295   0.925
 1048TIP3    H1 3087   0.571   0.333   0.902
 1048TIP3    H2 3088   0.716   0.329   0.859
 1049TIP3   OH2 3089   4.752   0.717   4.124
 1049TIP3    H1 3090   4.762   0.787   4.060
 1049TIP3    H2 3091   4.755   0.761   4.209
 1050TIP3   OH2 3092   6.932   3.037   4.145
 1050TIP3    H1 3093   6.924   3.120   4.193
 1050TIP3    H2 3094   6.946   3.064   4.054
 1051TIP3   OH2 3095   3.624   1.795   4.489
 1051TIP3    H1 3096   3.645   1.888   4.486
 1051TIP3    H2 3097   3.664   1.764   4.570
 1052TIP3   OH2 3098   7.548   7.266   4.736
 1052TIP3    H1 3099   7.484   7.210   4.692
 1052TIP3    H2 3100   7.633   7.230   4.711
 1053TIP3   OH2 3101   0.110   3.039   1.327
 1053TIP3    H1 3102   0.132   3.017   1.236
 1053TIP3    H2 3103   0.109   2.955   1.372
 1054TIP3   OH2 3104   4.495   5.992   1.280
 1054TIP3    H1 3105   4.591   5.990   1.284
 1054TIP3    H2 3106   4.474   5.961   1.192
 1055TIP3   OH2 3107   7.264   0.424   6.040
 1055TIP3    H1 3108   7.195   0.479   6.003
 1055TIP3    H2 3109   7.315   0.483   6.095
 1056TIP3   OH2 3110   7.739   4.627   5.054
 1056TIP3    H1 3111   7.801   4.556   5.069
 1056TIP3    H2 3112   7.662   4.583   5.017
 1057TIP3   OH2 3113   1.717   7.515   2.326
 1057TIP3    H1 3114   1.810   7.495   2.310
 1057TIP3    H2 3115   1.710   7.523   2.421
 1058TIP3   OH2 3116   8.054   1.526   1.865
 1058TIP3    H1 3117   8.091   1.562   1.946
 1058TIP3    H2 3118   8.038   1.603   1.810
 1059TIP3   OH2 3119   4.791   3.743   5.396
 1059TIP3    H1 3120   4.868   3.722   5.343
 1059TIP3    H2 3121   4.764   3.831   5.366
 1060TIP3   OH2 3122   0.018   4.684   2.992
 1060TIP3    H1 3123  -0.050   4.679   2.925
 1060TIP3    H2 3124   0.100   4.680   2.943
 1061TIP3   OH2 3125   6.402   7.478   0.573
 1061TIP3    H1 3126   6.451   7.539   0.627
 1061TIP3    H2 3127   6.436   7.491   0.484
 1062TIP3   OH2 3128   3.583   6.930   5.218
 1062TIP3    H1 3129   3.551   6.930   5.128
 1062TIP3    H2 3130   3.676   6.952   5.210
 1063TIP3   OH2 3131   5.736   5.311   2.516
 1063TIP3    H1 3132   5.728   5.297   2.421
 1063TIP3    H2 3133   5.788   5.237   2.547
 1064TIP3   OH2 3134   0.555   3.312   3.150
 1064TIP3    H1 3135   0.584   3.399   3.178
 1064TIP3    H2 3136   0.627   3.280   3.094
 1065TIP3   OH2 3137   2.368   0.430   0.914
 1065TIP3    H1 3138   2.390   0.479   0.835
 1065TIP3    H2 3139   2.318   0.355   0.883
 1066TIP3   OH2 3140   1.071   1.900   0.067
 1066TIP3    H1 3141   1.130   1.921  -0.006
 1066TIP3    H2 3142   1.125   1.910   0.145
 1067TIP3   OH2 3143   7.221   4.488   5.274
 1067TIP3    H1 3144   7.197   4.420   5.337
 1067TIP3    H2 3145   7.236   4.440   5.192
 1068TIP3   OH2 3146   6.189   0.630   0.569
 1068TIP3    H1 3147   6.117   0.625   0.506
 1068TIP3    H2 3148   6.262   0.668   0.518
 1069TIP3   OH2 3149   4.180   5.615   4.571
 1069TIP3    H1 3150   4.095   5.596   4.532
 1069TIP3    H2 3151   4.165   5.611   4.665
 1070TIP3   OH2 3152   0.014   0.289   5.810
 1070TIP3    H1 3153   0.086   0.349   5.791
 1070TIP3    H2 3154  -0.064   0.334   5.776
 1071TIP3   OH2 3155   0.571   4.223   4.971
 1071TIP3    H1 3156   0.600   4.287   5.036
 1071TIP3    H2 3157   0.482   4.250   4.949
 1072TIP3   OH2 3158   5.141   2.641   1.951
 1072TIP3    H1 3159   5.126   2.605   1.864
 1072TIP3    H2 3160   5.213   2.703   1.939
 1073TIP3   OH2 3161   7.349   4.649   3.976
 1073TIP3    H1 3162   7.324   4.727   3.925
 1073TIP3    H2 3163   7.271   4.627   4.026
 1074TIP3   OH2 3164   7.372   2.469   6.147
 1074TIP3    H1 3165   7.387   2.439   6.057
 1074TIP3    H2 3166   7.456   2.507   6.174
 1075TIP3   OH2 3167   1.234   7.278   3.548
 1075TIP3    H1 3168   1.313   7.229   3.571
 1075TIP3    H2 3169   1.263   7.370   3.545
 1076TIP3   OH2 3170   7.799   6.492   1.918
 1076TIP3    H1 3171   7.837   6.549   1.852
 1076TIP3    H2 3172   7.779   6.550   1.992
 1077TIP3   OH2 3173   5.518   4.887   4.079
 1077TIP3    H1 3174   5.578   4.822   4.043
 1077TIP3    H2 3175   5.502   4.858   4.169
 1078TIP3   OH2 3176   2.629   3.281   0.964
 1078TIP3    H1 3177   2.667   3.346   0.905
 1078TIP3    H2 3178   2.561   3.329   1.012
 1079TIP3   OH2 3179   1.897   7.815   1.881
 1079TIP3    H1 3180   1.989   7.841   1.882
 1079TIP3    H2 3181   1.871   7.816   1.974
 1080TIP3   OH2 3182   5.029   6.870   6.686
 1080TIP3    H1 3183   4.940   6.841   6.669
 1080TIP3    H2 3184   5.041   6.855   6.780
 1081TIP3   OH2 3185   6.325   4.260   1.955
 1081TIP3    H1 3186   6.378   4.276   1.877
 1081TIP3    H2 3187   6.334   4.339   2.008
 1082TIP3   OH2 3188   2.291   0.083   5.125
 1082TIP3    H1 3189   2.267  -0.009   5.124
 1082TIP3    H2 3190   2.386   0.084   5.112
 1083TIP3   OH2 3191   4.911   3.016   5.123
 1083TIP3    H1 3192   4.891   2.949   5.058
 1083TIP3    H2 3193   4.842   3.081   5.112
 1084TIP3   OH2 3194   4.107   1.840   3.626
 1084TIP3    H1 3195   4.137   1.768   3.680
 1084TIP3    H2 3196   4.131   1.815   3.536
 1085TIP3   OH2 3197   4.460   5.828   2.937
 1085TIP3    H1 3198   4.475   5.809   3.030
 1085TIP3    H2 3199   4.400   5.903   2.938
 1086TIP3   OH2 3200   6.876   4.679   4.291
 1086TIP3    H1 3201   6.802   4.720   4.246
 1086TIP3    H2 3202   6.842   4.593   4.318
 1087TIP3   OH2 3203   4.849   4.988   1.212
 1087TIP3    H1 3204   4.870   4.940   1.292
 1087TIP3    H2 3205   4.860   5.080   1.235
 1088TIP3   OH2 3206   0.404   5.256   6.052
 1088TIP3    H1 3207   0.499   5.247   6.063
 1088TIP3    H2 3208   0.367   5.209   6.126
 1089TIP3   OH2 3209   4.039   5.082   3.887
 1089TIP3    H1 3210   4.079   4.995   3.891
 1089TIP3    H2 3211   3.949   5.065   3.860
 1090TIP3   OH2 3212   0.780   6.438   1.147
 1090TIP3    H1 3213   0.846   6.381   1.107
 1090TIP3    H2 3214   0.702   6.425   1.093
 1091TIP3   OH2 3215   4.891   2.333   1.610
 1091TIP3    H1 3216   4.910   2.244   1.579
 1091TIP3    H2 3217   4.916   2.331   1.703
 1092TIP3   OH2 3218   0.010   6.190   1.965
 1092TIP3    H1 3219   0.017   6.227   1.876
 1092TIP3    H2 3220  -0.019   6.264   2.019
 1093TIP3   OH2 3221   4.870   1.081   1.048
 1093TIP3    H1 3222   4.931   1.053   1.116
 1093TIP3    H2 3223   4.809   1.008   1.039
 1094TIP3   OH2 3224   7.862   5.395   4.938
 1094TIP3    H1 3225   7.816   5.479   4.937
 1094TIP3    H2 3226   7.955   5.418   4.943
 1095TIP3   OH2 3227   6.732   5.159   2.397
 1095TIP3    H1 3228   6.717   5.065   2.407
 1095TIP3    H2 3229   6.826   5.168   2.383
 1096TIP3   OH2 3230   7.290   3.776   6.246
 1096TIP3    H1 3231   7.368   3.772   6.190
 1096TIP3    H2 3232   7.289   3.867   6.278
 1097TIP3   OH2 3233   3.555   1.686   6.373
 1097TIP3    H1 3234   3.531   1.714   6.461
 1097TIP3    H2 3235   3.645   1.717   6.361
 1098TIP3   OH2 3236   4.337   0.769   0.249
 1098TIP3    H1 3237   4.333   0.864   0.236
 1098TIP3    H2 3238   4.372   0.735   0.167
 1099TIP3   OH2 3239   5.488   3.666   3.765
 1099TIP3    H1 3240   5.534   3.597   3.718
 1099TIP3    H2 3241   5.402   3.629   3.783
 1100TIP3   OH2 3242   7.973   0.456   4.200
 1100TIP3    H1 3243   7.988   0.388   4.266
 1100TIP3    H2 3244   7.925   0.524   4.246
 1101TIP3   OH2 3245   6.608   0.789   2.258
 1101TIP3    H1 3246   6.694   0.755   2.235
 1101TIP3    H2 3247   6.597   0.768   2.351
 1102TIP3   OH2 3248   4.524   3.392   6.535
 1102TIP3    H1 3249   4.456   3.327   6.552
 1102TIP3    H2 3250   4.606   3.348   6.555
 1103TIP3   OH2 3251   5.801   7.638   2.626
 1103TIP3    H1 3252   5.781   7.665   2.716
 1103TIP3    H2 3253   5.775   7.545   2.624
 1104TIP3   OH2 3254   1.727   6.161   5.949
 1104TIP3    H1 3255   1.714   6.207   5.867
 1104TIP3    H2 3256   1.821   6.140   5.950
 1105TIP3   OH2 3257   5.818   5.447   6.148
 1105TIP3    H1 3258   5.849   5.489   6.228
 1105TIP3    H2 3259   5.884   5.379   6.130
 1106TIP3   OH2 3260   5.558   4.190   6.673
 1106TIP3    H1 3261   5.641   4.176   6.627
 1106TIP3    H2 3262   5.584   4.235   6.754
 1107TIP3   OH2 3263   5.742   4.389   4.310
 1107TIP3    H1 3264   5.804   4.398   4.238
 1107TIP3    H2 3265   5.662   4.354   4.270
 1108TIP3   OH2 3266   5.840   6.584   4.063
 1108TIP3    H1 3267   5.817   6.493   4.047
 1108TIP3    H2 3268   5.935   6.583   4.077
 1109TIP3   OH2 3269   1.035   2.801   6.481
 1109TIP3    H1 3270   1.096   2.834   6.548
 1109TIP3    H2 3271   0.949   2.829   6.512
 1110TIP3   OH2 3272   5.520   2.784   3.996
 1110TIP3    H1 3273   5.433   2.744   3.991
 1110TIP3    H2 3274   5.515   2.858   3.935
 1111TIP3   OH2 3275   4.674   2.107   1.516
 1111TIP3    H1 3276   4.635   2.161   1.585
 1111TIP3    H2 3277   4.636   2.141   1.435
 1112TIP3   OH2 3278   5.772   0.622   5.100
 1112TIP3    H1 3279   5.859   0.591   5.077
 1112TIP3    H2 3280   5.760   0.702   5.048
 1113TIP3   OH2 3281   7.063   2.207   2.717
 1113TIP3    H1 3282   7.011   2.154   2.658
 1113TIP3    H2 3283   7.013   2.210   2.798
 1114TIP3   OH2 3284   5.300   5.666   5.234
 1114TIP3    H1 3285   5.303   5.634   5.324
 1114TIP3    H2 3286   5.327   5.757   5.240
 1115TIP3   OH2 3287   2.956   1.636   2.021
 1115TIP3    H1 3288   2.892   1.620   1.952
 1115TIP3    H2 3289   2.941   1.566   2.084
 1116TIP3   OH2 3290   0.690   5.773   0.262
 1116TIP3    H1 3291   0.649   5.858   0.245
 1116TIP3    H2 3292   0.760   5.793   0.325
 1117TIP3   OH2 3293   7.044   5.606   6.130
 1117TIP3    H1 3294   7.026   5.525   6.177
 1117TIP3    H2 3295   7.109   5.582   6.064
 1118TIP3   OH2 3296   7.909   0.799   3.380
 1118TIP3    H1 3297   7.928   0.746   3.457
 1118TIP3    H2 3298   7.847   0.865   3.411
 1119TIP3   OH2 3299   2.790   1.492   5.563
 1119TIP3    H1 3300   2.723   1.560   5.568
 1119TIP3    H2 3301   2.790   1.463   5.472
 1120TIP3   OH2 3302   7.839   6.510   0.546
 1120TIP3    H1 3303   7.923   6.556   0.551
 1120TIP3    H2 3304   7.820   6.486   0.637
 1121TIP3   OH2 3305   4.619   4.575   4.426
 1121TIP3    H1 3306   4.702   4.618   4.405
 1121TIP3    H2 3307   4.552   4.633   4.389
 1122TIP3   OH2 3308   8.119   5.400   5.970
 1122TIP3    H1 3309   8.163   5.331   5.920
 1122TIP3    H2 3310   8.034   5.363   5.993
 1123TIP3   OH2 3311   2.297   5.745   6.574
 1123TIP3    H1 3312   2.388   5.716   6.569
 1123TIP3    H2 3313   2.247   5.665   6.590
 1124TIP3   OH2 3314   6.408   5.854   3.727
 1124TIP3    H1 3315   6.382   5.780   3.673
 1124TIP3    H2 3316   6.410   5.928   3.666
 1125TIP3   OH2 3317   3.731   2.603   2.744
 1125TIP3    H1 3318   3.783   2.527   2.766
 1125TIP3    H2 3319   3.759   2.671   2.806
 1126TIP3   OH2 3320   3.882   2.979   5.541
 1126TIP3    H1 3321   3.904   3.065   5.506
 1126TIP3    H2 3322   3.944   2.966   5.613
 1127TIP3   OH2 3323   1.998   3.837   4.592
 1127TIP3    H1 3324   2.053   3.801   4.662
 1127TIP3    H2 3325   2.057   3.844   4.517
 1128TIP3   OH2 3326   1.014   1.986   4.612
 1128TIP3    H1 3327   1.067   1.912   4.585
 1128TIP3    H2 3328   0.929   1.972   4.569
 1129TIP3   OH2 3329   5.887   0.604   5.626
 1129TIP3    H1 3330   5.862   0.635   5.539
 1129TIP3    H2 3331   5.882   0.681   5.682
 1130TIP3   OH2 3332   3.638   5.088   2.205
 1130TIP3    H1 3333   3.582   5.021   2.245
 1130TIP3    H2 3334   3.727   5.056   2.221
 1131TIP3   OH2 3335   2.178   6.094   5.767
 1131TIP3    H1 3336   2.238   6.168   5.777
 1131TIP3    H2 3337   2.167   6.085   5.673
 1132TIP3   OH2 3338   2.821   2.767   1.913
 1132TIP3    H1 3339   2.866   2.813   1.841
 1132TIP3    H2 3340   2.888   2.708   1.949
 1133TIP3   OH2 3341   1.629   6.465   4.957
 1133TIP3    H1 3342   1.710   6.461   4.906
 1133TIP3    H2 3343   1.646   6.410   5.033
 1134TIP3   OH2 3344   0.542   1.173   5.461
 1134TIP3    H1 3345   0.573   1.154   5.550
 1134TIP3    H2 3346   0.600   1.123   5.404
 1135TIP3   OH2 3347   4.151   3.754   0.441
 1135TIP3    H1 3348   4.201   3.834   0.459
 1135TIP3    H2 3349   4.193   3.717   0.363
 1136TIP3   OH2 3350   1.047   4.367   2.875
 1136TIP3    H1 3351   1.056   4.379   2.970
 1136TIP3    H2 3352   1.047   4.273   2.862
 1137TIP3   OH2 3353   5.824   2.490   1.905
 1137TIP3    H1 3354   5.843   2.498   1.811
 1137TIP3    H2 3355   5.909   2.495   1.947
 1138TIP3   OH2 3356   7.558   2.773   2.104
 1138TIP3    H1 3357   7.601   2.695   2.139
 1138TIP3    H2 3358   7.568   2.765   2.009
 1139TIP3   OH2 3359   4.564   3.419   5.576
 1139TIP3    H1 3360   4.534   3.404   5.666
 1139TIP3    H2 3361   4.485   3.440   5.527
 1140TIP3   OH2 3362   7.974   2.409   0.927
 1140TIP3    H1 3363   7.908   2.341   0.916
 1140TIP3    H2 3364   8.045   2.384   0.869
 1141TIP3   OH2 3365   2.434   2.176   4.405
 1141TIP3    H1 3366   2.451   2.266   4.378
 1141TIP3    H2 3367   2.494   2.123   4.352
 1142TIP3   OH2 3368   5.845   5.525   6.639
 1142TIP3    H1 3369   5.837   5.460   6.708
 1142TIP3    H2 3370   5.775   5.587   6.656
 1143TIP3   OH2 3371   7.782   0.423   3.115
 1143TIP3    H1 3372   7.704   0.466   3.079
 1143TIP3    H2 3373   7.747   0.358   3.176
 1144TIP3   OH2 3374   6.824   1.501   3.893
 1144TIP3    H1 3375   6.729   1.510   3.889
 1144TIP3    H2 3376   6.858   1.590   3.887
 1145TIP3   OH2 3377   6.329   4.059   3.110
 1145TIP3    H1 3378   6.241   4.086   3.136
 1145TIP3    H2 3379   6.385   4.133   3.135
 1146TIP3   OH2 3380   8.203   1.353   6.482
 1146TIP3    H1 3381   8.284   1.349   6.531
 1146TIP3    H2 3382   8.197   1.267   6.438
 1147TIP3   OH2 3383   7.214   2.642   1.493
 1147TIP3    H1 3384   7.246   2.732   1.499
 1147TIP3    H2 3385   7.225   2.619   1.401
 1148TIP3   OH2 3386   2.973   5.484   3.650
 1148TIP3    H1 3387   2.959   5.462   3.558
 1148TIP3    H2 3388   3.019   5.568   3.648
 1149TIP3   OH2 3389   0.261   5.053   3.438
 1149TIP3    H1 3390   0.302   5.069   3.523
 1149TIP3    H2 3391   0.243   4.959   3.437
 1150TIP3   OH2 3392   3.577   6.310   0.988
 1150TIP3    H1 3393   3.605   6.349   0.905
 1150TIP3    H2 3394   3.532   6.380   1.035
 1151TIP3   OH2 3395   1.338   4.552   6.752
 1151TIP3    H1 3396   1.357   4.523   6.663
 1151TIP3    H2 3397   1.413   4.523   6.804
 1152TIP3   OH2 3398   8.175   3.508   1.275
 1152TIP3    H1 3399   8.173   3.597   1.238
 1152TIP3    H2 3400   8.256   3.470   1.241
 1153TIP3   OH2 3401   4.394   0.553   5.404
 1153TIP3    H1 3402   4.404   0.468   5.447
 1153TIP3    H2 3403   4.375   0.532   5.313
 1154TIP3   OH2 3404   1.848   0.763   3.620
 1154TIP3    H1 3405   1.928   0.809   3.596
 1154TIP3    H2 3406   1.790   0.832   3.653
 1155TIP3   OH2 3407   5.820   4.408   2.114
 1155TIP3    H1 3408   5.887   4.340   2.115
 1155TIP3    H2 3409   5.826   4.449   2.200
 1156TIP3   OH2 3410   4.078   1.604   5.651
 1156TIP3    H1 3411   4.077   1.652   5.568
 1156TIP3    H2 3412   4.008   1.539   5.641
 1157TIP3   OH2 3413   6.634   5.722   4.929
 1157TIP3    H1 3414   6.728   5.722   4.945
 1157TIP3    H2 3415   6.600   5.650   4.981
 1158TIP3   OH2 3416   4.028   1.813   0.154
 1158TIP3    H1 3417   4.088   1.815   0.080
 1158TIP3    H2 3418   4.068   1.751   0.215
 1159TIP3   OH2 3419   6.412   3.977   0.485
 1159TIP3    H1 3420   6.404   3.920   0.408
 1159TIP3    H2 3421   6.326   4.017   0.494
 1160TIP3   OH2 3422   7.252   0.050   2.049
 1160TIP3    H1 3423   7.172   0.018   2.007
 1160TIP3    H2 3424   7.318   0.048   1.980
 1161TIP3   OH2 3425   0.071   1.205   4.035
 1161TIP3    H1 3426   0.144   1.144   4.041
 1161TIP3    H2 3427   0.081   1.246   3.949
 1162TIP3   OH2 3428   1.659   0.380   3.607
 1162TIP3    H1 3429   1.682   0.365   3.515
 1162TIP3    H2 3430   1.606   0.460   3.605
 1163TIP3   OH2 3431   4.224   1.639   3.057
 1163TIP3    H1 3432   4.224   1.701   3.130
 1163TIP3    H2 3433   4.131   1.624   3.038
 1164TIP3   OH2 3434   1.007   3.832   6.358
 1164TIP3    H1 3435   1.060   3.804   6.432
 1164TIP3    H2 3436   1.026   3.925   6.348
 1165TIP3   OH2 3437   0.407   7.378   4.358
 1165TIP3    H1 3438   0.454   7.324   4.294
 1165TIP3    H2 3439   0.450   7.359   4.442
 1166TIP3   OH2 3440   5.877   5.508   1.690
 1166TIP3    H1 3441   5.924   5.444   1.637
 1166TIP3    H2 3442   5.831   5.456   1.756
 1167TIP3   OH2 3443   5.085   0.549   5.966
 1167TIP3    H1 3444   5.013   0.506   5.920
 1167TIP3    H2 3445   5.143   0.578   5.896
 1168TIP3   OH2 3446   7.446   7.335   0.153
 1168TIP3    H1 3447   7.353   7.318   0.169
 1168TIP3    H2 3448   7.447   7.406   0.089
 1169TIP3   OH2 3449   7.385   3.530   0.782
 1169TIP3    H1 3450   7.292   3.507   0.776
 1169TIP3    H2 3451   7.385   3.626   0.787
 1170TIP3   OH2 3452   2.311   5.469   0.261
 1170TIP3    H1 3453   2.381   5.532   0.240
 1170TIP3    H2 3454   2.239   5.523   0.293
 1171TIP3   OH2 3455   7.033   2.539   3.527
 1171TIP3    H1 3456   7.012   2.532   3.620
 1171TIP3    H2 3457   7.126   2.518   3.521
 1172TIP3   OH2 3458   6.158   4.773   1.584
 1172TIP3    H1 3459   6.182   4.693   1.632
 1172TIP3    H2 3460   6.169   4.749   1.492
 1173TIP3   OH2 3461   6.528   4.897   0.898
 1173TIP3    H1 3462   6.457   4.841   0.867
 1173TIP3    H2 3463   6.593   4.894   0.828
 1174TIP3   OH2 3464   8.269   1.592   2.654
 1174TIP3    H1 3465   8.339   1.656   2.645
 1174TIP3    H2 3466   8.190   1.644   2.672
 1175TIP3   OH2 3467   6.540   3.782   3.621
 1175TIP3    H1 3468   6.562   3.858   3.568
 1175TIP3    H2 3469   6.477   3.814   3.685
 1176TIP3   OH2 3470   2.777   3.470   6.489
 1176TIP3    H1 3471   2.828   3.500   6.564
 1176TIP3    H2 3472   2.785   3.374   6.492
 1177TIP3   OH2 3473   5.385   7.464   4.290
 1177TIP3    H1 3474   5.459   7.414   4.255
 1177TIP3    H2 3475   5.311   7.437   4.237
 1178TIP3   OH2 3476   2.833   0.791   3.726
 1178TIP3    H1 3477   2.899   0.725   3.749
 1178TIP3    H2 3478   2.858   0.821   3.639
 1179TIP3   OH2 3479   7.117   3.831   5.147
 1179TIP3    H1 3480   7.122   3.738   5.169
 1179TIP3    H2 3481   7.082   3.832   5.058
 1180TIP3   OH2 3482   7.874   3.073   6.376
 1180TIP3    H1 3483   7.920   3.138   6.323
 1180TIP3    H2 3484   7.926   3.066   6.456
 1181TIP3   OH2 3485   7.720   6.245   1.844
 1181TIP3    H1 3486   7.799   6.206   1.805
 1181TIP3    H2 3487   7.747   6.333   1.871
 1182TIP3   OH2 3488   0.292   5.081   2.968
 1182TIP3    H1 3489   0.387   5.093   2.969
 1182TIP3    H2 3490   0.265   5.109   2.881
 1183TIP3   OH2 3491   3.954   4.484   0.333
 1183TIP3    H1 3492   3.977   4.519   0.419
 1183TIP3    H2 3493   3.874   4.434   0.347
 1184TIP3   OH2 3494   6.781   2.365   1.131
 1184TIP3    H1 3495   6.698   2.364   1.180
 1184TIP3    H2 3496   6.757   2.332   1.045
 1185TIP3   OH2 3497   1.167   2.274   5.713
 1185TIP3    H1 3498   1.123   2.357   5.731
 1185TIP3    H2 3499   1.189   2.239   5.799
 1186TIP3   OH2 3500   0.892   0.790   0.102
 1186TIP3    H1 3501   0.798   0.801   0.085
 1186TIP3    H2 3502   0.906   0.831   0.187
 1187TIP3   OH2 3503   1.195   6.573   6.718
 1187TIP3    H1 3504   1.152   6.620   6.647
 1187TIP3    H2 3505   1.284   6.608   6.719
 1188TIP3   OH2 3506   2.225   3.016   2.486
 1188TIP3    H1 3507   2.243   2.933   2.530
 1188TIP3    H2 3508   2.154   2.995   2.424
 1189TIP3   OH2 3509   5.242   3.002   0.587
 1189TIP3    H1 3510   5.262   3.073   0.648
 1189TIP3    H2 3511   5.189   2.940   0.638
 1190TIP3   OH2 3512   0.565   2.497   0.864
 1190TIP3    H1 3513   0.578   2.473   0.772
 1190TIP3    H2 3514   0.645   2.466   0.908
 1191TIP3   OH2 3515   2.039   6.610   3.342
 1191TIP3    H1 3516   2.059   6.677   3.276
 1191TIP3    H2 3517   2.019   6.660   3.421
 1192TIP3   OH2 3518   3.872   1.867   5.992
 1192TIP3    H1 3519   3.846   1.883   5.902
 1192TIP3    H2 3520   3.805   1.909   6.045
 1193TIP3   OH2 3521   3.629   3.816   3.139
 1193TIP3    H1 3522   3.666   3.815   3.228
 1193TIP3    H2 3523   3.535   3.805   3.152
 1194TIP3   OH2 3524   7.468   3.704   5.620
 1194TIP3    H1 3525   7.478   3.771   5.688
 1194TIP3    H2 3526   7.495   3.622   5.663
 1195TIP3   OH2 3527   3.095   4.303   2.634
 1195TIP3    H1 3528   3.139   4.368   2.690
 1195TIP3    H2 3529   3.163   4.239   2.613
 1196TIP3   OH2 3530   6.910   7.769   1.642
 1196TIP3    H1 3531   6.908   7.723   1.726
 1196TIP3    H2 3532   6.884   7.858   1.663
 1197TIP3   OH2 3533   4.245   1.353   6.149
 1197TIP3    H1 3534   4.187   1.372   6.075
 1197TIP3    H2 3535   4.249   1.257   6.153
 1198TIP3   OH2 3536   6.012   1.162   1.334
 1198TIP3    H1 3537   6.077   1.134   1.398
 1198TIP3    H2 3538   6.009   1.257   1.344
 1199TIP3   OH2 3539   3.803   2.023   3.822
 1199TIP3    H1 3540   3.896   2.044   3.829
 1199TIP3    H2 3541   3.761   2.105   3.796
 1200TIP3   OH2 3542   1.447   1.540   1.109
 1200TIP3    H1 3543   1.533   1.565   1.143
 1200TIP3    H2 3544   1.447   1.444   1.114
 1201TIP3   OH2 3545   6.048   1.933   4.576
 1201TIP3    H1 3546   5.954   1.925   4.593
 1201TIP3    H2 3547   6.087   1.860   4.625
 1202TIP3   OH2 3548   3.319   5.241   5.068
 1202TIP3    H1 3549   3.376   5.289   5.129
 1202TIP3    H2 3550   3.362   5.250   4.983
 1203TIP3   OH2 3551   2.587   0.498   1.597
 1203TIP3    H1 3552   2.654   0.529   1.658
 1203TIP3    H2 3553   2.632   0.436   1.541
 1204TIP3   OH2 3554   5.767   5.212   5.936
 1204TIP3    H1 3555   5.785   5.171   5.851
 1204TIP3    H2 3556   5.672   5.228   5.934
 1205TIP3   OH2 3557   1.890   6.655   5.449
 1205TIP3    H1 3558   1.812   6.631   5.399
 1205TIP3    H2 3559   1.873   6.745   5.478
 1206TIP3   OH2 3560   4.426   1.067   4.620
 1206TIP3    H1 3561   4.337   1.043   4.593
 1206TIP3    H2 3562   4.423   1.063   4.716
 1207TIP3   OH2 3563   0.463   2.885   4.723
 1207TIP3    H1 3564   0.482   2.800   4.685
 1207TIP3    H2 3565   0.451   2.868   4.816
 1208TIP3   OH2 3566   0.447   5.020   0.661
 1208TIP3    H1 3567   0.406   5.066   0.734
 1208TIP3    H2 3568   0.391   4.944   0.646
 1209TIP3   OH2 3569   2.954   6.616   3.502
 1209TIP3    H1 3570   2.980   6.666   3.579
 1209TIP3    H2 3571   3.008   6.537   3.506
 1210TIP3   OH2 3572   4.344   5.798   4.251
 1210TIP3    H1 3573   4.363   5.710   4.219
 1210TIP3    H2 3574   4.409   5.814   4.319
 1211TIP3   OH2 3575   7.097   6.206  -0.026
 1211TIP3    H1 3576   7.106   6.199   0.069
 1211TIP3    H2 3577   7.061   6.293  -0.041
 1212TIP3   OH2 3578   2.571   5.691   1.255
 1212TIP3    H1 3579   2.596   5.647   1.174
 1212TIP3    H2 3580   2.595   5.783   1.242
 1213TIP3   OH2 3581   5.868   0.886   0.450
 1213TIP3    H1 3582   5.831   0.817   0.506
 1213TIP3    H2 3583   5.945   0.916   0.498
 1214TIP3   OH2 3584   0.361   7.130   3.814
 1214TIP3    H1 3585   0.276   7.132   3.770
 1214TIP3    H2 3586   0.361   7.047   3.861
 1215TIP3   OH2 3587   0.265   0.427   5.730
 1215TIP3    H1 3588   0.229   0.512   5.706
 1215TIP3    H2 3589   0.343   0.418   5.675
 1216TIP3   OH2 3590   3.770   3.583   1.161
 1216TIP3    H1 3591   3.784   3.562   1.068
 1216TIP3    H2 3592   3.793   3.676   1.168
 1217TIP3   OH2 3593   1.326   5.125   2.137
 1217TIP3    H1 3594   1.234   5.154   2.131
 1217TIP3    H2 3595   1.364   5.148   2.052
 1218TIP3   OH2 3596   5.443   2.379   3.225
 1218TIP3    H1 3597   5.500   2.374   3.302
 1218TIP3    H2 3598   5.380   2.308   3.238
 1219TIP3   OH2 3599   8.254   1.032   1.847
 1219TIP3    H1 3600   8.300   1.075   1.775
 1219TIP3    H2 3601   8.178   1.087   1.863
 1220TIP3   OH2 3602   5.649   5.687   2.068
 1220TIP3    H1 3603   5.574   5.671   2.010
 1220TIP3    H2 3604   5.627   5.770   2.112
 1221TIP3   OH2 3605   6.656   4.870   6.200
 1221TIP3    H1 3606   6.579   4.845   6.252
 1221TIP3    H2 3607   6.633   4.845   6.111
 1222TIP3   OH2 3608   0.908   7.578   5.400
 1222TIP3    H1 3609   0.989   7.528   5.412
 1222TIP3    H2 3610   0.846   7.515   5.364
 1223TIP3   OH2 3611   7.576   1.713   4.598
 1223TIP3    H1 3612   7.636   1.774   4.642
 1223TIP3    H2 3613   7.586   1.733   4.505
 1224TIP3   OH2 3614   6.335   6.534   4.922
 1224TIP3    H1 3615   6.316   6.456   4.974
 1224TIP3    H2 3616   6.401   6.505   4.859
 1225TIP3   OH2 3617   3.963   1.972   1.209
 1225TIP3    H1 3618   3.872   2.003   1.204
 1225TIP3    H2 3619   3.984   1.975   1.302
 1226TIP3   OH2 3620   3.619   6.899   4.463
 1226TIP3    H1 3621   3.672   6.829   4.500
 1226TIP3    H2 3622   3.534   6.858   4.444
 1227TIP3   OH2 3623   1.390   5.639   3.028
 1227TIP3    H1 3624   1.341   5.568   2.988
 1227TIP3    H2 3625   1.340   5.718   3.008
 1228TIP3   OH2 3626   6.485   2.604   5.236
 1228TIP3    H1 3627   6.399   2.608   5.192
 1228TIP3    H2 3628   6.511   2.695   5.245
 1229TIP3   OH2 3629   6.680   1.459   5.586
 1229TIP3    H1 3630   6.652   1.426   5.500
 1229TIP3    H2 3631   6.710   1.381   5.633
 1230TIP3   OH2 3632   3.254   1.933   6.432
 1230TIP3    H1 3633   3.227   1.938   6.524
 1230TIP3    H2 3634   3.206   1.858   6.398
 1231TIP3   OH2 3635   7.776   3.331   1.818
 1231TIP3    H1 3636   7.811   3.352   1.732
 1231TIP3    H2 3637   7.853   3.311   1.871
 1232TIP3   OH2 3638   2.951   4.567   0.476
 1232TIP3    H1 3639   2.928   4.635   0.412
 1232TIP3    H2 3640   2.891   4.581   0.549
 1233TIP3   OH2 3641   0.905   3.472   2.149
 1233TIP3    H1 3642   0.898   3.542   2.213
 1233TIP3    H2 3643   0.833   3.412   2.171
 1234TIP3   OH2 3644   3.907   5.000   0.505
 1234TIP3    H1 3645   3.877   5.007   0.596
 1234TIP3    H2 3646   3.875   5.080   0.463
 1235TIP3   OH2 3647   5.480   6.149   1.646
 1235TIP3    H1 3648   5.398   6.106   1.626
 1235TIP3    H2 3649   5.537   6.080   1.679
 1236TIP3   OH2 3650   6.252   3.585   5.764
 1236TIP3    H1 3651   6.244   3.611   5.673
 1236TIP3    H2 3652   6.310   3.651   5.803
 1237TIP3   OH2 3653   1.729   1.733   6.721
 1237TIP3    H1 3654   1.782   1.665   6.679
 1237TIP3    H2 3655   1.714   1.699   6.810
 1238TIP3   OH2 3656   2.378   5.106   0.716
 1238TIP3    H1 3657   2.386   5.200   0.733
 1238TIP3    H2 3658   2.468   5.074   0.716
 1239TIP3   OH2 3659   1.645   3.580   4.967
 1239TIP3    H1 3660   1.568   3.636   4.953
 1239TIP3    H2 3661   1.617   3.515   5.031
 1240TIP3   OH2 3662   2.424   5.194   4.841
 1240TIP3    H1 3663   2.435   5.176   4.748
 1240TIP3    H2 3664   2.504   5.160   4.882
 1241TIP3   OH2 3665   6.093   1.655   6.300
 1241TIP3    H1 3666   6.113   1.568   6.334
 1241TIP3    H2 3667   6.008   1.645   6.257
 1242TIP3   OH2 3668   4.326   3.216   6.536
 1242TIP3    H1 3669   4.385   3.162   6.483
 1242TIP3    H2 3670   4.272   3.153   6.584
 1243TIP3   OH2 3671   3.737   1.467   0.820
 1243TIP3    H1 3672   3.784   1.531   0.874
 1243TIP3    H2 3673   3.647   1.471   0.851
 1244TIP3   OH2 3674   2.943   1.831   3.205
 1244TIP3    H1 3675   2.982   1.842   3.292
 1244TIP3    H2 3676   2.992   1.892   3.150
 1245TIP3   OH2 3677   3.717   5.350   4.623
 1245TIP3    H1 3678   3.771   5.275   4.599
 1245TIP3    H2 3679   3.770   5.427   4.598
 1246TIP3   OH2 3680   3.073   5.247   3.471
 1246TIP3    H1 3681   2.991   5.284   3.438
 1246TIP3    H2 3682   3.055   5.154   3.482
 1247TIP3   OH2 3683   0.136   3.001   1.930
 1247TIP3    H1 3684   0.229   2.989   1.913
 1247TIP3    H2 3685   0.106   3.060   1.860
 1248TIP3   OH2 3686   0.179   6.055   3.357
 1248TIP3    H1 3687   0.157   5.962   3.343
 1248TIP3    H2 3688   0.159   6.097   3.274
 1249TIP3   OH2 3689   3.436   0.153   0.575
 1249TIP3    H1 3690   3.433   0.248   0.582
 1249TIP3    H2 3691   3.377   0.132   0.503
 1250TIP3   OH2 3692   5.427   7.724   4.390
 1250TIP3    H1 3693   5.396   7.639   4.357
 1250TIP3    H2 3694   5.502   7.745   4.335
 1251TIP3   OH2 3695   8.015   3.532   1.733
 1251TIP3    H1 3696   8.034   3.585   1.810
 1251TIP3    H2 3697   8.099   3.529   1.686
 1252TIP3   OH2 3698   1.377   2.043   2.144
 1252TIP3    H1 3699   1.431   1.967   2.122
 1252TIP3    H2 3700   1.287   2.013   2.129
 1253TIP3   OH2 3701   6.919   4.814   6.464
 1253TIP3    H1 3702   6.839   4.762   6.468
 1253TIP3    H2 3703   6.896   4.889   6.409
 1254TIP3   OH2 3704   7.849   4.026   2.239
 1254TIP3    H1 3705   7.871   3.984   2.156
 1254TIP3    H2 3706   7.932   4.029   2.287
 1255TIP3   OH2 3707   5.437   5.374   5.628
 1255TIP3    H1 3708   5.356   5.330   5.654
 1255TIP3    H2 3709   5.500   5.303   5.616
 1256TIP3   OH2 3710   2.489   0.341   4.625
 1256TIP3    H1 3711   2.411   0.390   4.651
 1256TIP3    H2 3712   2.562   0.397   4.648
 1257TIP3   OH2 3713   6.335   2.164   2.236
 1257TIP3    H1 3714   6.369   2.196   2.153
 1257TIP3    H2 3715   6.408   2.118   2.276
 1258TIP3   OH2 3716   0.821   3.783   3.061
 1258TIP3    H1 3717   0.797   3.702   3.107
 1258TIP3    H2 3718   0.911   3.801   3.089
 1259TIP3   OH2 3719   5.362   7.559   0.395
 1259TIP3    H1 3720   5.337   7.588   0.307
 1259TIP3    H2 3721   5.293   7.498   0.421
 1260TIP3   OH2 3722   1.032   5.676   3.800
 1260TIP3    H1 3723   0.965   5.634   3.853
 1260TIP3    H2 3724   1.060   5.608   3.738
 1261TIP3   OH2 3725   1.575   7.304   0.068
 1261TIP3    H1 3726   1.547   7.231   0.122
 1261TIP3    H2 3727   1.577   7.379   0.127
 1262TIP3   OH2 3728   1.899   7.586   5.077
 1262TIP3    H1 3729   1.935   7.572   4.989
 1262TIP3    H2 3730   1.969   7.631   5.124
 1263TIP3   OH2 3731   5.376   1.071   1.937
 1263TIP3    H1 3732   5.290   1.072   1.980
 1263TIP3    H2 3733   5.427   1.136   1.985
 1264TIP3   OH2 3734   3.384   6.306   4.074
 1264TIP3    H1 3735   3.305   6.269   4.113
 1264TIP3    H2 3736   3.436   6.230   4.047
 1265TIP3   OH2 3737   7.529   3.062   1.827
 1265TIP3    H1 3738   7.506   3.149   1.796
 1265TIP3    H2 3739   7.519   3.005   1.751
 1266TIP3   OH2 3740   1.013   0.531   0.643
 1266TIP3    H1 3741   1.070   0.455   0.647
 1266TIP3    H2 3742   0.998   0.555   0.734
 1267TIP3   OH2 3743   0.989   5.146   0.467
 1267TIP3    H1 3744   1.013   5.082   0.400
 1267TIP3    H2 3745   1.054   5.216   0.459
 1268TIP3   OH2 3746   1.186   0.044   2.834
 1268TIP3    H1 3747   1.221  -0.043   2.814
 1268TIP3    H2 3748   1.206   0.096   2.756
 1269TIP3   OH2 3749   1.928   5.172   5.682
 1269TIP3    H1 3750   1.922   5.122   5.601
 1269TIP3    H2 3751   1.840   5.170   5.719
 1270TIP3   OH2 3752   3.576   3.058   2.203
 1270TIP3    H1 3753   3.665   3.046   2.238
 1270TIP3    H2 3754   3.563   2.983   2.144
 1271TIP3   OH2 3755   1.409   6.405   3.638
 1271TIP3    H1 3756   1.495   6.392   3.598
 1271TIP3    H2 3757   1.357   6.445   3.570
 1272TIP3   OH2 3758   0.268   7.679   0.600
 1272TIP3    H1 3759   0.249   7.752   0.659
 1272TIP3    H2 3760   0.301   7.722   0.521
 1273TIP3   OH2 3761   1.163   4.119   2.615
 1273TIP3    H1 3762   1.169   4.047   2.552
 1273TIP3    H2 3763   1.252   4.153   2.621
 1274TIP3   OH2 3764   7.953   2.255   3.668
 1274TIP3    H1 3765   8.039   2.294   3.680
 1274TIP3    H2 3766   7.964   2.191   3.598
 1275TIP3   OH2 3767   7.106   7.085   4.498
 1275TIP3    H1 3768   7.185   7.111   4.547
 1275TIP3    H2 3769   7.034   7.122   4.548
 1276TIP3   OH2 3770   4.014   2.567   4.187
 1276TIP3    H1 3771   3.941   2.506   4.174
 1276TIP3    H2 3772   4.070   2.525   4.252
 1277TIP3   OH2 3773   7.936   3.498   4.826
 1277TIP3    H1 3774   7.927   3.414   4.871
 1277TIP3    H2 3775   7.866   3.499   4.762
 1278TIP3   OH2 3776   4.908   4.906   0.699
 1278TIP3    H1 3777   4.946   4.841   0.759
 1278TIP3    H2 3778   4.880   4.977   0.756
 1279TIP3   OH2 3779   7.588   3.289   4.516
 1279TIP3    H1 3780   7.564   3.307   4.607
 1279TIP3    H2 3781   7.658   3.224   4.522
 1280TIP3   OH2 3782   4.275   6.280   1.614
 1280TIP3    H1 3783   4.233   6.202   1.651
 1280TIP3    H2 3784   4.278   6.343   1.687
 1281TIP3   OH2 3785   3.817   0.412   2.892
 1281TIP3    H1 3786   3.814   0.354   2.968
 1281TIP3    H2 3787   3.831   0.352   2.818
 1282TIP3   OH2 3788   3.105   0.956   6.538
 1282TIP3    H1 3789   3.194   0.989   6.551
 1282TIP3    H2 3790   3.076   0.933   6.626
 1283TIP3   OH2 3791   0.358   5.394   2.332
 1283TIP3    H1 3792   0.270   5.402   2.369
 1283TIP3    H2 3793   0.363   5.303   2.303
 1284TIP3   OH2 3794   3.741   2.967   4.649
 1284TIP3    H1 3795   3.767   2.931   4.733
 1284TIP3    H2 3796   3.822   3.001   4.611
 1285TIP3   OH2 3797   5.105   3.136   5.830
 1285TIP3    H1 3798   5.020   3.124   5.789
 1285TIP3    H2 3799   5.144   3.210   5.784
 1286TIP3   OH2 3800   3.433   2.441   0.270
 1286TIP3    H1 3801   3.393   2.366   0.227
 1286TIP3    H2 3802   3.360   2.501   0.288
 1287TIP3   OH2 3803   1.498   1.330   6.306
 1287TIP3    H1 3804   1.466   1.420   6.304
 1287TIP3    H2 3805   1.505   1.308   6.398
 1288TIP3   OH2 3806   6.509   0.490   4.403
 1288TIP3    H1 3807   6.449   0.547   4.355
 1288TIP3    H2 3808   6.596   0.512   4.369
 1289TIP3   OH2 3809   0.294   7.298   5.923
 1289TIP3    H1 3810   0.285   7.227   5.860
 1289TIP3    H2 3811   0.204   7.321   5.946
 1290TIP3   OH2 3812   0.139   2.958   6.696
 1290TIP3    H1 3813   0.126   2.998   6.610
 1290TIP3    H2 3814   0.196   3.020   6.742
 1291TIP3   OH2 3815   1.237   6.368   1.356
 1291TIP3    H1 3816   1.149   6.377   1.391
 1291TIP3    H2 3817   1.294   6.368   1.433
 1292TIP3   OH2 3818   7.160   1.299   0.614
 1292TIP3    H1 3819   7.200   1.272   0.532
 1292TIP3    H2 3820   7.227   1.351   0.658
 1293TIP3   OH2 3821   6.771   7.718   0.544
 1293TIP3    H1 3822   6.864   7.739   0.542
 1293TIP3    H2 3823   6.753   7.697   0.636
 1294TIP3   OH2 3824   6.022   2.889   4.455
 1294TIP3    H1 3825   6.087   2.900   4.385
 1294TIP3    H2 3826   5.985   2.802   4.439
 1295TIP3   OH2 3827   2.143   5.839   1.612
 1295TIP3    H1 3828   2.118   5.764   1.559
 1295TIP3    H2 3829   2.237   5.828   1.626
 1296TIP3   OH2 3830   5.426   0.446   4.239
 1296TIP3    H1 3831   5.455   0.379   4.301
 1296TIP3    H2 3832   5.508   0.481   4.202
 1297TIP3   OH2 3833   3.715   6.231   4.176
 1297TIP3    H1 3834   3.789   6.199   4.126
 1297TIP3    H2 3835   3.644   6.170   4.155
 1298TIP3   OH2 3836   3.403   3.719   6.018
 1298TIP3    H1 3837   3.493   3.696   6.039
 1298TIP3    H2 3838   3.409   3.804   5.976
 1299TIP3   OH2 3839   5.022   1.914   3.709
 1299TIP3    H1 3840   5.054   1.867   3.631
 1299TIP3    H2 3841   5.075   1.879   3.781
 1300TIP3   OH2 3842   2.061   4.710   0.725
 1300TIP3    H1 3843   2.040   4.617   0.739
 1300TIP3    H2 3844   1.979   4.749   0.696
 1301TIP3   OH2 3845   6.891   0.205   3.640
 1301TIP3    H1 3846   6.854   0.292   3.656
 1301TIP3    H2 3847   6.939   0.214   3.558
 1302TIP3   OH2 3848   0.585   7.261   0.793
 1302TIP3    H1 3849   0.519   7.314   0.749
 1302TIP3    H2 3850   0.600   7.304   0.876
 1303TIP3   OH2 3851   2.311   1.463   5.201
 1303TIP3    H1 3852   2.391   1.445   5.151
 1303TIP3    H2 3853   2.240   1.441   5.141
 1304TIP3   OH2 3854   6.300   7.439   4.309
 1304TIP3    H1 3855   6.241   7.514   4.312
 1304TIP3    H2 3856   6.326   7.424   4.400
 1305TIP3   OH2 3857   0.342   5.788   5.222
 1305TIP3    H1 3858   0.432   5.774   5.254
 1305TIP3    H2 3859   0.292   5.811   5.300
 1306TIP3   OH2 3860   2.153   5.236   4.945
 1306TIP3    H1 3861   2.089   5.167   4.933
 1306TIP3    H2 3862   2.216   5.222   4.874
 1307TIP3   OH2 3863   6.339   6.580   6.218
 1307TIP3    H1 3864   6.434   6.570   6.212
 1307TIP3    H2 3865   6.306   6.536   6.140
 1308TIP3   OH2 3866   6.170   0.524   3.328
 1308TIP3    H1 3867   6.118   0.529   3.409
 1308TIP3    H2 3868   6.128   0.454   3.278
 1309TIP3   OH2 3869   5.026   5.691   6.738
 1309TIP3    H1 3870   5.023   5.756   6.808
 1309TIP3    H2 3871   4.969   5.620   6.769
 1310TIP3   OH2 3872   1.247   2.727   5.040
 1310TIP3    H1 3873   1.213   2.650   4.995
 1310TIP3    H2 3874   1.302   2.692   5.110
 1311TIP3   OH2 3875   4.835   2.617   3.108
 1311TIP3    H1 3876   4.892   2.617   3.185
 1311TIP3    H2 3877   4.807   2.526   3.098
 1312TIP3   OH2 3878   3.277   5.540   6.571
 1312TIP3    H1 3879   3.186   5.516   6.554
 1312TIP3    H2 3880   3.328   5.463   6.546
 1313TIP3   OH2 3881   5.424   5.630   4.003
 1313TIP3    H1 3882   5.511   5.669   4.005
 1313TIP3    H2 3883   5.376   5.681   3.938
 1314TIP3   OH2 3884   6.024   2.732   5.442
 1314TIP3    H1 3885   6.102   2.732   5.497
 1314TIP3    H2 3886   5.972   2.658   5.473
 1315TIP3   OH2 3887   3.985   0.807   6.588
 1315TIP3    H1 3888   3.943   0.755   6.519
 1315TIP3    H2 3889   4.078   0.806   6.566
 1316TIP3   OH2 3890   5.469   4.514   4.966
 1316TIP3    H1 3891   5.520   4.467   4.899
 1316TIP3    H2 3892   5.502   4.480   5.049
 1317TIP3   OH2 3893   0.438   1.267   2.668
 1317TIP3    H1 3894   0.508   1.239   2.609
 1317TIP3    H2 3895   0.479   1.271   2.754
 1318TIP3   OH2 3896   6.746   5.985   4.008
 1318TIP3    H1 3897   6.830   5.999   3.964
 1318TIP3    H2 3898   6.707   5.910   3.962
 1319TIP3   OH2 3899   1.594   5.581   4.069
 1319TIP3    H1 3900   1.622   5.590   3.978
 1319TIP3    H2 3901   1.676   5.574   4.119
 1320TIP3   OH2 3902   7.634   0.442   5.147
 1320TIP3    H1 3903   7.673   0.432   5.234
 1320TIP3    H2 3904   7.704   0.416   5.087
 1321TIP3   OH2 3905   2.596   3.424   3.107
 1321TIP3    H1 3906   2.508   3.397   3.081
 1321TIP3    H2 3907   2.649   3.345   3.098
 1322TIP3   OH2 3908   0.759   4.624   2.466
 1322TIP3    H1 3909   0.747   4.538   2.426
 1322TIP3    H2 3910   0.846   4.619   2.507
 1323TIP3   OH2 3911   3.072   7.005   0.166
 1323TIP3    H1 3912   3.102   7.073   0.106
 1323TIP3    H2 3913   3.014   7.050   0.227
 1324TIP3   OH2 3914   4.658   2.986   2.708
 1324TIP3    H1 3915   4.603   2.975   2.786
 1324TIP3    H2 3916   4.736   3.033   2.740
 1325TIP3   OH2 3917   4.649   6.656   4.258
 1325TIP3    H1 3918   4.581   6.628   4.320
 1325TIP3    H2 3919   4.725   6.675   4.312
 1326TIP3   OH2 3920   3.843   5.645   3.341
 1326TIP3    H1 3921   3.848   5.740   3.343
 1326TIP3    H2 3922   3.842   5.618   3.433
 1327TIP3   OH2 3923   3.272   3.664   0.572
 1327TIP3    H1 3924   3.184   3.700   0.559
 1327TIP3    H2 3925   3.325   3.705   0.504
 1328TIP3   OH2 3926   0.166   0.491   0.069
 1328TIP3    H1 3927   0.142   0.534  -0.013
 1328TIP3    H2 3928   0.243   0.438   0.047
 1329TIP3   OH2 3929   0.967   5.749   1.521
 1329TIP3    H1 3930   1.013   5.829   1.494
 1329TIP3    H2 3931   1.002   5.681   1.463
 1330TIP3   OH2 3932   5.570   3.727   0.354
 1330TIP3    H1 3933   5.544   3.647   0.400
 1330TIP3    H2 3934   5.490   3.758   0.313
 1331TIP3   OH2 3935   2.180   3.648   0.412
 1331TIP3    H1 3936   2.115   3.620   0.476
 1331TIP3    H2 3937   2.144   3.621   0.328
 1332TIP3   OH2 3938   1.754   7.147   3.658
 1332TIP3    H1 3939   1.728   7.086   3.590
 1332TIP3    H2 3940   1.756   7.233   3.615
 1333TIP3   OH2 3941   7.603   6.985   6.673
 1333TIP3    H1 3942   7.655   7.037   6.611
 1333TIP3    H2 3943   7.513   6.998   6.645
 1334TIP3   OH2 3944   3.213   4.045   5.482
 1334TIP3    H1 3945   3.180   4.020   5.395
 1334TIP3    H2 3946   3.182   4.135   5.494
 1335TIP3   OH2 3947   0.991   1.697   2.372
 1335TIP3    H1 3948   0.919   1.679   2.432
 1335TIP3    H2 3949   0.976   1.787   2.343
 1336TIP3   OH2 3950   5.867   5.890   2.672
 1336TIP3    H1 3951   5.773   5.905   2.677
 1336TIP3    H2 3952   5.883   5.866   2.580
 1337TIP3   OH2 3953   1.456   7.107   3.595
 1337TIP3    H1 3954   1.528   7.099   3.532
 1337TIP3    H2 3955   1.444   7.019   3.629
 1338TIP3   OH2 3956   2.720   0.991   5.626
 1338TIP3    H1 3957   2.764   0.981   5.711
 1338TIP3    H2 3958   2.627   1.000   5.649
 1339TIP3   OH2 3959   7.246   6.159   5.363
 1339TIP3    H1 3960   7.283   6.086   5.314
 1339TIP3    H2 3961   7.186   6.119   5.425
 1340TIP3   OH2 3962   4.839   7.113   6.139
 1340TIP3    H1 3963   4.918   7.166   6.132
 1340TIP3    H2 3964   4.819   7.112   6.233
 1341TIP3   OH2 3965   6.722   6.952   4.142
 1341TIP3    H1 3966   6.761   6.873   4.104
 1341TIP3    H2 3967   6.643   6.967   4.091
 1342TIP3   OH2 3968   1.293   7.201   0.016
 1342TIP3    H1 3969   1.271   7.140   0.087
 1342TIP3    H2 3970   1.230   7.272   0.025
 1343TIP3   OH2 3971   1.038   7.259   5.655
 1343TIP3    H1 3972   0.944   7.273   5.660
 1343TIP3    H2 3973   1.058   7.258   5.561
 1344TIP3   OH2 3974   2.620   7.526   3.719
 1344TIP3    H1 3975   2.670   7.594   3.674
 1344TIP3    H2 3976   2.573   7.481   3.650
 1345TIP3   OH2 3977   3.927   0.827   6.176
 1345TIP3    H1 3978   3.929   0.813   6.081
 1345TIP3    H2 3979   3.880   0.751   6.211
 1346TIP3   OH2 3980   3.705   0.840   2.622
 1346TIP3    H1 3981   3.649   0.765   2.644
 1346TIP3    H2 3982   3.743   0.817   2.537
 1347TIP3   OH2 3983   6.024   2.642   3.923
 1347TIP3    H1 3984   5.962   2.644   3.850
 1347TIP3    H2 3985   5.993   2.710   3.983
 1348TIP3   OH2 3986   0.718   5.679   4.270
 1348TIP3    H1 3987   0.753   5.724   4.347
 1348TIP3    H2 3988   0.788   5.621   4.242
 1349TIP3   OH2 3989   2.021   6.775   3.081
 1349TIP3    H1 3990   2.112   6.805   3.087
 1349TIP3    H2 3991   2.008   6.756   2.988
 1350TIP3   OH2 3992   2.454   3.150   5.230
 1350TIP3    H1 3993   2.401   3.115   5.159
 1350TIP3    H2 3994   2.490   3.072   5.273
 1351TIP3   OH2 3995   5.036   6.989   4.669
 1351TIP3    H1 3996   5.023   6.928   4.742
 1351TIP3    H2 3997   5.069   6.934   4.598
 1352TIP3   OH2 3998   6.565   0.536   5.258
 1352TIP3    H1 3999   6.614   0.469   5.306
 1352TIP3    H2 4000   6.499   0.567   5.320
 1353TIP3   OH2 4001   2.821   1.899   6.671
 1353TIP3    H1 4002   2.765   1.976   6.678
 1353TIP3    H2 4003   2.883   1.908   6.744
 1354TIP3   OH2 4004   1.207   3.815   1.581
 1354TIP3    H1 4005   1.126   3.777   1.614
 1354TIP3    H2 4006   1.181   3.865   1.504
 1355TIP3   OH2 4007   2.224   0.728   0.734
 1355TIP3    H1 4008   2.157   0.797   0.736
 1355TIP3    H2 4009   2.221   0.694   0.645
 1356TIP3   OH2 4010   7.643   5.963   0.192
 1356TIP3    H1 4011   7.657   5.951   0.098
 1356TIP3    H2 4012   7.660   5.877   0.230
 1357TIP3   OH2 4013   6.497   6.472   2.207
 1357TIP3    H1 4014   6.470   6.497   2.295
 1357TIP3    H2 4015   6.464   6.383   2.196
 1358TIP3   OH2 4016   0.580   7.623   0.958
 1358TIP3    H1 4017   0.647   7.656   1.018
 1358TIP3    H2 4018   0.602   7.664   0.874
 1359TIP3   OH2 4019   4.155   0.352   5.612
 1359TIP3    H1 4020   4.131   0.354   5.705
 1359TIP3    H2 4021   4.251   0.352   5.613
 1360TIP3   OH2 4022   1.158   2.597   1.895
 1360TIP3    H1 4023   1.223   2.560   1.955
 1360TIP3    H2 4024   1.184   2.688   1.885
 1361TIP3   OH2 4025   3.130   2.077   5.016
 1361TIP3    H1 4026   3.153   2.099   5.106
 1361TIP3    H2 4027   3.208   2.098   4.965
 1362TIP3   OH2 4028   0.991   6.932   4.367
 1362TIP3    H1 4029   1.039   6.935   4.450
 1362TIP3    H2 4030   0.925   7.000   4.374
 1363TIP3   OH2 4031   5.377   4.512   6.533
 1363TIP3    H1 4032   5.345   4.598   6.507
 1363TIP3    H2 4033   5.325   4.489   6.610
 1364TIP3   OH2 4034   7.862   5.535   3.688
 1364TIP3    H1 4035   7.951   5.548   3.720
 1364TIP3    H2 4036   7.851   5.601   3.619
 1365TIP3   OH2 4037   7.801   2.766   4.619
 1365TIP3    H1 4038   7.830   2.716   4.543
 1365TIP3    H2 4039   7.834   2.854   4.605
 1366TIP3   OH2 4040   6.067   0.028   4.868
 1366TIP3    H1 4041   6.116   0.083   4.807
 1366TIP3    H2 4042   6.034   0.089   4.934
 1367TIP3   OH2 4043   0.189   4.790   1.261
 1367TIP3    H1 4044   0.109   4.753   1.300
 1367TIP3    H2 4045   0.259   4.733   1.292
 1368TIP3   OH2 4046   1.994   6.430   5.579
 1368TIP3    H1 4047   2.048   6.376   5.521
 1368TIP3    H2 4048   1.953   6.494   5.521
 1369TIP3   OH2 4049   7.707   0.029   5.670
 1369TIP3    H1 4050   7.634  -0.005   5.721
 1369TIP3    H2 4051   7.669   0.099   5.618
 1370TIP3   OH2 4052   3.129   3.001   4.570
 1370TIP3    H1 4053   3.168   3.088   4.582
 1370TIP3    H2 4054   3.201   2.940   4.586
 1371TIP3   OH2 4055   2.390   3.196   0.690
 1371TIP3    H1 4056   2.469   3.205   0.637
 1371TIP3    H2 4057   2.343   3.279   0.678
 1372TIP3   OH2 4058   4.728   4.264   1.118
 1372TIP3    H1 4059   4.779   4.187   1.142
 1372TIP3    H2 4060   4.645   4.229   1.088
 1373TIP3   OH2 4061   0.320   2.384   5.862
 1373TIP3    H1 4062   0.329   2.429   5.778
 1373TIP3    H2 4063   0.408   2.349   5.880
 1374TIP3   OH2 4064   3.574   2.766   6.564
 1374TIP3    H1 4065   3.519   2.836   6.599
 1374TIP3    H2 4066   3.513   2.696   6.543
 1375TIP3   OH2 4067   0.068   1.217   1.667
 1375TIP3    H1 4068   0.044   1.309   1.660
 1375TIP3    H2 4069   0.107   1.195   1.582
 1376TIP3   OH2 4070   4.379   5.810   5.114
 1376TIP3    H1 4071   4.406   5.810   5.022
 1376TIP3    H2 4072   4.311   5.743   5.118
 1377TIP3   OH2 4073   6.603   4.720   4.946
 1377TIP3    H1 4074   6.654   4.762   4.877
 1377TIP3    H2 4075   6.560   4.646   4.903
 1378TIP3   OH2 4076   6.745   7.681   4.509
 1378TIP3    H1 4077   6.755   7.719   4.422
 1378TIP3    H2 4078   6.818   7.717   4.560
 1379TIP3   OH2 4079   1.934   1.195   1.275
 1379TIP3    H1 4080   1.909   1.123   1.333
 1379TIP3    H2 4081   2.005   1.158   1.221
 1380TIP3   OH2 4082   2.203   1.883   5.673
 1380TIP3    H1 4083   2.168   1.806   5.718
 1380TIP3    H2 4084   2.298   1.875   5.684
 1381TIP3   OH2 4085   5.557   0.271   3.276
 1381TIP3    H1 4086   5.483   0.258   3.216
 1381TIP3    H2 4087   5.520   0.256   3.363
 1382TIP3   OH2 4088   8.124   0.244   6.328
 1382TIP3    H1 4089   8.109   0.323   6.277
 1382TIP3    H2 4090   8.218   0.245   6.347
 1383TIP3   OH2 4091   1.215   5.507   5.928
 1383TIP3    H1 4092   1.161   5.586   5.935
 1383TIP3    H2 4093   1.234   5.499   5.835
 1384TIP3   OH2 4094   3.875   0.367   4.574
 1384TIP3    H1 4095   3.898   0.391   4.664
 1384TIP3    H2 4096   3.894   0.274   4.568
 1385TIP3   OH2 4097   4.604   4.937   0.392
 1385TIP3    H1 4098   4.556   5.006   0.437
 1385TIP3    H2 4099   4.625   4.974   0.307
 1386TIP3   OH2 4100   7.553   0.350   1.777
 1386TIP3    H1 4101   7.576   0.261   1.750
 1386TIP3    H2 4102   7.463   0.342   1.809
 1387TIP3   OH2 4103   3.047   5.071   1.419
 1387TIP3    H1 4104   3.107   5.012   1.464
 1387TIP3    H2 4105   3.000   5.014   1.357
 1388TIP3   OH2 4106   2.161   1.341   0.960
 1388TIP3    H1 4107   2.134   1.257   0.922
 1388TIP3    H2 4108   2.244   1.361   0.918
 1389TIP3   OH2 4109   4.672   6.923   2.720
 1389TIP3    H1 4110   4.760   6.891   2.742
 1389TIP3    H2 4111   4.682   6.962   2.633
 1390TIP3   OH2 4112   1.252   4.912   3.089
 1390TIP3    H1 4113   1.304   4.884   3.165
 1390TIP3    H2 4114   1.292   4.866   3.015
 1391TIP3   OH2 4115   4.875   7.642   2.015
 1391TIP3    H1 4116   4.817   7.717   2.026
 1391TIP3    H2 4117   4.939   7.671   1.950
 1392TIP3   OH2 4118   2.027   1.938   3.462
 1392TIP3    H1 4119   2.072   1.904   3.385
 1392TIP3    H2 4120   2.096   1.946   3.528
 1393TIP3   OH2 4121   0.417   4.940   4.260
 1393TIP3    H1 4122   0.454   4.888   4.190
 1393TIP3    H2 4123   0.492   4.977   4.306
 1394TIP3   OH2 4124   6.933   4.826   5.900
 1394TIP3    H1 4125   6.963   4.783   5.819
 1394TIP3    H2 4126   6.838   4.823   5.895
 1395TIP3   OH2 4127   2.106   7.702   5.256
 1395TIP3    H1 4128   2.086   7.761   5.329
 1395TIP3    H2 4129   2.182   7.741   5.214
 1396TIP3   OH2 4130   2.482   3.393   1.953
 1396TIP3    H1 4131   2.515   3.307   1.982
 1396TIP3    H2 4132   2.512   3.453   2.021
 1397TIP3   OH2 4133   3.662   3.517   1.700
 1397TIP3    H1 4134   3.629   3.545   1.785
 1397TIP3    H2 4135   3.697   3.596   1.660
 1398TIP3   OH2 4136   3.237   0.909   1.770
 1398TIP3    H1 4137   3.244   0.854   1.692
 1398TIP3    H2 4138   3.185   0.858   1.831
 1399TIP3   OH2 4139   2.246   4.494   3.824
 1399TIP3    H1 4140   2.174   4.459   3.876
 1399TIP3    H2 4141   2.273   4.573   3.871
 1400TIP3   OH2 4142   0.509   4.499   5.019
 1400TIP3    H1 4143   0.514   4.532   5.108
 1400TIP3    H2 4144   0.434   4.544   4.980
 1401TIP3   OH2 4145   4.972   7.440   6.398
 1401TIP3    H1 4146   5.029   7.387   6.341
 1401TIP3    H2 4147   5.033   7.490   6.452
 1402TIP3   OH2 4148   4.794   1.711   1.807
 1402TIP3    H1 4149   4.766   1.702   1.716
 1402TIP3    H2 4150   4.713   1.732   1.855
 1403TIP3   OH2 4151   0.238   3.869   5.863
 1403TIP3    H1 4152   0.331   3.851   5.871
 1403TIP3    H2 4153   0.221   3.863   5.769
 1404TIP3   OH2 4154   5.397   2.401   1.180
 1404TIP3    H1 4155   5.334   2.334   1.156
 1404TIP3    H2 4156   5.475   2.352   1.208
 1405TIP3   OH2 4157   2.690   3.245   4.077
 1405TIP3    H1 4158   2.635   3.240   4.155
 1405TIP3    H2 4159   2.711   3.154   4.056
 1406TIP3   OH2 4160   6.509   6.721   5.182
 1406TIP3    H1 4161   6.575   6.671   5.135
 1406TIP3    H2 4162   6.431   6.665   5.181
 1407TIP3   OH2 4163   2.083   5.619   1.435
 1407TIP3    H1 4164   2.149   5.552   1.419
 1407TIP3    H2 4165   2.007   5.570   1.466
 1408TIP3   OH2 4166   2.692   6.900   3.352
 1408TIP3    H1 4167   2.703   6.864   3.265
 1408TIP3    H2 4168   2.630   6.841   3.396
 1409TIP3   OH2 4169   0.090   3.601   0.285
 1409TIP3    H1 4170   0.089   3.556   0.369
 1409TIP3    H2 4171   0.102   3.694   0.307
 1410TIP3   OH2 4172   5.843   3.458   6.714
 1410TIP3    H1 4173   5.827   3.364   6.720
 1410TIP3    H2 4174   5.857   3.475   6.621
 1411TIP3   OH2 4175   5.419   2.331   0.613
 1411TIP3    H1 4176   5.487   2.392   0.585
 1411TIP3    H2 4177   5.349   2.343   0.549
 1412TIP3   OH2 4178   0.571   1.316   1.216
 1412TIP3    H1 4179   0.622   1.298   1.295
 1412TIP3    H2 4180   0.498   1.371   1.246
 1413TIP3   OH2 4181   1.433   2.053   5.226
 1413TIP3    H1 4182   1.410   1.969   5.185
 1413TIP3    H2 4183   1.484   2.028   5.303
 1414TIP3   OH2 4184   0.699   2.567   4.277
 1414TIP3    H1 4185   0.621   2.621   4.280
 1414TIP3    H2 4186   0.666   2.478   4.264
 1415TIP3   OH2 4187   1.532   3.749   3.594
 1415TIP3    H1 4188   1.523   3.655   3.583
 1415TIP3    H2 4189   1.572   3.760   3.681
 1416TIP3   OH2 4190   1.452   3.436   6.192
 1416TIP3    H1 4191   1.373   3.485   6.214
 1416TIP3    H2 4192   1.521   3.503   6.188
 1417TIP3   OH2 4193   5.034   1.739   1.317
 1417TIP3    H1 4194   5.095   1.668   1.337
 1417TIP3    H2 4195   5.089   1.809   1.283
 1418TIP3   OH2 4196   4.416   2.850   1.683
 1418TIP3    H1 4197   4.377   2.763   1.691
 1418TIP3    H2 4198   4.441   2.858   1.591
 1419TIP3   OH2 4199   6.302   1.867   2.748
 1419TIP3    H1 4200   6.255   1.848   2.830
 1419TIP3    H2 4201   6.294   1.786   2.697
 1420TIP3   OH2 4202   4.499   3.399   0.664
 1420TIP3    H1 4203   4.462   3.478   0.704
 1420TIP3    H2 4204   4.438   3.378   0.593
 1421TIP3   OH2 4205   6.410   7.154   2.583
 1421TIP3    H1 4206   6.343   7.104   2.537
 1421TIP3    H2 4207   6.463   7.194   2.513
 1422TIP3   OH2 4208   0.475   5.322   4.063
 1422TIP3    H1 4209   0.522   5.344   3.983
 1422TIP3    H2 4210   0.384   5.312   4.036
 1423TIP3   OH2 4211   5.791   6.150   6.254
 1423TIP3    H1 4212   5.851   6.076   6.258
 1423TIP3    H2 4213   5.796   6.190   6.341
 1424TIP3   OH2 4214   0.127   7.490   3.878
 1424TIP3    H1 4215   0.209   7.453   3.910
 1424TIP3    H2 4216   0.141   7.504   3.785
 1425TIP3   OH2 4217   2.317   3.288   6.524
 1425TIP3    H1 4218   2.352   3.309   6.438
 1425TIP3    H2 4219   2.380   3.226   6.561
 1426TIP3   OH2 4220   0.088   5.819   1.098
 1426TIP3    H1 4221   0.100   5.911   1.075
 1426TIP3    H2 4222   0.080   5.819   1.193
 1427TIP3   OH2 4223   7.475   0.822   2.892
 1427TIP3    H1 4224   7.426   0.869   2.824
 1427TIP3    H2 4225   7.438   0.734   2.892
 1428TIP3   OH2 4226   6.838   5.989   6.664
 1428TIP3    H1 4227   6.805   6.039   6.589
 1428TIP3    H2 4228   6.762   5.979   6.722
 1429TIP3   OH2 4229   4.767   1.886   0.623
 1429TIP3    H1 4230   4.844   1.832   0.639
 1429TIP3    H2 4231   4.739   1.914   0.710
 1430TIP3   OH2 4232   2.063   3.297   0.708
 1430TIP3    H1 4233   1.967   3.292   0.710
 1430TIP3    H2 4234   2.089   3.291   0.800
 1431TIP3   OH2 4235   0.699   7.288   2.177
 1431TIP3    H1 4236   0.773   7.313   2.233
 1431TIP3    H2 4237   0.627   7.345   2.206
 1432TIP3   OH2 4238   6.010   6.131   3.368
 1432TIP3    H1 4239   5.957   6.069   3.419
 1432TIP3    H2 4240   6.065   6.076   3.313
 1433TIP3   OH2 4241   8.064   7.027   3.432
 1433TIP3    H1 4242   8.137   7.088   3.422
 1433TIP3    H2 4243   8.087   6.953   3.375
 1434TIP3   OH2 4244   3.468   6.397   3.817
 1434TIP3    H1 4245   3.453   6.338   3.891
 1434TIP3    H2 4246   3.418   6.358   3.745
 1435TIP3   OH2 4247   0.976   1.104   3.296
 1435TIP3    H1 4248   1.063   1.107   3.336
 1435TIP3    H2 4249   0.985   1.039   3.226
 1436TIP3   OH2 4250   7.262   5.755   4.290
 1436TIP3    H1 4251   7.272   5.661   4.308
 1436TIP3    H2 4252   7.277   5.762   4.195
 1437TIP3   OH2 4253   5.054   2.870   2.781
 1437TIP3    H1 4254   5.066   2.784   2.822
 1437TIP3    H2 4255   5.004   2.920   2.845
 1438TIP3   OH2 4256   5.084   1.439   2.796
 1438TIP3    H1 4257   5.048   1.506   2.738
 1438TIP3    H2 4258   5.138   1.487   2.858
 1439TIP3   OH2 4259   5.299   2.752   4.719
 1439TIP3    H1 4260   5.288   2.738   4.624
 1439TIP3    H2 4261   5.378   2.702   4.741
 1440TIP3   OH2 4262   0.545   7.700   5.817
 1440TIP3    H1 4263   0.610   7.668   5.879
 1440TIP3    H2 4264   0.466   7.715   5.870
 1441TIP3   OH2 4265   6.668   1.906   2.288
 1441TIP3    H1 4266   6.700   1.912   2.198
 1441TIP3    H2 4267   6.648   1.996   2.313
 1442TIP3   OH2 4268   6.323   3.836   3.775
 1442TIP3    H1 4269   6.367   3.845   3.859
 1442TIP3    H2 4270   6.261   3.909   3.772
 1443TIP3   OH2 4271   1.836   2.834   6.254
 1443TIP3    H1 4272   1.791   2.799   6.331
 1443TIP3    H2 4273   1.852   2.926   6.276
 1444TIP3   OH2 4274   2.197   2.972   1.367
 1444TIP3    H1 4275   2.245   2.923   1.301
 1444TIP3    H2 4276   2.158   3.045   1.319
 1445TIP3   OH2 4277   7.989   1.721   1.654
 1445TIP3    H1 4278   8.036   1.796   1.617
 1445TIP3    H2 4279   7.939   1.758   1.727
 1446TIP3   OH2 4280   4.513   7.081   2.937
 1446TIP3    H1 4281   4.573   7.155   2.927
 1446TIP3    H2 4282   4.462   7.080   2.855
 1447TIP3   OH2 4283   5.255   6.703   0.233
 1447TIP3    H1 4284   5.191   6.633   0.216
 1447TIP3    H2 4285   5.248   6.720   0.326
 1448TIP3   OH2 4286   7.371   7.162   4.559
 1448TIP3    H1 4287   7.385   7.085   4.504
 1448TIP3    H2 4288   7.375   7.236   4.498
 1449TIP3   OH2 4289   3.864   7.433   5.722
 1449TIP3    H1 4290   3.942   7.485   5.741
 1449TIP3    H2 4291   3.876   7.351   5.770
 1450TIP3   OH2 4292   7.624   6.005   0.969
 1450TIP3    H1 4293   7.552   5.944   0.953
 1450TIP3    H2 4294   7.617   6.027   1.062
 1451TIP3   OH2 4295   3.242   6.583   5.219
 1451TIP3    H1 4296   3.231   6.607   5.127
 1451TIP3    H2 4297   3.217   6.491   5.222
 1452TIP3   OH2 4298   0.743   4.159   3.408
 1452TIP3    H1 4299   0.770   4.085   3.354
 1452TIP3    H2 4300   0.648   4.150   3.416
 1453TIP3   OH2 4301   7.297   7.111   4.191
 1453TIP3    H1 4302   7.272   7.171   4.261
 1453TIP3    H2 4303   7.375   7.149   4.152
 1454TIP3   OH2 4304   2.091   0.699   0.975
 1454TIP3    H1 4305   2.151   0.712   0.901
 1454TIP3    H2 4306   2.089   0.605   0.989
 1455TIP3   OH2 4307   6.945   0.509   5.613
 1455TIP3    H1 4308   6.967   0.428   5.659
 1455TIP3    H2 4309   7.002   0.510   5.536
 1456TIP3   OH2 4310   0.501   1.753   4.661
 1456TIP3    H1 4311   0.454   1.690   4.606
 1456TIP3    H2 4312   0.437   1.783   4.725
 1457TIP3   OH2 4313   0.938   0.596   4.370
 1457TIP3    H1 4314   0.990   0.630   4.443
 1457TIP3    H2 4315   0.967   0.505   4.361
 1458TIP3   OH2 4316   4.908   4.648   0.850
 1458TIP3    H1 4317   4.829   4.635   0.903
 1458TIP3    H2 4318   4.907   4.573   0.790
 1459TIP3   OH2 4319   1.366   4.726   2.932
 1459TIP3    H1 4320   1.321   4.689   2.855
 1459TIP3    H2 4321   1.383   4.651   2.988
 1460TIP3   OH2 4322   1.949   6.845   2.801
 1460TIP3    H1 4323   1.856   6.822   2.806
 1460TIP3    H2 4324   1.953   6.936   2.831
 1461TIP3   OH2 4325   5.120   0.792   5.385
 1461TIP3    H1 4326   5.149   0.865   5.439
 1461TIP3    H2 4327   5.153   0.714   5.431
 1462TIP3   OH2 4328   0.089   2.188   1.091
 1462TIP3    H1 4329   0.105   2.116   1.153
 1462TIP3    H2 4330  -0.006   2.199   1.092
 1463TIP3   OH2 4331   0.038   7.748   0.203
 1463TIP3    H1 4332   0.106   7.698   0.158
 1463TIP3    H2 4333   0.066   7.750   0.295
 1464TIP3   OH2 4334   6.166   6.372   3.446
 1464TIP3    H1 4335   6.258   6.391   3.432
 1464TIP3    H2 4336   6.160   6.277   3.443
 1465TIP3   OH2 4337   2.801   5.534   3.081
 1465TIP3    H1 4338   2.871   5.547   3.145
 1465TIP3    H2 4339   2.762   5.620   3.070
 1466TIP3   OH2 4340   2.594   4.776   1.277
 1466TIP3    H1 4341   2.511   4.743   1.314
 1466TIP3    H2 4342   2.659   4.752   1.343
 1467TIP3   OH2 4343   4.111   1.673   3.893
 1467TIP3    H1 4344   4.056   1.653   3.969
 1467TIP3    H2 4345   4.176   1.736   3.926
 1468TIP3   OH2 4346   7.759   0.460   3.946
 1468TIP3    H1 4347   7.774   0.393   3.879
 1468TIP3    H2 4348   7.812   0.535   3.918
 1469TIP3   OH2 4349   4.084   2.650   5.192
 1469TIP3    H1 4350   4.070   2.600   5.111
 1469TIP3    H2 4351   4.069   2.741   5.166
 1470TIP3   OH2 4352   5.444   7.671   1.538
 1470TIP3    H1 4353   5.450   7.738   1.470
 1470TIP3    H2 4354   5.435   7.720   1.620
 1471TIP3   OH2 4355   3.552   5.399   1.085
 1471TIP3    H1 4356   3.500   5.349   1.148
 1471TIP3    H2 4357   3.642   5.372   1.103
 1472TIP3   OH2 4358   6.936   5.824   3.538
 1472TIP3    H1 4359   6.913   5.731   3.542
 1472TIP3    H2 4360   6.919   5.857   3.627
 1473TIP3   OH2 4361   0.036   4.017   4.550
 1473TIP3    H1 4362   0.108   4.077   4.570
 1473TIP3    H2 4363   0.041   3.950   4.617
 1474TIP3   OH2 4364   4.089   2.059   3.791
 1474TIP3    H1 4365   4.179   2.063   3.824
 1474TIP3    H2 4366   4.087   1.981   3.736
 1475TIP3   OH2 4367   7.058   7.350   3.189
 1475TIP3    H1 4368   6.997   7.277   3.197
 1475TIP3    H2 4369   7.057   7.372   3.096
 1476TIP3   OH2 4370   6.288   5.480   5.704
 1476TIP3    H1 4371   6.227   5.485   5.630
 1476TIP3    H2 4372   6.325   5.392   5.698
 1477TIP3   OH2 4373   3.749   2.535   4.569
 1477TIP3    H1 4374   3.725   2.502   4.656
 1477TIP3    H2 4375   3.801   2.464   4.531
 1478TIP3   OH2 4376   2.795   6.286   5.543
 1478TIP3    H1 4377   2.770   6.351   5.608
 1478TIP3    H2 4378   2.800   6.335   5.460
 1479TIP3   OH2 4379   7.892   3.865   2.023
 1479TIP3    H1 4380   7.931   3.788   2.065
 1479TIP3    H2 4381   7.848   3.829   1.946
 1480TIP3   OH2 4382   3.529   5.002   6.719
 1480TIP3    H1 4383   3.502   5.042   6.636
 1480TIP3    H2 4384   3.447   4.989   6.767
 1481TIP3   OH2 4385   5.288   3.734   0.849
 1481TIP3    H1 4386   5.336   3.746   0.931
 1481TIP3    H2 4387   5.210   3.685   0.874
 1482TIP3   OH2 4388   7.983   2.492   1.455
 1482TIP3    H1 4389   7.979   2.501   1.550
 1482TIP3    H2 4390   7.895   2.465   1.430
 1483TIP3   OH2 4391   5.627   1.531   6.576
 1483TIP3    H1 4392   5.534   1.514   6.563
 1483TIP3    H2 4393   5.640   1.526   6.670
 1484TIP3   OH2 4394   5.228   1.238   4.986
 1484TIP3    H1 4395   5.176   1.295   5.042
 1484TIP3    H2 4396   5.172   1.222   4.910
 1485TIP3   OH2 4397   4.202   3.145   4.953
 1485TIP3    H1 4398   4.213   3.148   4.857
 1485TIP3    H2 4399   4.144   3.218   4.973
 1486TIP3   OH2 4400   1.359   3.442   1.058
 1486TIP3    H1 4401   1.292   3.378   1.080
 1486TIP3    H2 4402   1.403   3.460   1.141
 1487TIP3   OH2 4403   2.745   1.758   4.428
 1487TIP3    H1 4404   2.663   1.774   4.381
 1487TIP3    H2 4405   2.807   1.731   4.360
 1488TIP3   OH2 4406   7.363   2.114   6.031
 1488TIP3    H1 4407   7.350   2.192   5.977
 1488TIP3    H2 4408   7.458   2.099   6.029
 1489TIP3   OH2 4409   1.943   4.031   6.555
 1489TIP3    H1 4410   2.032   4.050   6.583
 1489TIP3    H2 4411   1.944   4.041   6.460
 1490TIP3   OH2 4412   4.955   5.333   6.374
 1490TIP3    H1 4413   4.957   5.238   6.383
 1490TIP3    H2 4414   5.047   5.359   6.369
 1491TIP3   OH2 4415   3.264   0.703   1.103
 1491TIP3    H1 4416   3.208   0.690   1.026
 1491TIP3    H2 4417   3.353   0.701   1.069
 1492TIP3   OH2 4418   4.944   2.688   3.929
 1492TIP3    H1 4419   4.990   2.615   3.887
 1492TIP3    H2 4420   4.865   2.648   3.967
 1493TIP3   OH2 4421   2.988   6.211   5.127
 1493TIP3    H1 4422   3.027   6.269   5.191
 1493TIP3    H2 4423   3.058   6.151   5.101
 1494TIP3   OH2 4424   5.216   2.096   1.866
 1494TIP3    H1 4425   5.164   2.176   1.853
 1494TIP3    H2 4426   5.303   2.120   1.836
 1495TIP3   OH2 4427   2.129   3.562   2.699
 1495TIP3    H1 4428   2.186   3.597   2.767
 1495TIP3    H2 4429   2.160   3.473   2.685
 1496TIP3   OH2 4430   4.746   3.009   2.437
 1496TIP3    H1 4431   4.746   2.990   2.531
 1496TIP3    H2 4432   4.683   3.081   2.427
 1497TIP3   OH2 4433   4.164   4.476   5.619
 1497TIP3    H1 4434   4.135   4.393   5.581
 1497TIP3    H2 4435   4.129   4.543   5.559
 1498TIP3   OH2 4436   5.858   4.143   1.373
 1498TIP3    H1 4437   5.891   4.150   1.283
 1498TIP3    H2 4438   5.925   4.092   1.418
 1499TIP3   OH2 4439   3.496   3.852   4.908
 1499TIP3    H1 4440   3.421   3.876   4.854
 1499TIP3    H2 4441   3.459   3.796   4.977
 1500TIP3   OH2 4442   1.652   6.112   6.515
 1500TIP3    H1 4443   1.730   6.166   6.508
 1500TIP3    H2 4444   1.588   6.167   6.558
 1501TIP3   OH2 4445   6.840   5.295   5.679
 1501TIP3    H1 4446   6.764   5.326   5.729
 1501TIP3    H2 4447   6.915   5.339   5.720
 1502TIP3   OH2 4448   4.211   5.979   2.958
 1502TIP3    H1 4449   4.174   6.067   2.964
 1502TIP3    H2 4450   4.175   5.933   3.034
 1503TIP3   OH2 4451   3.076   6.233   1.571
 1503TIP3    H1 4452   3.010   6.186   1.622
 1503TIP3    H2 4453   3.154   6.232   1.626
 1504TIP3   OH2 4454   5.273   0.030   0.396
 1504TIP3    H1 4455   5.262  -0.002   0.485
 1504TIP3    H2 4456   5.193   0.002   0.350
 1505TIP3   OH2 4457   5.352   5.014   5.016
 1505TIP3    H1 4458   5.348   4.938   4.958
 1505TIP3    H2 4459   5.306   4.986   5.096
 1506TIP3   OH2 4460   3.612   2.856   5.430
 1506TIP3    H1 4461   3.618   2.952   5.425
 1506TIP3    H2 4462   3.536   2.835   5.375
 1507TIP3   OH2 4463   5.249   1.722   6.685
 1507TIP3    H1 4464   5.164   1.681   6.699
 1507TIP3    H2 4465   5.259   1.726   6.590
 1508TIP3   OH2 4466   4.740   4.979   6.685
 1508TIP3    H1 4467   4.660   5.000   6.733
 1508TIP3    H2 4468   4.759   5.059   6.636
 1509TIP3   OH2 4469   5.803   1.110   5.921
 1509TIP3    H1 4470   5.729   1.158   5.884
 1509TIP3    H2 4471   5.876   1.173   5.918
 1510TIP3   OH2 4472   7.641   5.287   2.390
 1510TIP3    H1 4473   7.610   5.282   2.480
 1510TIP3    H2 4474   7.628   5.379   2.365
 1511TIP3   OH2 4475   5.287   6.032   6.127
 1511TIP3    H1 4476   5.345   5.997   6.059
 1511TIP3    H2 4477   5.347   6.073   6.190
 1512TIP3   OH2 4478   0.842   3.260   1.933
 1512TIP3    H1 4479   0.819   3.251   2.026
 1512TIP3    H2 4480   0.867   3.172   1.906
 1513TIP3   OH2 4481   0.444   5.607   3.275
 1513TIP3    H1 4482   0.461   5.699   3.254
 1513TIP3    H2 4483   0.349   5.602   3.284
 1514TIP3   OH2 4484   1.905   6.056   2.749
 1514TIP3    H1 4485   1.938   6.057   2.659
 1514TIP3    H2 4486   1.829   6.115   2.748
 1515TIP3   OH2 4487   3.925   1.961   4.912
 1515TIP3    H1 4488   3.966   2.036   4.956
 1515TIP3    H2 4489   3.958   1.966   4.822
 1516TIP3   OH2 4490   5.320   1.067   3.953
 1516TIP3    H1 4491   5.304   1.015   4.032
 1516TIP3    H2 4492   5.299   1.157   3.979
 1517TIP3   OH2 4493   7.746   4.795   4.049
 1517TIP3    H1 4494   7.815   4.823   4.109
 1517TIP3    H2 4495   7.745   4.860   3.980
 1518TIP3   OH2 4496   0.491   7.073   3.561
 1518TIP3    H1 4497   0.453   7.088   3.647
 1518TIP3    H2 4498   0.531   7.157   3.536
 1519TIP3   OH2 4499   0.186   3.855   5.592
 1519TIP3    H1 4500   0.129   3.820   5.523
 1519TIP3    H2 4501   0.222   3.935   5.555
 1520TIP3   OH2 4502   1.356   3.324   4.106
 1520TIP3    H1 4503   1.286   3.297   4.046
 1520TIP3    H2 4504   1.321   3.305   4.193
 1521TIP3   OH2 4505   3.810   3.481   5.506
 1521TIP3    H1 4506   3.734   3.527   5.543
 1521TIP3    H2 4507   3.883   3.508   5.560
 1522TIP3   OH2 4508   4.535   1.648   1.092
 1522TIP3    H1 4509   4.623   1.624   1.121
 1522TIP3    H2 4510   4.509   1.576   1.034
 1523TIP3   OH2 4511   3.907   3.216   2.534
 1523TIP3    H1 4512   3.925   3.152   2.603
 1523TIP3    H2 4513   3.963   3.290   2.556
 1524TIP3   OH2 4514   7.984   4.039   1.248
 1524TIP3    H1 4515   7.928   4.060   1.173
 1524TIP3    H2 4516   8.073   4.053   1.216
 1525TIP3   OH2 4517   4.793   0.030   1.229
 1525TIP3    H1 4518   4.863   0.092   1.210
 1525TIP3    H2 4519   4.837  -0.042   1.275
 1526TIP3   OH2 4520   1.676   4.562   5.549
 1526TIP3    H1 4521   1.626   4.483   5.568
 1526TIP3    H2 4522   1.610   4.626   5.521
 1527TIP3   OH2 4523   5.521   1.829   6.325
 1527TIP3    H1 4524   5.528   1.844   6.231
 1527TIP3    H2 4525   5.590   1.884   6.363
 1528TIP3   OH2 4526   0.071   3.121   6.418
 1528TIP3    H1 4527  -0.023   3.105   6.428
 1528TIP3    H2 4528   0.109   3.035   6.402
 1529TIP3   OH2 4529   7.139   1.130   1.550
 1529TIP3    H1 4530   7.209   1.159   1.491
 1529TIP3    H2 4531   7.097   1.058   1.503
 1530TIP3   OH2 4532   8.046   1.870   1.193
 1530TIP3    H1 4533   8.025   1.960   1.217
 1530TIP3    H2 4534   8.043   1.870   1.097
 1531TIP3   OH2 4535   6.504   4.682   6.383
 1531TIP3    H1 4536   6.440   4.628   6.429
 1531TIP3    H2 4537   6.561   4.716   6.452
 1532TIP3   OH2 4538   6.788   2.375   5.421
 1532TIP3    H1 4539   6.759   2.459   5.458
 1532TIP3    H2 4540   6.736   2.366   5.341
 1533TIP3   OH2 4541   7.576   7.768   3.846
 1533TIP3    H1 4542   7.662   7.798   3.876
 1533TIP3    H2 4543   7.514   7.826   3.890
 1534TIP3   OH2 4544   0.592   6.633   5.488
 1534TIP3    H1 4545   0.682   6.647   5.458
 1534TIP3    H2 4546   0.544   6.710   5.457
 1535TIP3   OH2 4547   4.783   6.625   6.478
 1535TIP3    H1 4548   4.712   6.587   6.531
 1535TIP3    H2 4549   4.862   6.610   6.530
 1536TIP3   OH2 4550   5.592   5.496   6.011
 1536TIP3    H1 4551   5.530   5.527   6.077
 1536TIP3    H2 4552   5.673   5.481   6.059
 1537TIP3   OH2 4553   4.139   5.026   5.899
 1537TIP3    H1 4554   4.096   4.953   5.855
 1537TIP3    H2 4555   4.114   5.017   5.991
 1538TIP3   OH2 4556   4.967   6.765   5.139
 1538TIP3    H1 4557   5.003   6.679   5.156
 1538TIP3    H2 4558   4.897   6.775   5.203
 1539TIP3   OH2 4559   2.280   4.845   6.476
 1539TIP3    H1 4560   2.336   4.769   6.466
 1539TIP3    H2 4561   2.266   4.876   6.386
 1540TIP3   OH2 4562   0.278   7.252   6.297
 1540TIP3    H1 4563   0.363   7.208   6.293
 1540TIP3    H2 4564   0.258   7.273   6.206
 1541TIP3   OH2 4565   7.751   3.758   1.034
 1541TIP3    H1 4566   7.677   3.701   1.053
 1541TIP3    H2 4567   7.720   3.845   1.057
 1542TIP3   OH2 4568   1.965   3.410   3.019
 1542TIP3    H1 4569   1.946   3.358   2.941
 1542TIP3    H2 4570   1.959   3.501   2.990
 1543TIP3   OH2 4571   7.834   6.006   0.600
 1543TIP3    H1 4572   7.753   6.013   0.549
 1543TIP3    H2 4573   7.820   5.931   0.658
 1544TIP3   OH2 4574   7.583   6.828   1.488
 1544TIP3    H1 4575   7.605   6.735   1.491
 1544TIP3    H2 4576   7.500   6.832   1.441
 1545TIP3   OH2 4577   4.979   5.749   4.284
 1545TIP3    H1 4578   5.073   5.763   4.267
 1545TIP3    H2 4579   4.970   5.654   4.289
 1546TIP3   OH2 4580   3.908   7.089   4.035
 1546TIP3    H1 4581   3.999   7.074   4.009
 1546TIP3    H2 4582   3.907   7.072   4.129
 1547TIP3   OH2 4583   7.376   5.546   3.574
 1547TIP3    H1 4584   7.462   5.533   3.614
 1547TIP3    H2 4585   7.394   5.556   3.481
 1548TIP3   OH2 4586   2.763   4.272   5.560
 1548TIP3    H1 4587   2.769   4.210   5.488
 1548TIP3    H2 4588   2.735   4.219   5.635
 1549TIP3   OH2 4589   3.183   3.092   0.735
 1549TIP3    H1 4590   3.130   3.012   0.726
 1549TIP3    H2 4591   3.244   3.072   0.805
 1550TIP3   OH2 4592   7.798   1.986   3.546
 1550TIP3    H1 4593   7.795   2.081   3.535
 1550TIP3    H2 4594   7.739   1.953   3.478
 1551TIP3   OH2 4595   1.971   0.973   3.894
 1551TIP3    H1 4596   1.994   1.066   3.895
 1551TIP3    H2 4597   1.997   0.943   3.807
 1552TIP3   OH2 4598   2.565   0.921   5.344
 1552TIP3    H1 4599   2.497   0.941   5.408
 1552TIP3    H2 4600   2.576   1.002   5.294
 1553TIP3   OH2 4601   5.435   6.395   1.006
 1553TIP3    H1 4602   5.480   6.312   0.989
 1553TIP3    H2 4603   5.460   6.418   1.096
 1554TIP3   OH2 4604   3.175   6.039   3.674
 1554TIP3    H1 4605   3.095   6.091   3.687
 1554TIP3    H2 4606   3.167   6.006   3.584
 1555TIP3   OH2 4607   3.611   6.516   0.767
 1555TIP3    H1 4608   3.658   6.556   0.693
 1555TIP3    H2 4609   3.555   6.585   0.800
 1556TIP3   OH2 4610   1.949   2.368   6.227
 1556TIP3    H1 4611   1.958   2.294   6.166
 1556TIP3    H2 4612   1.971   2.445   6.174
 1557TIP3   OH2 4613   6.270   7.154   3.982
 1557TIP3    H1 4614   6.335   7.140   4.051
 1557TIP3    H2 4615   6.243   7.245   3.993
 1558TIP3   OH2 4616   4.413   6.489   4.107
 1558TIP3    H1 4617   4.379   6.484   4.196
 1558TIP3    H2 4618   4.508   6.474   4.116
 1559TIP3   OH2 4619   0.483   1.936   0.571
 1559TIP3    H1 4620   0.440   1.851   0.561
 1559TIP3    H2 4621   0.548   1.923   0.640
 1560TIP3   OH2 4622   4.893   7.009   3.635
 1560TIP3    H1 4623   4.876   7.040   3.546
 1560TIP3    H2 4624   4.988   7.010   3.643
 1561TIP3   OH2 4625   3.856   5.788   3.924
 1561TIP3    H1 4626   3.925   5.723   3.910
 1561TIP3    H2 4627   3.785   5.738   3.965
 1562TIP3   OH2 4628   6.967   2.418   4.129
 1562TIP3    H1 4629   6.879   2.444   4.155
 1562TIP3    H2 4630   6.964   2.322   4.126
 1563TIP3   OH2 4631   3.380   4.155   5.132
 1563TIP3    H1 4632   3.454   4.157   5.072
 1563TIP3    H2 4633   3.415   4.186   5.215
 1564TIP3   OH2 4634   5.475   3.080   5.249
 1564TIP3    H1 4635   5.452   3.031   5.328
 1564TIP3    H2 4636   5.445   3.026   5.177
 1565TIP3   OH2 4637   8.021   1.190   2.126
 1565TIP3    H1 4638   8.055   1.194   2.037
 1565TIP3    H2 4639   7.986   1.101   2.134
 1566TIP3   OH2 4640   2.249   2.634   5.714
 1566TIP3    H1 4641   2.259   2.574   5.787
 1566TIP3    H2 4642   2.176   2.691   5.739
 1567TIP3   OH2 4643   1.831   4.065   4.521
 1567TIP3    H1 4644   1.859   4.068   4.429
 1567TIP3    H2 4645   1.893   4.006   4.563
 1568TIP3   OH2 4646   1.784   7.310   0.555
 1568TIP3    H1 4647   1.765   7.393   0.511
 1568TIP3    H2 4648   1.713   7.252   0.529
 1569TIP3   OH2 4649   7.844   6.147   0.284
 1569TIP3    H1 4650   7.862   6.192   0.201
 1569TIP3    H2 4651   7.818   6.059   0.259
 1570TIP3   OH2 4652   5.328   5.448   4.187
 1570TIP3    H1 4653   5.351   5.512   4.119
 1570TIP3    H2 4654   5.360   5.365   4.153
 1571TIP3   OH2 4655   0.292   0.461   2.878
 1571TIP3    H1 4656   0.197   0.467   2.872
 1571TIP3    H2 4657   0.312   0.374   2.843
 1572TIP3   OH2 4658   5.967   2.150   0.797
 1572TIP3    H1 4659   5.992   2.061   0.823
 1572TIP3    H2 4660   5.926   2.139   0.711
 1573TIP3   OH2 4661   5.413   5.966   0.416
 1573TIP3    H1 4662   5.423   5.891   0.475
 1573TIP3    H2 4663   5.357   6.027   0.463
 1574TIP3   OH2 4664   1.414   0.235   4.535
 1574TIP3    H1 4665   1.358   0.222   4.611
 1574TIP3    H2 4666   1.473   0.306   4.561
 1575TIP3   OH2 4667   1.915   6.736   4.118
 1575TIP3    H1 4668   1.885   6.775   4.200
 1575TIP3    H2 4669   1.975   6.666   4.143
 1576TIP3   OH2 4670   2.652   7.046   2.672
 1576TIP3    H1 4671   2.683   7.031   2.761
 1576TIP3    H2 4672   2.635   7.140   2.668
 1577TIP3   OH2 4673   3.276   1.560   0.779
 1577TIP3    H1 4674   3.197   1.517   0.813
 1577TIP3    H2 4675   3.243   1.639   0.735
 1578TIP3   OH2 4676   4.214   1.843   1.867
 1578TIP3    H1 4677   4.230   1.765   1.920
 1578TIP3    H2 4678   4.206   1.914   1.931
 1579TIP3   OH2 4679   5.244   3.182   6.090
 1579TIP3    H1 4680   5.320   3.126   6.072
 1579TIP3    H2 4681   5.188   3.172   6.013
 1580TIP3   OH2 4682   3.217   0.535   0.151
 1580TIP3    H1 4683   3.213   0.551   0.246
 1580TIP3    H2 4684   3.225   0.622   0.112
 1581TIP3   OH2 4685   5.411   6.985   6.428
 1581TIP3    H1 4686   5.354   7.046   6.475
 1581TIP3    H2 4687   5.358   6.907   6.415
 1582TIP3   OH2 4688   1.435   5.679   6.141
 1582TIP3    H1 4689   1.469   5.707   6.226
 1582TIP3    H2 4690   1.379   5.604   6.161
 1583TIP3   OH2 4691   7.714   6.230   2.746
 1583TIP3    H1 4692   7.678   6.313   2.780
 1583TIP3    H2 4693   7.709   6.239   2.651
 1584TIP3   OH2 4694   1.802   3.245   5.422
 1584TIP3    H1 4695   1.808   3.167   5.368
 1584TIP3    H2 4696   1.848   3.222   5.503
 1585TIP3   OH2 4697   4.309   0.649   3.617
 1585TIP3    H1 4698   4.250   0.592   3.567
 1585TIP3    H2 4699   4.396   0.626   3.586
 1586TIP3   OH2 4700   4.253   7.222   1.506
 1586TIP3    H1 4701   4.307   7.175   1.443
 1586TIP3    H2 4702   4.242   7.161   1.579
 1587TIP3   OH2 4703   0.935   6.454   3.369
 1587TIP3    H1 4704   0.894   6.398   3.304
 1587TIP3    H2 4705   0.869   6.465   3.438
 1588TIP3   OH2 4706   8.201   4.851   6.477
 1588TIP3    H1 4707   8.254   4.895   6.411
 1588TIP3    H2 4708   8.116   4.836   6.434
 1589TIP3   OH2 4709   2.359   3.655   3.205
 1589TIP3    H1 4710   2.391   3.601   3.277
 1589TIP3    H2 4711   2.302   3.719   3.246
 1590TIP3   OH2 4712   5.378   5.248   1.281
 1590TIP3    H1 4713   5.433   5.229   1.357
 1590TIP3    H2 4714   5.301   5.292   1.318
 1591TIP3   OH2 4715   2.906   6.384   1.789
 1591TIP3    H1 4716   2.871   6.465   1.752
 1591TIP3    H2 4717   2.852   6.315   1.750
 1592TIP3   OH2 4718   0.387   2.856   5.357
 1592TIP3    H1 4719   0.477   2.866   5.325
 1592TIP3    H2 4720   0.341   2.934   5.325
 1593TIP3   OH2 4721   4.067   0.090   3.224
 1593TIP3    H1 4722   4.155   0.060   3.247
 1593TIP3    H2 4723   4.081   0.160   3.161
 1594TIP3   OH2 4724   5.951   1.315   2.945
 1594TIP3    H1 4725   5.952   1.366   2.864
 1594TIP3    H2 4726   5.859   1.289   2.957
 1595TIP3   OH2 4727   7.433   5.074   6.267
 1595TIP3    H1 4728   7.347   5.033   6.278
 1595TIP3    H2 4729   7.414   5.167   6.252
 1596TIP3   OH2 4730   5.664   5.432   0.975
 1596TIP3    H1 4731   5.741   5.428   1.032
 1596TIP3    H2 4732   5.694   5.398   0.891
 1597TIP3   OH2 4733   6.941   5.648   0.986
 1597TIP3    H1 4734   6.898   5.652   1.072
 1597TIP3    H2 4735   6.911   5.565   0.949
 1598TIP3   OH2 4736   7.229   6.171   3.596
 1598TIP3    H1 4737   7.166   6.128   3.538
 1598TIP3    H2 4738   7.249   6.254   3.552
 1599TIP3   OH2 4739   1.462   6.829   3.739
 1599TIP3    H1 4740   1.546   6.794   3.709
 1599TIP3    H2 4741   1.398   6.795   3.676
 1600TIP3   OH2 4742   5.261   7.499   2.990
 1600TIP3    H1 4743   5.251   7.522   3.082
 1600TIP3    H2 4744   5.331   7.433   2.989
 1601TIP3   OH2 4745   0.251   2.831   5.646
 1601TIP3    H1 4746   0.343   2.806   5.638
 1601TIP3    H2 4747   0.242   2.910   5.592
 1602TIP3   OH2 4748   4.602   1.892   4.563
 1602TIP3    H1 4749   4.689   1.856   4.545
 1602TIP3    H2 4750   4.546   1.855   4.495
 1603TIP3   OH2 4751   2.295   7.268   1.364
 1603TIP3    H1 4752   2.248   7.342   1.325
 1603TIP3    H2 4753   2.266   7.192   1.315
 1604TIP3   OH2 4754   0.527   4.691   3.338
 1604TIP3    H1 4755   0.561   4.747   3.269
 1604TIP3    H2 4756   0.590   4.619   3.343
 1605TIP3   OH2 4757   2.847   3.954   4.256
 1605TIP3    H1 4758   2.862   3.864   4.227
 1605TIP3    H2 4759   2.814   3.945   4.346
 1606TIP3   OH2 4760   2.866   5.410   1.215
 1606TIP3    H1 4761   2.807   5.466   1.163
 1606TIP3    H2 4762   2.811   5.379   1.287
 1607TIP3   OH2 4763   8.262   3.443   2.538
 1607TIP3    H1 4764   8.179   3.481   2.511
 1607TIP3    H2 4765   8.251   3.425   2.632
 1608TIP3   OH2 4766   1.415   4.701   6.275
 1608TIP3    H1 4767   1.337   4.657   6.240
 1608TIP3    H2 4768   1.431   4.656   6.358
 1609TIP3   OH2 4769   4.039   4.873   2.110
 1609TIP3    H1 4770   4.100   4.802   2.132
 1609TIP3    H2 4771   3.954   4.830   2.105
 1610TIP3   OH2 4772   4.392   1.830   4.159
 1610TIP3    H1 4773   4.319   1.878   4.121
 1610TIP3    H2 4774   4.469   1.882   4.138
 1611TIP3   OH2 4775   5.772   5.044   3.499
 1611TIP3    H1 4776   5.850   5.064   3.448
 1611TIP3    H2 4777   5.755   4.951   3.482
 1612TIP3   OH2 4778   0.696   5.808   3.834
 1612TIP3    H1 4779   0.715   5.736   3.895
 1612TIP3    H2 4780   0.756   5.793   3.761
 1613TIP3   OH2 4781   6.717   2.613   5.869
 1613TIP3    H1 4782   6.765   2.651   5.943
 1613TIP3    H2 4783   6.634   2.660   5.868
 1614TIP3   OH2 4784   0.058   5.181   0.285
 1614TIP3    H1 4785  -0.015   5.121   0.299
 1614TIP3    H2 4786   0.135   5.133   0.317
 1615TIP3   OH2 4787   2.148   2.115   0.911
 1615TIP3    H1 4788   2.120   2.051   0.845
 1615TIP3    H2 4789   2.149   2.198   0.864
 1616TIP3   OH2 4790   1.532   5.288   1.519
 1616TIP3    H1 4791   1.550   5.367   1.468
 1616TIP3    H2 4792   1.597   5.290   1.590
 1617TIP3   OH2 4793   5.329   4.046   0.452
 1617TIP3    H1 4794   5.376   3.996   0.518
 1617TIP3    H2 4795   5.397   4.084   0.397
 1618TIP3   OH2 4796   7.237   2.376   0.345
 1618TIP3    H1 4797   7.311   2.315   0.337
 1618TIP3    H2 4798   7.199   2.379   0.257
 1619TIP3   OH2 4799   7.400   0.139   4.541
 1619TIP3    H1 4800   7.403   0.066   4.602
 1619TIP3    H2 4801   7.491   0.152   4.514
 1620TIP3   OH2 4802   2.034   7.608   0.982
 1620TIP3    H1 4803   2.115   7.576   1.023
 1620TIP3    H2 4804   2.007   7.682   1.036
 1621TIP3   OH2 4805   5.803   2.791   5.074
 1621TIP3    H1 4806   5.874   2.734   5.045
 1621TIP3    H2 4807   5.744   2.734   5.123
 1622TIP3   OH2 4808   0.313   1.486   2.877
 1622TIP3    H1 4809   0.226   1.520   2.897
 1622TIP3    H2 4810   0.364   1.504   2.956
 1623TIP3   OH2 4811   0.705   0.676   5.411
 1623TIP3    H1 4812   0.798   0.683   5.434
 1623TIP3    H2 4813   0.664   0.641   5.490
 1624TIP3   OH2 4814   6.405   3.271   5.034
 1624TIP3    H1 4815   6.415   3.235   5.122
 1624TIP3    H2 4816   6.495   3.285   5.003
 1625TIP3   OH2 4817   6.730   6.325   0.852
 1625TIP3    H1 4818   6.696   6.389   0.914
 1625TIP3    H2 4819   6.660   6.260   0.843
 1626TIP3   OH2 4820   3.601   5.076   5.097
 1626TIP3    H1 4821   3.542   5.140   5.056
 1626TIP3    H2 4822   3.547   4.999   5.111
 1627TIP3   OH2 4823   5.450   2.251   5.921
 1627TIP3    H1 4824   5.530   2.259   5.971
 1627TIP3    H2 4825   5.462   2.173   5.867
 1628TIP3   OH2 4826   2.753   0.132   3.162
 1628TIP3    H1 4827   2.775   0.200   3.226
 1628TIP3    H2 4828   2.684   0.081   3.204
 1629TIP3   OH2 4829   0.627   2.410   5.079
 1629TIP3    H1 4830   0.689   2.474   5.045
 1629TIP3    H2 4831   0.671   2.326   5.069
 1630TIP3   OH2 4832   2.948   2.550   1.829
 1630TIP3    H1 4833   2.996   2.517   1.753
 1630TIP3    H2 4834   2.857   2.528   1.811
 1631TIP3   OH2 4835   0.326   1.076   1.218
 1631TIP3    H1 4836   0.386   1.011   1.181
 1631TIP3    H2 4837   0.294   1.126   1.143
 1632TIP3   OH2 4838   7.501   1.678   0.873
 1632TIP3    H1 4839   7.591   1.698   0.900
 1632TIP3    H2 4840   7.448   1.748   0.910
 1633TIP3   OH2 4841   2.971   6.909   0.584
 1633TIP3    H1 4842   3.059   6.877   0.567
 1633TIP3    H2 4843   2.914   6.848   0.536
 1634TIP3   OH2 4844   0.213   6.692   3.191
 1634TIP3    H1 4845   0.242   6.603   3.210
 1634TIP3    H2 4846   0.118   6.687   3.191
 1635TIP3   OH2 4847   3.228   1.352   1.123
 1635TIP3    H1 4848   3.216   1.278   1.182
 1635TIP3    H2 4849   3.293   1.408   1.166
 1636TIP3   OH2 4850   6.055   1.557   4.535
 1636TIP3    H1 4851   6.057   1.470   4.576
 1636TIP3    H2 4852   5.968   1.563   4.497
 1637TIP3   OH2 4853   8.238   5.245   2.660
 1637TIP3    H1 4854   8.253   5.332   2.624
 1637TIP3    H2 4855   8.326   5.212   2.680
 1638TIP3   OH2 4856   2.565   1.853   3.874
 1638TIP3    H1 4857   2.532   1.805   3.798
 1638TIP3    H2 4858   2.635   1.798   3.909
 1639TIP3   OH2 4859   3.947   0.064   0.375
 1639TIP3    H1 4860   3.861   0.040   0.410
 1639TIP3    H2 4861   3.943   0.038   0.283
 1640TIP3   OH2 4862   2.404   1.355   5.451
 1640TIP3    H1 4863   2.369   1.406   5.378
 1640TIP3    H2 4864   2.424   1.419   5.519
 1641TIP3   OH2 4865   3.926   0.169   3.885
 1641TIP3    H1 4866   3.898   0.238   3.945
 1641TIP3    H2 4867   4.009   0.137   3.922
 1642TIP3   OH2 4868   6.351   0.488   3.957
 1642TIP3    H1 4869   6.298   0.413   3.983
 1642TIP3    H2 4870   6.434   0.477   4.003
 1643TIP3   OH2 4871   3.343   1.021   0.987
 1643TIP3    H1 4872   3.324   1.078   0.912
 1643TIP3    H2 4873   3.256   0.999   1.023
 1644TIP3   OH2 4874   5.393   5.856   5.773
 1644TIP3    H1 4875   5.449   5.900   5.836
 1644TIP3    H2 4876   5.440   5.775   5.751
 1645TIP3   OH2 4877   1.976   0.128   4.110
 1645TIP3    H1 4878   1.928   0.210   4.095
 1645TIP3    H2 4879   1.909   0.064   4.132
 1646TIP3   OH2 4880   7.602   3.407   3.562
 1646TIP3    H1 4881   7.577   3.455   3.641
 1646TIP3    H2 4882   7.550   3.447   3.493
 1647TIP3   OH2 4883   7.362   1.874   3.256
 1647TIP3    H1 4884   7.391   1.866   3.166
 1647TIP3    H2 4885   7.268   1.887   3.250
 1648TIP3   OH2 4886   0.077   6.442   3.590
 1648TIP3    H1 4887   0.139   6.456   3.662
 1648TIP3    H2 4888  -0.005   6.419   3.634
 1649TIP3   OH2 4889   7.663   6.530   1.596
 1649TIP3    H1 4890   7.602   6.539   1.669
 1649TIP3    H2 4891   7.743   6.573   1.625
 1650TIP3   OH2 4892   4.553   1.490   0.561
 1650TIP3    H1 4893   4.542   1.397   0.539
 1650TIP3    H2 4894   4.465   1.527   0.552
 1651TIP3   OH2 4895   7.311   0.768   3.614
 1651TIP3    H1 4896   7.243   0.708   3.585
 1651TIP3    H2 4897   7.267   0.853   3.623
 1652TIP3   OH2 4898   0.064   5.667   5.188
 1652TIP3    H1 4899   0.151   5.679   5.227
 1652TIP3    H2 4900   0.030   5.756   5.178
 1653TIP3   OH2 4901   7.754   4.479   0.465
 1653TIP3    H1 4902   7.678   4.536   0.477
 1653TIP3    H2 4903   7.719   4.390   0.476
 1654TIP3   OH2 4904   4.434   6.060   4.305
 1654TIP3    H1 4905   4.348   6.062   4.263
 1654TIP3    H2 4906   4.425   6.118   4.381
 1655TIP3   OH2 4907   5.872   6.667   5.516
 1655TIP3    H1 4908   5.943   6.606   5.495
 1655TIP3    H2 4909   5.865   6.662   5.612
 1656TIP3   OH2 4910   5.516   6.724   0.782
 1656TIP3    H1 4911   5.552   6.807   0.750
 1656TIP3    H2 4912   5.474   6.746   0.865
 1657TIP3   OH2 4913   5.130   4.554   0.471
 1657TIP3    H1 4914   5.035   4.557   0.484
 1657TIP3    H2 4915   5.143   4.481   0.410
 1658TIP3   OH2 4916   2.941   0.097   6.350
 1658TIP3    H1 4917   2.909   0.010   6.374
 1658TIP3    H2 4918   2.936   0.147   6.431
 1659TIP3   OH2 4919   0.573   6.116   5.083
 1659TIP3    H1 4920   0.477   6.114   5.083
 1659TIP3    H2 4921   0.595   6.167   5.161
 1660TIP3   OH2 4922   7.064   0.404   3.150
 1660TIP3    H1 4923   7.058   0.326   3.094
 1660TIP3    H2 4924   7.140   0.387   3.206
 1661TIP3   OH2 4925   2.113   0.553   6.126
 1661TIP3    H1 4926   2.123   0.555   6.221
 1661TIP3    H2 4927   2.019   0.558   6.112
 1662TIP3   OH2 4928   4.948   6.651   0.862
 1662TIP3    H1 4929   4.924   6.623   0.950
 1662TIP3    H2 4930   5.006   6.583   0.829
 1663TIP3   OH2 4931   4.154   3.544   2.110
 1663TIP3    H1 4932   4.233   3.517   2.064
 1663TIP3    H2 4933   4.095   3.469   2.101
 1664TIP3   OH2 4934   2.463   4.662   5.482
 1664TIP3    H1 4935   2.396   4.640   5.547
 1664TIP3    H2 4936   2.523   4.588   5.483
 1665TIP3   OH2 4937   0.372   5.266   4.493
 1665TIP3    H1 4938   0.380   5.360   4.476
 1665TIP3    H2 4939   0.313   5.234   4.425
 1666TIP3   OH2 4940   3.712   3.097   1.481
 1666TIP3    H1 4941   3.684   3.186   1.462
 1666TIP3    H2 4942   3.807   3.099   1.473
 1667TIP3   OH2 4943   6.413   6.071   0.358
 1667TIP3    H1 4944   6.481   6.112   0.305
 1667TIP3    H2 4945   6.346   6.043   0.296
 1668TIP3   OH2 4946   6.237   2.080   2.958
 1668TIP3    H1 4947   6.147   2.046   2.957
 1668TIP3    H2 4948   6.289   2.010   2.998
 1669TIP3   OH2 4949   8.049   2.352   0.363
 1669TIP3    H1 4950   8.095   2.408   0.300
 1669TIP3    H2 4951   8.118   2.305   0.408
 1670TIP3   OH2 4952   8.210   0.611   3.116
 1670TIP3    H1 4953   8.246   0.568   3.194
 1670TIP3    H2 4954   8.217   0.544   3.048
 1671TIP3   OH2 4955   3.254   6.695   4.956
 1671TIP3    H1 4956   3.201   6.711   4.879
 1671TIP3    H2 4957   3.298   6.778   4.973
 1672TIP3   OH2 4958   3.692   0.409   0.132
 1672TIP3    H1 4959   3.642   0.327   0.129
 1672TIP3    H2 4960   3.784   0.382   0.124
 1673TIP3   OH2 4961   8.327   3.192   4.886
 1673TIP3    H1 4962   8.251   3.223   4.934
 1673TIP3    H2 4963   8.297   3.111   4.844
 1674TIP3   OH2 4964   4.002   2.591   4.933
 1674TIP3    H1 4965   3.917   2.560   4.900
 1674TIP3    H2 4966   4.066   2.551   4.874
 1675TIP3   OH2 4967   2.062   6.692   3.878
 1675TIP3    H1 4968   1.996   6.692   3.948
 1675TIP3    H2 4969   2.127   6.756   3.907
 1676TIP3   OH2 4970   6.934   5.218   1.566
 1676TIP3    H1 4971   6.867   5.215   1.498
 1676TIP3    H2 4972   6.891   5.182   1.644
 1677TIP3   OH2 4973   5.556   2.507   0.465
 1677TIP3    H1 4974   5.625   2.476   0.407
 1677TIP3    H2 4975   5.545   2.599   0.442
 1678TIP3   OH2 4976   2.061   2.724   3.536
 1678TIP3    H1 4977   2.062   2.800   3.477
 1678TIP3    H2 4978   2.025   2.758   3.618
 1679TIP3   OH2 4979   2.409   6.845   5.157
 1679TIP3    H1 4980   2.490   6.796   5.147
 1679TIP3    H2 4981   2.363   6.802   5.229
 1680TIP3   OH2 4982   7.003   7.677  -0.005
 1680TIP3    H1 4983   6.923   7.717  -0.039
 1680TIP3    H2 4984   7.056   7.751   0.024
 1681TIP3   OH2 4985   1.455   1.017   1.737
 1681TIP3    H1 4986   1.536   0.986   1.777
 1681TIP3    H2 4987   1.482   1.086   1.676
 1682TIP3   OH2 4988   7.938   7.730   5.332
 1682TIP3    H1 4989   7.874   7.702   5.398
 1682TIP3    H2 4990   7.897   7.804   5.289
 1683TIP3   OH2 4991   1.244   3.340   5.172
 1683TIP3    H1 4992   1.178   3.393   5.217
 1683TIP3    H2 4993   1.298   3.403   5.124
 1684TIP3   OH2 4994   4.410   6.745   5.820
 1684TIP3    H1 4995   4.504   6.732   5.808
 1684TIP3    H2 4996   4.400   6.840   5.828
 1685TIP3   OH2 4997   5.635   4.801   1.526
 1685TIP3    H1 4998   5.721   4.759   1.527
 1685TIP3    H2 4999   5.594   4.773   1.608
 1686TIP3   OH2 5000   4.351   7.637   5.715
 1686TIP3    H1 5001   4.424   7.667   5.661
 1686TIP3    H2 5002   4.351   7.542   5.705
 1687TIP3   OH2 5003   4.025   7.747   3.415
 1687TIP3    H1 5004   3.933   7.748   3.443
 1687TIP3    H2 5005   4.046   7.838   3.397
 1688TIP3   OH2 5006   7.459   5.493   0.386
 1688TIP3    H1 5007   7.454   5.564   0.323
 1688TIP3    H2 5008   7.389   5.433   0.359
 1689TIP3   OH2 5009   2.467   4.870   4.841
 1689TIP3    H1 5010   2.526   4.920   4.898
 1689TIP3    H2 5011   2.390   4.853   4.895
 1690TIP3   OH2 5012   6.100   0.990   2.017
 1690TIP3    H1 5013   6.129   1.076   1.985
 1690TIP3    H2 5014   6.005   0.993   2.009
 1691TIP3   OH2 5015   7.398   7.147   1.530
 1691TIP3    H1 5016   7.373   7.240   1.533
 1691TIP3    H2 5017   7.442   7.137   1.445
 1692TIP3   OH2 5018   2.301   3.263   4.858
 1692TIP3    H1 5019   2.310   3.174   4.825
 1692TIP3    H2 5020   2.377   3.275   4.915
 1693TIP3   OH2 5021   4.888   2.533   0.605
 1693TIP3    H1 5022   4.812   2.551   0.660
 1693TIP3    H2 5023   4.937   2.466   0.652
 1694TIP3   OH2 5024   3.072   2.929   5.059
 1694TIP3    H1 5025   3.122   2.855   5.023
 1694TIP3    H2 5026   3.130   2.967   5.125
 1695TIP3   OH2 5027   0.327   4.994   5.910
 1695TIP3    H1 5028   0.375   5.010   5.828
 1695TIP3    H2 5029   0.395   4.983   5.976
 1696TIP3   OH2 5030   3.873   6.123   4.480
 1696TIP3    H1 5031   3.891   6.038   4.520
 1696TIP3    H2 5032   3.782   6.142   4.503
 1697TIP3   OH2 5033   3.891   2.725   5.404
 1697TIP3    H1 5034   3.871   2.817   5.385
 1697TIP3    H2 5035   3.941   2.696   5.328
 1698TIP3   OH2 5036   0.081   3.055   2.589
 1698TIP3    H1 5037   0.098   2.964   2.566
 1698TIP3    H2 5038  -0.014   3.065   2.580
 1699TIP3   OH2 5039   5.116   7.280   2.038
 1699TIP3    H1 5040   5.133   7.329   2.118
 1699TIP3    H2 5041   5.020   7.284   2.027
 1700TIP3   OH2 5042   5.409   5.523   4.422
 1700TIP3    H1 5043   5.388   5.496   4.333
 1700TIP3    H2 5044   5.496   5.486   4.439
 1701TIP3   OH2 5045   4.487   5.473   5.276
 1701TIP3    H1 5046   4.471   5.496   5.367
 1701TIP3    H2 5047   4.582   5.484   5.265
 1702TIP3   OH2 5048   6.650   3.479   3.138
 1702TIP3    H1 5049   6.621   3.520   3.057
 1702TIP3    H2 5050   6.610   3.532   3.207
 1703TIP3   OH2 5051   3.381   3.268   0.243
 1703TIP3    H1 5052   3.366   3.362   0.240
 1703TIP3    H2 5053   3.294   3.229   0.228
 1704TIP3   OH2 5054   6.244   1.215   0.159
 1704TIP3    H1 5055   6.328   1.241   0.197
 1704TIP3    H2 5056   6.263   1.133   0.114
 1705TIP3   OH2 5057   6.020   0.050   2.642
 1705TIP3    H1 5058   5.947  -0.001   2.605
 1705TIP3    H2 5059   6.033   0.122   2.580
 1706TIP3   OH2 5060   5.851   7.165   1.089
 1706TIP3    H1 5061   5.812   7.081   1.116
 1706TIP3    H2 5062   5.942   7.143   1.070
 1707TIP3   OH2 5063   8.230   5.427   0.390
 1707TIP3    H1 5064   8.148   5.447   0.344
 1707TIP3    H2 5065   8.261   5.346   0.349
 1708TIP3   OH2 5066   5.910   1.318   4.658
 1708TIP3    H1 5067   5.874   1.368   4.732
 1708TIP3    H2 5068   5.868   1.232   4.665
 1709TIP3   OH2 5069   6.054   5.935   6.694
 1709TIP3    H1 5070   6.080   5.847   6.664
 1709TIP3    H2 5071   5.967   5.948   6.655
 1710TIP3   OH2 5072   2.002   5.837   4.855
 1710TIP3    H1 5073   1.942   5.783   4.803
 1710TIP3    H2 5074   1.988   5.809   4.945
 1711TIP3   OH2 5075   4.850   5.775   2.398
 1711TIP3    H1 5076   4.806   5.822   2.327
 1711TIP3    H2 5077   4.943   5.779   2.376
 1712TIP3   OH2 5078   5.858   1.530   6.418
 1712TIP3    H1 5079   5.820   1.601   6.366
 1712TIP3    H2 5080   5.798   1.520   6.492
 1713TIP3   OH2 5081   2.539   1.883   2.263
 1713TIP3    H1 5082   2.483   1.950   2.223
 1713TIP3    H2 5083   2.600   1.932   2.318
 1714TIP3   OH2 5084   7.258   0.068   2.801
 1714TIP3    H1 5085   7.282   0.132   2.868
 1714TIP3    H2 5086   7.339   0.019   2.786
 1715TIP3   OH2 5087   4.257   2.622   2.929
 1715TIP3    H1 5088   4.251   2.594   3.021
 1715TIP3    H2 5089   4.348   2.605   2.905
 1716TIP3   OH2 5090   1.019   4.781   1.322
 1716TIP3    H1 5091   0.978   4.739   1.398
 1716TIP3    H2 5092   1.094   4.829   1.359
 1717TIP3   OH2 5093   2.812   3.224   4.484
 1717TIP3    H1 5094   2.832   3.134   4.509
 1717TIP3    H2 5095   2.871   3.242   4.411
 1718TIP3   OH2 5096   4.159   0.670   2.214
 1718TIP3    H1 5097   4.143   0.692   2.306
 1718TIP3    H2 5098   4.251   0.694   2.199
 1719TIP3   OH2 5099   0.822   0.699   2.963
 1719TIP3    H1 5100   0.869   0.747   2.895
 1719TIP3    H2 5101   0.741   0.749   2.976
 1720TIP3   OH2 5102   0.630   5.554   4.836
 1720TIP3    H1 5103   0.696   5.579   4.901
 1720TIP3    H2 5104   0.592   5.636   4.806
 1721TIP3   OH2 5105   1.865   5.118   4.164
 1721TIP3    H1 5106   1.819   5.067   4.230
 1721TIP3    H2 5107   1.812   5.197   4.153
 1722TIP3   OH2 5108   3.888   5.981   5.829
 1722TIP3    H1 5109   3.837   6.058   5.853
 1722TIP3    H2 5110   3.881   5.975   5.734
 1723TIP3   OH2 5111   5.067   6.734   3.674
 1723TIP3    H1 5112   4.999   6.673   3.701
 1723TIP3    H2 5113   5.060   6.739   3.579
 1724TIP3   OH2 5114   1.437   2.203   3.606
 1724TIP3    H1 5115   1.401   2.228   3.691
 1724TIP3    H2 5116   1.506   2.267   3.589
 1725TIP3   OH2 5117   6.641   0.536   2.029
 1725TIP3    H1 5118   6.597   0.605   1.979
 1725TIP3    H2 5119   6.582   0.461   2.022
 1726TIP3   OH2 5120   3.717   7.063   6.332
 1726TIP3    H1 5121   3.651   7.107   6.278
 1726TIP3    H2 5122   3.693   6.971   6.329
 1727TIP3   OH2 5123   3.608   4.342   1.403
 1727TIP3    H1 5124   3.645   4.343   1.492
 1727TIP3    H2 5125   3.683   4.362   1.346
 1728TIP3   OH2 5126   0.564   1.955   6.005
 1728TIP3    H1 5127   0.499   1.993   5.946
 1728TIP3    H2 5128   0.527   1.870   6.029
 1729TIP3   OH2 5129   5.390   1.206   2.787
 1729TIP3    H1 5130   5.395   1.295   2.754
 1729TIP3    H2 5131   5.404   1.214   2.881
 1730TIP3   OH2 5132   4.822   1.552   2.455
 1730TIP3    H1 5133   4.788   1.538   2.366
 1730TIP3    H2 5134   4.757   1.608   2.497
 1731TIP3   OH2 5135   2.958   2.224   5.647
 1731TIP3    H1 5136   3.034   2.166   5.656
 1731TIP3    H2 5137   2.994   2.305   5.613
 1732TIP3   OH2 5138   7.017   3.928   3.444
 1732TIP3    H1 5139   7.011   3.876   3.524
 1732TIP3    H2 5140   7.034   3.864   3.374
 1733TIP3   OH2 5141   1.073   2.477   1.657
 1733TIP3    H1 5142   1.090   2.530   1.735
 1733TIP3    H2 5143   1.037   2.395   1.691
 1734TIP3   OH2 5144   5.393   2.838   0.207
 1734TIP3    H1 5145   5.359   2.806   0.291
 1734TIP3    H2 5146   5.428   2.924   0.226
 1735TIP3   OH2 5147   5.456   5.222   0.514
 1735TIP3    H1 5148   5.510   5.157   0.469
 1735TIP3    H2 5149   5.369   5.182   0.518
 1736TIP3   OH2 5150   7.167   6.566   2.976
 1736TIP3    H1 5151   7.203   6.610   2.899
 1736TIP3    H2 5152   7.221   6.597   3.049
 1737TIP3   OH2 5153   6.851   5.076   1.779
 1737TIP3    H1 5154   6.770   5.025   1.776
 1737TIP3    H2 5155   6.921   5.012   1.766
 1738TIP3   OH2 5156   0.563   3.130   3.905
 1738TIP3    H1 5157   0.655   3.142   3.930
 1738TIP3    H2 5158   0.526   3.078   3.977
 1739TIP3   OH2 5159   6.370   0.080   2.465
 1739TIP3    H1 5160   6.398   0.043   2.549
 1739TIP3    H2 5161   6.360   0.173   2.482
 1740TIP3   OH2 5162   7.537   5.336   1.289
 1740TIP3    H1 5163   7.560   5.243   1.291
 1740TIP3    H2 5164   7.605   5.376   1.235
 1741TIP3   OH2 5165   5.935   7.405   1.731
 1741TIP3    H1 5166   5.976   7.453   1.660
 1741TIP3    H2 5167   5.863   7.358   1.689
 1742TIP3   OH2 5168   3.793   0.839   5.221
 1742TIP3    H1 5169   3.703   0.871   5.214
 1742TIP3    H2 5170   3.842   0.913   5.258
 1743TIP3   OH2 5171   7.877   5.264   6.078
 1743TIP3    H1 5172   7.785   5.273   6.102
 1743TIP3    H2 5173   7.893   5.170   6.078
 1744TIP3   OH2 5174   7.693   0.565   6.342
 1744TIP3    H1 5175   7.772   0.510   6.346
 1744TIP3    H2 5176   7.696   0.604   6.255
 1745TIP3   OH2 5177   2.717   6.759   4.072
 1745TIP3    H1 5178   2.752   6.681   4.115
 1745TIP3    H2 5179   2.624   6.760   4.096
 1746TIP3   OH2 5180   1.862   1.630   5.506
 1746TIP3    H1 5181   1.870   1.682   5.426
 1746TIP3    H2 5182   1.792   1.673   5.556
 1747TIP3   OH2 5183   3.639   4.479   6.497
 1747TIP3    H1 5184   3.549   4.450   6.481
 1747TIP3    H2 5185   3.648   4.482   6.592
 1748TIP3   OH2 5186   6.475   0.749   1.333
 1748TIP3    H1 5187   6.490   0.659   1.362
 1748TIP3    H2 5188   6.541   0.800   1.379
 1749TIP3   OH2 5189   4.457   4.321   4.302
 1749TIP3    H1 5190   4.546   4.357   4.303
 1749TIP3    H2 5191   4.457   4.255   4.372
 1750TIP3   OH2 5192   5.996   1.718   4.072
 1750TIP3    H1 5193   5.918   1.772   4.054
 1750TIP3    H2 5194   5.966   1.628   4.059
 1751TIP3   OH2 5195   4.872   2.518   4.399
 1751TIP3    H1 5196   4.935   2.472   4.455
 1751TIP3    H2 5197   4.849   2.454   4.332
 1752TIP3   OH2 5198   1.115   6.813   1.826
 1752TIP3    H1 5199   1.210   6.798   1.827
 1752TIP3    H2 5200   1.099   6.871   1.902
 1753TIP3   OH2 5201   7.204   6.639   1.083
 1753TIP3    H1 5202   7.147   6.665   1.011
 1753TIP3    H2 5203   7.260   6.571   1.046
 1754TIP3   OH2 5204   5.242   6.157   1.954
 1754TIP3    H1 5205   5.257   6.098   1.879
 1754TIP3    H2 5206   5.210   6.238   1.915
 1755TIP3   OH2 5207   2.219   0.290   6.597
 1755TIP3    H1 5208   2.290   0.269   6.659
 1755TIP3    H2 5209   2.208   0.385   6.605
 1756TIP3   OH2 5210   7.012   0.340   2.803
 1756TIP3    H1 5211   6.931   0.388   2.787
 1756TIP3    H2 5212   7.066   0.358   2.726
 1757TIP3   OH2 5213   1.077   3.924   1.836
 1757TIP3    H1 5214   1.142   3.889   1.897
 1757TIP3    H2 5215   1.126   3.942   1.756
 1758TIP3   OH2 5216   1.830   5.476   4.836
 1758TIP3    H1 5217   1.872   5.521   4.909
 1758TIP3    H2 5218   1.746   5.446   4.871
 1759TIP3   OH2 5219   2.978   5.801   0.465
 1759TIP3    H1 5220   3.070   5.818   0.485
 1759TIP3    H2 5221   2.974   5.706   0.451
 1760TIP3   OH2 5222   0.213   7.651   6.482
 1760TIP3    H1 5223   0.284   7.684   6.537
 1760TIP3    H2 5224   0.220   7.556   6.489
 1761TIP3   OH2 5225   0.450   1.800   0.919
 1761TIP3    H1 5226   0.424   1.834   1.004
 1761TIP3    H2 5227   0.421   1.708   0.920
 1762TIP3   OH2 5228   6.163   6.724   1.109
 1762TIP3    H1 5229   6.137   6.655   1.048
 1762TIP3    H2 5230   6.108   6.710   1.186
 1763TIP3   OH2 5231   2.068   2.280   6.656
 1763TIP3    H1 5232   2.134   2.242   6.713
 1763TIP3    H2 5233   1.985   2.252   6.693
 1764TIP3   OH2 5234   4.121   1.436   5.022
 1764TIP3    H1 5235   4.107   1.459   5.114
 1764TIP3    H2 5236   4.172   1.355   5.024
 1765TIP3   OH2 5237   5.621   4.544   3.855
 1765TIP3    H1 5238   5.672   4.556   3.935
 1765TIP3    H2 5239   5.553   4.481   3.879
 1766TIP3   OH2 5240   4.468   5.943   3.920
 1766TIP3    H1 5241   4.413   5.984   3.986
 1766TIP3    H2 5242   4.511   6.017   3.876
 1767TIP3   OH2 5243   4.254   3.266   1.800
 1767TIP3    H1 5244   4.164   3.293   1.820
 1767TIP3    H2 5245   4.309   3.337   1.834
 1768TIP3   OH2 5246   5.011   7.596   0.721
 1768TIP3    H1 5247   5.099   7.571   0.751
 1768TIP3    H2 5248   4.978   7.656   0.788
 1769TIP3   OH2 5249   7.559   3.147   5.750
 1769TIP3    H1 5250   7.589   3.060   5.778
 1769TIP3    H2 5251   7.618   3.171   5.679
 1770TIP3   OH2 5252   0.065   5.060   1.694
 1770TIP3    H1 5253  -0.016   5.097   1.660
 1770TIP3    H2 5254   0.038   4.979   1.738
 1771TIP3   OH2 5255   4.614   2.169   4.562
 1771TIP3    H1 5256   4.684   2.153   4.499
 1771TIP3    H2 5257   4.585   2.081   4.589
 1772TIP3   OH2 5258   4.213   2.847   2.780
 1772TIP3    H1 5259   4.193   2.773   2.836
 1772TIP3    H2 5260   4.236   2.918   2.841
 1773TIP3   OH2 5261   1.605   4.887   2.847
 1773TIP3    H1 5262   1.527   4.839   2.877
 1773TIP3    H2 5263   1.572   4.949   2.782
 1774TIP3   OH2 5264   4.250   1.743   6.443
 1774TIP3    H1 5265   4.171   1.789   6.414
 1774TIP3    H2 5266   4.279   1.693   6.367
 1775TIP3   OH2 5267   6.004   2.221   5.674
 1775TIP3    H1 5268   5.961   2.166   5.609
 1775TIP3    H2 5269   6.077   2.262   5.627
 1776TIP3   OH2 5270   4.244   6.420   4.531
 1776TIP3    H1 5271   4.192   6.354   4.486
 1776TIP3    H2 5272   4.202   6.503   4.509
 1777TIP3   OH2 5273   5.948   3.662   0.722
 1777TIP3    H1 5274   5.973   3.750   0.751
 1777TIP3    H2 5275   6.003   3.646   0.645
 1778TIP3   OH2 5276   7.173   0.898   6.668
 1778TIP3    H1 5277   7.232   0.857   6.731
 1778TIP3    H2 5278   7.118   0.956   6.720
 1779TIP3   OH2 5279   1.700   0.553   1.996
 1779TIP3    H1 5280   1.624   0.605   1.970
 1779TIP3    H2 5281   1.775   0.610   1.977
 1780TIP3   OH2 5282   5.674   3.878   0.085
 1780TIP3    H1 5283   5.600   3.863   0.143
 1780TIP3    H2 5284   5.687   3.794   0.040
 1781TIP3   OH2 5285   7.235   1.511   3.944
 1781TIP3    H1 5286   7.194   1.534   4.027
 1781TIP3    H2 5287   7.237   1.592   3.894
 1782TIP3   OH2 5288   6.884   2.406   0.299
 1782TIP3    H1 5289   6.937   2.344   0.249
 1782TIP3    H2 5290   6.805   2.418   0.246
 1783TIP3   OH2 5291   0.626   0.622   5.675
 1783TIP3    H1 5292   0.676   0.697   5.708
 1783TIP3    H2 5293   0.583   0.586   5.752
 1784TIP3   OH2 5294   2.253   3.408   1.572
 1784TIP3    H1 5295   2.276   3.492   1.611
 1784TIP3    H2 5296   2.335   3.360   1.565
 1785TIP3   OH2 5297   5.584   0.420   5.024
 1785TIP3    H1 5298   5.649   0.476   5.066
 1785TIP3    H2 5299   5.501   0.467   5.036
 1786TIP3   OH2 5300   6.956   3.880   0.475
 1786TIP3    H1 5301   6.861   3.885   0.485
 1786TIP3    H2 5302   6.981   3.966   0.439
 1787TIP3   OH2 5303   7.872   3.420   4.391
 1787TIP3    H1 5304   7.964   3.415   4.415
 1787TIP3    H2 5305   7.828   3.451   4.470
 1788TIP3   OH2 5306   7.756   1.082   5.127
 1788TIP3    H1 5307   7.760   1.129   5.044
 1788TIP3    H2 5308   7.760   1.150   5.194
 1789TIP3   OH2 5309   7.741   1.422   1.628
 1789TIP3    H1 5310   7.780   1.350   1.579
 1789TIP3    H2 5311   7.655   1.388   1.656
 1790TIP3   OH2 5312   4.348   5.747   6.344
 1790TIP3    H1 5313   4.332   5.830   6.299
 1790TIP3    H2 5314   4.372   5.772   6.434
 1791TIP3   OH2 5315   0.554   6.071   1.554
 1791TIP3    H1 5316   0.577   6.021   1.475
 1791TIP3    H2 5317   0.637   6.080   1.601
 1792TIP3   OH2 5318   4.285   2.461   3.881
 1792TIP3    H1 5319   4.221   2.523   3.846
 1792TIP3    H2 5320   4.332   2.511   3.949
 1793TIP3   OH2 5321   3.867   7.160   4.724
 1793TIP3    H1 5322   3.954   7.121   4.735
 1793TIP3    H2 5323   3.854   7.164   4.630
 1794TIP3   OH2 5324   7.825   2.421   4.594
 1794TIP3    H1 5325   7.735   2.442   4.620
 1794TIP3    H2 5326   7.821   2.410   4.499
 1795TIP3   OH2 5327   0.922   6.186   3.675
 1795TIP3    H1 5328   0.867   6.145   3.609
 1795TIP3    H2 5329   0.905   6.280   3.666
 1796TIP3   OH2 5330   3.810   2.334   5.969
 1796TIP3    H1 5331   3.830   2.374   6.054
 1796TIP3    H2 5332   3.846   2.395   5.905
 1797TIP3   OH2 5333   0.625   0.691   3.705
 1797TIP3    H1 5334   0.662   0.607   3.731
 1797TIP3    H2 5335   0.552   0.668   3.647
 1798TIP3   OH2 5336   0.076   5.009   3.122
 1798TIP3    H1 5337   0.105   4.942   3.185
 1798TIP3    H2 5338   0.149   5.019   3.062
 1799TIP3   OH2 5339   7.208   1.988   5.752
 1799TIP3    H1 5340   7.264   1.973   5.676
 1799TIP3    H2 5341   7.269   1.995   5.826
 1800TIP3   OH2 5342   6.912   7.047   4.684
 1800TIP3    H1 5343   6.834   6.991   4.686
 1800TIP3    H2 5344   6.983   6.990   4.714
 1801TIP3   OH2 5345   7.751   2.515   1.793
 1801TIP3    H1 5346   7.725   2.607   1.793
 1801TIP3    H2 5347   7.710   2.478   1.715
 1802TIP3   OH2 5348   3.723   5.209   0.029
 1802TIP3    H1 5349   3.714   5.125  -0.017
 1802TIP3    H2 5350   3.635   5.229   0.061
 1803TIP3   OH2 5351   6.380   1.267   2.457
 1803TIP3    H1 5352   6.345   1.201   2.399
 1803TIP3    H2 5353   6.449   1.222   2.506
 1804TIP3   OH2 5354   0.204   7.389   5.604
 1804TIP3    H1 5355   0.277   7.339   5.570
 1804TIP3    H2 5356   0.147   7.324   5.645
 1805TIP3   OH2 5357   5.729   3.190   4.971
 1805TIP3    H1 5358   5.703   3.101   4.949
 1805TIP3    H2 5359   5.782   3.219   4.897
 1806TIP3   OH2 5360   5.924   2.633   6.491
 1806TIP3    H1 5361   5.919   2.583   6.572
 1806TIP3    H2 5362   5.997   2.694   6.504
 1807TIP3   OH2 5363   6.863   6.369   6.662
 1807TIP3    H1 5364   6.954   6.340   6.665
 1807TIP3    H2 5365   6.815   6.297   6.621
 1808TIP3   OH2 5366   2.422   4.160   1.537
 1808TIP3    H1 5367   2.437   4.210   1.456
 1808TIP3    H2 5368   2.504   4.167   1.585
 1809TIP3   OH2 5369   8.075   4.628   4.916
 1809TIP3    H1 5370   8.048   4.720   4.910
 1809TIP3    H2 5371   8.037   4.599   4.999
 1810TIP3   OH2 5372   7.800   0.425   6.075
 1810TIP3    H1 5373   7.746   0.503   6.089
 1810TIP3    H2 5374   7.755   0.379   6.004
 1811TIP3   OH2 5375   1.732   1.499   3.145
 1811TIP3    H1 5376   1.724   1.504   3.050
 1811TIP3    H2 5377   1.647   1.467   3.174
 1812TIP3   OH2 5378   4.294   1.257   0.295
 1812TIP3    H1 5379   4.301   1.169   0.258
 1812TIP3    H2 5380   4.362   1.308   0.249
 1813TIP3   OH2 5381   1.996   6.003   3.698
 1813TIP3    H1 5382   1.970   5.930   3.755
 1813TIP3    H2 5383   1.923   6.064   3.703
 1814TIP3   OH2 5384   4.391   6.874   2.759
 1814TIP3    H1 5385   4.378   6.881   2.853
 1814TIP3    H2 5386   4.484   6.893   2.746
 1815TIP3   OH2 5387   6.792   0.592   3.965
 1815TIP3    H1 5388   6.735   0.642   4.023
 1815TIP3    H2 5389   6.872   0.579   4.017
 1816TIP3   OH2 5390   2.034   1.576   3.924
 1816TIP3    H1 5391   2.082   1.603   3.846
 1816TIP3    H2 5392   1.992   1.657   3.955
 1817TIP3   OH2 5393   5.709   3.643   1.953
 1817TIP3    H1 5394   5.734   3.622   1.863
 1817TIP3    H2 5395   5.716   3.738   1.959
 1818TIP3   OH2 5396   7.152   6.849   3.618
 1818TIP3    H1 5397   7.084   6.851   3.686
 1818TIP3    H2 5398   7.105   6.823   3.539
 1819TIP3   OH2 5399   1.982   5.864   5.400
 1819TIP3    H1 5400   1.960   5.779   5.440
 1819TIP3    H2 5401   1.932   5.927   5.451
 1820TIP3   OH2 5402   7.795   4.146   1.827
 1820TIP3    H1 5403   7.786   4.165   1.920
 1820TIP3    H2 5404   7.738   4.070   1.813
 1821TIP3   OH2 5405   2.623   4.409   1.532
 1821TIP3    H1 5406   2.681   4.482   1.513
 1821TIP3    H2 5407   2.547   4.423   1.476
 1822TIP3   OH2 5408   7.069   7.485   4.589
 1822TIP3    H1 5409   7.145   7.454   4.636
 1822TIP3    H2 5410   6.995   7.439   4.629
 1823TIP3   OH2 5411   4.214   0.093   3.614
 1823TIP3    H1 5412   4.231   0.186   3.602
 1823TIP3    H2 5413   4.293   0.059   3.656
 1824TIP3   OH2 5414   2.679   6.579   0.708
 1824TIP3    H1 5415   2.728   6.499   0.689
 1824TIP3    H2 5416   2.706   6.641   0.641
 1825TIP3   OH2 5417   3.901   3.702   4.360
 1825TIP3    H1 5418   3.887   3.797   4.363
 1825TIP3    H2 5419   3.987   3.689   4.400
 1826TIP3   OH2 5420   2.297   6.677   3.632
 1826TIP3    H1 5421   2.231   6.742   3.657
 1826TIP3    H2 5422   2.374   6.700   3.683
 1827TIP3   OH2 5423   3.176   5.828   2.758
 1827TIP3    H1 5424   3.095   5.838   2.709
 1827TIP3    H2 5425   3.179   5.735   2.782
 1828TIP3   OH2 5426   1.067   5.070   0.993
 1828TIP3    H1 5427   1.047   4.977   1.006
 1828TIP3    H2 5428   1.068   5.082   0.898
 1829TIP3   OH2 5429   2.590   2.741   3.428
 1829TIP3    H1 5430   2.587   2.657   3.383
 1829TIP3    H2 5431   2.508   2.747   3.476
 1830TIP3   OH2 5432   8.189   4.816   3.434
 1830TIP3    H1 5433   8.202   4.751   3.504
 1830TIP3    H2 5434   8.234   4.778   3.359
 1831TIP3   OH2 5435   4.615   7.397   6.005
 1831TIP3    H1 5436   4.623   7.334   5.933
 1831TIP3    H2 5437   4.667   7.472   5.977
 1832TIP3   OH2 5438   1.903   3.057   3.125
 1832TIP3    H1 5439   1.931   3.138   3.169
 1832TIP3    H2 5440   1.829   3.083   3.070
 1833TIP3   OH2 5441   3.974   0.428   6.449
 1833TIP3    H1 5442   4.061   0.433   6.489
 1833TIP3    H2 5443   3.982   0.358   6.384
 1834TIP3   OH2 5444   4.230   2.603   2.406
 1834TIP3    H1 5445   4.192   2.685   2.439
 1834TIP3    H2 5446   4.264   2.559   2.485
 1835TIP3   OH2 5447   4.715   5.466   3.876
 1835TIP3    H1 5448   4.666   5.542   3.845
 1835TIP3    H2 5449   4.786   5.455   3.813
 1836TIP3   OH2 5450   3.937   5.166   4.583
 1836TIP3    H1 5451   4.027   5.199   4.583
 1836TIP3    H2 5452   3.936   5.099   4.514
 1837TIP3   OH2 5453   0.767   3.397   2.695
 1837TIP3    H1 5454   0.777   3.337   2.621
 1837TIP3    H2 5455   0.714   3.469   2.661
 1838TIP3   OH2 5456   1.450   7.701   4.193
 1838TIP3    H1 5457   1.504   7.759   4.247
 1838TIP3    H2 5458   1.365   7.702   4.235
 1839TIP3   OH2 5459   2.515   2.300   5.718
 1839TIP3    H1 5460   2.569   2.252   5.655
 1839TIP3    H2 5461   2.520   2.391   5.691
 1840TIP3   OH2 5462   8.136   7.568   2.931
 1840TIP3    H1 5463   8.159   7.610   3.014
 1840TIP3    H2 5464   8.100   7.639   2.878
 1841TIP3   OH2 5465   1.284   3.564   6.444
 1841TIP3    H1 5466   1.356   3.518   6.487
 1841TIP3    H2 5467   1.205   3.523   6.478
 1842TIP3   OH2 5468   0.621   5.806   6.138
 1842TIP3    H1 5469   0.529   5.827   6.122
 1842TIP3    H2 5470   0.619   5.725   6.188
 1843TIP3   OH2 5471   5.746   1.146   3.696
 1843TIP3    H1 5472   5.670   1.094   3.718
 1843TIP3    H2 5473   5.777   1.110   3.613
 1844TIP3   OH2 5474   0.821   5.540   2.314
 1844TIP3    H1 5475   0.886   5.563   2.380
 1844TIP3    H2 5476   0.737   5.546   2.360
 1845TIP3   OH2 5477   1.196   4.742   6.628
 1845TIP3    H1 5478   1.235   4.690   6.698
 1845TIP3    H2 5479   1.176   4.826   6.669
 1846TIP3   OH2 5480   6.316   1.870   4.251
 1846TIP3    H1 5481   6.340   1.893   4.162
 1846TIP3    H2 5482   6.320   1.774   4.253
 1847TIP3   OH2 5483   7.285   0.609   2.960
 1847TIP3    H1 5484   7.253   0.631   3.047
 1847TIP3    H2 5485   7.207   0.585   2.910
 1848TIP3   OH2 5486   6.789   6.484   3.358
 1848TIP3    H1 5487   6.716   6.440   3.314
 1848TIP3    H2 5488   6.780   6.576   3.335
 1849TIP3   OH2 5489   3.993   0.605   5.924
 1849TIP3    H1 5490   4.052   0.532   5.939
 1849TIP3    H2 5491   3.908   0.575   5.958
 1850TIP3   OH2 5492   5.957   5.909   4.559
 1850TIP3    H1 5493   5.893   5.844   4.588
 1850TIP3    H2 5494   6.032   5.897   4.618
 1851TIP3   OH2 5495   0.213   6.760   6.004
 1851TIP3    H1 5496   0.301   6.785   6.031
 1851TIP3    H2 5497   0.202   6.671   6.039
 1852TIP3   OH2 5498   4.469   0.122   3.720
 1852TIP3    H1 5499   4.543   0.086   3.770
 1852TIP3    H2 5500   4.510   0.177   3.653
 1853TIP3   OH2 5501   1.054   2.797   2.415
 1853TIP3    H1 5502   1.089   2.712   2.442
 1853TIP3    H2 5503   1.053   2.794   2.320
 1854TIP3   OH2 5504   6.675   6.388   2.529
 1854TIP3    H1 5505   6.737   6.319   2.556
 1854TIP3    H2 5506   6.619   6.347   2.464
 1855TIP3   OH2 5507   2.682   7.696   6.097
 1855TIP3    H1 5508   2.700   7.787   6.073
 1855TIP3    H2 5509   2.600   7.700   6.146
 1856TIP3   OH2 5510   5.317   2.467   1.442
 1856TIP3    H1 5511   5.342   2.483   1.351
 1856TIP3    H2 5512   5.347   2.377   1.460
 1857TIP3   OH2 5513   1.025   5.156   2.049
 1857TIP3    H1 5514   0.964   5.193   1.985
 1857TIP3    H2 5515   0.979   5.163   2.133
 1858TIP3   OH2 5516   1.228   4.531   0.680
 1858TIP3    H1 5517   1.187   4.578   0.752
 1858TIP3    H2 5518   1.320   4.555   0.684
 1859TIP3   OH2 5519   2.571   3.285   3.429
 1859TIP3    H1 5520   2.499   3.250   3.377
 1859TIP3    H2 5521   2.560   3.248   3.516
 1860TIP3   OH2 5522   7.573   2.636   1.029
 1860TIP3    H1 5523   7.625   2.556   1.036
 1860TIP3    H2 5524   7.599   2.675   0.946
 1861TIP3   OH2 5525   6.655   2.947   5.933
 1861TIP3    H1 5526   6.602   3.000   5.874
 1861TIP3    H2 5527   6.605   2.866   5.944
 1862TIP3   OH2 5528   7.354   4.424   1.486
 1862TIP3    H1 5529   7.384   4.353   1.430
 1862TIP3    H2 5530   7.296   4.382   1.550
 1863TIP3   OH2 5531   8.094   4.873   2.181
 1863TIP3    H1 5532   8.166   4.869   2.118
 1863TIP3    H2 5533   8.071   4.966   2.185
 1864TIP3   OH2 5534   1.066   4.513   4.246
 1864TIP3    H1 5535   1.049   4.432   4.295
 1864TIP3    H2 5536   1.006   4.510   4.172
 1865TIP3   OH2 5537   1.956   3.946   2.066
 1865TIP3    H1 5538   2.042   3.967   2.029
 1865TIP3    H2 5539   1.904   4.025   2.051
 1866TIP3   OH2 5540   6.254   3.570   2.521
 1866TIP3    H1 5541   6.173   3.521   2.534
 1866TIP3    H2 5542   6.323   3.510   2.549
 1867TIP3   OH2 5543   3.825   6.432   6.268
 1867TIP3    H1 5544   3.852   6.350   6.226
 1867TIP3    H2 5545   3.900   6.457   6.322
 1868TIP3   OH2 5546   6.116   4.648   6.099
 1868TIP3    H1 5547   6.136   4.614   6.012
 1868TIP3    H2 5548   6.116   4.743   6.089
 1869TIP3   OH2 5549   8.170   7.193   6.642
 1869TIP3    H1 5550   8.243   7.194   6.580
 1869TIP3    H2 5551   8.148   7.100   6.652
 1870TIP3   OH2 5552   4.759   6.469   0.436
 1870TIP3    H1 5553   4.736   6.415   0.360
 1870TIP3    H2 5554   4.676   6.506   0.465
 1871TIP3   OH2 5555   7.900   3.473   2.542
 1871TIP3    H1 5556   7.931   3.399   2.489
 1871TIP3    H2 5557   7.824   3.506   2.495
 1872TIP3   OH2 5558   1.266   3.430   3.016
 1872TIP3    H1 5559   1.174   3.427   2.989
 1872TIP3    H2 5560   1.309   3.486   2.952
 1873TIP3   OH2 5561   1.334   3.017   4.935
 1873TIP3    H1 5562   1.264   3.074   4.901
 1873TIP3    H2 5563   1.408   3.075   4.950
 1874TIP3   OH2 5564   4.785   7.626   0.119
 1874TIP3    H1 5565   4.875   7.604   0.144
 1874TIP3    H2 5566   4.772   7.715   0.152
 1875TIP3   OH2 5567   0.956   5.460   4.105
 1875TIP3    H1 5568   0.934   5.446   4.197
 1875TIP3    H2 5569   0.945   5.374   4.064
 1876TIP3   OH2 5570   6.231   2.972   5.295
 1876TIP3    H1 5571   6.189   3.012   5.219
 1876TIP3    H2 5572   6.160   2.931   5.344
 1877TIP3   OH2 5573   4.056   7.293   0.827
 1877TIP3    H1 5574   4.102   7.224   0.875
 1877TIP3    H2 5575   4.122   7.362   0.817
 1878TIP3   OH2 5576   3.984   1.323   4.090
 1878TIP3    H1 5577   4.012   1.342   4.180
 1878TIP3    H2 5578   3.949   1.234   4.094
 1879TIP3   OH2 5579   5.558   1.521   5.752
 1879TIP3    H1 5580   5.475   1.519   5.705
 1879TIP3    H2 5581   5.533   1.529   5.844
 1880TIP3   OH2 5582   1.984   1.221   3.118
 1880TIP3    H1 5583   1.977   1.205   3.212
 1880TIP3    H2 5584   2.028   1.305   3.110
 1881TIP3   OH2 5585   6.652   2.996   6.488
 1881TIP3    H1 5586   6.682   3.080   6.522
 1881TIP3    H2 5587   6.683   2.994   6.397
 1882TIP3   OH2 5588   6.115   6.426   0.619
 1882TIP3    H1 5589   6.038   6.382   0.652
 1882TIP3    H2 5590   6.173   6.356   0.590
 1883TIP3   OH2 5591   7.653   3.467   2.857
 1883TIP3    H1 5592   7.662   3.559   2.880
 1883TIP3    H2 5593   7.577   3.437   2.906
 1884TIP3   OH2 5594  -0.007   4.546   1.603
 1884TIP3    H1 5595   0.078   4.507   1.582
 1884TIP3    H2 5596  -0.069   4.473   1.595
 1885TIP3   OH2 5597   4.197   2.807   6.103
 1885TIP3    H1 5598   4.134   2.839   6.038
 1885TIP3    H2 5599   4.189   2.712   6.099
 1886TIP3   OH2 5600   0.631   0.308   4.399
 1886TIP3    H1 5601   0.674   0.254   4.332
 1886TIP3    H2 5602   0.554   0.343   4.356
 1887TIP3   OH2 5603   3.096   0.888   2.030
 1887TIP3    H1 5604   3.017   0.908   1.980
 1887TIP3    H2 5605   3.102   0.959   2.094
 1888TIP3   OH2 5606   5.746   5.866   5.858
 1888TIP3    H1 5607   5.811   5.797   5.874
 1888TIP3    H2 5608   5.740   5.872   5.763
 1889TIP3   OH2 5609   8.148   1.720   5.107
 1889TIP3    H1 5610   8.146   1.651   5.173
 1889TIP3    H2 5611   8.213   1.783   5.141
 1890TIP3   OH2 5612   5.802   0.483   2.794
 1890TIP3    H1 5613   5.858   0.407   2.806
 1890TIP3    H2 5614   5.859   0.550   2.756
 1891TIP3   OH2 5615   3.413   6.458   1.419
 1891TIP3    H1 5616   3.506   6.455   1.441
 1891TIP3    H2 5617   3.385   6.547   1.441
 1892TIP3   OH2 5618   2.810  -0.004   1.183
 1892TIP3    H1 5619   2.808   0.092   1.187
 1892TIP3    H2 5620   2.890  -0.024   1.134
 1893TIP3   OH2 5621   0.053   0.052   5.684
 1893TIP3    H1 5622   0.028   0.109   5.756
 1893TIP3    H2 5623   0.128   0.096   5.643
 1894TIP3   OH2 5624   1.785   3.453   3.543
 1894TIP3    H1 5625   1.756   3.389   3.609
 1894TIP3    H2 5626   1.708   3.468   3.488
 1895TIP3   OH2 5627   2.613   1.323   5.230
 1895TIP3    H1 5628   2.635   1.406   5.272
 1895TIP3    H2 5629   2.582   1.347   5.143
 1896TIP3   OH2 5630   6.615   5.400   2.320
 1896TIP3    H1 5631   6.528   5.374   2.349
 1896TIP3    H2 5632   6.674   5.338   2.364
 1897TIP3   OH2 5633   2.633   5.027   2.014
 1897TIP3    H1 5634   2.544   5.040   1.981
 1897TIP3    H2 5635   2.621   4.983   2.098
 1898TIP3   OH2 5636   4.823   1.255   0.812
 1898TIP3    H1 5637   4.840   1.194   0.885
 1898TIP3    H2 5638   4.774   1.326   0.852
 1899TIP3   OH2 5639   4.431   1.205   1.363
 1899TIP3    H1 5640   4.495   1.134   1.355
 1899TIP3    H2 5641   4.351   1.170   1.325
 1900TIP3   OH2 5642   7.227   5.481   5.544
 1900TIP3    H1 5643   7.271   5.487   5.629
 1900TIP3    H2 5644   7.244   5.392   5.515
 1901TIP3   OH2 5645   0.266   0.581   6.424
 1901TIP3    H1 5646   0.339   0.519   6.430
 1901TIP3    H2 5647   0.239   0.578   6.332
 1902TIP3   OH2 5648   4.760   1.685   3.723
 1902TIP3    H1 5649   4.714   1.755   3.769
 1902TIP3    H2 5650   4.847   1.720   3.705
 1903TIP3   OH2 5651   6.863   6.781   2.209
 1903TIP3    H1 5652   6.832   6.752   2.294
 1903TIP3    H2 5653   6.954   6.807   2.224
 1904TIP3   OH2 5654   4.751   7.742   4.385
 1904TIP3    H1 5655   4.756   7.792   4.303
 1904TIP3    H2 5656   4.659   7.720   4.394
 1905TIP3   OH2 5657   3.158   4.187   3.539
 1905TIP3    H1 5658   3.223   4.124   3.569
 1905TIP3    H2 5659   3.195   4.273   3.560
 1906TIP3   OH2 5660   5.790   7.306   0.705
 1906TIP3    H1 5661   5.805   7.211   0.709
 1906TIP3    H2 5662   5.711   7.316   0.654
 1907TIP3   OH2 5663   7.543   5.591   1.823
 1907TIP3    H1 5664   7.474   5.568   1.887
 1907TIP3    H2 5665   7.541   5.686   1.819
 1908TIP3   OH2 5666   0.737   6.612   0.893
 1908TIP3    H1 5667   0.696   6.652   0.970
 1908TIP3    H2 5668   0.707   6.521   0.894
 1909TIP3   OH2 5669   7.469   1.130   0.352
 1909TIP3    H1 5670   7.515   1.208   0.320
 1909TIP3    H2 5671   7.379   1.160   0.364
 1910TIP3   OH2 5672   4.842   2.780   4.996
 1910TIP3    H1 5673   4.746   2.791   4.994
 1910TIP3    H2 5674   4.855   2.685   4.997
 1911TIP3   OH2 5675   1.830   5.768   0.382
 1911TIP3    H1 5676   1.797   5.790   0.295
 1911TIP3    H2 5677   1.806   5.842   0.437
 1912TIP3   OH2 5678   8.281   4.180   2.618
 1912TIP3    H1 5679   8.206   4.145   2.569
 1912TIP3    H2 5680   8.249   4.189   2.708
 1913TIP3   OH2 5681   3.258   7.002   1.508
 1913TIP3    H1 5682   3.304   7.052   1.575
 1913TIP3    H2 5683   3.263   7.056   1.429
 1914TIP3   OH2 5684   5.378   7.203   0.861
 1914TIP3    H1 5685   5.446   7.164   0.805
 1914TIP3    H2 5686   5.426   7.266   0.915
 1915TIP3   OH2 5687   6.256   1.171   2.817
 1915TIP3    H1 5688   6.200   1.131   2.750
 1915TIP3    H2 5689   6.259   1.107   2.887
 1916TIP3   OH2 5690   7.665   3.550   2.247
 1916TIP3    H1 5691   7.743   3.495   2.257
 1916TIP3    H2 5692   7.610   3.502   2.186
 1917TIP3   OH2 5693   1.574   3.794   0.195
 1917TIP3    H1 5694   1.644   3.805   0.260
 1917TIP3    H2 5695   1.595   3.858   0.127
 1918TIP3   OH2 5696   0.781   5.257   1.472
 1918TIP3    H1 5697   0.869   5.278   1.502
 1918TIP3    H2 5698   0.730   5.336   1.487
 1919TIP3   OH2 5699   7.488   3.411   4.269
 1919TIP3    H1 5700   7.539   3.373   4.340
 1919TIP3    H2 5701   7.485   3.505   4.288
 1920TIP3   OH2 5702   4.609   2.923   5.212
 1920TIP3    H1 5703   4.535   2.977   5.184
 1920TIP3    H2 5704   4.670   2.985   5.252
 1921TIP3   OH2 5705   3.685   0.726   0.641
 1921TIP3    H1 5706   3.637   0.681   0.572
 1921TIP3    H2 5707   3.652   0.816   0.639
 1922TIP3   OH2 5708   6.971   7.317   1.440
 1922TIP3    H1 5709   7.061   7.290   1.461
 1922TIP3    H2 5710   6.948   7.263   1.364
 1923TIP3   OH2 5711   1.581   7.436   1.381
 1923TIP3    H1 5712   1.549   7.506   1.437
 1923TIP3    H2 5713   1.518   7.365   1.391
 1924TIP3   OH2 5714   5.468   6.268   1.302
 1924TIP3    H1 5715   5.373   6.264   1.307
 1924TIP3    H2 5716   5.493   6.324   1.376
 1925TIP3   OH2 5717   0.423   3.470   3.974
 1925TIP3    H1 5718   0.481   3.433   4.041
 1925TIP3    H2 5719   0.367   3.397   3.949
 1926TIP3   OH2 5720   5.510   6.513   0.308
 1926TIP3    H1 5721   5.462   6.432   0.324
 1926TIP3    H2 5722   5.460   6.558   0.240
 1927TIP3   OH2 5723   1.320   7.158   6.457
 1927TIP3    H1 5724   1.351   7.245   6.433
 1927TIP3    H2 5725   1.244   7.143   6.401
 1928TIP3   OH2 5726   3.785   1.109   5.428
 1928TIP3    H1 5727   3.839   1.108   5.349
 1928TIP3    H2 5728   3.832   1.166   5.489
 1929TIP3   OH2 5729   3.704   0.165   1.730
 1929TIP3    H1 5730   3.760   0.126   1.663
 1929TIP3    H2 5731   3.746   0.248   1.751
 1930TIP3   OH2 5732   7.602   4.366   0.117
 1930TIP3    H1 5733   7.525   4.414   0.086
 1930TIP3    H2 5734   7.676   4.416   0.084
 1931TIP3   OH2 5735   7.173   7.696   2.778
 1931TIP3    H1 5736   7.108   7.647   2.829
 1931TIP3    H2 5737   7.156   7.671   2.688
 1932TIP3   OH2 5738   1.245   7.025   4.258
 1932TIP3    H1 5739   1.158   6.998   4.288
 1932TIP3    H2 5740   1.242   7.121   4.260
 1933TIP3   OH2 5741   1.468   5.455   4.712
 1933TIP3    H1 5742   1.501   5.394   4.778
 1933TIP3    H2 5743   1.439   5.531   4.762
 1934TIP3   OH2 5744   8.135   7.802   1.420
 1934TIP3    H1 5745   8.169   7.739   1.484
 1934TIP3    H2 5746   8.211   7.855   1.396
 1935TIP3   OH2 5747   3.474   5.665   1.747
 1935TIP3    H1 5748   3.491   5.701   1.834
 1935TIP3    H2 5749   3.542   5.599   1.734
 1936TIP3   OH2 5750   6.074   2.326   0.487
 1936TIP3    H1 5751   6.126   2.264   0.539
 1936TIP3    H2 5752   6.051   2.396   0.548
 1937TIP3   OH2 5753   7.073   1.873   3.598
 1937TIP3    H1 5754   7.011   1.933   3.555
 1937TIP3    H2 5755   7.148   1.928   3.620
 1938TIP3   OH2 5756   7.288   3.387   2.379
 1938TIP3    H1 5757   7.317   3.399   2.289
 1938TIP3    H2 5758   7.335   3.310   2.410
 1939TIP3   OH2 5759   1.644   4.978   6.658
 1939TIP3    H1 5760   1.576   5.038   6.690
 1939TIP3    H2 5761   1.595   4.914   6.604
 1940TIP3   OH2 5762   0.775   3.487   4.142
 1940TIP3    H1 5763   0.704   3.474   4.079
 1940TIP3    H2 5764   0.812   3.572   4.119
 1941TIP3   OH2 5765   8.178   6.414   6.065
 1941TIP3    H1 5766   8.108   6.350   6.056
 1941TIP3    H2 5767   8.240   6.374   6.126
 1942TIP3   OH2 5768   4.350   6.673   2.118
 1942TIP3    H1 5769   4.366   6.761   2.085
 1942TIP3    H2 5770   4.367   6.679   2.212
 1943TIP3   OH2 5771   0.289   3.476   6.028
 1943TIP3    H1 5772   0.290   3.435   6.115
 1943TIP3    H2 5773   0.382   3.484   6.005
 1944TIP3   OH2 5774   3.170   2.344   1.864
 1944TIP3    H1 5775   3.236   2.276   1.879
 1944TIP3    H2 5776   3.136   2.325   1.776
 1945TIP3   OH2 5777   8.120   1.342   5.237
 1945TIP3    H1 5778   8.140   1.423   5.284
 1945TIP3    H2 5779   8.086   1.283   5.304
 1946TIP3   OH2 5780   2.539   7.093   3.852
 1946TIP3    H1 5781   2.500   7.180   3.866
 1946TIP3    H2 5782   2.600   7.082   3.925
 1947TIP3   OH2 5783   0.993   4.987   5.099
 1947TIP3    H1 5784   0.981   4.939   5.181
 1947TIP3    H2 5785   1.085   5.014   5.100
 1948TIP3   OH2 5786   4.528   4.904   3.290
 1948TIP3    H1 5787   4.569   4.835   3.342
 1948TIP3    H2 5788   4.468   4.858   3.231
 1949TIP3   OH2 5789   3.394   7.229   1.731
 1949TIP3    H1 5790   3.409   7.188   1.816
 1949TIP3    H2 5791   3.482   7.252   1.700
 1950TIP3   OH2 5792   8.266   1.997   3.801
 1950TIP3    H1 5793   8.213   2.030   3.729
 1950TIP3    H2 5794   8.258   1.901   3.795
 1951TIP3   OH2 5795   1.745   2.759   0.971
 1951TIP3    H1 5796   1.821   2.812   0.947
 1951TIP3    H2 5797   1.669   2.812   0.945
 1952TIP3   OH2 5798   7.112   0.578   3.543
 1952TIP3    H1 5799   7.062   0.567   3.463
 1952TIP3    H2 5800   7.048   0.607   3.608
 1953TIP3   OH2 5801   4.458   4.168   6.585
 1953TIP3    H1 5802   4.523   4.175   6.656
 1953TIP3    H2 5803   4.496   4.217   6.513
 1954TIP3   OH2 5804   7.591   3.487   2.558
 1954TIP3    H1 5805   7.613   3.486   2.651
 1954TIP3    H2 5806   7.581   3.395   2.534
 1955TIP3   OH2 5807   8.072   5.192   6.568
 1955TIP3    H1 5808   8.055   5.250   6.493
 1955TIP3    H2 5809   8.041   5.106   6.539
 1956TIP3   OH2 5810   7.982   2.986   5.491
 1956TIP3    H1 5811   7.914   3.007   5.428
 1956TIP3    H2 5812   8.064   2.990   5.441
 1957TIP3   OH2 5813   8.142   6.241   5.688
 1957TIP3    H1 5814   8.176   6.154   5.708
 1957TIP3    H2 5815   8.052   6.240   5.721
 1958TIP3   OH2 5816   7.527   7.343   5.619
 1958TIP3    H1 5817   7.435   7.328   5.598
 1958TIP3    H2 5818   7.575   7.290   5.555
 1959TIP3   OH2 5819   5.405   5.284   3.002
 1959TIP3    H1 5820   5.498   5.271   2.985
 1959TIP3    H2 5821   5.362   5.208   2.961
 1960TIP3   OH2 5822   6.544   1.290   4.416
 1960TIP3    H1 5823   6.580   1.349   4.350
 1960TIP3    H2 5824   6.452   1.280   4.392
 1961TIP3   OH2 5825   5.654   2.108   0.859
 1961TIP3    H1 5826   5.630   2.041   0.923
 1961TIP3    H2 5827   5.626   2.071   0.775
 1962TIP3   OH2 5828   7.464   2.475   4.343
 1962TIP3    H1 5829   7.496   2.521   4.421
 1962TIP3    H2 5830   7.418   2.542   4.292
 1963TIP3   OH2 5831   2.179   6.436   1.599
 1963TIP3    H1 5832   2.087   6.423   1.577
 1963TIP3    H2 5833   2.227   6.392   1.528
 1964TIP3   OH2 5834   4.099   0.626   5.611
 1964TIP3    H1 5835   4.147   0.559   5.562
 1964TIP3    H2 5836   4.125   0.614   5.702
 1965TIP3   OH2 5837   0.273   3.184   3.668
 1965TIP3    H1 5838   0.187   3.189   3.627
 1965TIP3    H2 5839   0.257   3.204   3.760
 1966TIP3   OH2 5840   5.519   0.059   1.754
 1966TIP3    H1 5841   5.510  -0.001   1.828
 1966TIP3    H2 5842   5.577   0.014   1.693
 1967TIP3   OH2 5843   5.244   3.443   5.349
 1967TIP3    H1 5844   5.234   3.400   5.263
 1967TIP3    H2 5845   5.229   3.373   5.412
 1968TIP3   OH2 5846   7.833   3.800   1.686
 1968TIP3    H1 5847   7.928   3.798   1.690
 1968TIP3    H2 5848   7.812   3.848   1.606
 1969TIP3   OH2 5849   5.221   1.331   5.739
 1969TIP3    H1 5850   5.198   1.370   5.824
 1969TIP3    H2 5851   5.263   1.403   5.691
 1970TIP3   OH2 5852   7.782   1.810   3.302
 1970TIP3    H1 5853   7.863   1.861   3.305
 1970TIP3    H2 5854   7.788   1.761   3.220
 1971TIP3   OH2 5855   0.455   4.688   1.149
 1971TIP3    H1 5856   0.414   4.728   1.073
 1971TIP3    H2 5857   0.515   4.623   1.112
 1972TIP3   OH2 5858   6.944   4.369   1.035
 1972TIP3    H1 5859   6.969   4.431   1.105
 1972TIP3    H2 5860   6.905   4.295   1.082
 1973TIP3   OH2 5861   2.843   3.940   3.898
 1973TIP3    H1 5862   2.781   3.994   3.948
 1973TIP3    H2 5863   2.880   4.000   3.834
 1974TIP3   OH2 5864   1.554   3.081   2.172
 1974TIP3    H1 5865   1.644   3.054   2.186
 1974TIP3    H2 5866   1.526   3.119   2.256
 1975TIP3   OH2 5867   6.043   6.711   1.381
 1975TIP3    H1 5868   5.950   6.705   1.360
 1975TIP3    H2 5869   6.053   6.799   1.418
 1976TIP3   OH2 5870   4.135   2.065   2.103
 1976TIP3    H1 5871   4.181   2.074   2.187
 1976TIP3    H2 5872   4.054   2.019   2.125
 1977TIP3   OH2 5873   6.585   4.620   2.711
 1977TIP3    H1 5874   6.625   4.677   2.645
 1977TIP3    H2 5875   6.630   4.536   2.700
 1978TIP3   OH2 5876   1.553   7.777   3.273
 1978TIP3    H1 5877   1.525   7.714   3.339
 1978TIP3    H2 5878   1.622   7.828   3.316
 1979TIP3   OH2 5879   1.177   2.312   0.535
 1979TIP3    H1 5880   1.244   2.244   0.525
 1979TIP3    H2 5881   1.186   2.366   0.457
 1980TIP3   OH2 5882   2.192   2.500   1.972
 1980TIP3    H1 5883   2.201   2.595   1.961
 1980TIP3    H2 5884   2.207   2.465   1.884
 1981TIP3   OH2 5885   2.561   0.612   6.088
 1981TIP3    H1 5886   2.564   0.544   6.156
 1981TIP3    H2 5887   2.565   0.563   6.006
 1982TIP3   OH2 5888   6.911   1.098   3.502
 1982TIP3    H1 5889   6.884   1.015   3.542
 1982TIP3    H2 5890   6.925   1.157   3.575
 1983TIP3   OH2 5891   4.682   6.464   5.121
 1983TIP3    H1 5892   4.638   6.525   5.180
 1983TIP3    H2 5893   4.621   6.392   5.111
 1984TIP3   OH2 5894   4.523   2.414   2.367
 1984TIP3    H1 5895   4.468   2.443   2.440
 1984TIP3    H2 5896   4.610   2.406   2.404
 1985TIP3   OH2 5897   2.312   5.285   2.103
 1985TIP3    H1 5898   2.379   5.352   2.118
 1985TIP3    H2 5899   2.246   5.328   2.049
 1986TIP3   OH2 5900   6.995   4.910   0.169
 1986TIP3    H1 5901   6.906   4.882   0.190
 1986TIP3    H2 5902   7.049   4.831   0.179
 1987TIP3   OH2 5903   6.322   7.024   4.722
 1987TIP3    H1 5904   6.335   6.962   4.650
 1987TIP3    H2 5905   6.249   6.988   4.773
 1988TIP3   OH2 5906   3.073   7.604   2.176
 1988TIP3    H1 5907   2.988   7.634   2.143
 1988TIP3    H2 5908   3.118   7.572   2.098
 1989TIP3   OH2 5909   6.992   4.498   2.519
 1989TIP3    H1 5910   7.076   4.452   2.517
 1989TIP3    H2 5911   6.947   4.462   2.595
 1990TIP3   OH2 5912   3.596   0.556   3.453
 1990TIP3    H1 5913   3.549   0.635   3.480
 1990TIP3    H2 5914   3.597   0.560   3.357
 1991TIP3   OH2 5915   3.477   3.312   5.810
 1991TIP3    H1 5916   3.557   3.363   5.805
 1991TIP3    H2 5917   3.495   3.245   5.876
 1992TIP3   OH2 5918   3.031   4.147   4.298
 1992TIP3    H1 5919   3.025   4.241   4.281
 1992TIP3    H2 5920   2.953   4.110   4.258
 1993TIP3   OH2 5921   6.251   4.822   3.884
 1993TIP3    H1 5922   6.263   4.915   3.863
 1993TIP3    H2 5923   6.289   4.776   3.809
 1994TIP3   OH2 5924   4.173   6.854   4.896
 1994TIP3    H1 5925   4.094   6.800   4.889
 1994TIP3    H2 5926   4.209   6.856   4.808
 1995TIP3   OH2 5927   6.666   1.831   0.356
 1995TIP3    H1 5928   6.730   1.903   0.360
 1995TIP3    H2 5929   6.590   1.869   0.312
 1996TIP3   OH2 5930   6.572   6.812   0.271
 1996TIP3    H1 5931   6.477   6.808   0.269
 1996TIP3    H2 5932   6.599   6.742   0.330
 1997TIP3   OH2 5933   7.984   1.435   2.252
 1997TIP3    H1 5934   7.999   1.375   2.179
 1997TIP3    H2 5935   7.935   1.508   2.213
 1998TIP3   OH2 5936   2.567   6.094   5.199
 1998TIP3    H1 5937   2.597   6.114   5.110
 1998TIP3    H2 5938   2.643   6.053   5.241
 1999TIP3   OH2 5939   0.267   4.310   0.263
 1999TIP3    H1 5940   0.199   4.334   0.326
 1999TIP3    H2 5941   0.227   4.243   0.208
 2000TIP3   OH2 5942   3.398   2.435   5.793
 2000TIP3    H1 5943   3.449   2.458   5.870
 2000TIP3    H2 5944   3.326   2.498   5.792
 2001TIP3   OH2 5945   3.890   4.025   1.990
 2001TIP3    H1 5946   3.953   4.094   1.971
 2001TIP3    H2 5947   3.941   3.944   1.985
 2002TIP3   OH2 5948   3.133   1.711   1.277
 2002TIP3    H1 5949   3.192   1.679   1.346
 2002TIP3    H2 5950   3.045   1.695   1.310
 2003TIP3   OH2 5951   7.505   6.681   6.185
 2003TIP3    H1 5952   7.564   6.606   6.176
 2003TIP3    H2 5953   7.475   6.677   6.276
 2004TIP3   OH2 5954   0.337   5.038   2.102
 2004TIP3    H1 5955   0.428   5.069   2.099
 2004TIP3    H2 5956   0.305   5.051   2.013
 2005TIP3   OH2 5957   5.574   0.039   6.432
 2005TIP3    H1 5958   5.607  -0.047   6.404
 2005TIP3    H2 5959   5.613   0.053   6.518
 2006TIP3   OH2 5960   8.244   6.702   1.533
 2006TIP3    H1 5961   8.175   6.676   1.473
 2006TIP3    H2 5962   8.325   6.667   1.494
 2007TIP3   OH2 5963   1.596   0.243   1.268
 2007TIP3    H1 5964   1.684   0.208   1.257
 2007TIP3    H2 5965   1.544   0.168   1.298
 2008TIP3   OH2 5966   2.322   2.550   0.697
 2008TIP3    H1 5967   2.247   2.516   0.649
 2008TIP3    H2 5968   2.375   2.472   0.716
 2009TIP3   OH2 5969   6.378   4.043   1.476
 2009TIP3    H1 5970   6.290   4.078   1.489
 2009TIP3    H2 5971   6.365   3.948   1.465
 2010TIP3   OH2 5972   7.269   7.285   5.563
 2010TIP3    H1 5973   7.196   7.224   5.553
 2010TIP3    H2 5974   7.278   7.326   5.476
 2011TIP3   OH2 5975   3.808   1.527   2.219
 2011TIP3    H1 5976   3.774   1.530   2.130
 2011TIP3    H2 5977   3.800   1.435   2.245
 2012TIP3   OH2 5978   4.634   5.336   6.048
 2012TIP3    H1 5979   4.585   5.402   5.999
 2012TIP3    H2 5980   4.681   5.286   5.982
 2013TIP3   OH2 5981   4.754   2.925   0.740
 2013TIP3    H1 5982   4.823   2.939   0.805
 2013TIP3    H2 5983   4.798   2.937   0.656
 2014TIP3   OH2 5984   7.332   0.125   3.107
 2014TIP3    H1 5985   7.295   0.190   3.166
 2014TIP3    H2 5986   7.374   0.061   3.164
 2015TIP3   OH2 5987   5.385   3.706   1.616
 2015TIP3    H1 5988   5.339   3.704   1.700
 2015TIP3    H2 5989   5.476   3.727   1.639
 2016TIP3   OH2 5990   0.577   4.617   4.639
 2016TIP3    H1 5991   0.620   4.544   4.683
 2016TIP3    H2 5992   0.603   4.609   4.547
 2017TIP3   OH2 5993   1.443   4.822   6.546
 2017TIP3    H1 5994   1.459   4.737   6.585
 2017TIP3    H2 5995   1.357   4.813   6.504
 2018TIP3   OH2 5996   0.154   5.313   3.085
 2018TIP3    H1 5997   0.065   5.310   3.048
 2018TIP3    H2 5998   0.198   5.236   3.048
 2019TIP3   OH2 5999   8.196   0.427   5.117
 2019TIP3    H1 6000   8.241   0.485   5.056
 2019TIP3    H2 6001   8.116   0.473   5.140
 2020TIP3   OH2 6002   1.507   3.882   5.898
 2020TIP3    H1 6003   1.549   3.968   5.896
 2020TIP3    H2 6004   1.573   3.824   5.936
 2021TIP3   OH2 6005   4.991   6.089   2.233
 2021TIP3    H1 6006   5.070   6.091   2.288
 2021TIP3    H2 6007   4.945   6.170   2.252
 2022TIP3   OH2 6008   3.945   2.300   1.614
 2022TIP3    H1 6009   3.952   2.259   1.700
 2022TIP3    H2 6010   3.939   2.227   1.553
 2023TIP3   OH2 6011   6.092   5.637   6.645
 2023TIP3    H1 6012   6.000   5.617   6.629
 2023TIP3    H2 6013   6.129   5.557   6.681
 2024TIP3   OH2 6014   3.714   3.649   1.941
 2024TIP3    H1 6015   3.764   3.698   2.006
 2024TIP3    H2 6016   3.623   3.655   1.970
 2025TIP3   OH2 6017   4.833   7.571   1.058
 2025TIP3    H1 6018   4.803   7.613   1.139
 2025TIP3    H2 6019   4.875   7.641   1.009
 2026TIP3   OH2 6020   2.520   4.519   3.785
 2026TIP3    H1 6021   2.426   4.538   3.782
 2026TIP3    H2 6022   2.545   4.505   3.693
 2027TIP3   OH2 6023   6.648   0.279   1.597
 2027TIP3    H1 6024   6.742   0.288   1.608
 2027TIP3    H2 6025   6.612   0.365   1.617
 2028TIP3   OH2 6026   1.286   5.177   4.775
 2028TIP3    H1 6027   1.263   5.194   4.684
 2028TIP3    H2 6028   1.274   5.083   4.786
 2029TIP3   OH2 6029   4.134   1.557   6.623
 2029TIP3    H1 6030   4.184   1.618   6.568
 2029TIP3    H2 6031   4.124   1.479   6.567
 2030TIP3   OH2 6032   6.444   1.892   0.204
 2030TIP3    H1 6033   6.466   1.974   0.160
 2030TIP3    H2 6034   6.368   1.859   0.156
 2031TIP3   OH2 6035   5.501   2.479   4.428
 2031TIP3    H1 6036   5.405   2.470   4.435
 2031TIP3    H2 6037   5.535   2.396   4.460
 2032TIP3   OH2 6038   5.021   2.016   5.444
 2032TIP3    H1 6039   5.056   2.099   5.476
 2032TIP3    H2 6040   5.098   1.968   5.413
 2033TIP3   OH2 6041   4.747   5.603   0.575
 2033TIP3    H1 6042   4.810   5.672   0.593
 2033TIP3    H2 6043   4.689   5.602   0.651
 2034TIP3   OH2 6044   0.978   4.036   4.760
 2034TIP3    H1 6045   0.981   3.953   4.713
 2034TIP3    H2 6046   0.924   4.093   4.704
 2035TIP3   OH2 6047   6.273   1.042   5.108
 2035TIP3    H1 6048   6.186   1.020   5.141
 2035TIP3    H2 6049   6.333   0.996   5.166
 2036TIP3   OH2 6050   7.173   2.996   1.826
 2036TIP3    H1 6051   7.208   3.075   1.785
 2036TIP3    H2 6052   7.185   3.010   1.920
 2037TIP3   OH2 6053   8.016   4.527   4.666
 2037TIP3    H1 6054   7.949   4.583   4.630
 2037TIP3    H2 6055   8.033   4.562   4.754
 2038TIP3   OH2 6056   8.214   0.363   0.055
 2038TIP3    H1 6057   8.179   0.409  -0.021
 2038TIP3    H2 6058   8.308   0.379   0.053
 2039TIP3   OH2 6059   1.408   2.895   6.459
 2039TIP3    H1 6060   1.487   2.920   6.506
 2039TIP3    H2 6061   1.337   2.918   6.519
 2040TIP3   OH2 6062   3.925   4.024   0.159
 2040TIP3    H1 6063   4.001   3.970   0.135
 2040TIP3    H2 6064   3.962   4.111   0.174
 2041TIP3   OH2 6065   1.982   3.004   4.199
 2041TIP3    H1 6066   1.927   3.071   4.158
 2041TIP3    H2 6067   2.061   3.002   4.145
 2042TIP3   OH2 6068   7.214   1.940   1.618
 2042TIP3    H1 6069   7.242   1.999   1.688
 2042TIP3    H2 6070   7.222   1.992   1.538
 2043TIP3   OH2 6071   6.047   5.635   5.414
 2043TIP3    H1 6072   6.071   5.674   5.498
 2043TIP3    H2 6073   6.081   5.546   5.418
 2044TIP3   OH2 6074   6.165   0.333   2.286
 2044TIP3    H1 6075   6.077   0.310   2.315
 2044TIP3    H2 6076   6.190   0.261   2.228
 2045TIP3   OH2 6077   0.248   2.539   4.320
 2045TIP3    H1 6078   0.230   2.484   4.396
 2045TIP3    H2 6079   0.194   2.504   4.250
 2046TIP3   OH2 6080   3.563   0.368   4.544
 2046TIP3    H1 6081   3.655   0.377   4.520
 2046TIP3    H2 6082   3.558   0.406   4.632
 2047TIP3   OH2 6083   3.320   0.583   2.337
 2047TIP3    H1 6084   3.307   0.500   2.291
 2047TIP3    H2 6085   3.240   0.595   2.388
 2048TIP3   OH2 6086   5.762   2.303   5.167
 2048TIP3    H1 6087   5.713   2.255   5.100
 2048TIP3    H2 6088   5.845   2.325   5.124
 2049TIP3   OH2 6089   2.746   4.704   4.951
 2049TIP3    H1 6090   2.651   4.694   4.948
 2049TIP3    H2 6091   2.763   4.785   4.903
 2050TIP3   OH2 6092   4.809   0.558   1.474
 2050TIP3    H1 6093   4.730   0.505   1.491
 2050TIP3    H2 6094   4.876   0.517   1.529
 2051TIP3   OH2 6095   2.809   1.380   4.059
 2051TIP3    H1 6096   2.769   1.294   4.046
 2051TIP3    H2 6097   2.879   1.384   3.994
 2052TIP3   OH2 6098   7.447   5.096   4.868
 2052TIP3    H1 6099   7.506   5.132   4.934
 2052TIP3    H2 6100   7.360   5.119   4.899
 2053TIP3   OH2 6101   1.530   1.578   6.506
 2053TIP3    H1 6102   1.623   1.561   6.522
 2053TIP3    H2 6103   1.529   1.651   6.444
 2054TIP3   OH2 6104   2.424   1.987   6.734
 2054TIP3    H1 6105   2.353   2.022   6.788
 2054TIP3    H2 6106   2.428   2.045   6.659
 2055TIP3   OH2 6107   5.918   6.902   1.643
 2055TIP3    H1 6108   5.893   6.975   1.700
 2055TIP3    H2 6109   5.847   6.897   1.579
 2056TIP3   OH2 6110   8.119   2.489   6.318
 2056TIP3    H1 6111   8.080   2.497   6.231
 2056TIP3    H2 6112   8.202   2.536   6.311
 2057TIP3   OH2 6113   8.234   3.848   4.367
 2057TIP3    H1 6114   8.329   3.857   4.356
 2057TIP3    H2 6115   8.213   3.905   4.441
 2058TIP3   OH2 6116   5.690   5.335   5.300
 2058TIP3    H1 6117   5.772   5.367   5.262
 2058TIP3    H2 6118   5.717   5.291   5.381
 2059TIP3   OH2 6119   8.071   7.367   6.101
 2059TIP3    H1 6120   8.052   7.273   6.100
 2059TIP3    H2 6121   8.054   7.394   6.191
 2060TIP3   OH2 6122   4.667   6.141   2.049
 2060TIP3    H1 6123   4.705   6.217   2.093
 2060TIP3    H2 6124   4.601   6.178   1.991
 2061TIP3   OH2 6125   3.167   3.875   3.317
 2061TIP3    H1 6126   3.095   3.851   3.375
 2061TIP3    H2 6127   3.180   3.969   3.333
 2062TIP3   OH2 6128   0.878   7.679   6.319
 2062TIP3    H1 6129   0.899   7.668   6.226
 2062TIP3    H2 6130   0.803   7.622   6.333
 2063TIP3   OH2 6131   0.618   5.672   1.157
 2063TIP3    H1 6132   0.568   5.592   1.141
 2063TIP3    H2 6133   0.708   5.649   1.132
 2064TIP3   OH2 6134   2.521   4.083   2.141
 2064TIP3    H1 6135   2.537   3.988   2.141
 2064TIP3    H2 6136   2.577   4.117   2.211
 2065TIP3   OH2 6137   1.570   3.805   2.865
 2065TIP3    H1 6138   1.576   3.821   2.959
 2065TIP3    H2 6139   1.660   3.783   2.838
 2066TIP3   OH2 6140   0.214   3.800   4.334
 2066TIP3    H1 6141   0.213   3.729   4.270
 2066TIP3    H2 6142   0.233   3.757   4.418
 2067TIP3   OH2 6143   1.651   7.009   5.671
 2067TIP3    H1 6144   1.667   7.100   5.644
 2067TIP3    H2 6145   1.738   6.973   5.686
 2068TIP3   OH2 6146   6.743   2.949   1.869
 2068TIP3    H1 6147   6.715   2.982   1.954
 2068TIP3    H2 6148   6.745   3.026   1.812
 2069TIP3   OH2 6149   4.218   4.961   3.156
 2069TIP3    H1 6150   4.236   4.880   3.108
 2069TIP3    H2 6151   4.276   5.026   3.116
 2070TIP3   OH2 6152   4.765   0.667   0.310
 2070TIP3    H1 6153   4.763   0.584   0.262
 2070TIP3    H2 6154   4.824   0.651   0.383
 2071TIP3   OH2 6155   5.152   1.589   2.091
 2071TIP3    H1 6156   5.074   1.546   2.126
 2071TIP3    H2 6157   5.224   1.555   2.144
 2072TIP3   OH2 6158   1.921   4.939   3.919
 2072TIP3    H1 6159   1.840   4.894   3.895
 2072TIP3    H2 6160   1.900   4.986   3.999
 2073TIP3   OH2 6161   3.155   4.606   0.779
 2073TIP3    H1 6162   3.065   4.626   0.802
 2073TIP3    H2 6163   3.205   4.681   0.811
 2074TIP3   OH2 6164   1.126   1.033   2.509
 2074TIP3    H1 6165   1.039   1.010   2.475
 2074TIP3    H2 6166   1.111   1.110   2.563
 2075TIP3   OH2 6167   1.587   7.188   3.878
 2075TIP3    H1 6168   1.640   7.128   3.930
 2075TIP3    H2 6169   1.608   7.166   3.787
 2076TIP3   OH2 6170   1.116   1.523   0.256
 2076TIP3    H1 6171   1.036   1.523   0.203
 2076TIP3    H2 6172   1.084   1.517   0.346
 2077TIP3   OH2 6173   7.875   1.711   4.688
 2077TIP3    H1 6174   7.918   1.681   4.608
 2077TIP3    H2 6175   7.931   1.781   4.721
 2078TIP3   OH2 6176   5.073   2.775   5.202
 2078TIP3    H1 6177   4.985   2.809   5.217
 2078TIP3    H2 6178   5.088   2.787   5.108
 2079TIP3   OH2 6179   5.922   6.259   2.114
 2079TIP3    H1 6180   5.908   6.345   2.074
 2079TIP3    H2 6181   5.866   6.200   2.064
 2080TIP3   OH2 6182   5.470   2.561   6.271
 2080TIP3    H1 6183   5.434   2.477   6.300
 2080TIP3    H2 6184   5.449   2.565   6.178
 2081TIP3   OH2 6185   3.849   6.687   3.914
 2081TIP3    H1 6186   3.788   6.661   3.844
 2081TIP3    H2 6187   3.877   6.775   3.889
 2082TIP3   OH2 6188   7.064   4.654   0.228
 2082TIP3    H1 6189   6.979   4.610   0.229
 2082TIP3    H2 6190   7.126   4.586   0.254
 2083TIP3   OH2 6191   7.519   2.182   2.187
 2083TIP3    H1 6192   7.539   2.100   2.231
 2083TIP3    H2 6193   7.604   2.227   2.182
 2084TIP3   OH2 6194   7.237   6.048   2.530
 2084TIP3    H1 6195   7.297   6.091   2.470
 2084TIP3    H2 6196   7.173   6.005   2.474
 2085TIP3   OH2 6197   6.868   4.548   4.034
 2085TIP3    H1 6198   6.943   4.594   3.996
 2085TIP3    H2 6199   6.843   4.601   4.109
 2086TIP3   OH2 6200   2.394   2.600   6.380
 2086TIP3    H1 6201   2.364   2.683   6.342
 2086TIP3    H2 6202   2.403   2.541   6.306
 2087TIP3   OH2 6203   1.895   4.882   6.487
 2087TIP3    H1 6204   1.815   4.846   6.449
 2087TIP3    H2 6205   1.917   4.821   6.558
 2088TIP3   OH2 6206   1.797   5.253   1.072
 2088TIP3    H1 6207   1.880   5.296   1.092
 2088TIP3    H2 6208   1.778   5.279   0.982
 2089TIP3   OH2 6209   6.333   6.919   4.267
 2089TIP3    H1 6210   6.325   7.013   4.252
 2089TIP3    H2 6211   6.321   6.879   4.181
 2090TIP3   OH2 6212   1.029   1.059   5.856
 2090TIP3    H1 6213   0.994   1.007   5.784
 2090TIP3    H2 6214   0.981   1.142   5.851
 2091TIP3   OH2 6215   7.466   0.854   5.884
 2091TIP3    H1 6216   7.525   0.802   5.938
 2091TIP3    H2 6217   7.386   0.863   5.935
 2092TIP3   OH2 6218   5.997   3.177   1.087
 2092TIP3    H1 6219   5.954   3.093   1.104
 2092TIP3    H2 6220   5.956   3.209   1.007
 2093TIP3   OH2 6221   3.102   6.526   1.025
 2093TIP3    H1 6222   3.132   6.498   1.112
 2093TIP3    H2 6223   3.013   6.491   1.018
 2094TIP3   OH2 6224   0.658   7.263   1.904
 2094TIP3    H1 6225   0.699   7.270   1.990
 2094TIP3    H2 6226   0.593   7.334   1.903
 2095TIP3   OH2 6227   2.955   6.440   6.637
 2095TIP3    H1 6228   2.910   6.481   6.711
 2095TIP3    H2 6229   2.917   6.353   6.630
 2096TIP3   OH2 6230   4.665   0.586   5.863
 2096TIP3    H1 6231   4.665   0.667   5.915
 2096TIP3    H2 6232   4.632   0.613   5.777
 2097TIP3   OH2 6233   0.975   5.499   0.199
 2097TIP3    H1 6234   1.010   5.532   0.282
 2097TIP3    H2 6235   0.885   5.473   0.220
 2098TIP3   OH2 6236   1.070   5.719   4.193
 2098TIP3    H1 6237   1.027   5.784   4.137
 2098TIP3    H2 6238   1.038   5.635   4.162
 2099TIP3   OH2 6239   6.622   5.970   5.686
 2099TIP3    H1 6240   6.649   6.057   5.660
 2099TIP3    H2 6241   6.650   5.912   5.615
 2100TIP3   OH2 6242   1.787   4.700   2.728
 2100TIP3    H1 6243   1.753   4.767   2.787
 2100TIP3    H2 6244   1.747   4.720   2.643
 2101TIP3   OH2 6245   0.424   1.703   4.276
 2101TIP3    H1 6246   0.368   1.690   4.352
 2101TIP3    H2 6247   0.379   1.769   4.224
 2102TIP3   OH2 6248   1.824   5.015   5.166
 2102TIP3    H1 6249   1.882   4.977   5.100
 2102TIP3    H2 6250   1.843   4.965   5.246
 2103TIP3   OH2 6251   2.024   3.907   3.349
 2103TIP3    H1 6252   1.960   3.965   3.309
 2103TIP3    H2 6253   2.024   3.829   3.294
 2104TIP3   OH2 6254   5.944   7.385   5.957
 2104TIP3    H1 6255   5.859   7.353   5.987
 2104TIP3    H2 6256   5.925   7.469   5.916
 2105TIP3   OH2 6257   0.400   6.743   2.987
 2105TIP3    H1 6258   0.312   6.706   2.996
 2105TIP3    H2 6259   0.442   6.726   3.071
 2106TIP3   OH2 6260   6.435   7.185   4.211
 2106TIP3    H1 6261   6.510   7.244   4.214
 2106TIP3    H2 6262   6.360   7.242   4.227
 2107TIP3   OH2 6263   3.523   1.081   5.929
 2107TIP3    H1 6264   3.508   1.050   5.839
 2107TIP3    H2 6265   3.565   1.166   5.918
 2108TIP3   OH2 6266   4.523   2.190   1.742
 2108TIP3    H1 6267   4.514   2.102   1.780
 2108TIP3    H2 6268   4.559   2.243   1.813
 2109TIP3   OH2 6269   1.004   3.092   6.421
 2109TIP3    H1 6270   0.929   3.136   6.460
 2109TIP3    H2 6271   1.041   3.040   6.492
 2110TIP3   OH2 6272   6.004   6.397   3.197
 2110TIP3    H1 6273   6.048   6.348   3.266
 2110TIP3    H2 6274   6.036   6.359   3.115
 2111TIP3   OH2 6275   0.568   4.331   1.600
 2111TIP3    H1 6276   0.609   4.292   1.678
 2111TIP3    H2 6277   0.636   4.387   1.562
 2112TIP3   OH2 6278   2.680   5.107   3.833
 2112TIP3    H1 6279   2.678   5.072   3.922
 2112TIP3    H2 6280   2.738   5.183   3.839
 2113TIP3   OH2 6281   4.712   4.428   1.552
 2113TIP3    H1 6282   4.715   4.405   1.645
 2113TIP3    H2 6283   4.701   4.523   1.551
 2114TIP3   OH2 6284   3.038   0.249   4.870
 2114TIP3    H1 6285   3.082   0.310   4.811
 2114TIP3    H2 6286   3.109   0.202   4.914
 2115TIP3   OH2 6287   6.479   1.199   5.848
 2115TIP3    H1 6288   6.571   1.181   5.830
 2115TIP3    H2 6289   6.463   1.161   5.934
 2116TIP3   OH2 6290   8.003   3.289   1.949
 2116TIP3    H1 6291   8.004   3.207   1.998
 2116TIP3    H2 6292   8.094   3.318   1.948
 2117TIP3   OH2 6293   2.561   2.016   1.154
 2117TIP3    H1 6294   2.536   2.109   1.160
 2117TIP3    H2 6295   2.598   1.996   1.240
 2118TIP3   OH2 6296   4.513   5.126   6.289
 2118TIP3    H1 6297   4.577   5.124   6.219
 2118TIP3    H2 6298   4.475   5.038   6.289
 2119TIP3   OH2 6299   6.696   7.425   3.567
 2119TIP3    H1 6300   6.733   7.450   3.482
 2119TIP3    H2 6301   6.624   7.365   3.545
 2120TIP3   OH2 6302   0.312   4.141   6.637
 2120TIP3    H1 6303   0.320   4.235   6.620
 2120TIP3    H2 6304   0.218   4.126   6.640
 2121TIP3   OH2 6305   4.230   0.473   6.537
 2121TIP3    H1 6306   4.265   0.393   6.577
 2121TIP3    H2 6307   4.300   0.537   6.549
 2122TIP3   OH2 6308   1.155   6.184   4.793
 2122TIP3    H1 6309   1.082   6.185   4.732
 2122TIP3    H2 6310   1.114   6.194   4.879
 2123TIP3   OH2 6311   3.294   1.858   2.275
 2123TIP3    H1 6312   3.284   1.841   2.181
 2123TIP3    H2 6313   3.287   1.771   2.315
 2124TIP3   OH2 6314   7.770   0.005   4.583
 2124TIP3    H1 6315   7.707   0.034   4.516
 2124TIP3    H2 6316   7.853   0.045   4.556
 2125TIP3   OH2 6317   7.944   5.360   6.754
 2125TIP3    H1 6318   7.978   5.284   6.707
 2125TIP3    H2 6319   7.985   5.435   6.712
 2126TIP3   OH2 6320   1.319   3.251   4.385
 2126TIP3    H1 6321   1.233   3.243   4.427
 2126TIP3    H2 6322   1.352   3.336   4.415
 2127TIP3   OH2 6323   7.352   6.980   0.396
 2127TIP3    H1 6324   7.324   6.903   0.445
 2127TIP3    H2 6325   7.420   7.020   0.451
 2128TIP3   OH2 6326   6.421   0.434   3.693
 2128TIP3    H1 6327   6.372   0.437   3.775
 2128TIP3    H2 6328   6.376   0.496   3.636
 2129TIP3   OH2 6329   6.145   3.619   3.619
 2129TIP3    H1 6330   6.081   3.669   3.670
 2129TIP3    H2 6331   6.200   3.685   3.578
 2130TIP3   OH2 6332   5.673   2.837   5.549
 2130TIP3    H1 6333   5.682   2.743   5.535
 2130TIP3    H2 6334   5.723   2.876   5.477
 2131TIP3   OH2 6335   0.619   6.787   5.020
 2131TIP3    H1 6336   0.657   6.735   4.949
 2131TIP3    H2 6337   0.612   6.726   5.093
 2132TIP3   OH2 6338   7.846   1.771   4.183
 2132TIP3    H1 6339   7.802   1.692   4.214
 2132TIP3    H2 6340   7.876   1.815   4.262
 2133TIP3   OH2 6341   0.759   3.947   0.422
 2133TIP3    H1 6342   0.737   3.981   0.335
 2133TIP3    H2 6343   0.824   4.008   0.456
 2134TIP3   OH2 6344   5.459   7.559   1.062
 2134TIP3    H1 6345   5.385   7.499   1.051
 2134TIP3    H2 6346   5.536   7.503   1.062
 2135TIP3   OH2 6347   1.892   1.578   6.546
 2135TIP3    H1 6348   1.982   1.601   6.567
 2135TIP3    H2 6349   1.892   1.566   6.451
 2136TIP3   OH2 6350   1.344   3.944   3.129
 2136TIP3    H1 6351   1.361   3.897   3.211
 2136TIP3    H2 6352   1.424   3.993   3.112
 2137TIP3   OH2 6353   0.117   3.935   0.349
 2137TIP3    H1 6354   0.135   3.964   0.260
 2137TIP3    H2 6355   0.199   3.951   0.397
 2138TIP3   OH2 6356   6.684   0.036   6.798
 2138TIP3    H1 6357   6.691  -0.006   6.712
 2138TIP3    H2 6358   6.695   0.129   6.779
 2139TIP3   OH2 6359   0.684   4.367   0.833
 2139TIP3    H1 6360   0.749   4.307   0.797
 2139TIP3    H2 6361   0.600   4.326   0.814
 2140TIP3   OH2 6362   0.721   7.811   6.528
 2140TIP3    H1 6363   0.787   7.841   6.590
 2140TIP3    H2 6364   0.770   7.789   6.449
 2141TIP3   OH2 6365   1.089   4.080   2.913
 2141TIP3    H1 6366   1.179   4.070   2.882
 2141TIP3    H2 6367   1.037   4.023   2.857
 2142TIP3   OH2 6368   1.901   5.700   6.010
 2142TIP3    H1 6369   1.846   5.778   6.004
 2142TIP3    H2 6370   1.852   5.640   6.067
 2143TIP3   OH2 6371   2.738   4.351   4.304
 2143TIP3    H1 6372   2.832   4.366   4.293
 2143TIP3    H2 6373   2.701   4.438   4.320
 2144TIP3   OH2 6374   6.212   1.289   1.996
 2144TIP3    H1 6375   6.245   1.371   1.961
 2144TIP3    H2 6376   6.288   1.247   2.037
 2145TIP3   OH2 6377   5.780   0.769   6.246
 2145TIP3    H1 6378   5.690   0.736   6.243
 2145TIP3    H2 6379   5.812   0.744   6.333
 2146TIP3   OH2 6380   3.679   3.365   1.478
 2146TIP3    H1 6381   3.683   3.388   1.570
 2146TIP3    H2 6382   3.743   3.422   1.436
 2147TIP3   OH2 6383   6.720   4.865   0.260
 2147TIP3    H1 6384   6.697   4.774   0.276
 2147TIP3    H2 6385   6.637   4.912   0.265
 2148TIP3   OH2 6386   4.649   2.523   5.517
 2148TIP3    H1 6387   4.666   2.438   5.477
 2148TIP3    H2 6388   4.653   2.585   5.444
 2149TIP3   OH2 6389   2.524   1.742   1.692
 2149TIP3    H1 6390   2.437   1.702   1.693
 2149TIP3    H2 6391   2.514   1.822   1.743
 2150TIP3   OH2 6392   6.288   7.040   2.815
 2150TIP3    H1 6393   6.341   6.961   2.822
 2150TIP3    H2 6394   6.318   7.083   2.734
 2151TIP3   OH2 6395   3.586   3.776   3.712
 2151TIP3    H1 6396   3.501   3.783   3.755
 2151TIP3    H2 6397   3.572   3.714   3.641
 2152TIP3   OH2 6398   1.078   4.085   6.219
 2152TIP3    H1 6399   1.117   4.157   6.269
 2152TIP3    H2 6400   1.149   4.021   6.209
 2153TIP3   OH2 6401   7.260   4.970   0.655
 2153TIP3    H1 6402   7.202   4.925   0.593
 2153TIP3    H2 6403   7.296   5.043   0.605
 2154TIP3   OH2 6404   4.591   3.744   5.589
 2154TIP3    H1 6405   4.651   3.730   5.515
 2154TIP3    H2 6406   4.643   3.789   5.655
 2155TIP3   OH2 6407   5.889   1.939   3.818
 2155TIP3    H1 6408   5.885   1.999   3.745
 2155TIP3    H2 6409   5.966   1.966   3.868
 2156TIP3   OH2 6410   0.790   6.462   4.303
 2156TIP3    H1 6411   0.708   6.464   4.253
 2156TIP3    H2 6412   0.781   6.533   4.366
 2157TIP3   OH2 6413   8.240   2.526   0.519
 2157TIP3    H1 6414   8.262   2.600   0.463
 2157TIP3    H2 6415   8.324   2.486   0.540
 2158TIP3   OH2 6416   4.619   2.731   3.697
 2158TIP3    H1 6417   4.540   2.776   3.668
 2158TIP3    H2 6418   4.655   2.788   3.765
 2159TIP3   OH2 6419   5.925   3.262   0.387
 2159TIP3    H1 6420   6.009   3.299   0.361
 2159TIP3    H2 6421   5.925   3.173   0.353
 2160TIP3   OH2 6422   0.119   1.800   3.989
 2160TIP3    H1 6423   0.038   1.803   3.938
 2160TIP3    H2 6424   0.157   1.715   3.968
 2161TIP3   OH2 6425   1.014   5.725   5.910
 2161TIP3    H1 6426   0.979   5.654   5.963
 2161TIP3    H2 6427   1.004   5.803   5.964
 2162TIP3   OH2 6428   5.403   3.529   3.467
 2162TIP3    H1 6429   5.355   3.605   3.498
 2162TIP3    H2 6430   5.433   3.554   3.379
 2163TIP3   OH2 6431   2.939   1.562   3.102
 2163TIP3    H1 6432   2.995   1.583   3.028
 2163TIP3    H2 6433   2.929   1.646   3.149
 2164TIP3   OH2 6434   7.812   2.443   4.234
 2164TIP3    H1 6435   7.731   2.471   4.191
 2164TIP3    H2 6436   7.854   2.385   4.171
 2165TIP3   OH2 6437   7.250   3.868   2.339
 2165TIP3    H1 6438   7.209   3.864   2.425
 2165TIP3    H2 6439   7.339   3.835   2.353
 2166TIP3   OH2 6440   3.957   5.871   1.009
 2166TIP3    H1 6441   3.971   5.796   0.950
 2166TIP3    H2 6442   3.964   5.834   1.097
 2167TIP3   OH2 6443   5.746   2.813   2.058
 2167TIP3    H1 6444   5.678   2.768   2.008
 2167TIP3    H2 6445   5.712   2.901   2.073
 2168TIP3   OH2 6446   7.495   0.679   6.502
 2168TIP3    H1 6447   7.565   0.639   6.451
 2168TIP3    H2 6448   7.514   0.655   6.593
 2169TIP3   OH2 6449   1.127   4.832   3.525
 2169TIP3    H1 6450   1.081   4.916   3.535
 2169TIP3    H2 6451   1.059   4.766   3.536
 2170TIP3   OH2 6452   5.196   0.172   4.205
 2170TIP3    H1 6453   5.246   0.180   4.286
 2170TIP3    H2 6454   5.236   0.097   4.160
 2171TIP3   OH2 6455   2.401   6.047   2.665
 2171TIP3    H1 6456   2.330   6.111   2.654
 2171TIP3    H2 6457   2.360   5.973   2.709
 2172TIP3   OH2 6458   8.295   5.071   0.633
 2172TIP3    H1 6459   8.260   5.151   0.671
 2172TIP3    H2 6460   8.370   5.100   0.580
 2173TIP3   OH2 6461   3.560   5.383   2.913
 2173TIP3    H1 6462   3.549   5.443   2.839
 2173TIP3    H2 6463   3.614   5.431   2.975
 2174TIP3   OH2 6464   2.869   4.190   4.673
 2174TIP3    H1 6465   2.785   4.200   4.628
 2174TIP3    H2 6466   2.869   4.261   4.738
 2175TIP3   OH2 6467   6.100   7.726   2.129
 2175TIP3    H1 6468   6.111   7.642   2.174
 2175TIP3    H2 6469   6.108   7.704   2.036
 2176TIP3   OH2 6470   1.290   3.953   6.317
 2176TIP3    H1 6471   1.384   3.937   6.325
 2176TIP3    H2 6472   1.260   3.975   6.405
 2177TIP3   OH2 6473   3.106   2.406   5.882
 2177TIP3    H1 6474   3.109   2.405   5.786
 2177TIP3    H2 6475   3.012   2.409   5.902
 2178TIP3   OH2 6476   5.077   7.371   1.263
 2178TIP3    H1 6477   5.039   7.289   1.296
 2178TIP3    H2 6478   5.010   7.437   1.283
 2179TIP3   OH2 6479   6.240   6.301   1.376
 2179TIP3    H1 6480   6.172   6.303   1.309
 2179TIP3    H2 6481   6.253   6.393   1.400
 2180TIP3   OH2 6482   4.574   1.926   1.093
 2180TIP3    H1 6483   4.565   1.832   1.107
 2180TIP3    H2 6484   4.669   1.941   1.092
 2181TIP3   OH2 6485   3.056   5.894   6.507
 2181TIP3    H1 6486   3.123   5.927   6.568
 2181TIP3    H2 6487   3.025   5.813   6.547
 2182TIP3   OH2 6488   5.377   6.821   2.339
 2182TIP3    H1 6489   5.388   6.804   2.432
 2182TIP3    H2 6490   5.286   6.849   2.330
 2183TIP3   OH2 6491   3.620   5.693   4.495
 2183TIP3    H1 6492   3.705   5.650   4.499
 2183TIP3    H2 6493   3.619   5.753   4.569
 2184TIP3   OH2 6494   7.549   2.988   5.387
 2184TIP3    H1 6495   7.461   3.012   5.357
 2184TIP3    H2 6496   7.535   2.915   5.447
 2185TIP3   OH2 6497   3.250   6.819   3.801
 2185TIP3    H1 6498   3.206   6.902   3.821
 2185TIP3    H2 6499   3.313   6.807   3.871
 2186TIP3   OH2 6500   7.245   4.483   3.224
 2186TIP3    H1 6501   7.200   4.567   3.230
 2186TIP3    H2 6502   7.232   4.455   3.134
 2187TIP3   OH2 6503   0.054   3.820   4.792
 2187TIP3    H1 6504   0.038   3.747   4.852
 2187TIP3    H2 6505  -0.024   3.874   4.798
 2188TIP3   OH2 6506   5.954   6.068   4.937
 2188TIP3    H1 6507   5.897   6.014   4.992
 2188TIP3    H2 6508   5.961   6.020   4.855
 2189TIP3   OH2 6509   1.755   3.666   3.357
 2189TIP3    H1 6510   1.771   3.689   3.449
 2189TIP3    H2 6511   1.842   3.655   3.319
 2190TIP3   OH2 6512   2.176   3.271   3.558
 2190TIP3    H1 6513   2.226   3.193   3.537
 2190TIP3    H2 6514   2.120   3.246   3.631
 2191TIP3   OH2 6515   2.017   0.853   6.263
 2191TIP3    H1 6516   2.043   0.767   6.297
 2191TIP3    H2 6517   1.926   0.841   6.236
 2192TIP3   OH2 6518   4.297   6.894   6.621
 2192TIP3    H1 6519   4.261   6.887   6.533
 2192TIP3    H2 6520   4.367   6.959   6.613
 2193TIP3   OH2 6521   3.559   3.582   6.685
 2193TIP3    H1 6522   3.501   3.506   6.699
 2193TIP3    H2 6523   3.590   3.571   6.595
 2194TIP3   OH2 6524   3.725   6.254   2.992
 2194TIP3    H1 6525   3.780   6.330   3.010
 2194TIP3    H2 6526   3.636   6.285   3.010
 2195TIP3   OH2 6527   5.023   1.853   2.518
 2195TIP3    H1 6528   5.008   1.804   2.437
 2195TIP3    H2 6529   5.108   1.894   2.505
 2196TIP3   OH2 6530   1.009   7.640   1.079
 2196TIP3    H1 6531   0.923   7.667   1.110
 2196TIP3    H2 6532   0.991   7.586   1.002
 2197TIP3   OH2 6533   8.158   7.796   5.863
 2197TIP3    H1 6534   8.143   7.752   5.779
 2197TIP3    H2 6535   8.088   7.764   5.920
 2198TIP3   OH2 6536   3.131   1.192   5.033
 2198TIP3    H1 6537   3.082   1.204   5.114
 2198TIP3    H2 6538   3.064   1.174   4.967
 2199TIP3   OH2 6539   3.854   0.372   5.136
 2199TIP3    H1 6540   3.870   0.321   5.056
 2199TIP3    H2 6541   3.919   0.339   5.198
 2200TIP3   OH2 6542   0.088   0.298   2.322
 2200TIP3    H1 6543   0.142   0.332   2.393
 2200TIP3    H2 6544   0.099   0.203   2.328
 2201TIP3   OH2 6545   7.462   0.102   2.404
 2201TIP3    H1 6546   7.479   0.166   2.334
 2201TIP3    H2 6547   7.486   0.148   2.485
 2202TIP3   OH2 6548   7.100   5.329   0.524
 2202TIP3    H1 6549   7.146   5.289   0.451
 2202TIP3    H2 6550   7.054   5.404   0.486
 2203TIP3   OH2 6551   2.112   2.706   0.428
 2203TIP3    H1 6552   2.072   2.754   0.501
 2203TIP3    H2 6553   2.133   2.773   0.363
 2204TIP3   OH2 6554   3.032   3.541   0.177
 2204TIP3    H1 6555   3.008   3.495   0.257
 2204TIP3    H2 6556   3.045   3.632   0.204
 2205TIP3   OH2 6557   4.936   4.027   0.706
 2205TIP3    H1 6558   4.994   3.990   0.773
 2205TIP3    H2 6559   4.922   3.956   0.643
 2206TIP3   OH2 6560   6.644   5.309   0.237
 2206TIP3    H1 6561   6.558   5.276   0.265
 2206TIP3    H2 6562   6.704   5.283   0.306
 2207TIP3   OH2 6563   0.650   3.370   5.736
 2207TIP3    H1 6564   0.724   3.320   5.703
 2207TIP3    H2 6565   0.681   3.461   5.739
 2208TIP3   OH2 6566   5.358   5.554   3.363
 2208TIP3    H1 6567   5.282   5.498   3.378
 2208TIP3    H2 6568   5.361   5.567   3.269
 2209TIP3   OH2 6569   3.958   4.159   3.639
 2209TIP3    H1 6570   3.953   4.203   3.723
 2209TIP3    H2 6571   3.913   4.217   3.578
 2210TIP3   OH2 6572   4.297   5.310   1.257
 2210TIP3    H1 6573   4.388   5.283   1.253
 2210TIP3    H2 6574   4.251   5.246   1.201
 2211TIP3   OH2 6575   5.490   5.104   6.061
 2211TIP3    H1 6576   5.407   5.149   6.081
 2211TIP3    H2 6577   5.519   5.069   6.145
 2212TIP3   OH2 6578   7.179   5.466   1.665
 2212TIP3    H1 6579   7.169   5.371   1.670
 2212TIP3    H2 6580   7.238   5.480   1.591
 2213TIP3   OH2 6581   0.831   1.047   1.775
 2213TIP3    H1 6582   0.861   1.072   1.862
 2213TIP3    H2 6583   0.896   1.083   1.715
 2214TIP3   OH2 6584   5.734   0.481   1.830
 2214TIP3    H1 6585   5.667   0.414   1.842
 2214TIP3    H2 6586   5.816   0.435   1.850
 2215TIP3   OH2 6587   5.376   1.249   0.152
 2215TIP3    H1 6588   5.362   1.160   0.119
 2215TIP3    H2 6589   5.299   1.267   0.206
 2216TIP3   OH2 6590   1.360   5.449   6.255
 2216TIP3    H1 6591   1.313   5.366   6.255
 2216TIP3    H2 6592   1.448   5.427   6.287
 2217TIP3   OH2 6593   4.616   0.178   0.149
 2217TIP3    H1 6594   4.552   0.132   0.202
 2217TIP3    H2 6595   4.564   0.220   0.080
 2218TIP3   OH2 6596   4.902   2.138   4.533
 2218TIP3    H1 6597   4.972   2.177   4.481
 2218TIP3    H2 6598   4.923   2.045   4.537
 2219TIP3   OH2 6599   4.934   7.171   1.652
 2219TIP3    H1 6600   4.941   7.154   1.558
 2219TIP3    H2 6601   4.888   7.095   1.687
 2220TIP3   OH2 6602   2.028   0.193   0.275
 2220TIP3    H1 6603   2.024   0.127   0.344
 2220TIP3    H2 6604   2.115   0.232   0.285
 2221TIP3   OH2 6605   2.167   4.001   5.217
 2221TIP3    H1 6606   2.156   3.917   5.173
 2221TIP3    H2 6607   2.244   3.989   5.273
 2222TIP3   OH2 6608   0.136   3.543   2.340
 2222TIP3    H1 6609   0.068   3.515   2.401
 2222TIP3    H2 6610   0.144   3.637   2.355
 2223TIP3   OH2 6611   5.872   5.587   0.041
 2223TIP3    H1 6612   5.811   5.540  -0.017
 2223TIP3    H2 6613   5.842   5.567   0.129
 2224TIP3   OH2 6614   4.081   1.679   5.903
 2224TIP3    H1 6615   4.007   1.727   5.941
 2224TIP3    H2 6616   4.056   1.666   5.812
 2225TIP3   OH2 6617   5.936   7.429   0.906
 2225TIP3    H1 6618   5.888   7.377   0.842
 2225TIP3    H2 6619   6.006   7.470   0.855
 2226TIP3   OH2 6620   5.145   2.330   6.812
 2226TIP3    H1 6621   5.190   2.256   6.771
 2226TIP3    H2 6622   5.095   2.370   6.740
 2227TIP3   OH2 6623   5.527   2.383   3.518
 2227TIP3    H1 6624   5.622   2.397   3.518
 2227TIP3    H2 6625   5.516   2.291   3.497
 2228TIP3   OH2 6626   5.643   4.387   5.176
 2228TIP3    H1 6627   5.617   4.303   5.214
 2228TIP3    H2 6628   5.650   4.447   5.250
 2229TIP3   OH2 6629   6.568   2.106   4.050
 2229TIP3    H1 6630   6.542   2.154   4.128
 2229TIP3    H2 6631   6.651   2.147   4.024
 2230TIP3   OH2 6632   5.612   1.472   2.843
 2230TIP3    H1 6633   5.606   1.479   2.938
 2230TIP3    H2 6634   5.599   1.561   2.811
 2231TIP3   OH2 6635   6.700   3.827   6.089
 2231TIP3    H1 6636   6.741   3.838   6.175
 2231TIP3    H2 6637   6.765   3.861   6.027
 2232TIP3   OH2 6638   5.907   1.608   5.223
 2232TIP3    H1 6639   5.878   1.693   5.190
 2232TIP3    H2 6640   5.893   1.548   5.149
 2233TIP3   OH2 6641   5.200   4.555   2.615
 2233TIP3    H1 6642   5.161   4.468   2.623
 2233TIP3    H2 6643   5.176   4.600   2.695
 2234TIP3   OH2 6644   6.106   3.404   3.427
 2234TIP3    H1 6645   6.078   3.332   3.484
 2234TIP3    H2 6646   6.097   3.482   3.481
 2235TIP3   OH2 6647   8.149   0.601   0.981
 2235TIP3    H1 6648   8.202   0.676   1.007
 2235TIP3    H2 6649   8.130   0.616   0.888
 2236TIP3   OH2 6650   7.359   2.908   0.839
 2236TIP3    H1 6651   7.326   2.824   0.870
 2236TIP3    H2 6652   7.340   2.908   0.745
 2237TIP3   OH2 6653   7.600   6.465   3.170
 2237TIP3    H1 6654   7.651   6.390   3.202
 2237TIP3    H2 6655   7.626   6.537   3.227
 2238TIP3   OH2 6656   6.872   6.132   3.032
 2238TIP3    H1 6657   6.935   6.203   3.043
 2238TIP3    H2 6658   6.926   6.053   3.023
 2239TIP3   OH2 6659   0.780   6.890   2.957
 2239TIP3    H1 6660   0.846   6.827   2.928
 2239TIP3    H2 6661   0.704   6.874   2.901
 2240TIP3   OH2 6662   3.843   4.677   5.632
 2240TIP3    H1 6663   3.869   4.699   5.543
 2240TIP3    H2 6664   3.764   4.730   5.648
 2241TIP3   OH2 6665   5.448   1.246   6.216
 2241TIP3    H1 6666   5.531   1.268   6.259
 2241TIP3    H2 6667   5.439   1.151   6.229
 2242TIP3   OH2 6668   0.915   5.299   3.740
 2242TIP3    H1 6669   0.920   5.232   3.672
 2242TIP3    H2 6670   0.954   5.376   3.699
 2243TIP3   OH2 6671   6.922   0.266   1.556
 2243TIP3    H1 6672   6.976   0.214   1.497
 2243TIP3    H2 6673   6.984   0.301   1.620
 2244TIP3   OH2 6674   2.915   3.449   3.068
 2244TIP3    H1 6675   2.853   3.425   3.136
 2244TIP3    H2 6676   2.942   3.538   3.090
 2245TIP3   OH2 6677   1.268   6.362   5.400
 2245TIP3    H1 6678   1.340   6.372   5.462
 2245TIP3    H2 6679   1.309   6.328   5.321
 2246TIP3   OH2 6680   2.591   5.702   2.571
 2246TIP3    H1 6681   2.638   5.691   2.489
 2246TIP3    H2 6682   2.503   5.671   2.553
 2247TIP3   OH2 6683   2.947   2.057   6.359
 2247TIP3    H1 6684   2.916   1.976   6.319
 2247TIP3    H2 6685   2.940   2.042   6.453
 2248TIP3   OH2 6686   8.113   4.947   4.720
 2248TIP3    H1 6687   8.040   4.901   4.679
 2248TIP3    H2 6688   8.106   4.925   4.813
 2249TIP3   OH2 6689   6.488   2.304   3.546
 2249TIP3    H1 6690   6.572   2.260   3.536
 2249TIP3    H2 6691   6.510   2.392   3.574
 2250TIP3   OH2 6692   4.043   1.464   0.149
 2250TIP3    H1 6693   3.976   1.398   0.130
 2250TIP3    H2 6694   4.110   1.450   0.081
 2251TIP3   OH2 6695   4.274   6.211   5.372
 2251TIP3    H1 6696   4.335   6.143   5.343
 2251TIP3    H2 6697   4.219   6.228   5.295
 2252TIP3   OH2 6698   2.810   2.746   3.855
 2252TIP3    H1 6699   2.814   2.836   3.822
 2252TIP3    H2 6700   2.901   2.724   3.875
 2253TIP3   OH2 6701   2.850   6.879   5.971
 2253TIP3    H1 6702   2.849   6.788   5.999
 2253TIP3    H2 6703   2.849   6.930   6.052
 2254TIP3   OH2 6704   7.348   0.556   0.077
 2254TIP3    H1 6705   7.375   0.465   0.068
 2254TIP3    H2 6706   7.348   0.571   0.172
 2255TIP3   OH2 6707   5.350   3.434   6.124
 2255TIP3    H1 6708   5.310   3.347   6.126
 2255TIP3    H2 6709   5.437   3.421   6.163
 2256TIP3   OH2 6710   4.123   3.781   5.999
 2256TIP3    H1 6711   4.213   3.758   5.976
 2256TIP3    H2 6712   4.132   3.852   6.063
 2257TIP3   OH2 6713   5.856   1.910   1.689
 2257TIP3    H1 6714   5.886   1.873   1.605
 2257TIP3    H2 6715   5.908   1.990   1.700
 2258TIP3   OH2 6716   7.026   0.577   1.580
 2258TIP3    H1 6717   7.095   0.640   1.560
 2258TIP3    H2 6718   6.973   0.619   1.648
 2259TIP3   OH2 6719   0.324   1.906   4.130
 2259TIP3    H1 6720   0.320   2.000   4.145
 2259TIP3    H2 6721   0.248   1.887   4.075
 2260TIP3   OH2 6722   5.923   1.409   0.173
 2260TIP3    H1 6723   5.925   1.498   0.138
 2260TIP3    H2 6724   5.888   1.419   0.261
 2261TIP3   OH2 6725   3.749   1.945   6.252
 2261TIP3    H1 6726   3.685   1.893   6.203
 2261TIP3    H2 6727   3.735   2.035   6.220
 2262TIP3   OH2 6728   7.607   4.679   0.745
 2262TIP3    H1 6729   7.655   4.673   0.828
 2262TIP3    H2 6730   7.627   4.767   0.712
 2263TIP3   OH2 6731   0.111   4.535   0.145
 2263TIP3    H1 6732   0.108   4.446   0.112
 2263TIP3    H2 6733   0.027   4.547   0.189
 2264TIP3   OH2 6734   5.382   1.545   2.255
 2264TIP3    H1 6735   5.389   1.459   2.296
 2264TIP3    H2 6736   5.380   1.607   2.328
 2265TIP3   OH2 6737   7.819   3.620   5.367
 2265TIP3    H1 6738   7.730   3.643   5.342
 2265TIP3    H2 6739   7.850   3.562   5.297
 2266TIP3   OH2 6740   7.362   7.379   3.145
 2266TIP3    H1 6741   7.269   7.395   3.160
 2266TIP3    H2 6742   7.379   7.296   3.188
 2267TIP3   OH2 6743   3.604   3.302   6.435
 2267TIP3    H1 6744   3.556   3.296   6.518
 2267TIP3    H2 6745   3.695   3.314   6.462
 2268TIP3   OH2 6746   1.691   4.414   5.819
 2268TIP3    H1 6747   1.629   4.470   5.865
 2268TIP3    H2 6748   1.645   4.389   5.738
 2269TIP3   OH2 6749   5.634   2.822   3.070
 2269TIP3    H1 6750   5.566   2.755   3.072
 2269TIP3    H2 6751   5.700   2.787   3.010
 2270TIP3   OH2 6752   5.460   4.004   4.169
 2270TIP3    H1 6753   5.406   4.065   4.120
 2270TIP3    H2 6754   5.419   4.000   4.255
 2271TIP3   OH2 6755   7.634   1.718   4.909
 2271TIP3    H1 6756   7.607   1.651   4.846
 2271TIP3    H2 6757   7.648   1.671   4.991
 2272TIP3   OH2 6758   4.395   0.245   6.605
 2272TIP3    H1 6759   4.430   0.208   6.687
 2272TIP3    H2 6760   4.312   0.201   6.592
 2273TIP3   OH2 6761   5.045   1.680   0.166
 2273TIP3    H1 6762   5.120   1.622   0.151
 2273TIP3    H2 6763   5.031   1.675   0.261
 2274TIP3   OH2 6764   0.812   7.167   3.758
 2274TIP3    H1 6765   0.906   7.156   3.770
 2274TIP3    H2 6766   0.803   7.257   3.726
 2275TIP3   OH2 6767   3.933   3.926   4.118
 2275TIP3    H1 6768   3.913   3.906   4.026
 2275TIP3    H2 6769   4.028   3.918   4.124
 2276TIP3   OH2 6770   0.109   6.156   2.242
 2276TIP3    H1 6771   0.018   6.154   2.212
 2276TIP3    H2 6772   0.144   6.238   2.207
 2277TIP3   OH2 6773   2.104   3.582   0.155
 2277TIP3    H1 6774   2.160   3.506   0.142
 2277TIP3    H2 6775   2.075   3.607   0.067
 2278TIP3   OH2 6776   5.555   7.021   0.619
 2278TIP3    H1 6777   5.462   7.001   0.613
 2278TIP3    H2 6778   5.587   7.013   0.529
 2279TIP3   OH2 6779   5.311   2.026   3.817
 2279TIP3    H1 6780   5.402   2.052   3.835
 2279TIP3    H2 6781   5.285   1.975   3.893
 2280TIP3   OH2 6782   1.367   0.223   1.053
 2280TIP3    H1 6783   1.388   0.228   0.959
 2280TIP3    H2 6784   1.283   0.178   1.056
 2281TIP3   OH2 6785   0.074   1.236   1.117
 2281TIP3    H1 6786   0.093   1.327   1.094
 2281TIP3    H2 6787   0.111   1.185   1.045
 2282TIP3   OH2 6788   8.050   3.869   3.466
 2282TIP3    H1 6789   8.093   3.927   3.528
 2282TIP3    H2 6790   8.114   3.800   3.448
 2283TIP3   OH2 6791   3.577   2.725   0.138
 2283TIP3    H1 6792   3.599   2.672   0.215
 2283TIP3    H2 6793   3.490   2.760   0.157
 2284TIP3   OH2 6794   2.244   1.281   4.921
 2284TIP3    H1 6795   2.273   1.279   4.829
 2284TIP3    H2 6796   2.194   1.200   4.932
 2285TIP3   OH2 6797   4.377   2.965   5.978
 2285TIP3    H1 6798   4.322   2.909   6.033
 2285TIP3    H2 6799   4.460   2.971   6.026
 2286TIP3   OH2 6800   6.309   6.121   4.136
 2286TIP3    H1 6801   6.223   6.081   4.146
 2286TIP3    H2 6802   6.300   6.208   4.174
 2287TIP3   OH2 6803   7.091   1.462   2.035
 2287TIP3    H1 6804   7.151   1.403   1.990
 2287TIP3    H2 6805   7.019   1.406   2.064
 2288TIP3   OH2 6806   8.135   4.244   3.969
 2288TIP3    H1 6807   8.218   4.226   3.925
 2288TIP3    H2 6808   8.127   4.173   4.033
 2289TIP3   OH2 6809   4.870   2.827   6.543
 2289TIP3    H1 6810   4.879   2.843   6.637
 2289TIP3    H2 6811   4.796   2.767   6.536
 2290TIP3   OH2 6812   3.374   3.166   6.329
 2290TIP3    H1 6813   3.334   3.210   6.404
 2290TIP3    H2 6814   3.467   3.160   6.351
 2291TIP3   OH2 6815   5.355   2.772   2.929
 2291TIP3    H1 6816   5.434   2.727   2.899
 2291TIP3    H2 6817   5.283   2.726   2.886
 2292TIP3   OH2 6818   3.074   5.073   2.130
 2292TIP3    H1 6819   3.077   5.122   2.212
 2292TIP3    H2 6820   3.161   5.086   2.091
 2293TIP3   OH2 6821   6.585   5.878   1.656
 2293TIP3    H1 6822   6.516   5.938   1.683
 2293TIP3    H2 6823   6.544   5.792   1.658
 2294TIP3   OH2 6824   0.195   1.434   3.657
 2294TIP3    H1 6825   0.216   1.343   3.678
 2294TIP3    H2 6826   0.099   1.437   3.654
 2295TIP3   OH2 6827   0.799   3.724   4.405
 2295TIP3    H1 6828   0.832   3.665   4.337
 2295TIP3    H2 6829   0.745   3.787   4.358
 2296TIP3   OH2 6830   6.310   7.291   6.680
 2296TIP3    H1 6831   6.370   7.222   6.710
 2296TIP3    H2 6832   6.367   7.367   6.666
 2297TIP3   OH2 6833   4.478   2.509   0.430
 2297TIP3    H1 6834   4.389   2.534   0.404
 2297TIP3    H2 6835   4.466   2.429   0.482
 2298TIP3   OH2 6836   8.234   2.388   1.945
 2298TIP3    H1 6837   8.321   2.394   1.983
 2298TIP3    H2 6838   8.175   2.407   2.018
 2299TIP3   OH2 6839   4.557   3.349   1.880
 2299TIP3    H1 6840   4.632   3.376   1.827
 2299TIP3    H2 6841   4.595   3.298   1.951
 2300TIP3   OH2 6842   6.648   2.478   4.110
 2300TIP3    H1 6843   6.654   2.434   4.195
 2300TIP3    H2 6844   6.558   2.463   4.081
 2301TIP3   OH2 6845   7.994   3.465   0.563
 2301TIP3    H1 6846   7.941   3.391   0.592
 2301TIP3    H2 6847   8.071   3.462   0.619
 2302TIP3   OH2 6848   2.098   4.537   0.422
 2302TIP3    H1 6849   2.092   4.608   0.487
 2302TIP3    H2 6850   2.028   4.556   0.360
 2303TIP3   OH2 6851   4.195   3.355   4.587
 2303TIP3    H1 6852   4.100   3.363   4.590
 2303TIP3    H2 6853   4.213   3.267   4.618
 2304TIP3   OH2 6854   3.348   0.360   1.745
 2304TIP3    H1 6855   3.428   0.407   1.724
 2304TIP3    H2 6856   3.282   0.428   1.755
 2305TIP3   OH2 6857   5.185   3.832   2.710
 2305TIP3    H1 6858   5.271   3.873   2.722
 2305TIP3    H2 6859   5.130   3.902   2.674
 2306TIP3   OH2 6860   0.894   2.396   2.728
 2306TIP3    H1 6861   0.803   2.401   2.756
 2306TIP3    H2 6862   0.895   2.441   2.643
 2307TIP3   OH2 6863   5.932   7.557   4.828
 2307TIP3    H1 6864   5.921   7.466   4.857
 2307TIP3    H2 6865   5.924   7.553   4.733
 2308TIP3   OH2 6866   7.957   4.574   3.505
 2308TIP3    H1 6867   7.917   4.502   3.552
 2308TIP3    H2 6868   8.029   4.603   3.561
 2309TIP3   OH2 6869   2.605   3.836   4.054
 2309TIP3    H1 6870   2.612   3.929   4.075
 2309TIP3    H2 6871   2.670   3.793   4.109
 2310TIP3   OH2 6872   0.726   7.212   3.152
 2310TIP3    H1 6873   0.755   7.174   3.069
 2310TIP3    H2 6874   0.636   7.238   3.136
 2311TIP3   OH2 6875   1.959   0.784   0.233
 2311TIP3    H1 6876   2.053   0.798   0.222
 2311TIP3    H2 6877   1.924   0.870   0.255
 2312TIP3   OH2 6878   6.531   3.450   1.001
 2312TIP3    H1 6879   6.581   3.419   1.077
 2312TIP3    H2 6880   6.589   3.434   0.927
 2313TIP3   OH2 6881   0.514   1.645   5.150
 2313TIP3    H1 6882   0.535   1.728   5.193
 2313TIP3    H2 6883   0.431   1.663   5.105
 2314TIP3   OH2 6884   6.956   0.177   3.328
 2314TIP3    H1 6885   6.943   0.265   3.293
 2314TIP3    H2 6886   6.999   0.129   3.257
 2315TIP3   OH2 6887   5.292   7.709   4.080
 2315TIP3    H1 6888   5.271   7.623   4.044
 2315TIP3    H2 6889   5.229   7.722   4.151
 2316TIP3   OH2 6890   4.698   1.750   2.596
 2316TIP3    H1 6891   4.663   1.827   2.550
 2316TIP3    H2 6892   4.625   1.720   2.650
 2317TIP3   OH2 6893   7.363   0.512   4.378
 2317TIP3    H1 6894   7.281   0.556   4.355
 2317TIP3    H2 6895   7.353   0.490   4.471
 2318TIP3   OH2 6896   1.410   7.442   1.989
 2318TIP3    H1 6897   1.455   7.409   1.912
 2318TIP3    H2 6898   1.451   7.527   2.006
 2319TIP3   OH2 6899   4.419   4.639   3.670
 2319TIP3    H1 6900   4.439   4.677   3.755
 2319TIP3    H2 6901   4.435   4.546   3.680
 2320TIP3   OH2 6902   5.696   1.450   1.216
 2320TIP3    H1 6903   5.751   1.442   1.138
 2320TIP3    H2 6904   5.609   1.421   1.187
 2321TIP3   OH2 6905   2.421   0.577  -0.007
 2321TIP3    H1 6906   2.413   0.668   0.023
 2321TIP3    H2 6907   2.332   0.543  -0.004
 2322TIP3   OH2 6908   1.497   5.538   5.766
 2322TIP3    H1 6909   1.477   5.491   5.847
 2322TIP3    H2 6910   1.414   5.541   5.719
 2323TIP3   OH2 6911   4.027   4.325   4.212
 2323TIP3    H1 6912   4.020   4.372   4.130
 2323TIP3    H2 6913   3.979   4.378   4.275
 2324TIP3   OH2 6914   1.346   3.994   0.679
 2324TIP3    H1 6915   1.430   3.949   0.685
 2324TIP3    H2 6916   1.356   4.053   0.605
 2325TIP3   OH2 6917   0.849   1.130   5.078
 2325TIP3    H1 6918   0.818   1.061   5.136
 2325TIP3    H2 6919   0.787   1.202   5.092
 2326TIP3   OH2 6920   2.372   7.626   5.417
 2326TIP3    H1 6921   2.310   7.690   5.453
 2326TIP3    H2 6922   2.458   7.664   5.433
 2327TIP3   OH2 6923   7.380   4.531   3.560
 2327TIP3    H1 6924   7.393   4.507   3.652
 2327TIP3    H2 6925   7.292   4.570   3.558
 2328TIP3   OH2 6926   8.178   6.634   6.354
 2328TIP3    H1 6927   8.263   6.630   6.399
 2328TIP3    H2 6928   8.168   6.548   6.313
 2329TIP3   OH2 6929   3.479   4.897   5.887
 2329TIP3    H1 6930   3.395   4.912   5.845
 2329TIP3    H2 6931   3.483   4.962   5.957
 2330TIP3   OH2 6932   7.187   2.954   5.829
 2330TIP3    H1 6933   7.103   2.997   5.841
 2330TIP3    H2 6934   7.186   2.924   5.738
 2331TIP3   OH2 6935   4.702   6.666   5.770
 2331TIP3    H1 6936   4.734   6.675   5.860
 2331TIP3    H2 6937   4.765   6.607   5.728
 2332TIP3   OH2 6938   3.870   4.470   4.381
 2332TIP3    H1 6939   3.829   4.438   4.462
 2332TIP3    H2 6940   3.832   4.557   4.368
 2333TIP3   OH2 6941   5.137   4.771   1.592
 2333TIP3    H1 6942   5.191   4.704   1.551
 2333TIP3    H2 6943   5.183   4.853   1.576
 2334TIP3   OH2 6944   6.647   0.125   5.624
 2334TIP3    H1 6945   6.686   0.104   5.710
 2334TIP3    H2 6946   6.722   0.131   5.565
 2335TIP3   OH2 6947   1.660   6.532   1.098
 2335TIP3    H1 6948   1.577   6.545   1.144
 2335TIP3    H2 6949   1.662   6.603   1.033
 2336TIP3   OH2 6950   1.255   3.107   2.408
 2336TIP3    H1 6951   1.220   3.087   2.321
 2336TIP3    H2 6952   1.287   3.197   2.400
 2337TIP3   OH2 6953   7.820   7.219   4.647
 2337TIP3    H1 6954   7.828   7.148   4.583
 2337TIP3    H2 6955   7.869   7.189   4.723
 2338TIP3   OH2 6956   4.076   7.594   5.736
 2338TIP3    H1 6957   4.120   7.647   5.669
 2338TIP3    H2 6958   4.140   7.588   5.807
 2339TIP3   OH2 6959   4.371   6.109   2.254
 2339TIP3    H1 6960   4.386   6.083   2.163
 2339TIP3    H2 6961   4.295   6.168   2.250
 2340TIP3   OH2 6962   1.678   4.940   6.140
 2340TIP3    H1 6963   1.691   4.874   6.208
 2340TIP3    H2 6964   1.669   4.890   6.059
 2341TIP3   OH2 6965   5.637   7.606   5.493
 2341TIP3    H1 6966   5.542   7.609   5.488
 2341TIP3    H2 6967   5.666   7.610   5.402
 2342TIP3   OH2 6968   2.151   0.974   4.611
 2342TIP3    H1 6969   2.174   0.888   4.646
 2342TIP3    H2 6970   2.060   0.966   4.583
 2343TIP3   OH2 6971   0.807   3.502   5.318
 2343TIP3    H1 6972   0.807   3.583   5.369
 2343TIP3    H2 6973   0.733   3.452   5.354
 2344TIP3   OH2 6974   2.134   4.543   1.692
 2344TIP3    H1 6975   2.187   4.465   1.672
 2344TIP3    H2 6976   2.153   4.563   1.783
 2345TIP3   OH2 6977   5.030   0.940   1.262
 2345TIP3    H1 6978   5.042   0.944   1.356
 2345TIP3    H2 6979   5.014   0.847   1.244
 2346TIP3   OH2 6980   6.540   3.634   3.348
 2346TIP3    H1 6981   6.462   3.607   3.396
 2346TIP3    H2 6982   6.543   3.729   3.358
 2347TIP3   OH2 6983   0.890   6.334   1.399
 2347TIP3    H1 6984   0.880   6.396   1.471
 2347TIP3    H2 6985   0.834   6.368   1.329
 2348TIP3   OH2 6986   4.507   5.728   3.200
 2348TIP3    H1 6987   4.566   5.682   3.259
 2348TIP3    H2 6988   4.419   5.707   3.233
 2349TIP3   OH2 6989   7.872   6.247   1.612
 2349TIP3    H1 6990   7.844   6.258   1.521
 2349TIP3    H2 6991   7.951   6.300   1.620
 2350TIP3   OH2 6992   5.084   1.505   6.667
 2350TIP3    H1 6993   5.080   1.409   6.661
 2350TIP3    H2 6994   5.048   1.525   6.753
 2351TIP3   OH2 6995   0.768   3.043   3.191
 2351TIP3    H1 6996   0.840   3.059   3.130
 2351TIP3    H2 6997   0.760   3.124   3.240
 2352TIP3   OH2 6998   0.341   4.593   0.753
 2352TIP3    H1 6999   0.357   4.684   0.779
 2352TIP3    H2 7000   0.417   4.570   0.699
 2353TIP3   OH2 7001   6.382   2.473   4.646
 2353TIP3    H1 7002   6.316   2.534   4.678
 2353TIP3    H2 7003   6.465   2.517   4.661
 2354TIP3   OH2 7004   2.653   3.819   4.787
 2354TIP3    H1 7005   2.725   3.779   4.835
 2354TIP3    H2 7006   2.591   3.748   4.773
 2355TIP3   OH2 7007   3.414   4.156   1.767
 2355TIP3    H1 7008   3.359   4.224   1.807
 2355TIP3    H2 7009   3.390   4.076   1.813
 2356TIP3   OH2 7010   4.549   0.989   5.086
 2356TIP3    H1 7011   4.530   1.000   5.179
 2356TIP3    H2 7012   4.597   1.068   5.061
 2357TIP3   OH2 7013   7.758   4.621   5.775
 2357TIP3    H1 7014   7.778   4.668   5.694
 2357TIP3    H2 7015   7.833   4.640   5.832
 2358TIP3   OH2 7016   0.449   2.941   5.022
 2358TIP3    H1 7017   0.536   2.979   5.033
 2358TIP3    H2 7018   0.390   3.016   5.014
 2359TIP3   OH2 7019   6.616   6.563   5.600
 2359TIP3    H1 7020   6.563   6.508   5.542
 2359TIP3    H2 7021   6.706   6.551   5.568
 2360TIP3   OH2 7022   2.441   7.077   4.235
 2360TIP3    H1 7023   2.499   7.082   4.159
 2360TIP3    H2 7024   2.444   6.984   4.260
 2361TIP3   OH2 7025   2.294   3.878   0.514
 2361TIP3    H1 7026   2.261   3.811   0.454
 2361TIP3    H2 7027   2.318   3.951   0.457
 2362TIP3   OH2 7028   0.235   3.591   1.228
 2362TIP3    H1 7029   0.300   3.660   1.224
 2362TIP3    H2 7030   0.195   3.590   1.141
 2363TIP3   OH2 7031   4.398   3.275   3.646
 2363TIP3    H1 7032   4.456   3.200   3.656
 2363TIP3    H2 7033   4.404   3.322   3.729
 2364TIP3   OH2 7034   7.356   6.603   3.165
 2364TIP3    H1 7035   7.347   6.587   3.259
 2364TIP3    H2 7036   7.430   6.547   3.138
 2365TIP3   OH2 7037   4.157   0.157   4.367
 2365TIP3    H1 7038   4.184   0.133   4.456
 2365TIP3    H2 7039   4.105   0.082   4.337
 2366TIP3   OH2 7040   0.078   6.185   5.950
 2366TIP3    H1 7041   0.120   6.224   5.874
 2366TIP3    H2 7042   0.017   6.121   5.914
 2367TIP3   OH2 7043   4.417   6.446   5.442
 2367TIP3    H1 7044   4.346   6.480   5.497
 2367TIP3    H2 7045   4.377   6.374   5.393
 2368TIP3   OH2 7046   2.230   1.024   2.047
 2368TIP3    H1 7047   2.252   1.062   1.962
 2368TIP3    H2 7048   2.260   0.933   2.040
 2369TIP3   OH2 7049   2.317   4.412   2.801
 2369TIP3    H1 7050   2.313   4.320   2.826
 2369TIP3    H2 7051   2.240   4.452   2.843
 2370TIP3   OH2 7052   5.399   5.929   5.323
 2370TIP3    H1 7053   5.358   6.005   5.281
 2370TIP3    H2 7054   5.407   5.953   5.415
 2371TIP3   OH2 7055   5.240   3.910   5.459
 2371TIP3    H1 7056   5.216   3.896   5.551
 2371TIP3    H2 7057   5.325   3.953   5.463
 2372TIP3   OH2 7058   8.314   2.765   0.422
 2372TIP3    H1 7059   8.258   2.818   0.479
 2372TIP3    H2 7060   8.312   2.811   0.338
 2373TIP3   OH2 7061   6.727   2.095   4.913
 2373TIP3    H1 7062   6.790   2.073   4.844
 2373TIP3    H2 7063   6.672   2.017   4.922
 2374TIP3   OH2 7064   0.830   2.084   6.018
 2374TIP3    H1 7065   0.746   2.039   6.004
 2374TIP3    H2 7066   0.806   2.177   6.020
 2375TIP3   OH2 7067   5.725   2.880   0.431
 2375TIP3    H1 7068   5.651   2.942   0.428
 2375TIP3    H2 7069   5.728   2.852   0.522
 2376TIP3   OH2 7070   1.688   4.778   2.276
 2376TIP3    H1 7071   1.626   4.834   2.323
 2376TIP3    H2 7072   1.634   4.726   2.217
 2377TIP3   OH2 7073   3.309   5.330   6.080
 2377TIP3    H1 7074   3.363   5.404   6.109
 2377TIP3    H2 7075   3.251   5.313   6.154
 2378TIP3   OH2 7076   1.311   5.868   0.418
 2378TIP3    H1 7077   1.352   5.940   0.371
 2378TIP3    H2 7078   1.278   5.810   0.350
 2379TIP3   OH2 7079   4.234   1.656   0.804
 2379TIP3    H1 7080   4.209   1.747   0.821
 2379TIP3    H2 7081   4.247   1.618   0.891
 2380TIP3   OH2 7082   1.104   0.045   5.279
 2380TIP3    H1 7083   1.148   0.089   5.206
 2380TIP3    H2 7084   1.067  -0.034   5.241
 2381TIP3   OH2 7085   5.005   6.090   0.870
 2381TIP3    H1 7086   4.912   6.109   0.873
 2381TIP3    H2 7087   5.036   6.103   0.960
 2382TIP3   OH2 7088   4.322   4.594   4.033
 2382TIP3    H1 7089   4.336   4.562   4.122
 2382TIP3    H2 7090   4.242   4.647   4.039
 2383TIP3   OH2 7091   0.574   6.938   5.691
 2383TIP3    H1 7092   0.604   6.865   5.745
 2383TIP3    H2 7093   0.537   6.897   5.613
 2384TIP3   OH2 7094   1.294   3.229   0.688
 2384TIP3    H1 7095   1.346   3.308   0.671
 2384TIP3    H2 7096   1.346   3.158   0.650
 2385TIP3   OH2 7097   3.887   6.440   3.108
 2385TIP3    H1 7098   3.839   6.505   3.058
 2385TIP3    H2 7099   3.934   6.490   3.175
 2386TIP3   OH2 7100   3.956   3.558   5.963
 2386TIP3    H1 7101   3.980   3.529   5.875
 2386TIP3    H2 7102   4.015   3.632   5.981
 2387TIP3   OH2 7103   3.457   7.717   2.286
 2387TIP3    H1 7104   3.393   7.680   2.346
 2387TIP3    H2 7105   3.509   7.777   2.339
 2388TIP3   OH2 7106   1.943   2.430   3.208
 2388TIP3    H1 7107   1.942   2.335   3.220
 2388TIP3    H2 7108   1.857   2.450   3.173
 2389TIP3   OH2 7109   2.939   0.794   2.650
 2389TIP3    H1 7110   2.938   0.786   2.745
 2389TIP3    H2 7111   2.876   0.865   2.631
 2390TIP3   OH2 7112   6.723   2.430   2.237
 2390TIP3    H1 7113   6.681   2.494   2.294
 2390TIP3    H2 7114   6.806   2.411   2.279
 2391TIP3   OH2 7115   1.561   3.248   0.881
 2391TIP3    H1 7116   1.474   3.211   0.899
 2391TIP3    H2 7117   1.550   3.342   0.893
 2392TIP3   OH2 7118   3.727   6.038   5.511
 2392TIP3    H1 7119   3.674   5.989   5.574
 2392TIP3    H2 7120   3.798   5.979   5.487
 2393TIP3   OH2 7121   5.536   6.847   5.674
 2393TIP3    H1 7122   5.476   6.870   5.745
 2393TIP3    H2 7123   5.622   6.875   5.705
 2394TIP3   OH2 7124   5.744   1.763   3.965
 2394TIP3    H1 7125   5.774   1.831   3.906
 2394TIP3    H2 7126   5.744   1.683   3.912
 2395TIP3   OH2 7127   2.129   2.775   0.750
 2395TIP3    H1 7128   2.057   2.714   0.759
 2395TIP3    H2 7129   2.197   2.741   0.807
 2396TIP3   OH2 7130   7.117   3.426   3.591
 2396TIP3    H1 7131   7.144   3.366   3.660
 2396TIP3    H2 7132   7.188   3.490   3.585
 2397TIP3   OH2 7133   1.715   4.458   6.430
 2397TIP3    H1 7134   1.727   4.378   6.482
 2397TIP3    H2 7135   1.715   4.428   6.339
 2398TIP3   OH2 7136   0.130   2.215   6.156
 2398TIP3    H1 7137   0.149   2.191   6.247
 2398TIP3    H2 7138   0.084   2.139   6.121
 2399TIP3   OH2 7139   3.041   3.916   6.054
 2399TIP3    H1 7140   3.133   3.940   6.064
 2399TIP3    H2 7141   3.005   3.922   6.143
 2400TIP3   OH2 7142   1.122   1.002   4.166
 2400TIP3    H1 7143   1.210   1.032   4.146
 2400TIP3    H2 7144   1.127   0.969   4.256
 2401TIP3   OH2 7145   7.578   7.015   2.823
 2401TIP3    H1 7146   7.625   7.054   2.897
 2401TIP3    H2 7147   7.561   7.088   2.764
 2402TIP3   OH2 7148   7.509   0.693   1.867
 2402TIP3    H1 7149   7.440   0.753   1.896
 2402TIP3    H2 7150   7.557   0.742   1.800
 2403TIP3   OH2 7151   4.392   6.894   3.916
 2403TIP3    H1 7152   4.487   6.898   3.902
 2403TIP3    H2 7153   4.372   6.801   3.919
 2404TIP3   OH2 7154   2.803   2.893   5.067
 2404TIP3    H1 7155   2.895   2.909   5.044
 2404TIP3    H2 7156   2.774   2.828   5.002
 2405TIP3   OH2 7157   7.347   7.013   0.106
 2405TIP3    H1 7158   7.286   7.087   0.104
 2405TIP3    H2 7159   7.345   6.983   0.197
 2406TIP3   OH2 7160   7.133   0.091   1.042
 2406TIP3    H1 7161   7.223   0.061   1.032
 2406TIP3    H2 7162   7.085   0.048   0.971
 2407TIP3   OH2 7163   1.985   6.016   0.301
 2407TIP3    H1 7164   2.016   5.940   0.252
 2407TIP3    H2 7165   1.952   5.979   0.383
 2408TIP3   OH2 7166   0.680   2.957   5.305
 2408TIP3    H1 7167   0.756   2.981   5.358
 2408TIP3    H2 7168   0.705   2.980   5.215
 2409TIP3   OH2 7169   4.872   0.182   5.143
 2409TIP3    H1 7170   4.947   0.126   5.124
 2409TIP3    H2 7171   4.810   0.163   5.073
 2410TIP3   OH2 7172   5.935   6.407   5.035
 2410TIP3    H1 7173   5.970   6.329   5.079
 2410TIP3    H2 7174   5.862   6.374   4.982
 2411TIP3   OH2 7175   8.247   1.709   3.778
 2411TIP3    H1 7176   8.275   1.741   3.692
 2411TIP3    H2 7177   8.176   1.647   3.760
 2412TIP3   OH2 7178   2.672   3.298   6.015
 2412TIP3    H1 7179   2.645   3.341   5.934
 2412TIP3    H2 7180   2.628   3.348   6.084
 2413TIP3   OH2 7181   0.010   3.020   3.146
 2413TIP3    H1 7182   0.013   3.103   3.193
 2413TIP3    H2 7183  -0.075   2.982   3.169
 2414TIP3   OH2 7184   5.183   3.046   5.306
 2414TIP3    H1 7185   5.198   3.119   5.245
 2414TIP3    H2 7186   5.194   2.967   5.252
 2415TIP3   OH2 7187   7.411   4.440   1.797
 2415TIP3    H1 7188   7.411   4.480   1.884
 2415TIP3    H2 7189   7.424   4.513   1.736
 2416TIP3   OH2 7190   1.435   1.811   5.068
 2416TIP3    H1 7191   1.455   1.787   5.159
 2416TIP3    H2 7192   1.483   1.747   5.015
 2417TIP3   OH2 7193   4.232   2.600   0.241
 2417TIP3    H1 7194   4.199   2.531   0.183
 2417TIP3    H2 7195   4.165   2.607   0.310
 2418TIP3   OH2 7196   5.659   5.400   1.466
 2418TIP3    H1 7197   5.614   5.417   1.383
 2418TIP3    H2 7198   5.725   5.335   1.444
 2419TIP3   OH2 7199   7.652   5.509   2.866
 2419TIP3    H1 7200   7.686   5.502   2.956
 2419TIP3    H2 7201   7.725   5.545   2.816
 2420TIP3   OH2 7202   7.017   0.604   2.540
 2420TIP3    H1 7203   7.010   0.670   2.471
 2420TIP3    H2 7204   6.960   0.533   2.511
 2421TIP3   OH2 7205   2.024   6.062   1.464
 2421TIP3    H1 7206   2.039   6.020   1.549
 2421TIP3    H2 7207   2.001   6.152   1.485
 2422TIP3   OH2 7208   3.772   7.005   0.452
 2422TIP3    H1 7209   3.720   7.009   0.533
 2422TIP3    H2 7210   3.796   7.096   0.434
 2423TIP3   OH2 7211   1.773   3.419   1.576
 2423TIP3    H1 7212   1.790   3.506   1.542
 2423TIP3    H2 7213   1.749   3.433   1.667
 2424TIP3   OH2 7214   2.805   0.109   2.054
 2424TIP3    H1 7215   2.850   0.168   2.114
 2424TIP3    H2 7216   2.775   0.165   1.982
 2425TIP3   OH2 7217   6.544   6.941   3.242
 2425TIP3    H1 7218   6.449   6.953   3.249
 2425TIP3    H2 7219   6.575   7.023   3.204
 2426TIP3   OH2 7220   1.218   6.847   2.616
 2426TIP3    H1 7221   1.214   6.787   2.542
 2426TIP3    H2 7222   1.169   6.804   2.686
 2427TIP3   OH2 7223   1.301   4.311   2.369
 2427TIP3    H1 7224   1.210   4.285   2.357
 2427TIP3    H2 7225   1.335   4.248   2.433
 2428TIP3   OH2 7226   3.734   0.847   3.492
 2428TIP3    H1 7227   3.648   0.817   3.522
 2428TIP3    H2 7228   3.735   0.941   3.513
 2429TIP3   OH2 7229   0.382   4.833   0.898
 2429TIP3    H1 7230   0.459   4.886   0.919
 2429TIP3    H2 7231   0.308   4.893   0.911
 2430TIP3   OH2 7232   1.960   7.511   4.828
 2430TIP3    H1 7233   2.050   7.477   4.826
 2430TIP3    H2 7234   1.947   7.549   4.742
 2431TIP3   OH2 7235   1.643   2.065   1.421
 2431TIP3    H1 7236   1.609   2.137   1.368
 2431TIP3    H2 7237   1.611   1.986   1.378
 2432TIP3   OH2 7238   7.066   0.315   4.106
 2432TIP3    H1 7239   7.054   0.409   4.121
 2432TIP3    H2 7240   7.158   0.306   4.082
 2433TIP3   OH2 7241   7.479   0.636   5.279
 2433TIP3    H1 7242   7.521   0.720   5.264
 2433TIP3    H2 7243   7.532   0.573   5.229
 2434TIP3   OH2 7244   8.162   7.608   5.654
 2434TIP3    H1 7245   8.171   7.514   5.665
 2434TIP3    H2 7246   8.201   7.627   5.569
 2435TIP3   OH2 7247   6.323   1.299   6.276
 2435TIP3    H1 7248   6.288   1.212   6.256
 2435TIP3    H2 7249   6.269   1.330   6.349
 2436TIP3   OH2 7250   4.845   6.271   1.102
 2436TIP3    H1 7251   4.919   6.211   1.109
 2436TIP3    H2 7252   4.772   6.215   1.074
 2437TIP3   OH2 7253   8.176   2.701   4.698
 2437TIP3    H1 7254   8.179   2.646   4.620
 2437TIP3    H2 7255   8.095   2.676   4.742
 2438TIP3   OH2 7256   7.393   1.292   2.401
 2438TIP3    H1 7257   7.468   1.351   2.400
 2438TIP3    H2 7258   7.430   1.206   2.421
 2439TIP3   OH2 7259   6.483   7.220   1.689
 2439TIP3    H1 7260   6.570   7.204   1.653
 2439TIP3    H2 7261   6.482   7.176   1.773
 2440TIP3   OH2 7262   5.213   1.489   6.102
 2440TIP3    H1 7263   5.176   1.402   6.117
 2440TIP3    H2 7264   5.142   1.549   6.124
 2441TIP3   OH2 7265   3.624   2.403   3.124
 2441TIP3    H1 7266   3.647   2.415   3.216
 2441TIP3    H2 7267   3.541   2.449   3.113
 2442TIP3   OH2 7268   4.337   5.210   3.066
 2442TIP3    H1 7269   4.416   5.250   3.102
 2442TIP3    H2 7270   4.339   5.233   2.973
 2443TIP3   OH2 7271   3.220   7.338   0.908
 2443TIP3    H1 7272   3.314   7.354   0.906
 2443TIP3    H2 7273   3.211   7.243   0.893
 2444TIP3   OH2 7274   2.894   7.164   6.399
 2444TIP3    H1 7275   2.866   7.219   6.472
 2444TIP3    H2 7276   2.913   7.226   6.328
 2445TIP3   OH2 7277   6.935   0.665   3.725
 2445TIP3    H1 7278   6.991   0.726   3.774
 2445TIP3    H2 7279   6.872   0.634   3.790
 2446TIP3   OH2 7280   2.186   4.545   1.971
 2446TIP3    H1 7281   2.145   4.493   2.040
 2446TIP3    H2 7282   2.274   4.565   2.004
 2447TIP3   OH2 7283   7.739   7.441   0.943
 2447TIP3    H1 7284   7.833   7.427   0.927
 2447TIP3    H2 7285   7.729   7.429   1.037
 2448TIP3   OH2 7286   6.340   6.008   1.714
 2448TIP3    H1 7287   6.346   6.096   1.677
 2448TIP3    H2 7288   6.255   5.975   1.685
 2449TIP3   OH2 7289   1.063   5.918   1.246
 2449TIP3    H1 7290   1.045   5.964   1.328
 2449TIP3    H2 7291   1.140   5.961   1.210
 2450TIP3   OH2 7292   5.011   4.143   6.351
 2450TIP3    H1 7293   4.988   4.135   6.259
 2450TIP3    H2 7294   5.106   4.134   6.353
 2451TIP3   OH2 7295   1.154   0.298   2.974
 2451TIP3    H1 7296   1.070   0.335   2.947
 2451TIP3    H2 7297   1.151   0.207   2.944
 2452TIP3   OH2 7298   2.505   5.033   3.044
 2452TIP3    H1 7299   2.544   4.949   3.018
 2452TIP3    H2 7300   2.413   5.023   3.023
 2453TIP3   OH2 7301   3.958   1.642   4.115
 2453TIP3    H1 7302   3.868   1.658   4.144
 2453TIP3    H2 7303   3.984   1.562   4.161
 2454TIP3   OH2 7304   7.823   1.495   5.816
 2454TIP3    H1 7305   7.795   1.425   5.873
 2454TIP3    H2 7306   7.743   1.526   5.773
 2455TIP3   OH2 7307   5.155   1.851   5.726
 2455TIP3    H1 7308   5.069   1.828   5.762
 2455TIP3    H2 7309   5.186   1.770   5.684
 2456TIP3   OH2 7310   0.678   5.829   6.634
 2456TIP3    H1 7311   0.602   5.864   6.589
 2456TIP3    H2 7312   0.680   5.736   6.610
 2457TIP3   OH2 7313   4.183   6.564   6.247
 2457TIP3    H1 7314   4.229   6.575   6.330
 2457TIP3    H2 7315   4.198   6.472   6.223
 2458TIP3   OH2 7316   3.032   6.066   3.976
 2458TIP3    H1 7317   3.043   5.975   3.947
 2458TIP3    H2 7318   3.003   6.112   3.898
 2459TIP3   OH2 7319   3.485   7.590   5.699
 2459TIP3    H1 7320   3.535   7.542   5.633
 2459TIP3    H2 7321   3.542   7.662   5.725
 2460TIP3   OH2 7322   2.723   6.508   3.445
 2460TIP3    H1 7323   2.760   6.420   3.430
 2460TIP3    H2 7324   2.796   6.559   3.479
 2461TIP3   OH2 7325   1.353   6.795   2.996
 2461TIP3    H1 7326   1.263   6.830   2.993
 2461TIP3    H2 7327   1.407   6.869   2.968
 2462TIP3   OH2 7328   1.942   2.318   5.616
 2462TIP3    H1 7329   1.877   2.332   5.547
 2462TIP3    H2 7330   1.894   2.334   5.697
 2463TIP3   OH2 7331   6.525   4.423   2.445
 2463TIP3    H1 7332   6.470   4.424   2.523
 2463TIP3    H2 7333   6.509   4.509   2.405
 2464TIP3   OH2 7334   4.944   4.760   1.789
 2464TIP3    H1 7335   4.998   4.697   1.836
 2464TIP3    H2 7336   4.982   4.764   1.701
 2465TIP3   OH2 7337   4.922   7.451   5.448
 2465TIP3    H1 7338   4.945   7.415   5.533
 2465TIP3    H2 7339   4.855   7.392   5.414
 2466TIP3   OH2 7340   3.235   3.030   5.265
 2466TIP3    H1 7341   3.295   3.042   5.339
 2466TIP3    H2 7342   3.177   3.107   5.268
 2467TIP3   OH2 7343   6.430   0.299   4.615
 2467TIP3    H1 7344   6.477   0.355   4.554
 2467TIP3    H2 7345   6.499   0.257   4.666
 2468TIP3   OH2 7346   1.400   4.917   0.268
 2468TIP3    H1 7347   1.370   4.980   0.334
 2468TIP3    H2 7348   1.360   4.834   0.295
 2469TIP3   OH2 7349   3.453   4.291   3.556
 2469TIP3    H1 7350   3.435   4.296   3.462
 2469TIP3    H2 7351   3.452   4.383   3.585
 2470TIP3   OH2 7352   4.234   1.048   5.535
 2470TIP3    H1 7353   4.175   0.979   5.506
 2470TIP3    H2 7354   4.226   1.049   5.630
 2471TIP3   OH2 7355   7.566   5.129   0.884
 2471TIP3    H1 7356   7.538   5.217   0.908
 2471TIP3    H2 7357   7.503   5.070   0.926
 2472TIP3   OH2 7358   0.508   3.904   3.293
 2472TIP3    H1 7359   0.597   3.932   3.272
 2472TIP3    H2 7360   0.452   3.974   3.260
 2473TIP3   OH2 7361   6.203   4.201   2.309
 2473TIP3    H1 7362   6.195   4.162   2.397
 2473TIP3    H2 7363   6.233   4.290   2.325
 2474TIP3   OH2 7364   5.944   2.398   6.339
 2474TIP3    H1 7365   5.896   2.449   6.404
 2474TIP3    H2 7366   5.886   2.325   6.318
 2475TIP3   OH2 7367   5.854   2.334   2.185
 2475TIP3    H1 7368   5.905   2.275   2.241
 2475TIP3    H2 7369   5.851   2.416   2.234
 2476TIP3   OH2 7370   4.653   1.708   5.799
 2476TIP3    H1 7371   4.705   1.628   5.794
 2476TIP3    H2 7372   4.660   1.746   5.711
 2477TIP3   OH2 7373   2.518   7.651   0.829
 2477TIP3    H1 7374   2.433   7.622   0.863
 2477TIP3    H2 7375   2.561   7.570   0.801
 2478TIP3   OH2 7376   7.575   1.074   3.991
 2478TIP3    H1 7377   7.516   1.134   3.945
 2478TIP3    H2 7378   7.663   1.105   3.968
 2479TIP3   OH2 7379   3.979   2.227   4.933
 2479TIP3    H1 7380   3.919   2.255   5.001
 2479TIP3    H2 7381   4.066   2.235   4.973
 2480TIP3   OH2 7382   5.041   3.668   0.257
 2480TIP3    H1 7383   5.063   3.616   0.334
 2480TIP3    H2 7384   5.099   3.744   0.262
 2481TIP3   OH2 7385   0.031   1.901   5.172
 2481TIP3    H1 7386   0.034   1.968   5.103
 2481TIP3    H2 7387   0.057   1.948   5.252
 2482TIP3   OH2 7388   6.823   0.412   6.327
 2482TIP3    H1 7389   6.813   0.340   6.264
 2482TIP3    H2 7390   6.820   0.370   6.413
 2483TIP3   OH2 7391   5.820   0.971   1.627
 2483TIP3    H1 7392   5.901   1.018   1.606
 2483TIP3    H2 7393   5.757   1.002   1.562
 2484TIP3   OH2 7394   5.274   2.137   6.653
 2484TIP3    H1 7395   5.267   2.057   6.705
 2484TIP3    H2 7396   5.278   2.106   6.562
 2485TIP3   OH2 7397   7.807   4.930   1.901
 2485TIP3    H1 7398   7.774   4.956   1.987
 2485TIP3    H2 7399   7.834   5.013   1.860
 2486TIP3   OH2 7400   2.861   2.784   3.463
 2486TIP3    H1 7401   2.775   2.753   3.437
 2486TIP3    H2 7402   2.894   2.832   3.387
 2487TIP3   OH2 7403   4.023   4.627   1.895
 2487TIP3    H1 7404   4.006   4.712   1.854
 2487TIP3    H2 7405   4.116   4.629   1.919
 2488TIP3   OH2 7406   3.437   5.761   6.568
 2488TIP3    H1 7407   3.373   5.693   6.550
 2488TIP3    H2 7408   3.510   5.715   6.610
 2489TIP3   OH2 7409   1.948   7.275   4.965
 2489TIP3    H1 7410   1.926   7.364   4.936
 2489TIP3    H2 7411   2.025   7.286   5.021
 2490TIP3   OH2 7412   1.566   0.930   0.976
 2490TIP3    H1 7413   1.660   0.935   0.993
 2490TIP3    H2 7414   1.550   0.837   0.956
 2491TIP3   OH2 7415   0.386   2.638   1.008
 2491TIP3    H1 7416   0.442   2.656   1.084
 2491TIP3    H2 7417   0.443   2.590   0.948
 2492TIP3   OH2 7418   1.362   3.439   1.988
 2492TIP3    H1 7419   1.425   3.367   1.998
 2492TIP3    H2 7420   1.366   3.461   1.895
 2493TIP3   OH2 7421   4.071   6.237   3.020
 2493TIP3    H1 7422   3.997   6.284   3.059
 2493TIP3    H2 7423   4.038   6.206   2.936
 2494TIP3   OH2 7424   7.088   7.264   6.434
 2494TIP3    H1 7425   7.008   7.219   6.462
 2494TIP3    H2 7426   7.157   7.199   6.443
 2495TIP3   OH2 7427   6.602   5.522   5.199
 2495TIP3    H1 7428   6.670   5.500   5.263
 2495TIP3    H2 7429   6.532   5.562   5.250
 2496TIP3   OH2 7430   6.773   1.649   2.051
 2496TIP3    H1 7431   6.753   1.739   2.024
 2496TIP3    H2 7432   6.777   1.653   2.147
 2497TIP3   OH2 7433   6.303   2.238   5.897
 2497TIP3    H1 7434   6.257   2.223   5.980
 2497TIP3    H2 7435   6.297   2.154   5.851
 2498TIP3   OH2 7436   7.209   7.051   1.883
 2498TIP3    H1 7437   7.118   7.028   1.864
 2498TIP3    H2 7438   7.222   7.135   1.839
 2499TIP3   OH2 7439   6.815   1.267   1.156
 2499TIP3    H1 7440   6.753   1.264   1.083
 2499TIP3    H2 7441   6.889   1.214   1.125
 2500TIP3   OH2 7442   0.640   3.302   5.417
 2500TIP3    H1 7443   0.722   3.255   5.434
 2500TIP3    H2 7444   0.573   3.247   5.458
 2501TIP3   OH2 7445   4.402   1.353   1.987
 2501TIP3    H1 7446   4.468   1.286   1.973
 2501TIP3    H2 7447   4.447   1.436   1.973
 2502TIP3   OH2 7448   7.692   7.093   5.578
 2502TIP3    H1 7449   7.698   7.072   5.671
 2502TIP3    H2 7450   7.602   7.069   5.555
 2503TIP3   OH2 7451   5.501   2.983   4.210
 2503TIP3    H1 7452   5.457   2.962   4.128
 2503TIP3    H2 7453   5.511   2.898   4.254
 2504TIP3   OH2 7454   7.899   6.044   1.293
 2504TIP3    H1 7455   7.887   6.014   1.383
 2504TIP3    H2 7456   7.888   5.965   1.240
 2505TIP3   OH2 7457   1.307   4.364   5.817
 2505TIP3    H1 7458   1.296   4.293   5.754
 2505TIP3    H2 7459   1.327   4.320   5.900
 2506TIP3   OH2 7460   2.823   3.914   3.155
 2506TIP3    H1 7461   2.894   3.859   3.121
 2506TIP3    H2 7462   2.846   3.928   3.247
 2507TIP3   OH2 7463   0.759   3.800   3.729
 2507TIP3    H1 7464   0.751   3.818   3.823
 2507TIP3    H2 7465   0.796   3.881   3.693
 2508TIP3   OH2 7466   0.335   7.091   0.993
 2508TIP3    H1 7467   0.328   7.014   1.050
 2508TIP3    H2 7468   0.354   7.163   1.053
 2509TIP3   OH2 7469   8.073   3.534   3.210
 2509TIP3    H1 7470   8.069   3.533   3.305
 2509TIP3    H2 7471   8.158   3.495   3.188
 2510TIP3   OH2 7472   1.625   0.764   1.402
 2510TIP3    H1 7473   1.552   0.749   1.463
 2510TIP3    H2 7474   1.627   0.685   1.347
 2511TIP3   OH2 7475   5.011   2.924   3.590
 2511TIP3    H1 7476   5.086   2.893   3.540
 2511TIP3    H2 7477   4.939   2.868   3.561
 2512TIP3   OH2 7478   5.176   5.372   3.248
 2512TIP3    H1 7479   5.249   5.313   3.228
 2512TIP3    H2 7480   5.098   5.325   3.217
 2513TIP3   OH2 7481   1.524   4.825   3.166
 2513TIP3    H1 7482   1.549   4.800   3.077
 2513TIP3    H2 7483   1.604   4.818   3.217
 2514TIP3   OH2 7484   5.088   1.756   4.779
 2514TIP3    H1 7485   5.145   1.830   4.799
 2514TIP3    H2 7486   5.092   1.700   4.857
 2515TIP3   OH2 7487   1.737   2.228   4.479
 2515TIP3    H1 7488   1.782   2.235   4.395
 2515TIP3    H2 7489   1.647   2.206   4.457
 2516TIP3   OH2 7490   8.241   1.799   1.372
 2516TIP3    H1 7491   8.179   1.835   1.309
 2516TIP3    H2 7492   8.204   1.821   1.457
 2517TIP3   OH2 7493   6.452   2.093   2.687
 2517TIP3    H1 7494   6.412   2.014   2.723
 2517TIP3    H2 7495   6.501   2.063   2.611
 2518TIP3   OH2 7496   6.286   6.096   0.113
 2518TIP3    H1 7497   6.215   6.129   0.058
 2518TIP3    H2 7498   6.365   6.111   0.061
 2519TIP3   OH2 7499   5.878   5.435   3.470
 2519TIP3    H1 7500   5.852   5.382   3.545
 2519TIP3    H2 7501   5.857   5.382   3.394
 2520TIP3   OH2 7502   5.666   5.769   3.675
 2520TIP3    H1 7503   5.679   5.727   3.590
 2520TIP3    H2 7504   5.676   5.699   3.739
 2521TIP3   OH2 7505   4.067   5.387   5.059
 2521TIP3    H1 7506   4.040   5.330   5.131
 2521TIP3    H2 7507   4.032   5.345   4.980
 2522TIP3   OH2 7508   2.783   7.759   6.733
 2522TIP3    H1 7509   2.724   7.689   6.705
 2522TIP3    H2 7510   2.870   7.720   6.728
 2523TIP3   OH2 7511   5.798   7.720   0.442
 2523TIP3    H1 7512   5.703   7.723   0.454
 2523TIP3    H2 7513   5.828   7.808   0.466
 2524TIP3   OH2 7514   0.202   4.246   5.662
 2524TIP3    H1 7515   0.137   4.227   5.730
 2524TIP3    H2 7516   0.163   4.316   5.610
 2525TIP3   OH2 7517   0.641   3.959   4.335
 2525TIP3    H1 7518   0.579   3.956   4.262
 2525TIP3    H2 7519   0.720   3.998   4.297
 2526TIP3   OH2 7520   2.820   2.970   3.699
 2526TIP3    H1 7521   2.868   3.048   3.672
 2526TIP3    H2 7522   2.816   2.915   3.620
 2527TIP3   OH2 7523   7.829   7.148   6.718
 2527TIP3    H1 7524   7.838   7.063   6.762
 2527TIP3    H2 7525   7.890   7.142   6.644
 2528TIP3   OH2 7526   7.904   6.189   5.400
 2528TIP3    H1 7527   7.909   6.146   5.485
 2528TIP3    H2 7528   7.855   6.128   5.345
 2529TIP3   OH2 7529   7.571   4.960   3.490
 2529TIP3    H1 7530   7.561   4.878   3.443
 2529TIP3    H2 7531   7.520   5.024   3.440
 2530TIP3   OH2 7532   3.672   0.803   4.905
 2530TIP3    H1 7533   3.718   0.736   4.956
 2530TIP3    H2 7534   3.581   0.798   4.934
 2531TIP3   OH2 7535   6.893   7.649   1.900
 2531TIP3    H1 7536   6.841   7.680   1.974
 2531TIP3    H2 7537   6.971   7.609   1.940
 2532TIP3   OH2 7538   1.467   2.194   2.405
 2532TIP3    H1 7539   1.487   2.182   2.497
 2532TIP3    H2 7540   1.494   2.111   2.364
 2533TIP3   OH2 7541   0.515   6.967   0.421
 2533TIP3    H1 7542   0.511   6.907   0.496
 2533TIP3    H2 7543   0.487   6.915   0.346
 2534TIP3   OH2 7544   4.098   2.354   0.149
 2534TIP3    H1 7545   4.156   2.283   0.126
 2534TIP3    H2 7546   4.092   2.408   0.070
 2535TIP3   OH2 7547   7.924   3.753   0.827
 2535TIP3    H1 7548   7.970   3.673   0.853
 2535TIP3    H2 7549   7.863   3.771   0.899
 2536TIP3   OH2 7550   3.980   1.165   4.433
 2536TIP3    H1 7551   3.899   1.192   4.475
 2536TIP3    H2 7552   4.017   1.246   4.398
 2537TIP3   OH2 7553   5.241   3.211   5.502
 2537TIP3    H1 7554   5.329   3.188   5.531
 2537TIP3    H2 7555   5.217   3.142   5.440
 2538TIP3   OH2 7556   0.559  -0.013   0.923
 2538TIP3    H1 7557   0.480   0.008   0.874
 2538TIP3    H2 7558   0.550   0.034   1.006
 2539TIP3   OH2 7559   7.966   4.741   2.975
 2539TIP3    H1 7560   7.905   4.768   3.044
 2539TIP3    H2 7561   8.035   4.807   2.978
 2540TIP3   OH2 7562   1.657   1.905   4.382
 2540TIP3    H1 7563   1.715   1.908   4.458
 2540TIP3    H2 7564   1.572   1.879   4.418
 2541TIP3   OH2 7565   5.083   3.154   0.894
 2541TIP3    H1 7566   5.173   3.185   0.897
 2541TIP3    H2 7567   5.030   3.234   0.889
 2542TIP3   OH2 7568   5.311   5.713   2.045
 2542TIP3    H1 7569   5.306   5.656   2.122
 2542TIP3    H2 7570   5.237   5.772   2.054
 2543TIP3   OH2 7571   7.407   3.361   1.272
 2543TIP3    H1 7572   7.473   3.414   1.316
 2543TIP3    H2 7573   7.446   3.274   1.264
 2544TIP3   OH2 7574   7.051   1.871   0.599
 2544TIP3    H1 7575   6.967   1.895   0.561
 2544TIP3    H2 7576   7.113   1.936   0.565
 2545TIP3   OH2 7577   3.629   2.255   0.193
 2545TIP3    H1 7578   3.575   2.317   0.242
 2545TIP3    H2 7579   3.632   2.292   0.104
 2546TIP3   OH2 7580   3.220   1.505   1.475
 2546TIP3    H1 7581   3.217   1.538   1.565
 2546TIP3    H2 7582   3.151   1.439   1.471
 2547TIP3   OH2 7583   5.539   3.028   3.847
 2547TIP3    H1 7584   5.491   3.104   3.879
 2547TIP3    H2 7585   5.527   3.031   3.752
 2548TIP3   OH2 7586   6.044   4.915   4.130
 2548TIP3    H1 7587   6.017   4.866   4.208
 2548TIP3    H2 7588   6.020   4.859   4.056
 2549TIP3   OH2 7589   6.715   5.502   4.726
 2549TIP3    H1 7590   6.789   5.510   4.667
 2549TIP3    H2 7591   6.715   5.583   4.777
 2550TIP3   OH2 7592   1.625   4.854   3.582
 2550TIP3    H1 7593   1.584   4.903   3.653
 2550TIP3    H2 7594   1.718   4.873   3.589
 2551TIP3   OH2 7595   8.214   3.755   2.607
 2551TIP3    H1 7596   8.255   3.801   2.681
 2551TIP3    H2 7597   8.158   3.689   2.648
 2552TIP3   OH2 7598   6.213   4.372   3.000
 2552TIP3    H1 7599   6.177   4.328   3.077
 2552TIP3    H2 7600   6.135   4.405   2.954
 2553TIP3   OH2 7601   0.561   0.089   4.577
 2553TIP3    H1 7602   0.631   0.035   4.541
 2553TIP3    H2 7603   0.566   0.171   4.526
 2554TIP3   OH2 7604   0.743   3.871   2.524
 2554TIP3    H1 7605   0.655   3.836   2.513
 2554TIP3    H2 7606   0.800   3.795   2.511
 2555TIP3   OH2 7607   6.269   6.193   1.025
 2555TIP3    H1 7608   6.189   6.235   1.058
 2555TIP3    H2 7609   6.338   6.257   1.040
 2556TIP3   OH2 7610   2.337   4.702   3.990
 2556TIP3    H1 7611   2.431   4.688   4.000
 2556TIP3    H2 7612   2.300   4.682   4.076
 2557TIP3   OH2 7613   2.661   0.348   4.347
 2557TIP3    H1 7614   2.691   0.433   4.382
 2557TIP3    H2 7615   2.702   0.283   4.404
 2558TIP3   OH2 7616   0.952   2.555   1.404
 2558TIP3    H1 7617   0.922   2.635   1.447
 2558TIP3    H2 7618   1.002   2.508   1.471
 2559TIP3   OH2 7619   4.309   2.742   4.909
 2559TIP3    H1 7620   4.288   2.668   4.852
 2559TIP3    H2 7621   4.224   2.776   4.936
 2560TIP3   OH2 7622   3.640   1.175   3.856
 2560TIP3    H1 7623   3.685   1.249   3.897
 2560TIP3    H2 7624   3.705   1.105   3.856
 2561TIP3   OH2 7625   8.149   1.098   0.960
 2561TIP3    H1 7626   8.215   1.162   0.935
 2561TIP3    H2 7627   8.139   1.042   0.883
 2562TIP3   OH2 7628   6.944   4.842   2.335
 2562TIP3    H1 7629   7.024   4.805   2.296
 2562TIP3    H2 7630   6.916   4.908   2.271
 2563TIP3   OH2 7631   3.241   4.405   3.343
 2563TIP3    H1 7632   3.179   4.475   3.364
 2563TIP3    H2 7633   3.186   4.330   3.321
 2564TIP3   OH2 7634   5.319   7.263   1.373
 2564TIP3    H1 7635   5.289   7.313   1.297
 2564TIP3    H2 7636   5.313   7.325   1.446
 2565TIP3   OH2 7637   7.090   3.126   2.747
 2565TIP3    H1 7638   7.029   3.156   2.678
 2565TIP3    H2 7639   7.167   3.097   2.699
 2566TIP3   OH2 7640   6.975   1.761   6.421
 2566TIP3    H1 7641   6.902   1.745   6.362
 2566TIP3    H2 7642   7.051   1.773   6.364
 2567TIP3   OH2 7643   4.676   1.254   5.055
 2567TIP3    H1 7644   4.690   1.348   5.048
 2567TIP3    H2 7645   4.761   1.216   5.030
 2568TIP3   OH2 7646   2.999   2.623   4.053
 2568TIP3    H1 7647   3.051   2.544   4.042
 2568TIP3    H2 7648   3.063   2.693   4.068
 2569TIP3   OH2 7649   7.319   4.403   4.824
 2569TIP3    H1 7650   7.363   4.438   4.747
 2569TIP3    H2 7651   7.269   4.328   4.792
 2570TIP3   OH2 7652   4.914   5.969   4.435
 2570TIP3    H1 7653   4.917   5.884   4.390
 2570TIP3    H2 7654   4.830   6.007   4.409
 2571TIP3   OH2 7655   6.558   4.028   6.796
 2571TIP3    H1 7656   6.466   4.052   6.786
 2571TIP3    H2 7657   6.603   4.077   6.727
 2572TIP3   OH2 7658   3.197   3.735   5.813
 2572TIP3    H1 7659   3.248   3.701   5.739
 2572TIP3    H2 7660   3.258   3.733   5.887
 2573TIP3   OH2 7661   6.604   3.555   5.970
 2573TIP3    H1 7662   6.674   3.526   5.911
 2573TIP3    H2 7663   6.640   3.630   6.016
 2574TIP3   OH2 7664   3.655   0.858   1.251
 2574TIP3    H1 7665   3.661   0.921   1.179
 2574TIP3    H2 7666   3.595   0.791   1.220
 2575TIP3   OH2 7667   1.053   5.699   2.854
 2575TIP3    H1 7668   0.985   5.762   2.831
 2575TIP3    H2 7669   1.095   5.736   2.932
 2576TIP3   OH2 7670   0.914   7.664   1.812
 2576TIP3    H1 7671   0.969   7.726   1.765
 2576TIP3    H2 7672   0.953   7.579   1.796
 2577TIP3   OH2 7673   7.786   3.059   5.302
 2577TIP3    H1 7674   7.761   3.062   5.209
 2577TIP3    H2 7675   7.703   3.050   5.349
 2578TIP3   OH2 7676   1.684   5.970   3.909
 2578TIP3    H1 7677   1.623   5.978   3.983
 2578TIP3    H2 7678   1.638   6.011   3.836
 2579TIP3   OH2 7679   5.039   3.027   6.476
 2579TIP3    H1 7680   5.124   2.990   6.450
 2579TIP3    H2 7681   4.994   2.955   6.520
 2580TIP3   OH2 7682   5.230   5.935   1.334
 2580TIP3    H1 7683   5.195   5.855   1.374
 2580TIP3    H2 7684   5.266   5.984   1.408
 2581TIP3   OH2 7685   5.281   7.753   3.412
 2581TIP3    H1 7686   5.258   7.669   3.372
 2581TIP3    H2 7687   5.198   7.800   3.420
 2582TIP3   OH2 7688   6.908   2.680   4.653
 2582TIP3    H1 7689   6.818   2.674   4.621
 2582TIP3    H2 7690   6.930   2.591   4.680
 2583TIP3   OH2 7691   3.572   0.139   3.663
 2583TIP3    H1 7692   3.593   0.231   3.682
 2583TIP3    H2 7693   3.652   0.091   3.685
 2584TIP3   OH2 7694   1.562   6.739   5.468
 2584TIP3    H1 7695   1.601   6.821   5.438
 2584TIP3    H2 7696   1.600   6.672   5.412
 2585TIP3   OH2 7697   8.155   1.095   0.120
 2585TIP3    H1 7698   8.136   1.043   0.198
 2585TIP3    H2 7699   8.094   1.062   0.053
 2586TIP3   OH2 7700   3.137   7.512   3.709
 2586TIP3    H1 7701   3.052   7.469   3.713
 2586TIP3    H2 7702   3.118   7.601   3.678
 2587TIP3   OH2 7703   0.115   3.626   6.248
 2587TIP3    H1 7704   0.201   3.647   6.211
 2587TIP3    H2 7705   0.056   3.623   6.172
 2588TIP3   OH2 7706   2.939   5.830   4.965
 2588TIP3    H1 7707   3.019   5.880   4.978
 2588TIP3    H2 7708   2.893   5.876   4.894
 2589TIP3   OH2 7709   6.655   0.640   0.177
 2589TIP3    H1 7710   6.603   0.560   0.171
 2589TIP3    H2 7711   6.715   0.635   0.102
 2590TIP3   OH2 7712   6.151   2.616   0.922
 2590TIP3    H1 7713   6.059   2.633   0.900
 2590TIP3    H2 7714   6.198   2.694   0.891
 2591TIP3   OH2 7715   6.516   3.505   4.051
 2591TIP3    H1 7716   6.517   3.517   3.956
 2591TIP3    H2 7717   6.532   3.411   4.063
 2592TIP3   OH2 7718   4.893   7.666   5.174
 2592TIP3    H1 7719   4.876   7.754   5.141
 2592TIP3    H2 7720   4.840   7.659   5.253
 2593TIP3   OH2 7721   3.869   5.285   2.089
 2593TIP3    H1 7722   3.775   5.284   2.104
 2593TIP3    H2 7723   3.905   5.229   2.158
 2594TIP3   OH2 7724   2.919   6.183   0.348
 2594TIP3    H1 7725   3.003   6.160   0.390
 2594TIP3    H2 7726   2.943   6.241   0.276
 2595TIP3   OH2 7727   4.757   7.578   6.270
 2595TIP3    H1 7728   4.725   7.514   6.206
 2595TIP3    H2 7729   4.821   7.530   6.323
 2596TIP3   OH2 7730   4.473   0.743   4.753
 2596TIP3    H1 7731   4.537   0.729   4.823
 2596TIP3    H2 7732   4.420   0.663   4.753
 2597TIP3   OH2 7733   3.815   2.767   2.928
 2597TIP3    H1 7734   3.861   2.804   3.003
 2597TIP3    H2 7735   3.723   2.766   2.955
 2598TIP3   OH2 7736   4.606   2.529   6.806
 2598TIP3    H1 7737   4.514   2.530   6.779
 2598TIP3    H2 7738   4.651   2.484   6.735
 2599TIP3   OH2 7739   6.762   7.353   6.492
 2599TIP3    H1 7740   6.713   7.324   6.570
 2599TIP3    H2 7741   6.804   7.434   6.520
 2600TIP3   OH2 7742   1.118   7.295   2.254
 2600TIP3    H1 7743   1.122   7.296   2.158
 2600TIP3    H2 7744   1.172   7.220   2.279
 2601TIP3   OH2 7745   0.202   5.442   4.724
 2601TIP3    H1 7746   0.107   5.448   4.734
 2601TIP3    H2 7747   0.218   5.457   4.631
 2602TIP3   OH2 7748   6.204   2.852   1.129
 2602TIP3    H1 7749   6.260   2.899   1.190
 2602TIP3    H2 7750   6.254   2.850   1.047
 2603TIP3   OH2 7751   7.950   5.182   2.739
 2603TIP3    H1 7752   8.023   5.233   2.705
 2603TIP3    H2 7753   7.984   5.094   2.748
 2604TIP3   OH2 7754   7.161   4.196   4.697
 2604TIP3    H1 7755   7.121   4.203   4.783
 2604TIP3    H2 7756   7.087   4.192   4.636
 2605TIP3   OH2 7757   6.366   1.704   6.759
 2605TIP3    H1 7758   6.300   1.638   6.736
 2605TIP3    H2 7759   6.424   1.658   6.821
 2606TIP3   OH2 7760   4.521   2.047   0.862
 2606TIP3    H1 7761   4.610   2.052   0.826
 2606TIP3    H2 7762   4.525   1.978   0.928
 2607TIP3   OH2 7763   1.301   3.400   1.452
 2607TIP3    H1 7764   1.354   3.345   1.395
 2607TIP3    H2 7765   1.309   3.488   1.416
 2608TIP3   OH2 7766   3.775   4.809   3.108
 2608TIP3    H1 7767   3.792   4.825   3.015
 2608TIP3    H2 7768   3.828   4.875   3.154
 2609TIP3   OH2 7769   0.546   6.450   4.152
 2609TIP3    H1 7770   0.574   6.446   4.060
 2609TIP3    H2 7771   0.548   6.359   4.182
 2610TIP3   OH2 7772   7.043   4.180   6.345
 2610TIP3    H1 7773   7.035   4.275   6.334
 2610TIP3    H2 7774   7.131   4.160   6.312
 2611TIP3   OH2 7775   4.477   4.406   3.889
 2611TIP3    H1 7776   4.411   4.359   3.839
 2611TIP3    H2 7777   4.429   4.444   3.963
 2612TIP3   OH2 7778   5.024   5.804   5.409
 2612TIP3    H1 7779   5.004   5.832   5.320
 2612TIP3    H2 7780   4.943   5.819   5.457
 2613TIP3   OH2 7781   1.759   4.468   4.849
 2613TIP3    H1 7782   1.692   4.409   4.883
 2613TIP3    H2 7783   1.714   4.551   4.837
 2614TIP3   OH2 7784   1.011   5.868   5.395
 2614TIP3    H1 7785   1.002   5.865   5.491
 2614TIP3    H2 7786   0.941   5.809   5.364
 2615TIP3   OH2 7787   1.209   0.973   2.237
 2615TIP3    H1 7788   1.177   1.044   2.181
 2615TIP3    H2 7789   1.213   1.011   2.325
 2616TIP3   OH2 7790   7.136   4.550   4.159
 2616TIP3    H1 7791   7.049   4.518   4.184
 2616TIP3    H2 7792   7.130   4.645   4.170
 2617TIP3   OH2 7793   4.156   7.330   4.871
 2617TIP3    H1 7794   4.105   7.399   4.915
 2617TIP3    H2 7795   4.246   7.361   4.875
 2618TIP3   OH2 7796   4.324   4.310   2.801
 2618TIP3    H1 7797   4.354   4.261   2.877
 2618TIP3    H2 7798   4.334   4.249   2.728
 2619TIP3   OH2 7799   6.122   6.526   2.203
 2619TIP3    H1 7800   6.076   6.491   2.279
 2619TIP3    H2 7801   6.129   6.620   2.220
 2620TIP3   OH2 7802   5.256   3.335   0.158
 2620TIP3    H1 7803   5.252   3.265   0.223
 2620TIP3    H2 7804   5.193   3.309   0.091
 2621TIP3   OH2 7805   0.384   1.328   3.144
 2621TIP3    H1 7806   0.339   1.342   3.227
 2621TIP3    H2 7807   0.473   1.357   3.160
 2622TIP3   OH2 7808   4.606   5.582   6.791
 2622TIP3    H1 7809   4.628   5.578   6.698
 2622TIP3    H2 7810   4.578   5.672   6.805
 2623TIP3   OH2 7811   7.143   2.822   4.966
 2623TIP3    H1 7812   7.069   2.767   4.993
 2623TIP3    H2 7813   7.209   2.809   5.034
 2624TIP3   OH2 7814   2.662   5.344   5.553
 2624TIP3    H1 7815   2.573   5.323   5.582
 2624TIP3    H2 7816   2.690   5.415   5.611
 2625TIP3   OH2 7817   5.464   1.526   6.015
 2625TIP3    H1 7818   5.369   1.525   6.029
 2625TIP3    H2 7819   5.501   1.505   6.100
 2626TIP3   OH2 7820   0.246   7.063   2.114
 2626TIP3    H1 7821   0.157   7.080   2.083
 2626TIP3    H2 7822   0.240   7.070   2.209
 2627TIP3   OH2 7823   6.947   1.681   4.837
 2627TIP3    H1 7824   7.031   1.676   4.882
 2627TIP3    H2 7825   6.884   1.703   4.907
 2628TIP3   OH2 7826   4.810   1.602   1.163
 2628TIP3    H1 7827   4.878   1.626   1.226
 2628TIP3    H2 7828   4.818   1.507   1.154
 2629TIP3   OH2 7829   3.884   4.825   3.995
 2629TIP3    H1 7830   3.826   4.780   3.933
 2629TIP3    H2 7831   3.836   4.824   4.078
 2630TIP3   OH2 7832   1.861   3.086   6.374
 2630TIP3    H1 7833   1.888   3.082   6.466
 2630TIP3    H2 7834   1.918   3.152   6.335
 2631TIP3   OH2 7835   2.747   6.462   0.425
 2631TIP3    H1 7836   2.696   6.429   0.499
 2631TIP3    H2 7837   2.739   6.394   0.358
 2632TIP3   OH2 7838   7.656   1.401   2.686
 2632TIP3    H1 7839   7.684   1.405   2.594
 2632TIP3    H2 7840   7.669   1.310   2.711
 2633TIP3   OH2 7841   0.782   4.422   4.350
 2633TIP3    H1 7842   0.714   4.440   4.285
 2633TIP3    H2 7843   0.748   4.347   4.400
 2634TIP3   OH2 7844   2.208   6.291   5.383
 2634TIP3    H1 7845   2.187   6.198   5.392
 2634TIP3    H2 7846   2.299   6.292   5.352
 2635TIP3   OH2 7847   6.945   2.950   5.397
 2635TIP3    H1 7848   6.916   3.014   5.331
 2635TIP3    H2 7849   6.989   3.003   5.463
 2636TIP3   OH2 7850   5.327   6.672   0.578
 2636TIP3    H1 7851   5.395   6.684   0.644
 2636TIP3    H2 7852   5.252   6.721   0.611
 2637TIP3   OH2 7853   4.142   5.562   4.860
 2637TIP3    H1 7854   4.135   5.516   4.943
 2637TIP3    H2 7855   4.209   5.629   4.875
 2638TIP3   OH2 7856   0.727   1.708   3.534
 2638TIP3    H1 7857   0.700   1.800   3.532
 2638TIP3    H2 7858   0.667   1.667   3.596
 2639TIP3   OH2 7859   7.980   7.557   6.421
 2639TIP3    H1 7860   8.065   7.514   6.419
 2639TIP3    H2 7861   7.971   7.596   6.334
 2640TIP3   OH2 7862   5.629   3.509   1.612
 2640TIP3    H1 7863   5.558   3.477   1.667
 2640TIP3    H2 7864   5.708   3.495   1.665
 2641TIP3   OH2 7865   3.042   5.156   3.923
 2641TIP3    H1 7866   2.954   5.192   3.915
 2641TIP3    H2 7867   3.092   5.225   3.966
 2642TIP3   OH2 7868   7.946   7.164   2.432
 2642TIP3    H1 7869   7.994   7.156   2.350
 2642TIP3    H2 7870   8.013   7.156   2.500
 2643TIP3   OH2 7871   3.957   5.039   3.189
 2643TIP3    H1 7872   3.955   5.097   3.264
 2643TIP3    H2 7873   4.047   5.007   3.185
 2644TIP3   OH2 7874   3.145   7.723   5.640
 2644TIP3    H1 7875   3.191   7.666   5.701
 2644TIP3    H2 7876   3.207   7.736   5.568
 2645TIP3   OH2 7877   4.169   4.735   6.379
 2645TIP3    H1 7878   4.102   4.785   6.426
 2645TIP3    H2 7879   4.154   4.644   6.406
 2646TIP3   OH2 7880   4.155   4.006   0.725
 2646TIP3    H1 7881   4.180   4.092   0.758
 2646TIP3    H2 7882   4.176   4.010   0.631
 2647TIP3   OH2 7883   6.474   3.785   6.564
 2647TIP3    H1 7884   6.570   3.781   6.559
 2647TIP3    H2 7885   6.457   3.848   6.634
 2648TIP3   OH2 7886   2.986   6.907   4.192
 2648TIP3    H1 7887   2.975   6.887   4.285
 2648TIP3    H2 7888   3.081   6.912   4.180
 2649TIP3   OH2 7889   7.083   1.956   3.127
 2649TIP3    H1 7890   7.074   2.051   3.133
 2649TIP3    H2 7891   7.075   1.937   3.033
 2650TIP3   OH2 7892   1.942   2.778   3.159
 2650TIP3    H1 7893   1.881   2.735   3.219
 2650TIP3    H2 7894   1.918   2.870   3.161
 2651TIP3   OH2 7895   1.376   1.415   4.665
 2651TIP3    H1 7896   1.383   1.401   4.570
 2651TIP3    H2 7897   1.285   1.441   4.678
 2652TIP3   OH2 7898   2.009   2.385   4.548
 2652TIP3    H1 7899   2.091   2.413   4.589
 2652TIP3    H2 7900   1.971   2.465   4.512
 2653TIP3   OH2 7901   0.887   0.957   4.450
 2653TIP3    H1 7902   0.906   0.968   4.544
 2653TIP3    H2 7903   0.966   0.913   4.416
 2654TIP3   OH2 7904   6.090   1.743   3.815
 2654TIP3    H1 7905   6.078   1.728   3.909
 2654TIP3    H2 7906   6.007   1.782   3.787
 2655TIP3   OH2 7907   2.699   4.102   2.425
 2655TIP3    H1 7908   2.763   4.113   2.355
 2655TIP3    H2 7909   2.735   4.151   2.499
 2656TIP3   OH2 7910   3.329   1.115   4.843
 2656TIP3    H1 7911   3.244   1.145   4.877
 2656TIP3    H2 7912   3.377   1.086   4.920
 2657TIP3   OH2 7913   4.935   0.290   0.403
 2657TIP3    H1 7914   5.028   0.276   0.386
 2657TIP3    H2 7915   4.914   0.226   0.471
 2658TIP3   OH2 7916   8.152   6.076   1.716
 2658TIP3    H1 7917   8.056   6.081   1.710
 2658TIP3    H2 7918   8.168   6.037   1.802
 2659TIP3   OH2 7919   0.668   5.978   5.447
 2659TIP3    H1 7920   0.713   6.042   5.393
 2659TIP3    H2 7921   0.654   5.903   5.389
 2660TIP3   OH2 7922   5.835   4.577   5.539
 2660TIP3    H1 7923   5.846   4.621   5.624
 2660TIP3    H2 7924   5.778   4.503   5.558
 2661TIP3   OH2 7925   7.753   5.446   1.173
 2661TIP3    H1 7926   7.820   5.508   1.201
 2661TIP3    H2 7927   7.798   5.392   1.107
 2662TIP3   OH2 7928   4.135   7.086   4.766
 2662TIP3    H1 7929   4.138   7.169   4.814
 2662TIP3    H2 7930   4.136   7.019   4.834
 2663TIP3   OH2 7931   4.159   7.407   4.251
 2663TIP3    H1 7932   4.154   7.491   4.298
 2663TIP3    H2 7933   4.071   7.394   4.216
 2664TIP3   OH2 7934   3.640   7.581   3.651
 2664TIP3    H1 7935   3.623   7.513   3.717
 2664TIP3    H2 7936   3.714   7.547   3.601
 2665TIP3   OH2 7937   3.008   2.639   4.651
 2665TIP3    H1 7938   3.083   2.663   4.596
 2665TIP3    H2 7939   2.967   2.566   4.604
 2666TIP3   OH2 7940   7.384   1.092   6.197
 2666TIP3    H1 7941   7.320   1.023   6.216
 2666TIP3    H2 7942   7.366   1.160   6.261
 2667TIP3   OH2 7943   1.656   0.771   4.698
 2667TIP3    H1 7944   1.658   0.788   4.603
 2667TIP3    H2 7945   1.572   0.727   4.712
 2668TIP3   OH2 7946   3.530   0.317   2.068
 2668TIP3    H1 7947   3.569   0.378   2.005
 2668TIP3    H2 7948   3.522   0.235   2.020
 2669TIP3   OH2 7949   3.590   7.173   6.592
 2669TIP3    H1 7950   3.648   7.229   6.645
 2669TIP3    H2 7951   3.628   7.086   6.600
 2670TIP3   OH2 7952   6.854   2.253   0.639
 2670TIP3    H1 7953   6.822   2.303   0.564
 2670TIP3    H2 7954   6.950   2.255   0.630
 2671TIP3   OH2 7955   4.913   0.478   6.265
 2671TIP3    H1 7956   4.853   0.510   6.332
 2671TIP3    H2 7957   4.872   0.397   6.233
 2672TIP3   OH2 7958   6.670   6.215   2.002
 2672TIP3    H1 7959   6.587   6.262   2.001
 2672TIP3    H2 7960   6.656   6.143   2.063
 2673TIP3   OH2 7961   8.221   0.734   6.373
 2673TIP3    H1 7962   8.229   0.667   6.441
 2673TIP3    H2 7963   8.155   0.700   6.313
 2674TIP3   OH2 7964   3.732   2.820   5.181
 2674TIP3    H1 7965   3.713   2.913   5.189
 2674TIP3    H2 7966   3.733   2.787   5.271
 2675TIP3   OH2 7967   7.146   1.716   0.775
 2675TIP3    H1 7968   7.178   1.785   0.834
 2675TIP3    H2 7969   7.119   1.763   0.696
 2676TIP3   OH2 7970   7.129   1.758   1.330
 2676TIP3    H1 7971   7.138   1.701   1.406
 2676TIP3    H2 7972   7.218   1.789   1.312
 2677TIP3   OH2 7973   8.107   0.224   3.575
 2677TIP3    H1 7974   8.183   0.180   3.611
 2677TIP3    H2 7975   8.038   0.212   3.640
 2678TIP3   OH2 7976   7.755   2.720   5.359
 2678TIP3    H1 7977   7.811   2.644   5.342
 2678TIP3    H2 7978   7.812   2.795   5.343
 2679TIP3   OH2 7979   4.418   0.265   2.298
 2679TIP3    H1 7980   4.502   0.245   2.257
 2679TIP3    H2 7981   4.354   0.247   2.229
 2680TIP3   OH2 7982   1.779   0.210   3.322
 2680TIP3    H1 7983   1.813   0.142   3.380
 2680TIP3    H2 7984   1.716   0.164   3.266
 2681TIP3   OH2 7985   7.714   6.180   6.730
 2681TIP3    H1 7986   7.804   6.148   6.727
 2681TIP3    H2 7987   7.660   6.100   6.726
 2682TIP3   OH2 7988   6.882   4.343   0.561
 2682TIP3    H1 7989   6.904   4.383   0.645
 2682TIP3    H2 7990   6.824   4.270   0.583
 2683TIP3   OH2 7991   7.724   0.754   1.391
 2683TIP3    H1 7992   7.730   0.764   1.296
 2683TIP3    H2 7993   7.632   0.734   1.407
 2684TIP3   OH2 7994   4.275   6.474   0.655
 2684TIP3    H1 7995   4.212   6.511   0.717
 2684TIP3    H2 7996   4.348   6.446   0.709
 2685TIP3   OH2 7997   3.633   0.825   5.546
 2685TIP3    H1 7998   3.706   0.837   5.607
 2685TIP3    H2 7999   3.670   0.773   5.475
 2686TIP3   OH2 8000   3.082   5.366   3.197
 2686TIP3    H1 8001   3.128   5.333   3.275
 2686TIP3    H2 8002   3.089   5.295   3.133
 2687TIP3   OH2 8003   7.875   1.538   5.375
 2687TIP3    H1 8004   7.828   1.613   5.412
 2687TIP3    H2 8005   7.967   1.564   5.380
 2688TIP3   OH2 8006   6.935   7.717   3.491
 2688TIP3    H1 8007   6.947   7.808   3.463
 2688TIP3    H2 8008   6.861   7.720   3.552
 2689TIP3   OH2 8009   3.179   6.895   6.136
 2689TIP3    H1 8010   3.209   6.986   6.132
 2689TIP3    H2 8011   3.090   6.901   6.170
 2690TIP3   OH2 8012   1.224   2.884   4.210
 2690TIP3    H1 8013   1.262   2.910   4.127
 2690TIP3    H2 8014   1.141   2.931   4.215
 2691TIP3   OH2 8015   4.091   2.913   5.088
 2691TIP3    H1 8016   4.149   2.974   5.042
 2691TIP3    H2 8017   4.015   2.965   5.112
 2692TIP3   OH2 8018   0.956   0.613   5.516
 2692TIP3    H1 8019   0.938   0.541   5.576
 2692TIP3    H2 8020   1.048   0.602   5.491
 2693TIP3   OH2 8021   0.289   6.074   3.875
 2693TIP3    H1 8022   0.366   6.130   3.880
 2693TIP3    H2 8023   0.284   6.031   3.960
 2694TIP3   OH2 8024   8.181   4.374   2.397
 2694TIP3    H1 8025   8.117   4.358   2.327
 2694TIP3    H2 8026   8.128   4.381   2.476
 2695TIP3   OH2 8027   5.458   2.019   2.580
 2695TIP3    H1 8028   5.472   1.994   2.671
 2695TIP3    H2 8029   5.479   2.112   2.576
 2696TIP3   OH2 8030   2.921   4.741   0.862
 2696TIP3    H1 8031   2.852   4.733   0.928
 2696TIP3    H2 8032   2.949   4.832   0.867
 2697TIP3   OH2 8033   5.171   3.929   0.255
 2697TIP3    H1 8034   5.090   3.979   0.252
 2697TIP3    H2 8035   5.219   3.964   0.330
 2698TIP3   OH2 8036   4.355   6.442   1.134
 2698TIP3    H1 8037   4.340   6.536   1.127
 2698TIP3    H2 8038   4.280   6.403   1.089
 2699TIP3   OH2 8039   8.216   1.896   4.438
 2699TIP3    H1 8040   8.287   1.871   4.497
 2699TIP3    H2 8041   8.213   1.825   4.373
 2700TIP3   OH2 8042   0.872   3.820   2.195
 2700TIP3    H1 8043   0.788   3.851   2.160
 2700TIP3    H2 8044   0.848   3.761   2.267
 2701TIP3   OH2 8045   7.180   1.562   3.219
 2701TIP3    H1 8046   7.175   1.585   3.126
 2701TIP3    H2 8047   7.211   1.471   3.221
 2702TIP3   OH2 8048   4.428   2.004   5.553
 2702TIP3    H1 8049   4.388   1.983   5.637
 2702TIP3    H2 8050   4.367   2.065   5.511
 2703TIP3   OH2 8051   3.072   3.898   2.287
 2703TIP3    H1 8052   3.116   3.824   2.245
 2703TIP3    H2 8053   3.029   3.944   2.215
 2704TIP3   OH2 8054   2.599   3.662   6.424
 2704TIP3    H1 8055   2.508   3.632   6.426
 2704TIP3    H2 8056   2.650   3.581   6.429
 2705TIP3   OH2 8057   6.495   3.384   1.755
 2705TIP3    H1 8058   6.479   3.475   1.780
 2705TIP3    H2 8059   6.500   3.386   1.659
 2706TIP3   OH2 8060   4.995   0.987   4.550
 2706TIP3    H1 8061   4.950   0.951   4.474
 2706TIP3    H2 8062   4.939   1.059   4.580
 2707TIP3   OH2 8063   0.303   4.266   4.909
 2707TIP3    H1 8064   0.307   4.358   4.934
 2707TIP3    H2 8065   0.214   4.254   4.874
 2708TIP3   OH2 8066   1.727   0.958   1.786
 2708TIP3    H1 8067   1.746   0.877   1.739
 2708TIP3    H2 8068   1.787   1.022   1.748
 2709TIP3   OH2 8069   7.891   7.519   6.686
 2709TIP3    H1 8070   7.894   7.508   6.591
 2709TIP3    H2 8071   7.900   7.613   6.700
 2710TIP3   OH2 8072   2.496   5.431   3.815
 2710TIP3    H1 8073   2.566   5.478   3.861
 2710TIP3    H2 8074   2.536   5.348   3.788
 2711TIP3   OH2 8075   4.871   6.915   0.751
 2711TIP3    H1 8076   4.905   6.838   0.797
 2711TIP3    H2 8077   4.787   6.932   0.791
 2712TIP3   OH2 8078   4.708   1.176   4.334
 2712TIP3    H1 8079   4.629   1.177   4.279
 2712TIP3    H2 8080   4.766   1.240   4.294
 2713TIP3   OH2 8081   0.437   0.377   0.765
 2713TIP3    H1 8082   0.420   0.469   0.745
 2713TIP3    H2 8083   0.355   0.332   0.743
 2714TIP3   OH2 8084   2.196   5.225   4.322
 2714TIP3    H1 8085   2.203   5.157   4.254
 2714TIP3    H2 8086   2.286   5.255   4.334
 2715TIP3   OH2 8087   2.602   6.362   1.116
 2715TIP3    H1 8088   2.539   6.293   1.096
 2715TIP3    H2 8089   2.548   6.438   1.141
 2716TIP3   OH2 8090   7.124   0.258   6.455
 2716TIP3    H1 8091   7.110   0.353   6.452
 2716TIP3    H2 8092   7.205   0.247   6.505
 2717TIP3   OH2 8093   1.863   7.513   1.327
 2717TIP3    H1 8094   1.795   7.450   1.352
 2717TIP3    H2 8095   1.941   7.460   1.316
 2718TIP3   OH2 8096   7.206   6.243   1.161
 2718TIP3    H1 8097   7.144   6.298   1.114
 2718TIP3    H2 8098   7.247   6.189   1.093
 2719TIP3   OH2 8099   2.398   0.612   4.033
 2719TIP3    H1 8100   2.453   0.689   4.017
 2719TIP3    H2 8101   2.310   0.647   4.043
 2720TIP3   OH2 8102   0.100   0.269   6.406
 2720TIP3    H1 8103   0.141   0.320   6.336
 2720TIP3    H2 8104   0.167   0.266   6.475
 2721TIP3   OH2 8105   1.987   4.425   3.852
 2721TIP3    H1 8106   1.939   4.504   3.827
 2721TIP3    H2 8107   1.922   4.355   3.847
 2722TIP3   OH2 8108   8.046   3.203   6.205
 2722TIP3    H1 8109   8.105   3.273   6.231
 2722TIP3    H2 8110   7.976   3.247   6.156
 2723TIP3   OH2 8111   0.331   0.912   0.784
 2723TIP3    H1 8112   0.278   0.907   0.704
 2723TIP3    H2 8113   0.421   0.924   0.752
 2724TIP3   OH2 8114   7.298   4.903   1.876
 2724TIP3    H1 8115   7.284   4.830   1.935
 2724TIP3    H2 8116   7.361   4.960   1.921
 2725TIP3   OH2 8117   4.573   2.456   4.407
 2725TIP3    H1 8118   4.649   2.493   4.454
 2725TIP3    H2 8119   4.533   2.531   4.364
 2726TIP3   OH2 8120   8.019   2.025   2.521
 2726TIP3    H1 8121   7.924   2.036   2.512
 2726TIP3    H2 8122   8.050   2.010   2.432
 2727TIP3   OH2 8123   7.971   2.527   5.693
 2727TIP3    H1 8124   8.014   2.566   5.769
 2727TIP3    H2 8125   8.041   2.517   5.628
 2728TIP3   OH2 8126   7.735   3.499   4.642
 2728TIP3    H1 8127   7.661   3.438   4.652
 2728TIP3    H2 8128   7.696   3.578   4.604
 2729TIP3   OH2 8129   3.682   2.069   1.279
 2729TIP3    H1 8130   3.662   2.096   1.369
 2729TIP3    H2 8131   3.648   2.140   1.225
 2730TIP3   OH2 8132   6.343   2.498   5.894
 2730TIP3    H1 8133   6.343   2.403   5.880
 2730TIP3    H2 8134   6.264   2.516   5.945
 2731TIP3   OH2 8135   1.772   0.298   1.967
 2731TIP3    H1 8136   1.763   0.392   1.986
 2731TIP3    H2 8137   1.852   0.292   1.914
 2732TIP3   OH2 8138   0.895   4.697   2.910
 2732TIP3    H1 8139   0.943   4.694   2.993
 2732TIP3    H2 8140   0.817   4.644   2.926
 2733TIP3   OH2 8141   6.784   5.038   4.148
 2733TIP3    H1 8142   6.716   4.978   4.121
 2733TIP3    H2 8143   6.790   5.027   4.243
 2734TIP3   OH2 8144   6.842   4.537   0.360
 2734TIP3    H1 8145   6.849   4.492   0.444
 2734TIP3    H2 8146   6.749   4.557   0.350
 2735TIP3   OH2 8147   6.724   1.733   6.016
 2735TIP3    H1 8148   6.724   1.730   6.112
 2735TIP3    H2 8149   6.813   1.758   5.993
 2736TIP3   OH2 8150   0.424   3.577   0.553
 2736TIP3    H1 8151   0.454   3.520   0.624
 2736TIP3    H2 8152   0.330   3.561   0.548
 2737TIP3   OH2 8153   6.605   4.231   4.532
 2737TIP3    H1 8154   6.546   4.282   4.587
 2737TIP3    H2 8155   6.551   4.162   4.494
 2738TIP3   OH2 8156   5.557   2.529   6.771
 2738TIP3    H1 8157   5.627   2.563   6.715
 2738TIP3    H2 8158   5.490   2.499   6.709
 2739TIP3   OH2 8159   1.770   0.199   4.561
 2739TIP3    H1 8160   1.723   0.207   4.478
 2739TIP3    H2 8161   1.837   0.268   4.558
 2740TIP3   OH2 8162   6.109   4.279   6.754
 2740TIP3    H1 8163   6.080   4.324   6.833
 2740TIP3    H2 8164   6.066   4.327   6.683
 2741TIP3   OH2 8165   6.927   5.511   0.416
 2741TIP3    H1 8166   6.936   5.582   0.479
 2741TIP3    H2 8167   6.862   5.542   0.354
 2742TIP3   OH2 8168   6.106   3.225   4.676
 2742TIP3    H1 8169   6.046   3.205   4.604
 2742TIP3    H2 8170   6.158   3.298   4.643
 2743TIP3   OH2 8171   2.061   5.405   5.473
 2743TIP3    H1 8172   2.006   5.344   5.423
 2743TIP3    H2 8173   2.150   5.376   5.456
 2744TIP3   OH2 8174   5.916   1.494   3.574
 2744TIP3    H1 8175   5.932   1.425   3.509
 2744TIP3    H2 8176   5.835   1.536   3.545
 2745TIP3   OH2 8177   3.056   6.738   6.674
 2745TIP3    H1 8178   3.046   6.823   6.631
 2745TIP3    H2 8179   3.107   6.685   6.613
 2746TIP3   OH2 8180   7.883   0.452   1.412
 2746TIP3    H1 8181   7.933   0.533   1.411
 2746TIP3    H2 8182   7.805   0.472   1.463
 2747TIP3   OH2 8183   0.320   3.186   0.809
 2747TIP3    H1 8184   0.330   3.120   0.740
 2747TIP3    H2 8185   0.365   3.263   0.775
 2748TIP3   OH2 8186   2.335   7.174   2.505
 2748TIP3    H1 8187   2.279   7.103   2.537
 2748TIP3    H2 8188   2.310   7.250   2.557
 2749TIP3   OH2 8189   4.848   7.606   6.015
 2749TIP3    H1 8190   4.843   7.647   6.101
 2749TIP3    H2 8191   4.838   7.678   5.953
 2750TIP3   OH2 8192   7.085   0.761   4.714
 2750TIP3    H1 8193   7.142   0.789   4.643
 2750TIP3    H2 8194   7.145   0.743   4.787
 2751TIP3   OH2 8195   6.745   2.686   1.758
 2751TIP3    H1 8196   6.833   2.669   1.726
 2751TIP3    H2 8197   6.754   2.761   1.816
 2752TIP3   OH2 8198   5.594   3.981   4.793
 2752TIP3    H1 8199   5.675   4.019   4.827
 2752TIP3    H2 8200   5.545   4.056   4.757
 2753TIP3   OH2 8201   8.139   1.217   4.751
 2753TIP3    H1 8202   8.069   1.267   4.710
 2753TIP3    H2 8203   8.150   1.256   4.838
 2754TIP3   OH2 8204   3.261   7.083   2.564
 2754TIP3    H1 8205   3.327   7.107   2.629
 2754TIP3    H2 8206   3.311   7.044   2.492
 2755TIP3   OH2 8207   1.204   0.335   4.133
 2755TIP3    H1 8208   1.157   0.321   4.050
 2755TIP3    H2 8209   1.235   0.426   4.128
 2756TIP3   OH2 8210   5.647   5.442   2.734
 2756TIP3    H1 8211   5.656   5.536   2.718
 2756TIP3    H2 8212   5.677   5.401   2.652
 2757TIP3   OH2 8213   3.988   0.889   5.546
 2757TIP3    H1 8214   3.897   0.870   5.566
 2757TIP3    H2 8215   4.031   0.804   5.542
 2758TIP3   OH2 8216   1.996   2.147   0.020
 2758TIP3    H1 8217   1.932   2.199   0.068
 2758TIP3    H2 8218   2.062   2.211  -0.008
 2759TIP3   OH2 8219   6.220   1.323   5.375
 2759TIP3    H1 8220   6.171   1.377   5.437
 2759TIP3    H2 8221   6.154   1.268   5.333
 2760TIP3   OH2 8222   3.419   7.257   3.360
 2760TIP3    H1 8223   3.392   7.179   3.409
 2760TIP3    H2 8224   3.364   7.327   3.395
 2761TIP3   OH2 8225   0.039   0.894   2.717
 2761TIP3    H1 8226   0.084   0.961   2.665
 2761TIP3    H2 8227   0.068   0.910   2.806
 2762TIP3   OH2 8228   7.009   1.021   4.752
 2762TIP3    H1 8229   6.916   1.018   4.774
 2762TIP3    H2 8230   7.028   0.935   4.714
 2763TIP3   OH2 8231   5.254   0.295   4.633
 2763TIP3    H1 8232   5.254   0.299   4.729
 2763TIP3    H2 8233   5.205   0.216   4.613
 2764TIP3   OH2 8234   2.739   2.248   0.938
 2764TIP3    H1 8235   2.723   2.306   0.863
 2764TIP3    H2 8236   2.780   2.171   0.899
 2765TIP3   OH2 8237   0.289   4.616   3.893
 2765TIP3    H1 8238   0.255   4.610   3.804
 2765TIP3    H2 8239   0.231   4.677   3.937
 2766TIP3   OH2 8240   6.758   3.691   0.027
 2766TIP3    H1 8241   6.743   3.686   0.121
 2766TIP3    H2 8242   6.742   3.602  -0.005
 2767TIP3   OH2 8243   1.254   7.295   1.016
 2767TIP3    H1 8244   1.178   7.248   1.051
 2767TIP3    H2 8245   1.268   7.367   1.078
 2768TIP3   OH2 8246   7.822   0.601   0.339
 2768TIP3    H1 8247   7.744   0.638   0.380
 2768TIP3    H2 8248   7.859   0.673   0.288
 2769TIP3   OH2 8249   3.149   4.227   0.239
 2769TIP3    H1 8250   3.151   4.296   0.306
 2769TIP3    H2 8251   3.056   4.220   0.215
 2770TIP3   OH2 8252   6.547   5.289   6.230
 2770TIP3    H1 8253   6.541   5.365   6.173
 2770TIP3    H2 8254   6.469   5.237   6.208
 2771TIP3   OH2 8255   5.673   6.291   3.670
 2771TIP3    H1 8256   5.604   6.350   3.699
 2771TIP3    H2 8257   5.649   6.206   3.708
 2772TIP3   OH2 8258   0.462   5.441   3.482
 2772TIP3    H1 8259   0.473   5.513   3.420
 2772TIP3    H2 8260   0.436   5.366   3.428
 2773TIP3   OH2 8261   0.476   3.201   4.430
 2773TIP3    H1 8262   0.503   3.262   4.499
 2773TIP3    H2 8263   0.399   3.157   4.466
 2774TIP3   OH2 8264   0.292   5.322   4.958
 2774TIP3    H1 8265   0.254   5.370   4.884
 2774TIP3    H2 8266   0.382   5.304   4.931
 2775TIP3   OH2 8267   0.855   3.200   5.682
 2775TIP3    H1 8268   0.916   3.248   5.738
 2775TIP3    H2 8269   0.897   3.200   5.596
 2776TIP3   OH2 8270   3.218   2.995   6.198
 2776TIP3    H1 8271   3.287   3.033   6.252
 2776TIP3    H2 8272   3.196   3.064   6.135
 2777TIP3   OH2 8273   5.406   3.138   2.249
 2777TIP3    H1 8274   5.336   3.192   2.285
 2777TIP3    H2 8275   5.434   3.083   2.323
 2778TIP3   OH2 8276   1.700   3.256   4.735
 2778TIP3    H1 8277   1.732   3.331   4.686
 2778TIP3    H2 8278   1.605   3.256   4.721
 2779TIP3   OH2 8279   8.283   1.530   1.357
 2779TIP3    H1 8280   8.203   1.513   1.307
 2779TIP3    H2 8281   8.295   1.625   1.350
 2780TIP3   OH2 8282   5.883   2.144   1.064
 2780TIP3    H1 8283   5.970   2.106   1.051
 2780TIP3    H2 8284   5.858   2.176   0.978
 2781TIP3   OH2 8285   5.664   4.635   5.313
 2781TIP3    H1 8286   5.722   4.642   5.389
 2781TIP3    H2 8287   5.712   4.677   5.242
 2782TIP3   OH2 8288   4.163   0.365   0.374
 2782TIP3    H1 8289   4.253   0.351   0.402
 2782TIP3    H2 8290   4.126   0.277   0.367
 2783TIP3   OH2 8291   5.627   2.627   1.535
 2783TIP3    H1 8292   5.581   2.552   1.573
 2783TIP3    H2 8293   5.651   2.681   1.610
 2784TIP3   OH2 8294   2.697   6.853   3.786
 2784TIP3    H1 8295   2.654   6.937   3.769
 2784TIP3    H2 8296   2.731   6.861   3.875
 2785TIP3   OH2 8297   4.459   6.856   4.274
 2785TIP3    H1 8298   4.510   6.922   4.320
 2785TIP3    H2 8299   4.525   6.796   4.238
 2786TIP3   OH2 8300   6.092   2.045   2.668
 2786TIP3    H1 8301   6.108   2.044   2.574
 2786TIP3    H2 8302   6.163   1.992   2.704
 2787TIP3   OH2 8303   4.664   4.536   5.330
 2787TIP3    H1 8304   4.750   4.570   5.354
 2787TIP3    H2 8305   4.621   4.519   5.414
 2788TIP3   OH2 8306   5.442   6.214   2.396
 2788TIP3    H1 8307   5.424   6.299   2.436
 2788TIP3    H2 8308   5.537   6.204   2.404
 2789TIP3   OH2 8309   4.845   1.125   3.702
 2789TIP3    H1 8310   4.904   1.186   3.748
 2789TIP3    H2 8311   4.839   1.160   3.614
 2790TIP3   OH2 8312   1.975   5.635   2.929
 2790TIP3    H1 8313   1.882   5.615   2.930
 2790TIP3    H2 8314   1.982   5.721   2.972
 2791TIP3   OH2 8315   4.989   6.791   6.365
 2791TIP3    H1 8316   4.915   6.742   6.329
 2791TIP3    H2 8317   4.987   6.772   6.459
 2792TIP3   OH2 8318   0.740   6.937   3.625
 2792TIP3    H1 8319   0.646   6.954   3.627
 2792TIP3    H2 8320   0.776   6.993   3.694
 2793TIP3   OH2 8321   3.242   1.257   5.733
 2793TIP3    H1 8322   3.256   1.286   5.824
 2793TIP3    H2 8323   3.148   1.267   5.719
 2794TIP3   OH2 8324   6.823   1.242   4.473
 2794TIP3    H1 8325   6.763   1.306   4.512
 2794TIP3    H2 8326   6.774   1.207   4.399
 2795TIP3   OH2 8327   4.586   0.480   0.462
 2795TIP3    H1 8328   4.585   0.438   0.548
 2795TIP3    H2 8329   4.670   0.525   0.458
 2796TIP3   OH2 8330   2.030   6.496   0.556
 2796TIP3    H1 8331   2.104   6.446   0.588
 2796TIP3    H2 8332   1.985   6.437   0.495
 2797TIP3   OH2 8333   4.557   0.750   1.953
 2797TIP3    H1 8334   4.627   0.782   2.010
 2797TIP3    H2 8335   4.548   0.818   1.886
 2798TIP3   OH2 8336   2.233   5.577   3.082
 2798TIP3    H1 8337   2.153   5.531   3.107
 2798TIP3    H2 8338   2.243   5.556   2.989
 2799TIP3   OH2 8339   0.027   3.764   0.836
 2799TIP3    H1 8340   0.092   3.833   0.820
 2799TIP3    H2 8341   0.024   3.756   0.931
 2800TIP3   OH2 8342   2.845   1.376   0.569
 2800TIP3    H1 8343   2.816   1.428   0.644
 2800TIP3    H2 8344   2.873   1.440   0.505
 2801TIP3   OH2 8345   7.734   7.019   4.041
 2801TIP3    H1 8346   7.775   7.072   3.973
 2801TIP3    H2 8347   7.660   6.977   3.997
 2802TIP3   OH2 8348   3.394   5.831   2.190
 2802TIP3    H1 8349   3.478   5.813   2.232
 2802TIP3    H2 8350   3.352   5.895   2.248
 2803TIP3   OH2 8351   0.488   2.504   3.626
 2803TIP3    H1 8352   0.475   2.560   3.550
 2803TIP3    H2 8353   0.568   2.537   3.667
 2804TIP3   OH2 8354   1.759   3.386   3.215
 2804TIP3    H1 8355   1.684   3.422   3.168
 2804TIP3    H2 8356   1.834   3.405   3.158
 2805TIP3   OH2 8357   1.490   4.572   1.470
 2805TIP3    H1 8358   1.538   4.571   1.553
 2805TIP3    H2 8359   1.551   4.533   1.407
 2806TIP3   OH2 8360   6.551   1.973   6.007
 2806TIP3    H1 8361   6.466   1.978   6.051
 2806TIP3    H2 8362   6.589   2.060   6.021
 2807TIP3   OH2 8363   3.127   3.285   1.797
 2807TIP3    H1 8364   3.152   3.376   1.780
 2807TIP3    H2 8365   3.203   3.248   1.843
 2808TIP3   OH2 8366   7.848   1.271   5.977
 2808TIP3    H1 8367   7.841   1.180   6.008
 2808TIP3    H2 8368   7.941   1.291   5.986
 2809TIP3   OH2 8369   5.695   3.591   5.920
 2809TIP3    H1 8370   5.638   3.523   5.885
 2809TIP3    H2 8371   5.776   3.582   5.870
 2810TIP3   OH2 8372   6.221   5.852   4.333
 2810TIP3    H1 8373   6.184   5.936   4.308
 2810TIP3    H2 8374   6.159   5.787   4.299
 2811TIP3   OH2 8375   6.728   0.409   3.758
 2811TIP3    H1 8376   6.655   0.357   3.792
 2811TIP3    H2 8377   6.741   0.477   3.824
 2812TIP3   OH2 8378   2.124   3.492   4.544
 2812TIP3    H1 8379   2.120   3.513   4.450
 2812TIP3    H2 8380   2.176   3.563   4.582
 2813TIP3   OH2 8381   8.079   0.457   5.731
 2813TIP3    H1 8382   8.106   0.450   5.639
 2813TIP3    H2 8383   7.986   0.434   5.729
 2814TIP3   OH2 8384   7.019   6.718   1.996
 2814TIP3    H1 8385   7.015   6.794   1.938
 2814TIP3    H2 8386   6.936   6.720   2.044
 2815TIP3   OH2 8387   5.029   2.419   1.230
 2815TIP3    H1 8388   5.080   2.352   1.276
 2815TIP3    H2 8389   5.078   2.436   1.150
 2816TIP3   OH2 8390   5.716   7.370   6.114
 2816TIP3    H1 8391   5.796   7.344   6.159
 2816TIP3    H2 8392   5.691   7.293   6.063
 2817TIP3   OH2 8393   0.855   5.664   6.113
 2817TIP3    H1 8394   0.793   5.733   6.089
 2817TIP3    H2 8395   0.892   5.692   6.196
 2818TIP3   OH2 8396   7.833   3.495   1.548
 2818TIP3    H1 8397   7.907   3.507   1.607
 2818TIP3    H2 8398   7.859   3.542   1.468
 2819TIP3   OH2 8399   5.694   6.983   6.447
 2819TIP3    H1 8400   5.601   7.004   6.432
 2819TIP3    H2 8401   5.714   6.915   6.384
 2820TIP3   OH2 8402   7.360   1.216   6.485
 2820TIP3    H1 8403   7.399   1.146   6.537
 2820TIP3    H2 8404   7.271   1.226   6.519
 2821TIP3   OH2 8405   4.707   3.808   4.712
 2821TIP3    H1 8406   4.628   3.819   4.765
 2821TIP3    H2 8407   4.743   3.723   4.740
 2822TIP3   OH2 8408   7.307   7.757   4.183
 2822TIP3    H1 8409   7.308   7.733   4.090
 2822TIP3    H2 8410   7.215   7.755   4.207
 2823TIP3   OH2 8411   5.568   7.379   0.541
 2823TIP3    H1 8412   5.557   7.429   0.622
 2823TIP3    H2 8413   5.515   7.425   0.476
 2824TIP3   OH2 8414   6.590   4.869   2.189
 2824TIP3    H1 8415   6.685   4.874   2.186
 2824TIP3    H2 8416   6.562   4.960   2.195
 2825TIP3   OH2 8417   1.444   6.029   3.671
 2825TIP3    H1 8418   1.483   6.038   3.584
 2825TIP3    H2 8419   1.433   6.119   3.701
 2826TIP3   OH2 8420   5.036   1.348   3.799
 2826TIP3    H1 8421   4.991   1.340   3.883
 2826TIP3    H2 8422   4.988   1.418   3.753
 2827TIP3   OH2 8423   3.054   0.933   6.272
 2827TIP3    H1 8424   3.002   1.010   6.251
 2827TIP3    H2 8425   3.048   0.925   6.367
 2828TIP3   OH2 8426   4.794   6.969   0.136
 2828TIP3    H1 8427   4.755   6.882   0.141
 2828TIP3    H2 8428   4.885   6.956   0.163
 2829TIP3   OH2 8429   4.070   1.125   6.476
 2829TIP3    H1 8430   4.112   1.135   6.561
 2829TIP3    H2 8431   3.980   1.154   6.490
 2830TIP3   OH2 8432   0.207   5.795   3.237
 2830TIP3    H1 8433   0.166   5.823   3.155
 2830TIP3    H2 8434   0.168   5.710   3.255
 2831TIP3   OH2 8435   6.225   5.407   3.758
 2831TIP3    H1 8436   6.184   5.347   3.695
 2831TIP3    H2 8437   6.262   5.349   3.824
 2832TIP3   OH2 8438   3.693   3.346   1.935
 2832TIP3    H1 8439   3.661   3.294   1.861
 2832TIP3    H2 8440   3.728   3.426   1.894
 2833TIP3   OH2 8441   7.312   6.846   2.838
 2833TIP3    H1 8442   7.347   6.758   2.827
 2833TIP3    H2 8443   7.387   6.898   2.866
 2834TIP3   OH2 8444   5.633   0.602   6.499
 2834TIP3    H1 8445   5.542   0.601   6.529
 2834TIP3    H2 8446   5.649   0.514   6.468
 2835TIP3   OH2 8447   5.999   4.875   3.614
 2835TIP3    H1 8448   5.906   4.891   3.603
 2835TIP3    H2 8449   6.038   4.962   3.623
 2836TIP3   OH2 8450   7.823   6.571   3.691
 2836TIP3    H1 8451   7.859   6.645   3.740
 2836TIP3    H2 8452   7.853   6.584   3.601
 2837TIP3   OH2 8453   8.044   1.834   5.386
 2837TIP3    H1 8454   7.951   1.816   5.379
 2837TIP3    H2 8455   8.053   1.927   5.367
 2838TIP3   OH2 8456   1.283   0.931   4.748
 2838TIP3    H1 8457   1.346   0.992   4.708
 2838TIP3    H2 8458   1.328   0.847   4.747
 2839TIP3   OH2 8459   1.780   4.438   0.903
 2839TIP3    H1 8460   1.742   4.353   0.885
 2839TIP3    H2 8461   1.831   4.425   0.983
 2840TIP3   OH2 8462   0.837   5.704   1.752
 2840TIP3    H1 8463   0.877   5.773   1.806
 2840TIP3    H2 8464   0.869   5.722   1.664
 2841TIP3   OH2 8465   1.486   0.664   0.928
 2841TIP3    H1 8466   1.473   0.651   0.834
 2841TIP3    H2 8467   1.514   0.578   0.961
 2842TIP3   OH2 8468   0.089   6.104   6.205
 2842TIP3    H1 8469   0.075   6.133   6.115
 2842TIP3    H2 8470   0.065   6.011   6.204
 2843TIP3   OH2 8471   2.967   4.918   3.079
 2843TIP3    H1 8472   2.890   4.924   3.022
 2843TIP3    H2 8473   3.041   4.929   3.020
 2844TIP3   OH2 8474   6.130   2.167   3.626
 2844TIP3    H1 8475   6.126   2.254   3.666
 2844TIP3    H2 8476   6.184   2.179   3.548
 2845TIP3   OH2 8477  -0.036   7.596   1.562
 2845TIP3    H1 8478   0.032   7.580   1.497
 2845TIP3    H2 8479   0.012   7.620   1.642
 2846TIP3   OH2 8480   4.129   7.571   2.712
 2846TIP3    H1 8481   4.153   7.662   2.692
 2846TIP3    H2 8482   4.175   7.519   2.645
 2847TIP3   OH2 8483   3.471   6.156   2.588
 2847TIP3    H1 8484   3.449   6.224   2.524
 2847TIP3    H2 8485   3.418   6.080   2.562
 2848TIP3   OH2 8486   8.106   2.279   1.132
 2848TIP3    H1 8487   8.153   2.331   1.197
 2848TIP3    H2 8488   8.067   2.344   1.073
 2849TIP3   OH2 8489   1.398   0.964   1.268
 2849TIP3    H1 8490   1.452   0.921   1.202
 2849TIP3    H2 8491   1.430   0.930   1.351
 2850TIP3   OH2 8492   8.005   5.043   0.853
 2850TIP3    H1 8493   7.978   5.043   0.761
 2850TIP3    H2 8494   7.955   4.972   0.893
 2851TIP3   OH2 8495   0.344   4.597   5.269
 2851TIP3    H1 8496   0.360   4.687   5.239
 2851TIP3    H2 8497   0.346   4.603   5.364
 2852TIP3   OH2 8498   5.349   7.417   1.585
 2852TIP3    H1 8499   5.405   7.490   1.559
 2852TIP3    H2 8500   5.369   7.403   1.677
 2853TIP3   OH2 8501   6.548   1.763   3.550
 2853TIP3    H1 8502   6.578   1.736   3.462
 2853TIP3    H2 8503   6.502   1.845   3.535
 2854TIP3   OH2 8504   4.107   2.213   1.886
 2854TIP3    H1 8505   4.158   2.290   1.912
 2854TIP3    H2 8506   4.086   2.169   1.969
 2855TIP3   OH2 8507   5.755   7.097   3.198
 2855TIP3    H1 8508   5.768   7.038   3.124
 2855TIP3    H2 8509   5.705   7.046   3.261
 2856TIP3   OH2 8510   1.021   6.738   3.367
 2856TIP3    H1 8511   0.998   6.646   3.373
 2856TIP3    H2 8512   0.956   6.776   3.308
 2857TIP3   OH2 8513   4.934   2.189   4.942
 2857TIP3    H1 8514   4.996   2.242   4.992
 2857TIP3    H2 8515   4.891   2.134   5.008
 2858TIP3   OH2 8516   2.820   2.322   1.184
 2858TIP3    H1 8517   2.768   2.399   1.207
 2858TIP3    H2 8518   2.786   2.293   1.100
 2859TIP3   OH2 8519   6.691   5.223   3.142
 2859TIP3    H1 8520   6.732   5.231   3.055
 2859TIP3    H2 8521   6.624   5.157   3.130
 2860TIP3   OH2 8522   3.126   7.677   1.072
 2860TIP3    H1 8523   3.163   7.765   1.065
 2860TIP3    H2 8524   3.083   7.662   0.988
 2861TIP3   OH2 8525   2.198   0.996   3.091
 2861TIP3    H1 8526   2.196   0.901   3.104
 2861TIP3    H2 8527   2.106   1.022   3.092
 2862TIP3   OH2 8528   5.365   6.956   5.255
 2862TIP3    H1 8529   5.349   7.048   5.273
 2862TIP3    H2 8530   5.308   6.935   5.180
 2863TIP3   OH2 8531   1.383   3.945   3.848
 2863TIP3    H1 8532   1.467   3.900   3.856
 2863TIP3    H2 8533   1.381   4.006   3.922
 2864TIP3   OH2 8534   6.328   1.027   4.144
 2864TIP3    H1 8535   6.272   0.997   4.072
 2864TIP3    H2 8536   6.321   0.959   4.210
 2865TIP3   OH2 8537   8.007   0.777   3.107
 2865TIP3    H1 8538   8.069   0.704   3.107
 2865TIP3    H2 8539   7.979   0.785   3.198
 2866TIP3   OH2 8540   4.917   5.420   5.561
 2866TIP3    H1 8541   4.843   5.479   5.574
 2866TIP3    H2 8542   4.889   5.338   5.602
 2867TIP3   OH2 8543   5.128   3.012   1.745
 2867TIP3    H1 8544   5.197   3.034   1.807
 2867TIP3    H2 8545   5.173   2.967   1.674
 2868TIP3   OH2 8546   1.697   6.428   2.222
 2868TIP3    H1 8547   1.788   6.419   2.250
 2868TIP3    H2 8548   1.664   6.504   2.270
 2869TIP3   OH2 8549   3.808   3.881   3.351
 2869TIP3    H1 8550   3.851   3.881   3.266
 2869TIP3    H2 8551   3.871   3.922   3.410
 2870TIP3   OH2 8552   2.521   1.158   2.585
 2870TIP3    H1 8553   2.455   1.120   2.527
 2870TIP3    H2 8554   2.475   1.228   2.631
 2871TIP3   OH2 8555   4.090   6.264   4.381
 2871TIP3    H1 8556   4.114   6.227   4.296
 2871TIP3    H2 8557   4.025   6.204   4.416
 2872TIP3   OH2 8558   1.700   0.823   2.189
 2872TIP3    H1 8559   1.620   0.865   2.158
 2872TIP3    H2 8560   1.769   0.861   2.136
 2873TIP3   OH2 8561   3.396   7.190   4.081
 2873TIP3    H1 8562   3.377   7.273   4.038
 2873TIP3    H2 8563   3.451   7.142   4.019
 2874TIP3   OH2 8564   2.020   7.442   2.614
 2874TIP3    H1 8565   2.046   7.526   2.577
 2874TIP3    H2 8566   1.978   7.464   2.697
 2875TIP3   OH2 8567   7.591   4.727   2.301
 2875TIP3    H1 8568   7.607   4.745   2.394
 2875TIP3    H2 8569   7.678   4.730   2.261
 2876TIP3   OH2 8570   7.519   4.083   0.136
 2876TIP3    H1 8571   7.515   4.103   0.042
 2876TIP3    H2 8572   7.571   4.154   0.174
 2877TIP3   OH2 8573   5.012   7.364   0.919
 2877TIP3    H1 8574   4.964   7.446   0.934
 2877TIP3    H2 8575   4.978   7.304   0.986
 2878TIP3   OH2 8576   6.688   4.648   3.786
 2878TIP3    H1 8577   6.770   4.616   3.824
 2878TIP3    H2 8578   6.627   4.575   3.794
 2879TIP3   OH2 8579   2.831   5.329   3.374
 2879TIP3    H1 8580   2.803   5.416   3.401
 2879TIP3    H2 8581   2.775   5.308   3.299
 2880TIP3   OH2 8582   0.609   2.382   0.347
 2880TIP3    H1 8583   0.539   2.445   0.334
 2880TIP3    H2 8584   0.594   2.346   0.434
 2881TIP3   OH2 8585   3.045   2.359   3.236
 2881TIP3    H1 8586   3.031   2.272   3.199
 2881TIP3    H2 8587   3.024   2.419   3.164
 2882TIP3   OH2 8588   4.692   0.900   3.922
 2882TIP3    H1 8589   4.609   0.946   3.930
 2882TIP3    H2 8590   4.695   0.871   3.831
 2883TIP3   OH2 8591   1.808   3.907   1.839
 2883TIP3    H1 8592   1.801   3.897   1.744
 2883TIP3    H2 8593   1.896   3.875   1.859
 2884TIP3   OH2 8594   1.743   0.978   5.334
 2884TIP3    H1 8595   1.733   0.904   5.394
 2884TIP3    H2 8596   1.684   1.044   5.368
 2885TIP3   OH2 8597   1.469   6.921   4.540
 2885TIP3    H1 8598   1.379   6.896   4.562
 2885TIP3    H2 8599   1.490   6.867   4.464
 2886TIP3   OH2 8600   7.432   1.051   0.009
 2886TIP3    H1 8601   7.352   1.081  -0.034
 2886TIP3    H2 8602   7.402   0.991   0.077
 2887TIP3   OH2 8603   7.751   6.976   5.336
 2887TIP3    H1 8604   7.746   7.013   5.424
 2887TIP3    H2 8605   7.798   7.041   5.285
 2888TIP3   OH2 8606   7.782   4.753   5.538
 2888TIP3    H1 8607   7.784   4.780   5.446
 2888TIP3    H2 8608   7.693   4.718   5.551
 2889TIP3   OH2 8609   0.990   5.611   1.975
 2889TIP3    H1 8610   0.906   5.584   1.936
 2889TIP3    H2 8611   1.001   5.552   2.049
 2890TIP3   OH2 8612   2.590   0.547   3.399
 2890TIP3    H1 8613   2.666   0.490   3.390
 2890TIP3    H2 8614   2.596   0.581   3.488
 2891TIP3   OH2 8615   6.201   1.518   3.681
 2891TIP3    H1 8616   6.126   1.471   3.644
 2891TIP3    H2 8617   6.163   1.576   3.747
 2892TIP3   OH2 8618   4.708   2.658   4.714
 2892TIP3    H1 8619   4.764   2.580   4.716
 2892TIP3    H2 8620   4.619   2.623   4.719
 2893TIP3   OH2 8621   8.139   2.182   1.492
 2893TIP3    H1 8622   8.171   2.192   1.581
 2893TIP3    H2 8623   8.164   2.264   1.449
 2894TIP3   OH2 8624   5.397   6.995   3.013
 2894TIP3    H1 8625   5.316   7.028   3.052
 2894TIP3    H2 8626   5.424   6.923   3.071
 2895TIP3   OH2 8627   4.942   2.936   0.957
 2895TIP3    H1 8628   4.995   3.015   0.965
 2895TIP3    H2 8629   4.946   2.896   1.044
 2896TIP3   OH2 8630   4.380   3.517   6.727
 2896TIP3    H1 8631   4.414   3.503   6.638
 2896TIP3    H2 8632   4.301   3.569   6.714
 2897TIP3   OH2 8633   6.734   5.948   4.440
 2897TIP3    H1 8634   6.796   5.939   4.367
 2897TIP3    H2 8635   6.749   6.036   4.473
 2898TIP3   OH2 8636   6.969   1.077   5.260
 2898TIP3    H1 8637   6.985   1.147   5.324
 2898TIP3    H2 8638   7.023   1.102   5.185
 2899TIP3   OH2 8639   3.013   5.743   5.800
 2899TIP3    H1 8640   3.001   5.685   5.725
 2899TIP3    H2 8641   3.046   5.686   5.870
 2900TIP3   OH2 8642   4.713   7.460   4.767
 2900TIP3    H1 8643   4.764   7.441   4.689
 2900TIP3    H2 8644   4.755   7.410   4.837
 2901TIP3   OH2 8645   5.090   7.796   0.260
 2901TIP3    H1 8646   5.105   7.702   0.252
 2901TIP3    H2 8647   5.155   7.836   0.202
 2902TIP3   OH2 8648   4.640   4.199   1.430
 2902TIP3    H1 8649   4.638   4.203   1.335
 2902TIP3    H2 8650   4.685   4.279   1.457
 2903TIP3   OH2 8651   3.471   6.348   5.578
 2903TIP3    H1 8652   3.439   6.431   5.613
 2903TIP3    H2 8653   3.562   6.366   5.554
 2904TIP3   OH2 8654   0.386   5.608   2.561
 2904TIP3    H1 8655   0.465   5.560   2.537
 2904TIP3    H2 8656   0.314   5.546   2.544
 2905TIP3   OH2 8657   1.684   3.398   4.349
 2905TIP3    H1 8658   1.637   3.452   4.412
 2905TIP3    H2 8659   1.669   3.308   4.378
 2906TIP3   OH2 8660   1.001   4.484   1.931
 2906TIP3    H1 8661   0.920   4.529   1.957
 2906TIP3    H2 8662   1.063   4.503   2.001
 2907TIP3   OH2 8663   2.349   7.590   6.029
 2907TIP3    H1 8664   2.271   7.644   6.041
 2907TIP3    H2 8665   2.396   7.596   6.113
 2908TIP3   OH2 8666   5.238   1.168   3.711
 2908TIP3    H1 8667   5.261   1.101   3.775
 2908TIP3    H2 8668   5.172   1.221   3.755
 2909TIP3   OH2 8669   3.257   5.532   5.684
 2909TIP3    H1 8670   3.297   5.578   5.758
 2909TIP3    H2 8671   3.278   5.440   5.698
 2910TIP3   OH2 8672   3.373   7.088   5.839
 2910TIP3    H1 8673   3.314   7.073   5.765
 2910TIP3    H2 8674   3.458   7.107   5.799
 2911TIP3   OH2 8675   4.729   0.837   0.993
 2911TIP3    H1 8676   4.671   0.844   0.917
 2911TIP3    H2 8677   4.670   0.837   1.068
 2912TIP3   OH2 8678   0.554   5.626   4.486
 2912TIP3    H1 8679   0.598   5.543   4.504
 2912TIP3    H2 8680   0.585   5.652   4.400
 2913TIP3   OH2 8681   0.256   0.550   1.257
 2913TIP3    H1 8682   0.265   0.515   1.168
 2913TIP3    H2 8683   0.315   0.626   1.259
 2914TIP3   OH2 8684   7.939   3.510   5.135
 2914TIP3    H1 8685   8.022   3.467   5.116
 2914TIP3    H2 8686   7.875   3.465   5.081
 2915TIP3   OH2 8687   0.508   1.880   1.648
 2915TIP3    H1 8688   0.514   1.806   1.588
 2915TIP3    H2 8689   0.599   1.905   1.665
 2916TIP3   OH2 8690   0.881   4.015   4.238
 2916TIP3    H1 8691   0.920   3.963   4.167
 2916TIP3    H2 8692   0.950   4.078   4.262
 2917TIP3   OH2 8693   5.367   0.617   1.174
 2917TIP3    H1 8694   5.457   0.598   1.147
 2917TIP3    H2 8695   5.376   0.656   1.261
 2918TIP3   OH2 8696   1.917   0.126   5.405
 2918TIP3    H1 8697   1.829   0.107   5.439
 2918TIP3    H2 8698   1.905   0.136   5.311
 2919TIP3   OH2 8699   4.207   1.636   4.571
 2919TIP3    H1 8700   4.124   1.632   4.525
 2919TIP3    H2 8701   4.184   1.666   4.659
 2920TIP3   OH2 8702   6.911   3.010   2.336
 2920TIP3    H1 8703   6.892   2.943   2.402
 2920TIP3    H2 8704   6.940   2.960   2.260
 2921TIP3   OH2 8705   2.832   4.834   0.368
 2921TIP3    H1 8706   2.907   4.885   0.399
 2921TIP3    H2 8707   2.778   4.822   0.445
 2922TIP3   OH2 8708   0.415   3.497   4.314
 2922TIP3    H1 8709   0.403   3.479   4.407
 2922TIP3    H2 8710   0.448   3.415   4.278
 2923TIP3   OH2 8711   2.485   6.867   4.792
 2923TIP3    H1 8712   2.409   6.814   4.768
 2923TIP3    H2 8713   2.452   6.957   4.789
 2924TIP3   OH2 8714   0.308   0.639   0.742
 2924TIP3    H1 8715   0.328   0.731   0.756
 2924TIP3    H2 8716   0.347   0.619   0.657
 2925TIP3   OH2 8717   5.396   0.552   3.425
 2925TIP3    H1 8718   5.310   0.568   3.463
 2925TIP3    H2 8719   5.426   0.471   3.466
 2926TIP3   OH2 8720   1.953   1.441   1.386
 2926TIP3    H1 8721   1.985   1.484   1.306
 2926TIP3    H2 8722   1.954   1.348   1.364
 2927TIP3   OH2 8723   7.593   0.689   0.468
 2927TIP3    H1 8724   7.516   0.746   0.470
 2927TIP3    H2 8725   7.630   0.694   0.556
 2928TIP3   OH2 8726   1.326   6.203   3.340
 2928TIP3    H1 8727   1.349   6.213   3.248
 2928TIP3    H2 8728   1.394   6.147   3.376
 2929TIP3   OH2 8729   4.289   5.655   3.379
 2929TIP3    H1 8730   4.248   5.696   3.455
 2929TIP3    H2 8731   4.231   5.583   3.356
 2930TIP3   OH2 8732   2.893   4.116   5.879
 2930TIP3    H1 8733   2.976   4.076   5.854
 2930TIP3    H2 8734   2.827   4.050   5.857
 2931TIP3   OH2 8735   7.126   2.863   4.682
 2931TIP3    H1 8736   7.133   2.861   4.777
 2931TIP3    H2 8737   7.056   2.801   4.662
 2932TIP3   OH2 8738   7.224   6.716   4.529
 2932TIP3    H1 8739   7.129   6.710   4.541
 2932TIP3    H2 8740   7.239   6.680   4.441
 2933TIP3   OH2 8741   2.740   4.857   5.220
 2933TIP3    H1 8742   2.682   4.894   5.154
 2933TIP3    H2 8743   2.826   4.853   5.177
 2934TIP3   OH2 8744   8.111   7.319   4.363
 2934TIP3    H1 8745   8.036   7.276   4.322
 2934TIP3    H2 8746   8.118   7.279   4.449
 2935TIP3   OH2 8747   2.858   3.345   3.835
 2935TIP3    H1 8748   2.842   3.318   3.926
 2935TIP3    H2 8749   2.904   3.271   3.795
 2936TIP3   OH2 8750   0.561   7.490   4.060
 2936TIP3    H1 8751   0.522   7.550   3.996
 2936TIP3    H2 8752   0.568   7.406   4.014
 2937TIP3   OH2 8753   3.690   0.396   3.698
 2937TIP3    H1 8754   3.662   0.460   3.633
 2937TIP3    H2 8755   3.691   0.444   3.781
 2938TIP3   OH2 8756   7.867   3.705   1.334
 2938TIP3    H1 8757   7.910   3.719   1.249
 2938TIP3    H2 8758   7.858   3.794   1.370
 2939TIP3   OH2 8759   0.272   5.979   1.425
 2939TIP3    H1 8760   0.209   5.912   1.397
 2939TIP3    H2 8761   0.357   5.935   1.423
 2940TIP3   OH2 8762   0.651   3.307   5.068
 2940TIP3    H1 8763   0.639   3.312   5.163
 2940TIP3    H2 8764   0.578   3.253   5.037
 2941TIP3   OH2 8765   6.778   3.967   3.245
 2941TIP3    H1 8766   6.861   3.969   3.293
 2941TIP3    H2 8767   6.786   4.038   3.181
 2942TIP3   OH2 8768   1.971   1.008   2.662
 2942TIP3    H1 8769   2.042   0.949   2.633
 2942TIP3    H2 8770   1.898   0.986   2.604
 2943TIP3   OH2 8771   2.624   0.208   6.452
 2943TIP3    H1 8772   2.628   0.116   6.476
 2943TIP3    H2 8773   2.678   0.252   6.518
 2944TIP3   OH2 8774   8.117   6.422   3.658
 2944TIP3    H1 8775   8.075   6.459   3.735
 2944TIP3    H2 8776   8.079   6.470   3.585
 2945TIP3   OH2 8777   5.405   7.105   3.370
 2945TIP3    H1 8778   5.489   7.061   3.354
 2945TIP3    H2 8779   5.381   7.079   3.459
 2946TIP3   OH2 8780   1.875   6.889   4.884
 2946TIP3    H1 8781   1.785   6.895   4.851
 2946TIP3    H2 8782   1.884   6.963   4.944
 2947TIP3   OH2 8783   6.518   7.136   4.916
 2947TIP3    H1 8784   6.510   7.065   4.979
 2947TIP3    H2 8785   6.462   7.110   4.843
 2948TIP3   OH2 8786   4.201   7.025   1.701
 2948TIP3    H1 8787   4.181   7.063   1.786
 2948TIP3    H2 8788   4.169   6.935   1.706
 2949TIP3   OH2 8789   5.048   5.656   1.654
 2949TIP3    H1 8790   5.124   5.603   1.629
 2949TIP3    H2 8791   5.087   5.735   1.693
 2950TIP3   OH2 8792   0.803   6.573   6.245
 2950TIP3    H1 8793   0.742   6.630   6.291
 2950TIP3    H2 8794   0.755   6.492   6.232
 2951TIP3   OH2 8795   6.706   0.050   2.187
 2951TIP3    H1 8796   6.743   0.062   2.274
 2951TIP3    H2 8797   6.639   0.119   2.180
 2952TIP3   OH2 8798   3.001   6.828   4.475
 2952TIP3    H1 8799   3.016   6.769   4.549
 2952TIP3    H2 8800   2.998   6.916   4.514
 2953TIP3   OH2 8801   1.257   6.010   3.925
 2953TIP3    H1 8802   1.175   5.995   3.878
 2953TIP3    H2 8803   1.286   5.923   3.952
 2954TIP3   OH2 8804   4.132   2.112   5.232
 2954TIP3    H1 8805   4.088   2.182   5.183
 2954TIP3    H2 8806   4.225   2.135   5.227
 2955TIP3   OH2 8807   2.236   4.942   5.492
 2955TIP3    H1 8808   2.299   4.940   5.564
 2955TIP3    H2 8809   2.155   4.910   5.531
 2956TIP3   OH2 8810   7.397   2.697   3.214
 2956TIP3    H1 8811   7.404   2.755   3.138
 2956TIP3    H2 8812   7.444   2.618   3.188
 2957TIP3   OH2 8813   1.005   3.412   2.873
 2957TIP3    H1 8814   1.034   3.340   2.816
 2957TIP3    H2 8815   0.923   3.441   2.833
 2958TIP3   OH2 8816   6.600   6.396   1.620
 2958TIP3    H1 8817   6.646   6.467   1.577
 2958TIP3    H2 8818   6.667   6.352   1.673
 2959TIP3   OH2 8819   1.910   0.068   5.801
 2959TIP3    H1 8820   1.992   0.084   5.754
 2959TIP3    H2 8821   1.937   0.052   5.891
 2960TIP3   OH2 8822   3.840   1.090   3.520
 2960TIP3    H1 8823   3.852   1.185   3.522
 2960TIP3    H2 8824   3.909   1.059   3.462
 2961TIP3   OH2 8825   2.974   7.360   0.093
 2961TIP3    H1 8826   3.053   7.399   0.130
 2961TIP3    H2 8827   2.903   7.392   0.149
 2962TIP3   OH2 8828   3.127   6.098   6.011
 2962TIP3    H1 8829   3.205   6.060   6.051
 2962TIP3    H2 8830   3.161   6.169   5.956
 2963TIP3   OH2 8831   4.328   5.808   5.391
 2963TIP3    H1 8832   4.244   5.829   5.432
 2963TIP3    H2 8833   4.314   5.828   5.298
 2964TIP3   OH2 8834   0.232   7.568   4.182
 2964TIP3    H1 8835   0.307   7.515   4.207
 2964TIP3    H2 8836   0.197   7.601   4.265
 2965TIP3   OH2 8837   7.094   0.123   5.292
 2965TIP3    H1 8838   7.186   0.135   5.313
 2965TIP3    H2 8839   7.068   0.203   5.247
 2966TIP3   OH2 8840   0.241   1.561   0.298
 2966TIP3    H1 8841   0.236   1.535   0.390
 2966TIP3    H2 8842   0.334   1.571   0.281
 2967TIP3   OH2 8843   5.077   7.696   5.432
 2967TIP3    H1 8844   5.033   7.741   5.503
 2967TIP3    H2 8845   5.029   7.614   5.421
 2968TIP3   OH2 8846   1.946   0.985   2.036
 2968TIP3    H1 8847   2.040   0.991   2.056
 2968TIP3    H2 8848   1.934   0.896   2.003
 2969TIP3   OH2 8849   1.780   4.212   2.154
 2969TIP3    H1 8850   1.711   4.193   2.090
 2969TIP3    H2 8851   1.769   4.305   2.173
 2970TIP3   OH2 8852   3.020   7.678   4.093
 2970TIP3    H1 8853   2.937   7.674   4.045
 2970TIP3    H2 8854   3.013   7.757   4.146
 2971TIP3   OH2 8855   6.405   2.127   4.843
 2971TIP3    H1 8856   6.323   2.164   4.876
 2971TIP3    H2 8857   6.394   2.032   4.852
 2972TIP3   OH2 8858   6.722   2.266   4.565
 2972TIP3    H1 8859   6.677   2.182   4.566
 2972TIP3    H2 8860   6.715   2.298   4.655
 2973TIP3   OH2 8861   3.375   3.186   2.041
 2973TIP3    H1 8862   3.453   3.131   2.047
 2973TIP3    H2 8863   3.308   3.137   2.089
 2974TIP3   OH2 8864   5.351   6.246   3.257
 2974TIP3    H1 8865   5.376   6.173   3.314
 2974TIP3    H2 8866   5.312   6.311   3.316
 2975TIP3   OH2 8867   1.642   6.260   3.217
 2975TIP3    H1 8868   1.675   6.350   3.207
 2975TIP3    H2 8869   1.687   6.210   3.149
 2976TIP3   OH2 8870   1.906   0.089   3.524
 2976TIP3    H1 8871   1.904  -0.006   3.539
 2976TIP3    H2 8872   1.847   0.125   3.591
 2977TIP3   OH2 8873   6.200   0.707   0.095
 2977TIP3    H1 8874   6.202   0.686   0.001
 2977TIP3    H2 8875   6.191   0.802   0.099
 2978TIP3   OH2 8876   5.466   5.702   1.825
 2978TIP3    H1 8877   5.408   5.653   1.767
 2978TIP3    H2 8878   5.414   5.716   1.904
 2979TIP3   OH2 8879   3.730   7.145   2.092
 2979TIP3    H1 8880   3.804   7.111   2.041
 2979TIP3    H2 8881   3.702   7.072   2.146
 2980TIP3   OH2 8882   6.538   0.266   1.933
 2980TIP3    H1 8883   6.498   0.202   1.993
 2980TIP3    H2 8884   6.464   0.303   1.885
 2981TIP3   OH2 8885   7.269   0.855   0.137
 2981TIP3    H1 8886   7.262   0.803   0.057
 2981TIP3    H2 8887   7.179   0.882   0.156
 2982TIP3   OH2 8888   4.994   4.307   1.102
 2982TIP3    H1 8889   4.981   4.379   1.163
 2982TIP3    H2 8890   4.911   4.301   1.054
 2983TIP3   OH2 8891   2.968   2.708   5.862
 2983TIP3    H1 8892   2.897   2.667   5.911
 2983TIP3    H2 8893   2.951   2.802   5.869
 2984TIP3   OH2 8894   3.221   7.601   2.415
 2984TIP3    H1 8895   3.167   7.581   2.339
 2984TIP3    H2 8896   3.234   7.517   2.459
 2985TIP3   OH2 8897   3.144   1.772   0.591
 2985TIP3    H1 8898   3.053   1.785   0.617
 2985TIP3    H2 8899   3.150   1.807   0.502
 2986TIP3   OH2 8900   1.702   6.846   3.975
 2986TIP3    H1 8901   1.770   6.795   4.018
 2986TIP3    H2 8902   1.665   6.786   3.910
 2987TIP3   OH2 8903   7.962   4.862   4.245
 2987TIP3    H1 8904   7.882   4.885   4.293
 2987TIP3    H2 8905   8.004   4.947   4.228
 2988TIP3   OH2 8906   4.733   6.117   0.863
 2988TIP3    H1 8907   4.667   6.115   0.932
 2988TIP3    H2 8908   4.719   6.036   0.814
 2989TIP3   OH2 8909   4.220   3.477   1.516
 2989TIP3    H1 8910   4.184   3.545   1.573
 2989TIP3    H2 8911   4.161   3.402   1.528
 2990TIP3   OH2 8912   2.106   3.817   1.717
 2990TIP3    H1 8913   2.110   3.811   1.622
 2990TIP3    H2 8914   2.171   3.885   1.739
 2991TIP3   OH2 8915   2.016   7.394   1.751
 2991TIP3    H1 8916   2.005   7.321   1.812
 2991TIP3    H2 8917   2.034   7.352   1.667
 2992TIP3   OH2 8918   5.933   5.387   5.179
 2992TIP3    H1 8919   6.017   5.430   5.164
 2992TIP3    H2 8920   5.953   5.294   5.183
 2993TIP3   OH2 8921   7.097   2.869   3.325
 2993TIP3    H1 8922   7.023   2.888   3.382
 2993TIP3    H2 8923   7.139   2.954   3.311
 2994TIP3   OH2 8924   5.047   6.420   5.034
 2994TIP3    H1 8925   5.028   6.449   4.944
 2994TIP3    H2 8926   5.139   6.440   5.047
 2995TIP3   OH2 8927   7.187   3.780   4.469
 2995TIP3    H1 8928   7.114   3.806   4.525
 2995TIP3    H2 8929   7.153   3.790   4.380
 2996TIP3   OH2 8930   8.100   6.589   3.920
 2996TIP3    H1 8931   8.018   6.630   3.893
 2996TIP3    H2 8932   8.168   6.643   3.881
 2997TIP3   OH2 8933   5.875   1.736   1.004
 2997TIP3    H1 8934   5.827   1.751   1.085
 2997TIP3    H2 8935   5.828   1.787   0.938
 2998TIP3   OH2 8936   3.674   4.045   5.040
 2998TIP3    H1 8937   3.656   3.996   4.960
 2998TIP3    H2 8938   3.668   3.979   5.110
 2999TIP3   OH2 8939   5.649   4.851   3.093
 2999TIP3    H1 8940   5.637   4.928   3.149
 2999TIP3    H2 8941   5.565   4.842   3.047
 3000TIP3   OH2 8942   1.170   7.787   6.375
 3000TIP3    H1 8943   1.200   7.736   6.450
 3000TIP3    H2 8944   1.232   7.766   6.305
 3001TIP3   OH2 8945   6.594   7.158   2.826
 3001TIP3    H1 8946   6.675   7.198   2.795
 3001TIP3    H2 8947   6.535   7.162   2.751
 3002TIP3   OH2 8948   0.778   2.848   2.873
 3002TIP3    H1 8949   0.836   2.807   2.809
 3002TIP3    H2 8950   0.837   2.888   2.937
 3003TIP3   OH2 8951   0.601   6.212   4.299
 3003TIP3    H1 8952   0.540   6.177   4.364
 3003TIP3    H2 8953   0.661   6.139   4.281
 3004TIP3   OH2 8954   1.928   0.127   6.338
 3004TIP3    H1 8955   2.012   0.091   6.365
 3004TIP3    H2 8956   1.918   0.206   6.391
 3005TIP3   OH2 8957   1.818   3.228   5.109
 3005TIP3    H1 8958   1.883   3.254   5.044
 3005TIP3    H2 8959   1.865   3.226   5.192
 3006TIP3   OH2 8960   6.746   4.661   1.898
 3006TIP3    H1 8961   6.747   4.575   1.941
 3006TIP3    H2 8962   6.812   4.712   1.945
 3007TIP3   OH2 8963   0.436   0.508   4.313
 3007TIP3    H1 8964   0.530   0.527   4.320
 3007TIP3    H2 8965   0.393   0.592   4.331
 3008TIP3   OH2 8966   4.029   2.710   2.574
 3008TIP3    H1 8967   4.085   2.783   2.601
 3008TIP3    H2 8968   3.951   2.752   2.536
 3009TIP3   OH2 8969   1.450   5.903   6.492
 3009TIP3    H1 8970   1.453   5.897   6.587
 3009TIP3    H2 8971   1.503   5.980   6.470
 3010TIP3   OH2 8972   6.347   3.711   0.076
 3010TIP3    H1 8973   6.253   3.727   0.066
 3010TIP3    H2 8974   6.352   3.620   0.104
 3011TIP3   OH2 8975   2.103   7.018   0.347
 3011TIP3    H1 8976   2.182   6.971   0.374
 3011TIP3    H2 8977   2.035   6.952   0.347
 3012TIP3   OH2 8978   8.057   1.926   6.732
 3012TIP3    H1 8979   7.989   1.890   6.789
 3012TIP3    H2 8980   8.080   1.853   6.674
 3013TIP3   OH2 8981   7.524   0.061   4.144
 3013TIP3    H1 8982   7.457   0.123   4.170
 3013TIP3    H2 8983   7.480   0.002   4.083
 3014TIP3   OH2 8984   6.709   2.357   0.861
 3014TIP3    H1 8985   6.748   2.296   0.798
 3014TIP3    H2 8986   6.642   2.404   0.811
 3015TIP3   OH2 8987   0.291   7.307   0.306
 3015TIP3    H1 8988   0.300   7.213   0.323
 3015TIP3    H2 8989   0.378   7.342   0.323
 3016TIP3   OH2 8990   2.222   2.958   3.792
 3016TIP3    H1 8991   2.216   2.936   3.886
 3016TIP3    H2 8992   2.299   3.014   3.786
 3017TIP3   OH2 8993   6.917   3.948   5.918
 3017TIP3    H1 8994   7.008   3.946   5.946
 3017TIP3    H2 8995   6.919   3.931   5.824
 3018TIP3   OH2 8996   2.732   5.297   2.389
 3018TIP3    H1 8997   2.679   5.301   2.468
 3018TIP3    H2 8998   2.817   5.265   2.418
 3019TIP3   OH2 8999   6.773   5.255   2.058
 3019TIP3    H1 9000   6.718   5.277   1.983
 3019TIP3    H2 9001   6.856   5.301   2.041
 3020TIP3   OH2 9002   7.196   0.588   6.423
 3020TIP3    H1 9003   7.264   0.546   6.476
 3020TIP3    H2 9004   7.243   0.624   6.347
 3021TIP3   OH2 9005   2.189   0.699   3.148
 3021TIP3    H1 9006   2.279   0.671   3.129
 3021TIP3    H2 9007   2.134   0.634   3.103
 3022TIP3   OH2 9008   4.637   6.947   6.019
 3022TIP3    H1 9009   4.678   7.016   6.071
 3022TIP3    H2 9010   4.710   6.891   5.992
 3023TIP3   OH2 9011   5.135   6.302   1.312
 3023TIP3    H1 9012   5.061   6.272   1.365
 3023TIP3    H2 9013   5.122   6.397   1.304
 3024TIP3   OH2 9014   1.514   3.688   5.361
 3024TIP3    H1 9015   1.427   3.670   5.326
 3024TIP3    H2 9016   1.552   3.601   5.378
 3025TIP3   OH2 9017   2.573   7.593   4.899
 3025TIP3    H1 9018   2.531   7.591   4.813
 3025TIP3    H2 9019   2.634   7.518   4.898
 3026TIP3   OH2 9020   1.346   3.599   2.826
 3026TIP3    H1 9021   1.420   3.660   2.822
 3026TIP3    H2 9022   1.339   3.565   2.737
 3027TIP3   OH2 9023   6.659   5.117   3.763
 3027TIP3    H1 9024   6.689   5.207   3.759
 3027TIP3    H2 9025   6.730   5.070   3.808
 3028TIP3   OH2 9026   7.342   5.967   6.220
 3028TIP3    H1 9027   7.402   5.955   6.293
 3028TIP3    H2 9028   7.360   6.055   6.188
 3029TIP3   OH2 9029   3.645   3.366   5.162
 3029TIP3    H1 9030   3.709   3.335   5.098
 3029TIP3    H2 9031   3.567   3.387   5.111
 3030TIP3   OH2 9032   7.431   0.823   2.186
 3030TIP3    H1 9033   7.378   0.903   2.180
 3030TIP3    H2 9034   7.412   0.788   2.273
 3031TIP3   OH2 9035   3.506   3.445   5.559
 3031TIP3    H1 9036   3.597   3.430   5.535
 3031TIP3    H2 9037   3.483   3.372   5.617
 3032TIP3   OH2 9038   0.403   3.715   6.192
 3032TIP3    H1 9039   0.464   3.788   6.182
 3032TIP3    H2 9040   0.436   3.648   6.132
 3033TIP3   OH2 9041   7.085   3.788   3.220
 3033TIP3    H1 9042   7.090   3.839   3.139
 3033TIP3    H2 9043   7.030   3.713   3.197
 3034TIP3   OH2 9044   0.546   0.788   6.443
 3034TIP3    H1 9045   0.587   0.874   6.450
 3034TIP3    H2 9046   0.459   0.800   6.481
 3035TIP3   OH2 9047   7.831   5.400   2.609
 3035TIP3    H1 9048   7.864   5.326   2.660
 3035TIP3    H2 9049   7.871   5.390   2.523
 3036TIP3   OH2 9050   1.139   2.142   2.053
 3036TIP3    H1 9051   1.118   2.050   2.070
 3036TIP3    H2 9052   1.195   2.140   1.975
 3037TIP3   OH2 9053   2.097   4.904   0.945
 3037TIP3    H1 9054   2.085   4.853   0.865
 3037TIP3    H2 9055   2.042   4.981   0.934
 3038TIP3   OH2 9056   8.278   2.969   4.759
 3038TIP3    H1 9057   8.236   2.885   4.740
 3038TIP3    H2 9058   8.365   2.961   4.721
 3039TIP3   OH2 9059   1.636   3.038   6.535
 3039TIP3    H1 9060   1.647   3.123   6.578
 3039TIP3    H2 9061   1.688   3.045   6.455
 3040TIP3   OH2 9062   7.638   4.939   2.487
 3040TIP3    H1 9063   7.624   4.877   2.558
 3040TIP3    H2 9064   7.731   4.931   2.466
 3041TIP3   OH2 9065   2.014   0.421   2.676
 3041TIP3    H1 9066   1.987   0.378   2.594
 3041TIP3    H2 9067   2.084   0.481   2.649
 3042TIP3   OH2 9068   7.107   6.522   0.014
 3042TIP3    H1 9069   7.037   6.563  -0.037
 3042TIP3    H2 9070   7.068   6.505   0.099
 3043TIP3   OH2 9071   2.742   2.679   6.092
 3043TIP3    H1 9072   2.804   2.750   6.109
 3043TIP3    H2 9073   2.738   2.629   6.174
 3044TIP3   OH2 9074   6.992   5.065   5.508
 3044TIP3    H1 9075   6.954   4.979   5.492
 3044TIP3    H2 9076   6.932   5.106   5.571
 3045TIP3   OH2 9077   7.599   5.543   2.355
 3045TIP3    H1 9078   7.689   5.576   2.355
 3045TIP3    H2 9079   7.546   5.620   2.377
 3046TIP3   OH2 9080   7.595   5.218   1.795
 3046TIP3    H1 9081   7.678   5.210   1.844
 3046TIP3    H2 9082   7.528   5.218   1.863
 3047TIP3   OH2 9083   3.456   3.298   6.707
 3047TIP3    H1 9084   3.539   3.272   6.746
 3047TIP3    H2 9085   3.413   3.216   6.684
 3048TIP3   OH2 9086   5.921   5.878   0.366
 3048TIP3    H1 9087   6.011   5.847   0.357
 3048TIP3    H2 9088   5.927   5.973   0.352
 3049TIP3   OH2 9089   7.295   1.308   1.020
 3049TIP3    H1 9090   7.243   1.240   0.977
 3049TIP3    H2 9091   7.295   1.381   0.958
 3050TIP3   OH2 9092   5.854   7.094   1.826
 3050TIP3    H1 9093   5.829   7.167   1.769
 3050TIP3    H2 9094   5.900   7.136   1.899
 3051TIP3   OH2 9095   1.707   5.798   5.450
 3051TIP3    H1 9096   1.790   5.751   5.443
 3051TIP3    H2 9097   1.679   5.785   5.540
 3052TIP3   OH2 9098   5.664   1.593   3.588
 3052TIP3    H1 9099   5.653   1.520   3.650
 3052TIP3    H2 9100   5.626   1.668   3.633
 3053TIP3   OH2 9101   4.548   6.182   4.840
 3053TIP3    H1 9102   4.483   6.252   4.833
 3053TIP3    H2 9103   4.614   6.203   4.774
 3054TIP3   OH2 9104   2.960   3.430   0.416
 3054TIP3    H1 9105   2.867   3.452   0.415
 3054TIP3    H2 9106   2.981   3.423   0.510
 3055TIP3   OH2 9107   3.770   1.143   6.539
 3055TIP3    H1 9108   3.811   1.106   6.617
 3055TIP3    H2 9109   3.721   1.071   6.501
 3056TIP3   OH2 9110   5.193   0.261   4.903
 3056TIP3    H1 9111   5.200   0.310   4.985
 3056TIP3    H2 9112   5.172   0.171   4.931
 3057TIP3   OH2 9113   0.878   6.321   3.985
 3057TIP3    H1 9114   0.957   6.293   3.937
 3057TIP3    H2 9115   0.886   6.279   4.070
 3058TIP3   OH2 9116   1.890   1.079   5.665
 3058TIP3    H1 9117   1.863   1.162   5.703
 3058TIP3    H2 9118   1.916   1.100   5.576
 3059TIP3   OH2 9119   8.152   7.740   0.499
 3059TIP3    H1 9120   8.195   7.674   0.554
 3059TIP3    H2 9121   8.084   7.691   0.452
 3060TIP3   OH2 9122   2.693   0.778   6.473
 3060TIP3    H1 9123   2.768   0.750   6.527
 3060TIP3    H2 9124   2.699   0.873   6.471
 3061TIP3   OH2 9125   6.438   5.176   5.409
 3061TIP3    H1 9126   6.396   5.126   5.339
 3061TIP3    H2 9127   6.532   5.165   5.392
 3062TIP3   OH2 9128   2.937   2.628   1.131
 3062TIP3    H1 9129   3.001   2.686   1.172
 3062TIP3    H2 9130   2.853   2.671   1.146
 3063TIP3   OH2 9131   0.020   7.569   0.650
 3063TIP3    H1 9132  -0.037   7.498   0.622
 3063TIP3    H2 9133   0.091   7.569   0.586
 3064TIP3   OH2 9134   2.937   1.506   5.316
 3064TIP3    H1 9135   2.972   1.440   5.256
 3064TIP3    H2 9136   2.875   1.557   5.264
 3065TIP3   OH2 9137   4.883   5.913   1.621
 3065TIP3    H1 9138   4.897   5.834   1.568
 3065TIP3    H2 9139   4.905   5.886   1.710
 3066TIP3   OH2 9140   4.921   5.845   5.125
 3066TIP3    H1 9141   4.988   5.797   5.076
 3066TIP3    H2 9142   4.904   5.923   5.072
 3067TIP3   OH2 9143   2.895   3.221   2.013
 3067TIP3    H1 9144   2.825   3.209   1.949
 3067TIP3    H2 9145   2.886   3.148   2.073
 3068TIP3   OH2 9146   8.067   7.765   0.929
 3068TIP3    H1 9147   8.162   7.756   0.917
 3068TIP3    H2 9148   8.037   7.807   0.848
 3069TIP3   OH2 9149   0.166   4.606   2.386
 3069TIP3    H1 9150   0.227   4.678   2.373
 3069TIP3    H2 9151   0.081   4.641   2.358
 3070TIP3   OH2 9152   7.701   6.048   3.334
 3070TIP3    H1 9153   7.613   6.011   3.334
 3070TIP3    H2 9154   7.731   6.037   3.425
 3071TIP3   OH2 9155   4.787   0.274   1.751
 3071TIP3    H1 9156   4.820   0.322   1.675
 3071TIP3    H2 9157   4.860   0.220   1.780
 3072TIP3   OH2 9158   8.071   3.560   2.739
 3072TIP3    H1 9159   8.105   3.489   2.794
 3072TIP3    H2 9160   8.008   3.517   2.681
 3073TIP3   OH2 9161   7.273   2.188   1.752
 3073TIP3    H1 9162   7.292   2.140   1.832
 3073TIP3    H2 9163   7.357   2.193   1.706
 3074TIP3   OH2 9164   2.545   6.240   4.051
 3074TIP3    H1 9165   2.583   6.274   3.970
 3074TIP3    H2 9166   2.473   6.183   4.022
 3075TIP3   OH2 9167   0.567   2.550   6.173
 3075TIP3    H1 9168   0.519   2.469   6.187
 3075TIP3    H2 9169   0.593   2.578   6.261
 3076TIP3   OH2 9170   0.656   2.227   4.598
 3076TIP3    H1 9171   0.647   2.147   4.546
 3076TIP3    H2 9172   0.581   2.226   4.656
 3077TIP3   OH2 9173   2.286   6.705   4.755
 3077TIP3    H1 9174   2.296   6.617   4.790
 3077TIP3    H2 9175   2.246   6.692   4.668
 3078TIP3   OH2 9176   1.486   7.530   0.176
 3078TIP3    H1 9177   1.395   7.509   0.157
 3078TIP3    H2 9178   1.482   7.601   0.241
 3079TIP3   OH2 9179   4.300   3.591   1.268
 3079TIP3    H1 9180   4.331   3.532   1.337
 3079TIP3    H2 9181   4.239   3.539   1.217
 3080TIP3   OH2 9182   6.425   5.934   5.155
 3080TIP3    H1 9183   6.483   5.888   5.216
 3080TIP3    H2 9184   6.343   5.942   5.203
 3081TIP3   OH2 9185   0.063   0.250   4.174
 3081TIP3    H1 9186   0.033   0.301   4.250
 3081TIP3    H2 9187  -0.009   0.189   4.157
 3082TIP3   OH2 9188   5.779   0.295   3.109
 3082TIP3    H1 9189   5.763   0.262   3.020
 3082TIP3    H2 9190   5.693   0.291   3.151
 3083TIP3   OH2 9191   5.890   5.708   1.870
 3083TIP3    H1 9192   5.878   5.652   1.793
 3083TIP3    H2 9193   5.895   5.797   1.834
 3084TIP3   OH2 9194   1.556   5.548   1.717
 3084TIP3    H1 9195   1.640   5.572   1.679
 3084TIP3    H2 9196   1.494   5.556   1.644
 3085TIP3   OH2 9197   8.053   6.369   1.160
 3085TIP3    H1 9198   8.115   6.296   1.155
 3085TIP3    H2 9199   8.041   6.397   1.069
 3086TIP3   OH2 9200   6.393   2.979   2.654
 3086TIP3    H1 9201   6.409   2.976   2.748
 3086TIP3    H2 9202   6.336   2.903   2.637
 3087TIP3   OH2 9203   4.643   0.475   4.408
 3087TIP3    H1 9204   4.594   0.460   4.489
 3087TIP3    H2 9205   4.580   0.515   4.349
 3088TIP3   OH2 9206   5.607   4.139   0.408
 3088TIP3    H1 9207   5.626   4.221   0.454
 3088TIP3    H2 9208   5.633   4.157   0.317
 3089TIP3   OH2 9209   6.351   2.444   6.381
 3089TIP3    H1 9210   6.303   2.483   6.308
 3089TIP3    H2 9211   6.389   2.364   6.344
 3090TIP3   OH2 9212   7.732   1.654   1.439
 3090TIP3    H1 9213   7.755   1.573   1.394
 3090TIP3    H2 9214   7.811   1.677   1.488
 3091TIP3   OH2 9215   0.129   4.330   2.295
 3091TIP3    H1 9216   0.156   4.422   2.301
 3091TIP3    H2 9217   0.043   4.327   2.337
 3092TIP3   OH2 9218   1.216   5.922   5.678
 3092TIP3    H1 9219   1.264   5.879   5.749
 3092TIP3    H2 9220   1.129   5.883   5.681
 3093TIP3   OH2 9221   1.090   0.879   3.137
 3093TIP3    H1 9222   1.169   0.841   3.099
 3093TIP3    H2 9223   1.061   0.944   3.073
 3094TIP3   OH2 9224   0.949   2.327   3.493
 3094TIP3    H1 9225   0.977   2.238   3.474
 3094TIP3    H2 9226   0.860   2.319   3.527
 3095TIP3   OH2 9227   0.633   7.385   3.666
 3095TIP3    H1 9228   0.654   7.478   3.673
 3095TIP3    H2 9229   0.667   7.360   3.580
 3096TIP3   OH2 9230   5.901   6.655   5.789
 3096TIP3    H1 9231   5.934   6.744   5.777
 3096TIP3    H2 9232   5.980   6.600   5.787
 3097TIP3   OH2 9233   6.071   3.718   6.642
 3097TIP3    H1 9234   6.005   3.657   6.609
 3097TIP3    H2 9235   6.043   3.804   6.610
 3098TIP3   OH2 9236   4.640   3.882   0.731
 3098TIP3    H1 9237   4.594   3.914   0.653
 3098TIP3    H2 9238   4.729   3.863   0.700
 3099TIP3   OH2 9239   7.483   4.095   3.074
 3099TIP3    H1 9240   7.455   4.019   3.023
 3099TIP3    H2 9241   7.402   4.143   3.091
 3100TIP3   OH2 9242   7.830   6.269   4.435
 3100TIP3    H1 9243   7.873   6.333   4.378
 3100TIP3    H2 9244   7.829   6.311   4.521
 3101TIP3   OH2 9245   2.599   2.700   5.401
 3101TIP3    H1 9246   2.561   2.621   5.442
 3101TIP3    H2 9247   2.682   2.670   5.364
 3102TIP3   OH2 9248   0.706   7.756   0.053
 3102TIP3    H1 9249   0.726   7.699   0.127
 3102TIP3    H2 9250   0.643   7.706   0.000
 3103TIP3   OH2 9251   2.098   5.628   0.379
 3103TIP3    H1 9252   2.021   5.676   0.409
 3103TIP3    H2 9253   2.124   5.575   0.454
 3104TIP3   OH2 9254   3.065   4.285   5.369
 3104TIP3    H1 9255   3.008   4.339   5.424
 3104TIP3    H2 9256   3.145   4.337   5.360
 3105TIP3   OH2 9257   0.279   1.978   1.496
 3105TIP3    H1 9258   0.201   1.973   1.551
 3105TIP3    H2 9259   0.350   1.948   1.552
 3106TIP3   OH2 9260   1.835   1.981   6.097
 3106TIP3    H1 9261   1.746   2.014   6.083
 3106TIP3    H2 9262   1.828   1.924   6.173
 3107TIP3   OH2 9263   1.899   3.759   0.275
 3107TIP3    H1 9264   1.939   3.687   0.226
 3107TIP3    H2 9265   1.907   3.732   0.367
 3108TIP3   OH2 9266   1.581   6.963   4.806
 3108TIP3    H1 9267   1.557   6.932   4.719
 3108TIP3    H2 9268   1.498   6.980   4.850
 3109TIP3   OH2 9269   2.424   2.790   2.574
 3109TIP3    H1 9270   2.479   2.852   2.525
 3109TIP3    H2 9271   2.484   2.718   2.596
 3110TIP3   OH2 9272   4.396   6.118   5.784
 3110TIP3    H1 9273   4.483   6.109   5.822
 3110TIP3    H2 9274   4.337   6.112   5.860
 3111TIP3   OH2 9275   0.004   1.376   4.603
 3111TIP3    H1 9276  -0.021   1.302   4.658
 3111TIP3    H2 9277   0.089   1.404   4.637
 3112TIP3   OH2 9278   5.656   4.598   3.272
 3112TIP3    H1 9279   5.650   4.681   3.225
 3112TIP3    H2 9280   5.571   4.556   3.256
 3113TIP3   OH2 9281   7.542   3.126   4.118
 3113TIP3    H1 9282   7.618   3.155   4.169
 3113TIP3    H2 9283   7.471   3.120   4.182
 3114TIP3   OH2 9284   8.243   6.051   5.018
 3114TIP3    H1 9285   8.294   6.021   4.943
 3114TIP3    H2 9286   8.165   5.996   5.018
 3115TIP3   OH2 9287   1.833   5.615   4.225
 3115TIP3    H1 9288   1.873   5.681   4.282
 3115TIP3    H2 9289   1.876   5.627   4.141
 3116TIP3   OH2 9290   5.502   1.304   2.063
 3116TIP3    H1 9291   5.466   1.373   2.008
 3116TIP3    H2 9292   5.448   1.308   2.143
 3117TIP3   OH2 9293   4.449   0.127   6.242
 3117TIP3    H1 9294   4.541   0.111   6.265
 3117TIP3    H2 9295   4.400   0.102   6.321
 3118TIP3   OH2 9296   2.406   2.209   4.672
 3118TIP3    H1 9297   2.409   2.199   4.577
 3118TIP3    H2 9298   2.461   2.286   4.690
 3119TIP3   OH2 9299   5.468   1.474   5.397
 3119TIP3    H1 9300   5.406   1.498   5.466
 3119TIP3    H2 9301   5.424   1.405   5.347
 3120TIP3   OH2 9302   0.493   5.858   3.623
 3120TIP3    H1 9303   0.562   5.889   3.683
 3120TIP3    H2 9304   0.508   5.907   3.542
 3121TIP3   OH2 9305   1.368   0.617   3.723
 3121TIP3    H1 9306   1.360   0.708   3.753
 3121TIP3    H2 9307   1.435   0.621   3.655
 3122TIP3   OH2 9308   7.978   6.215   4.944
 3122TIP3    H1 9309   7.951   6.165   4.867
 3122TIP3    H2 9310   8.064   6.250   4.921
 3123TIP3   OH2 9311   0.002   5.788   3.036
 3123TIP3    H1 9312   0.001   5.697   3.006
 3123TIP3    H2 9313   0.039   5.837   2.962
 3124TIP3   OH2 9314   4.374   2.467   1.103
 3124TIP3    H1 9315   4.328   2.414   1.038
 3124TIP3    H2 9316   4.385   2.552   1.060
 3125TIP3   OH2 9317   5.701   6.834   6.213
 3125TIP3    H1 9318   5.618   6.879   6.197
 3125TIP3    H2 9319   5.711   6.775   6.139
 3126TIP3   OH2 9320   5.407   2.305   2.211
 3126TIP3    H1 9321   5.320   2.268   2.228
 3126TIP3    H2 9322   5.467   2.232   2.226
 3127TIP3   OH2 9323   4.872   3.754   0.055
 3127TIP3    H1 9324   4.944   3.757  -0.008
 3127TIP3    H2 9325   4.908   3.709   0.131
 3128TIP3   OH2 9326   1.442   3.225   2.875
 3128TIP3    H1 9327   1.423   3.202   2.784
 3128TIP3    H2 9328   1.366   3.275   2.904
 3129TIP3   OH2 9329   0.688   5.796   0.644
 3129TIP3    H1 9330   0.617   5.738   0.671
 3129TIP3    H2 9331   0.643   5.875   0.612
 3130TIP3   OH2 9332   4.230   7.142   3.996
 3130TIP3    H1 9333   4.261   7.150   4.086
 3130TIP3    H2 9334   4.310   7.135   3.944
 3131TIP3   OH2 9335   6.853   1.958   4.670
 3131TIP3    H1 9336   6.913   1.931   4.600
 3131TIP3    H2 9337   6.768   1.965   4.628
 3132TIP3   OH2 9338   1.951   1.759   3.703
 3132TIP3    H1 9339   1.948   1.850   3.733
 3132TIP3    H2 9340   2.001   1.762   3.621
 3133TIP3   OH2 9341   6.849   0.918   5.876
 3133TIP3    H1 9342   6.881   0.998   5.835
 3133TIP3    H2 9343   6.759   0.910   5.845
 3134TIP3   OH2 9344   0.803   5.690   4.996
 3134TIP3    H1 9345   0.863   5.633   5.043
 3134TIP3    H2 9346   0.829   5.779   5.022
 3135TIP3   OH2 9347   6.060   7.649   4.295
 3135TIP3    H1 9348   6.076   7.656   4.201
 3135TIP3    H2 9349   5.970   7.616   4.301
 3136TIP3   OH2 9350   4.003   3.777   2.050
 3136TIP3    H1 9351   4.042   3.689   2.051
 3136TIP3    H2 9352   4.037   3.819   2.129
 3137TIP3   OH2 9353   0.660   3.746   1.055
 3137TIP3    H1 9354   0.631   3.663   1.092
 3137TIP3    H2 9355   0.656   3.732   0.960
 3138TIP3   OH2 9356   5.216   7.341   6.238
 3138TIP3    H1 9357   5.310   7.358   6.242
 3138TIP3    H2 9358   5.209   7.246   6.225
 3139TIP3   OH2 9359   3.504   3.858   1.298
 3139TIP3    H1 9360   3.470   3.786   1.352
 3139TIP3    H2 9361   3.468   3.841   1.211
 3140TIP3   OH2 9362   2.403   4.168   3.050
 3140TIP3    H1 9363   2.494   4.189   3.069
 3140TIP3    H2 9364   2.354   4.206   3.123
 3141TIP3   OH2 9365   0.949   0.624   3.235
 3141TIP3    H1 9366   0.950   0.648   3.143
 3141TIP3    H2 9367   1.037   0.590   3.252
 3142TIP3   OH2 9368   4.974   4.976   0.983
 3142TIP3    H1 9369   4.916   4.955   1.056
 3142TIP3    H2 9370   5.040   5.034   1.021
 3143TIP3   OH2 9371   6.563   4.174   2.239
 3143TIP3    H1 9372   6.535   4.264   2.253
 3143TIP3    H2 9373   6.597   4.173   2.149
 3144TIP3   OH2 9374   4.976   5.293   5.933
 3144TIP3    H1 9375   5.071   5.291   5.916
 3144TIP3    H2 9376   4.938   5.248   5.857
 3145TIP3   OH2 9377   5.121   7.362   4.942
 3145TIP3    H1 9378   5.111   7.428   5.011
 3145TIP3    H2 9379   5.124   7.279   4.989
 3146TIP3   OH2 9380   3.368   4.625   4.147
 3146TIP3    H1 9381   3.406   4.704   4.107
 3146TIP3    H2 9382   3.274   4.641   4.149
 3147TIP3   OH2 9383   4.764   0.809   6.406
 3147TIP3    H1 9384   4.749   0.879   6.470
 3147TIP3    H2 9385   4.787   0.733   6.460
 3148TIP3   OH2 9386   6.883   0.601   3.048
 3148TIP3    H1 9387   6.944   0.674   3.052
 3148TIP3    H2 9388   6.932   0.527   3.086
 3149TIP3   OH2 9389   7.583   1.828   6.023
 3149TIP3    H1 9390   7.663   1.792   6.061
 3149TIP3    H2 9391   7.611   1.863   5.939
 3150TIP3   OH2 9392   0.834   1.556   5.497
 3150TIP3    H1 9393   0.821   1.636   5.447
 3150TIP3    H2 9394   0.828   1.486   5.432
 3151TIP3   OH2 9395   1.658   2.668   1.227
 3151TIP3    H1 9396   1.689   2.759   1.228
 3151TIP3    H2 9397   1.673   2.638   1.138
 3152TIP3   OH2 9398   2.480   4.367   6.640
 3152TIP3    H1 9399   2.414   4.302   6.618
 3152TIP3    H2 9400   2.435   4.431   6.694
 3153TIP3   OH2 9401   7.238   6.819   5.586
 3153TIP3    H1 9402   7.262   6.789   5.499
 3153TIP3    H2 9403   7.151   6.857   5.575
 3154TIP3   OH2 9404   5.172   1.643   5.038
 3154TIP3    H1 9405   5.210   1.562   5.003
 3154TIP3    H2 9406   5.237   1.675   5.101
 3155TIP3   OH2 9407   7.457   1.892   6.314
 3155TIP3    H1 9408   7.487   1.859   6.229
 3155TIP3    H2 9409   7.529   1.871   6.374
 3156TIP3   OH2 9410   4.892   3.518   0.544
 3156TIP3    H1 9411   4.823   3.453   0.541
 3156TIP3    H2 9412   4.969   3.473   0.510
 3157TIP3   OH2 9413   1.331   5.186   6.395
 3157TIP3    H1 9414   1.398   5.155   6.333
 3157TIP3    H2 9415   1.249   5.177   6.348
 3158TIP3   OH2 9416   3.068   4.325   0.779
 3158TIP3    H1 9417   3.096   4.283   0.698
 3158TIP3    H2 9418   3.100   4.415   0.772
 3159TIP3   OH2 9419   5.800   6.882   4.429
 3159TIP3    H1 9420   5.850   6.837   4.498
 3159TIP3    H2 9421   5.720   6.910   4.472
 3160TIP3   OH2 9422   1.165   1.024   6.553
 3160TIP3    H1 9423   1.237   1.060   6.604
 3160TIP3    H2 9424   1.141   0.944   6.599
 3161TIP3   OH2 9425   7.920   4.150   1.547
 3161TIP3    H1 9426   7.896   4.183   1.634
 3161TIP3    H2 9427   8.004   4.106   1.560
 3162TIP3   OH2 9428   4.754   3.205   1.285
 3162TIP3    H1 9429   4.817   3.234   1.220
 3162TIP3    H2 9430   4.669   3.208   1.240
 3163TIP3   OH2 9431   2.893   1.641   6.605
 3163TIP3    H1 9432   2.900   1.638   6.509
 3163TIP3    H2 9433   2.873   1.732   6.624
 3164TIP3   OH2 9434   4.423   4.417   5.189
 3164TIP3    H1 9435   4.504   4.453   5.226
 3164TIP3    H2 9436   4.377   4.494   5.155
 3165TIP3   OH2 9437   4.895   0.699   1.283
 3165TIP3    H1 9438   4.831   0.743   1.227
 3165TIP3    H2 9439   4.842   0.651   1.347
 3166TIP3   OH2 9440   4.456   1.377   5.910
 3166TIP3    H1 9441   4.427   1.439   5.843
 3166TIP3    H2 9442   4.384   1.375   5.973
 3167TIP3   OH2 9443   4.866   4.915   5.861
 3167TIP3    H1 9444   4.915   4.942   5.939
 3167TIP3    H2 9445   4.777   4.900   5.893
 3168TIP3   OH2 9446   8.266   1.337   2.747
 3168TIP3    H1 9447   8.263   1.432   2.733
 3168TIP3    H2 9448   8.353   1.311   2.716
 3169TIP3   OH2 9449   6.140   3.774   6.004
 3169TIP3    H1 9450   6.090   3.703   5.965
 3169TIP3    H2 9451   6.122   3.767   6.098
 3170TIP3   OH2 9452   5.922   3.307   5.460
 3170TIP3    H1 9453   6.000   3.358   5.437
 3170TIP3    H2 9454   5.954   3.217   5.464
 3171TIP3   OH2 9455   4.526   5.909   5.589
 3171TIP3    H1 9456   4.479   5.881   5.510
 3171TIP3    H2 9457   4.478   5.985   5.620
 3172TIP3   OH2 9458   1.240   7.020   1.469
 3172TIP3    H1 9459   1.159   7.031   1.419
 3172TIP3    H2 9460   1.255   6.925   1.470
 3173TIP3   OH2 9461   1.180   4.233   1.753
 3173TIP3    H1 9462   1.093   4.196   1.763
 3173TIP3    H2 9463   1.167   4.327   1.755
 3174TIP3   OH2 9464   4.718   3.889   0.310
 3174TIP3    H1 9465   4.787   3.955   0.298
 3174TIP3    H2 9466   4.738   3.822   0.245
 3175TIP3   OH2 9467   0.410   2.019   0.315
 3175TIP3    H1 9468   0.433   1.996   0.405
 3175TIP3    H2 9469   0.472   1.971   0.261
 3176TIP3   OH2 9470   6.930   2.388   2.401
 3176TIP3    H1 9471   6.926   2.351   2.489
 3176TIP3    H2 9472   6.963   2.477   2.414
 3177TIP3   OH2 9473   3.343   2.318   2.699
 3177TIP3    H1 9474   3.424   2.306   2.750
 3177TIP3    H2 9475   3.319   2.410   2.714
 3178TIP3   OH2 9476   1.951   6.729   5.975
 3178TIP3    H1 9477   1.935   6.792   6.046
 3178TIP3    H2 9478   1.939   6.780   5.895
 3179TIP3   OH2 9479   6.890   7.233   4.207
 3179TIP3    H1 9480   6.885   7.212   4.301
 3179TIP3    H2 9481   6.909   7.149   4.165
 3180TIP3   OH2 9482   5.053   0.749   3.776
 3180TIP3    H1 9483   5.149   0.753   3.779
 3180TIP3    H2 9484   5.029   0.697   3.853
 3181TIP3   OH2 9485   5.127   1.564   5.350
 3181TIP3    H1 9486   5.175   1.600   5.276
 3181TIP3    H2 9487   5.184   1.579   5.426
 3182TIP3   OH2 9488   7.839   2.942   1.117
 3182TIP3    H1 9489   7.835   3.021   1.169
 3182TIP3    H2 9490   7.923   2.902   1.139
 3183TIP3   OH2 9491   1.998   7.564   2.288
 3183TIP3    H1 9492   2.048   7.589   2.365
 3183TIP3    H2 9493   2.051   7.495   2.247
 3184TIP3   OH2 9494   2.371   6.321   2.496
 3184TIP3    H1 9495   2.295   6.375   2.516
 3184TIP3    H2 9496   2.359   6.294   2.405
 3185TIP3   OH2 9497   6.221   5.237   3.210
 3185TIP3    H1 9498   6.157   5.199   3.150
 3185TIP3    H2 9499   6.214   5.331   3.197
 3186TIP3   OH2 9500   4.328   1.954   0.458
 3186TIP3    H1 9501   4.322   1.966   0.553
 3186TIP3    H2 9502   4.244   1.985   0.425
 3187TIP3   OH2 9503   5.260   6.999   0.623
 3187TIP3    H1 9504   5.199   7.027   0.692
 3187TIP3    H2 9505   5.204   6.957   0.558
 3188TIP3   OH2 9506   4.342   3.711   4.146
 3188TIP3    H1 9507   4.398   3.738   4.073
 3188TIP3    H2 9508   4.399   3.717   4.223
 3189TIP3   OH2 9509   1.138   4.052   6.519
 3189TIP3    H1 9510   1.049   4.035   6.550
 3189TIP3    H2 9511   1.135   4.141   6.484
 3190TIP3   OH2 9512   5.980   7.597   6.253
 3190TIP3    H1 9513   6.062   7.560   6.286
 3190TIP3    H2 9514   5.911   7.547   6.297
 3191TIP3   OH2 9515   3.467   6.008   6.467
 3191TIP3    H1 9516   3.462   5.927   6.518
 3191TIP3    H2 9517   3.475   6.077   6.532
 3192TIP3   OH2 9518   6.156   2.200   4.965
 3192TIP3    H1 9519   6.084   2.262   4.969
 3192TIP3    H2 9520   6.116   2.117   4.938
 3193TIP3   OH2 9521   3.162   2.857   1.989
 3193TIP3    H1 9522   3.167   2.923   2.057
 3193TIP3    H2 9523   3.109   2.897   1.920
 3194TIP3   OH2 9524   3.728   3.489   3.989
 3194TIP3    H1 9525   3.761   3.507   4.077
 3194TIP3    H2 9526   3.702   3.397   3.992
 3195TIP3   OH2 9527   6.765   7.348   0.428
 3195TIP3    H1 9528   6.738   7.281   0.491
 3195TIP3    H2 9529   6.702   7.419   0.440
 3196TIP3   OH2 9530   8.261   5.546   2.187
 3196TIP3    H1 9531   8.293   5.496   2.263
 3196TIP3    H2 9532   8.223   5.625   2.225
 3197TIP3   OH2 9533   5.991   5.369   3.931
 3197TIP3    H1 9534   5.996   5.400   3.840
 3197TIP3    H2 9535   6.057   5.421   3.977
 3198TIP3   OH2 9536   2.128   6.568   5.301
 3198TIP3    H1 9537   2.057   6.602   5.355
 3198TIP3    H2 9538   2.172   6.504   5.357
 3199TIP3   OH2 9539   6.239   3.725   5.202
 3199TIP3    H1 9540   6.286   3.652   5.160
 3199TIP3    H2 9541   6.300   3.798   5.198
 3200TIP3   OH2 9542   0.257   4.452   1.525
 3200TIP3    H1 9543   0.303   4.536   1.530
 3200TIP3    H2 9544   0.301   4.406   1.453
 3201TIP3   OH2 9545   3.383   1.035   6.657
 3201TIP3    H1 9546   3.351   1.111   6.707
 3201TIP3    H2 9547   3.428   1.073   6.582
 3202TIP3   OH2 9548   6.694   6.234   5.639
 3202TIP3    H1 9549   6.710   6.239   5.545
 3202TIP3    H2 9550   6.751   6.302   5.677
 3203TIP3   OH2 9551   4.636   5.849   6.627
 3203TIP3    H1 9552   4.694   5.919   6.653
 3203TIP3    H2 9553   4.651   5.839   6.533
 3204TIP3   OH2 9554   6.382   5.018   1.945
 3204TIP3    H1 9555   6.296   5.058   1.934
 3204TIP3    H2 9556   6.443   5.092   1.946
 3205TIP3   OH2 9557   6.305   2.692   4.792
 3205TIP3    H1 9558   6.285   2.772   4.742
 3205TIP3    H2 9559   6.348   2.723   4.871
 3206TIP3   OH2 9560   0.251   3.504   0.088
 3206TIP3    H1 9561   0.312   3.543   0.151
 3206TIP3    H2 9562   0.165   3.517   0.128
 3207TIP3   OH2 9563   7.796   6.927   1.336
 3207TIP3    H1 9564   7.721   6.929   1.396
 3207TIP3    H2 9565   7.757   6.907   1.251
 3208TIP3   OH2 9566   3.132   1.588   3.503
 3208TIP3    H1 9567   3.069   1.521   3.477
 3208TIP3    H2 9568   3.182   1.606   3.424
 3209TIP3   OH2 9569   2.235   6.033   6.521
 3209TIP3    H1 9570   2.254   6.000   6.433
 3209TIP3    H2 9571   2.250   5.958   6.579
 3210TIP3   OH2 9572   2.173   2.936   6.433
 3210TIP3    H1 9573   2.259   2.933   6.477
 3210TIP3    H2 9574   2.115   2.885   6.490
 3211TIP3   OH2 9575   4.884   4.526   6.225
 3211TIP3    H1 9576   4.940   4.463   6.180
 3211TIP3    H2 9577   4.829   4.473   6.283
 3212TIP3   OH2 9578   0.667   2.150   1.346
 3212TIP3    H1 9579   0.684   2.068   1.301
 3212TIP3    H2 9580   0.571   2.156   1.350
 3213TIP3   OH2 9581   7.093   2.477   6.211
 3213TIP3    H1 9582   7.076   2.570   6.227
 3213TIP3    H2 9583   7.188   2.471   6.203
 3214TIP3   OH2 9584   2.780   0.348   1.868
 3214TIP3    H1 9585   2.745   0.303   1.791
 3214TIP3    H2 9586   2.780   0.441   1.843
 3215TIP3   OH2 9587   3.659   0.886   0.312
 3215TIP3    H1 9588   3.606   0.907   0.235
 3215TIP3    H2 9589   3.702   0.804   0.290
 3216TIP3   OH2 9590   2.285   6.178   4.861
 3216TIP3    H1 9591   2.268   6.101   4.915
 3216TIP3    H2 9592   2.305   6.142   4.774
 3217TIP3   OH2 9593   7.690   1.978   0.118
 3217TIP3    H1 9594   7.756   2.046   0.117
 3217TIP3    H2 9595   7.692   1.943   0.207
 3218TIP3   OH2 9596   6.516   4.594   0.085
 3218TIP3    H1 9597   6.451   4.661   0.066
 3218TIP3    H2 9598   6.473   4.534   0.145
 3219TIP3   OH2 9599   1.521   4.576   0.730
 3219TIP3    H1 9600   1.599   4.554   0.678
 3219TIP3    H2 9601   1.549   4.565   0.821
 3220TIP3   OH2 9602   4.453   1.912   1.575
 3220TIP3    H1 9603   4.524   1.977   1.576
 3220TIP3    H2 9604   4.495   1.832   1.544
 3221TIP3   OH2 9605   1.680   2.783   2.644
 3221TIP3    H1 9606   1.595   2.739   2.647
 3221TIP3    H2 9607   1.739   2.726   2.692
 3222TIP3   OH2 9608   1.741   7.787   1.139
 3222TIP3    H1 9609   1.763   7.752   1.226
 3222TIP3    H2 9610   1.802   7.859   1.126
 3223TIP3   OH2 9611   6.823   3.525   4.768
 3223TIP3    H1 9612   6.851   3.490   4.683
 3223TIP3    H2 9613   6.733   3.555   4.753
 3224TIP3   OH2 9614   6.653   6.981   4.656
 3224TIP3    H1 9615   6.641   7.024   4.572
 3224TIP3    H2 9616   6.649   6.888   4.636
 3225TIP3   OH2 9617   7.248   4.495   2.923
 3225TIP3    H1 9618   7.301   4.575   2.930
 3225TIP3    H2 9619   7.166   4.525   2.883
 3226TIP3   OH2 9620   1.086   7.757   1.632
 3226TIP3    H1 9621   1.172   7.722   1.652
 3226TIP3    H2 9622   1.045   7.692   1.576
 3227TIP3   OH2 9623   0.086   6.515   2.948
 3227TIP3    H1 9624   0.064   6.603   2.915
 3227TIP3    H2 9625   0.005   6.483   2.985
 3228TIP3   OH2 9626   7.683   2.175   1.186
 3228TIP3    H1 9627   7.604   2.146   1.232
 3228TIP3    H2 9628   7.747   2.190   1.256
 3229TIP3   OH2 9629   1.974   7.031   2.288
 3229TIP3    H1 9630   1.911   7.087   2.243
 3229TIP3    H2 9631   1.943   7.029   2.379
 3230TIP3   OH2 9632   3.834   0.062   2.930
 3230TIP3    H1 9633   3.750   0.103   2.913
 3230TIP3    H2 9634   3.866   0.106   3.009
 3231TIP3   OH2 9635   6.113   2.057   1.996
 3231TIP3    H1 9636   6.112   2.017   1.909
 3231TIP3    H2 9637   6.152   1.990   2.052
 3232TIP3   OH2 9638   2.235   4.964   5.036
 3232TIP3    H1 9639   2.283   4.931   5.112
 3232TIP3    H2 9640   2.244   5.059   5.040
 3233TIP3   OH2 9641   6.765   3.776   5.139
 3233TIP3    H1 9642   6.687   3.750   5.090
 3233TIP3    H2 9643   6.780   3.704   5.200
 3234TIP3   OH2 9644   5.034   3.840   6.511
 3234TIP3    H1 9645   5.115   3.848   6.460
 3234TIP3    H2 9646   4.964   3.854   6.448
 3235TIP3   OH2 9647   4.590   3.137   4.063
 3235TIP3    H1 9648   4.672   3.186   4.054
 3235TIP3    H2 9649   4.590   3.106   4.153
 3236TIP3   OH2 9650   2.508   6.654   3.793
 3236TIP3    H1 9651   2.539   6.614   3.874
 3236TIP3    H2 9652   2.567   6.728   3.778
 3237TIP3   OH2 9653   6.226   6.872   5.598
 3237TIP3    H1 9654   6.247   6.950   5.547
 3237TIP3    H2 9655   6.309   6.827   5.610
 3238TIP3   OH2 9656   1.622   5.083   2.267
 3238TIP3    H1 9657   1.591   5.167   2.234
 3238TIP3    H2 9658   1.710   5.101   2.301
 3239TIP3   OH2 9659   6.598   7.228   2.399
 3239TIP3    H1 9660   6.685   7.255   2.428
 3239TIP3    H2 9661   6.613   7.155   2.340
 3240TIP3   OH2 9662   5.116   6.174   6.549
 3240TIP3    H1 9663   5.189   6.237   6.545
 3240TIP3    H2 9664   5.138   6.108   6.484
 3241TIP3   OH2 9665   2.142   5.843   2.345
 3241TIP3    H1 9666   2.089   5.836   2.266
 3241TIP3    H2 9667   2.232   5.855   2.313
 3242TIP3   OH2 9668   1.267   2.393   3.464
 3242TIP3    H1 9669   1.254   2.330   3.535
 3242TIP3    H2 9670   1.178   2.416   3.436
 3243TIP3   OH2 9671   8.206   7.128   3.945
 3243TIP3    H1 9672   8.175   7.059   4.004
 3243TIP3    H2 9673   8.256   7.187   4.001
 3244TIP3   OH2 9674   6.640   2.921   5.085
 3244TIP3    H1 9675   6.678   3.007   5.103
 3244TIP3    H2 9676   6.635   2.879   5.171
 3245TIP3   OH2 9677   1.301   1.454   6.605
 3245TIP3    H1 9678   1.336   1.454   6.694
 3245TIP3    H2 9679   1.369   1.495   6.553
 3246TIP3   OH2 9680   2.780   7.545   2.664
 3246TIP3    H1 9681   2.827   7.531   2.746
 3246TIP3    H2 9682   2.849   7.554   2.599
 3247TIP3   OH2 9683   2.036   7.008   5.089
 3247TIP3    H1 9684   2.085   7.063   5.151
 3247TIP3    H2 9685   2.103   6.972   5.031
 3248TIP3   OH2 9686   7.469   7.061   5.894
 3248TIP3    H1 9687   7.420   7.134   5.856
 3248TIP3    H2 9688   7.402   7.003   5.931
 3249TIP3   OH2 9689   4.412   5.072   5.794
 3249TIP3    H1 9690   4.399   5.047   5.702
 3249TIP3    H2 9691   4.325   5.065   5.833
 3250TIP3   OH2 9692   2.409   7.338   4.332
 3250TIP3    H1 9693   2.319   7.370   4.330
 3250TIP3    H2 9694   2.403   7.247   4.300
 3251TIP3   OH2 9695   3.872   6.240   0.717
 3251TIP3    H1 9696   3.910   6.160   0.680
 3251TIP3    H2 9697   3.913   6.311   0.668
 3252TIP3   OH2 9698   2.066   1.968   5.046
 3252TIP3    H1 9699   2.101   1.904   4.984
 3252TIP3    H2 9700   2.119   1.958   5.124
 3253TIP3   OH2 9701   3.560   2.710   3.015
 3253TIP3    H1 9702   3.475   2.667   3.016
 3253TIP3    H2 9703   3.587   2.714   3.106
 3254TIP3   OH2 9704   3.487   3.673   0.757
 3254TIP3    H1 9705   3.413   3.661   0.697
 3254TIP3    H2 9706   3.539   3.742   0.716
 3255TIP3   OH2 9707   7.665   0.196   3.235
 3255TIP3    H1 9708   7.702   0.185   3.323
 3255TIP3    H2 9709   7.599   0.128   3.228
 3256TIP3   OH2 9710   6.162   4.429   3.668
 3256TIP3    H1 9711   6.115   4.346   3.670
 3256TIP3    H2 9712   6.216   4.429   3.747
 3257TIP3   OH2 9713   6.249   2.293   5.502
 3257TIP3    H1 9714   6.332   2.305   5.548
 3257TIP3    H2 9715   6.272   2.295   5.409
 3258TIP3   OH2 9716   0.629   4.004   2.959
 3258TIP3    H1 9717   0.707   4.060   2.961
 3258TIP3    H2 9718   0.662   3.917   2.981
 3259TIP3   OH2 9719   2.658   2.361   3.140
 3259TIP3    H1 9720   2.678   2.271   3.167
 3259TIP3    H2 9721   2.710   2.373   3.060
 3260TIP3   OH2 9722   4.077   6.565   2.669
 3260TIP3    H1 9723   4.132   6.616   2.610
 3260TIP3    H2 9724   4.036   6.500   2.612
 3261TIP3   OH2 9725   4.152   2.193   5.724
 3261TIP3    H1 9726   4.127   2.136   5.650
 3261TIP3    H2 9727   4.154   2.134   5.799
 3262TIP3   OH2 9728   1.172   2.956   5.183
 3262TIP3    H1 9729   1.176   2.866   5.153
 3262TIP3    H2 9730   1.259   2.991   5.167
 3263TIP3   OH2 9731   1.168   5.312   2.426
 3263TIP3    H1 9732   1.141   5.309   2.518
 3263TIP3    H2 9733   1.126   5.236   2.387
 3264TIP3   OH2 9734   7.923   7.169   4.265
 3264TIP3    H1 9735   7.912   7.110   4.340
 3264TIP3    H2 9736   7.858   7.139   4.201
 3265TIP3   OH2 9737   0.757   2.145   0.284
 3265TIP3    H1 9738   0.821   2.159   0.353
 3265TIP3    H2 9739   0.698   2.220   0.289
 3266TIP3   OH2 9740   4.270   3.212   5.943
 3266TIP3    H1 9741   4.209   3.209   6.017
 3266TIP3    H2 9742   4.292   3.120   5.927
 3267TIP3   OH2 9743   0.734   7.070   0.089
 3267TIP3    H1 9744   0.682   7.150   0.080
 3267TIP3    H2 9745   0.776   7.059   0.003
 3268TIP3   OH2 9746   4.796   4.674   2.854
 3268TIP3    H1 9747   4.738   4.655   2.780
 3268TIP3    H2 9748   4.801   4.769   2.857
 3269TIP3   OH2 9749   5.760   0.833   3.308
 3269TIP3    H1 9750   5.680   0.794   3.273
 3269TIP3    H2 9751   5.827   0.766   3.293
 3270TIP3   OH2 9752   0.769   1.620   5.048
 3270TIP3    H1 9753   0.772   1.538   4.998
 3270TIP3    H2 9754   0.676   1.642   5.053
 3271TIP3   OH2 9755   5.445   3.252   1.605
 3271TIP3    H1 9756   5.454   3.285   1.695
 3271TIP3    H2 9757   5.532   3.223   1.581
 3272TIP3   OH2 9758   6.886   7.155   3.158
 3272TIP3    H1 9759   6.906   7.145   3.065
 3272TIP3    H2 9760   6.792   7.140   3.164
 3273TIP3   OH2 9761   5.401   4.828   3.392
 3273TIP3    H1 9762   5.442   4.778   3.321
 3273TIP3    H2 9763   5.397   4.766   3.465
 3274TIP3   OH2 9764   7.528   5.767   4.769
 3274TIP3    H1 9765   7.488   5.680   4.777
 3274TIP3    H2 9766   7.466   5.817   4.717
 3275TIP3   OH2 9767   0.968   1.686   6.277
 3275TIP3    H1 9768   1.005   1.685   6.365
 3275TIP3    H2 9769   0.875   1.704   6.290
 3276TIP3   OH2 9770   7.981   0.723   2.828
 3276TIP3    H1 9771   8.018   0.744   2.743
 3276TIP3    H2 9772   7.971   0.628   2.828
 3277TIP3   OH2 9773   1.191   2.156   3.182
 3277TIP3    H1 9774   1.259   2.222   3.198
 3277TIP3    H2 9775   1.219   2.080   3.233
 3278TIP3   OH2 9776   4.847   0.836   3.643
 3278TIP3    H1 9777   4.937   0.814   3.669
 3278TIP3    H2 9778   4.832   0.924   3.678
 3279TIP3   OH2 9779   7.415   0.584   3.299
 3279TIP3    H1 9780   7.335   0.636   3.288
 3279TIP3    H2 9781   7.443   0.602   3.388
 3280TIP3   OH2 9782   7.200   3.969   2.091
 3280TIP3    H1 9783   7.220   4.059   2.115
 3280TIP3    H2 9784   7.216   3.919   2.170
 3281TIP3   OH2 9785   3.772   6.012   6.468
 3281TIP3    H1 9786   3.696   6.064   6.493
 3281TIP3    H2 9787   3.759   5.991   6.376
 3282TIP3   OH2 9788   2.508   2.460   4.327
 3282TIP3    H1 9789   2.423   2.482   4.288
 3282TIP3    H2 9790   2.551   2.544   4.341
 3283TIP3   OH2 9791   0.161   7.134   4.423
 3283TIP3    H1 9792   0.197   7.176   4.345
 3283TIP3    H2 9793   0.230   7.074   4.451
 3284TIP3   OH2 9794   1.357   4.110   5.061
 3284TIP3    H1 9795   1.401   4.065   5.132
 3284TIP3    H2 9796   1.264   4.101   5.081
 3285TIP3   OH2 9797   1.484   6.391   5.595
 3285TIP3    H1 9798   1.579   6.406   5.599
 3285TIP3    H2 9799   1.474   6.298   5.611
 3286TIP3   OH2 9800   4.343   7.015   5.797
 3286TIP3    H1 9801   4.398   7.033   5.721
 3286TIP3    H2 9802   4.296   7.097   5.812
 3287TIP3   OH2 9803   1.340   2.940   3.967
 3287TIP3    H1 9804   1.427   2.980   3.973
 3287TIP3    H2 9805   1.357   2.850   3.940
 3288TIP3   OH2 9806   7.927   0.724   5.919
 3288TIP3    H1 9807   7.846   0.700   5.963
 3288TIP3    H2 9808   7.904   0.729   5.826
 3289TIP3   OH2 9809   4.251   1.330   6.433
 3289TIP3    H1 9810   4.179   1.271   6.455
 3289TIP3    H2 9811   4.235   1.356   6.343
 3290TIP3   OH2 9812   4.350   1.944   5.846
 3290TIP3    H1 9813   4.428   1.928   5.899
 3290TIP3    H2 9814   4.281   1.962   5.910
 3291TIP3   OH2 9815   0.253   2.151   4.175
 3291TIP3    H1 9816   0.159   2.134   4.169
 3291TIP3    H2 9817   0.269   2.216   4.106
 3292TIP3   OH2 9818   6.660   2.398   5.161
 3292TIP3    H1 9819   6.609   2.319   5.140
 3292TIP3    H2 9820   6.594   2.466   5.174
 3293TIP3   OH2 9821   3.468   1.416   6.428
 3293TIP3    H1 9822   3.490   1.507   6.406
 3293TIP3    H2 9823   3.394   1.395   6.371
 3294TIP3   OH2 9824   6.958   6.013   4.824
 3294TIP3    H1 9825   7.029   6.066   4.786
 3294TIP3    H2 9826   6.914   6.073   4.884
 3295TIP3   OH2 9827   2.751   5.880   3.811
 3295TIP3    H1 9828   2.759   5.966   3.771
 3295TIP3    H2 9829   2.660   5.874   3.838
 3296TIP3   OH2 9830   6.527   1.625   4.951
 3296TIP3    H1 9831   6.588   1.555   4.975
 3296TIP3    H2 9832   6.468   1.585   4.887
 3297TIP3   OH2 9833   5.562   2.658   4.665
 3297TIP3    H1 9834   5.536   2.722   4.599
 3297TIP3    H2 9835   5.594   2.583   4.615
 3298TIP3   OH2 9836   0.085   1.715   1.919
 3298TIP3    H1 9837   0.037   1.658   1.979
 3298TIP3    H2 9838   0.100   1.661   1.841
 3299TIP3   OH2 9839   4.671   3.365   3.233
 3299TIP3    H1 9840   4.746   3.364   3.292
 3299TIP3    H2 9841   4.702   3.322   3.153
 3300TIP3   OH2 9842   5.676   1.936   6.717
 3300TIP3    H1 9843   5.622   1.877   6.770
 3300TIP3    H2 9844   5.700   2.006   6.777
 3301TIP3   OH2 9845   3.806   1.433   3.905
 3301TIP3    H1 9846   3.879   1.411   3.962
 3301TIP3    H2 9847   3.825   1.522   3.875
 3302TIP3   OH2 9848   0.169   5.112   2.731
 3302TIP3    H1 9849   0.222   5.154   2.664
 3302TIP3    H2 9850   0.126   5.039   2.686
 3303TIP3   OH2 9851   1.857   4.556   0.275
 3303TIP3    H1 9852   1.779   4.529   0.228
 3303TIP3    H2 9853   1.884   4.638   0.233
 3304TIP3   OH2 9854   6.018   6.765   0.377
 3304TIP3    H1 9855   5.936   6.751   0.424
 3304TIP3    H2 9856   6.065   6.830   0.430
 3305TIP3   OH2 9857   5.176   7.425   4.541
 3305TIP3    H1 9858   5.165   7.478   4.463
 3305TIP3    H2 9859   5.232   7.477   4.598
 3306TIP3   OH2 9860   7.600   2.607   6.730
 3306TIP3    H1 9861   7.559   2.632   6.647
 3306TIP3    H2 9862   7.586   2.513   6.736
 3307TIP3   OH2 9863   1.563   5.589   2.438
 3307TIP3    H1 9864   1.642   5.632   2.403
 3307TIP3    H2 9865   1.596   5.506   2.474
 3308TIP3   OH2 9866   8.073   0.293   3.319
 3308TIP3    H1 9867   8.080   0.211   3.271
 3308TIP3    H2 9868   8.063   0.265   3.411
 3309TIP3   OH2 9869   7.158   1.430   2.441
 3309TIP3    H1 9870   7.144   1.430   2.536
 3309TIP3    H2 9871   7.239   1.381   2.430
 3310TIP3   OH2 9872   7.186   1.814   6.282
 3310TIP3    H1 9873   7.270   1.819   6.328
 3310TIP3    H2 9874   7.210   1.802   6.190
 3311TIP3   OH2 9875   5.934   1.271   1.899
 3311TIP3    H1 9876   5.894   1.358   1.895
 3311TIP3    H2 9877   6.025   1.287   1.926
 3312TIP3   OH2 9878   6.008   3.602   4.564
 3312TIP3    H1 9879   6.038   3.572   4.478
 3312TIP3    H2 9880   5.922   3.641   4.547
 3313TIP3   OH2 9881   7.544   2.531   3.766
 3313TIP3    H1 9882   7.464   2.481   3.785
 3313TIP3    H2 9883   7.514   2.603   3.711
 3314TIP3   OH2 9884   2.739   2.345   2.849
 3314TIP3    H1 9885   2.688   2.270   2.818
 3314TIP3    H2 9886   2.810   2.354   2.786
 3315TIP3   OH2 9887   7.410   7.633   3.367
 3315TIP3    H1 9888   7.321   7.651   3.338
 3315TIP3    H2 9889   7.401   7.603   3.458
 3316TIP3   OH2 9890   7.755   7.777   3.469
 3316TIP3    H1 9891   7.679   7.824   3.433
 3316TIP3    H2 9892   7.805   7.844   3.515
 3317TIP3   OH2 9893   0.712   7.712   1.412
 3317TIP3    H1 9894   0.736   7.793   1.458
 3317TIP3    H2 9895   0.620   7.698   1.434
 3318TIP3   OH2 9896   3.716   2.557   1.907
 3318TIP3    H1 9897   3.720   2.537   2.001
 3318TIP3    H2 9898   3.802   2.532   1.873
 3319TIP3   OH2 9899   7.653   6.177   2.118
 3319TIP3    H1 9900   7.694   6.096   2.150
 3319TIP3    H2 9901   7.667   6.175   2.024
 3320TIP3   OH2 9902   2.247   6.694   5.932
 3320TIP3    H1 9903   2.270   6.699   6.025
 3320TIP3    H2 9904   2.161   6.736   5.926
 3321TIP3   OH2 9905   2.859   7.285   1.765
 3321TIP3    H1 9906   2.919   7.262   1.694
 3321TIP3    H2 9907   2.806   7.357   1.730
 3322TIP3   OH2 9908   2.209   1.156   1.233
 3322TIP3    H1 9909   2.244   1.240   1.262
 3322TIP3    H2 9910   2.273   1.123   1.170
 3323TIP3   OH2 9911   3.753   2.227   6.747
 3323TIP3    H1 9912   3.771   2.312   6.708
 3323TIP3    H2 9913   3.836   2.199   6.785
 3324TIP3   OH2 9914   4.485   7.426   1.039
 3324TIP3    H1 9915   4.404   7.461   1.002
 3324TIP3    H2 9916   4.511   7.490   1.105
 3325TIP3   OH2 9917   0.314   1.460   1.534
 3325TIP3    H1 9918   0.279   1.438   1.448
 3325TIP3    H2 9919   0.391   1.515   1.515
 3326TIP3   OH2 9920   1.954   7.176   6.227
 3326TIP3    H1 9921   2.043   7.185   6.192
 3326TIP3    H2 9922   1.909   7.120   6.165
 3327TIP3   OH2 9923   4.904   0.897   6.078
 3327TIP3    H1 9924   4.854   0.960   6.129
 3327TIP3    H2 9925   4.842   0.861   6.015
 3328TIP3   OH2 9926   3.270   0.483   5.020
 3328TIP3    H1 9927   3.203   0.531   5.068
 3328TIP3    H2 9928   3.290   0.408   5.076
 3329TIP3   OH2 9929   1.065   1.485   3.957
 3329TIP3    H1 9930   1.129   1.553   3.934
 3329TIP3    H2 9931   0.988   1.533   3.987
 3330TIP3   OH2 9932   4.787   2.399   2.426
 3330TIP3    H1 9933   4.765   2.492   2.424
 3330TIP3    H2 9934   4.874   2.394   2.385
 3331TIP3   OH2 9935   2.152   4.475   6.526
 3331TIP3    H1 9936   2.245   4.492   6.510
 3331TIP3    H2 9937   2.150   4.387   6.562
 3332TIP3   OH2 9938   4.996   6.896   3.948
 3332TIP3    H1 9939   5.000   6.893   4.044
 3332TIP3    H2 9940   4.920   6.843   3.925
 3333TIP3   OH2 9941   7.170   1.278   5.492
 3333TIP3    H1 9942   7.242   1.276   5.554
 3333TIP3    H2 9943   7.104   1.333   5.533
 3334TIP3   OH2 9944   7.922   2.241   3.994
 3334TIP3    H1 9945   7.851   2.193   3.951
 3334TIP3    H2 9946   7.979   2.172   4.029
 3335TIP3   OH2 9947   8.235   1.388   2.459
 3335TIP3    H1 9948   8.187   1.447   2.517
 3335TIP3    H2 9949   8.304   1.351   2.514
 3336TIP3   OH2 9950   5.876   6.257   1.376
 3336TIP3    H1 9951   5.928   6.215   1.308
 3336TIP3    H2 9952   5.934   6.325   1.412
 3337TIP3   OH2 9953   4.880   5.516   2.232
 3337TIP3    H1 9954   4.788   5.532   2.212
 3337TIP3    H2 9955   4.920   5.603   2.227
 3338TIP3   OH2 9956   5.189   0.105   2.567
 3338TIP3    H1 9957   5.233   0.180   2.608
 3338TIP3    H2 9958   5.232   0.028   2.604
 3339TIP3   OH2 9959   3.056   0.587   5.157
 3339TIP3    H1 9960   3.044   0.551   5.245
 3339TIP3    H2 9961   2.968   0.608   5.127
 3340TIP3   OH2 9962   0.221   6.211   5.724
 3340TIP3    H1 9963   0.147   6.209   5.663
 3340TIP3    H2 9964   0.291   6.166   5.677
 3341TIP3   OH2 9965   2.370   4.892   5.712
 3341TIP3    H1 9966   2.393   4.952   5.782
 3341TIP3    H2 9967   2.398   4.806   5.744
 3342TIP3   OH2 9968   6.543   2.072   5.582
 3342TIP3    H1 9969   6.515   2.152   5.627
 3342TIP3    H2 9970   6.636   2.085   5.565
 3343TIP3   OH2 9971   2.764   2.956   2.680
 3343TIP3    H1 9972   2.813   3.010   2.617
 3343TIP3    H2 9973   2.748   3.014   2.754
 3344TIP3   OH2 9974   3.066   4.170   6.473
 3344TIP3    H1 9975   3.010   4.122   6.412
 3344TIP3    H2 9976   3.153   4.166   6.433
 3345TIP3   OH2 9977   2.977   6.929   2.054
 3345TIP3    H1 9978   3.035   6.858   2.027
 3345TIP3    H2 9979   2.907   6.928   1.989
 3346TIP3   OH2 9980   5.052   6.116   1.129
 3346TIP3    H1 9981   5.048   6.042   1.189
 3346TIP3    H2 9982   5.100   6.184   1.177
 3347TIP3   OH2 9983   1.828   1.022   6.733
 3347TIP3    H1 9984   1.859   1.084   6.666
 3347TIP3    H2 9985   1.747   0.986   6.696
 3348TIP3   OH2 9986   0.114   4.471   5.862
 3348TIP3    H1 9987   0.132   4.408   5.932
 3348TIP3    H2 9988   0.021   4.461   5.844
 3349TIP3   OH2 9989   6.836   5.052   6.337
 3349TIP3    H1 9990   6.756   5.007   6.310
 3349TIP3    H2 9991   6.809   5.114   6.404
 3350TIP3   OH2 9992   1.901   6.699   4.551
 3350TIP3    H1 9993   1.885   6.627   4.490
 3350TIP3    H2 9994   1.851   6.675   4.629
 3351TIP3   OH2 9995   0.959   2.160   0.062
 3351TIP3    H1 9996   0.914   2.150   0.145
 3351TIP3    H2 9997   0.980   2.071   0.035
 3352TIP3   OH2 9998   3.020   7.062   4.614
 3352TIP3    H1 9999   3.053   7.152   4.609
 3352TIP3    H210000   3.043   7.033   4.703
 3353TIP3   OH210001   1.574   1.142   5.481
 3353TIP3    H110002   1.578   1.238   5.474
 3353TIP3    H210003   1.527   1.126   5.563
 3354TIP3   OH210004   1.135   4.157   1.226
 3354TIP3    H110005   1.176   4.236   1.260
 3354TIP3    H210006   1.209   4.098   1.207
 3355TIP3   OH210007   1.632   5.878   6.010
 3355TIP3    H110008   1.656   5.950   5.952
 3355TIP3    H210009   1.639   5.915   6.098
 3356TIP3   OH210010   5.775   6.608   2.071
 3356TIP3    H110011   5.775   6.700   2.045
 3356TIP3    H210012   5.863   6.592   2.105
 3357TIP3   OH210013   7.375   4.947   0.940
 3357TIP3    H110014   7.353   4.967   0.849
 3357TIP3    H210015   7.393   4.852   0.940
 3358TIP3   OH210016   7.248   3.444   3.246
 3358TIP3    H110017   7.319   3.482   3.298
 3358TIP3    H210018   7.180   3.511   3.245
 3359TIP3   OH210019   1.573   7.416   5.863
 3359TIP3    H110020   1.547   7.325   5.872
 3359TIP3    H210021   1.537   7.444   5.779
 3360TIP3   OH210022   4.428   0.350   5.580
 3360TIP3    H110023   4.433   0.255   5.571
 3360TIP3    H210024   4.519   0.378   5.589
 3361TIP3   OH210025   0.035   7.188   6.407
 3361TIP3    H110026   0.007   7.147   6.325
 3361TIP3    H210027   0.130   7.200   6.396
 3362TIP3   OH210028   4.617   2.529   6.437
 3362TIP3    H110029   4.706   2.536   6.403
 3362TIP3    H210030   4.614   2.442   6.477
 3363TIP3   OH210031   4.081   4.591   4.804
 3363TIP3    H110032   4.150   4.651   4.777
 3363TIP3    H210033   4.101   4.509   4.759
 3364TIP3   OH210034   3.106   0.440   1.876
 3364TIP3    H110035   3.026   0.434   1.929
 3364TIP3    H210036   3.167   0.488   1.931
 3365TIP3   OH210037   5.022   3.600   3.343
 3365TIP3    H110038   4.956   3.611   3.275
 3365TIP3    H210039   5.003   3.515   3.382
 3366TIP3   OH210040   6.718   6.313   6.201
 3366TIP3    H110041   6.708   6.399   6.161
 3366TIP3    H210042   6.639   6.265   6.178
 3367TIP3   OH210043   6.583   7.154   5.723
 3367TIP3    H110044   6.549   7.237   5.755
 3367TIP3    H210045   6.659   7.178   5.669
 3368TIP3   OH210046   4.125   5.569   3.766
 3368TIP3    H110047   4.189   5.623   3.719
 3368TIP3    H210048   4.177   5.508   3.817
 3369TIP3   OH210049   5.226   4.490   0.740
 3369TIP3    H110050   5.211   4.420   0.677
 3369TIP3    H210051   5.209   4.571   0.691
 3370TIP3   OH210052   3.149   7.086   3.761
 3370TIP3    H110053   3.067   7.129   3.737
 3370TIP3    H210054   3.210   7.157   3.780
 3371TIP3   OH210055   5.200   5.026   2.097
 3371TIP3    H110056   5.212   5.019   2.192
 3371TIP3    H210057   5.200   5.121   2.081
 3372TIP3   OH210058   2.314   4.306   5.570
 3372TIP3    H110059   2.236   4.252   5.585
 3372TIP3    H210060   2.364   4.258   5.504
 3373TIP3   OH210061   2.153   4.196   0.039
 3373TIP3    H110062   2.103   4.261  -0.011
 3373TIP3    H210063   2.208   4.154  -0.027
 3374TIP3   OH210064   3.711   3.153   5.300
 3374TIP3    H110065   3.693   3.246   5.287
 3374TIP3    H210066   3.728   3.144   5.393
 3375TIP3   OH210067   5.550   5.628   5.748
 3375TIP3    H110068   5.586   5.587   5.827
 3375TIP3    H210069   5.485   5.565   5.716
 3376TIP3   OH210070   5.678   6.217   0.902
 3376TIP3    H110071   5.618   6.161   0.852
 3376TIP3    H210072   5.705   6.285   0.841
 3377TIP3   OH210073   6.726   7.268   0.688
 3377TIP3    H110074   6.813   7.286   0.723
 3377TIP3    H210075   6.712   7.175   0.705
 3378TIP3   OH210076   5.115   7.485   2.230
 3378TIP3    H110077   5.130   7.530   2.147
 3378TIP3    H210078   5.038   7.530   2.267
 3379TIP3   OH210079   4.210   4.642   2.292
 3379TIP3    H110080   4.267   4.688   2.353
 3379TIP3    H210081   4.268   4.606   2.226
 3380TIP3   OH210082   0.308   4.090   1.174
 3380TIP3    H110083   0.301   4.170   1.122
 3380TIP3    H210084   0.338   4.120   1.260
 3381TIP3   OH210085   5.714   2.662   2.629
 3381TIP3    H110086   5.623   2.643   2.651
 3381TIP3    H210087   5.754   2.686   2.713
 3382TIP3   OH210088   1.586   0.921   6.561
 3382TIP3    H110089   1.576   1.010   6.529
 3382TIP3    H210090   1.572   0.866   6.484
 3383TIP3   OH210091   3.461   6.617   5.704
 3383TIP3    H110092   3.532   6.677   5.682
 3383TIP3    H210093   3.473   6.598   5.797
 3384TIP3   OH210094   2.110   0.042   1.243
 3384TIP3    H110095   2.188  -0.009   1.221
 3384TIP3    H210096   2.137   0.133   1.230
 3385TIP3   OH210097   4.589   0.663   5.257
 3385TIP3    H110098   4.506   0.632   5.294
 3385TIP3    H210099   4.639   0.695   5.332
 3386TIP3   OH210100   0.172   7.571   3.595
 3386TIP3    H110101   0.103   7.635   3.578
 3386TIP3    H210102   0.253   7.617   3.573
 3387TIP3   OH210103   6.900   4.174   5.183
 3387TIP3    H110104   6.934   4.114   5.249
 3387TIP3    H210105   6.808   4.188   5.209
 3388TIP3   OH210106   2.324   1.766   1.116
 3388TIP3    H110107   2.382   1.821   1.169
 3388TIP3    H210108   2.243   1.817   1.108
 3389TIP3   OH210109   5.786   1.078   3.432
 3389TIP3    H110110   5.800   1.000   3.379
 3389TIP3    H210111   5.691   1.091   3.431
 3390TIP3   OH210112   0.091   2.288   3.823
 3390TIP3    H110113   0.178   2.276   3.784
 3390TIP3    H210114   0.049   2.202   3.816
 3391TIP3   OH210115   4.287   0.597   5.848
 3391TIP3    H110116   4.309   0.509   5.877
 3391TIP3    H210117   4.348   0.654   5.895
 3392TIP3   OH210118   1.269   0.139   0.729
 3392TIP3    H110119   1.234   0.123   0.642
 3392TIP3    H210120   1.279   0.053   0.768
 3393TIP3   OH210121   3.862   1.315   5.841
 3393TIP3    H110122   3.780   1.343   5.883
 3393TIP3    H210123   3.872   1.224   5.868
 3394TIP3   OH210124   7.927   1.039   3.038
 3394TIP3    H110125   7.972   1.017   3.120
 3394TIP3    H210126   7.974   1.115   3.005
 3395TIP3   OH210127   4.659   5.687   2.783
 3395TIP3    H110128   4.634   5.681   2.691
 3395TIP3    H210129   4.577   5.700   2.829
 3396TIP3   OH210130   5.258   6.573   0.904
 3396TIP3    H110131   5.224   6.538   0.822
 3396TIP3    H210132   5.324   6.510   0.932
 3397TIP3   OH210133   5.882   3.974   2.856
 3397TIP3    H110134   5.893   4.026   2.776
 3397TIP3    H210135   5.810   4.016   2.902
 3398TIP3   OH210136   4.325   6.259   3.606
 3398TIP3    H110137   4.322   6.330   3.542
 3398TIP3    H210138   4.295   6.182   3.558
 3399TIP3   OH210139   2.236   5.855   4.667
 3399TIP3    H110140   2.199   5.935   4.632
 3399TIP3    H210141   2.184   5.837   4.746
 3400TIP3   OH210142   8.083   3.666   6.651
 3400TIP3    H110143   8.178   3.653   6.658
 3400TIP3    H210144   8.068   3.683   6.558
 3401TIP3   OH210145   4.178   4.865   4.956
 3401TIP3    H110146   4.162   4.840   4.865
 3401TIP3    H210147   4.155   4.788   5.007
 3402TIP3   OH210148   5.420   1.882   2.000
 3402TIP3    H110149   5.493   1.854   1.945
 3402TIP3    H210150   5.343   1.873   1.944
 3403TIP3   OH210151   0.702   0.577   4.226
 3403TIP3    H110152   0.767   0.595   4.295
 3403TIP3    H210153   0.744   0.609   4.146
 3404TIP3   OH210154   0.237   4.488   3.214
 3404TIP3    H110155   0.175   4.417   3.228
 3404TIP3    H210156   0.307   4.472   3.277
 3405TIP3   OH210157   4.880   6.107   5.608
 3405TIP3    H110158   4.971   6.094   5.583
 3405TIP3    H210159   4.842   6.020   5.609
 3406TIP3   OH210160   6.061   4.209   5.610
 3406TIP3    H110161   6.106   4.273   5.555
 3406TIP3    H210162   5.974   4.201   5.570
 3407TIP3   OH210163   3.871   4.925   5.892
 3407TIP3    H110164   3.884   4.936   5.986
 3407TIP3    H210165   3.814   4.849   5.884
 3408TIP3   OH210166   0.723   3.458   1.771
 3408TIP3    H110167   0.785   3.404   1.821
 3408TIP3    H210168   0.664   3.394   1.730
 3409TIP3   OH210169   5.583   0.358   0.766
 3409TIP3    H110170   5.522   0.330   0.699
 3409TIP3    H210171   5.538   0.342   0.849
 3410TIP3   OH210172   8.152   3.860   0.627
 3410TIP3    H110173   8.215   3.824   0.689
 3410TIP3    H210174   8.070   3.863   0.675
 3411TIP3   OH210175   6.156   3.267   6.500
 3411TIP3    H110176   6.220   3.269   6.572
 3411TIP3    H210177   6.135   3.175   6.488
 3412TIP3   OH210178   1.382   6.964   0.187
 3412TIP3    H110179   1.310   6.938   0.130
 3412TIP3    H210180   1.359   6.930   0.273
 3413TIP3   OH210181   1.448   7.476   2.716
 3413TIP3    H110182   1.374   7.464   2.656
 3413TIP3    H210183   1.464   7.570   2.717
 3414TIP3   OH210184   2.398   3.926   5.369
 3414TIP3    H110185   2.452   3.997   5.404
 3414TIP3    H210186   2.461   3.861   5.337
 3415TIP3   OH210187   2.054   1.976   6.396
 3415TIP3    H110188   2.117   1.936   6.336
 3415TIP3    H210189   2.092   2.061   6.419
 3416TIP3   OH210190   3.175   6.753   1.949
 3416TIP3    H110191   3.128   6.762   1.867
 3416TIP3    H210192   3.260   6.795   1.933
 3417TIP3   OH210193   2.145   1.251   4.234
 3417TIP3    H110194   2.134   1.294   4.319
 3417TIP3    H210195   2.145   1.157   4.255
 3418TIP3   OH210196   6.062   4.632   3.502
 3418TIP3    H110197   6.102   4.565   3.557
 3418TIP3    H210198   6.071   4.713   3.553
 3419TIP3   OH210199   0.620   6.368   0.893
 3419TIP3    H110200   0.651   6.297   0.837
 3419TIP3    H210201   0.544   6.331   0.939
 3420TIP3   OH210202   5.473   6.052   0.771
 3420TIP3    H110203   5.488   5.965   0.807
 3420TIP3    H210204   5.382   6.050   0.741
 3421TIP3   OH210205   3.142   5.565   4.921
 3421TIP3    H110206   3.126   5.658   4.907
 3421TIP3    H210207   3.172   5.559   5.012
 3422TIP3   OH210208   1.650   6.642   1.835
 3422TIP3    H110209   1.638   6.723   1.885
 3422TIP3    H210210   1.712   6.591   1.886
 3423TIP3   OH210211   6.831   7.132   1.939
 3423TIP3    H110212   6.814   7.212   1.890
 3423TIP3    H210213   6.855   7.162   2.026
 3424TIP3   OH210214   3.052   6.505   2.653
 3424TIP3    H110215   3.023   6.497   2.743
 3424TIP3    H210216   2.971   6.513   2.602
 3425TIP3   OH210217   2.786   1.287   2.700
 3425TIP3    H110218   2.714   1.244   2.655
 3425TIP3    H210219   2.745   1.360   2.747
 3426TIP3   OH210220   5.367   2.933   6.308
 3426TIP3    H110221   5.305   2.864   6.285
 3426TIP3    H210222   5.420   2.945   6.230
 3427TIP3   OH210223   0.502   1.064   2.368
 3427TIP3    H110224   0.537   0.993   2.315
 3427TIP3    H210225   0.408   1.064   2.348
 3428TIP3   OH210226   7.909   0.442   1.700
 3428TIP3    H110227   7.838   0.500   1.729
 3428TIP3    H210228   7.897   0.435   1.606
 3429TIP3   OH210229   0.308   3.328   2.445
 3429TIP3    H110230   0.219   3.362   2.443
 3429TIP3    H210231   0.298   3.235   2.467
 3430TIP3   OH210232   6.188   2.928   5.873
 3430TIP3    H110233   6.215   2.889   5.956
 3430TIP3    H210234   6.130   3.000   5.898
 3431TIP3   OH210235   7.364   6.110   0.649
 3431TIP3    H110236   7.312   6.177   0.606
 3431TIP3    H210237   7.425   6.079   0.582
 3432TIP3   OH210238   4.159   5.940   4.443
 3432TIP3    H110239   4.070   5.916   4.468
 3432TIP3    H210240   4.180   5.880   4.370
 3433TIP3   OH210241   0.120   4.823   3.992
 3433TIP3    H110242   0.052   4.761   3.965
 3433TIP3    H210243   0.107   4.832   4.087
 3434TIP3   OH210244   6.754   1.055   6.619
 3434TIP3    H110245   6.817   0.986   6.596
 3434TIP3    H210246   6.691   1.055   6.546
 3435TIP3   OH210247   2.170   3.677   3.840
 3435TIP3    H110248   2.113   3.629   3.781
 3435TIP3    H210249   2.245   3.619   3.854
 3436TIP3   OH210250   4.284   6.848   3.011
 3436TIP3    H110251   4.208   6.883   3.058
 3436TIP3    H210252   4.338   6.807   3.080
 3437TIP3   OH210253   5.678   7.047   2.693
 3437TIP3    H110254   5.646   6.957   2.695
 3437TIP3    H210255   5.599   7.101   2.685
 3438TIP3   OH210256   2.830   1.064   0.693
 3438TIP3    H110257   2.773   1.084   0.767
 3438TIP3    H210258   2.913   1.106   0.714
 3439TIP3   OH210259   0.586   6.842   4.167
 3439TIP3    H110260   0.677   6.818   4.152
 3439TIP3    H210261   0.551   6.771   4.221
 3440TIP3   OH210262   8.069   0.233   1.624
 3440TIP3    H110263   8.015   0.204   1.550
 3440TIP3    H210264   8.031   0.317   1.650
 3441TIP3   OH210265   5.346   6.778   4.221
 3441TIP3    H110266   5.380   6.863   4.250
 3441TIP3    H210267   5.391   6.714   4.277
 3442TIP3   OH210268   1.990   1.273   5.132
 3442TIP3    H110269   2.015   1.292   5.222
 3442TIP3    H210270   2.012   1.180   5.120
 3443TIP3   OH210271   0.425   5.820   2.362
 3443TIP3    H110272   0.452   5.751   2.422
 3443TIP3    H210273   0.391   5.773   2.286
 3444TIP3   OH210274   3.011   2.481   2.097
 3444TIP3    H110275   3.007   2.500   2.004
 3444TIP3    H210276   2.999   2.566   2.139
 3445TIP3   OH210277   1.486   0.952   2.083
 3445TIP3    H110278   1.551   1.007   2.037
 3445TIP3    H210279   1.450   0.896   2.015
 3446TIP3   OH210280   1.372   1.029   5.231
 3446TIP3    H110281   1.277   1.025   5.227
 3446TIP3    H210282   1.398   1.073   5.150
 3447TIP3   OH210283   2.946   6.861   3.665
 3447TIP3    H110284   2.974   6.828   3.751
 3447TIP3    H210285   2.850   6.863   3.671
 3448TIP3   OH210286   7.248   0.155   3.898
 3448TIP3    H110287   7.217   0.215   3.829
 3448TIP3    H210288   7.177   0.091   3.907
 3449TIP3   OH210289   6.237   0.040   4.046
 3449TIP3    H110290   6.266   0.057   3.957
 3449TIP3    H210291   6.314   0.007   4.091
 3450TIP3   OH210292   2.707   2.532   3.994
 3450TIP3    H110293   2.751   2.599   3.941
 3450TIP3    H210294   2.673   2.470   3.930
 3451TIP3   OH210295   2.847   6.537   2.473
 3451TIP3    H110296   2.814   6.626   2.478
 3451TIP3    H210297   2.886   6.531   2.386
 3452TIP3   OH210298   3.213   2.794   4.115
 3452TIP3    H110299   3.265   2.715   4.106
 3452TIP3    H210300   3.277   2.865   4.114
 3453TIP3   OH210301   0.055   2.299   5.890
 3453TIP3    H110302   0.044   2.262   5.978
 3453TIP3    H210303   0.131   2.356   5.898
 3454TIP3   OH210304   2.768   5.586   3.450
 3454TIP3    H110305   2.775   5.581   3.546
 3454TIP3    H210306   2.720   5.667   3.434
 3455TIP3   OH210307   7.417   6.551   0.509
 3455TIP3    H110308   7.445   6.469   0.469
 3455TIP3    H210309   7.453   6.619   0.451
 3456TIP3   OH210310   2.264   2.400   5.851
 3456TIP3    H110311   2.222   2.318   5.879
 3456TIP3    H210312   2.336   2.372   5.795
 3457TIP3   OH210313   5.501   0.910   0.169
 3457TIP3    H110314   5.441   0.845   0.206
 3457TIP3    H210315   5.585   0.865   0.164
 3458TIP3   OH210316   5.378   4.196   1.465
 3458TIP3    H110317   5.454   4.156   1.506
 3458TIP3    H210318   5.348   4.132   1.401
 3459TIP3   OH210319   5.362   0.205   4.418
 3459TIP3    H110320   5.331   0.281   4.467
 3459TIP3    H210321   5.414   0.156   4.481
 3460TIP3   OH210322   0.266   5.390   6.474
 3460TIP3    H110323   0.339   5.367   6.416
 3460TIP3    H210324   0.267   5.323   6.541
 3461TIP3   OH210325   5.004   3.256   3.222
 3461TIP3    H110326   5.015   3.205   3.142
 3461TIP3    H210327   4.999   3.191   3.292
 3462TIP3   OH210328   1.483   3.347   5.667
 3462TIP3    H110329   1.438   3.357   5.751
 3462TIP3    H210330   1.517   3.257   5.669
 3463TIP3   OH210331   7.405   7.457   1.925
 3463TIP3    H110332   7.345   7.531   1.911
 3463TIP3    H210333   7.492   7.497   1.923
 3464TIP3   OH210334   7.065   0.591   0.200
 3464TIP3    H110335   7.046   0.669   0.253
 3464TIP3    H210336   7.160   0.589   0.194
 3465TIP3   OH210337   0.101   7.159   3.718
 3465TIP3    H110338   0.055   7.228   3.669
 3465TIP3    H210339   0.062   7.162   3.805
 3466TIP3   OH210340   6.077   1.880   0.239
 3466TIP3    H110341   6.008   1.930   0.196
 3466TIP3    H210342   6.140   1.946   0.270
 3467TIP3   OH210343   7.883   1.370   4.668
 3467TIP3    H110344   7.944   1.431   4.628
 3467TIP3    H210345   7.797   1.395   4.633
 3468TIP3   OH210346   6.348   2.928   1.851
 3468TIP3    H110347   6.358   3.018   1.881
 3468TIP3    H210348   6.376   2.875   1.926
 3469TIP3   OH210349   6.209   2.633   5.238
 3469TIP3    H110350   6.254   2.564   5.287
 3469TIP3    H210351   6.144   2.668   5.299
 3470TIP3   OH210352   0.192   0.332   5.035
 3470TIP3    H110353   0.275   0.289   5.017
 3470TIP3    H210354   0.214   0.425   5.044
 3471TIP3   OH210355   5.245   5.815   2.644
 3471TIP3    H110356   5.291   5.851   2.568
 3471TIP3    H210357   5.153   5.830   2.625
 3472TIP3   OH210358   5.069   7.659   4.829
 3472TIP3    H110359   5.067   7.563   4.827
 3472TIP3    H210360   5.043   7.685   4.741
 3473TIP3   OH210361   0.875   0.948   2.477
 3473TIP3    H110362   0.818   0.872   2.489
 3473TIP3    H210363   0.823   1.022   2.509
 3474TIP3   OH210364   2.506   0.795   2.141
 3474TIP3    H110365   2.477   0.812   2.051
 3474TIP3    H210366   2.438   0.739   2.178
 3475TIP3   OH210367   5.429   6.864   3.679
 3475TIP3    H110368   5.495   6.840   3.744
 3475TIP3    H210369   5.359   6.905   3.730
 3476TIP3   OH210370   2.954   4.493   3.638
 3476TIP3    H110371   2.971   4.421   3.699
 3476TIP3    H210372   2.902   4.556   3.689
 3477TIP3   OH210373   5.963   1.050   6.314
 3477TIP3    H110374   5.958   1.122   6.377
 3477TIP3    H210375   5.924   0.976   6.360
 3478TIP3   OH210376   2.757   3.788   1.320
 3478TIP3    H110377   2.690   3.729   1.286
 3478TIP3    H210378   2.796   3.827   1.242
 3479TIP3   OH210379   3.308   4.410   5.320
 3479TIP3    H110380   3.342   4.445   5.238
 3479TIP3    H210381   3.296   4.487   5.375
 3480TIP3   OH210382   7.828   3.614   3.693
 3480TIP3    H110383   7.879   3.660   3.760
 3480TIP3    H210384   7.766   3.561   3.742
 3481TIP3   OH210385   6.983   6.933   4.304
 3481TIP3    H110386   7.033   6.978   4.372
 3481TIP3    H210387   6.959   6.849   4.343
 3482TIP3   OH210388   2.396   7.570   2.856
 3482TIP3    H110389   2.487   7.596   2.841
 3482TIP3    H210390   2.400   7.506   2.927
 3483TIP3   OH210391   5.665   4.156   3.306
 3483TIP3    H110392   5.627   4.086   3.359
 3483TIP3    H210393   5.591   4.191   3.255
 3484TIP3   OH210394   6.225   7.411   0.843
 3484TIP3    H110395   6.296   7.363   0.800
 3484TIP3    H210396   6.206   7.361   0.922
 3485TIP3   OH210397   3.933   1.064   5.930
 3485TIP3    H110398   3.969   0.976   5.935
 3485TIP3    H210399   3.927   1.092   6.022
 3486TIP3   OH210400   2.808   6.300   5.824
 3486TIP3    H110401   2.723   6.271   5.789
 3486TIP3    H210402   2.864   6.222   5.818
 3487TIP3   OH210403   8.050   4.239   3.495
 3487TIP3    H110404   7.969   4.289   3.487
 3487TIP3    H210405   8.058   4.194   3.411
 3488TIP3   OH210406   6.730   4.864   4.513
 3488TIP3    H110407   6.689   4.797   4.459
 3488TIP3    H210408   6.794   4.906   4.455
 3489TIP3   OH210409   4.733   0.183   6.630
 3489TIP3    H110410   4.665   0.231   6.582
 3489TIP3    H210411   4.815   0.210   6.589
 3490TIP3   OH210412   3.941   6.211   0.053
 3490TIP3    H110413   3.917   6.215   0.146
 3490TIP3    H210414   4.026   6.169   0.052
 3491TIP3   OH210415   3.660   4.209   1.674
 3491TIP3    H110416   3.671   4.277   1.742
 3491TIP3    H210417   3.588   4.155   1.707
 3492TIP3   OH210418   5.933   1.480   4.209
 3492TIP3    H110419   5.969   1.438   4.288
 3492TIP3    H210420   5.935   1.411   4.143
 3493TIP3   OH210421   3.864   6.703   2.550
 3493TIP3    H110422   3.890   6.673   2.463
 3493TIP3    H210423   3.932   6.668   2.608
 3494TIP3   OH210424   7.675   6.761   5.976
 3494TIP3    H110425   7.667   6.667   5.960
 3494TIP3    H210426   7.635   6.775   6.061
 3495TIP3   OH210427   5.681   7.548   3.458
 3495TIP3    H110428   5.734   7.624   3.482
 3495TIP3    H210429   5.599   7.560   3.507
 3496TIP3   OH210430   1.764   6.058   5.234
 3496TIP3    H110431   1.828   6.027   5.170
 3496TIP3    H210432   1.690   5.999   5.224
 3497TIP3   OH210433   2.629   0.619   3.676
 3497TIP3    H110434   2.546   0.655   3.709
 3497TIP3    H210435   2.691   0.691   3.683
 3498TIP3   OH210436   6.279   1.882   6.233
 3498TIP3    H110437   6.330   1.858   6.310
 3498TIP3    H210438   6.199   1.829   6.239
 3499TIP3   OH210439   2.621   6.302   4.306
 3499TIP3    H110440   2.587   6.285   4.218
 3499TIP3    H210441   2.644   6.216   4.340
 3500TIP3   OH210442   1.078   3.435   6.557
 3500TIP3    H110443   1.005   3.385   6.593
 3500TIP3    H210444   1.050   3.456   6.468
 3501TIP3   OH210445   7.768   0.185   5.249
 3501TIP3    H110446   7.860   0.206   5.228
 3501TIP3    H210447   7.768   0.091   5.267
 3502TIP3   OH210448   4.259   7.548   2.048
 3502TIP3    H110449   4.275   7.640   2.027
 3502TIP3    H210450   4.190   7.550   2.114
 3503TIP3   OH210451   8.300   3.727   5.071
 3503TIP3    H110452   8.310   3.674   5.150
 3503TIP3    H210453   8.208   3.754   5.071
 3504TIP3   OH210454   7.843   7.254   1.785
 3504TIP3    H110455   7.884   7.313   1.722
 3504TIP3    H210456   7.763   7.225   1.743
 3505TIP3   OH210457   7.542   4.476   2.822
 3505TIP3    H110458   7.541   4.454   2.915
 3505TIP3    H210459   7.500   4.401   2.779
 3506TIP3   OH210460   7.107   5.199   0.752
 3506TIP3    H110461   7.080   5.256   0.681
 3506TIP3    H210462   7.170   5.139   0.712
 3507TIP3   OH210463   2.412   7.763   1.430
 3507TIP3    H110464   2.387   7.832   1.491
 3507TIP3    H210465   2.335   7.706   1.426
 3508TIP3   OH210466   4.185   4.080   4.598
 3508TIP3    H110467   4.215   3.997   4.633
 3508TIP3    H210468   4.134   4.057   4.520
 3509TIP3   OH210469   2.103   6.599   5.043
 3509TIP3    H110470   2.139   6.596   5.131
 3509TIP3    H210471   2.078   6.690   5.030
 3510TIP3   OH210472   0.969   1.492   3.459
 3510TIP3    H110473   0.951   1.479   3.553
 3510TIP3    H210474   1.054   1.536   3.457
 3511TIP3   OH210475   2.030   0.281   1.807
 3511TIP3    H110476   2.066   0.223   1.740
 3511TIP3    H210477   2.106   0.325   1.843
 3512TIP3   OH210478   2.862   6.022   5.761
 3512TIP3    H110479   2.803   5.967   5.710
 3512TIP3    H210480   2.929   5.962   5.793
 3513TIP3   OH210481   0.153   2.593   3.566
 3513TIP3    H110482   0.113   2.634   3.490
 3513TIP3    H210483   0.116   2.640   3.641
 3514TIP3   OH210484   2.275   0.183   3.169
 3514TIP3    H110485   2.293   0.236   3.091
 3514TIP3    H210486   2.312   0.234   3.241
 3515TIP3   OH210487   5.939   4.424   0.449
 3515TIP3    H110488   5.853   4.386   0.467
 3515TIP3    H210489   5.969   4.381   0.369
 3516TIP3   OH210490   2.324   1.120   0.042
 3516TIP3    H110491   2.245   1.126   0.095
 3516TIP3    H210492   2.373   1.200   0.062
 3517TIP3   OH210493   5.624   6.498   1.876
 3517TIP3    H110494   5.672   6.437   1.819
 3517TIP3    H210495   5.690   6.529   1.938
 3518TIP3   OH210496   7.109   6.605   5.183
 3518TIP3    H110497   7.167   6.650   5.244
 3518TIP3    H210498   7.039   6.569   5.238
 3519TIP3   OH210499   4.947   4.330   6.771
 3519TIP3    H110500   4.975   4.238   6.776
 3519TIP3    H210501   4.914   4.340   6.682
 3520TIP3   OH210502   7.809   4.435   1.891
 3520TIP3    H110503   7.783   4.356   1.938
 3520TIP3    H210504   7.774   4.507   1.942
 3521TIP3   OH210505   1.525   2.109   3.317
 3521TIP3    H110506   1.536   2.014   3.329
 3521TIP3    H210507   1.470   2.136   3.391
 3522TIP3   OH210508   5.333   3.268   0.866
 3522TIP3    H110509   5.358   3.349   0.821
 3522TIP3    H210510   5.373   3.277   0.953
 3523TIP3   OH210511   2.423   3.329   3.734
 3523TIP3    H110512   2.349   3.376   3.695
 3523TIP3    H210513   2.383   3.270   3.798
 3524TIP3   OH210514   6.021   0.681   3.967
 3524TIP3    H110515   6.040   0.715   3.879
 3524TIP3    H210516   6.027   0.586   3.958
 3525TIP3   OH210517   5.472   7.393   6.297
 3525TIP3    H110518   5.533   7.414   6.226
 3525TIP3    H210519   5.524   7.342   6.359
 3526TIP3   OH210520   0.334   1.745   2.379
 3526TIP3    H110521   0.390   1.675   2.411
 3526TIP3    H210522   0.313   1.720   2.289
 3527TIP3   OH210523   0.348   6.229   3.018
 3527TIP3    H110524   0.436   6.217   3.053
 3527TIP3    H210525   0.356   6.210   2.925
 3528TIP3   OH210526   1.233   4.689   3.781
 3528TIP3    H110527   1.220   4.759   3.717
 3528TIP3    H210528   1.246   4.610   3.728
 3529TIP3   OH210529   2.085   0.887   5.742
 3529TIP3    H110530   2.019   0.956   5.730
 3529TIP3    H210531   2.119   0.903   5.831
 3530TIP3   OH210532   4.700   0.425   0.912
 3530TIP3    H110533   4.626   0.476   0.943
 3530TIP3    H210534   4.777   0.474   0.941
 3531TIP3   OH210535   1.375   6.803   3.367
 3531TIP3    H110536   1.318   6.774   3.438
 3531TIP3    H210537   1.323   6.867   3.319
 3532TIP3   OH210538   5.846   7.740   5.194
 3532TIP3    H110539   5.882   7.807   5.135
 3532TIP3    H210540   5.774   7.700   5.144
 3533TIP3   OH210541   3.078   3.980   1.968
 3533TIP3    H110542   3.103   3.992   1.877
 3533TIP3    H210543   3.101   4.063   2.010
 3534TIP3   OH210544   2.590   6.272   0.794
 3534TIP3    H110545   2.529   6.246   0.864
 3534TIP3    H210546   2.646   6.337   0.835
 3535TIP3   OH210547   0.236   4.059   4.084
 3535TIP3    H110548   0.266   4.124   4.020
 3535TIP3    H210549   0.141   4.066   4.081
 3536TIP3   OH210550   0.119   7.133   0.805
 3536TIP3    H110551   0.148   7.199   0.742
 3536TIP3    H210552   0.200   7.104   0.847
 3537TIP3   OH210553   6.191   5.412   6.749
 3537TIP3    H110554   6.257   5.411   6.819
 3537TIP3    H210555   6.233   5.368   6.676
 3538TIP3   OH210556   3.367   5.664   5.889
 3538TIP3    H110557   3.462   5.663   5.900
 3538TIP3    H210558   3.333   5.689   5.975
 3539TIP3   OH210559   0.177   0.886   0.565
 3539TIP3    H110560   0.231   0.953   0.526
 3539TIP3    H210561   0.126   0.850   0.492
 3540TIP3   OH210562   6.160   4.261   4.219
 3540TIP3    H110563   6.132   4.244   4.309
 3540TIP3    H210564   6.104   4.204   4.166
 3541TIP3   OH210565   0.388   5.732   6.467
 3541TIP3    H110566   0.303   5.689   6.480
 3541TIP3    H210567   0.366   5.825   6.461
 3542TIP3   OH210568   6.102   2.271   1.354
 3542TIP3    H110569   6.082   2.353   1.308
 3542TIP3    H210570   6.018   2.228   1.363
 3543TIP3   OH210571   5.677   7.663   4.926
 3543TIP3    H110572   5.687   7.596   4.994
 3543TIP3    H210573   5.750   7.646   4.865
 3544TIP3   OH210574   1.369   7.025   5.504
 3544TIP3    H110575   1.378   6.973   5.425
 3544TIP3    H210576   1.315   6.972   5.562
 3545TIP3   OH210577   4.164   0.081   4.008
 3545TIP3    H110578   4.202   0.012   4.062
 3545TIP3    H210579   4.180   0.161   4.057
 3546TIP3   OH210580   3.267   1.435   2.133
 3546TIP3    H110581   3.351   1.393   2.155
 3546TIP3    H210582   3.223   1.445   2.217
 3547TIP3   OH210583   8.283   1.335   0.138
 3547TIP3    H110584   8.234   1.412   0.108
 3547TIP3    H210585   8.221   1.262   0.129
 3548TIP3   OH210586   3.025   7.788   2.499
 3548TIP3    H110587   3.064   7.701   2.487
 3548TIP3    H210588   2.943   7.784   2.451
 3549TIP3   OH210589   1.404   5.204   1.277
 3549TIP3    H110590   1.311   5.185   1.267
 3549TIP3    H210591   1.411   5.243   1.364
 3550TIP3   OH210592   3.858   2.258   5.233
 3550TIP3    H110593   3.885   2.282   5.321
 3550TIP3    H210594   3.790   2.322   5.209
 3551TIP3   OH210595   1.564   5.300   4.104
 3551TIP3    H110596   1.569   5.392   4.077
 3551TIP3    H210597   1.606   5.298   4.190
 3552TIP3   OH210598   7.778   1.197   6.745
 3552TIP3    H110599   7.721   1.265   6.779
 3552TIP3    H210600   7.841   1.244   6.690
 3553TIP3   OH210601   8.303   0.436   3.311
 3553TIP3    H110602   8.367   0.390   3.257
 3553TIP3    H210603   8.222   0.385   3.301
 3554TIP3   OH210604   3.494   4.130   6.666
 3554TIP3    H110605   3.494   4.167   6.755
 3554TIP3    H210606   3.485   4.036   6.679
 3555TIP3   OH210607   0.430   5.453   0.307
 3555TIP3    H110608   0.375   5.529   0.329
 3555TIP3    H210609   0.396   5.383   0.363
 3556TIP3   OH210610   0.702   5.154   5.299
 3556TIP3    H110611   0.652   5.232   5.322
 3556TIP3    H210612   0.775   5.154   5.361
 3557TIP3   OH210613   1.408   2.430   5.585
 3557TIP3    H110614   1.436   2.486   5.658
 3557TIP3    H210615   1.317   2.407   5.605
 3558TIP3   OH210616   3.229   6.638   6.226
 3558TIP3    H110617   3.136   6.615   6.223
 3558TIP3    H210618   3.233   6.726   6.189
 3559TIP3   OH210619   1.335   5.695   2.321
 3559TIP3    H110620   1.333   5.628   2.252
 3559TIP3    H210621   1.421   5.684   2.363
 3560TIP3   OH210622   5.255   6.481   3.030
 3560TIP3    H110623   5.275   6.389   3.046
 3560TIP3    H210624   5.238   6.517   3.117
 3561TIP3   OH210625   2.759   0.111   4.461
 3561TIP3    H110626   2.836   0.123   4.405
 3561TIP3    H210627   2.794   0.092   4.548
 3562TIP3   OH210628   7.343   4.369   0.589
 3562TIP3    H110629   7.438   4.376   0.583
 3562TIP3    H210630   7.323   4.285   0.548
 3563TIP3   OH210631   0.028   2.921   5.073
 3563TIP3    H110632   0.022   2.953   4.983
 3563TIP3    H210633   0.009   2.828   5.066
 3564TIP3   OH210634   4.447   6.052   5.234
 3564TIP3    H110635   4.539   6.053   5.261
 3564TIP3    H210636   4.429   5.960   5.212
 3565TIP3   OH210637   5.985   2.168   1.744
 3565TIP3    H110638   5.988   2.227   1.820
 3565TIP3    H210639   6.077   2.149   1.725
 3566TIP3   OH210640   3.730   7.509   0.410
 3566TIP3    H110641   3.771   7.497   0.324
 3566TIP3    H210642   3.800   7.544   0.465
 3567TIP3   OH210643   3.029   6.142   1.318
 3567TIP3    H110644   3.049   6.186   1.400
 3567TIP3    H210645   2.943   6.176   1.293
 3568TIP3   OH210646   3.994   2.907   3.575
 3568TIP3    H110647   4.002   2.822   3.620
 3568TIP3    H210648   4.042   2.968   3.631
 3569TIP3   OH210649   4.659   6.330   4.627
 3569TIP3    H110650   4.628   6.410   4.668
 3569TIP3    H210651   4.738   6.355   4.579
 3570TIP3   OH210652   6.275   3.115   0.709
 3570TIP3    H110653   6.272   3.127   0.614
 3570TIP3    H210654   6.222   3.186   0.744
 3571TIP3   OH210655   0.908   7.309   6.266
 3571TIP3    H110656   0.899   7.288   6.173
 3571TIP3    H210657   0.961   7.238   6.302
 3572TIP3   OH210658   5.430   4.932   4.393
 3572TIP3    H110659   5.523   4.920   4.411
 3572TIP3    H210660   5.410   5.020   4.425
 3573TIP3   OH210661   0.640   7.546   6.597
 3573TIP3    H110662   0.706   7.615   6.595
 3573TIP3    H210663   0.653   7.498   6.515
 3574TIP3   OH210664   2.373   1.192   5.703
 3574TIP3    H110665   2.314   1.234   5.766
 3574TIP3    H210666   2.389   1.259   5.637
 3575TIP3   OH210667   6.987   2.260   5.972
 3575TIP3    H110668   6.994   2.260   6.067
 3575TIP3    H210669   6.983   2.167   5.949
 3576TIP3   OH210670   1.024   2.841   0.235
 3576TIP3    H110671   1.070   2.765   0.200
 3576TIP3    H210672   0.937   2.837   0.197
 3577TIP3   OH210673   1.118   6.935   2.977
 3577TIP3    H110674   1.072   6.873   2.920
 3577TIP3    H210675   1.084   7.021   2.950
 3578TIP3   OH210676   1.492   6.090   4.107
 3578TIP3    H110677   1.416   6.100   4.051
 3578TIP3    H210678   1.458   6.051   4.188
 3579TIP3   OH210679   2.219   3.774   5.913
 3579TIP3    H110680   2.297   3.786   5.968
 3579TIP3    H210681   2.251   3.784   5.823
 3580TIP3   OH210682   4.785   2.062   0.860
 3580TIP3    H110683   4.779   2.143   0.911
 3580TIP3    H210684   4.832   2.001   0.916
 3581TIP3   OH210685   7.676   2.545   2.589
 3581TIP3    H110686   7.703   2.612   2.652
 3581TIP3    H210687   7.717   2.573   2.507
 3582TIP3   OH210688   6.496   0.027   1.453
 3582TIP3    H110689   6.524   0.118   1.462
 3582TIP3    H210690   6.446   0.009   1.532
 3583TIP3   OH210691   0.313   6.094   2.025
 3583TIP3    H110692   0.229   6.124   2.058
 3583TIP3    H210693   0.377   6.149   2.071
 3584TIP3   OH210694   1.150   5.862   3.273
 3584TIP3    H110695   1.108   5.944   3.301
 3584TIP3    H210696   1.175   5.819   3.355
 3585TIP3   OH210697   2.689   0.702   5.401
 3585TIP3    H110698   2.712   0.667   5.315
 3585TIP3    H210699   2.652   0.789   5.383
 3586TIP3   OH210700   6.245   4.163   6.483
 3586TIP3    H110701   6.201   4.176   6.399
 3586TIP3    H210702   6.297   4.084   6.472
 3587TIP3   OH210703   0.677   1.362   0.199
 3587TIP3    H110704   0.627   1.291   0.158
 3587TIP3    H210705   0.735   1.318   0.261
 3588TIP3   OH210706   4.724   3.846   3.404
 3588TIP3    H110707   4.637   3.818   3.376
 3588TIP3    H210708   4.777   3.844   3.324
 3589TIP3   OH210709   0.339   0.849   3.791
 3589TIP3    H110710   0.417   0.904   3.795
 3589TIP3    H210711   0.308   0.858   3.701
 3590TIP3   OH210712   4.996   6.609   0.465
 3590TIP3    H110713   5.026   6.572   0.382
 3590TIP3    H210714   4.911   6.567   0.481
 3591TIP3   OH210715   0.472   6.767   0.237
 3591TIP3    H110716   0.564   6.740   0.230
 3591TIP3    H210717   0.425   6.686   0.258
 3592TIP3   OH210718   2.092   7.669   1.645
 3592TIP3    H110719   2.121   7.731   1.712
 3592TIP3    H210720   2.069   7.590   1.694
 3593TIP3   OH210721   6.419   4.090   0.793
 3593TIP3    H110722   6.453   4.010   0.835
 3593TIP3    H210723   6.449   4.084   0.702
 3594TIP3   OH210724   3.850   6.117   6.141
 3594TIP3    H110725   3.757   6.098   6.155
 3594TIP3    H210726   3.894   6.032   6.153
 3595TIP3   OH210727   1.334   5.690   5.155
 3595TIP3    H110728   1.287   5.764   5.192
 3595TIP3    H210729   1.407   5.675   5.216
 3596TIP3   OH210730   7.219   7.531   0.261
 3596TIP3    H110731   7.204   7.520   0.167
 3596TIP3    H210732   7.142   7.491   0.302
 3597TIP3   OH210733   3.578   6.417   4.671
 3597TIP3    H110734   3.621   6.503   4.664
 3597TIP3    H210735   3.621   6.364   4.605
 3598TIP3   OH210736   0.708   5.202   5.649
 3598TIP3    H110737   0.740   5.198   5.739
 3598TIP3    H210738   0.771   5.149   5.599
 3599TIP3   OH210739   6.416   4.703   3.373
 3599TIP3    H110740   6.327   4.707   3.336
 3599TIP3    H210741   6.468   4.759   3.316
 3600TIP3   OH210742   2.633   5.255   0.056
 3600TIP3    H110743   2.722   5.237   0.087
 3600TIP3    H210744   2.584   5.176   0.078
 3601TIP3   OH210745   0.136   1.113   1.414
 3601TIP3    H110746   0.123   1.029   1.456
 3601TIP3    H210747   0.211   1.099   1.356
 3602TIP3   OH210748   6.138   3.549   4.303
 3602TIP3    H110749   6.219   3.516   4.341
 3602TIP3    H210750   6.119   3.490   4.230
 3603TIP3   OH210751   0.575   3.724   3.557
 3603TIP3    H110752   0.616   3.733   3.644
 3603TIP3    H210753   0.592   3.808   3.514
 3604TIP3   OH210754   2.611   5.488   0.199
 3604TIP3    H110755   2.684   5.534   0.157
 3604TIP3    H210756   2.613   5.400   0.160
 3605TIP3   OH210757   0.763   3.117   0.865
 3605TIP3    H110758   0.831   3.170   0.907
 3605TIP3    H210759   0.752   3.041   0.923
 3606TIP3   OH210760   2.218   2.080   0.530
 3606TIP3    H110761   2.170   2.008   0.570
 3606TIP3    H210762   2.308   2.070   0.563
 3607TIP3   OH210763   3.069   4.902   0.524
 3607TIP3    H110764   3.067   4.994   0.552
 3607TIP3    H210765   3.142   4.864   0.573
 3608TIP3   OH210766   6.872   6.757   4.813
 3608TIP3    H110767   6.876   6.736   4.907
 3608TIP3    H210768   6.963   6.765   4.786
 3609TIP3   OH210769   7.125   1.497   4.198
 3609TIP3    H110770   7.125   1.537   4.285
 3609TIP3    H210771   7.124   1.403   4.214
 3610TIP3   OH210772   3.348   3.941   2.948
 3610TIP3    H110773   3.342   3.879   3.020
 3610TIP3    H210774   3.393   4.017   2.985
 3611TIP3   OH210775   0.666   4.539   1.035
 3611TIP3    H110776   0.732   4.501   1.093
 3611TIP3    H210777   0.657   4.476   0.964
 3612TIP3   OH210778   4.276   7.217   0.043
 3612TIP3    H110779   4.357   7.238  -0.003
 3612TIP3    H210780   4.217   7.185  -0.025
 3613TIP3   OH210781   6.896   3.081   3.452
 3613TIP3    H110782   6.888   3.087   3.547
 3613TIP3    H210783   6.893   3.172   3.422
 3614TIP3   OH210784   7.597   4.546   6.743
 3614TIP3    H110785   7.663   4.480   6.722
 3614TIP3    H210786   7.516   4.497   6.755
 3615TIP3   OH210787   5.684   2.418   5.771
 3615TIP3    H110788   5.669   2.501   5.816
 3615TIP3    H210789   5.777   2.400   5.782
 3616TIP3   OH210790   2.077   7.054   4.143
 3616TIP3    H110791   2.112   7.030   4.229
 3616TIP3    H210792   2.137   7.014   4.080
 3617TIP3   OH210793   5.476   1.720   2.786
 3617TIP3    H110794   5.396   1.709   2.837
 3617TIP3    H210795   5.498   1.813   2.795
 3618TIP3   OH210796   7.023   1.370   5.254
 3618TIP3    H110797   7.073   1.401   5.179
 3618TIP3    H210798   7.086   1.371   5.327
 3619TIP3   OH210799   3.961   6.416   0.530
 3619TIP3    H110800   4.053   6.395   0.511
 3619TIP3    H210801   3.930   6.459   0.450
 3620TIP3   OH210802   8.013   6.659   2.896
 3620TIP3    H110803   7.993   6.585   2.839
 3620TIP3    H210804   7.999   6.736   2.842
 3621TIP3   OH210805   3.885   3.064   5.105
 3621TIP3    H110806   3.846   3.071   5.193
 3621TIP3    H210807   3.905   3.155   5.081
 3622TIP3   OH210808   0.560   4.615   2.681
 3622TIP3    H110809   0.598   4.538   2.639
 3622TIP3    H210810   0.466   4.598   2.684
 3623TIP3   OH210811   2.041   4.253   4.159
 3623TIP3    H110812   2.134   4.271   4.147
 3623TIP3    H210813   2.004   4.338   4.184
 3624TIP3   OH210814   2.918   6.763   5.627
 3624TIP3    H110815   2.972   6.744   5.704
 3624TIP3    H210816   2.975   6.742   5.552
 3625TIP3   OH210817   5.187   6.388   4.374
 3625TIP3    H110818   5.197   6.399   4.280
 3625TIP3    H210819   5.166   6.296   4.386
 3626TIP3   OH210820   3.643   2.113   1.555
 3626TIP3    H110821   3.645   2.076   1.643
 3626TIP3    H210822   3.559   2.159   1.551
 3627TIP3   OH210823   5.526   3.312   1.867
 3627TIP3    H110824   5.610   3.347   1.897
 3627TIP3    H210825   5.467   3.322   1.942
 3628TIP3   OH210826   2.321   0.784   2.451
 3628TIP3    H110827   2.400   0.744   2.488
 3628TIP3    H210828   2.277   0.713   2.404
 3629TIP3   OH210829   0.321   3.331   1.311
 3629TIP3    H110830   0.317   3.416   1.266
 3629TIP3    H210831   0.272   3.345   1.392
 3630TIP3   OH210832   1.998   5.734   4.439
 3630TIP3    H110833   1.986   5.810   4.382
 3630TIP3    H210834   2.090   5.737   4.465
 3631TIP3   OH210835   1.871   6.208   6.335
 3631TIP3    H110836   1.934   6.239   6.400
 3631TIP3    H210837   1.917   6.213   6.252
 3632TIP3   OH210838   1.420   1.605   3.284
 3632TIP3    H110839   1.385   1.588   3.196
 3632TIP3    H210840   1.344   1.631   3.336
 3633TIP3   OH210841   5.374   3.892   3.346
 3633TIP3    H110842   5.328   3.925   3.269
 3633TIP3    H210843   5.306   3.851   3.399
 3634TIP3   OH210844   0.167   4.199   2.069
 3634TIP3    H110845   0.099   4.132   2.079
 3634TIP3    H210846   0.150   4.262   2.138
 3635TIP3   OH210847   2.819   5.701   2.144
 3635TIP3    H110848   2.890   5.764   2.131
 3635TIP3    H210849   2.844   5.654   2.224
 3636TIP3   OH210850   5.439   4.223   2.572
 3636TIP3    H110851   5.456   4.314   2.549
 3636TIP3    H210852   5.345   4.219   2.591
 3637TIP3   OH210853   4.631   1.862   0.386
 3637TIP3    H110854   4.677   1.840   0.467
 3637TIP3    H210855   4.681   1.817   0.318
 3638TIP3   OH210856   5.828   4.410   4.955
 3638TIP3    H110857   5.761   4.389   5.020
 3638TIP3    H210858   5.790   4.482   4.904
 3639TIP3   OH210859   5.675   3.110   3.016
 3639TIP3    H110860   5.700   3.019   3.033
 3639TIP3    H210861   5.619   3.133   3.091
 3640TIP3   OH210862   7.826   1.951   1.014
 3640TIP3    H110863   7.863   2.005   0.944
 3640TIP3    H210864   7.775   2.012   1.067
 3641TIP3   OH210865   7.526   4.739   2.684
 3641TIP3    H110866   7.511   4.650   2.716
 3641TIP3    H210867   7.533   4.792   2.764
 3642TIP3   OH210868   6.796   1.258   3.291
 3642TIP3    H110869   6.826   1.213   3.370
 3642TIP3    H210870   6.712   1.296   3.316
 3643TIP3   OH210871   6.278   0.105   3.785
 3643TIP3    H110872   6.369   0.099   3.758
 3643TIP3    H210873   6.228   0.071   3.710
 3644TIP3   OH210874   7.383   5.031   5.355
 3644TIP3    H110875   7.474   5.062   5.352
 3644TIP3    H210876   7.390   4.936   5.345
 3645TIP3   OH210877   0.364   6.961   4.478
 3645TIP3    H110878   0.367   6.925   4.567
 3645TIP3    H210879   0.428   6.909   4.430
 3646TIP3   OH210880   0.107   3.247   4.601
 3646TIP3    H110881   0.141   3.174   4.549
 3646TIP3    H210882   0.160   3.247   4.680
 3647TIP3   OH210883   2.261   6.972   0.634
 3647TIP3    H110884   2.312   6.892   0.648
 3647TIP3    H210885   2.325   7.043   0.639
 3648TIP3   OH210886   0.455   2.230   5.263
 3648TIP3    H110887   0.548   2.225   5.287
 3648TIP3    H210888   0.409   2.232   5.346
 3649TIP3   OH210889   6.562   2.653   1.121
 3649TIP3    H110890   6.558   2.698   1.037
 3649TIP3    H210891   6.477   2.610   1.129
 3650TIP3   OH210892   6.445   0.128   3.375
 3650TIP3    H110893   6.460   0.118   3.469
 3650TIP3    H210894   6.456   0.222   3.360
 3651TIP3   OH210895   7.243   1.430   5.077
 3651TIP3    H110896   7.258   1.519   5.047
 3651TIP3    H210897   7.279   1.375   5.007
 3652TIP3   OH210898   4.490   3.377   0.167
 3652TIP3    H110899   4.511   3.316   0.238
 3652TIP3    H210900   4.413   3.338   0.125
 3653TIP3   OH210901   7.921   6.671   1.710
 3653TIP3    H110902   7.923   6.758   1.670
 3653TIP3    H210903   8.013   6.645   1.715
 3654TIP3   OH210904   0.495   1.556   2.683
 3654TIP3    H110905   0.471   1.628   2.742
 3654TIP3    H210906   0.431   1.488   2.700
 3655TIP3   OH210907   2.064   0.649   1.658
 3655TIP3    H110908   2.159   0.638   1.667
 3655TIP3    H210909   2.032   0.564   1.629
 3656TIP3   OH210910   7.686   5.576   6.684
 3656TIP3    H110911   7.704   5.489   6.650
 3656TIP3    H210912   7.730   5.579   6.768
 3657TIP3   OH210913   2.476   0.642   6.442
 3657TIP3    H110914   2.489   0.562   6.391
 3657TIP3    H210915   2.557   0.691   6.432
 3658TIP3   OH210916   4.539   4.187   2.583
 3658TIP3    H110917   4.457   4.146   2.557
 3658TIP3    H210918   4.604   4.116   2.580
 3659TIP3   OH210919   5.596   4.892   4.694
 3659TIP3    H110920   5.509   4.932   4.685
 3659TIP3    H210921   5.649   4.957   4.740
 3660TIP3   OH210922   0.783   1.101   2.774
 3660TIP3    H110923   0.821   1.019   2.805
 3660TIP3    H210924   0.829   1.169   2.823
 3661TIP3   OH210925   2.283   0.699   0.296
 3661TIP3    H110926   2.211   0.636   0.296
 3661TIP3    H210927   2.288   0.729   0.205
 3662TIP3   OH210928   0.825   6.853   3.224
 3662TIP3    H110929   0.847   6.896   3.141
 3662TIP3    H210930   0.745   6.805   3.206
 3663TIP3   OH210931   5.956   3.462   4.025
 3663TIP3    H110932   6.006   3.538   3.997
 3663TIP3    H210933   5.879   3.461   3.968
 3664TIP3   OH210934   0.329   6.773   0.652
 3664TIP3    H110935   0.392   6.832   0.694
 3664TIP3    H210936   0.300   6.715   0.722
 3665TIP3   OH210937   0.912   7.265   2.433
 3665TIP3    H110938   0.975   7.283   2.363
 3665TIP3    H210939   0.954   7.198   2.486
 3666TIP3   OH210940   0.706   5.426   4.597
 3666TIP3    H110941   0.788   5.386   4.627
 3666TIP3    H210942   0.647   5.419   4.672
 3667TIP3   OH210943   0.207   3.070   2.256
 3667TIP3    H110944   0.240   3.040   2.341
 3667TIP3    H210945   0.279   3.122   2.219
 3668TIP3   OH210946   5.510   4.404   2.219
 3668TIP3    H110947   5.483   4.323   2.175
 3668TIP3    H210948   5.602   4.390   2.242
 3669TIP3   OH210949   2.874   4.447   4.875
 3669TIP3    H110950   2.931   4.417   4.945
 3669TIP3    H210951   2.854   4.537   4.897
 3670TIP3   OH210952   1.314   5.748   0.997
 3670TIP3    H110953   1.291   5.740   0.904
 3670TIP3    H210954   1.241   5.797   1.035
 3671TIP3   OH210955   5.789   4.205   6.505
 3671TIP3    H110956   5.846   4.281   6.514
 3671TIP3    H210957   5.741   4.220   6.423
 3672TIP3   OH210958   6.000   0.935   4.445
 3672TIP3    H110959   5.999   0.896   4.358
 3672TIP3    H210960   6.061   0.882   4.495
 3673TIP3   OH210961   2.967   4.432   5.934
 3673TIP3    H110962   3.002   4.370   5.998
 3673TIP3    H210963   3.019   4.418   5.855
 3674TIP3   OH210964   5.443   3.931   6.753
 3674TIP3    H110965   5.484   3.872   6.691
 3674TIP3    H210966   5.486   3.912   6.837
 3675TIP3   OH210967   7.125   4.816   4.127
 3675TIP3    H110968   7.170   4.893   4.163
 3675TIP3    H210969   7.113   4.837   4.035
 3676TIP3   OH210970   5.052   2.339   2.873
 3676TIP3    H110971   5.140   2.310   2.898
 3676TIP3    H210972   5.047   2.321   2.779
 3677TIP3   OH210973   6.214   3.417   1.119
 3677TIP3    H110974   6.126   3.412   1.081
 3677TIP3    H210975   6.217   3.504   1.159
 3678TIP3   OH210976   2.808   0.132   0.460
 3678TIP3    H110977   2.738   0.072   0.485
 3678TIP3    H210978   2.886   0.097   0.503
 3679TIP3   OH210979   2.678   5.844   6.002
 3679TIP3    H110980   2.645   5.924   6.043
 3679TIP3    H210981   2.773   5.858   5.995
 3680TIP3   OH210982   2.874   5.576   4.182
 3680TIP3    H110983   2.949   5.553   4.127
 3680TIP3    H210984   2.881   5.671   4.194
 3681TIP3   OH210985   5.814   1.922   1.206
 3681TIP3    H110986   5.852   2.003   1.170
 3681TIP3    H210987   5.879   1.891   1.269
 3682TIP3   OH210988   1.545   5.150   0.213
 3682TIP3    H110989   1.629   5.139   0.168
 3682TIP3    H210990   1.489   5.082   0.176
 3683TIP3   OH210991   6.769   1.200   4.209
 3683TIP3    H110992   6.760   1.137   4.137
 3683TIP3    H210993   6.815   1.274   4.170
 3684TIP3   OH210994   6.472   3.546   0.342
 3684TIP3    H110995   6.416   3.518   0.270
 3684TIP3    H210996   6.486   3.466   0.394
 3685TIP3   OH210997   5.349   2.760   2.183
 3685TIP3    H110998   5.436   2.780   2.219
 3685TIP3    H210999   5.352   2.796   2.094
 3686TIP3   OH211000   5.880   4.716   1.598
 3686TIP3    H111001   5.893   4.668   1.680
 3686TIP3    H211002   5.965   4.756   1.580
 3687TIP3   OH211003   3.326   6.202   1.294
 3687TIP3    H111004   3.239   6.196   1.333
 3687TIP3    H211005   3.371   6.269   1.344
 3688TIP3   OH211006   3.727   5.285   5.302
 3688TIP3    H111007   3.665   5.218   5.332
 3688TIP3    H211008   3.795   5.236   5.257
 3689TIP3   OH211009   6.976   6.880   3.832
 3689TIP3    H111010   7.017   6.916   3.911
 3689TIP3    H211011   6.905   6.941   3.812
 3690TIP3   OH211012   7.378   5.483   1.477
 3690TIP3    H111013   7.413   5.394   1.466
 3690TIP3    H211014   7.388   5.523   1.391
 3691TIP3   OH211015   5.101   2.419   0.961
 3691TIP3    H111016   5.086   2.377   0.877
 3691TIP3    H211017   5.115   2.511   0.940
 3692TIP3   OH211018   1.677   1.489   2.843
 3692TIP3    H111019   1.762   1.483   2.799
 3692TIP3    H211020   1.647   1.399   2.852
 3693TIP3   OH211021   2.897   1.197   4.870
 3693TIP3    H111022   2.925   1.145   4.795
 3693TIP3    H211023   2.814   1.158   4.897
 3694TIP3   OH211024   3.276   5.159   0.523
 3694TIP3    H111025   3.292   5.072   0.559
 3694TIP3    H211026   3.350   5.212   0.553
 3695TIP3   OH211027   2.200   5.244   1.690
 3695TIP3    H111028   2.129   5.291   1.647
 3695TIP3    H211029   2.160   5.162   1.721
 3696TIP3   OH211030   0.867   6.355   1.769
 3696TIP3    H111031   0.912   6.413   1.830
 3696TIP3    H211032   0.876   6.398   1.684
 3697TIP3   OH211033   8.195   5.624   1.067
 3697TIP3    H111034   8.269   5.684   1.067
 3697TIP3    H211035   8.229   5.544   1.027
 3698TIP3   OH211036   3.496   3.439   1.276
 3698TIP3    H111037   3.548   3.407   1.349
 3698TIP3    H211038   3.552   3.503   1.232
 3699TIP3   OH211039   6.136   6.497   6.731
 3699TIP3    H111040   6.113   6.466   6.818
 3699TIP3    H211041   6.138   6.593   6.739
 3700TIP3   OH211042   2.396   0.413   2.549
 3700TIP3    H111043   2.446   0.378   2.475
 3700TIP3    H211044   2.369   0.336   2.599
 3701TIP3   OH211045   7.204   4.289   0.813
 3701TIP3    H111046   7.272   4.319   0.753
 3701TIP3    H211047   7.147   4.235   0.759
 3702TIP3   OH211048   6.852   4.597   3.038
 3702TIP3    H111049   6.874   4.544   3.114
 3702TIP3    H211050   6.936   4.617   2.997
 3703TIP3   OH211051   4.458   2.531   2.614
 3703TIP3    H111052   4.467   2.620   2.582
 3703TIP3    H211053   4.493   2.534   2.704
 3704TIP3   OH211054   2.751   0.152   5.519
 3704TIP3    H111055   2.774   0.059   5.514
 3704TIP3    H211056   2.736   0.178   5.428
 3705TIP3   OH211057   4.330   4.949   2.333
 3705TIP3    H111058   4.286   5.021   2.289
 3705TIP3    H211059   4.359   4.891   2.262
 3706TIP3   OH211060   0.228   3.635   6.515
 3706TIP3    H111061   0.282   3.712   6.531
 3706TIP3    H211062   0.202   3.643   6.423
 3707TIP3   OH211063   3.138   5.680   0.737
 3707TIP3    H111064   3.185   5.717   0.813
 3707TIP3    H211065   3.048   5.711   0.747
 3708TIP3   OH211066   3.422   3.127   1.148
 3708TIP3    H111067   3.353   3.177   1.106
 3708TIP3    H211068   3.502   3.154   1.104
 3709TIP3   OH211069   4.698   3.420   5.934
 3709TIP3    H111070   4.765   3.450   5.873
 3709TIP3    H211071   4.636   3.371   5.880
 3710TIP3   OH211072   1.103   3.848   4.995
 3710TIP3    H111073   1.171   3.906   4.960
 3710TIP3    H211074   1.021   3.896   4.980
 3711TIP3   OH211075   1.516   1.609   4.887
 3711TIP3    H111076   1.605   1.642   4.874
 3711TIP3    H211077   1.503   1.545   4.817
 3712TIP3   OH211078   3.276   7.545   1.965
 3712TIP3    H111079   3.262   7.504   1.880
 3712TIP3    H211080   3.355   7.503   2.000
 3713TIP3   OH211081   0.394   2.033   2.362
 3713TIP3    H111082   0.317   2.062   2.411
 3713TIP3    H211083   0.452   1.994   2.428
 3714TIP3   OH211084   8.248   6.404   5.486
 3714TIP3    H111085   8.228   6.344   5.415
 3714TIP3    H211086   8.238   6.352   5.565
 3715TIP3   OH211087   5.252   3.842   3.835
 3715TIP3    H111088   5.211   3.781   3.773
 3715TIP3    H211089   5.184   3.859   3.900
 3716TIP3   OH211090   6.515   0.163   3.634
 3716TIP3    H111091   6.502   0.255   3.656
 3716TIP3    H211092   6.584   0.134   3.694
 3717TIP3   OH211093   1.213   4.586   5.583
 3717TIP3    H111094   1.172   4.509   5.622
 3717TIP3    H211095   1.215   4.650   5.654
 3718TIP3   OH211096   5.681   6.733   3.074
 3718TIP3    H111097   5.717   6.819   3.053
 3718TIP3    H211098   5.724   6.708   3.156
 3719TIP3   OH211099   4.209   7.011   5.311
 3719TIP3    H111100   4.156   7.066   5.253
 3719TIP3    H211101   4.214   6.927   5.266
 3720TIP3   OH211102   2.557   2.794   1.961
 3720TIP3    H111103   2.495   2.773   1.891
 3720TIP3    H211104   2.635   2.743   1.939
 3721TIP3   OH211105   4.062   4.957   6.149
 3721TIP3    H111106   4.106   5.018   6.208
 3721TIP3    H211107   4.052   4.877   6.200
 3722TIP3   OH211108   6.365   5.393   2.440
 3722TIP3    H111109   6.334   5.482   2.422
 3722TIP3    H211110   6.322   5.370   2.523
 3723TIP3   OH211111   6.554   6.099   5.404
 3723TIP3    H111112   6.582   6.011   5.379
 3723TIP3    H211113   6.488   6.085   5.471
 3724TIP3   OH211114   6.431   3.925   4.745
 3724TIP3    H111115   6.393   3.953   4.661
 3724TIP3    H211116   6.367   3.864   4.781
 3725TIP3   OH211117   1.575   3.999   0.025
 3725TIP3    H111118   1.641   4.068   0.027
 3725TIP3    H211119   1.494   4.044  -0.001
 3726TIP3   OH211120   8.019   7.796   2.839
 3726TIP3    H111121   7.948   7.856   2.817
 3726TIP3    H211122   8.097   7.850   2.841
 3727TIP3   OH211123   5.132   5.567   5.655
 3727TIP3    H111124   5.051   5.525   5.627
 3727TIP3    H211125   5.145   5.537   5.745
 3728TIP3   OH211126   0.699   6.706   1.748
 3728TIP3    H111127   0.762   6.649   1.704
 3728TIP3    H211128   0.624   6.649   1.768
 3729TIP3   OH211129   7.379   1.388   4.681
 3729TIP3    H111130   7.285   1.371   4.683
 3729TIP3    H211131   7.417   1.315   4.729
 3730TIP3   OH211132   5.114   3.580   4.792
 3730TIP3    H111133   5.201   3.543   4.775
 3730TIP3    H211134   5.105   3.579   4.887
 3731TIP3   OH211135   0.352   4.808   3.528
 3731TIP3    H111136   0.378   4.881   3.584
 3731TIP3    H211137   0.423   4.800   3.464
 3732TIP3   OH211138   2.794   7.777   2.329
 3732TIP3    H111139   2.730   7.847   2.324
 3732TIP3    H211140   2.787   7.731   2.246
 3733TIP3   OH211141   2.646   3.702   3.042
 3733TIP3    H111142   2.629   3.608   3.056
 3733TIP3    H211143   2.666   3.709   2.949
 3734TIP3   OH211144   2.557   0.857   1.742
 3734TIP3    H111145   2.489   0.813   1.691
 3734TIP3    H211146   2.630   0.795   1.743
 3735TIP3   OH211147   7.698   5.447   0.148
 3735TIP3    H111148   7.719   5.366   0.195
 3735TIP3    H211149   7.626   5.423   0.090
 3736TIP3   OH211150   3.419   6.602   2.614
 3736TIP3    H111151   3.495   6.655   2.638
 3736TIP3    H211152   3.375   6.583   2.697
 3737TIP3   OH211153   5.915   5.433   1.124
 3737TIP3    H111154   5.971   5.405   1.197
 3737TIP3    H211155   5.891   5.523   1.146
 3738TIP3   OH211156   7.393   7.350   6.702
 3738TIP3    H111157   7.353   7.335   6.788
 3738TIP3    H211158   7.486   7.362   6.721
 3739TIP3   OH211159   2.260   3.724   6.315
 3739TIP3    H111160   2.280   3.789   6.383
 3739TIP3    H211161   2.317   3.749   6.242
 3740TIP3   OH211162   1.029   5.499   3.045
 3740TIP3    H111163   1.035   5.557   2.970
 3740TIP3    H211164   1.007   5.556   3.119
 3741TIP3   OH211165   5.665   3.451   0.474
 3741TIP3    H111166   5.757   3.453   0.446
 3741TIP3    H211167   5.667   3.475   0.566
 3742TIP3   OH211168   4.216   6.570   2.893
 3742TIP3    H111169   4.214   6.664   2.907
 3742TIP3    H211170   4.159   6.555   2.818
 3743TIP3   OH211171   2.258   7.676   4.507
 3743TIP3    H111172   2.168   7.644   4.512
 3743TIP3    H211173   2.298   7.626   4.436
 3744TIP3   OH211174   7.265   4.356   1.134
 3744TIP3    H111175   7.307   4.441   1.121
 3744TIP3    H211176   7.191   4.375   1.191
 3745TIP3   OH211177   3.615   2.272   0.968
 3745TIP3    H111178   3.684   2.320   0.923
 3745TIP3    H211179   3.591   2.202   0.906
 3746TIP3   OH211180   6.419   5.129   0.075
 3746TIP3    H111181   6.335   5.142   0.031
 3746TIP3    H211182   6.481   5.179   0.022
 3747TIP3   OH211183   6.414   5.080   6.655
 3747TIP3    H111184   6.368   5.013   6.705
 3747TIP3    H211185   6.358   5.097   6.579
 3748TIP3   OH211186   0.002   6.951   6.082
 3748TIP3    H111187   0.090   6.914   6.090
 3748TIP3    H211188  -0.041   6.897   6.016
 3749TIP3   OH211189   6.582   2.167   2.364
 3749TIP3    H111190   6.594   2.192   2.273
 3749TIP3    H211191   6.586   2.249   2.413
 3750TIP3   OH211192   7.433   0.280   1.407
 3750TIP3    H111193   7.351   0.328   1.395
 3750TIP3    H211194   7.487   0.306   1.332
 3751TIP3   OH211195   7.860   2.907   5.726
 3751TIP3    H111196   7.953   2.909   5.749
 3751TIP3    H211197   7.859   2.902   5.631
 3752TIP3   OH211198   1.894   4.916   3.586
 3752TIP3    H111199   1.934   4.917   3.673
 3752TIP3    H211200   1.966   4.935   3.526
 3753TIP3   OH211201   8.168   1.112   6.339
 3753TIP3    H111202   8.250   1.063   6.339
 3753TIP3    H211203   8.100   1.046   6.325
 3754TIP3   OH211204   4.184   6.130   4.137
 3754TIP3    H111205   4.203   6.192   4.067
 3754TIP3    H211206   4.092   6.108   4.126
 3755TIP3   OH211207   0.407   0.597   2.393
 3755TIP3    H111208   0.424   0.512   2.353
 3755TIP3    H211209   0.390   0.578   2.485
 3756TIP3   OH211210   1.316   4.813   5.277
 3756TIP3    H111211   1.239   4.756   5.274
 3756TIP3    H211212   1.307   4.869   5.200
 3757TIP3   OH211213   2.126   5.745   2.584
 3757TIP3    H111214   2.032   5.737   2.602
 3757TIP3    H211215   2.131   5.773   2.493
 3758TIP3   OH211216   4.027   3.787   3.674
 3758TIP3    H111217   3.965   3.730   3.628
 3758TIP3    H211218   3.999   3.783   3.766
 3759TIP3   OH211219   0.092   0.027   3.257
 3759TIP3    H111220   0.156   0.034   3.186
 3759TIP3    H211221   0.010   0.004   3.213
 3760TIP3   OH211222   6.428   2.623   2.694
 3760TIP3    H111223   6.416   2.569   2.772
 3760TIP3    H211224   6.354   2.599   2.637
 3761TIP3   OH211225   3.821   4.281   5.106
 3761TIP3    H111226   3.903   4.258   5.149
 3761TIP3    H211227   3.764   4.205   5.120
 3762TIP3   OH211228   0.697   0.290   1.262
 3762TIP3    H111229   0.651   0.221   1.309
 3762TIP3    H211230   0.696   0.260   1.171
 3763TIP3   OH211231   4.370   7.137   2.659
 3763TIP3    H111232   4.349   7.045   2.670
 3763TIP3    H211233   4.415   7.142   2.575
 3764TIP3   OH211234   7.397   6.725   3.595
 3764TIP3    H111235   7.460   6.792   3.568
 3764TIP3    H211236   7.315   6.772   3.608
 3765TIP3   OH211237   2.590   2.982   3.909
 3765TIP3    H111238   2.658   2.929   3.951
 3765TIP3    H211239   2.627   3.003   3.823
 3766TIP3   OH211240   1.994   5.947   6.198
 3766TIP3    H111241   2.018   5.854   6.196
 3766TIP3    H211242   2.048   5.984   6.267
 3767TIP3   OH211243   7.326   4.141   0.436
 3767TIP3    H111244   7.349   4.057   0.475
 3767TIP3    H211245   7.261   4.120   0.369
 3768TIP3   OH211246   5.617   1.683   5.311
 3768TIP3    H111247   5.706   1.657   5.289
 3768TIP3    H211248   5.578   1.605   5.350
 3769TIP3   OH211249   1.207   1.282   4.077
 3769TIP3    H111250   1.192   1.375   4.058
 3769TIP3    H211251   1.119   1.243   4.076
 3770TIP3   OH211252   2.796   7.432   0.277
 3770TIP3    H111253   2.809   7.478   0.360
 3770TIP3    H211254   2.730   7.484   0.231
 3771TIP3   OH211255   1.845   2.778   1.805
 3771TIP3    H111256   1.855   2.789   1.710
 3771TIP3    H211257   1.904   2.843   1.843
 3772TIP3   OH211258   5.963   7.687   0.072
 3772TIP3    H111259   5.967   7.760   0.134
 3772TIP3    H211260   5.938   7.729  -0.011
 3773TIP3   OH211261   7.986   6.618   4.690
 3773TIP3    H111262   8.033   6.536   4.706
 3773TIP3    H211263   7.946   6.640   4.774
 3774TIP3   OH211264   0.841   0.140   3.020
 3774TIP3    H111265   0.846   0.228   2.984
 3774TIP3    H211266   0.894   0.143   3.099
 3775TIP3   OH211267   7.259   0.987   2.517
 3775TIP3    H111268   7.269   0.905   2.469
 3775TIP3    H211269   7.172   1.020   2.491
 3776TIP3   OH211270   1.663   2.368   0.389
 3776TIP3    H111271   1.596   2.372   0.321
 3776TIP3    H211272   1.624   2.413   0.464
 3777TIP3   OH211273   2.609   4.502   0.207
 3777TIP3    H111274   2.691   4.544   0.179
 3777TIP3    H211275   2.565   4.479   0.125
 3778TIP3   OH211276   0.875   2.677   3.919
 3778TIP3    H111277   0.883   2.683   4.014
 3778TIP3    H211278   0.871   2.768   3.889
 3779TIP3   OH211279   0.218   5.892   5.461
 3779TIP3    H111280   0.277   5.899   5.536
 3779TIP3    H211281   0.200   5.983   5.436
 3780TIP3   OH211282   7.795   6.804   0.046
 3780TIP3    H111283   7.709   6.844   0.035
 3780TIP3    H211284   7.799   6.778   0.138
 3781TIP3   OH211285   5.482   3.076   0.348
 3781TIP3    H111286   5.506   3.093   0.439
 3781TIP3    H211287   5.509   3.155   0.301
 3782TIP3   OH211288   5.157   1.822   3.944
 3782TIP3    H111289   5.085   1.758   3.946
 3782TIP3    H211290   5.230   1.777   3.986
 3783TIP3   OH211291   7.821   7.243   3.881
 3783TIP3    H111292   7.905   7.251   3.835
 3783TIP3    H211293   7.817   7.320   3.937
 3784TIP3   OH211294   8.291   5.783   1.376
 3784TIP3    H111295   8.304   5.761   1.468
 3784TIP3    H211296   8.227   5.854   1.377
 3785TIP3   OH211297   5.379   0.442   1.557
 3785TIP3    H111298   5.333   0.391   1.624
 3785TIP3    H211299   5.438   0.379   1.515
 3786TIP3   OH211300   2.116   0.082   5.621
 3786TIP3    H111301   2.074   0.109   5.540
 3786TIP3    H211302   2.192   0.139   5.630
 3787TIP3   OH211303   7.599   0.581   5.774
 3787TIP3    H111304   7.601   0.619   5.862
 3787TIP3    H211305   7.535   0.635   5.727
 3788TIP3   OH211306   0.661   2.636   6.493
 3788TIP3    H111307   0.599   2.601   6.557
 3788TIP3    H211308   0.619   2.714   6.458
 3789TIP3   OH211309   2.490   2.735   1.503
 3789TIP3    H111310   2.455   2.712   1.416
 3789TIP3    H211311   2.583   2.752   1.487
 3790TIP3   OH211312   7.791   2.395   0.456
 3790TIP3    H111313   7.881   2.403   0.425
 3790TIP3    H211314   7.786   2.305   0.491
 3791TIP3   OH211315   5.576   2.471   2.367
 3791TIP3    H111316   5.536   2.557   2.374
 3791TIP3    H211317   5.526   2.426   2.299
 3792TIP3   OH211318   3.470   4.864   2.264
 3792TIP3    H111319   3.498   4.773   2.249
 3792TIP3    H211320   3.442   4.865   2.355
 3793TIP3   OH211321   0.294   3.213   3.047
 3793TIP3    H111322   0.289   3.231   2.953
 3793TIP3    H211323   0.383   3.239   3.071
 3794TIP3   OH211324   0.542   0.919   6.775
 3794TIP3    H111325   0.545   0.989   6.710
 3794TIP3    H211326   0.634   0.904   6.799
 3795TIP3   OH211327   4.744   3.392   1.694
 3795TIP3    H111328   4.740   3.300   1.665
 3795TIP3    H211329   4.837   3.408   1.708
 3796TIP3   OH211330   5.526   5.432   1.737
 3796TIP3    H111331   5.578   5.423   1.657
 3796TIP3    H211332   5.590   5.443   1.807
 3797TIP3   OH211333   0.263   1.916   6.718
 3797TIP3    H111334   0.351   1.883   6.696
 3797TIP3    H211335   0.274   1.959   6.803
 3798TIP3   OH211336   3.298   6.588   4.585
 3798TIP3    H111337   3.389   6.601   4.613
 3798TIP3    H211338   3.283   6.495   4.596
 3799TIP3   OH211339   5.287   2.907   1.121
 3799TIP3    H111340   5.361   2.854   1.150
 3799TIP3    H211341   5.315   2.945   1.038
 3800TIP3   OH211342   3.895   6.399   1.114
 3800TIP3    H111343   3.855   6.317   1.083
 3800TIP3    H211344   3.962   6.370   1.176
 3801TIP3   OH211345   6.666   4.536   3.437
 3801TIP3    H111346   6.640   4.508   3.525
 3801TIP3    H211347   6.584   4.560   3.394
 3802TIP3   OH211348   7.499   1.234   4.951
 3802TIP3    H111349   7.584   1.277   4.963
 3802TIP3    H211350   7.465   1.223   5.040
 3803TIP3   OH211351   3.475   4.655   0.581
 3803TIP3    H111352   3.407   4.606   0.535
 3803TIP3    H211353   3.501   4.598   0.653
 3804TIP3   OH211354   2.671   3.552   5.560
 3804TIP3    H111355   2.584   3.592   5.551
 3804TIP3    H211356   2.665   3.470   5.510
 3805TIP3   OH211357   6.031   1.591   3.110
 3805TIP3    H111358   6.061   1.564   3.197
 3805TIP3    H211359   6.007   1.509   3.067
 3806TIP3   OH211360   0.829   4.734   6.601
 3806TIP3    H111361   0.871   4.648   6.594
 3806TIP3    H211362   0.807   4.758   6.511
 3807TIP3   OH211363   5.420   7.250   3.872
 3807TIP3    H111364   5.462   7.165   3.857
 3807TIP3    H211365   5.492   7.308   3.899
 3808TIP3   OH211366   4.567   5.237   1.285
 3808TIP3    H111367   4.621   5.245   1.364
 3808TIP3    H211368   4.544   5.144   1.281
 3809TIP3   OH211369   4.322   1.049   1.140
 3809TIP3    H111370   4.285   0.999   1.067
 3809TIP3    H211371   4.245   1.081   1.188
 3810TIP3   OH211372   1.940   2.502   4.298
 3810TIP3    H111373   1.988   2.420   4.306
 3810TIP3    H211374   1.853   2.477   4.269
 3811TIP3   OH211375   1.239   3.560   5.970
 3811TIP3    H111376   1.265   3.608   6.049
 3811TIP3    H211377   1.223   3.628   5.905
 3812TIP3   OH211378   3.002   1.214   6.197
 3812TIP3    H111379   2.950   1.291   6.221
 3812TIP3    H211380   2.977   1.195   6.107
 3813TIP3   OH211381   1.608   7.623   3.020
 3813TIP3    H111382   1.631   7.656   3.106
 3813TIP3    H211383   1.519   7.653   3.005
 3814TIP3   OH211384   0.770   4.044   5.006
 3814TIP3    H111385   0.784   3.983   4.933
 3814TIP3    H211386   0.696   4.098   4.978
 3815TIP3   OH211387   0.239   5.177   4.259
 3815TIP3    H111388   0.244   5.199   4.166
 3815TIP3    H211389   0.308   5.111   4.271
 3816TIP3   OH211390   1.530   0.409   2.485
 3816TIP3    H111391   1.596   0.343   2.506
 3816TIP3    H211392   1.556   0.442   2.399
 3817TIP3   OH211393   2.580   6.229   2.664
 3817TIP3    H111394   2.526   6.151   2.674
 3817TIP3    H211395   2.522   6.294   2.625
 3818TIP3   OH211396   7.353   7.386   0.905
 3818TIP3    H111397   7.286   7.454   0.910
 3818TIP3    H211398   7.314   7.311   0.950
 3819TIP3   OH211399   5.654   6.107   4.543
 3819TIP3    H111400   5.635   6.021   4.505
 3819TIP3    H211401   5.664   6.090   4.636
 3820TIP3   OH211402   7.942   3.212   5.647
 3820TIP3    H111403   7.973   3.127   5.618
 3820TIP3    H211404   7.853   3.218   5.612
 3821TIP3   OH211405   7.533   2.137   1.621
 3821TIP3    H111406   7.517   2.126   1.527
 3821TIP3    H211407   7.627   2.156   1.626
 3822TIP3   OH211408   4.693   0.469   4.048
 3822TIP3    H111409   4.655   0.479   3.961
 3822TIP3    H211410   4.691   0.556   4.086
 3823TIP3   OH211411   4.695   7.769   5.792
 3823TIP3    H111412   4.691   7.687   5.743
 3823TIP3    H211413   4.644   7.751   5.872
 3824TIP3   OH211414   0.651   3.710   2.774
 3824TIP3    H111415   0.576   3.675   2.727
 3824TIP3    H211416   0.620   3.722   2.864
 3825TIP3   OH211417   7.538   6.855   2.241
 3825TIP3    H111418   7.478   6.861   2.167
 3825TIP3    H211419   7.599   6.928   2.228
 3826TIP3   OH211420   7.788   3.017   3.064
 3826TIP3    H111421   7.818   2.928   3.078
 3826TIP3    H211422   7.748   3.016   2.977
 3827TIP3   OH211423   2.922   5.825   2.668
 3827TIP3    H111424   2.846   5.847   2.721
 3827TIP3    H211425   2.909   5.873   2.586
 3828TIP3   OH211426   0.609   6.351   5.483
 3828TIP3    H111427   0.652   6.333   5.567
 3828TIP3    H211428   0.589   6.444   5.486
 3829TIP3   OH211429   2.680   6.102   3.645
 3829TIP3    H111430   2.723   6.072   3.565
 3829TIP3    H211431   2.589   6.113   3.620
 3830TIP3   OH211432   6.683   6.796   6.480
 3830TIP3    H111433   6.630   6.838   6.412
 3830TIP3    H211434   6.622   6.741   6.528
 3831TIP3   OH211435   0.404   6.506   6.256
 3831TIP3    H111436   0.392   6.531   6.348
 3831TIP3    H211437   0.437   6.585   6.213
 3832TIP3   OH211438   6.398   3.876   1.703
 3832TIP3    H111439   6.444   3.936   1.762
 3832TIP3    H211440   6.360   3.933   1.636
 3833TIP3   OH211441   6.259   0.506   1.406
 3833TIP3    H111442   6.249   0.416   1.437
 3833TIP3    H211443   6.346   0.507   1.364
 3834TIP3   OH211444   0.198   5.024   1.437
 3834TIP3    H111445   0.150   5.011   1.519
 3834TIP3    H211446   0.191   4.940   1.391
 3835TIP3   OH211447   3.281   0.322   2.235
 3835TIP3    H111448   3.335   0.331   2.157
 3835TIP3    H211449   3.305   0.236   2.271
 3836TIP3   OH211450   2.904   3.466   2.118
 3836TIP3    H111451   2.898   3.539   2.057
 3836TIP3    H211452   2.914   3.389   2.063
 3837TIP3   OH211453   8.146   1.928   1.598
 3837TIP3    H111454   8.128   2.009   1.550
 3837TIP3    H211455   8.224   1.948   1.649
 3838TIP3   OH211456   6.057   5.323   2.283
 3838TIP3    H111457   6.151   5.308   2.268
 3838TIP3    H211458   6.019   5.319   2.195
 3839TIP3   OH211459   7.460   6.879   3.117
 3839TIP3    H111460   7.421   6.792   3.126
 3839TIP3    H211461   7.550   6.869   3.145
 3840TIP3   OH211462   8.226   6.043   1.434
 3840TIP3    H111463   8.176   6.107   1.485
 3840TIP3    H211464   8.267   6.095   1.365
 3841TIP3   OH211465   8.013   2.258   3.333
 3841TIP3    H111466   7.924   2.261   3.367
 3841TIP3    H211467   8.030   2.347   3.302
 3842TIP3   OH211468   6.168   3.496   2.174
 3842TIP3    H111469   6.241   3.537   2.221
 3842TIP3    H211470   6.156   3.412   2.218
 3843TIP3   OH211471   0.832   6.998   6.263
 3843TIP3    H111472   0.861   6.908   6.247
 3843TIP3    H211473   0.808   7.030   6.176
 3844TIP3   OH211474   0.694   0.278   3.607
 3844TIP3    H111475   0.742   0.300   3.527
 3844TIP3    H211476   0.755   0.223   3.657
 3845TIP3   OH211477   5.415   5.204   0.152
 3845TIP3    H111478   5.476   5.153   0.206
 3845TIP3    H211479   5.472   5.258   0.096
 3846TIP3   OH211480   2.662   1.743   6.133
 3846TIP3    H111481   2.672   1.835   6.155
 3846TIP3    H211482   2.747   1.716   6.100
 3847TIP3   OH211483   7.808   3.298   0.825
 3847TIP3    H111484   7.786   3.244   0.749
 3847TIP3    H211485   7.729   3.350   0.840
 3848TIP3   OH211486   1.024   1.578   3.028
 3848TIP3    H111487   1.091   1.514   3.003
 3848TIP3    H211488   0.978   1.538   3.102
 3849TIP3   OH211489   7.446   3.981   2.538
 3849TIP3    H111490   7.490   3.906   2.498
 3849TIP3    H211491   7.513   4.048   2.546
 3850TIP3   OH211492   7.605   2.792   5.132
 3850TIP3    H111493   7.660   2.758   5.202
 3850TIP3    H211494   7.633   2.882   5.121
 3851TIP3   OH211495   2.827   2.418   3.451
 3851TIP3    H111496   2.884   2.413   3.374
 3851TIP3    H211497   2.744   2.452   3.417
 3852TIP3   OH211498   0.878   7.854   3.252
 3852TIP3    H111499   0.905   7.786   3.191
 3852TIP3    H211500   0.896   7.817   3.339
 3853TIP3   OH211501   6.317   7.695   5.611
 3853TIP3    H111502   6.333   7.765   5.675
 3853TIP3    H211503   6.251   7.639   5.652
 3854TIP3   OH211504   7.749   7.336   6.293
 3854TIP3    H111505   7.811   7.399   6.329
 3854TIP3    H211506   7.747   7.354   6.199
 3855TIP3   OH211507   7.925   1.212   1.574
 3855TIP3    H111508   7.976   1.133   1.559
 3855TIP3    H211509   7.983   1.283   1.545
 3856TIP3   OH211510   1.780   2.311   5.249
 3856TIP3    H111511   1.865   2.291   5.212
 3856TIP3    H211512   1.718   2.259   5.198
 3857TIP3   OH211513   3.278   0.220   3.647
 3857TIP3    H111514   3.363   0.175   3.654
 3857TIP3    H211515   3.293   0.288   3.581
 3858TIP3   OH211516   4.985   7.149   4.179
 3858TIP3    H111517   4.957   7.238   4.203
 3858TIP3    H211518   4.963   7.096   4.256
 3859TIP3   OH211519   0.664   3.010   2.657
 3859TIP3    H111520   0.718   3.080   2.620
 3859TIP3    H211521   0.642   2.955   2.582
 3860TIP3   OH211522   1.190   3.235   6.261
 3860TIP3    H111523   1.188   3.180   6.183
 3860TIP3    H211524   1.123   3.198   6.318
 3861TIP3   OH211525   5.844   3.876   2.082
 3861TIP3    H111526   5.760   3.916   2.060
 3861TIP3    H211527   5.905   3.911   2.017
 3862TIP3   OH211528   0.832   4.727   0.493
 3862TIP3    H111529   0.807   4.792   0.558
 3862TIP3    H211530   0.751   4.680   0.474
 3863TIP3   OH211531   4.125   6.222   5.133
 3863TIP3    H111532   4.133   6.188   5.044
 3863TIP3    H211533   4.034   6.251   5.139
 3864TIP3   OH211534   2.224   1.151   2.785
 3864TIP3    H111535   2.199   1.124   2.874
 3864TIP3    H211536   2.177   1.091   2.727
 3865TIP3   OH211537   2.071   0.469   0.776
 3865TIP3    H111538   2.152   0.420   0.763
 3865TIP3    H211539   2.059   0.518   0.695
 3866TIP3   OH211540   2.604   1.686   2.451
 3866TIP3    H111541   2.522   1.650   2.485
 3866TIP3    H211542   2.578   1.743   2.379
 3867TIP3   OH211543   2.874   0.961   1.888
 3867TIP3    H111544   2.853   0.870   1.865
 3867TIP3    H211545   2.791   1.008   1.881
 3868TIP3   OH211546   6.638   1.921   6.392
 3868TIP3    H111547   6.631   1.974   6.471
 3868TIP3    H211548   6.675   1.981   6.327
 3869TIP3   OH211549   8.277   4.070   5.364
 3869TIP3    H111550   8.184   4.090   5.356
 3869TIP3    H211551   8.282   4.007   5.435
 3870TIP3   OH211552   4.551   5.189   0.527
 3870TIP3    H111553   4.600   5.161   0.604
 3870TIP3    H211554   4.480   5.243   0.562
 3871TIP3   OH211555   2.904   0.043   4.690
 3871TIP3    H111556   2.867   0.037   4.778
 3871TIP3    H211557   2.989   0.085   4.702
 3872TIP3   OH211558   7.015   1.491   6.519
 3872TIP3    H111559   6.944   1.450   6.469
 3872TIP3    H211560   6.987   1.582   6.530
 3873TIP3   OH211561   0.352   2.721   6.136
 3873TIP3    H111562   0.440   2.688   6.156
 3873TIP3    H211563   0.297   2.643   6.135
 3874TIP3   OH211564   2.406   1.962   1.866
 3874TIP3    H111565   2.457   1.979   1.945
 3874TIP3    H211566   2.317   1.949   1.897
 3875TIP3   OH211567   3.889   1.364   3.538
 3875TIP3    H111568   3.832   1.403   3.604
 3875TIP3    H211569   3.976   1.399   3.558
 3876TIP3   OH211570   2.230   2.684   2.796
 3876TIP3    H111571   2.158   2.659   2.853
 3876TIP3    H211572   2.290   2.732   2.853
 3877TIP3   OH211573   3.429   1.162   0.610
 3877TIP3    H111574   3.478   1.244   0.610
 3877TIP3    H211575   3.356   1.179   0.551
 3878TIP3   OH211576   3.465   1.319   6.681
 3878TIP3    H111577   3.420   1.399   6.708
 3878TIP3    H211578   3.485   1.332   6.588
 3879TIP3   OH211579   3.042   5.256   2.390
 3879TIP3    H111580   3.098   5.327   2.360
 3879TIP3    H211581   3.083   5.225   2.471
 3880TIP3   OH211582   6.061   0.763   3.413
 3880TIP3    H111583   6.114   0.691   3.379
 3880TIP3    H211584   6.005   0.722   3.479
 3881TIP3   OH211585   7.586   4.885   1.726
 3881TIP3    H111586   7.567   4.975   1.697
 3881TIP3    H211587   7.625   4.896   1.813
 3882TIP3   OH211588   3.457   4.442   1.952
 3882TIP3    H111589   3.527   4.383   1.983
 3882TIP3    H211590   3.384   4.425   2.011
 3883TIP3   OH211591   1.681   2.871   4.527
 3883TIP3    H111592   1.719   2.896   4.612
 3883TIP3    H211593   1.753   2.881   4.465
 3884TIP3   OH211594   2.321   0.083   4.806
 3884TIP3    H111595   2.275  -0.001   4.804
 3884TIP3    H211596   2.293   0.124   4.887
 3885TIP3   OH211597   4.274   2.246   6.043
 3885TIP3    H111598   4.344   2.281   5.989
 3885TIP3    H211599   4.315   2.225   6.127
 3886TIP3   OH211600   8.034   5.298   0.173
 3886TIP3    H111601   8.023   5.203   0.169
 3886TIP3    H211602   7.965   5.328   0.233
 3887TIP3   OH211603   2.711   1.002   4.187
 3887TIP3    H111604   2.728   1.029   4.097
 3887TIP3    H211605   2.721   0.907   4.186
 3888TIP3   OH211606   6.874   6.373   5.802
 3888TIP3    H111607   6.913   6.292   5.835
 3888TIP3    H211608   6.881   6.435   5.874
 3889TIP3   OH211609   1.796   4.448   2.840
 3889TIP3    H111610   1.732   4.444   2.911
 3889TIP3    H211611   1.784   4.535   2.802
 3890TIP3   OH211612   3.589   0.244   6.355
 3890TIP3    H111613   3.617   0.210   6.270
 3890TIP3    H211614   3.662   0.223   6.414
 3891TIP3   OH211615   7.518   5.964   6.716
 3891TIP3    H111616   7.428   5.936   6.736
 3891TIP3    H211617   7.525   5.957   6.621
 3892TIP3   OH211618   2.637   3.812   3.341
 3892TIP3    H111619   2.636   3.718   3.362
 3892TIP3    H211620   2.668   3.854   3.421
 3893TIP3   OH211621   0.363   5.895   5.703
 3893TIP3    H111622   0.393   5.979   5.737
 3893TIP3    H211623   0.416   5.830   5.751
 3894TIP3   OH211624   2.684   1.687   1.271
 3894TIP3    H111625   2.757   1.662   1.328
 3894TIP3    H211626   2.686   1.783   1.269
 3895TIP3   OH211627   1.983   4.155   0.775
 3895TIP3    H111628   1.889   4.167   0.763
 3895TIP3    H211629   2.003   4.073   0.731
 3896TIP3   OH211630   4.943   0.377   4.629
 3896TIP3    H111631   4.981   0.309   4.572
 3896TIP3    H211632   4.983   0.458   4.599
 3897TIP3   OH211633   3.766   4.194   4.093
 3897TIP3    H111634   3.702   4.143   4.042
 3897TIP3    H211635   3.735   4.189   4.183
 3898TIP3   OH211636   3.884   7.100   0.166
 3898TIP3    H111637   3.806   7.059   0.128
 3898TIP3    H211638   3.862   7.194   0.170
 3899TIP3   OH211639   6.251   0.183   3.029
 3899TIP3    H111640   6.271   0.145   2.944
 3899TIP3    H211641   6.244   0.107   3.088
 3900TIP3   OH211642   8.259   5.733   1.681
 3900TIP3    H111643   8.339   5.784   1.676
 3900TIP3    H211644   8.199   5.788   1.731
 3901TIP3   OH211645   8.112   4.282   4.588
 3901TIP3    H111646   8.127   4.316   4.499
 3901TIP3    H211647   8.088   4.360   4.639
 3902TIP3   OH211648   3.306   6.636   3.581
 3902TIP3    H111649   3.277   6.689   3.655
 3902TIP3    H211650   3.391   6.672   3.557
 3903TIP3   OH211651   7.533   3.360   4.816
 3903TIP3    H111652   7.557   3.310   4.895
 3903TIP3    H211653   7.514   3.448   4.848
 3904TIP3   OH211654   2.777   5.508   6.503
 3904TIP3    H111655   2.743   5.449   6.436
 3904TIP3    H211656   2.700   5.553   6.538
 3905TIP3   OH211657   4.260   4.476   4.263
 3905TIP3    H111658   4.321   4.408   4.290
 3905TIP3    H211659   4.180   4.429   4.239
 3906TIP3   OH211660   7.207   5.400   0.929
 3906TIP3    H111661   7.179   5.329   0.871
 3906TIP3    H211662   7.238   5.356   1.008
 3907TIP3   OH211663   1.751   6.397   5.727
 3907TIP3    H111664   1.831   6.381   5.677
 3907TIP3    H211665   1.782   6.409   5.817
 3908TIP3   OH211666   2.758   5.599   1.487
 3908TIP3    H111667   2.825   5.663   1.462
 3908TIP3    H211668   2.743   5.548   1.408
 3909TIP3   OH211669   1.116   3.293   1.783
 3909TIP3    H111670   1.065   3.368   1.752
 3909TIP3    H211671   1.126   3.308   1.877
 3910TIP3   OH211672   6.027   6.750   2.686
 3910TIP3    H111673   5.971   6.677   2.710
 3910TIP3    H211674   6.077   6.719   2.610
 3911TIP3   OH211675   4.132   0.924   2.743
 3911TIP3    H111676   4.051   0.973   2.734
 3911TIP3    H211677   4.105   0.834   2.755
 3912TIP3   OH211678   3.505   4.396   3.269
 3912TIP3    H111679   3.416   4.423   3.288
 3912TIP3    H211680   3.548   4.475   3.236
 3913TIP3   OH211681   4.331   4.945   5.568
 3913TIP3    H111682   4.344   4.934   5.473
 3913TIP3    H211683   4.371   4.868   5.606
 3914TIP3   OH211684   2.360   0.120   3.623
 3914TIP3    H111685   2.368   0.122   3.718
 3914TIP3    H211686   2.328   0.207   3.600
 3915TIP3   OH211687   2.278   1.958   5.228
 3915TIP3    H111688   2.304   1.872   5.260
 3915TIP3    H211689   2.353   1.987   5.175
 3916TIP3   OH211690   4.436   0.389   1.260
 3916TIP3    H111691   4.367   0.329   1.286
 3916TIP3    H211692   4.505   0.332   1.225
 3917TIP3   OH211693   2.393   2.531   2.397
 3917TIP3    H111694   2.441   2.494   2.471
 3917TIP3    H211695   2.422   2.622   2.393
 3918TIP3   OH211696   3.538   1.386   5.682
 3918TIP3    H111697   3.568   1.409   5.595
 3918TIP3    H211698   3.453   1.344   5.668
 3919TIP3   OH211699   4.540   2.563   3.440
 3919TIP3    H111700   4.485   2.527   3.509
 3919TIP3    H211701   4.572   2.646   3.475
 3920TIP3   OH211702   7.228   5.672   3.786
 3920TIP3    H111703   7.239   5.767   3.776
 3920TIP3    H211704   7.275   5.634   3.712
 3921TIP3   OH211705   2.282   5.238   3.060
 3921TIP3    H111706   2.252   5.195   2.980
 3921TIP3    H211707   2.378   5.233   3.056
 3922TIP3   OH211708   6.497   6.869   6.188
 3922TIP3    H111709   6.496   6.950   6.137
 3922TIP3    H211710   6.406   6.857   6.215
 3923TIP3   OH211711   6.477   6.168   1.299
 3923TIP3    H111712   6.406   6.204   1.351
 3923TIP3    H211713   6.557   6.206   1.337
 3924TIP3   OH211714   4.526   7.193   2.075
 3924TIP3    H111715   4.490   7.262   2.131
 3924TIP3    H211716   4.619   7.189   2.099
 3925TIP3   OH211717   2.404   5.469   4.754
 3925TIP3    H111718   2.408   5.385   4.800
 3925TIP3    H211719   2.318   5.470   4.713
 3926TIP3   OH211720   3.849   4.409   2.444
 3926TIP3    H111721   3.755   4.421   2.430
 3926TIP3    H211722   3.871   4.470   2.514
 3927TIP3   OH211723   5.339   5.560   3.054
 3927TIP3    H111724   5.371   5.470   3.066
 3927TIP3    H211725   5.244   5.552   3.053
 3928TIP3   OH211726   0.412   6.677   2.566
 3928TIP3    H111727   0.441   6.587   2.581
 3928TIP3    H211728   0.466   6.708   2.494
 3929TIP3   OH211729   7.701   6.763   6.520
 3929TIP3    H111730   7.793   6.744   6.499
 3929TIP3    H211731   7.706   6.836   6.582
 3930TIP3   OH211732   3.000   3.856   4.863
 3930TIP3    H111733   2.992   3.946   4.895
 3930TIP3    H211734   2.967   3.858   4.774
 3931TIP3   OH211735   1.673   0.768   0.629
 3931TIP3    H111736   1.705   0.722   0.707
 3931TIP3    H211737   1.588   0.728   0.612
 3932TIP3   OH211738   7.908   7.362   5.306
 3932TIP3    H111739   7.929   7.432   5.244
 3932TIP3    H211740   7.989   7.350   5.356
 3933TIP3   OH211741   5.143   3.874   5.890
 3933TIP3    H111742   5.180   3.796   5.931
 3933TIP3    H211743   5.065   3.894   5.943
 3934TIP3   OH211744   2.775   3.744   1.703
 3934TIP3    H111745   2.731   3.680   1.647
 3934TIP3    H211746   2.846   3.778   1.650
 3935TIP3   OH211747   3.755   6.595   2.926
 3935TIP3    H111748   3.741   6.690   2.927
 3935TIP3    H211749   3.819   6.582   2.856
 3936TIP3   OH211750   7.863   4.788   0.300
 3936TIP3    H111751   7.885   4.778   0.393
 3936TIP3    H211752   7.898   4.709   0.259
 3937TIP3   OH211753   4.347   5.056   5.124
 3937TIP3    H111754   4.395   5.006   5.190
 3937TIP3    H211755   4.338   5.143   5.162
 3938TIP3   OH211756   4.674   3.084   6.022
 3938TIP3    H111757   4.760   3.064   6.059
 3938TIP3    H211758   4.683   3.063   5.929
 3939TIP3   OH211759   7.396   5.848   0.907
 3939TIP3    H111760   7.450   5.779   0.945
 3939TIP3    H211761   7.319   5.803   0.873
 3940TIP3   OH211762   3.050   3.570   3.728
 3940TIP3    H111763   3.029   3.484   3.764
 3940TIP3    H211764   3.134   3.594   3.769
 3941TIP3   OH211765   5.639   6.487   5.675
 3941TIP3    H111766   5.702   6.488   5.603
 3941TIP3    H211767   5.565   6.539   5.643
 3942TIP3   OH211768   0.864   3.114   3.974
 3942TIP3    H111769   0.861   3.207   3.955
 3942TIP3    H211770   0.937   3.080   3.921
 3943TIP3   OH211771   0.150   6.582   5.555
 3943TIP3    H111772   0.153   6.565   5.650
 3943TIP3    H211773   0.084   6.521   5.522
 3944TIP3   OH211774   2.919   7.687   0.887
 3944TIP3    H111775   2.911   7.592   0.898
 3944TIP3    H211776   2.834   7.722   0.915
 3945TIP3   OH211777   2.543   1.116   3.499
 3945TIP3    H111778   2.616   1.139   3.441
 3945TIP3    H211779   2.487   1.060   3.445
 3946TIP3   OH211780   3.952   2.456   6.177
 3946TIP3    H111781   4.025   2.517   6.169
 3946TIP3    H211782   3.896   2.494   6.244
 3947TIP3   OH211783   3.691   2.840   6.317
 3947TIP3    H111784   3.656   2.825   6.405
 3947TIP3    H211785   3.778   2.800   6.319
 3948TIP3   OH211786   5.944   3.821   5.235
 3948TIP3    H111787   6.036   3.797   5.246
 3948TIP3    H211788   5.912   3.763   5.166
 3949TIP3   OH211789   6.334   6.722   6.458
 3949TIP3    H111790   6.318   6.654   6.392
 3949TIP3    H211791   6.247   6.759   6.475
 3950TIP3   OH211792   0.639   7.011   4.486
 3950TIP3    H111793   0.632   7.028   4.580
 3950TIP3    H211794   0.601   7.088   4.445
 3951TIP3   OH211795   1.498   2.292   2.079
 3951TIP3    H111796   1.443   2.362   2.045
 3951TIP3    H211797   1.436   2.229   2.117
 3952TIP3   OH211798   0.482   4.164   3.492
 3952TIP3    H111799   0.457   4.141   3.402
 3952TIP3    H211800   0.459   4.257   3.499
 3953TIP3   OH211801   4.040   3.271   1.196
 3953TIP3    H111802   3.959   3.236   1.159
 3953TIP3    H211803   4.110   3.220   1.155
 3954TIP3   OH211804   8.009   6.691   1.399
 3954TIP3    H111805   7.986   6.782   1.420
 3954TIP3    H211806   7.944   6.664   1.334
 3955TIP3   OH211807   8.052   5.886   4.660
 3955TIP3    H111808   8.069   5.799   4.624
 3955TIP3    H211809   8.060   5.945   4.585
 3956TIP3   OH211810   1.538   5.171   4.518
 3956TIP3    H111811   1.610   5.184   4.580
 3956TIP3    H211812   1.466   5.222   4.553
 3957TIP3   OH211813   5.418   4.198   2.890
 3957TIP3    H111814   5.334   4.219   2.848
 3957TIP3    H211815   5.443   4.113   2.852
 3958TIP3   OH211816   3.360   2.174   5.995
 3958TIP3    H111817   3.268   2.163   6.022
 3958TIP3    H211818   3.358   2.249   5.936
 3959TIP3   OH211819   3.557   7.670   3.005
 3959TIP3    H111820   3.533   7.729   3.077
 3959TIP3    H211821   3.482   7.612   2.996
 3960TIP3   OH211822   0.748   6.855   1.407
 3960TIP3    H111823   0.676   6.918   1.409
 3960TIP3    H211824   0.735   6.800   1.484
 3961TIP3   OH211825   6.248   6.434   0.090
 3961TIP3    H111826   6.201   6.362   0.047
 3961TIP3    H211827   6.181   6.480   0.140
 3962TIP3   OH211828   2.490   0.341   2.297
 3962TIP3    H111829   2.574   0.381   2.275
 3962TIP3    H211830   2.426   0.410   2.282
 3963TIP3   OH211831   2.625   3.525   5.856
 3963TIP3    H111832   2.656   3.615   5.866
 3963TIP3    H211833   2.592   3.521   5.766
 3964TIP3   OH211834   0.741   0.284   5.146
 3964TIP3    H111835   0.657   0.323   5.171
 3964TIP3    H211836   0.798   0.299   5.222
 3965TIP3   OH211837   3.109   3.814   0.244
 3965TIP3    H111838   3.176   3.873   0.278
 3965TIP3    H211839   3.033   3.828   0.301
 3966TIP3   OH211840   0.879   4.046   6.622
 3966TIP3    H111841   0.820   4.031   6.548
 3966TIP3    H211842   0.845   4.125   6.664
 3967TIP3   OH211843   4.989   6.687   1.918
 3967TIP3    H111844   5.037   6.736   1.985
 3967TIP3    H211845   4.986   6.597   1.951
 3968TIP3   OH211846   4.616   1.902   6.198
 3968TIP3    H111847   4.521   1.891   6.197
 3968TIP3    H211848   4.635   1.944   6.114
 3969TIP3   OH211849   1.693   2.196   3.841
 3969TIP3    H111850   1.675   2.283   3.877
 3969TIP3    H211851   1.737   2.212   3.758
 3970TIP3   OH211852   5.376   1.214   5.296
 3970TIP3    H111853   5.291   1.258   5.305
 3970TIP3    H211854   5.359   1.144   5.231
 3971TIP3   OH211855   5.764   5.142   1.341
 3971TIP3    H111856   5.743   5.063   1.290
 3971TIP3    H211857   5.836   5.183   1.293
 3972TIP3   OH211858   7.400   2.536   2.712
 3972TIP3    H111859   7.401   2.626   2.746
 3972TIP3    H211860   7.482   2.528   2.664
 3973TIP3   OH211861   6.602   2.994   3.372
 3973TIP3    H111862   6.681   3.048   3.365
 3973TIP3    H211863   6.534   3.046   3.328
 3974TIP3   OH211864   5.523   0.633   1.391
 3974TIP3    H111865   5.494   0.556   1.439
 3974TIP3    H211866   5.617   0.639   1.408
 3975TIP3   OH211867   4.828   1.915   4.090
 3975TIP3    H111868   4.867   1.831   4.069
 3975TIP3    H211869   4.901   1.970   4.118
 3976TIP3   OH211870   3.721   4.006   2.930
 3976TIP3    H111871   3.782   4.079   2.947
 3976TIP3    H211872   3.709   3.965   3.015
 3977TIP3   OH211873   6.635   5.783   0.813
 3977TIP3    H111874   6.547   5.745   0.808
 3977TIP3    H211875   6.688   5.717   0.857
 3978TIP3   OH211876   0.975   6.621   5.699
 3978TIP3    H111877   0.949   6.713   5.692
 3978TIP3    H211878   0.893   6.573   5.710
 3979TIP3   OH211879   2.860   2.908   6.233
 3979TIP3    H111880   2.858   3.003   6.223
 3979TIP3    H211881   2.953   2.885   6.228
 3980TIP3   OH211882   1.489   1.190   5.038
 3980TIP3    H111883   1.576   1.170   5.003
 3980TIP3    H211884   1.497   1.280   5.072
 3981TIP3   OH211885   3.510   5.925   2.875
 3981TIP3    H111886   3.562   5.883   2.944
 3981TIP3    H211887   3.440   5.970   2.922
 3982TIP3   OH211888   3.658   0.020   5.553
 3982TIP3    H111889   3.710   0.065   5.487
 3982TIP3    H211890   3.613  -0.049   5.505
 3983TIP3   OH211891   2.682   3.406   0.333
 3983TIP3    H111892   2.647   3.346   0.399
 3983TIP3    H211893   2.640   3.379   0.252
 3984TIP3   OH211894   1.120   1.931   5.499
 3984TIP3    H111895   1.142   1.858   5.557
 3984TIP3    H211896   1.131   1.895   5.411
 3985TIP3   OH211897   2.940   4.900   4.304
 3985TIP3    H111898   2.852   4.870   4.326
 3985TIP3    H211899   2.956   4.975   4.360
 3986TIP3   OH211900   3.101   1.605   1.708
 3986TIP3    H111901   3.096   1.523   1.757
 3986TIP3    H211902   3.012   1.640   1.710
 3987TIP3   OH211903   0.159   2.489   5.629
 3987TIP3    H111904   0.210   2.550   5.575
 3987TIP3    H211905   0.158   2.530   5.715
 3988TIP3   OH211906   4.744   3.993   2.598
 3988TIP3    H111907   4.716   3.929   2.533
 3988TIP3    H211908   4.742   3.946   2.681
 3989TIP3   OH211909   1.503   4.591   3.732
 3989TIP3    H111910   1.500   4.686   3.723
 3989TIP3    H211911   1.459   4.573   3.815
 3990TIP3   OH211912   0.812   4.444   5.998
 3990TIP3    H111913   0.831   4.365   6.048
 3990TIP3    H211914   0.718   4.459   6.010
 3991TIP3   OH211915   1.061   6.275   2.849
 3991TIP3    H111916   0.990   6.265   2.786
 3991TIP3    H211917   1.063   6.368   2.870
 3992TIP3   OH211918   6.482   7.068   6.703
 3992TIP3    H111919   6.570   7.046   6.734
 3992TIP3    H211920   6.446   6.985   6.671
 3993TIP3   OH211921   0.579   7.461   1.687
 3993TIP3    H111922   0.577   7.542   1.637
 3993TIP3    H211923   0.590   7.489   1.778
 3994TIP3   OH211924   2.130   6.776   1.164
 3994TIP3    H111925   2.153   6.809   1.077
 3994TIP3    H211926   2.057   6.716   1.149
 3995TIP3   OH211927   5.556   5.498   1.240
 3995TIP3    H111928   5.607   5.491   1.159
 3995TIP3    H211929   5.465   5.495   1.211
 3996TIP3   OH211930   5.059   3.594   0.938
 3996TIP3    H111931   4.984   3.606   0.879
 3996TIP3    H211932   5.022   3.605   1.026
 3997TIP3   OH211933   2.409   2.564   0.223
 3997TIP3    H111934   2.316   2.540   0.221
 3997TIP3    H211935   2.422   2.617   0.145
 3998TIP3   OH211936   5.343   5.566   5.475
 3998TIP3    H111937   5.390   5.493   5.516
 3998TIP3    H211938   5.266   5.579   5.531
 3999TIP3   OH211939   3.235   1.316   2.690
 3999TIP3    H111940   3.179   1.265   2.632
 3999TIP3    H211941   3.192   1.402   2.694
 4000TIP3   OH211942   4.566   7.062   0.486
 4000TIP3    H111943   4.576   7.151   0.522
 4000TIP3    H211944   4.540   7.009   0.561
 4001TIP3   OH211945   2.879   3.103   0.088
 4001TIP3    H111946   2.873   3.182   0.034
 4001TIP3    H211947   2.932   3.042   0.036
 4002TIP3   OH211948   6.670   5.147   4.982
 4002TIP3    H111949   6.670   5.063   4.937
 4002TIP3    H211950   6.748   5.192   4.950
 4003TIP3   OH211951   7.079   4.053   0.679
 4003TIP3    H111952   6.990   4.057   0.714
 4003TIP3    H211953   7.067   4.041   0.584
 4004TIP3   OH211954   1.499   3.795   2.603
 4004TIP3    H111955   1.512   3.790   2.698
 4004TIP3    H211956   1.563   3.734   2.567
 4005TIP3   OH211957   6.964   1.018   1.008
 4005TIP3    H111958   6.991   0.933   0.974
 4005TIP3    H211959   6.925   1.063   0.933
 4006TIP3   OH211960   1.697   1.823   1.612
 4006TIP3    H111961   1.776   1.859   1.572
 4006TIP3    H211962   1.694   1.732   1.582
 4007TIP3   OH211963   5.121   1.236   1.974
 4007TIP3    H111964   5.117   1.195   2.061
 4007TIP3    H211965   5.030   1.234   1.943
 4008TIP3   OH211966   0.845   3.881   3.353
 4008TIP3    H111967   0.902   3.824   3.405
 4008TIP3    H211968   0.902   3.914   3.284
 4009TIP3   OH211969   6.816   2.130   1.624
 4009TIP3    H111970   6.780   2.115   1.536
 4009TIP3    H211971   6.856   2.047   1.648
 4010TIP3   OH211972   7.696   5.264   2.089
 4010TIP3    H111973   7.680   5.169   2.090
 4010TIP3    H211974   7.651   5.296   2.167
 4011TIP3   OH211975   4.120   2.157   0.910
 4011TIP3    H111976   4.061   2.205   0.968
 4011TIP3    H211977   4.201   2.209   0.909
 4012TIP3   OH211978   6.034   7.742   3.543
 4012TIP3    H111979   5.954   7.788   3.516
 4012TIP3    H211980   6.105   7.798   3.511
 4013TIP3   OH211981   3.901   0.666   1.236
 4013TIP3    H111982   3.931   0.599   1.175
 4013TIP3    H211983   3.850   0.726   1.182
 4014TIP3   OH211984   0.222   1.406   4.794
 4014TIP3    H111985   0.173   1.467   4.850
 4014TIP3    H211986   0.313   1.419   4.818
 4015TIP3   OH211987   0.980   2.466   3.014
 4015TIP3    H111988   0.890   2.472   3.047
 4015TIP3    H211989   0.970   2.454   2.920
 4016TIP3   OH211990   4.961   0.173   2.938
 4016TIP3    H111991   4.980   0.157   2.846
 4016TIP3    H211992   4.955   0.086   2.977
 4017TIP3   OH211993   1.215   7.477   0.140
 4017TIP3    H111994   1.203   7.572   0.146
 4017TIP3    H211995   1.127   7.443   0.121
 4018TIP3   OH211996   1.131   2.631   4.170
 4018TIP3    H111997   1.047   2.671   4.147
 4018TIP3    H211998   1.162   2.681   4.245
 4019TIP3   OH211999   8.002   0.530   6.767
 4019TIP3    H112000   7.923   0.581   6.748
 4019TIP3    H212001   8.000   0.458   6.704
 4020TIP3   OH212002   2.826   0.035   4.970
 4020TIP3    H112003   2.801  -0.002   5.054
 4020TIP3    H212004   2.911   0.076   4.986
 4021TIP3   OH212005   6.259   3.320   4.109
 4021TIP3    H112006   6.262   3.303   4.203
 4021TIP3    H212007   6.298   3.408   4.100
 4022TIP3   OH212008   1.956   4.543   4.244
 4022TIP3    H112009   2.023   4.597   4.201
 4022TIP3    H212010   1.937   4.589   4.325
 4023TIP3   OH212011   7.329   0.280   4.260
 4023TIP3    H112012   7.358   0.368   4.284
 4023TIP3    H212013   7.373   0.222   4.322
 4024TIP3   OH212014   5.810   3.186   6.658
 4024TIP3    H112015   5.814   3.111   6.718
 4024TIP3    H212016   5.840   3.152   6.574
 4025TIP3   OH212017   6.807   3.134   4.432
 4025TIP3    H112018   6.772   3.051   4.401
 4025TIP3    H212019   6.764   3.148   4.516
 4026TIP3   OH212020   7.605   3.934   1.785
 4026TIP3    H112021   7.658   3.872   1.735
 4026TIP3    H212022   7.563   3.880   1.852
 4027TIP3   OH212023   3.382   3.297   4.098
 4027TIP3    H112024   3.338   3.285   4.182
 4027TIP3    H212025   3.415   3.387   4.102
 4028TIP3   OH212026   3.974   7.469   6.236
 4028TIP3    H112027   3.967   7.376   6.219
 4028TIP3    H212028   3.929   7.482   6.320
 4029TIP3   OH212029   0.517   2.469   2.482
 4029TIP3    H112030   0.607   2.453   2.453
 4029TIP3    H212031   0.479   2.524   2.413
 4030TIP3   OH212032   3.247   3.627   2.556
 4030TIP3    H112033   3.273   3.702   2.610
 4030TIP3    H212034   3.327   3.576   2.547
 4031TIP3   OH212035   3.635   2.508   0.441
 4031TIP3    H112036   3.584   2.470   0.370
 4031TIP3    H212037   3.580   2.495   0.519
 4032TIP3   OH212038   3.406   1.894   3.539
 4032TIP3    H112039   3.420   1.873   3.447
 4032TIP3    H212040   3.425   1.813   3.586
 4033TIP3   OH212041   6.528   0.458   2.270
 4033TIP3    H112042   6.612   0.430   2.305
 4033TIP3    H212043   6.551   0.516   2.198
 4034TIP3   OH212044   1.115   1.828   3.031
 4034TIP3    H112045   1.039   1.883   3.051
 4034TIP3    H212046   1.078   1.741   3.017
 4035TIP3   OH212047   3.738   5.021   1.091
 4035TIP3    H112048   3.758   5.000   1.182
 4035TIP3    H212049   3.723   5.115   1.090
 4036TIP3   OH212050   7.312   1.315   1.921
 4036TIP3    H112051   7.367   1.389   1.949
 4036TIP3    H212052   7.315   1.318   1.825
 4037TIP3   OH212053   0.923   1.956   2.299
 4037TIP3    H112054   0.985   2.011   2.348
 4037TIP3    H212055   0.934   1.983   2.208
 4038TIP3   OH212056   2.823   2.246   6.209
 4038TIP3    H112057   2.875   2.179   6.255
 4038TIP3    H212058   2.733   2.231   6.238
 4039TIP3   OH212059   6.587   1.020   0.985
 4039TIP3    H112060   6.660   1.071   0.950
 4039TIP3    H212061   6.525   1.086   1.016
 4040TIP3   OH212062   3.953   6.328   5.944
 4040TIP3    H112063   3.886   6.394   5.926
 4040TIP3    H212064   3.910   6.263   5.999
 4041TIP3   OH212065   4.865   5.553   0.115
 4041TIP3    H112066   4.849   5.538   0.208
 4041TIP3    H212067   4.843   5.470   0.073
 4042TIP3   OH212068   6.771   0.199   6.514
 4042TIP3    H112069   6.756   0.237   6.601
 4042TIP3    H212070   6.684   0.181   6.480
 4043TIP3   OH212071   2.910   5.205   4.936
 4043TIP3    H112072   2.958   5.188   5.017
 4043TIP3    H212073   2.904   5.300   4.931
 4044TIP3   OH212074   6.426   6.128   3.581
 4044TIP3    H112075   6.500   6.188   3.581
 4044TIP3    H212076   6.400   6.122   3.489
 4045TIP3   OH212077   3.055   6.745   0.272
 4045TIP3    H112078   2.977   6.720   0.222
 4045TIP3    H212079   3.086   6.825   0.229
 4046TIP3   OH212080   3.059   3.877   0.616
 4046TIP3    H112081   3.015   3.873   0.531
 4046TIP3    H212082   3.104   3.961   0.616
 4047TIP3   OH212083   3.569   1.087   5.022
 4047TIP3    H112084   3.555   1.109   5.115
 4047TIP3    H212085   3.574   0.992   5.020
 4048TIP3   OH212086   6.292   7.640   0.954
 4048TIP3    H112087   6.253   7.563   0.913
 4048TIP3    H212088   6.233   7.712   0.931
 4049TIP3   OH212089   8.186   6.283   4.030
 4049TIP3    H112090   8.249   6.290   3.959
 4049TIP3    H212091   8.102   6.308   3.990
 4050TIP3   OH212092   2.865   7.729   1.500
 4050TIP3    H112093   2.866   7.688   1.413
 4050TIP3    H212094   2.935   7.685   1.548
 4051TIP3   OH212095   6.085   4.203   5.875
 4051TIP3    H112096   6.075   4.196   5.780
 4051TIP3    H212097   6.120   4.118   5.902
 4052TIP3   OH212098   5.931   7.661   1.550
 4052TIP3    H112099   5.878   7.725   1.597
 4052TIP3    H212100   5.872   7.621   1.486
 4053TIP3   OH212101   6.256   6.441   6.014
 4053TIP3    H112102   6.186   6.385   6.048
 4053TIP3    H212103   6.235   6.451   5.921
 4054TIP3   OH212104   1.425   0.023   5.919
 4054TIP3    H112105   1.386   0.110   5.914
 4054TIP3    H212106   1.515   0.039   5.948
 4055TIP3   OH212107   6.432   2.929   2.937
 4055TIP3    H112108   6.355   2.900   2.986
 4055TIP3    H212109   6.505   2.912   2.997
 4056TIP3   OH212110   6.016   1.444   1.249
 4056TIP3    H112111   6.053   1.519   1.202
 4056TIP3    H212112   5.947   1.412   1.191
 4057TIP3   OH212113   4.206   6.491   0.015
 4057TIP3    H112114   4.204   6.396   0.030
 4057TIP3    H212115   4.295   6.517   0.036
 4058TIP3   OH212116   0.523   5.250   6.432
 4058TIP3    H112117   0.549   5.341   6.443
 4058TIP3    H212118   0.595   5.200   6.469
 4059TIP3   OH212119   7.163   4.711   6.379
 4059TIP3    H112120   7.182   4.727   6.287
 4059TIP3    H212121   7.079   4.755   6.394
 4060TIP3   OH212122   0.623   1.194   5.723
 4060TIP3    H112123   0.653   1.152   5.804
 4060TIP3    H212124   0.685   1.265   5.708
 4061TIP3   OH212125   1.315   2.495   4.891
 4061TIP3    H112126   1.333   2.450   4.808
 4061TIP3    H212127   1.247   2.441   4.933
 4062TIP3   OH212128   5.250   1.330   4.010
 4062TIP3    H112129   5.174   1.345   4.066
 4062TIP3    H212130   5.246   1.399   3.944
 4063TIP3   OH212131   8.023   0.704   6.197
 4063TIP3    H112132   7.996   0.726   6.108
 4063TIP3    H212133   7.984   0.774   6.251
 4064TIP3   OH212134   1.815   7.082   4.070
 4064TIP3    H112135   1.900   7.077   4.114
 4064TIP3    H212136   1.787   6.991   4.062
 4065TIP3   OH212137   7.900   6.588   6.133
 4065TIP3    H112138   7.826   6.536   6.101
 4065TIP3    H212139   7.970   6.525   6.147
 4066TIP3   OH212140   0.545   1.376   1.708
 4066TIP3    H112141   0.528   1.282   1.717
 4066TIP3    H212142   0.467   1.409   1.664
 4067TIP3   OH212143   3.509   6.656   5.264
 4067TIP3    H112144   3.506   6.727   5.200
 4067TIP3    H212145   3.422   6.617   5.261
 4068TIP3   OH212146   0.151   4.953   1.042
 4068TIP3    H112147   0.191   4.892   1.105
 4068TIP3    H212148   0.123   5.027   1.095
 4069TIP3   OH212149   1.047   3.526   5.187
 4069TIP3    H112150   1.027   3.516   5.094
 4069TIP3    H212151   0.966   3.499   5.232
 4070TIP3   OH212152   1.136   1.726   1.084
 4070TIP3    H112153   1.167   1.801   1.135
 4070TIP3    H212154   1.216   1.689   1.046
 4071TIP3   OH212155   4.620   7.784   0.716
 4071TIP3    H112156   4.649   7.772   0.625
 4071TIP3    H212157   4.531   7.819   0.708
 4072TIP3   OH212158   3.121   5.717   3.634
 4072TIP3    H112159   3.095   5.794   3.583
 4072TIP3    H212160   3.216   5.722   3.640
 4073TIP3   OH212161   8.024   7.565   4.329
 4073TIP3    H112162   8.082   7.491   4.341
 4073TIP3    H212163   8.004   7.595   4.417
 4074TIP3   OH212164   4.611   4.696   3.434
 4074TIP3    H112165   4.680   4.716   3.497
 4074TIP3    H212166   4.538   4.664   3.487
 4075TIP3   OH212167   2.442   5.561   3.256
 4075TIP3    H112168   2.431   5.548   3.350
 4075TIP3    H212169   2.352   5.565   3.222
 4076TIP3   OH212170   2.556   6.799   0.931
 4076TIP3    H112171   2.580   6.890   0.947
 4076TIP3    H212172   2.548   6.794   0.835
 4077TIP3   OH212173   6.312   0.948   0.075
 4077TIP3    H112174   6.322   0.896  -0.004
 4077TIP3    H212175   6.394   0.934   0.124
 4078TIP3   OH212176   4.655   0.079   1.593
 4078TIP3    H112177   4.700   0.147   1.643
 4078TIP3    H212178   4.696  -0.002   1.620
 4079TIP3   OH212179   0.782   2.075   2.818
 4079TIP3    H112180   0.832   2.020   2.758
 4079TIP3    H212181   0.744   2.143   2.762
 4080TIP3   OH212182   0.128   3.553   0.983
 4080TIP3    H112183   0.095   3.557   0.894
 4080TIP3    H212184   0.128   3.460   1.005
 4081TIP3   OH212185   3.810   3.777   3.889
 4081TIP3    H112186   3.749   3.795   3.818
 4081TIP3    H212187   3.770   3.706   3.938
 4082TIP3   OH212188   4.664   5.943   4.840
 4082TIP3    H112189   4.680   5.953   4.934
 4082TIP3    H212190   4.623   6.026   4.814
 4083TIP3   OH212191   1.005   2.709   1.181
 4083TIP3    H112192   0.984   2.642   1.245
 4083TIP3    H212193   1.043   2.781   1.232
 4084TIP3   OH212194   3.388   2.929   0.815
 4084TIP3    H112195   3.434   2.851   0.783
 4084TIP3    H212196   3.435   3.003   0.777
 4085TIP3   OH212197   3.947   5.243   3.424
 4085TIP3    H112198   3.852   5.241   3.438
 4085TIP3    H212199   3.984   5.256   3.512
 4086TIP3   OH212200   4.273   3.123   4.342
 4086TIP3    H112201   4.346   3.134   4.403
 4086TIP3    H212202   4.198   3.159   4.390
 4087TIP3   OH212203   2.408   0.842   5.013
 4087TIP3    H112204   2.396   0.794   5.095
 4087TIP3    H212205   2.438   0.929   5.041
 4088TIP3   OH212206   4.074   3.368   2.683
 4088TIP3    H112207   4.075   3.435   2.752
 4088TIP3    H212208   4.077   3.285   2.730
 4089TIP3   OH212209   4.679   0.835   2.285
 4089TIP3    H112210   4.591   0.801   2.301
 4089TIP3    H212211   4.702   0.882   2.365
 4090TIP3   OH212212   1.517   3.334   0.201
 4090TIP3    H112213   1.463   3.276   0.147
 4090TIP3    H212214   1.466   3.348   0.280
 4091TIP3   OH212215   0.179   0.412   6.185
 4091TIP3    H112216   0.139   0.487   6.140
 4091TIP3    H212217   0.230   0.368   6.116
 4092TIP3   OH212218   7.337   6.131   2.290
 4092TIP3    H112219   7.424   6.100   2.265
 4092TIP3    H212220   7.353   6.207   2.346
 4093TIP3   OH212221   5.984   7.286   2.053
 4093TIP3    H112222   6.039   7.236   2.113
 4093TIP3    H212223   5.992   7.376   2.083
 4094TIP3   OH212224   2.184   0.311   5.221
 4094TIP3    H112225   2.276   0.333   5.208
 4094TIP3    H212226   2.176   0.221   5.190
 4095TIP3   OH212227   6.756   6.803   4.422
 4095TIP3    H112228   6.718   6.888   4.400
 4095TIP3    H212229   6.684   6.741   4.416
 4096TIP3   OH212230   5.891   0.549   2.174
 4096TIP3    H112231   5.927   0.491   2.107
 4096TIP3    H212232   5.796   0.548   2.158
 4097TIP3   OH212233   7.659   0.189   4.378
 4097TIP3    H112234   7.753   0.203   4.371
 4097TIP3    H212235   7.620   0.258   4.324
 4098TIP3   OH212236   4.365   0.237   3.170
 4098TIP3    H112237   4.358   0.149   3.207
 4098TIP3    H212238   4.294   0.241   3.106
 4099TIP3   OH212239   7.491   0.283   2.202
 4099TIP3    H112240   7.427   0.325   2.144
 4099TIP3    H212241   7.559   0.349   2.215
 4100TIP3   OH212242   5.875   0.056   0.706
 4100TIP3    H112243   5.824   0.059   0.787
 4100TIP3    H212244   5.885  -0.038   0.688
 4101TIP3   OH212245   4.311   5.227   0.951
 4101TIP3    H112246   4.218   5.220   0.976
 4101TIP3    H212247   4.309   5.264   0.863
 4102TIP3   OH212248   7.716   3.944   3.674
 4102TIP3    H112249   7.693   3.984   3.590
 4102TIP3    H212250   7.697   3.851   3.661
 4103TIP3   OH212251   4.920   3.623   1.179
 4103TIP3    H112252   4.835   3.665   1.183
 4103TIP3    H212253   4.922   3.564   1.254
 4104TIP3   OH212254   4.596   2.819   6.432
 4104TIP3    H112255   4.572   2.853   6.518
 4104TIP3    H212256   4.526   2.759   6.409
 4105TIP3   OH212257   6.804   6.651   0.851
 4105TIP3    H112258   6.804   6.603   0.934
 4105TIP3    H212259   6.715   6.684   0.841
 4106TIP3   OH212260   4.934   4.475   4.362
 4106TIP3    H112261   4.919   4.447   4.452
 4106TIP3    H212262   4.937   4.570   4.367
 4107TIP3   OH212263   1.533   1.216   6.575
 4107TIP3    H112264   1.453   1.190   6.621
 4107TIP3    H212265   1.575   1.279   6.632
 4108TIP3   OH212266   7.766   3.189   4.283
 4108TIP3    H112267   7.828   3.178   4.211
 4108TIP3    H212268   7.791   3.272   4.323
 4109TIP3   OH212269   0.615   2.535   5.360
 4109TIP3    H112270   0.602   2.469   5.292
 4109TIP3    H212271   0.709   2.555   5.356
 4110TIP3   OH212272   0.088   4.257   3.255
 4110TIP3    H112273  -0.005   4.235   3.256
 4110TIP3    H212274   0.126   4.194   3.194
 4111TIP3   OH212275   6.622   0.035   0.229
 4111TIP3    H112276   6.625  -0.042   0.173
 4111TIP3    H212277   6.708   0.039   0.271
 4112TIP3   OH212278   5.037   5.117   5.002
 4112TIP3    H112279   5.050   5.148   5.092
 4112TIP3    H212280   4.982   5.039   5.011
 4113TIP3   OH212281   0.927   2.545   6.444
 4113TIP3    H112282   0.980   2.622   6.466
 4113TIP3    H212283   0.836   2.577   6.446
 4114TIP3   OH212284   2.534   4.488   3.100
 4114TIP3    H112285   2.574   4.408   3.065
 4114TIP3    H212286   2.442   4.465   3.111
 4115TIP3   OH212287   1.228   1.129   0.926
 4115TIP3    H112288   1.316   1.162   0.945
 4115TIP3    H212289   1.239   1.076   0.847
 4116TIP3   OH212290   6.217   3.605   3.263
 4116TIP3    H112291   6.246   3.550   3.191
 4116TIP3    H212292   6.168   3.547   3.321
 4117TIP3   OH212293   2.061   2.246   5.161
 4117TIP3    H112294   2.124   2.316   5.178
 4117TIP3    H212295   2.084   2.177   5.222
 4118TIP3   OH212296   5.436   3.044   4.660
 4118TIP3    H112297   5.527   3.016   4.665
 4118TIP3    H212298   5.386   2.970   4.693
 4119TIP3   OH212299   2.348   6.671   6.486
 4119TIP3    H112300   2.415   6.607   6.463
 4119TIP3    H212301   2.300   6.631   6.559
 4120TIP3   OH212302   3.701   5.686   4.145
 4120TIP3    H112303   3.647   5.729   4.211
 4120TIP3    H212304   3.791   5.698   4.176
 4121TIP3   OH212305   7.061   5.181   0.116
 4121TIP3    H112306   7.018   5.102   0.148
 4121TIP3    H212307   7.017   5.200   0.033
 4122TIP3   OH212308   1.686   6.265   4.172
 4122TIP3    H112309   1.644   6.350   4.186
 4122TIP3    H212310   1.614   6.203   4.169
 4123TIP3   OH212311   5.907   6.957   3.740
 4123TIP3    H112312   5.968   6.994   3.804
 4123TIP3    H212313   5.856   7.032   3.709
 4124TIP3   OH212314   6.984   3.998   5.653
 4124TIP3    H112315   7.029   4.083   5.653
 4124TIP3    H212316   7.036   3.944   5.593
 4125TIP3   OH212317   6.836   5.762   2.129
 4125TIP3    H112318   6.900   5.813   2.080
 4125TIP3    H212319   6.759   5.819   2.136
 4126TIP3   OH212320   1.047   4.240   2.271
 4126TIP3    H112321   1.049   4.173   2.203
 4126TIP3    H212322   0.966   4.222   2.319
 4127TIP3   OH212323   0.322   6.689   2.224
 4127TIP3    H112324   0.360   6.752   2.285
 4127TIP3    H212325   0.393   6.628   2.205
 4128TIP3   OH212326   2.735   0.269   1.131
 4128TIP3    H112327   2.778   0.229   1.055
 4128TIP3    H212328   2.676   0.334   1.093
 4129TIP3   OH212329   4.430   5.581   5.528
 4129TIP3    H112330   4.393   5.667   5.508
 4129TIP3    H212331   4.357   5.533   5.566
 4130TIP3   OH212332   0.813   7.132   5.022
 4130TIP3    H112333   0.838   7.048   5.061
 4130TIP3    H212334   0.895   7.170   4.992
 4131TIP3   OH212335   2.152   2.614   2.532
 4131TIP3    H112336   2.229   2.579   2.488
 4131TIP3    H212337   2.185   2.648   2.615
 4132TIP3   OH212338   7.657   0.855   5.465
 4132TIP3    H112339   7.628   0.841   5.375
 4132TIP3    H212340   7.576   0.866   5.515
 4133TIP3   OH212341   3.481   2.992   6.702
 4133TIP3    H112342   3.397   2.948   6.706
 4133TIP3    H212343   3.512   2.994   6.792
 4134TIP3   OH212344   2.522   4.384   4.070
 4134TIP3    H112345   2.551   4.373   3.980
 4134TIP3    H212346   2.582   4.450   4.106
 4135TIP3   OH212347   6.210   7.312   1.874
 4135TIP3    H112348   6.242   7.337   1.788
 4135TIP3    H212349   6.153   7.237   1.857
 4136TIP3   OH212350   1.362   6.123   4.371
 4136TIP3    H112351   1.269   6.103   4.381
 4136TIP3    H212352   1.365   6.189   4.302
 4137TIP3   OH212353   3.904   1.955   4.358
 4137TIP3    H112354   3.820   1.965   4.312
 4137TIP3    H212355   3.956   2.030   4.330
 4138TIP3   OH212356   8.059   7.250   3.763
 4138TIP3    H112357   8.109   7.201   3.829
 4138TIP3    H212358   8.125   7.304   3.719
 4139TIP3   OH212359   5.030   0.321   3.720
 4139TIP3    H112360   5.061   0.301   3.808
 4139TIP3    H212361   4.951   0.269   3.709
 4140TIP3   OH212362   2.908   2.853   0.403
 4140TIP3    H112363   2.832   2.851   0.343
 4140TIP3    H212364   2.982   2.875   0.346
 4141TIP3   OH212365   5.621   4.786   6.605
 4141TIP3    H112366   5.529   4.812   6.601
 4141TIP3    H212367   5.621   4.708   6.661
 4142TIP3   OH212368   5.941   6.099   1.042
 4142TIP3    H112369   5.976   6.062   0.961
 4142TIP3    H212370   5.967   6.037   1.110
 4143TIP3   OH212371   3.277   3.838   2.713
 4143TIP3    H112372   3.265   3.922   2.668
 4143TIP3    H212373   3.323   3.860   2.794
 4144TIP3   OH212374   1.275   5.719   5.470
 4144TIP3    H112375   1.303   5.802   5.507
 4144TIP3    H212376   1.202   5.742   5.412
 4145TIP3   OH212377   0.715   1.029   0.501
 4145TIP3    H112378   0.768   1.025   0.580
 4145TIP3    H212379   0.759   0.971   0.439
 4146TIP3   OH212380   2.081   3.604   0.689
 4146TIP3    H112381   2.108   3.634   0.776
 4146TIP3    H212382   2.092   3.509   0.692
 4147TIP3   OH212383   5.338   4.814   1.967
 4147TIP3    H112384   5.275   4.869   2.014
 4147TIP3    H212385   5.331   4.729   2.009
 4148TIP3   OH212386   5.476   4.857   5.568
 4148TIP3    H112387   5.462   4.827   5.478
 4148TIP3    H212388   5.400   4.825   5.616
 4149TIP3   OH212389   8.148   1.293   1.287
 4149TIP3    H112390   8.180   1.270   1.374
 4149TIP3    H212391   8.215   1.260   1.227
 4150TIP3   OH212392   8.280   6.750   4.829
 4150TIP3    H112393   8.210   6.802   4.790
 4150TIP3    H212394   8.236   6.669   4.858
 4151TIP3   OH212395   3.439   0.890   0.514
 4151TIP3    H112396   3.453   0.961   0.576
 4151TIP3    H212397   3.516   0.893   0.457
 4152TIP3   OH212398   4.233   0.143   5.270
 4152TIP3    H112399   4.210   0.092   5.192
 4152TIP3    H212400   4.238   0.233   5.239
 4153TIP3   OH212401   5.238   4.755   4.409
 4153TIP3    H112402   5.310   4.810   4.379
 4153TIP3    H212403   5.159   4.801   4.381
 4154TIP3   OH212404   1.831   6.982   1.805
 4154TIP3    H112405   1.888   6.985   1.882
 4154TIP3    H212406   1.840   6.892   1.772
 4155TIP3   OH212407   2.415   5.135   5.936
 4155TIP3    H112408   2.384   5.156   5.848
 4155TIP3    H212409   2.468   5.210   5.962
 4156TIP3   OH212410   5.671   1.255   5.129
 4156TIP3    H112411   5.690   1.264   5.222
 4156TIP3    H212412   5.664   1.160   5.115
 4157TIP3   OH212413   7.099   3.830   6.730
 4157TIP3    H112414   7.154   3.804   6.657
 4157TIP3    H212415   7.100   3.755   6.789
 4158TIP3   OH212416   1.439   7.772   5.045
 4158TIP3    H112417   1.493   7.801   4.971
 4158TIP3    H212418   1.466   7.682   5.061
 4159TIP3   OH212419   2.592   2.065   4.211
 4159TIP3    H112420   2.673   2.067   4.161
 4159TIP3    H212421   2.572   1.972   4.221
 4160TIP3   OH212422   7.701   2.816   4.203
 4160TIP3    H112423   7.613   2.853   4.193
 4160TIP3    H212424   7.716   2.766   4.123
 4161TIP3   OH212425   4.308   3.146   4.065
 4161TIP3    H112426   4.283   3.124   4.155
 4161TIP3    H212427   4.404   3.135   4.064
 4162TIP3   OH212428   7.836   4.588   4.451
 4162TIP3    H112429   7.857   4.546   4.367
 4162TIP3    H212430   7.803   4.517   4.505
 4163TIP3   OH212431   0.612   6.052   3.969
 4163TIP3    H112432   0.592   5.991   4.040
 4163TIP3    H212433   0.633   5.995   3.894
 4164TIP3   OH212434   2.481   0.680   5.596
 4164TIP3    H112435   2.445   0.768   5.582
 4164TIP3    H212436   2.547   0.671   5.528
 4165TIP3   OH212437   0.582   0.743   5.164
 4165TIP3    H112438   0.502   0.691   5.157
 4165TIP3    H212439   0.619   0.718   5.249
 4166TIP3   OH212440   5.758   1.047   1.936
 4166TIP3    H112441   5.793   1.134   1.918
 4166TIP3    H212442   5.739   1.048   2.030
 4167TIP3   OH212443   8.022   3.066   2.103
 4167TIP3    H112444   8.093   3.040   2.161
 4167TIP3    H212445   8.010   2.991   2.044
 4168TIP3   OH212446   1.935   0.728   4.093
 4168TIP3    H112447   2.017   0.722   4.141
 4168TIP3    H212448   1.960   0.726   4.001
 4169TIP3   OH212449   7.735   4.613   0.988
 4169TIP3    H112450   7.712   4.559   1.063
 4169TIP3    H212451   7.772   4.552   0.924
 4170TIP3   OH212452   7.313   7.555   5.734
 4170TIP3    H112453   7.302   7.524   5.824
 4170TIP3    H212454   7.407   7.567   5.724
 4171TIP3   OH212455   5.861   4.624   1.306
 4171TIP3    H112456   5.872   4.651   1.397
 4171TIP3    H212457   5.824   4.536   1.311
 4172TIP3   OH212458   7.552   6.865   3.875
 4172TIP3    H112459   7.545   6.891   3.783
 4172TIP3    H212460   7.559   6.770   3.872
 4173TIP3   OH212461   3.248   4.305   5.622
 4173TIP3    H112462   3.287   4.386   5.589
 4173TIP3    H212463   3.154   4.322   5.623
 4174TIP3   OH212464   0.938   7.719   4.158
 4174TIP3    H112465   0.892   7.703   4.076
 4174TIP3    H212466   0.892   7.664   4.222
 4175TIP3   OH212467   0.937   4.561   4.535
 4175TIP3    H112468   0.879   4.519   4.472
 4175TIP3    H212469   0.900   4.648   4.549
 4176TIP3   OH212470   0.931   0.840   2.749
 4176TIP3    H112471   1.005   0.792   2.785
 4176TIP3    H212472   0.961   0.871   2.664
 4177TIP3   OH212473   7.228   7.074   6.233
 4177TIP3    H112474   7.150   7.120   6.203
 4177TIP3    H212475   7.295   7.141   6.242
 4178TIP3   OH212476   0.955   7.232   0.873
 4178TIP3    H112477   0.872   7.184   0.863
 4178TIP3    H212478   1.003   7.184   0.940
 4179TIP3   OH212479  -0.010   4.863   0.834
 4179TIP3    H112480  -0.038   4.927   0.769
 4179TIP3    H212481   0.037   4.914   0.900
 4180TIP3   OH212482   3.106   4.696   0.148
 4180TIP3    H112483   3.188   4.728   0.110
 4180TIP3    H212484   3.060   4.775   0.176
 4181TIP3   OH212485   4.593   3.124   2.047
 4181TIP3    H112486   4.665   3.097   2.105
 4181TIP3    H212487   4.517   3.075   2.079
 4182TIP3   OH212488   5.982   6.144   2.691
 4182TIP3    H112489   5.905   6.186   2.730
 4182TIP3    H212490   5.962   6.051   2.693
 4183TIP3   OH212491   1.305   6.229   6.125
 4183TIP3    H112492   1.398   6.238   6.146
 4183TIP3    H212493   1.294   6.277   6.043
 4184TIP3   OH212494   2.471   2.312   0.663
 4184TIP3    H112495   2.474   2.221   0.693
 4184TIP3    H212496   2.451   2.306   0.570
 4185TIP3   OH212497   5.463   3.006   2.478
 4185TIP3    H112498   5.377   3.011   2.520
 4185TIP3    H212499   5.524   2.997   2.551
 4186TIP3   OH212500   3.099   5.821   2.305
 4186TIP3    H112501   3.081   5.857   2.218
 4186TIP3    H212502   3.026   5.850   2.358
 4187TIP3   OH212503   2.220   2.505   6.684
 4187TIP3    H112504   2.267   2.538   6.608
 4187TIP3    H212505   2.160   2.440   6.649
 4188TIP3   OH212506   3.721   6.689   0.586
 4188TIP3    H112507   3.777   6.704   0.509
 4188TIP3    H212508   3.644   6.743   0.570
 4189TIP3   OH212509   3.933   6.565   5.643
 4189TIP3    H112510   3.843   6.533   5.643
 4189TIP3    H212511   3.947   6.597   5.732
 4190TIP3   OH212512   6.492   3.481   6.395
 4190TIP3    H112513   6.414   3.523   6.358
 4190TIP3    H212514   6.548   3.464   6.319
 4191TIP3   OH212515   0.769   2.150   4.145
 4191TIP3    H112516   0.683   2.144   4.104
 4191TIP3    H212517   0.756   2.211   4.218
 4192TIP3   OH212518   7.040   4.488   2.099
 4192TIP3    H112519   7.117   4.459   2.050
 4192TIP3    H212520   7.053   4.583   2.110
 4193TIP3   OH212521   0.698   3.948   1.237
 4193TIP3    H112522   0.722   3.886   1.167
 4193TIP3    H212523   0.657   4.021   1.191
 4194TIP3   OH212524   7.751   5.884   2.104
 4194TIP3    H112525   7.708   5.863   2.021
 4194TIP3    H212526   7.792   5.802   2.131
 4195TIP3   OH212527   1.033   3.797   5.898
 4195TIP3    H112528   0.993   3.840   5.822
 4195TIP3    H212529   1.109   3.852   5.919
 4196TIP3   OH212530   5.378   7.657   5.412
 4196TIP3    H112531   5.284   7.672   5.400
 4196TIP3    H212532   5.416   7.744   5.419
 4197TIP3   OH212533   4.925   4.478   1.313
 4197TIP3    H112534   4.923   4.418   1.387
 4197TIP3    H212535   4.833   4.499   1.296
 4198TIP3   OH212536   4.581   4.745   6.170
 4198TIP3    H112537   4.489   4.720   6.179
 4198TIP3    H212538   4.580   4.822   6.112
 4199TIP3   OH212539   1.473   1.931   5.479
 4199TIP3    H112540   1.432   1.878   5.547
 4199TIP3    H212541   1.524   1.996   5.527
 4200TIP3   OH212542   2.248   7.441   4.808
 4200TIP3    H112543   2.296   7.374   4.857
 4200TIP3    H212544   2.242   7.405   4.719
 4201TIP3   OH212545   8.015   3.892   4.181
 4201TIP3    H112546   7.935   3.852   4.215
 4201TIP3    H212547   8.086   3.841   4.220
 4202TIP3   OH212548   6.648   6.284   3.150
 4202TIP3    H112549   6.591   6.256   3.078
 4202TIP3    H212550   6.735   6.290   3.110
 4203TIP3   OH212551   6.870   2.451   4.407
 4203TIP3    H112552   6.847   2.395   4.481
 4203TIP3    H212553   6.799   2.515   4.402
 4204TIP3   OH212554   7.846   3.011   4.512
 4204TIP3    H112555   7.898   3.074   4.561
 4204TIP3    H212556   7.827   3.055   4.429
 4205TIP3   OH212557   3.893   6.870   6.537
 4205TIP3    H112558   3.925   6.959   6.554
 4205TIP3    H212559   3.923   6.850   6.448
 4206TIP3   OH212560   3.914   6.039   4.007
 4206TIP3    H112561   3.869   5.956   3.997
 4206TIP3    H212562   3.976   6.042   3.934
 4207TIP3   OH212563   1.878   6.297   0.393
 4207TIP3    H112564   1.920   6.259   0.316
 4207TIP3    H212565   1.847   6.221   0.443
 4208TIP3   OH212566   8.070   0.086   4.561
 4208TIP3    H112567   8.109   0.037   4.489
 4208TIP3    H212568   8.134   0.082   4.632
 4209TIP3   OH212569   7.266   5.218   5.523
 4209TIP3    H112570   7.321   5.170   5.461
 4209TIP3    H212571   7.181   5.175   5.518
 4210TIP3   OH212572   2.747   5.651   5.086
 4210TIP3    H112573   2.809   5.665   5.015
 4210TIP3    H212574   2.795   5.598   5.150
 4211TIP3   OH212575   0.940   6.029   2.062
 4211TIP3    H112576   0.854   6.040   2.022
 4211TIP3    H212577   0.943   5.936   2.087
 4212TIP3   OH212578   4.467   1.436   3.194
 4212TIP3    H112579   4.392   1.399   3.241
 4212TIP3    H212580   4.471   1.387   3.112
 4213TIP3   OH212581   5.963   4.853   3.239
 4213TIP3    H112582   5.961   4.789   3.310
 4213TIP3    H212583   6.024   4.815   3.175
 4214TIP3   OH212584   2.114   1.587   0.065
 4214TIP3    H112585   2.155   1.596   0.152
 4214TIP3    H212586   2.020   1.580   0.084
 4215TIP3   OH212587   3.968   1.058   5.245
 4215TIP3    H112588   4.012   1.129   5.199
 4215TIP3    H212589   4.025   1.038   5.319
 4216TIP3   OH212590   1.092   1.704   4.557
 4216TIP3    H112591   1.186   1.691   4.540
 4216TIP3    H212592   1.077   1.667   4.643
 4217TIP3   OH212593   4.588   0.272   3.526
 4217TIP3    H112594   4.566   0.365   3.530
 4217TIP3    H212595   4.681   0.271   3.503
 4218TIP3   OH212596   1.023   1.574   5.828
 4218TIP3    H112597   1.087   1.626   5.877
 4218TIP3    H212598   0.938   1.608   5.857
 4219TIP3   OH212599   7.317   6.654   5.344
 4219TIP3    H112600   7.341   6.565   5.316
 4219TIP3    H212601   7.400   6.702   5.345
 4220TIP3   OH212602   1.255   4.484   1.716
 4220TIP3    H112603   1.344   4.518   1.717
 4220TIP3    H212604   1.202   4.559   1.688
 4221TIP3   OH212605   2.001   2.744   6.617
 4221TIP3    H112606   2.002   2.672   6.554
 4221TIP3    H212607   1.997   2.701   6.703
 4222TIP3   OH212608   2.540   6.671   0.142
 4222TIP3    H112609   2.556   6.685   0.049
 4222TIP3    H212610   2.451   6.638   0.147
 4223TIP3   OH212611   6.508   2.330   5.649
 4223TIP3    H112612   6.470   2.414   5.675
 4223TIP3    H212613   6.597   2.332   5.686
 4224TIP3   OH212614   5.942   6.718   4.612
 4224TIP3    H112615   6.029   6.751   4.591
 4224TIP3    H212616   5.955   6.625   4.633
 4225TIP3   OH212617   6.987   7.129   6.086
 4225TIP3    H112618   6.916   7.152   6.147
 4225TIP3    H212619   7.007   7.038   6.106
 4226TIP3   OH212620   5.760   0.434   3.377
 4226TIP3    H112621   5.679   0.391   3.350
 4226TIP3    H212622   5.787   0.485   3.300
 4227TIP3   OH212623   6.316   3.540   5.000
 4227TIP3    H112624   6.246   3.519   4.938
 4227TIP3    H212625   6.351   3.454   5.024
 4228TIP3   OH212626   6.129   3.943   0.055
 4228TIP3    H112627   6.055   3.915   0.001
 4228TIP3    H212628   6.168   4.015   0.005
 4229TIP3   OH212629   3.342   6.245   0.093
 4229TIP3    H112630   3.268   6.304   0.108
 4229TIP3    H212631   3.394   6.251   0.173
 4230TIP3   OH212632   1.681   6.988   0.523
 4230TIP3    H112633   1.759   6.945   0.556
 4230TIP3    H212634   1.649   7.042   0.596
 4231TIP3   OH212635   1.317   3.940   4.858
 4231TIP3    H112636   1.283   3.989   4.784
 4231TIP3    H212637   1.363   4.005   4.912
 4232TIP3   OH212638   4.316   4.545   1.717
 4232TIP3    H112639   4.281   4.634   1.720
 4232TIP3    H212640   4.305   4.518   1.626
 4233TIP3   OH212641   5.272   1.006   5.122
 4233TIP3    H112642   5.248   1.096   5.098
 4233TIP3    H212643   5.200   0.952   5.089
 4234TIP3   OH212644   1.772   5.492   6.635
 4234TIP3    H112645   1.769   5.401   6.606
 4234TIP3    H212646   1.863   5.519   6.623
 4235TIP3   OH212647   4.407   6.968   0.255
 4235TIP3    H112648   4.381   7.058   0.233
 4235TIP3    H212649   4.495   6.976   0.291
 4236TIP3   OH212650   5.786   4.711   0.266
 4236TIP3    H112651   5.696   4.744   0.271
 4236TIP3    H212652   5.824   4.730   0.351
 4237TIP3   OH212653   0.535   6.183   3.370
 4237TIP3    H112654   0.480   6.234   3.430
 4237TIP3    H212655   0.488   6.187   3.286
 4238TIP3   OH212656   1.840   6.866   1.267
 4238TIP3    H112657   1.889   6.790   1.236
 4238TIP3    H212658   1.793   6.897   1.189
 4239TIP3   OH212659   5.921   7.269   6.265
 4239TIP3    H112660   5.857   7.276   6.336
 4239TIP3    H212661   5.945   7.176   6.263
 4240TIP3   OH212662   5.410   0.391   6.019
 4240TIP3    H112663   5.494   0.422   5.984
 4240TIP3    H212664   5.360   0.471   6.035
 4241TIP3   OH212665   4.398   0.256   0.447
 4241TIP3    H112666   4.381   0.250   0.540
 4241TIP3    H212667   4.459   0.330   0.439
 4242TIP3   OH212668   6.116   1.885   0.848
 4242TIP3    H112669   6.103   1.859   0.756
 4242TIP3    H212670   6.081   1.811   0.898
 4243TIP3   OH212671   5.060   0.410   3.337
 4243TIP3    H112672   5.127   0.374   3.278
 4243TIP3    H212673   5.041   0.497   3.300
 4244TIP3   OH212674   5.684   5.470   4.632
 4244TIP3    H112675   5.747   5.480   4.704
 4244TIP3    H212676   5.638   5.389   4.651
 4245TIP3   OH212677   0.508   7.292   4.594
 4245TIP3    H112678   0.573   7.301   4.664
 4245TIP3    H212679   0.441   7.234   4.631
 4246TIP3   OH212680   5.088   5.361   0.366
 4246TIP3    H112681   5.141   5.411   0.304
 4246TIP3    H212682   5.000   5.396   0.355
 4247TIP3   OH212683   2.191   6.936   0.952
 4247TIP3    H112684   2.129   7.004   0.927
 4247TIP3    H212685   2.271   6.982   0.973
 4248TIP3   OH212686   2.566   0.567   0.737
 4248TIP3    H112687   2.627   0.574   0.811
 4248TIP3    H212688   2.569   0.475   0.711
 4249TIP3   OH212689   2.987   6.550   6.339
 4249TIP3    H112690   2.950   6.559   6.427
 4249TIP3    H212691   2.969   6.460   6.315
 4250TIP3   OH212692   0.499   6.952   6.495
 4250TIP3    H112693   0.418   6.976   6.539
 4250TIP3    H212694   0.565   6.955   6.563
 4251TIP3   OH212695   5.046   2.743   5.717
 4251TIP3    H112696   4.986   2.723   5.788
 4251TIP3    H212697   4.990   2.753   5.640
 4252TIP3   OH212698   0.682   1.193   2.517
 4252TIP3    H112699   0.613   1.143   2.474
 4252TIP3    H212700   0.706   1.141   2.594
 4253TIP3   OH212701   7.992   0.258   3.954
 4253TIP3    H112702   7.903   0.236   3.928
 4253TIP3    H212703   7.982   0.324   4.023
 4254TIP3   OH212704   4.067   5.105   1.164
 4254TIP3    H112705   4.076   5.025   1.113
 4254TIP3    H212706   3.973   5.119   1.172
 4255TIP3   OH212707   5.777   2.492   0.740
 4255TIP3    H112708   5.754   2.448   0.658
 4255TIP3    H212709   5.719   2.454   0.805
 4256TIP3   OH212710   7.442   1.137   5.933
 4256TIP3    H112711   7.495   1.065   5.899
 4256TIP3    H212712   7.438   1.121   6.027
 4257TIP3   OH212713   2.733   2.681   2.679
 4257TIP3    H112714   2.790   2.632   2.620
 4257TIP3    H212715   2.758   2.772   2.667
 4258TIP3   OH212716   3.863   1.419   6.545
 4258TIP3    H112717   3.854   1.465   6.462
 4258TIP3    H212718   3.812   1.339   6.534
 4259TIP3   OH212719   6.953   6.933   1.798
 4259TIP3    H112720   6.881   6.898   1.746
 4259TIP3    H212721   6.921   7.017   1.832
 4260TIP3   OH212722   3.220   5.536   5.214
 4260TIP3    H112723   3.235   5.590   5.291
 4260TIP3    H212724   3.285   5.466   5.221
 4261TIP3   OH212725   7.392   0.629   4.778
 4261TIP3    H112726   7.354   0.546   4.749
 4261TIP3    H212727   7.448   0.657   4.706
 4262TIP3   OH212728   3.466   1.936   3.847
 4262TIP3    H112729   3.515   2.017   3.863
 4262TIP3    H212730   3.374   1.962   3.850
 4263TIP3   OH212731   5.721   7.317   0.323
 4263TIP3    H112732   5.678   7.337   0.406
 4263TIP3    H212733   5.802   7.368   0.324
 4264TIP3   OH212734   5.006   0.396   1.568
 4264TIP3    H112735   5.033   0.304   1.570
 4264TIP3    H212736   5.046   0.431   1.488
 4265TIP3   OH212737   5.574   4.434   1.136
 4265TIP3    H112738   5.509   4.492   1.098
 4265TIP3    H212739   5.552   4.347   1.101
 4266TIP3   OH212740   6.432   0.333   5.485
 4266TIP3    H112741   6.358   0.300   5.433
 4266TIP3    H212742   6.507   0.330   5.425
 4267TIP3   OH212743   3.655   0.458   1.411
 4267TIP3    H112744   3.687   0.472   1.321
 4267TIP3    H212745   3.704   0.381   1.441
 4268TIP3   OH212746   3.283   0.735   3.815
 4268TIP3    H112747   3.216   0.669   3.795
 4268TIP3    H212748   3.341   0.733   3.738
 4269TIP3   OH212749   4.190   1.939   2.684
 4269TIP3    H112750   4.256   1.936   2.754
 4269TIP3    H212751   4.171   2.032   2.672
 4270TIP3   OH212752   5.737   5.139   0.036
 4270TIP3    H112753   5.765   5.155  -0.054
 4270TIP3    H212754   5.689   5.218   0.061
 4271TIP3   OH212755   2.981   0.747   0.135
 4271TIP3    H112756   2.994   0.662   0.092
 4271TIP3    H212757   2.891   0.743   0.168
 4272TIP3   OH212758   4.265   2.312   3.162
 4272TIP3    H112759   4.204   2.277   3.097
 4272TIP3    H212760   4.240   2.269   3.244
 4273TIP3   OH212761   7.000   2.452   4.758
 4273TIP3    H112762   6.970   2.386   4.820
 4273TIP3    H212763   7.086   2.422   4.731
 4274TIP3   OH212764   3.448   0.799   2.230
 4274TIP3    H112765   3.469   0.773   2.140
 4274TIP3    H212766   3.406   0.721   2.268
 4275TIP3   OH212767   1.283   3.683   6.206
 4275TIP3    H112768   1.275   3.637   6.290
 4275TIP3    H212769   1.284   3.776   6.229
 4276TIP3   OH212770   0.855   5.148   6.249
 4276TIP3    H112771   0.847   5.238   6.279
 4276TIP3    H212772   0.789   5.140   6.180
 4277TIP3   OH212773   6.186   7.025   2.430
 4277TIP3    H112774   6.172   6.955   2.365
 4277TIP3    H212775   6.106   7.025   2.483
 4278TIP3   OH212776   7.062   5.955   5.125
 4278TIP3    H112777   7.134   5.936   5.065
 4278TIP3    H212778   7.059   6.051   5.130
 4279TIP3   OH212779   0.759   6.555   5.200
 4279TIP3    H112780   0.755   6.635   5.254
 4279TIP3    H212781   0.835   6.569   5.144
 4280TIP3   OH212782   7.954   3.385   2.995
 4280TIP3    H112783   7.994   3.458   3.042
 4280TIP3    H212784   7.866   3.378   3.032
 4281TIP3   OH212785   4.265   5.123   4.085
 4281TIP3    H112786   4.212   5.149   4.010
 4281TIP3    H212787   4.336   5.071   4.048
 4282TIP3   OH212788   1.290   0.433   1.222
 4282TIP3    H112789   1.217   0.466   1.169
 4282TIP3    H212790   1.331   0.366   1.167
 4283TIP3   OH212791   5.085   6.927   5.976
 4283TIP3    H112792   5.102   6.975   6.057
 4283TIP3    H212793   5.027   6.985   5.925
 4284TIP3   OH212794   2.165   1.383   1.596
 4284TIP3    H112795   2.151   1.290   1.616
 4284TIP3    H212796   2.124   1.395   1.510
 4285TIP3   OH212797   4.391   4.212   5.361
 4285TIP3    H112798   4.431   4.131   5.332
 4285TIP3    H212799   4.401   4.272   5.287
 4286TIP3   OH212800   6.596   6.606   0.441
 4286TIP3    H112801   6.641   6.536   0.488
 4286TIP3    H212802   6.517   6.566   0.406
 4287TIP3   OH212803   8.249   4.000   4.054
 4287TIP3    H112804   8.234   4.052   4.133
 4287TIP3    H212805   8.176   3.938   4.052
 4288TIP3   OH212806   6.504   6.903   0.903
 4288TIP3    H112807   6.516   6.822   0.853
 4288TIP3    H212808   6.540   6.884   0.989
 4289TIP3   OH212809   2.854   4.220   2.617
 4289TIP3    H112810   2.785   4.282   2.639
 4289TIP3    H212811   2.935   4.270   2.629
 4290TIP3   OH212812   2.582   3.022   1.631
 4290TIP3    H112813   2.572   3.098   1.574
 4290TIP3    H212814   2.493   2.989   1.645
 4291TIP3   OH212815   3.427   1.091   2.705
 4291TIP3    H112816   3.398   1.035   2.634
 4291TIP3    H212817   3.369   1.166   2.703
 4292TIP3   OH212818   0.266   5.844   0.744
 4292TIP3    H112819   0.185   5.821   0.789
 4292TIP3    H212820   0.270   5.784   0.670
 4293TIP3   OH212821   6.005   1.585   5.747
 4293TIP3    H112822   6.006   1.582   5.651
 4293TIP3    H212823   6.097   1.572   5.772
 4294TIP3   OH212824   1.516   4.191   3.091
 4294TIP3    H112825   1.425   4.203   3.119
 4294TIP3    H212826   1.566   4.248   3.148
 4295TIP3   OH212827   8.045   6.143   0.513
 4295TIP3    H112828   7.986   6.158   0.439
 4295TIP3    H212829   8.010   6.065   0.556
 4296TIP3   OH212830   1.237   1.330   5.577
 4296TIP3    H112831   1.281   1.390   5.637
 4296TIP3    H212832   1.278   1.348   5.492
 4297TIP3   OH212833   4.935   0.469   2.752
 4297TIP3    H112834   4.901   0.558   2.743
 4297TIP3    H212835   4.889   0.432   2.827
 4298TIP3   OH212836   6.327   1.610   1.019
 4298TIP3    H112837   6.286   1.554   0.953
 4298TIP3    H212838   6.263   1.614   1.090
 4299TIP3   OH212839   4.112   5.289   5.784
 4299TIP3    H112840   4.137   5.257   5.698
 4299TIP3    H212841   4.114   5.211   5.840
 4300TIP3   OH212842   2.209   4.108   3.293
 4300TIP3    H112843   2.164   4.030   3.326
 4300TIP3    H212844   2.272   4.074   3.230
 4301TIP3   OH212845   6.154   5.571   5.151
 4301TIP3    H112846   6.213   5.499   5.171
 4301TIP3    H212847   6.131   5.608   5.236
 4302TIP3   OH212848   4.543   6.667   0.428
 4302TIP3    H112849   4.454   6.645   0.401
 4302TIP3    H212850   4.532   6.732   0.497
 4303TIP3   OH212851   2.612   2.004   6.172
 4303TIP3    H112852   2.585   2.091   6.201
 4303TIP3    H212853   2.626   2.013   6.078
 4304TIP3   OH212854   2.646   5.883   4.881
 4304TIP3    H112855   2.653   5.975   4.907
 4304TIP3    H212856   2.600   5.841   4.953
 4305TIP3   OH212857   2.571   2.836   6.324
 4305TIP3    H112858   2.580   2.741   6.326
 4305TIP3    H212859   2.661   2.868   6.318
 4306TIP3   OH212860   5.850   0.962   3.022
 4306TIP3    H112861   5.785   0.939   3.088
 4306TIP3    H212862   5.928   0.914   3.048
 4307TIP3   OH212863   1.237   3.952   4.365
 4307TIP3    H112864   1.165   3.912   4.413
 4307TIP3    H212865   1.312   3.947   4.424
 4308TIP3   OH212866   7.302   6.419   3.371
 4308TIP3    H112867   7.207   6.415   3.385
 4308TIP3    H212868   7.315   6.372   3.289
 4309TIP3   OH212869   6.423   2.845   6.446
 4309TIP3    H112870   6.508   2.888   6.457
 4309TIP3    H212871   6.444   2.752   6.435
 4310TIP3   OH212872   7.522   6.567   0.758
 4310TIP3    H112873   7.504   6.559   0.665
 4310TIP3    H212874   7.494   6.655   0.781
 4311TIP3   OH212875   6.953   5.881   0.787
 4311TIP3    H112876   7.034   5.864   0.737
 4311TIP3    H212877   6.951   5.811   0.853
 4312TIP3   OH212878   7.444   3.773   3.809
 4312TIP3    H112879   7.459   3.825   3.888
 4312TIP3    H212880   7.425   3.838   3.741
 4313TIP3   OH212881   4.565   0.737   0.093
 4313TIP3    H112882   4.497   0.746   0.026
 4313TIP3    H212883   4.622   0.812   0.078
 4314TIP3   OH212884   7.687   7.701   0.262
 4314TIP3    H112885   7.594   7.706   0.243
 4314TIP3    H212886   7.729   7.744   0.187
 4315TIP3   OH212887   4.100   3.383   6.464
 4315TIP3    H112888   4.168   3.317   6.474
 4315TIP3    H212889   4.143   3.466   6.488
 4316TIP3   OH212890   7.162  -0.017   3.441
 4316TIP3    H112891   7.225   0.051   3.466
 4316TIP3    H212892   7.077   0.027   3.449
 4317TIP3   OH212893   6.539   6.613   4.007
 4317TIP3    H112894   6.625   6.655   4.002
 4317TIP3    H212895   6.553   6.534   4.059
 4318TIP3   OH212896   3.007   0.333   4.533
 4318TIP3    H112897   2.994   0.289   4.448
 4318TIP3    H212898   3.102   0.335   4.544
 4319TIP3   OH212899   6.455   4.309   4.924
 4319TIP3    H112900   6.549   4.317   4.906
 4319TIP3    H212901   6.438   4.375   4.992
 4320TIP3   OH212902   4.456   3.104   6.324
 4320TIP3    H112903   4.548   3.091   6.345
 4320TIP3    H212904   4.457   3.163   6.249
 4321TIP3   OH212905   4.221   0.711   4.445
 4321TIP3    H112906   4.203   0.799   4.477
 4321TIP3    H212907   4.145   0.689   4.390
 4322TIP3   OH212908   1.110   4.690   0.178
 4322TIP3    H112909   1.114   4.650   0.265
 4322TIP3    H212910   1.017   4.687   0.156
 4323TIP3   OH212911   2.025   7.519   5.952
 4323TIP3    H112912   1.941   7.474   5.943
 4323TIP3    H212913   2.066   7.508   5.866
 4324TIP3   OH212914   1.505   0.113   0.331
 4324TIP3    H112915   1.573   0.181   0.336
 4324TIP3    H212916   1.524   0.055   0.405
 4325TIP3   OH212917   4.517   6.824   0.675
 4325TIP3    H112918   4.575   6.749   0.665
 4325TIP3    H212919   4.552   6.873   0.750
 4326TIP3   OH212920   2.470   5.680   1.506
 4326TIP3    H112921   2.464   5.585   1.496
 4326TIP3    H212922   2.530   5.707   1.437
 4327TIP3   OH212923   1.164   7.569   4.541
 4327TIP3    H112924   1.245   7.536   4.580
 4327TIP3    H212925   1.116   7.606   4.615
 4328TIP3   OH212926   1.109   6.625   5.447
 4328TIP3    H112927   1.069   6.604   5.531
 4328TIP3    H212928   1.186   6.568   5.442
 4329TIP3   OH212929   1.384   0.827   1.532
 4329TIP3    H112930   1.296   0.789   1.528
 4329TIP3    H212931   1.378   0.893   1.601
 4330TIP3   OH212932   0.921   7.467   3.641
 4330TIP3    H112933   0.985   7.440   3.707
 4330TIP3    H212934   0.926   7.400   3.573
 4331TIP3   OH212935   3.752   1.741   4.965
 4331TIP3    H112936   3.805   1.821   4.960
 4331TIP3    H212937   3.764   1.699   4.880
 4332TIP3   OH212938   6.807   4.603   6.716
 4332TIP3    H112939   6.875   4.552   6.761
 4332TIP3    H212940   6.746   4.537   6.683
 4333TIP3   OH212941   8.223   1.329   3.219
 4333TIP3    H112942   8.221   1.424   3.214
 4333TIP3    H212943   8.268   1.310   3.302
 4334TIP3   OH212944   0.127   7.166   5.167
 4334TIP3    H112945   0.046   7.207   5.135
 4334TIP3    H212946   0.143   7.094   5.106
 4335TIP3   OH212947   7.048   4.475   6.473
 4335TIP3    H112948   7.072   4.561   6.438
 4335TIP3    H212949   7.118   4.453   6.534
 4336TIP3   OH212950   2.954   0.170   6.624
 4336TIP3    H112951   2.951   0.109   6.697
 4336TIP3    H212952   2.889   0.237   6.646
 4337TIP3   OH212953   3.079   5.957   0.948
 4337TIP3    H112954   3.077   5.865   0.976
 4337TIP3    H212955   3.165   5.967   0.906
 4338TIP3   OH212956   0.693   7.587   0.531
 4338TIP3    H112957   0.729   7.640   0.603
 4338TIP3    H212958   0.693   7.497   0.565
 4339TIP3   OH212959   5.733   3.412   3.902
 4339TIP3    H112960   5.658   3.459   3.938
 4339TIP3    H212961   5.703   3.381   3.817
 4340TIP3   OH212962   2.353   4.867   2.442
 4340TIP3    H112963   2.280   4.889   2.501
 4340TIP3    H212964   2.327   4.785   2.402
 4341TIP3   OH212965   4.875   1.307   1.877
 4341TIP3    H112966   4.927   1.384   1.903
 4341TIP3    H212967   4.784   1.336   1.884
 4342TIP3   OH212968   0.618   4.089   1.005
 4342TIP3    H112969   0.526   4.104   0.985
 4342TIP3    H212970   0.659   4.067   0.921
 4343TIP3   OH212971   6.018   4.112   4.008
 4343TIP3    H112972   6.018   4.016   4.013
 4343TIP3    H212973   5.926   4.136   4.025
 4344TIP3   OH212974   0.400   3.962   1.697
 4344TIP3    H112975   0.374   4.040   1.745
 4344TIP3    H212976   0.480   3.933   1.740
 4345TIP3   OH212977   4.504   1.846   2.114
 4345TIP3    H112978   4.524   1.759   2.079
 4345TIP3    H212979   4.589   1.881   2.142
 4346TIP3   OH212980   1.788   5.071   2.950
 4346TIP3    H112981   1.710   5.024   2.921
 4346TIP3    H212982   1.815   5.122   2.874
 4347TIP3   OH212983   6.847   3.403   5.987
 4347TIP3    H112984   6.819   3.435   6.073
 4347TIP3    H212985   6.842   3.308   5.993
 4348TIP3   OH212986   6.987   4.917   2.908
 4348TIP3    H112987   7.079   4.893   2.900
 4348TIP3    H212988   6.947   4.891   2.825
 4349TIP3   OH212989   4.394   4.410   1.018
 4349TIP3    H112990   4.438   4.492   1.043
 4349TIP3    H212991   4.417   4.348   1.087
 4350TIP3   OH212992   2.498   5.688   2.176
 4350TIP3    H112993   2.510   5.593   2.179
 4350TIP3    H212994   2.578   5.721   2.135
 4351TIP3   OH212995   2.887   7.524   2.418
 4351TIP3    H112996   2.938   7.501   2.340
 4351TIP3    H212997   2.856   7.612   2.400
 4352TIP3   OH212998   3.233   2.647   5.734
 4352TIP3    H112999   3.161   2.673   5.792
 4352TIP3    H213000   3.292   2.723   5.735
 4353TIP3   OH213001   7.665   2.764   1.790
 4353TIP3    H113002   7.698   2.805   1.711
 4353TIP3    H213003   7.572   2.750   1.773
 4354TIP3   OH213004   4.076   4.386   2.304
 4354TIP3    H113005   3.990   4.386   2.348
 4354TIP3    H213006   4.104   4.477   2.308
 4355TIP3   OH213007   4.782   4.149   1.788
 4355TIP3    H113008   4.800   4.240   1.813
 4355TIP3    H213009   4.700   4.153   1.738
 4356TIP3   OH213010   4.461   5.839   3.599
 4356TIP3    H113011   4.452   5.747   3.626
 4356TIP3    H213012   4.459   5.888   3.681
 4357TIP3   OH213013   2.746   1.238   3.361
 4357TIP3    H113014   2.775   1.270   3.275
 4357TIP3    H213015   2.771   1.307   3.422
 4358TIP3   OH213016   7.815   6.097   5.142
 4358TIP3    H113017   7.753   6.051   5.085
 4358TIP3    H213018   7.876   6.139   5.081
 4359TIP3   OH213019   4.558   5.272   2.662
 4359TIP3    H113020   4.522   5.338   2.603
 4359TIP3    H213021   4.488   5.209   2.675
 4360TIP3   OH213022   6.245   7.782   6.216
 4360TIP3    H113023   6.170   7.725   6.202
 4360TIP3    H213024   6.209   7.871   6.211
 4361TIP3   OH213025   6.199   0.429   2.702
 4361TIP3    H113026   6.186   0.503   2.643
 4361TIP3    H213027   6.279   0.388   2.672
 4362TIP3   OH213028   7.923   0.848   1.571
 4362TIP3    H113029   7.844   0.853   1.518
 4362TIP3    H213030   7.949   0.756   1.566
 4363TIP3   OH213031   1.518   0.489   5.286
 4363TIP3    H113032   1.481   0.420   5.231
 4363TIP3    H213033   1.496   0.570   5.240
 4364TIP3   OH213034   6.011   5.677   3.509
 4364TIP3    H113035   6.045   5.694   3.422
 4364TIP3    H213036   5.967   5.593   3.501
 4365TIP3   OH213037   2.361   1.646   3.979
 4365TIP3    H113038   2.337   1.572   4.035
 4365TIP3    H213039   2.455   1.636   3.965
 4366TIP3   OH213040   2.580   2.970   5.415
 4366TIP3    H113041   2.590   2.875   5.412
 4366TIP3    H213042   2.491   2.983   5.447
 4367TIP3   OH213043   5.007   4.416   5.243
 4367TIP3    H113044   4.963   4.341   5.282
 4367TIP3    H213045   4.939   4.462   5.194
 4368TIP3   OH213046   2.010   7.234   5.718
 4368TIP3    H113047   2.055   7.318   5.724
 4368TIP3    H213048   1.921   7.257   5.691
 4369TIP3   OH213049   0.895   5.462   2.680
 4369TIP3    H113050   0.921   5.543   2.635
 4369TIP3    H213051   0.973   5.407   2.678
 4370TIP3   OH213052   0.052   7.301   0.168
 4370TIP3    H113053   0.040   7.225   0.225
 4370TIP3    H213054   0.144   7.325   0.180
 4371TIP3   OH213055   7.425   2.950   4.653
 4371TIP3    H113056   7.334   2.963   4.626
 4371TIP3    H213057   7.423   2.868   4.703
 4372TIP3   OH213058   2.579   2.473   4.606
 4372TIP3    H113059   2.524   2.436   4.537
 4372TIP3    H213060   2.549   2.564   4.615
 4373TIP3   OH213061   7.579   6.079   5.398
 4373TIP3    H113062   7.494   6.040   5.378
 4373TIP3    H213063   7.643   6.019   5.360
 4374TIP3   OH213064   7.844   4.218   5.182
 4374TIP3    H113065   7.763   4.174   5.207
 4374TIP3    H213066   7.897   4.149   5.143
 4375TIP3   OH213067   6.258   2.988   6.301
 4375TIP3    H113068   6.335   3.032   6.265
 4375TIP3    H213069   6.294   2.920   6.358
 4376TIP3   OH213070   4.554   5.688   3.898
 4376TIP3    H113071   4.552   5.782   3.916
 4376TIP3    H213072   4.557   5.647   3.984
 4377TIP3   OH213073   6.774   2.823   1.197
 4377TIP3    H113074   6.846   2.817   1.134
 4377TIP3    H213075   6.701   2.779   1.154
 4378TIP3   OH213076   0.079   3.676   1.455
 4378TIP3    H113077   0.095   3.619   1.379
 4378TIP3    H213078   0.165   3.683   1.497
 4379TIP3   OH213079   0.848   1.738   5.297
 4379TIP3    H113080   0.898   1.807   5.253
 4379TIP3    H213081   0.823   1.678   5.226
 4380TIP3   OH213082   3.788   7.712   6.308
 4380TIP3    H113083   3.841   7.713   6.228
 4380TIP3    H213084   3.722   7.645   6.292
 4381TIP3   OH213085   3.338   6.788   4.390
 4381TIP3    H113086   3.333   6.719   4.456
 4381TIP3    H213087   3.294   6.753   4.313
 4382TIP3   OH213088   7.577   3.730   6.171
 4382TIP3    H113089   7.599   3.822   6.159
 4382TIP3    H213090   7.635   3.701   6.242
 4383TIP3   OH213091   3.490   4.250   0.215
 4383TIP3    H113092   3.456   4.332   0.179
 4383TIP3    H213093   3.538   4.210   0.142
 4384TIP3   OH213094   3.538   6.287   0.326
 4384TIP3    H113095   3.549   6.278   0.421
 4384TIP3    H213096   3.583   6.211   0.289
 4385TIP3   OH213097   8.312   3.319   4.223
 4385TIP3    H113098   8.219   3.306   4.207
 4385TIP3    H213099   8.338   3.385   4.159
 4386TIP3   OH213100   7.691   5.115   6.384
 4386TIP3    H113101   7.635   5.086   6.313
 4386TIP3    H213102   7.660   5.203   6.406
 4387TIP3   OH213103   7.744   7.061   6.149
 4387TIP3    H113104   7.701   7.026   6.072
 4387TIP3    H213105   7.724   7.154   6.149
 4388TIP3   OH213106   1.333   0.999   0.659
 4388TIP3    H113107   1.289   0.914   0.650
 4388TIP3    H213108   1.377   1.011   0.574
 4389TIP3   OH213109   5.965   3.189   4.456
 4389TIP3    H113110   5.935   3.243   4.383
 4389TIP3    H213111   5.925   3.104   4.441
 4390TIP3   OH213112   6.027   7.208   5.765
 4390TIP3    H113113   5.968   7.228   5.692
 4390TIP3    H213114   6.017   7.282   5.825
 4391TIP3   OH213115   3.580   0.497   1.674
 4391TIP3    H113116   3.596   0.588   1.698
 4391TIP3    H213117   3.584   0.497   1.578
 4392TIP3   OH213118   1.927   7.770   0.395
 4392TIP3    H113119   1.835   7.787   0.376
 4392TIP3    H213120   1.969   7.772   0.309
 4393TIP3   OH213121   3.171   7.469   4.141
 4393TIP3    H113122   3.095   7.527   4.136
 4393TIP3    H213123   3.134   7.383   4.160
 4394TIP3   OH213124   5.102   5.640   0.002
 4394TIP3    H113125   5.010   5.639   0.029
 4394TIP3    H213126   5.132   5.728   0.022
 4395TIP3   OH213127   3.652   4.499   4.221
 4395TIP3    H113128   3.697   4.447   4.289
 4395TIP3    H213129   3.685   4.588   4.234
 4396TIP3   OH213130   2.403   5.938   2.275
 4396TIP3    H113131   2.466   5.968   2.340
 4396TIP3    H213132   2.428   5.848   2.256
 4397TIP3   OH213133   7.810   4.360   6.671
 4397TIP3    H113134   7.891   4.408   6.688
 4397TIP3    H213135   7.805   4.295   6.741
 4398TIP3   OH213136   1.281   1.468   3.043
 4398TIP3    H113137   1.297   1.375   3.055
 4398TIP3    H213138   1.304   1.485   2.952
 4399TIP3   OH213139   4.204   1.232   3.948
 4399TIP3    H113140   4.124   1.271   3.983
 4399TIP3    H213141   4.257   1.306   3.920
 4400TIP3   OH213142   5.117   2.995   0.072
 4400TIP3    H113143   5.145   3.039   0.152
 4400TIP3    H213144   5.090   2.908   0.100
 4401TIP3   OH213145   2.816   2.383   1.579
 4401TIP3    H113146   2.835   2.313   1.517
 4401TIP3    H213147   2.883   2.450   1.562
 4402TIP3   OH213148   0.409   0.337   0.317
 4402TIP3    H113149   0.328   0.387   0.327
 4402TIP3    H213150   0.468   0.396   0.270
 4403TIP3   OH213151   6.025   7.393   4.049
 4403TIP3    H113152   6.019   7.357   3.960
 4403TIP3    H213153   6.068   7.478   4.038
 4404TIP3   OH213154   0.987   0.652   3.789
 4404TIP3    H113155   0.978   0.664   3.884
 4404TIP3    H213156   1.018   0.736   3.757
 4405TIP3   OH213157   6.943   6.472   2.452
 4405TIP3    H113158   7.008   6.508   2.392
 4405TIP3    H213159   6.870   6.533   2.447
 4406TIP3   OH213160   8.269   4.174   4.303
 4406TIP3    H113161   8.275   4.134   4.390
 4406TIP3    H213162   8.230   4.260   4.320
 4407TIP3   OH213163   0.531   2.186   4.047
 4407TIP3    H113164   0.477   2.121   4.092
 4407TIP3    H213165   0.474   2.262   4.035
 4408TIP3   OH213166   4.213   2.713   4.547
 4408TIP3    H113167   4.226   2.706   4.452
 4408TIP3    H213168   4.118   2.719   4.557
 4409TIP3   OH213169   0.470   2.285   4.799
 4409TIP3    H113170   0.404   2.341   4.840
 4409TIP3    H213171   0.542   2.282   4.862
 4410TIP3   OH213172   5.101   0.479   1.289
 4410TIP3    H113173   5.193   0.505   1.293
 4410TIP3    H213174   5.053   0.562   1.280
 4411TIP3   OH213175   0.355   4.606   2.051
 4411TIP3    H113176   0.429   4.643   2.003
 4411TIP3    H213177   0.328   4.531   1.999
 4412TIP3   OH213178   5.450   5.386   6.575
 4412TIP3    H113179   5.515   5.391   6.645
 4412TIP3    H213180   5.499   5.354   6.499
 4413TIP3   OH213181   0.248   0.585   4.699
 4413TIP3    H113182   0.303   0.664   4.702
 4413TIP3    H213183   0.300   0.521   4.651
 4414TIP3   OH213184   6.249   7.671   5.072
 4414TIP3    H113185   6.181   7.614   5.035
 4414TIP3    H213186   6.262   7.639   5.161
 4415TIP3   OH213187   1.692   1.060   4.877
 4415TIP3    H113188   1.627   1.010   4.827
 4415TIP3    H213189   1.724   0.997   4.942
 4416TIP3   OH213190   0.654   6.983   1.806
 4416TIP3    H113191   0.644   6.889   1.790
 4416TIP3    H213192   0.606   6.998   1.887
 4417TIP3   OH213193   3.652   7.699   5.343
 4417TIP3    H113194   3.624   7.613   5.374
 4417TIP3    H213195   3.640   7.757   5.419
 4418TIP3   OH213196   1.761   3.015   3.844
 4418TIP3    H113197   1.709   3.022   3.924
 4418TIP3    H213198   1.723   3.079   3.784
 4419TIP3   OH213199   5.190   2.755   6.632
 4419TIP3    H113200   5.139   2.796   6.702
 4419TIP3    H213201   5.279   2.789   6.644
 4420TIP3   OH213202   4.028   3.767   6.354
 4420TIP3    H113203   3.955   3.825   6.371
 4420TIP3    H213204   4.020   3.744   6.262
 4421TIP3   OH213205   4.378   4.943   1.793
 4421TIP3    H113206   4.437   4.871   1.813
 4421TIP3    H213207   4.412   4.980   1.712
 4422TIP3   OH213208   4.752   6.380   0.811
 4422TIP3    H113209   4.732   6.288   0.829
 4422TIP3    H213210   4.818   6.403   0.876
 4423TIP3   OH213211   6.379   4.360   5.949
 4423TIP3    H113212   6.316   4.429   5.929
 4423TIP3    H213213   6.460   4.388   5.907
 4424TIP3   OH213214   7.933   2.676   4.839
 4424TIP3    H113215   7.862   2.623   4.875
 4424TIP3    H213216   7.904   2.697   4.750
 4425TIP3   OH213217   4.936   4.454   2.115
 4425TIP3    H113218   4.980   4.371   2.130
 4425TIP3    H213219   4.863   4.454   2.177
 4426TIP3   OH213220   5.989   6.887   0.142
 4426TIP3    H113221   6.014   6.847   0.226
 4426TIP3    H213222   5.994   6.815   0.079
 4427TIP3   OH213223   8.165   2.328   5.292
 4427TIP3    H113224   8.205   2.326   5.205
 4427TIP3    H213225   8.182   2.417   5.324
 4428TIP3   OH213226   4.034   5.670   1.182
 4428TIP3    H113227   4.115   5.680   1.232
 4428TIP3    H213228   4.059   5.619   1.105
 4429TIP3   OH213229   4.819   7.812   3.634
 4429TIP3    H113230   4.858   7.782   3.716
 4429TIP3    H213231   4.725   7.793   3.643
 4430TIP3   OH213232   0.318   0.590   2.644
 4430TIP3    H113233   0.297   0.512   2.694
 4430TIP3    H213234   0.402   0.619   2.679
 4431TIP3   OH213235   4.636   0.746   4.968
 4431TIP3    H113236   4.705   0.787   4.916
 4431TIP3    H213237   4.611   0.813   5.032
 4432TIP3   OH213238   1.314   3.345   3.602
 4432TIP3    H113239   1.338   3.401   3.527
 4432TIP3    H213240   1.226   3.314   3.582
 4433TIP3   OH213241   4.790   4.060   4.655
 4433TIP3    H113242   4.766   3.969   4.670
 4433TIP3    H213243   4.796   4.068   4.559
 4434TIP3   OH213244   6.699   1.058   5.504
 4434TIP3    H113245   6.773   0.997   5.496
 4434TIP3    H213246   6.699   1.082   5.597
 4435TIP3   OH213247   2.403   7.308   5.662
 4435TIP3    H113248   2.378   7.263   5.743
 4435TIP3    H213249   2.492   7.339   5.678
 4436TIP3   OH213250   0.643   3.362   0.048
 4436TIP3    H113251   0.708   3.303   0.011
 4436TIP3    H213252   0.630   3.331   0.138
 4437TIP3   OH213253   5.665   6.954   3.418
 4437TIP3    H113254   5.707   7.017   3.476
 4437TIP3    H213255   5.681   6.869   3.458
 4438TIP3   OH213256   6.801   0.766   4.789
 4438TIP3    H113257   6.760   0.850   4.766
 4438TIP3    H213258   6.762   0.744   4.874
 4439TIP3   OH213259   6.282   3.080   0.425
 4439TIP3    H113260   6.192   3.051   0.414
 4439TIP3    H213261   6.334   3.015   0.378
 4440TIP3   OH213262   4.040   3.243   0.093
 4440TIP3    H113263   4.048   3.249   0.188
 4440TIP3    H213264   4.002   3.157   0.076
 4441TIP3   OH213265   3.287   4.869   4.951
 4441TIP3    H113266   3.271   4.938   4.886
 4441TIP3    H213267   3.337   4.803   4.903
 4442TIP3   OH213268   2.599   3.363   2.475
 4442TIP3    H113269   2.666   3.322   2.419
 4442TIP3    H213270   2.580   3.297   2.542
 4443TIP3   OH213271   5.744   3.414   3.356
 4443TIP3    H113272   5.692   3.431   3.277
 4443TIP3    H213273   5.763   3.320   3.353
 4444TIP3   OH213274   0.722   1.005   2.099
 4444TIP3    H113275   0.712   1.077   2.162
 4444TIP3    H213276   0.805   1.022   2.055
 4445TIP3   OH213277   0.878   1.774   6.716
 4445TIP3    H113278   0.888   1.867   6.695
 4445TIP3    H213279   0.937   1.729   6.656
 4446TIP3   OH213280   6.442   2.206   6.277
 4446TIP3    H113281   6.491   2.208   6.195
 4446TIP3    H213282   6.496   2.154   6.336
 4447TIP3   OH213283   5.374   7.048   1.528
 4447TIP3    H113284   5.351   7.114   1.463
 4447TIP3    H213285   5.415   7.097   1.599
 4448TIP3   OH213286   3.936   7.450   5.009
 4448TIP3    H113287   3.952   7.448   5.103
 4448TIP3    H213288   3.949   7.542   4.984
 4449TIP3   OH213289   1.598   7.432   6.407
 4449TIP3    H113290   1.503   7.437   6.409
 4449TIP3    H213291   1.622   7.452   6.316
 4450TIP3   OH213292   7.311   0.445   6.694
 4450TIP3    H113293   7.394   0.471   6.734
 4450TIP3    H213294   7.256   0.419   6.768
 4451TIP3   OH213295   3.465   3.154   3.709
 4451TIP3    H113296   3.546   3.103   3.709
 4451TIP3    H213297   3.397   3.090   3.728
 4452TIP3   OH213298   6.876   1.114   1.946
 4452TIP3    H113299   6.864   1.142   2.037
 4452TIP3    H213300   6.846   1.188   1.894
 4453TIP3   OH213301   7.558   0.407   1.179
 4453TIP3    H113302   7.554   0.407   1.083
 4453TIP3    H213303   7.484   0.460   1.206
 4454TIP3   OH213304   2.428   6.017   1.989
 4454TIP3    H113305   2.484   5.940   1.987
 4454TIP3    H213306   2.447   6.058   2.074
 4455TIP3   OH213307   1.138   4.042   5.262
 4455TIP3    H113308   1.146   3.949   5.239
 4455TIP3    H213309   1.061   4.073   5.215
 4456TIP3   OH213310   4.288   7.156   4.266
 4456TIP3    H113311   4.275   7.098   4.341
 4456TIP3    H213312   4.233   7.232   4.285
 4457TIP3   OH213313   1.038   2.445   5.221
 4457TIP3    H113314   1.010   2.492   5.142
 4457TIP3    H213315   1.009   2.500   5.293
 4458TIP3   OH213316   6.123   0.794   3.723
 4458TIP3    H113317   6.199   0.773   3.668
 4458TIP3    H213318   6.080   0.867   3.678
 4459TIP3   OH213319   5.200   5.447   4.618
 4459TIP3    H113320   5.270   5.450   4.553
 4459TIP3    H213321   5.239   5.482   4.697
 4460TIP3   OH213322   4.367   5.839   6.620
 4460TIP3    H113323   4.334   5.924   6.590
 4460TIP3    H213324   4.459   5.856   6.642
 4461TIP3   OH213325   5.620   3.514   2.356
 4461TIP3    H113326   5.597   3.462   2.279
 4461TIP3    H213327   5.576   3.470   2.429
 4462TIP3   OH213328   3.558   3.030   2.632
 4462TIP3    H113329   3.645   3.033   2.671
 4462TIP3    H213330   3.498   3.050   2.704
 4463TIP3   OH213331   0.663   4.103   5.788
 4463TIP3    H113332   0.581   4.150   5.804
 4463TIP3    H213333   0.708   4.104   5.873
 4464TIP3   OH213334   8.246   5.367   1.685
 4464TIP3    H113335   8.192   5.294   1.654
 4464TIP3    H213336   8.186   5.421   1.736
 4465TIP3   OH213337   3.156   4.175   0.527
 4465TIP3    H113338   3.068   4.209   0.512
 4465TIP3    H213339   3.160   4.095   0.473
 4466TIP3   OH213340   2.889   0.804   1.542
 4466TIP3    H113341   2.854   0.735   1.598
 4466TIP3    H213342   2.924   0.869   1.603
 4467TIP3   OH213343   4.000   2.598   0.435
 4467TIP3    H113344   3.912   2.560   0.431
 4467TIP3    H213345   3.992   2.683   0.392
 4468TIP3   OH213346   2.332   6.732   5.430
 4468TIP3    H113347   2.268   6.735   5.501
 4468TIP3    H213348   2.396   6.666   5.457
 4469TIP3   OH213349   3.067   4.261   1.250
 4469TIP3    H113350   3.027   4.238   1.167
 4469TIP3    H213351   3.116   4.341   1.232
 4470TIP3   OH213352   2.455   6.141   1.015
 4470TIP3    H113353   2.440   6.066   1.073
 4470TIP3    H213354   2.369   6.158   0.976
 4471TIP3   OH213355   2.101   0.836   5.165
 4471TIP3    H113356   2.151   0.755   5.171
 4471TIP3    H213357   2.102   0.872   5.253
 4472TIP3   OH213358   7.222   2.966   1.440
 4472TIP3    H113359   7.218   3.062   1.444
 4472TIP3    H213360   7.133   2.937   1.458
 4473TIP3   OH213361   3.610   7.130   5.712
 4473TIP3    H113362   3.623   7.159   5.622
 4473TIP3    H213363   3.672   7.181   5.764
 4474TIP3   OH213364   4.564   7.649   5.132
 4474TIP3    H113365   4.590   7.559   5.112
 4474TIP3    H213366   4.617   7.673   5.208
 4475TIP3   OH213367   6.436   4.027   1.949
 4475TIP3    H113368   6.377   4.102   1.953
 4475TIP3    H213369   6.521   4.062   1.978
 4476TIP3   OH213370   0.826   1.803   3.000
 4476TIP3    H113371   0.850   1.759   2.918
 4476TIP3    H213372   0.847   1.738   3.068
 4477TIP3   OH213373   2.635   2.520   3.698
 4477TIP3    H113374   2.701   2.584   3.724
 4477TIP3    H213375   2.608   2.548   3.611
 4478TIP3   OH213376   6.409   6.778   1.573
 4478TIP3    H113377   6.444   6.819   1.494
 4478TIP3    H213378   6.487   6.747   1.620
 4479TIP3   OH213379   8.039   0.209   5.208
 4479TIP3    H113380   8.095   0.188   5.283
 4479TIP3    H213381   8.086   0.279   5.162
 4480TIP3   OH213382   4.717   3.211   3.023
 4480TIP3    H113383   4.719   3.222   2.928
 4480TIP3    H213384   4.712   3.117   3.036
 4481TIP3   OH213385   4.208   4.234   0.919
 4481TIP3    H113386   4.211   4.156   0.974
 4481TIP3    H213387   4.255   4.300   0.968
 4482TIP3   OH213388   2.859   4.274   3.978
 4482TIP3    H113389   2.845   4.187   4.015
 4482TIP3    H213390   2.794   4.281   3.908
 4483TIP3   OH213391   3.793   2.647   1.234
 4483TIP3    H113392   3.844   2.728   1.228
 4483TIP3    H213393   3.809   2.614   1.322
 4484TIP3   OH213394   1.054   1.057   4.656
 4484TIP3    H113395   1.047   1.107   4.738
 4484TIP3    H213396   1.115   0.986   4.678
 4485TIP3   OH213397   6.318   1.792   0.516
 4485TIP3    H113398   6.355   1.872   0.553
 4485TIP3    H213399   6.318   1.806   0.421
 4486TIP3   OH213400   3.497   1.993   5.803
 4486TIP3    H113401   3.564   2.059   5.785
 4486TIP3    H213402   3.445   2.031   5.874
 4487TIP3   OH213403   2.975   1.195   5.259
 4487TIP3    H113404   3.026   1.129   5.306
 4487TIP3    H213405   2.893   1.201   5.308
 4488TIP3   OH213406   2.300   3.892   6.521
 4488TIP3    H113407   2.303   3.827   6.590
 4488TIP3    H213408   2.262   3.969   6.562
 4489TIP3   OH213409   1.309   4.971   2.642
 4489TIP3    H113410   1.236   4.925   2.601
 4489TIP3    H213411   1.346   5.025   2.571
 4490TIP3   OH213412   7.932   4.114   4.700
 4490TIP3    H113413   8.009   4.149   4.655
 4490TIP3    H213414   7.962   4.096   4.789
 4491TIP3   OH213415   8.134   1.280   4.388
 4491TIP3    H113416   8.181   1.197   4.375
 4491TIP3    H213417   8.181   1.323   4.459
 4492TIP3   OH213418   2.072   1.879   5.417
 4492TIP3    H113419   2.122   1.802   5.390
 4492TIP3    H213420   2.116   1.911   5.495
 4493TIP3   OH213421   6.968   2.625   5.043
 4493TIP3    H113422   6.947   2.547   5.095
 4493TIP3    H213423   6.961   2.596   4.952
 4494TIP3   OH213424   3.020   7.095   3.001
 4494TIP3    H113425   3.076   7.029   2.960
 4494TIP3    H213426   3.076   7.135   3.068
 4495TIP3   OH213427   1.944   7.010   1.514
 4495TIP3    H113428   1.912   6.987   1.427
 4495TIP3    H213429   1.922   6.934   1.569
 4496TIP3   OH213430   6.573   5.841   2.855
 4496TIP3    H113431   6.483   5.865   2.832
 4496TIP3    H213432   6.596   5.772   2.792
 4497TIP3   OH213433   7.543   4.056   5.121
 4497TIP3    H113434   7.459   4.017   5.096
 4497TIP3    H213435   7.583   4.080   5.037
 4498TIP3   OH213436   3.132   1.127   2.198
 4498TIP3    H113437   3.218   1.157   2.228
 4498TIP3    H213438   3.109   1.189   2.128
 4499TIP3   OH213439   2.195   3.486   5.716
 4499TIP3    H113440   2.153   3.559   5.672
 4499TIP3    H213441   2.143   3.410   5.692
 4500TIP3   OH213442   5.598   5.081   1.558
 4500TIP3    H113443   5.608   4.986   1.560
 4500TIP3    H213444   5.663   5.111   1.495
 4501TIP3   OH213445   0.018   5.249   6.251
 4501TIP3    H113446   0.098   5.264   6.301
 4501TIP3    H213447   0.043   5.267   6.160
 4502TIP3   OH213448   6.035   5.787   5.633
 4502TIP3    H113449   5.970   5.857   5.632
 4502TIP3    H213450   5.999   5.721   5.692
 4503TIP3   OH213451   3.684   2.994   3.053
 4503TIP3    H113452   3.631   2.962   3.125
 4503TIP3    H213453   3.659   3.087   3.045
 4504TIP3   OH213454   7.537   1.883   3.462
 4504TIP3    H113455   7.603   1.837   3.409
 4504TIP3    H213456   7.454   1.865   3.417
 4505TIP3   OH213457   0.341   2.266   3.671
 4505TIP3    H113458   0.428   2.228   3.660
 4505TIP3    H213459   0.350   2.356   3.639
 4506TIP3   OH213460   7.594   4.859   3.740
 4506TIP3    H113461   7.588   4.898   3.653
 4506TIP3    H213462   7.681   4.885   3.772
 4507TIP3   OH213463   1.112   6.595   0.544
 4507TIP3    H113464   1.125   6.566   0.635
 4507TIP3    H213465   1.018   6.590   0.531
 4508TIP3   OH213466   5.235   7.174   4.632
 4508TIP3    H113467   5.161   7.116   4.649
 4508TIP3    H213468   5.195   7.259   4.613
 4509TIP3   OH213469   7.506   5.091   3.932
 4509TIP3    H113470   7.536   5.126   3.848
 4509TIP3    H213471   7.453   5.015   3.909
 4510TIP3   OH213472   5.574   1.999   5.095
 4510TIP3    H113473   5.576   2.026   5.187
 4510TIP3    H213474   5.482   2.004   5.070
 4511TIP3   OH213475   4.536   7.281   3.338
 4511TIP3    H113476   4.486   7.282   3.256
 4511TIP3    H213477   4.476   7.318   3.403
 4512TIP3   OH213478   4.113   1.892   0.987
 4512TIP3    H113479   4.076   1.917   1.072
 4512TIP3    H213480   4.131   1.975   0.943
 4513TIP3   OH213481   5.036   1.772   1.864
 4513TIP3    H113482   4.945   1.752   1.844
 4513TIP3    H213483   5.058   1.846   1.808
 4514TIP3   OH213484   1.009   2.072   3.440
 4514TIP3    H113485   0.946   2.021   3.491
 4514TIP3    H213486   1.095   2.038   3.467
 4515TIP3   OH213487   3.893   4.675   6.726
 4515TIP3    H113488   3.840   4.634   6.795
 4515TIP3    H213489   3.839   4.747   6.694
 4516TIP3   OH213490   5.201   0.214   3.506
 4516TIP3    H113491   5.165   0.282   3.448
 4516TIP3    H213492   5.147   0.220   3.585
 4517TIP3   OH213493   1.275   1.511   3.683
 4517TIP3    H113494   1.351   1.562   3.655
 4517TIP3    H213495   1.250   1.550   3.766
 4518TIP3   OH213496   1.832   4.119   0.520
 4518TIP3    H113497   1.915   4.159   0.547
 4518TIP3    H213498   1.856   4.031   0.492
 4519TIP3   OH213499   7.415   3.954   4.318
 4519TIP3    H113500   7.401   4.012   4.393
 4519TIP3    H213501   7.337   3.965   4.263
 4520TIP3   OH213502   3.638   0.944   4.641
 4520TIP3    H113503   3.611   0.853   4.650
 4520TIP3    H213504   3.710   0.955   4.703
 4521TIP3   OH213505   6.752   4.516   5.894
 4521TIP3    H113506   6.690   4.531   5.965
 4521TIP3    H213507   6.811   4.448   5.926
 4522TIP3   OH213508   2.098   7.002   3.276
 4522TIP3    H113509   2.023   6.943   3.291
 4522TIP3    H213510   2.172   6.944   3.264
 4523TIP3   OH213511   6.506   1.878   1.676
 4523TIP3    H113512   6.435   1.930   1.639
 4523TIP3    H213513   6.511   1.800   1.620
 4524TIP3   OH213514   7.925   7.259   2.064
 4524TIP3    H113515   7.851   7.204   2.089
 4524TIP3    H213516   7.906   7.286   1.974
 4525TIP3   OH213517   4.406   0.721   6.068
 4525TIP3    H113518   4.418   0.697   6.160
 4525TIP3    H213519   4.485   0.770   6.045
 4526TIP3   OH213520   5.914   0.131   2.267
 4526TIP3    H113521   5.866   0.130   2.184
 4526TIP3    H213522   5.936   0.039   2.282
 4527TIP3   OH213523   0.759   7.152   2.871
 4527TIP3    H113524   0.811   7.177   2.794
 4527TIP3    H213525   0.798   7.070   2.901
 4528TIP3   OH213526   6.043   0.532   3.564
 4528TIP3    H113527   5.948   0.544   3.571
 4528TIP3    H213528   6.064   0.462   3.626
 4529TIP3   OH213529   1.616   5.079   2.657
 4529TIP3    H113530   1.595   5.064   2.565
 4529TIP3    H213531   1.701   5.122   2.656
 4530TIP3   OH213532   4.452   5.454   2.468
 4530TIP3    H113533   4.491   5.440   2.382
 4530TIP3    H213534   4.491   5.535   2.499
 4531TIP3   OH213535   3.838   6.953   3.330
 4531TIP3    H113536   3.749   6.958   3.366
 4531TIP3    H213537   3.895   6.974   3.404
 4532TIP3   OH213538   6.761   4.635   1.398
 4532TIP3    H113539   6.719   4.632   1.312
 4532TIP3    H213540   6.766   4.728   1.419
 4533TIP3   OH213541   8.099   1.164   4.046
 4533TIP3    H113542   8.085   1.211   4.129
 4533TIP3    H213543   8.194   1.157   4.039
 4534TIP3   OH213544   4.914   2.337   5.973
 4534TIP3    H113545   4.858   2.335   5.896
 4534TIP3    H213546   4.854   2.335   6.047
 4535TIP3   OH213547   4.938   1.506   1.533
 4535TIP3    H113548   5.000   1.554   1.479
 4535TIP3    H213549   4.936   1.418   1.496
 4536TIP3   OH213550   1.319   1.280   3.822
 4536TIP3    H113551   1.267   1.265   3.901
 4536TIP3    H213552   1.284   1.361   3.785
 4537TIP3   OH213553   5.584   5.353   4.294
 4537TIP3    H113554   5.669   5.392   4.275
 4537TIP3    H213555   5.566   5.296   4.220
 4538TIP3   OH213556   5.252   7.555   0.802
 4538TIP3    H113557   5.242   7.484   0.865
 4538TIP3    H213558   5.341   7.545   0.768
 4539TIP3   OH213559   3.507   4.583   2.664
 4539TIP3    H113560   3.430   4.598   2.720
 4539TIP3    H213561   3.542   4.670   2.647
 4540TIP3   OH213562   4.115   5.808   1.951
 4540TIP3    H113563   4.084   5.883   1.901
 4540TIP3    H213564   4.040   5.747   1.950
 4541TIP3   OH213565   3.301   2.023   1.457
 4541TIP3    H113566   3.302   2.101   1.512
 4541TIP3    H213567   3.296   1.950   1.520
 4542TIP3   OH213568   3.033   1.442   4.731
 4542TIP3    H113569   2.939   1.450   4.748
 4542TIP3    H213570   3.066   1.392   4.806
 4543TIP3   OH213571   8.146   1.578   5.361
 4543TIP3    H113572   8.234   1.571   5.398
 4543TIP3    H213573   8.125   1.671   5.367
 4544TIP3   OH213574   0.305   5.553   1.884
 4544TIP3    H113575   0.360   5.631   1.881
 4544TIP3    H213576   0.218   5.584   1.859
 4545TIP3   OH213577   2.777   5.057   2.905
 4545TIP3    H113578   2.737   5.005   2.835
 4545TIP3    H213579   2.705   5.076   2.965
 4546TIP3   OH213580   2.036   0.487   5.374
 4546TIP3    H113581   2.076   0.414   5.327
 4546TIP3    H213582   2.096   0.504   5.447
 4547TIP3   OH213583   2.847   3.590   6.195
 4547TIP3    H113584   2.872   3.548   6.113
 4547TIP3    H213585   2.895   3.541   6.262
 4548TIP3   OH213586   3.215   3.107   3.033
 4548TIP3    H113587   3.215   3.202   3.043
 4548TIP3    H213588   3.156   3.090   2.959
 4549TIP3   OH213589   4.313   3.641   2.542
 4549TIP3    H113590   4.348   3.554   2.559
 4549TIP3    H213591   4.327   3.655   2.448
 4550TIP3   OH213592   3.590   6.248   0.625
 4550TIP3    H113593   3.522   6.308   0.657
 4550TIP3    H213594   3.665   6.266   0.683
 4551TIP3   OH213595   7.726   5.256   4.605
 4551TIP3    H113596   7.758   5.191   4.543
 4551TIP3    H213597   7.726   5.211   4.690
 4552TIP3   OH213598   3.973   3.219   5.428
 4552TIP3    H113599   3.999   3.272   5.353
 4552TIP3    H213600   4.015   3.261   5.503
 4553TIP3   OH213601   7.207   7.059   2.176
 4553TIP3    H113602   7.253   7.143   2.186
 4553TIP3    H213603   7.200   7.047   2.081
 4554TIP3   OH213604   2.979   4.941   5.832
 4554TIP3    H113605   2.986   4.862   5.885
 4554TIP3    H213606   2.889   4.971   5.844
 4555TIP3   OH213607   0.357   3.887   3.006
 4555TIP3    H113608   0.395   3.878   3.093
 4555TIP3    H213609   0.427   3.927   2.953
 4556TIP3   OH213610   4.384   2.650   0.705
 4556TIP3    H113611   4.425   2.723   0.658
 4556TIP3    H213612   4.323   2.613   0.641
 4557TIP3   OH213613   2.190   2.752   1.882
 4557TIP3    H113614   2.272   2.768   1.834
 4557TIP3    H213615   2.131   2.821   1.850
 4558TIP3   OH213616   7.844   7.783   0.061
 4558TIP3    H113617   7.936   7.763   0.078
 4558TIP3    H213618   7.812   7.709   0.009
 4559TIP3   OH213619   1.509   2.908   1.831
 4559TIP3    H113620   1.566   2.851   1.779
 4559TIP3    H213621   1.545   2.996   1.820
 4560TIP3   OH213622   1.972   1.142   5.390
 4560TIP3    H113623   1.895   1.089   5.370
 4560TIP3    H213624   1.937   1.228   5.413
 4561TIP3   OH213625   4.202   0.699   3.328
 4561TIP3    H113626   4.126   0.692   3.270
 4561TIP3    H213627   4.228   0.608   3.343
 4562TIP3   OH213628   6.840   7.712   6.343
 4562TIP3    H113629   6.907   7.645   6.357
 4562TIP3    H213630   6.776   7.698   6.413
 4563TIP3   OH213631   6.382   4.390   6.506
 4563TIP3    H113632   6.432   4.356   6.432
 4563TIP3    H213633   6.314   4.324   6.521
 4564TIP3   OH213634   2.860   1.952   4.949
 4564TIP3    H113635   2.804   1.995   4.884
 4564TIP3    H213636   2.922   2.021   4.976
 4565TIP3   OH213637   5.482   3.493   4.016
 4565TIP3    H113638   5.466   3.586   4.000
 4565TIP3    H213639   5.465   3.481   4.109
 4566TIP3   OH213640   3.159   1.875   3.397
 4566TIP3    H113641   3.192   1.788   3.375
 4566TIP3    H213642   3.222   1.909   3.460
 4567TIP3   OH213643   2.932   2.896   2.994
 4567TIP3    H113644   2.953   2.912   3.086
 4567TIP3    H213645   2.855   2.839   2.997
 4568TIP3   OH213646   7.986   0.891   4.697
 4568TIP3    H113647   7.957   0.982   4.703
 4568TIP3    H213648   8.008   0.878   4.604
 4569TIP3   OH213649   6.436   7.604   1.921
 4569TIP3    H113650   6.340   7.608   1.922
 4569TIP3    H213651   6.459   7.615   1.828
 4570TIP3   OH213652   4.416   2.171   3.802
 4570TIP3    H113653   4.388   2.251   3.848
 4570TIP3    H213654   4.511   2.177   3.799
 4571TIP3   OH213655   3.739   2.469   4.844
 4571TIP3    H113656   3.669   2.484   4.907
 4571TIP3    H213657   3.738   2.374   4.830
 4572TIP3   OH213658   1.802   5.197   3.458
 4572TIP3    H113659   1.817   5.200   3.364
 4572TIP3    H213660   1.822   5.106   3.483
 4573TIP3   OH213661   4.872   4.365   6.492
 4573TIP3    H113662   4.937   4.304   6.456
 4573TIP3    H213663   4.794   4.350   6.440
 4574TIP3   OH213664   2.072   0.606   6.393
 4574TIP3    H113665   2.100   0.629   6.482
 4574TIP3    H213666   2.003   0.541   6.406
 4575TIP3   OH213667   0.039   5.296   1.989
 4575TIP3    H113668   0.134   5.310   1.993
 4575TIP3    H213669   0.002   5.385   1.990
 4576TIP3   OH213670   1.882   7.057   2.536
 4576TIP3    H113671   1.801   7.041   2.585
 4576TIP3    H213672   1.911   7.142   2.567
 4577TIP3   OH213673   2.165   4.996   6.727
 4577TIP3    H113674   2.069   4.988   6.729
 4577TIP3    H213675   2.193   4.934   6.660
 4578TIP3   OH213676   1.344   2.737   4.704
 4578TIP3    H113677   1.341   2.642   4.712
 4578TIP3    H213678   1.351   2.753   4.610
 4579TIP3   OH213679   4.606   3.253   2.419
 4579TIP3    H113680   4.684   3.306   2.405
 4579TIP3    H213681   4.533   3.310   2.394
 4580TIP3   OH213682   7.017   7.032   0.934
 4580TIP3    H113683   7.065   6.952   0.955
 4580TIP3    H213684   6.926   7.004   0.927
 4581TIP3   OH213685   0.652   7.357   2.523
 4581TIP3    H113686   0.610   7.275   2.549
 4581TIP3    H213687   0.742   7.332   2.502
 4582TIP3   OH213688   6.973   6.236   6.118
 4582TIP3    H113689   6.948   6.144   6.126
 4582TIP3    H213690   6.899   6.285   6.154
 4583TIP3   OH213691   1.329   4.923   6.075
 4583TIP3    H113692   1.401   4.860   6.083
 4583TIP3    H213693   1.259   4.888   6.130
 4584TIP3   OH213694   6.548   7.803   2.129
 4584TIP3    H113695   6.629   7.778   2.173
 4584TIP3    H213696   6.513   7.721   2.093
 4585TIP3   OH213697   2.371   3.456   0.242
 4585TIP3    H113698   2.444   3.411   0.199
 4585TIP3    H213699   2.386   3.442   0.336
 4586TIP3   OH213700   6.669   2.752   0.339
 4586TIP3    H113701   6.594   2.807   0.319
 4586TIP3    H213702   6.744   2.811   0.333
 4587TIP3   OH213703   1.467   6.831   1.058
 4587TIP3    H113704   1.463   6.759   1.120
 4587TIP3    H213705   1.528   6.894   1.097
 4588TIP3   OH213706   6.969   6.940   1.210
 4588TIP3    H113707   7.061   6.965   1.222
 4588TIP3    H213708   6.965   6.848   1.236
 4589TIP3   OH213709   6.967   6.615   4.473
 4589TIP3    H113710   6.884   6.662   4.465
 4589TIP3    H213711   6.965   6.552   4.402
 4590TIP3   OH213712   6.775   1.650   2.320
 4590TIP3    H113713   6.763   1.744   2.327
 4590TIP3    H213714   6.731   1.614   2.397
 4591TIP3   OH213715   6.183   1.430   4.812
 4591TIP3    H113716   6.237   1.423   4.891
 4591TIP3    H213717   6.102   1.384   4.835
 4592TIP3   OH213718   6.028   1.161   5.226
 4592TIP3    H113719   6.012   1.161   5.132
 4592TIP3    H213720   5.942   1.178   5.266
 4593TIP3   OH213721   5.917   0.233   2.856
 4593TIP3    H113722   5.968   0.224   2.937
 4593TIP3    H213723   5.938   0.154   2.806
 4594TIP3   OH213724   5.052   0.886   0.593
 4594TIP3    H113725   5.075   0.921   0.507
 4594TIP3    H213726   4.959   0.861   0.584
 4595TIP3   OH213727   1.473   0.112   2.543
 4595TIP3    H113728   1.535   0.176   2.580
 4595TIP3    H213729   1.390   0.133   2.584
 4596TIP3   OH213730   5.234   1.161   4.654
 4596TIP3    H113731   5.288   1.230   4.615
 4596TIP3    H213732   5.237   1.090   4.590
 4597TIP3   OH213733   1.068   1.091   2.966
 4597TIP3    H113734   1.124   1.095   2.888
 4597TIP3    H213735   1.000   1.156   2.951
 4598TIP3   OH213736   2.078   3.199   0.958
 4598TIP3    H113737   2.058   3.202   1.051
 4598TIP3    H213738   2.167   3.163   0.954
 4599TIP3   OH213739   3.190   3.483   3.287
 4599TIP3    H113740   3.187   3.463   3.194
 4599TIP3    H213741   3.099   3.504   3.310
 4600TIP3   OH213742   6.989   3.146   3.900
 4600TIP3    H113743   7.078   3.143   3.865
 4600TIP3    H213744   6.986   3.226   3.953
 4601TIP3   OH213745   1.571   2.047   6.500
 4601TIP3    H113746   1.564   2.048   6.596
 4601TIP3    H213747   1.632   2.119   6.480
 4602TIP3   OH213748   3.102   7.333   4.580
 4602TIP3    H113749   3.169   7.399   4.598
 4602TIP3    H213750   3.102   7.324   4.484
 4603TIP3   OH213751   1.265   6.770   6.355
 4603TIP3    H113752   1.286   6.728   6.272
 4603TIP3    H213753   1.281   6.863   6.340
 4604TIP3   OH213754   5.360   1.460   6.575
 4604TIP3    H113755   5.347   1.508   6.494
 4604TIP3    H213756   5.296   1.498   6.636
 4605TIP3   OH213757   5.576   0.111   5.422
 4605TIP3    H113758   5.604   0.106   5.331
 4605TIP3    H213759   5.658   0.114   5.472
 4606TIP3   OH213760   5.607   4.051   1.562
 4606TIP3    H113761   5.613   4.041   1.467
 4606TIP3    H213762   5.696   4.072   1.589
 4607TIP3   OH213763   3.434   1.262   4.137
 4607TIP3    H113764   3.364   1.306   4.185
 4607TIP3    H213765   3.507   1.256   4.199
 4608TIP3   OH213766   4.683   3.996   5.699
 4608TIP3    H113767   4.733   3.952   5.768
 4608TIP3    H213768   4.663   4.082   5.734
 4609TIP3   OH213769   1.049   7.467   6.455
 4609TIP3    H113770   1.002   7.462   6.372
 4609TIP3    H213771   1.028   7.553   6.490
 4610TIP3   OH213772   0.373   4.518   5.793
 4610TIP3    H113773   0.284   4.485   5.804
 4610TIP3    H213774   0.418   4.492   5.874
 4611TIP3   OH213775   6.058   0.361   5.660
 4611TIP3    H113776   6.015   0.276   5.651
 4611TIP3    H213777   6.023   0.413   5.588
 4612TIP3   OH213778   0.540   7.514   1.952
 4612TIP3    H113779   0.613   7.570   1.977
 4612TIP3    H213780   0.467   7.574   1.937
 4613TIP3   OH213781   5.196   1.519   1.358
 4613TIP3    H113782   5.249   1.482   1.429
 4613TIP3    H213783   5.193   1.450   1.292
 4614TIP3   OH213784   2.083   6.059   0.590
 4614TIP3    H113785   2.092   6.154   0.584
 4614TIP3    H213786   2.035   6.044   0.672
 4615TIP3   OH213787   0.266   0.067   3.041
 4615TIP3    H113788   0.267  -0.002   2.976
 4615TIP3    H213789   0.358   0.080   3.064
 4616TIP3   OH213790   3.019   3.735   3.080
 4616TIP3    H113791   3.073   3.761   3.155
 4616TIP3    H213792   3.082   3.715   3.011
 4617TIP3   OH213793   0.241   3.722   4.595
 4617TIP3    H113794   0.239   3.626   4.599
 4617TIP3    H213795   0.186   3.750   4.669
 4618TIP3   OH213796   4.613   2.721   0.502
 4618TIP3    H113797   4.692   2.690   0.547
 4618TIP3    H213798   4.576   2.643   0.461
 4619TIP3   OH213799   7.175   5.124   4.918
 4619TIP3    H113800   7.187   5.087   5.005
 4619TIP3    H213801   7.123   5.059   4.871
 4620TIP3   OH213802   4.898   2.772   5.510
 4620TIP3    H113803   4.837   2.721   5.457
 4620TIP3    H213804   4.879   2.863   5.487
 4621TIP3   OH213805   5.182   2.986   4.485
 4621TIP3    H113806   5.262   3.025   4.519
 4621TIP3    H213807   5.212   2.908   4.438
 4622TIP3   OH213808   7.185   3.887   5.513
 4622TIP3    H113809   7.279   3.904   5.512
 4622TIP3    H213810   7.178   3.792   5.517
 4623TIP3   OH213811   4.770   4.483   4.727
 4623TIP3    H113812   4.701   4.448   4.671
 4623TIP3    H213813   4.772   4.577   4.705
 4624TIP3   OH213814   7.867   0.985   2.741
 4624TIP3    H113815   7.839   0.927   2.670
 4624TIP3    H213816   7.942   1.033   2.705
 4625TIP3   OH213817   4.065   6.131   2.546
 4625TIP3    H113818   4.096   6.041   2.541
 4625TIP3    H213819   4.029   6.139   2.635
 4626TIP3   OH213820   5.343   7.017   6.740
 4626TIP3    H113821   5.396   6.938   6.724
 4626TIP3    H213822   5.280   7.018   6.668
 4627TIP3   OH213823   8.025   7.404   3.309
 4627TIP3    H113824   7.972   7.405   3.230
 4627TIP3    H213825   7.969   7.362   3.375
 4628TIP3   OH213826   1.727   1.442   5.955
 4628TIP3    H113827   1.670   1.369   5.980
 4628TIP3    H213828   1.805   1.399   5.919
 4629TIP3   OH213829   4.231   0.123   6.048
 4629TIP3    H113830   4.293   0.153   6.114
 4629TIP3    H213831   4.271   0.044   6.012
 4630TIP3   OH213832   5.874   4.738   6.296
 4630TIP3    H113833   5.940   4.685   6.250
 4630TIP3    H213834   5.889   4.827   6.266
 4631TIP3   OH213835   1.097   2.905   0.502
 4631TIP3    H113836   1.020   2.882   0.554
 4631TIP3    H213837   1.073   2.883   0.412
 4632TIP3   OH213838   0.140   0.551   5.331
 4632TIP3    H113839   0.182   0.493   5.267
 4632TIP3    H213840   0.127   0.633   5.284
 4633TIP3   OH213841   5.151   7.240   0.713
 4633TIP3    H113842   5.239   7.228   0.750
 4633TIP3    H213843   5.097   7.262   0.789
 4634TIP3   OH213844   3.547   0.377   5.229
 4634TIP3    H113845   3.476   0.313   5.220
 4634TIP3    H213846   3.516   0.453   5.178
 4635TIP3   OH213847   2.099   2.297   1.144
 4635TIP3    H113848   2.116   2.223   1.085
 4635TIP3    H213849   2.147   2.276   1.224
 4636TIP3   OH213850   6.778   2.207   3.838
 4636TIP3    H113851   6.780   2.278   3.774
 4636TIP3    H213852   6.850   2.227   3.898
 4637TIP3   OH213853   1.216   6.825   4.538
 4637TIP3    H113854   1.225   6.773   4.618
 4637TIP3    H213855   1.222   6.760   4.467
 4638TIP3   OH213856   5.312   4.039   3.652
 4638TIP3    H113857   5.280   3.972   3.713
 4638TIP3    H213858   5.390   4.000   3.613
 4639TIP3   OH213859   6.834   1.488   0.247
 4639TIP3    H113860   6.739   1.486   0.252
 4639TIP3    H213861   6.853   1.539   0.169
 4640TIP3   OH213862   5.448   2.035   2.239
 4640TIP3    H113863   5.462   1.973   2.167
 4640TIP3    H213864   5.522   2.022   2.297
 4641TIP3   OH213865   3.161   7.336   2.498
 4641TIP3    H113866   3.081   7.324   2.549
 4641TIP3    H213867   3.201   7.249   2.493
 4642TIP3   OH213868   5.339   1.722   5.248
 4642TIP3    H113869   5.434   1.715   5.238
 4642TIP3    H213870   5.326   1.798   5.305
 4643TIP3   OH213871   3.414   3.765   1.765
 4643TIP3    H113872   3.381   3.839   1.815
 4643TIP3    H213873   3.417   3.796   1.675
 4644TIP3   OH213874   0.343   5.793   6.082
 4644TIP3    H113875   0.248   5.797   6.069
 4644TIP3    H213876   0.364   5.700   6.074
 4645TIP3   OH213877   8.166   1.263   5.885
 4645TIP3    H113878   8.151   1.265   5.980
 4645TIP3    H213879   8.229   1.192   5.872
 4646TIP3   OH213880   0.294   4.907   5.497
 4646TIP3    H113881   0.287   4.813   5.512
 4646TIP3    H213882   0.313   4.915   5.403
 4647TIP3   OH213883   1.982   1.174   6.125
 4647TIP3    H113884   1.974   1.083   6.097
 4647TIP3    H213885   1.913   1.185   6.190
 4648TIP3   OH213886   6.440   6.430   0.907
 4648TIP3    H113887   6.400   6.495   0.849
 4648TIP3    H213888   6.446   6.474   0.992
 4649TIP3   OH213889   5.864   7.022   4.197
 4649TIP3    H113890   5.869   6.948   4.137
 4649TIP3    H213891   5.835   6.984   4.280
 4650TIP3   OH213892   4.951   0.804   2.775
 4650TIP3    H113893   4.985   0.813   2.686
 4650TIP3    H213894   4.960   0.892   2.813
 4651TIP3   OH213895   6.484   5.482   0.573
 4651TIP3    H113896   6.559   5.425   0.586
 4651TIP3    H213897   6.450   5.498   0.661
 4652TIP3   OH213898   5.783   6.171   5.808
 4652TIP3    H113899   5.728   6.193   5.733
 4652TIP3    H213900   5.787   6.075   5.807
 4653TIP3   OH213901   6.949   6.996   0.630
 4653TIP3    H113902   6.869   6.985   0.681
 4653TIP3    H213903   6.944   6.929   0.562
 4654TIP3   OH213904   4.390   0.138   1.970
 4654TIP3    H113905   4.362   0.104   1.885
 4654TIP3    H213906   4.458   0.202   1.948
 4655TIP3   OH213907   4.986   5.900   2.622
 4655TIP3    H113908   4.968   5.994   2.614
 4655TIP3    H213909   4.925   5.858   2.561
 4656TIP3   OH213910   6.923   0.762   1.776
 4656TIP3    H113911   6.998   0.803   1.819
 4656TIP3    H213912   6.847   0.795   1.824
 4657TIP3   OH213913   1.457   5.214   1.881
 4657TIP3    H113914   1.520   5.144   1.897
 4657TIP3    H213915   1.506   5.294   1.899
 4658TIP3   OH213916   1.357   4.218   6.100
 4658TIP3    H113917   1.429   4.278   6.122
 4658TIP3    H213918   1.315   4.199   6.184
 4659TIP3   OH213919   7.104   0.617   4.320
 4659TIP3    H113920   7.134   0.702   4.352
 4659TIP3    H213921   7.091   0.630   4.226
 4660TIP3   OH213922   2.892   5.883   4.690
 4660TIP3    H113923   2.809   5.895   4.737
 4660TIP3    H213924   2.898   5.959   4.632
 4661TIP3   OH213925   7.981   6.673   6.558
 4661TIP3    H113926   8.038   6.729   6.611
 4661TIP3    H213927   8.028   6.663   6.475
 4662TIP3   OH213928   6.860   1.673   4.300
 4662TIP3    H113929   6.822   1.740   4.244
 4662TIP3    H213930   6.809   1.594   4.281
 4663TIP3   OH213931   8.328   3.495   4.012
 4663TIP3    H113932   8.316   3.455   3.925
 4663TIP3    H213933   8.243   3.532   4.032
 4664TIP3   OH213934   0.353   6.799   4.742
 4664TIP3    H113935   0.297   6.725   4.762
 4664TIP3    H213936   0.441   6.763   4.739
 4665TIP3   OH213937   8.310   7.138   1.955
 4665TIP3    H113938   8.327   7.170   1.867
 4665TIP3    H213939   8.229   7.088   1.948
 4666TIP3   OH213940   5.665   2.239   1.959
 4666TIP3    H113941   5.715   2.322   1.961
 4666TIP3    H213942   5.714   2.181   2.017
 4667TIP3   OH213943   5.336   5.826   4.856
 4667TIP3    H113944   5.351   5.762   4.787
 4667TIP3    H213945   5.417   5.825   4.907
 4668TIP3   OH213946   5.546   2.673   3.695
 4668TIP3    H113947   5.478   2.735   3.722
 4668TIP3    H213948   5.512   2.634   3.614
 4669TIP3   OH213949   6.502   5.825   2.349
 4669TIP3    H113950   6.415   5.858   2.369
 4669TIP3    H213951   6.489   5.733   2.329
 4670TIP3   OH213952   2.820   7.595   3.272
 4670TIP3    H113953   2.871   7.515   3.286
 4670TIP3    H213954   2.864   7.662   3.324
 4671TIP3   OH213955   5.181   7.630   2.000
 4671TIP3    H113956   5.204   7.722   1.998
 4671TIP3    H213957   5.180   7.603   1.908
 4672TIP3   OH213958   2.081   6.312   5.092
 4672TIP3    H113959   2.086   6.407   5.085
 4672TIP3    H213960   2.111   6.292   5.181
 4673TIP3   OH213961   0.947   2.673   5.077
 4673TIP3    H113962   1.003   2.738   5.034
 4673TIP3    H213963   0.889   2.643   5.007
 4674TIP3   OH213964   3.270   7.207   4.845
 4674TIP3    H113965   3.178   7.215   4.870
 4674TIP3    H213966   3.282   7.271   4.774
 4675TIP3   OH213967   6.868   2.046   0.865
 4675TIP3    H113968   6.863   2.137   0.833
 4675TIP3    H213969   6.962   2.031   0.877
 4676TIP3   OH213970   4.552   6.545   6.601
 4676TIP3    H113971   4.571   6.577   6.689
 4676TIP3    H213972   4.456   6.538   6.598
 4677TIP3   OH213973   2.996   1.870   2.187
 4677TIP3    H113974   3.011   1.936   2.120
 4677TIP3    H213975   2.996   1.786   2.139
 4678TIP3   OH213976   7.528   4.607   1.395
 4678TIP3    H113977   7.490   4.525   1.428
 4678TIP3    H213978   7.622   4.589   1.389
 4679TIP3   OH213979   5.623   7.840   2.345
 4679TIP3    H113980   5.685   7.775   2.376
 4679TIP3    H213981   5.585   7.801   2.266
 4680TIP3   OH213982   1.323   5.719   3.959
 4680TIP3    H113983   1.357   5.631   3.969
 4680TIP3    H213984   1.229   5.712   3.976
 4681TIP3   OH213985   3.458   3.054   0.084
 4681TIP3    H113986   3.452   3.146   0.110
 4681TIP3    H213987   3.551   3.038   0.076
 4682TIP3   OH213988   4.208   0.990   2.267
 4682TIP3    H113989   4.142   1.005   2.199
 4682TIP3    H213990   4.254   1.074   2.275
 4683TIP3   OH213991   0.742   6.497   5.779
 4683TIP3    H113992   0.742   6.411   5.821
 4683TIP3    H213993   0.651   6.513   5.755
 4684TIP3   OH213994   5.243   6.105   5.194
 4684TIP3    H113995   5.170   6.125   5.254
 4684TIP3    H213996   5.202   6.100   5.108
 4685TIP3   OH213997   4.030   6.998   5.770
 4685TIP3    H113998   4.118   6.982   5.802
 4685TIP3    H213999   4.026   6.952   5.686
 4686TIP3   OH214000   4.310   0.356   6.181
 4686TIP3    H114001   4.370   0.290   6.214
 4686TIP3    H214002   4.274   0.397   6.259
 4687TIP3   OH214003   6.495   7.450   6.531
 4687TIP3    H114004   6.525   7.541   6.520
 4687TIP3    H214005   6.557   7.398   6.480
 4688TIP3   OH214006   6.811   4.111   1.754
 4688TIP3    H114007   6.782   4.113   1.663
 4688TIP3    H214008   6.762   4.039   1.793
 4689TIP3   OH214009   6.956   5.041   2.634
 4689TIP3    H114010   6.956   5.102   2.559
 4689TIP3    H214011   6.995   5.092   2.705
 4690TIP3   OH214012   7.304   5.025   0.157
 4690TIP3    H114013   7.219   5.057   0.127
 4690TIP3    H214014   7.360   5.102   0.159
 4691TIP3   OH214015   4.598   4.769   5.515
 4691TIP3    H114016   4.690   4.757   5.538
 4691TIP3    H214017   4.550   4.723   5.584
 4692TIP3   OH214018   0.154   3.783   3.493
 4692TIP3    H114019   0.215   3.710   3.492
 4692TIP3    H214020   0.100   3.768   3.570
 4693TIP3   OH214021   0.810   2.305   1.900
 4693TIP3    H114022   0.858   2.314   1.982
 4693TIP3    H214023   0.873   2.266   1.840
 4694TIP3   OH214024   5.641   2.637   5.247
 4694TIP3    H114025   5.640   2.576   5.321
 4694TIP3    H214026   5.552   2.673   5.245
 4695TIP3   OH214027   5.404   0.247   6.375
 4695TIP3    H114028   5.450   0.163   6.382
 4695TIP3    H214029   5.314   0.223   6.350
 4696TIP3   OH214030   5.043   2.327   1.856
 4696TIP3    H114031   5.026   2.367   1.942
 4696TIP3    H214032   5.095   2.393   1.809
 4697TIP3   OH214033   3.411   5.136   2.892
 4697TIP3    H114034   3.470   5.199   2.933
 4697TIP3    H214035   3.347   5.189   2.846
 4698TIP3   OH214036   1.927   7.774   2.965
 4698TIP3    H114037   1.936   7.814   3.051
 4698TIP3    H214038   2.010   7.729   2.950
 4699TIP3   OH214039   6.119   3.659   3.960
 4699TIP3    H114040   6.201   3.685   4.002
 4699TIP3    H214041   6.116   3.710   3.880
 4700TIP3   OH214042   3.934   2.422   3.068
 4700TIP3    H114043   3.919   2.381   3.153
 4700TIP3    H214044   3.860   2.481   3.056
 4701TIP3   OH214045   5.261   1.590   4.559
 4701TIP3    H114046   5.203   1.562   4.488
 4701TIP3    H214047   5.218   1.666   4.598
 4702TIP3   OH214048   3.403   6.275   3.011
 4702TIP3    H114049   3.413   6.321   2.928
 4702TIP3    H214050   3.329   6.216   2.997
 4703TIP3   OH214051   4.237   1.117   1.867
 4703TIP3    H114052   4.310   1.179   1.869
 4703TIP3    H214053   4.247   1.072   1.783
 4704TIP3   OH214054   0.705   7.572   4.287
 4704TIP3    H114055   0.643   7.592   4.356
 4704TIP3    H214056   0.651   7.548   4.212
 4705TIP3   OH214057   6.086   3.497   4.875
 4705TIP3    H114058   6.012   3.459   4.827
 4705TIP3    H214059   6.070   3.473   4.966
 4706TIP3   OH214060   6.980   2.692   4.079
 4706TIP3    H114061   7.007   2.601   4.066
 4706TIP3    H214062   6.982   2.704   4.174
 4707TIP3   OH214063   8.127   4.590   5.782
 4707TIP3    H114064   8.118   4.545   5.866
 4707TIP3    H214065   8.077   4.671   5.793
 4708TIP3   OH214066   1.416   6.440   5.863
 4708TIP3    H114067   1.384   6.351   5.872
 4708TIP3    H214068   1.441   6.448   5.771
 4709TIP3   OH214069   1.429   3.494   0.609
 4709TIP3    H114070   1.499   3.538   0.562
 4709TIP3    H214071   1.386   3.440   0.542
 4710TIP3   OH214072   0.583   7.574   4.526
 4710TIP3    H114073   0.504   7.624   4.504
 4710TIP3    H214074   0.554   7.483   4.526
 4711TIP3   OH214075   7.532   5.843   3.650
 4711TIP3    H114076   7.502   5.833   3.560
 4711TIP3    H214077   7.539   5.937   3.663
 4712TIP3   OH214078   3.731   7.194   2.750
 4712TIP3    H114079   3.690   7.223   2.832
 4712TIP3    H214080   3.823   7.218   2.760
 4713TIP3   OH214081   2.109   7.761   5.540
 4713TIP3    H114082   2.134   7.789   5.628
 4713TIP3    H214083   2.061   7.679   5.553
 4714TIP3   OH214084   4.005   5.967   1.546
 4714TIP3    H114085   4.078   5.961   1.484
 4714TIP3    H214086   3.986   5.876   1.569
 4715TIP3   OH214087   7.533   7.226   1.303
 4715TIP3    H114088   7.538   7.157   1.237
 4715TIP3    H214089   7.580   7.300   1.264
 4716TIP3   OH214090   1.934   1.298   5.864
 4716TIP3    H114091   1.944   1.249   5.946
 4716TIP3    H214092   2.024   1.317   5.837
 4717TIP3   OH214093   1.760  -0.017   6.197
 4717TIP3    H114094   1.727   0.035   6.123
 4717TIP3    H214095   1.826   0.039   6.238
 4718TIP3   OH214096   1.905   0.607   4.530
 4718TIP3    H114097   1.979   0.559   4.492
 4718TIP3    H214098   1.834   0.596   4.466
 4719TIP3   OH214099   8.147   3.104   2.888
 4719TIP3    H114100   8.169   3.011   2.886
 4719TIP3    H214101   8.088   3.113   2.962
 4720TIP3   OH214102   7.150   6.792   2.570
 4720TIP3    H114103   7.240   6.823   2.580
 4720TIP3    H214104   7.139   6.727   2.640
 4721TIP3   OH214105   1.747   1.337   3.994
 4721TIP3    H114106   1.755   1.287   4.075
 4721TIP3    H214107   1.814   1.406   4.002
 4722TIP3   OH214108   3.491   2.961   1.343
 4722TIP3    H114109   3.481   3.036   1.284
 4722TIP3    H214110   3.571   2.980   1.393
 4723TIP3   OH214111   5.508   0.843   5.995
 4723TIP3    H114112   5.509   0.939   5.999
 4723TIP3    H214113   5.557   0.822   5.915
 4724TIP3   OH214114   6.718   2.733   4.009
 4724TIP3    H114115   6.812   2.724   4.018
 4724TIP3    H214116   6.681   2.675   4.076
 4725TIP3   OH214117   8.057   2.181   5.854
 4725TIP3    H114118   8.104   2.263   5.842
 4725TIP3    H214119   8.043   2.175   5.948
 4726TIP3   OH214120   0.956   1.362   1.956
 4726TIP3    H114121   0.985   1.439   2.005
 4726TIP3    H214122   0.922   1.398   1.873
 4727TIP3   OH214123   2.426   1.081   1.007
 4727TIP3    H114124   2.367   1.111   0.937
 4727TIP3    H214125   2.416   0.986   1.008
 4728TIP3   OH214126   1.615   2.617   4.413
 4728TIP3    H114127   1.639   2.696   4.462
 4728TIP3    H214128   1.664   2.546   4.456
 4729TIP3   OH214129   4.036   2.707   1.568
 4729TIP3    H114130   4.093   2.664   1.632
 4729TIP3    H214131   4.084   2.702   1.486
 4730TIP3   OH214132   2.338   6.277   1.440
 4730TIP3    H114133   2.328   6.314   1.352
 4730TIP3    H214134   2.342   6.183   1.426
 4731TIP3   OH214135   3.626   6.556   2.353
 4731TIP3    H114136   3.645   6.503   2.431
 4731TIP3    H214137   3.665   6.641   2.371
 4732TIP3   OH214138   7.383   1.355   1.637
 4732TIP3    H114139   7.429   1.421   1.585
 4732TIP3    H214140   7.292   1.362   1.610
 4733TIP3   OH214141   2.896   1.046   3.805
 4733TIP3    H114142   2.980   1.023   3.846
 4733TIP3    H214143   2.860   0.962   3.777
 4734TIP3   OH214144   0.477   5.638   4.009
 4734TIP3    H114145   0.435   5.616   3.926
 4734TIP3    H214146   0.563   5.595   4.005
 4735TIP3   OH214147   3.174   1.374   4.250
 4735TIP3    H114148   3.162   1.422   4.169
 4735TIP3    H214149   3.150   1.436   4.319
 4736TIP3   OH214150   6.446   6.547   1.175
 4736TIP3    H114151   6.390   6.484   1.222
 4736TIP3    H214152   6.419   6.632   1.208
 4737TIP3   OH214153   2.027   3.635   3.236
 4737TIP3    H114154   2.051   3.637   3.144
 4737TIP3    H214155   2.069   3.557   3.270
 4738TIP3   OH214156   1.545   4.926   5.390
 4738TIP3    H114157   1.525   4.853   5.448
 4738TIP3    H214158   1.485   4.915   5.316
 4739TIP3   OH214159   5.313   4.129   6.472
 4739TIP3    H114160   5.327   4.214   6.430
 4739TIP3    H214161   5.272   4.075   6.405
 4740TIP3   OH214162   4.988   0.252   1.190
 4740TIP3    H114163   5.007   0.343   1.215
 4740TIP3    H214164   5.037   0.239   1.109
 4741TIP3   OH214165   5.751   7.636   0.837
 4741TIP3    H114166   5.816   7.573   0.868
 4741TIP3    H214167   5.802   7.712   0.810
 4742TIP3   OH214168   5.329   4.826   3.798
 4742TIP3    H114169   5.306   4.902   3.744
 4742TIP3    H214170   5.311   4.855   3.888
 4743TIP3   OH214171   6.601   4.458   6.628
 4743TIP3    H114172   6.511   4.449   6.597
 4743TIP3    H214173   6.632   4.367   6.634
 4744TIP3   OH214174   5.080   4.383   0.273
 4744TIP3    H114175   5.010   4.427   0.321
 4744TIP3    H214176   5.041   4.301   0.242
 4745TIP3   OH214177   2.464   6.877   5.947
 4745TIP3    H114178   2.517   6.872   5.867
 4745TIP3    H214179   2.388   6.822   5.928
 4746TIP3   OH214180   5.652   7.346   5.676
 4746TIP3    H114181   5.620   7.356   5.587
 4746TIP3    H214182   5.738   7.305   5.667
 4747TIP3   OH214183   2.288   6.087   3.379
 4747TIP3    H114184   2.333   6.118   3.300
 4747TIP3    H214185   2.257   5.999   3.355
 4748TIP3   OH214186   6.468   5.854   4.565
 4748TIP3    H114187   6.554   5.883   4.597
 4748TIP3    H214188   6.410   5.861   4.641
 4749TIP3   OH214189   7.955   6.066   1.937
 4749TIP3    H114190   7.919   6.026   2.016
 4749TIP3    H214191   7.996   6.147   1.968
 4750TIP3   OH214192   8.040   6.820   6.222
 4750TIP3    H114193   8.122   6.776   6.247
 4750TIP3    H214194   7.999   6.760   6.160
 4751TIP3   OH214195   6.747   6.020   0.003
 4751TIP3    H114196   6.688   5.956   0.042
 4751TIP3    H214197   6.801   5.969  -0.058
 4752TIP3   OH214198   6.888   4.163   3.548
 4752TIP3    H114199   6.938   4.089   3.510
 4752TIP3    H214200   6.804   4.125   3.572
 4753TIP3   OH214201   7.022   2.101   2.064
 4753TIP3    H114202   7.102   2.076   2.018
 4753TIP3    H214203   7.047   2.179   2.115
 4754TIP3   OH214204   1.635   4.267   0.123
 4754TIP3    H114205   1.606   4.343   0.173
 4754TIP3    H214206   1.627   4.194   0.184
 4755TIP3   OH214207   4.006   4.990   4.375
 4755TIP3    H114208   3.980   5.038   4.296
 4755TIP3    H214209   3.959   4.907   4.370
 4756TIP3   OH214210   7.219   1.117   0.852
 4756TIP3    H114211   7.157   1.162   0.795
 4756TIP3    H214212   7.268   1.058   0.794
 4757TIP3   OH214213   5.178   6.408   4.091
 4757TIP3    H114214   5.128   6.424   4.011
 4757TIP3    H214215   5.265   6.383   4.060
 4758TIP3   OH214216   5.747   7.387   2.565
 4758TIP3    H114217   5.816   7.326   2.537
 4758TIP3    H214218   5.673   7.331   2.587
 4759TIP3   OH214219   6.792   2.913   2.595
 4759TIP3    H114220   6.759   2.835   2.640
 4759TIP3    H214221   6.779   2.984   2.657
 4760TIP3   OH214222   4.414   1.452   4.772
 4760TIP3    H114223   4.494   1.504   4.766
 4760TIP3    H214224   4.371   1.463   4.687
 4761TIP3   OH214225   1.199   4.773   4.645
 4761TIP3    H114226   1.147   4.727   4.579
 4761TIP3    H214227   1.268   4.817   4.594
 4762TIP3   OH214228   1.522   1.846   1.987
 4762TIP3    H114229   1.607   1.888   1.974
 4762TIP3    H214230   1.506   1.799   1.905
 4763TIP3   OH214231   3.868   4.693   0.187
 4763TIP3    H114232   3.785   4.717   0.228
 4763TIP3    H214233   3.898   4.617   0.237
 4764TIP3   OH214234   3.713   5.381   5.965
 4764TIP3    H114235   3.797   5.389   6.008
 4764TIP3    H214236   3.670   5.308   6.009
 4765TIP3   OH214237   7.027   6.603   3.882
 4765TIP3    H114238   7.030   6.699   3.872
 4765TIP3    H214239   7.117   6.579   3.903
 4766TIP3   OH214240   3.980   6.401   2.480
 4766TIP3    H114241   3.888   6.374   2.480
 4766TIP3    H214242   4.029   6.321   2.496
 4767TIP3   OH214243   4.244   5.573   5.154
 4767TIP3    H114244   4.182   5.502   5.142
 4767TIP3    H214245   4.322   5.532   5.191
 4768TIP3   OH214246   1.732   0.890   5.799
 4768TIP3    H114247   1.703   0.978   5.822
 4768TIP3    H214248   1.782   0.902   5.718
 4769TIP3   OH214249   1.580   0.994   6.259
 4769TIP3    H114250   1.507   1.054   6.249
 4769TIP3    H214251   1.541   0.907   6.248
 4770TIP3   OH214252   6.328   5.215   5.648
 4770TIP3    H114253   6.362   5.155   5.714
 4770TIP3    H214254   6.380   5.197   5.570
 4771TIP3   OH214255   5.837   3.649   0.310
 4771TIP3    H114256   5.747   3.681   0.298
 4771TIP3    H214257   5.873   3.648   0.222
 4772TIP3   OH214258   3.923   2.943   3.134
 4772TIP3    H114259   3.841   2.972   3.095
 4772TIP3    H214260   3.925   2.986   3.220
 4773TIP3   OH214261   7.871   3.420   6.101
 4773TIP3    H114262   7.937   3.490   6.105
 4773TIP3    H214263   7.827   3.434   6.017
 4774TIP3   OH214264   0.821   3.615   0.093
 4774TIP3    H114265   0.851   3.531   0.060
 4774TIP3    H214266   0.834   3.676   0.020
 4775TIP3   OH214267   2.190   2.463   5.492
 4775TIP3    H114268   2.211   2.533   5.554
 4775TIP3    H214269   2.139   2.400   5.543
 4776TIP3   OH214270   8.235   7.783   2.342
 4776TIP3    H114271   8.301   7.850   2.357
 4776TIP3    H214272   8.154   7.819   2.378
 4777TIP3   OH214273   5.126   7.507   5.166
 4777TIP3    H114274   5.078   7.587   5.148
 4777TIP3    H214275   5.088   7.475   5.248
 4778TIP3   OH214276   5.624   0.883   5.505
 4778TIP3    H114277   5.567   0.893   5.429
 4778TIP3    H214278   5.709   0.857   5.469
 4779TIP3   OH214279   0.583   4.849   5.054
 4779TIP3    H114280   0.647   4.918   5.035
 4779TIP3    H214281   0.533   4.840   4.973
 4780TIP3   OH214282   8.043   4.135   2.033
 4780TIP3    H114283   8.129   4.094   2.042
 4780TIP3    H214284   7.989   4.070   1.990
 4781TIP3   OH214285   6.629   3.289   6.555
 4781TIP3    H114286   6.569   3.334   6.496
 4781TIP3    H214287   6.693   3.357   6.579
 4782TIP3   OH214288   3.104   4.467   6.482
 4782TIP3    H114289   3.016   4.503   6.473
 4782TIP3    H214290   3.111   4.403   6.411
 4783TIP3   OH214291   2.144   7.499   3.149
 4783TIP3    H114292   2.230   7.465   3.124
 4783TIP3    H214293   2.100   7.424   3.189
 4784TIP3   OH214294   4.052   7.603   3.981
 4784TIP3    H114295   4.120   7.541   3.956
 4784TIP3    H214296   4.028   7.647   3.899
 4785TIP3   OH214297   3.618   2.150   1.927
 4785TIP3    H114298   3.676   2.196   1.988
 4785TIP3    H214299   3.622   2.059   1.953
 4786TIP3   OH214300   1.416   6.516   1.554
 4786TIP3    H114301   1.428   6.421   1.555
 4786TIP3    H214302   1.402   6.539   1.646
 4787TIP3   OH214303   3.325   5.536   1.028
 4787TIP3    H114304   3.306   5.510   0.937
 4787TIP3    H214305   3.417   5.512   1.041
 4788TIP3   OH214306   0.816   1.485   1.453
 4788TIP3    H114307   0.861   1.548   1.397
 4788TIP3    H214308   0.735   1.530   1.478
 4789TIP3   OH214309   3.926   5.163   2.375
 4789TIP3    H114310   3.950   5.121   2.457
 4789TIP3    H214311   3.940   5.257   2.391
 4790TIP3   OH214312   0.057   6.149   6.582
 4790TIP3    H114313   0.073   6.232   6.626
 4790TIP3    H214314  -0.030   6.158   6.544
 4791TIP3   OH214315   5.572   3.743   6.570
 4791TIP3    H114316   5.549   3.661   6.527
 4791TIP3    H214317   5.593   3.802   6.498
 4792TIP3   OH214318   2.399   2.131   1.609
 4792TIP3    H114319   2.490   2.124   1.581
 4792TIP3    H214320   2.399   2.105   1.701
 4793TIP3   OH214321   0.321   4.622   5.538
 4793TIP3    H114322   0.229   4.648   5.554
 4793TIP3    H214323   0.349   4.586   5.622
 4794TIP3   OH214324   2.843   3.687   4.169
 4794TIP3    H114325   2.871   3.625   4.237
 4794TIP3    H214326   2.914   3.686   4.105
 4795TIP3   OH214327   1.396   5.965   2.526
 4795TIP3    H114328   1.468   5.907   2.548
 4795TIP3    H214329   1.326   5.940   2.586
 4796TIP3   OH214330   2.493   6.312   5.323
 4796TIP3    H114331   2.515   6.338   5.233
 4796TIP3    H214332   2.505   6.217   5.324
 4797TIP3   OH214333   1.592   3.327   2.346
 4797TIP3    H114334   1.529   3.379   2.296
 4797TIP3    H214335   1.658   3.300   2.282
 4798TIP3   OH214336   4.688   4.257   5.821
 4798TIP3    H114337   4.778   4.291   5.829
 4798TIP3    H214338   4.649   4.309   5.751
 4799TIP3   OH214339   7.987   7.519   0.680
 4799TIP3    H114340   7.974   7.434   0.638
 4799TIP3    H214341   8.005   7.498   0.772
 4800TIP3   OH214342   7.476   5.609   3.302
 4800TIP3    H114343   7.411   5.594   3.234
 4800TIP3    H214344   7.559   5.584   3.262
 4801TIP3   OH214345   7.404   2.850   4.147
 4801TIP3    H114346   7.363   2.785   4.204
 4801TIP3    H214347   7.376   2.935   4.183
 4802TIP3   OH214348   2.803   2.952   1.521
 4802TIP3    H114349   2.868   3.022   1.515
 4802TIP3    H214350   2.723   2.997   1.550
 4803TIP3   OH214351   2.760   3.649   4.987
 4803TIP3    H114352   2.684   3.635   4.930
 4803TIP3    H214353   2.806   3.565   4.986
 4804TIP3   OH214354   3.715   6.342   2.503
 4804TIP3    H114355   3.710   6.270   2.440
 4804TIP3    H214356   3.677   6.306   2.583
 4805TIP3   OH214357   5.462   3.776   4.035
 4805TIP3    H114358   5.435   3.807   3.949
 4805TIP3    H214359   5.476   3.855   4.086
 4806TIP3   OH214360   3.222   4.640   1.791
 4806TIP3    H114361   3.203   4.583   1.865
 4806TIP3    H214362   3.318   4.648   1.791
 4807TIP3   OH214363   2.618   6.036   4.414
 4807TIP3    H114364   2.572   5.989   4.344
 4807TIP3    H214365   2.582   6.000   4.495
 4808TIP3   OH214366   0.859   6.823   4.114
 4808TIP3    H114367   0.908   6.900   4.086
 4808TIP3    H214368   0.925   6.754   4.125
 4809TIP3   OH214369   1.332   3.910   0.235
 4809TIP3    H114370   1.266   3.897   0.167
 4809TIP3    H214371   1.408   3.861   0.203
 4810TIP3   OH214372   1.693   2.327   3.365
 4810TIP3    H114373   1.743   2.263   3.316
 4810TIP3    H214374   1.602   2.308   3.344
 4811TIP3   OH214375   5.146   2.437   4.132
 4811TIP3    H114376   5.209   2.370   4.157
 4811TIP3    H214377   5.063   2.390   4.123
 4812TIP3   OH214378   6.927   0.996   0.719
 4812TIP3    H114379   6.874   0.919   0.698
 4812TIP3    H214380   7.017   0.964   0.721
 4813TIP3   OH214381   7.307   5.740   5.500
 4813TIP3    H114382   7.246   5.811   5.518
 4813TIP3    H214383   7.255   5.661   5.508
 4814TIP3   OH214384   4.636   7.009   3.176
 4814TIP3    H114385   4.584   7.024   3.097
 4814TIP3    H214386   4.582   6.949   3.228
 4815TIP3   OH214387   1.483   1.666   4.238
 4815TIP3    H114388   1.569   1.644   4.203
 4815TIP3    H214389   1.457   1.588   4.288
 4816TIP3   OH214390   6.607   1.087   0.472
 4816TIP3    H114391   6.566   1.127   0.396
 4816TIP3    H214392   6.693   1.130   0.479
 4817TIP3   OH214393   7.520   2.842   5.618
 4817TIP3    H114394   7.459   2.801   5.680
 4817TIP3    H214395   7.602   2.795   5.630
 4818TIP3   OH214396   2.518   0.502   1.147
 4818TIP3    H114397   2.450   0.547   1.198
 4818TIP3    H214398   2.476   0.482   1.063
 4819TIP3   OH214399   7.126   1.116   3.017
 4819TIP3    H114400   7.078   1.124   2.934
 4819TIP3    H214401   7.217   1.132   2.994
 4820TIP3   OH214402   1.287   2.906   6.203
 4820TIP3    H114403   1.213   2.846   6.197
 4820TIP3    H214404   1.317   2.899   6.294
 4821TIP3   OH214405   7.784   2.110   4.545
 4821TIP3    H114406   7.711   2.169   4.525
 4821TIP3    H214407   7.760   2.068   4.627
 4822TIP3   OH214408   0.299   6.236   1.769
 4822TIP3    H114409   0.380   6.271   1.806
 4822TIP3    H214410   0.286   6.152   1.813
 4823TIP3   OH214411   6.516   4.229   0.427
 4823TIP3    H114412   6.485   4.139   0.433
 4823TIP3    H214413   6.492   4.257   0.338
 4824TIP3   OH214414   1.713   0.238   2.603
 4824TIP3    H114415   1.769   0.295   2.551
 4824TIP3    H214416   1.720   0.152   2.561
 4825TIP3   OH214417   4.495   3.535   6.278
 4825TIP3    H114418   4.464   3.497   6.360
 4825TIP3    H214419   4.490   3.463   6.215
 4826TIP3   OH214420   8.170   5.514   6.223
 4826TIP3    H114421   8.174   5.458   6.145
 4826TIP3    H214422   8.133   5.458   6.291
 4827TIP3   OH214423   3.168   2.568   6.090
 4827TIP3    H114424   3.136   2.511   6.020
 4827TIP3    H214425   3.263   2.560   6.086
 4828TIP3   OH214426   0.250   2.826   3.209
 4828TIP3    H114427   0.333   2.859   3.244
 4828TIP3    H214428   0.208   2.903   3.171
 4829TIP3   OH214429   1.503   0.231   2.100
 4829TIP3    H114430   1.452   0.274   2.032
 4829TIP3    H214431   1.590   0.219   2.062
 4830TIP3   OH214432   4.223   5.077   2.100
 4830TIP3    H114433   4.185   5.116   2.021
 4830TIP3    H214434   4.152   5.024   2.137
 4831TIP3   OH214435   4.793   6.550   2.231
 4831TIP3    H114436   4.864   6.582   2.175
 4831TIP3    H214437   4.827   6.559   2.320
 4832TIP3   OH214438   0.988   2.411   6.166
 4832TIP3    H114439   0.971   2.479   6.232
 4832TIP3    H214440   0.901   2.376   6.144
 4833TIP3   OH214441   3.182   3.102   1.398
 4833TIP3    H114442   3.152   3.026   1.447
 4833TIP3    H214443   3.276   3.087   1.385
 4834TIP3   OH214444   4.701   2.798   1.951
 4834TIP3    H114445   4.764   2.807   2.023
 4834TIP3    H214446   4.721   2.871   1.892
 4835TIP3   OH214447   4.399   0.705   6.724
 4835TIP3    H114448   4.392   0.730   6.816
 4835TIP3    H214449   4.368   0.781   6.675
 4836TIP3   OH214450   1.043   7.704   0.178
 4836TIP3    H114451   0.995   7.668   0.253
 4836TIP3    H214452   0.981   7.763   0.136
 4837TIP3   OH214453   5.345   4.293   0.168
 4837TIP3    H114454   5.274   4.330   0.220
 4837TIP3    H214455   5.341   4.340   0.085
 4838TIP3   OH214456   1.536   1.131   3.884
 4838TIP3    H114457   1.592   1.195   3.927
 4838TIP3    H214458   1.460   1.182   3.855
 4839TIP3   OH214459   8.143   7.363   1.427
 4839TIP3    H114460   8.196   7.439   1.454
 4839TIP3    H214461   8.073   7.359   1.493
 4840TIP3   OH214462   7.156   3.153   2.078
 4840TIP3    H114463   7.084   3.119   2.131
 4840TIP3    H214464   7.119   3.228   2.033
 4841TIP3   OH214465   1.530   0.657   3.521
 4841TIP3    H114466   1.623   0.677   3.511
 4841TIP3    H214467   1.487   0.742   3.524
 4842TIP3   OH214468   6.424   1.197   0.683
 4842TIP3    H114469   6.354   1.223   0.622
 4842TIP3    H214470   6.505   1.226   0.641
 4843TIP3   OH214471   4.117   3.320   2.277
 4843TIP3    H114472   4.042   3.269   2.309
 4843TIP3    H214473   4.148   3.271   2.201
 4844TIP3   OH214474   3.208   1.921   6.706
 4844TIP3    H114475   3.187   2.010   6.733
 4844TIP3    H214476   3.154   1.866   6.762
 4845TIP3   OH214477   5.592   5.934   2.159
 4845TIP3    H114478   5.563   6.020   2.189
 4845TIP3    H214479   5.614   5.947   2.067
 4846TIP3   OH214480   1.631   7.604   6.691
 4846TIP3    H114481   1.649   7.598   6.785
 4846TIP3    H214482   1.626   7.698   6.673
 4847TIP3   OH214483   6.220   4.199   0.486
 4847TIP3    H114484   6.230   4.291   0.511
 4847TIP3    H214485   6.215   4.201   0.390
 4848TIP3   OH214486   0.971   6.283   2.509
 4848TIP3    H114487   1.042   6.347   2.502
 4848TIP3    H214488   0.893   6.336   2.524
 4849TIP3   OH214489   2.020   5.428   5.091
 4849TIP3    H114490   2.065   5.374   5.026
 4849TIP3    H214491   2.090   5.472   5.138
 4850TIP3   OH214492   4.532   6.433   3.827
 4850TIP3    H114493   4.459   6.495   3.840
 4850TIP3    H214494   4.556   6.444   3.735
 4851TIP3   OH214495   7.389   4.139   4.511
 4851TIP3    H114496   7.413   4.232   4.515
 4851TIP3    H214497   7.296   4.137   4.535
 4852TIP3   OH214498   6.517   6.885   5.771
 4852TIP3    H114499   6.494   6.848   5.686
 4852TIP3    H214500   6.537   6.977   5.753
 4853TIP3   OH214501   2.701   2.082   4.778
 4853TIP3    H114502   2.648   2.020   4.727
 4853TIP3    H214503   2.665   2.168   4.757
 4854TIP3   OH214504   6.553   0.881   0.236
 4854TIP3    H114505   6.598   0.912   0.315
 4854TIP3    H214506   6.584   0.791   0.225
 4855TIP3   OH214507   2.000   5.290   6.747
 4855TIP3    H114508   1.925   5.316   6.801
 4855TIP3    H214509   2.020   5.201   6.775
 4856TIP3   OH214510   6.749   7.694   2.416
 4856TIP3    H114511   6.690   7.619   2.423
 4856TIP3    H214512   6.836   7.659   2.434
 4857TIP3   OH214513   0.586   4.254   5.332
 4857TIP3    H114514   0.586   4.259   5.428
 4857TIP3    H214515   0.494   4.263   5.307
 4858TIP3   OH214516   2.622   5.369   2.670
 4858TIP3    H114517   2.668   5.346   2.750
 4858TIP3    H214518   2.602   5.462   2.680
 4859TIP3   OH214519   6.112   6.944   5.111
 4859TIP3    H114520   6.102   6.964   5.018
 4859TIP3    H214521   6.023   6.929   5.142
 4860TIP3   OH214522   3.588   2.301   2.843
 4860TIP3    H114523   3.584   2.313   2.937
 4860TIP3    H214524   3.645   2.225   2.830
 4861TIP3   OH214525   5.810   5.875   1.448
 4861TIP3    H114526   5.735   5.932   1.430
 4861TIP3    H214527   5.770   5.796   1.484
 4862TIP3   OH214528   7.742   3.232   1.147
 4862TIP3    H114529   7.828   3.227   1.105
 4862TIP3    H214530   7.680   3.214   1.076
 4863TIP3   OH214531   3.995   0.684   2.741
 4863TIP3    H114532   4.030   0.604   2.781
 4863TIP3    H214533   3.907   0.693   2.779
 4864TIP3   OH214534   6.202   5.532   4.130
 4864TIP3    H114535   6.219   5.610   4.077
 4864TIP3    H214536   6.260   5.465   4.094
 4865TIP3   OH214537   3.841   4.548   5.903
 4865TIP3    H114538   3.833   4.572   5.810
 4865TIP3    H214539   3.764   4.587   5.945
 4866TIP3   OH214540   7.456   4.839   4.837
 4866TIP3    H114541   7.450   4.933   4.821
 4866TIP3    H214542   7.547   4.825   4.862
 4867TIP3   OH214543   2.692   3.690   0.289
 4867TIP3    H114544   2.608   3.689   0.243
 4867TIP3    H214545   2.716   3.598   0.297
 4868TIP3   OH214546   5.552   1.473   4.090
 4868TIP3    H114547   5.511   1.428   4.164
 4868TIP3    H214548   5.640   1.496   4.122
 4869TIP3   OH214549   7.746   7.800   4.093
 4869TIP3    H114550   7.751   7.732   4.159
 4869TIP3    H214551   7.669   7.852   4.117
 4870TIP3   OH214552   6.851   4.713   3.412
 4870TIP3    H114553   6.831   4.796   3.455
 4870TIP3    H214554   6.800   4.648   3.461
 4871TIP3   OH214555   3.777   4.755   2.525
 4871TIP3    H114556   3.868   4.727   2.516
 4871TIP3    H214557   3.781   4.849   2.544
 4872TIP3   OH214558   0.385   6.246   0.940
 4872TIP3    H114559   0.325   6.319   0.955
 4872TIP3    H214560   0.382   6.231   0.846
 4873TIP3   OH214561   7.021   4.422   6.162
 4873TIP3    H114562   7.078   4.499   6.157
 4873TIP3    H214563   7.062   4.358   6.104
 4874TIP3   OH214564   4.469   2.132   3.161
 4874TIP3    H114565   4.405   2.199   3.139
 4874TIP3    H214566   4.504   2.160   3.246
 4875TIP3   OH214567   4.407   5.155   0.283
 4875TIP3    H114568   4.322   5.197   0.271
 4875TIP3    H214569   4.432   5.176   0.373
 4876TIP3   OH214570   6.490   0.714   1.878
 4876TIP3    H114571   6.526   0.778   1.817
 4876TIP3    H214572   6.443   0.767   1.943
 4877TIP3   OH214573   4.500   7.006   4.690
 4877TIP3    H114574   4.477   7.081   4.635
 4877TIP3    H214575   4.532   7.045   4.771
 4878TIP3   OH214576   5.247   0.915   4.549
 4878TIP3    H114577   5.153   0.932   4.557
 4878TIP3    H214578   5.254   0.820   4.550
 4879TIP3   OH214579   5.676   6.732   5.310
 4879TIP3    H114580   5.682   6.670   5.237
 4879TIP3    H214581   5.589   6.717   5.347
 4880TIP3   OH214582   1.716   3.462   1.841
 4880TIP3    H114583   1.644   3.525   1.850
 4880TIP3    H214584   1.795   3.515   1.852
 4881TIP3   OH214585   5.419   2.650   5.971
 4881TIP3    H114586   5.485   2.640   5.902
 4881TIP3    H214587   5.353   2.584   5.950
 4882TIP3   OH214588   1.169   0.980   0.386
 4882TIP3    H114589   1.201   1.037   0.316
 4882TIP3    H214590   1.136   1.041   0.453
 4883TIP3   OH214591   4.469   3.091   5.691
 4883TIP3    H114592   4.398   3.097   5.755
 4883TIP3    H214593   4.434   3.131   5.612
 4884TIP3   OH214594   4.174   4.756   0.041
 4884TIP3    H114595   4.207   4.797   0.121
 4884TIP3    H214596   4.229   4.790  -0.029
 4885TIP3   OH214597   7.867   3.981   2.654
 4885TIP3    H114598   7.806   4.020   2.591
 4885TIP3    H214599   7.811   3.927   2.710
 4886TIP3   OH214600   7.897   5.696   3.462
 4886TIP3    H114601   7.836   5.755   3.506
 4886TIP3    H214602   7.981   5.743   3.463
 4887TIP3   OH214603   2.310   6.936   6.477
 4887TIP3    H114604   2.228   6.945   6.525
 4887TIP3    H214605   2.318   6.842   6.460
 4888TIP3   OH214606   3.602   1.348   5.954
 4888TIP3    H114607   3.592   1.376   5.863
 4888TIP3    H214608   3.565   1.421   6.005
 4889TIP3   OH214609   0.287   5.673   2.208
 4889TIP3    H114610   0.242   5.717   2.136
 4889TIP3    H214611   0.220   5.616   2.246
 4890TIP3   OH214612   0.775   6.249   6.736
 4890TIP3    H114613   0.803   6.160   6.756
 4890TIP3    H214614   0.821   6.272   6.656
 4891TIP3   OH214615   0.998   3.859   4.529
 4891TIP3    H114616   0.918   3.847   4.479
 4891TIP3    H214617   1.002   3.783   4.587
 4892TIP3   OH214618   2.219   3.312   3.141
 4892TIP3    H114619   2.234   3.381   3.205
 4892TIP3    H214620   2.139   3.337   3.096
 4893TIP3   OH214621   3.332   7.514   6.729
 4893TIP3    H114622   3.361   7.424   6.742
 4893TIP3    H214623   3.346   7.556   6.814
 4894TIP3   OH214624   2.640   0.146   6.177
 4894TIP3    H114625   2.663   0.192   6.258
 4894TIP3    H214626   2.700   0.071   6.175
 4895TIP3   OH214627   8.125   6.162   6.439
 4895TIP3    H114628   8.061   6.209   6.386
 4895TIP3    H214629   8.102   6.070   6.430
 4896TIP3   OH214630   2.758   4.347   2.227
 4896TIP3    H114631   2.782   4.377   2.315
 4896TIP3    H214632   2.666   4.372   2.217
 4897TIP3   OH214633   0.447   7.711   6.258
 4897TIP3    H114634   0.366   7.671   6.289
 4897TIP3    H214635   0.474   7.658   6.183
 4898TIP3   OH214636   5.464   1.767   3.709
 4898TIP3    H114637   5.383   1.758   3.659
 4898TIP3    H214638   5.435   1.782   3.799
 4899TIP3   OH214639   6.679   5.918   4.740
 4899TIP3    H114640   6.772   5.904   4.752
 4899TIP3    H214641   6.637   5.865   4.807
 4900TIP3   OH214642   0.481   1.264   0.886
 4900TIP3    H114643   0.555   1.318   0.914
 4900TIP3    H214644   0.506   1.231   0.799
 4901TIP3   OH214645   7.088   4.641   5.698
 4901TIP3    H114646   7.166   4.691   5.721
 4901TIP3    H214647   7.100   4.556   5.741
 4902TIP3   OH214648   2.267   4.799   1.674
 4902TIP3    H114649   2.236   4.709   1.665
 4902TIP3    H214650   2.357   4.790   1.705
 4903TIP3   OH214651   1.798   5.783   1.373
 4903TIP3    H114652   1.879   5.827   1.346
 4903TIP3    H214653   1.742   5.787   1.296
 4904TIP3   OH214654   1.315   0.011   2.120
 4904TIP3    H114655   1.331   0.051   2.205
 4904TIP3    H214656   1.401   0.009   2.078
 4905TIP3   OH214657   8.051   7.073   5.126
 4905TIP3    H114658   8.080   7.060   5.216
 4905TIP3    H214659   8.108   7.142   5.092
 4906TIP3   OH214660   1.978   0.494   1.256
 4906TIP3    H114661   1.972   0.436   1.179
 4906TIP3    H214662   2.062   0.471   1.296
 4907TIP3   OH214663   7.984   5.100   5.783
 4907TIP3    H114664   7.901   5.146   5.773
 4907TIP3    H214665   7.981   5.063   5.871
 4908TIP3   OH214666   5.367   1.319   3.512
 4908TIP3    H114667   5.438   1.267   3.473
 4908TIP3    H214668   5.328   1.260   3.576
 4909TIP3   OH214669   3.031   6.781   1.208
 4909TIP3    H114670   3.104   6.719   1.205
 4909TIP3    H214671   2.953   6.725   1.215
 4910TIP3   OH214672   5.994   4.450   3.312
 4910TIP3    H114673   5.984   4.495   3.229
 4910TIP3    H214674   5.983   4.518   3.378
 4911TIP3   OH214675   8.257   3.358   2.821
 4911TIP3    H114676   8.221   3.276   2.857
 4911TIP3    H214677   8.347   3.336   2.796
 4912TIP3   OH214678   0.141   0.391   2.050
 4912TIP3    H114679   0.121   0.376   2.143
 4912TIP3    H214680   0.072   0.345   2.003
 4913TIP3   OH214681   4.692   2.162   6.268
 4913TIP3    H114682   4.672   2.076   6.231
 4913TIP3    H214683   4.609   2.194   6.302
 4914TIP3   OH214684   3.898   5.457   6.169
 4914TIP3    H114685   3.878   5.538   6.215
 4914TIP3    H214686   3.992   5.460   6.153
 4915TIP3   OH214687   1.980   3.582   3.673
 4915TIP3    H114688   1.909   3.523   3.646
 4915TIP3    H214689   1.954   3.667   3.638
 4916TIP3   OH214690   7.620   4.811   0.158
 4916TIP3    H114691   7.640   4.818   0.065
 4916TIP3    H214692   7.706   4.809   0.200
 4917TIP3   OH214693   5.761   4.784   3.476
 4917TIP3    H114694   5.744   4.736   3.557
 4917TIP3    H214695   5.728   4.726   3.406
 4918TIP3   OH214696   5.133   6.715   1.666
 4918TIP3    H114697   5.065   6.724   1.599
 4918TIP3    H214698   5.086   6.722   1.749
 4919TIP3   OH214699   0.697   1.387   6.175
 4919TIP3    H114700   0.634   1.406   6.105
 4919TIP3    H214701   0.778   1.430   6.147
 4920TIP3   OH214702   1.285   6.065   6.657
 4920TIP3    H114703   1.234   6.143   6.635
 4920TIP3    H214704   1.306   6.025   6.572
 4921TIP3   OH214705   0.913   4.160   1.784
 4921TIP3    H114706   0.878   4.104   1.853
 4921TIP3    H214707   0.881   4.248   1.806
 4922TIP3   OH214708   7.117   6.826   2.294
 4922TIP3    H114709   7.155   6.908   2.261
 4922TIP3    H214710   7.121   6.835   2.390
 4923TIP3   OH214711   0.033   0.539   0.673
 4923TIP3    H114712   0.103   0.586   0.719
 4923TIP3    H214713  -0.044   0.595   0.683
 4924TIP3   OH214714   6.626   2.863   5.579
 4924TIP3    H114715   6.537   2.879   5.610
 4924TIP3    H214716   6.677   2.938   5.610
 4925TIP3   OH214717   7.281   7.230   5.820
 4925TIP3    H114718   7.288   7.302   5.883
 4925TIP3    H214719   7.254   7.272   5.738
 4926TIP3   OH214720   4.238   3.920   1.966
 4926TIP3    H114721   4.279   3.892   1.884
 4926TIP3    H214722   4.162   3.863   1.975
 4927TIP3   OH214723   3.392   5.874   1.910
 4927TIP3    H114724   3.354   5.873   1.998
 4927TIP3    H214725   3.317   5.876   1.851
 4928TIP3   OH214726   7.379   6.434   0.955
 4928TIP3    H114727   7.395   6.340   0.957
 4928TIP3    H214728   7.421   6.464   0.874
 4929TIP3   OH214729   4.568   0.871   1.209
 4929TIP3    H114730   4.473   0.855   1.215
 4929TIP3    H214731   4.590   0.914   1.292
 4930TIP3   OH214732   3.069   7.300   1.511
 4930TIP3    H114733   3.109   7.223   1.471
 4930TIP3    H214734   3.069   7.366   1.442
 4931TIP3   OH214735   4.591   3.733   5.099
 4931TIP3    H114736   4.581   3.820   5.059
 4931TIP3    H214737   4.682   3.709   5.081
 4932TIP3   OH214738   7.961   5.914   2.410
 4932TIP3    H114739   7.965   6.009   2.398
 4932TIP3    H214740   7.990   5.899   2.500
 4933TIP3   OH214741   7.976   4.980   6.032
 4933TIP3    H114742   7.908   4.917   6.054
 4933TIP3    H214743   8.058   4.931   6.040
 4934TIP3   OH214744   2.395   2.427   2.134
 4934TIP3    H114745   2.393   2.469   2.220
 4934TIP3    H214746   2.328   2.472   2.083
 4935TIP3   OH214747   2.752   0.825   4.853
 4935TIP3    H114748   2.802   0.864   4.781
 4935TIP3    H214749   2.682   0.888   4.870
 4936TIP3   OH214750   8.073   4.655   6.308
 4936TIP3    H114751   8.149   4.664   6.251
 4936TIP3    H214752   8.058   4.560   6.313
 4937TIP3   OH214753   6.559   0.833   3.733
 4937TIP3    H114754   6.522   0.805   3.817
 4937TIP3    H214755   6.552   0.928   3.735
 4938TIP3   OH214756   3.694   7.573   2.262
 4938TIP3    H114757   3.733   7.611   2.341
 4938TIP3    H214758   3.605   7.608   2.260
 4939TIP3   OH214759   4.166   0.928  -0.003
 4939TIP3    H114760   4.136   1.018  -0.021
 4939TIP3    H214761   4.087   0.875  -0.012
 4940TIP3   OH214762   1.339   7.660   6.551
 4940TIP3    H114763   1.319   7.625   6.638
 4940TIP3    H214764   1.431   7.639   6.538
 4941TIP3   OH214765   6.980   1.994   5.895
 4941TIP3    H114766   7.050   1.976   5.831
 4941TIP3    H214767   6.992   1.927   5.963
 4942TIP3   OH214768   5.095   1.331   1.159
 4942TIP3    H114769   5.159   1.283   1.108
 4942TIP3    H214770   5.070   1.272   1.229
 4943TIP3   OH214771   1.512   5.304   2.823
 4943TIP3    H114772   1.451   5.231   2.836
 4943TIP3    H214773   1.558   5.313   2.907
 4944TIP3   OH214774   4.387   3.883   5.689
 4944TIP3    H114775   4.446   3.826   5.639
 4944TIP3    H214776   4.443   3.953   5.721
 4945TIP3   OH214777   3.955   3.500   1.847
 4945TIP3    H114778   3.901   3.569   1.887
 4945TIP3    H214779   3.955   3.429   1.912
 4946TIP3   OH214780   0.586   5.089   4.467
 4946TIP3    H114781   0.503   5.132   4.489
 4946TIP3    H214782   0.620   5.060   4.551
 4947TIP3   OH214783   3.047   3.900   6.379
 4947TIP3    H114784   3.094   3.819   6.357
 4947TIP3    H214785   2.966   3.870   6.419
 4948TIP3   OH214786   7.567   0.069   6.073
 4948TIP3    H114787   7.578   0.111   5.987
 4948TIP3    H214788   7.516   0.132   6.124
 4949TIP3   OH214789   6.112   4.906   5.528
 4949TIP3    H114790   6.108   4.875   5.437
 4949TIP3    H214791   6.195   4.872   5.561
 4950TIP3   OH214792   5.891   7.045   0.609
 4950TIP3    H114793   5.922   7.058   0.520
 4950TIP3    H214794   5.969   7.051   0.664
 4951TIP3   OH214795   7.011   1.759   6.059
 4951TIP3    H114796   7.029   1.671   6.026
 4951TIP3    H214797   7.037   1.756   6.151
 4952TIP3   OH214798   0.822   5.287   2.203
 4952TIP3    H114799   0.807   5.328   2.117
 4952TIP3    H214800   0.835   5.361   2.262
 4953TIP3   OH214801   4.032   3.201   3.973
 4953TIP3    H114802   4.029   3.198   3.878
 4953TIP3    H214803   4.123   3.183   3.995
 4954TIP3   OH214804   5.256   0.277   3.148
 4954TIP3    H114805   5.215   0.218   3.084
 4954TIP3    H214806   5.279   0.354   3.097
 4955TIP3   OH214807   3.671   4.002   5.602
 4955TIP3    H114808   3.587   4.046   5.605
 4955TIP3    H214809   3.723   4.044   5.670
 4956TIP3   OH214810   3.067   6.122   2.659
 4956TIP3    H114811   3.129   6.049   2.654
 4956TIP3    H214812   3.050   6.144   2.568
 4957TIP3   OH214813   6.458   3.170   1.921
 4957TIP3    H114814   6.535   3.177   1.977
 4957TIP3    H214815   6.474   3.233   1.850
 4958TIP3   OH214816   2.069   7.126   4.760
 4958TIP3    H114817   2.019   7.161   4.834
 4958TIP3    H214818   2.077   7.032   4.779
 4959TIP3   OH214819   7.280   3.049   0.150
 4959TIP3    H114820   7.369   3.018   0.168
 4959TIP3    H214821   7.293   3.121   0.088
 4960TIP3   OH214822   6.558   7.474   3.812
 4960TIP3    H114823   6.597   7.487   3.726
 4960TIP3    H214824   6.608   7.403   3.851
 4961TIP3   OH214825   4.762   6.915   6.561
 4961TIP3    H114826   4.728   6.844   6.507
 4961TIP3    H214827   4.685   6.962   6.592
 4962TIP3   OH214828   4.497   6.541   3.347
 4962TIP3    H114829   4.476   6.608   3.282
 4962TIP3    H214830   4.414   6.494   3.360
 4963TIP3   OH214831   5.109   7.377   2.738
 4963TIP3    H114832   5.144   7.436   2.804
 4963TIP3    H214833   5.058   7.313   2.787
 4964TIP3   OH214834   2.855   6.652   4.984
 4964TIP3    H114835   2.869   6.560   4.960
 4964TIP3    H214836   2.859   6.653   5.080
 4965TIP3   OH214837   5.893   5.666   4.026
 4965TIP3    H114838   5.984   5.692   4.031
 4965TIP3    H214839   5.879   5.648   3.933
 4966TIP3   OH214840   2.629   1.543   2.731
 4966TIP3    H114841   2.664   1.607   2.793
 4966TIP3    H214842   2.560   1.499   2.779
 4967TIP3   OH214843   1.381   6.677   2.375
 4967TIP3    H114844   1.292   6.669   2.342
 4967TIP3    H214845   1.435   6.691   2.298
 4968TIP3   OH214846   0.455   4.047   2.445
 4968TIP3    H114847   0.479   4.127   2.491
 4968TIP3    H214848   0.466   3.978   2.510
 4969TIP3   OH214849   0.441   4.340   4.325
 4969TIP3    H114850   0.437   4.393   4.246
 4969TIP3    H214851   0.351   4.339   4.358
 4970TIP3   OH214852   7.872   5.558   3.056
 4970TIP3    H114853   7.871   5.653   3.061
 4970TIP3    H214854   7.914   5.539   2.972
 4971TIP3   OH214855   8.057   3.932   0.130
 4971TIP3    H114856   8.139   3.905   0.088
 4971TIP3    H214857   8.065   3.902   0.220
 4972TIP3   OH214858   6.261   6.651   3.172
 4972TIP3    H114859   6.193   6.602   3.218
 4972TIP3    H214860   6.222   6.671   3.087
 4973TIP3   OH214861   4.256   7.570   0.924
 4973TIP3    H114862   4.265   7.595   0.832
 4973TIP3    H214863   4.195   7.634   0.960
 4974TIP3   OH214864   5.766   4.339   1.645
 4974TIP3    H114865   5.718   4.366   1.567
 4974TIP3    H214866   5.790   4.421   1.689
 4975TIP3   OH214867   6.934   5.809   5.315
 4975TIP3    H114868   6.990   5.860   5.256
 4975TIP3    H214869   6.967   5.719   5.308
 4976TIP3   OH214870   1.658   0.448   6.673
 4976TIP3    H114871   1.648   0.446   6.768
 4976TIP3    H214872   1.623   0.363   6.644
 4977TIP3   OH214873   2.444   2.913   5.755
 4977TIP3    H114874   2.538   2.897   5.750
 4977TIP3    H214875   2.404   2.826   5.749
 4978TIP3   OH214876   4.250   0.279   0.683
 4978TIP3    H114877   4.173   0.222   0.679
 4978TIP3    H214878   4.300   0.245   0.757
 4979TIP3   OH214879   6.214   7.268   0.494
 4979TIP3    H114880   6.127   7.305   0.480
 4979TIP3    H214881   6.259   7.332   0.548
 4980TIP3   OH214882   0.878   2.874   3.579
 4980TIP3    H114883   0.816   2.944   3.601
 4980TIP3    H214884   0.964   2.912   3.596
 4981TIP3   OH214885   1.877   4.499   2.340
 4981TIP3    H114886   1.891   4.592   2.357
 4981TIP3    H214887   1.783   4.492   2.320
 4982TIP3   OH214888   7.568   2.785   3.414
 4982TIP3    H114889   7.496   2.752   3.360
 4982TIP3    H214890   7.539   2.772   3.504
 4983TIP3   OH214891   4.178   6.811   0.325
 4983TIP3    H114892   4.242   6.854   0.268
 4983TIP3    H214893   4.217   6.725   0.343
 4984TIP3   OH214894   1.708   7.478   6.159
 4984TIP3    H114895   1.680   7.561   6.122
 4984TIP3    H214896   1.695   7.414   6.089
 4985TIP3   OH214897   5.743   2.293   1.585
 4985TIP3    H114898   5.788   2.377   1.590
 4985TIP3    H214899   5.771   2.246   1.663
 4986TIP3   OH214900   5.203   2.509   1.682
 4986TIP3    H114901   5.181   2.568   1.610
 4986TIP3    H214902   5.275   2.456   1.649
 4987TIP3   OH214903   5.506   3.557   5.260
 4987TIP3    H114904   5.497   3.550   5.355
 4987TIP3    H214905   5.512   3.466   5.230
 4988TIP3   OH214906   2.737   0.797   0.274
 4988TIP3    H114907   2.663   0.753   0.315
 4988TIP3    H214908   2.745   0.880   0.320
 4989TIP3   OH214909   1.615   4.096   0.333
 4989TIP3    H114910   1.577   4.009   0.342
 4989TIP3    H214911   1.655   4.114   0.418
 4990TIP3   OH214912   2.911   6.501   4.616
 4990TIP3    H114913   2.932   6.480   4.525
 4990TIP3    H214914   2.825   6.544   4.611
 4991TIP3   OH214915   4.667   2.914   4.641
 4991TIP3    H114916   4.758   2.943   4.654
 4991TIP3    H214917   4.667   2.824   4.672
 4992TIP3   OH214918   5.350   4.468   5.868
 4992TIP3    H114919   5.359   4.467   5.772
 4992TIP3    H214920   5.400   4.392   5.897
 4993TIP3   OH214921   6.039   2.969   2.958
 4993TIP3    H114922   6.080   3.044   2.915
 4993TIP3    H214923   6.031   2.995   3.050
 4994TIP3   OH214924   4.511   7.424   0.292
 4994TIP3    H114925   4.530   7.400   0.383
 4994TIP3    H214926   4.576   7.376   0.241
 4995TIP3   OH214927   4.311   7.258   3.147
 4995TIP3    H114928   4.296   7.190   3.082
 4995TIP3    H214929   4.287   7.339   3.103
 4996TIP3   OH214930   0.126   7.736   2.930
 4996TIP3    H114931   0.057   7.761   2.869
 4996TIP3    H214932   0.138   7.813   2.986
 4997TIP3   OH214933   0.804   6.195   2.756
 4997TIP3    H114934   0.782   6.256   2.827
 4997TIP3    H214935   0.747   6.120   2.771
 4998TIP3   OH214936   4.866   4.744   4.316
 4998TIP3    H114937   4.937   4.807   4.327
 4998TIP3    H214938   4.812   4.781   4.247
 4999TIP3   OH214939   2.131   7.050   5.536
 4999TIP3    H114940   2.109   7.125   5.591
 4999TIP3    H214941   2.209   7.012   5.577
 5000TIP3   OH214942   6.885   5.833   6.393
 5000TIP3    H114943   6.863   5.763   6.455
 5000TIP3    H214944   6.800   5.869   6.367
 5001TIP3   OH214945   5.743   2.201   6.415
 5001TIP3    H114946   5.741   2.213   6.510
 5001TIP3    H214947   5.742   2.106   6.403
 5002TIP3   OH214948   6.907   0.617   4.525
 5002TIP3    H114949   6.965   0.614   4.449
 5002TIP3    H214950   6.820   0.631   4.489
 5003TIP3   OH214951   6.030   6.362   6.193
 5003TIP3    H114952   6.067   6.450   6.203
 5003TIP3    H214953   5.980   6.348   6.273
 5004TIP3   OH214954   1.954   5.896   4.020
 5004TIP3    H114955   1.945   5.802   4.002
 5004TIP3    H214956   1.874   5.935   3.984
 5005TIP3   OH214957   5.240   1.983   2.424
 5005TIP3    H114958   5.324   2.003   2.466
 5005TIP3    H214959   5.259   1.984   2.331
 5006TIP3   OH214960   0.853   1.807   4.434
 5006TIP3    H114961   0.928   1.776   4.486
 5006TIP3    H214962   0.809   1.726   4.406
 5007TIP3   OH214963   5.368   0.259   0.634
 5007TIP3    H114964   5.287   0.296   0.599
 5007TIP3    H214965   5.422   0.241   0.557
 5008TIP3   OH214966   2.380   1.429   0.204
 5008TIP3    H114967   2.334   1.405   0.285
 5008TIP3    H214968   2.472   1.418   0.225
 5009TIP3   OH214969   7.583   6.584   3.907
 5009TIP3    H114970   7.539   6.499   3.906
 5009TIP3    H214971   7.673   6.564   3.933
 5010TIP3   OH214972   3.699   7.203   5.465
 5010TIP3    H114973   3.793   7.188   5.469
 5010TIP3    H214974   3.685   7.248   5.382
 5011TIP3   OH214975   0.223   4.683   6.132
 5011TIP3    H114976   0.303   4.634   6.114
 5011TIP3    H214977   0.158   4.615   6.154
 5012TIP3   OH214978   5.625   0.289   4.041
 5012TIP3    H114979   5.535   0.275   4.011
 5012TIP3    H214980   5.679   0.270   3.964
 5013TIP3   OH214981   1.816   3.720   2.764
 5013TIP3    H114982   1.890   3.701   2.707
 5013TIP3    H214983   1.778   3.634   2.784
 5014TIP3   OH214984   1.457   2.957   5.930
 5014TIP3    H114985   1.401   2.893   5.974
 5014TIP3    H214986   1.450   3.036   5.984
 5015TIP3   OH214987   6.484   7.368   5.315
 5015TIP3    H114988   6.429   7.344   5.241
 5015TIP3    H214989   6.423   7.377   5.388
 5016TIP3   OH214990   3.704   1.713   5.709
 5016TIP3    H114991   3.644   1.773   5.752
 5016TIP3    H214992   3.651   1.637   5.686
 5017TIP3   OH214993   6.434   5.850   3.263
 5017TIP3    H114994   6.354   5.803   3.286
 5017TIP3    H214995   6.409   5.943   3.266
 5018TIP3   OH214996   4.695   7.234   0.184
 5018TIP3    H114997   4.660   7.240   0.096
 5018TIP3    H214998   4.715   7.142   0.197
 5019TIP3   OH214999   5.533   0.303   1.893
 5019TIP3    H115000   5.533   0.214   1.858
 5019TIP3    H215001   5.515   0.291   1.987
 5020TIP3   OH215002   3.492   4.161   3.039
 5020TIP3    H115003   3.571   4.199   3.000
 5020TIP3    H215004   3.475   4.215   3.116
 5021TIP3   OH215005   5.529   4.178   1.063
 5021TIP3    H115006   5.568   4.159   0.978
 5021TIP3    H215007   5.436   4.186   1.046
 5022TIP3   OH215008   6.289   4.571   6.693
 5022TIP3    H115009   6.305   4.479   6.674
 5022TIP3    H215010   6.195   4.576   6.710
 5023TIP3   OH215011   1.515   6.214   1.171
 5023TIP3    H115012   1.498   6.242   1.081
 5023TIP3    H215013   1.455   6.141   1.185
 5024TIP3   OH215014   0.456   4.084   0.546
 5024TIP3    H115015   0.542   4.079   0.588
 5024TIP3    H215016   0.426   3.993   0.542
 5025TIP3   OH215017   5.590   5.584   2.984
 5025TIP3    H115018   5.495   5.574   2.984
 5025TIP3    H215019   5.619   5.542   2.903
 5026TIP3   OH215020   2.183   5.397   3.832
 5026TIP3    H115021   2.263   5.430   3.873
 5026TIP3    H215022   2.214   5.343   3.759
 5027TIP3   OH215023   3.448   0.596   1.355
 5027TIP3    H115024   3.530   0.556   1.381
 5027TIP3    H215025   3.465   0.633   1.268
 5028TIP3   OH215026   2.383   4.429   3.407
 5028TIP3    H115027   2.334   4.370   3.465
 5028TIP3    H215028   2.345   4.414   3.321
 5029TIP3   OH215029   5.521   0.989   3.775
 5029TIP3    H115030   5.459   0.997   3.847
 5029TIP3    H215031   5.479   0.928   3.714
 5030TIP3   OH215032   0.611   0.504   1.832
 5030TIP3    H115033   0.541   0.493   1.768
 5030TIP3    H215034   0.593   0.437   1.898
 5031TIP3   OH215035   0.176   3.812   2.438
 5031TIP3    H115036   0.155   3.905   2.434
 5031TIP3    H215037   0.113   3.776   2.500
 5032TIP3   OH215038   2.568   4.204   5.128
 5032TIP3    H115039   2.559   4.293   5.094
 5032TIP3    H215040   2.569   4.149   5.049
 5033TIP3   OH215041   3.028   3.267   4.264
 5033TIP3    H115042   2.995   3.200   4.203
 5033TIP3    H215043   3.113   3.233   4.292
 5034TIP3   OH215044   4.514   3.700   3.802
 5034TIP3    H115045   4.576   3.706   3.729
 5034TIP3    H215046   4.542   3.621   3.849
 5035TIP3   OH215047   2.828   1.925   4.133
 5035TIP3    H115048   2.784   1.849   4.095
 5035TIP3    H215049   2.873   1.891   4.210
 5036TIP3   OH215050   6.608   3.987   6.387
 5036TIP3    H115051   6.665   3.981   6.311
 5036TIP3    H215052   6.588   3.896   6.410
 5037TIP3   OH215053   7.129   5.080   6.509
 5037TIP3    H115054   7.063   5.011   6.503
 5037TIP3    H215055   7.150   5.101   6.419
 5038TIP3   OH215056   0.436   1.722   6.066
 5038TIP3    H115057   0.397   1.715   5.979
 5038TIP3    H215058   0.365   1.699   6.126
 5039TIP3   OH215059   3.072   5.980   1.817
 5039TIP3    H115060   3.123   6.058   1.841
 5039TIP3    H215061   3.127   5.934   1.753
 5040TIP3   OH215062   8.199   0.749   0.049
 5040TIP3    H115063   8.124   0.792   0.008
 5040TIP3    H215064   8.171   0.735   0.140
 5041TIP3   OH215065   7.516   1.025   2.594
 5041TIP3    H115066   7.568   0.971   2.534
 5041TIP3    H215067   7.428   1.024   2.556
 5042TIP3   OH215068   1.694   1.625   1.166
 5042TIP3    H115069   1.761   1.665   1.221
 5042TIP3    H215070   1.740   1.556   1.118
 5043TIP3   OH215071   2.652   5.091   5.728
 5043TIP3    H115072   2.578   5.151   5.715
 5043TIP3    H215073   2.728   5.148   5.738
 5044TIP3   OH215074   1.080   2.380   4.933
 5044TIP3    H115075   1.057   2.304   4.879
 5044TIP3    H215076   1.043   2.454   4.886
 5045TIP3   OH215077   6.054   6.324   1.150
 5045TIP3    H115078   5.989   6.260   1.123
 5045TIP3    H215079   6.014   6.409   1.131
 5046TIP3   OH215080   7.062   5.155   3.821
 5046TIP3    H115081   7.088   5.246   3.838
 5046TIP3    H215082   7.103   5.134   3.737
 5047TIP3   OH215083   7.974   3.110   1.334
 5047TIP3    H115084   8.028   3.076   1.405
 5047TIP3    H215085   7.886   3.117   1.372
 5048TIP3   OH215086   7.060   0.944   5.596
 5048TIP3    H115087   7.062   1.026   5.545
 5048TIP3    H215088   7.067   0.973   5.687
 5049TIP3   OH215089   0.864   6.049   3.247
 5049TIP3    H115090   0.936   6.091   3.293
 5049TIP3    H215091   0.902   6.022   3.163
 5050TIP3   OH215092   6.957   5.586   4.586
 5050TIP3    H115093   6.942   5.660   4.528
 5050TIP3    H215094   7.051   5.566   4.576
 5051TIP3   OH215095   7.383   5.065   1.480
 5051TIP3    H115096   7.398   4.979   1.439
 5051TIP3    H215097   7.434   5.126   1.427
 5052TIP3   OH215098   0.314   3.542   5.050
 5052TIP3    H115099   0.407   3.557   5.066
 5052TIP3    H215100   0.270   3.590   5.121
 5053TIP3   OH215101   7.686   7.214   0.188
 5053TIP3    H115102   7.762   7.273   0.184
 5053TIP3    H215103   7.614   7.264   0.151
 5054TIP3   OH215104   5.392   3.430   0.507
 5054TIP3    H115105   5.355   3.430   0.596
 5054TIP3    H215106   5.486   3.424   0.520
 5055TIP3   OH215107   7.227   2.680   2.095
 5055TIP3    H115108   7.280   2.704   2.171
 5055TIP3    H215109   7.288   2.636   2.036
 5056TIP3   OH215110   6.531   2.862   5.321
 5056TIP3    H115111   6.578   2.877   5.404
 5056TIP3    H215112   6.443   2.894   5.338
 5057TIP3   OH215113   3.872   7.427   6.516
 5057TIP3    H115114   3.937   7.407   6.584
 5057TIP3    H215115   3.814   7.351   6.515
 5058TIP3   OH215116   7.353   2.378   6.463
 5058TIP3    H115117   7.305   2.312   6.412
 5058TIP3    H215118   7.326   2.362   6.554
 5059TIP3   OH215119   7.502   6.432   4.704
 5059TIP3    H115120   7.536   6.521   4.710
 5059TIP3    H215121   7.479   6.409   4.794
 5060TIP3   OH215122   6.037   3.226   3.625
 5060TIP3    H115123   6.069   3.293   3.685
 5060TIP3    H215124   6.016   3.152   3.682
 5061TIP3   OH215125   6.018   0.463   6.593
 5061TIP3    H115126   5.959   0.537   6.579
 5061TIP3    H215127   6.106   0.501   6.590
 5062TIP3   OH215128   6.238   0.234   5.347
 5062TIP3    H115129   6.224   0.142   5.367
 5062TIP3    H215130   6.186   0.250   5.268
 5063TIP3   OH215131   4.579   6.077   0.566
 5063TIP3    H115132   4.509   6.135   0.594
 5063TIP3    H215133   4.549   5.989   0.587
 5064TIP3   OH215134   1.476   2.704   3.896
 5064TIP3    H115135   1.564   2.716   3.931
 5064TIP3    H215136   1.442   2.627   3.941
 5065TIP3   OH215137   2.312   0.608   1.299
 5065TIP3    H115138   2.248   0.679   1.297
 5065TIP3    H215139   2.283   0.551   1.369
 5066TIP3   OH215140   2.397   4.897   4.574
 5066TIP3    H115141   2.326   4.956   4.598
 5066TIP3    H215142   2.447   4.885   4.655
 5067TIP3   OH215143   1.580   0.066   5.187
 5067TIP3    H115144   1.592   0.105   5.274
 5067TIP3    H215145   1.569   0.141   5.128
 5068TIP3   OH215146   2.300   1.501   6.124
 5068TIP3    H115147   2.212   1.478   6.154
 5068TIP3    H215148   2.289   1.580   6.072
 5069TIP3   OH215149   5.598   3.326   0.242
 5069TIP3    H115150   5.627   3.366   0.324
 5069TIP3    H215151   5.535   3.389   0.206
 5070TIP3   OH215152   5.813   3.700   2.362
 5070TIP3    H115153   5.763   3.622   2.340
 5070TIP3    H215154   5.786   3.722   2.451
 5071TIP3   OH215155   6.868   5.511   1.211
 5071TIP3    H115156   6.860   5.581   1.276
 5071TIP3    H215157   6.938   5.455   1.243
 5072TIP3   OH215158   5.231   0.877   4.836
 5072TIP3    H115159   5.279   0.882   4.753
 5072TIP3    H215160   5.193   0.964   4.847
 5073TIP3   OH215161   6.879   6.093   5.818
 5073TIP3    H115162   6.905   6.002   5.810
 5073TIP3    H215163   6.791   6.097   5.781
 5074TIP3   OH215164   7.034   3.525   0.155
 5074TIP3    H115165   7.040   3.620   0.166
 5074TIP3    H215166   7.039   3.490   0.244
 5075TIP3   OH215167   2.109   2.466   0.545
 5075TIP3    H115168   2.080   2.395   0.488
 5075TIP3    H215169   2.113   2.543   0.487
 5076TIP3   OH215170   5.032   3.609   1.732
 5076TIP3    H115171   4.998   3.677   1.675
 5076TIP3    H215172   5.116   3.643   1.763
 5077TIP3   OH215173   2.599   0.268   0.840
 5077TIP3    H115174   2.575   0.192   0.787
 5077TIP3    H215175   2.516   0.311   0.859
 5078TIP3   OH215176   5.812   5.943   5.595
 5078TIP3    H115177   5.796   5.919   5.504
 5078TIP3    H215178   5.807   6.039   5.596
 5079TIP3   OH215179   5.712   5.657   1.553
 5079TIP3    H115180   5.764   5.626   1.628
 5079TIP3    H215181   5.691   5.578   1.504
 5080TIP3   OH215182   0.020   5.507   4.325
 5080TIP3    H115183   0.015   5.412   4.334
 5080TIP3    H215184   0.110   5.523   4.296
 5081TIP3   OH215185   6.245   4.798   2.375
 5081TIP3    H115186   6.169   4.744   2.354
 5081TIP3    H215187   6.231   4.879   2.326
 5082TIP3   OH215188   1.897   2.620   5.628
 5082TIP3    H115189   1.827   2.571   5.585
 5082TIP3    H215190   1.936   2.558   5.689
 5083TIP3   OH215191   0.340   4.483   1.791
 5083TIP3    H115192   0.349   4.567   1.745
 5083TIP3    H215193   0.386   4.421   1.734
 5084TIP3   OH215194   0.572   1.508   0.666
 5084TIP3    H115195   0.652   1.483   0.712
 5084TIP3    H215196   0.602   1.539   0.580
 5085TIP3   OH215197   7.254   2.488   1.798
 5085TIP3    H115198   7.166   2.461   1.772
 5085TIP3    H215199   7.272   2.439   1.877
 5086TIP3   OH215200   6.425   3.495   4.320
 5086TIP3    H115201   6.435   3.405   4.351
 5086TIP3    H215202   6.484   3.502   4.245
 5087TIP3   OH215203   3.989   1.327   3.213
 5087TIP3    H115204   4.021   1.353   3.126
 5087TIP3    H215205   3.926   1.395   3.236
 5088TIP3   OH215206   0.594   7.596   2.675
 5088TIP3    H115207   0.610   7.633   2.588
 5088TIP3    H215208   0.572   7.504   2.658
 5089TIP3   OH215209   3.944   6.683   4.908
 5089TIP3    H115210   3.961   6.607   4.853
 5089TIP3    H215211   3.873   6.656   4.966
 5090TIP3   OH215212   6.197   2.119   6.144
 5090TIP3    H115213   6.254   2.172   6.199
 5090TIP3    H215214   6.225   2.029   6.161
 5091TIP3   OH215215   1.332   7.659   0.610
 5091TIP3    H115216   1.341   7.613   0.693
 5091TIP3    H215217   1.337   7.752   0.633
 5092TIP3   OH215218   7.598   6.552   5.812
 5092TIP3    H115219   7.601   6.630   5.756
 5092TIP3    H215220   7.545   6.490   5.763
 5093TIP3   OH215221   1.907   5.419   3.591
 5093TIP3    H115222   1.923   5.375   3.675
 5093TIP3    H215223   1.845   5.361   3.545
 5094TIP3   OH215224   2.988   1.552   6.147
 5094TIP3    H115225   3.053   1.622   6.136
 5094TIP3    H215226   2.933   1.557   6.069
 5095TIP3   OH215227   3.759   2.673   0.973
 5095TIP3    H115228   3.667   2.668   0.948
 5095TIP3    H215229   3.760   2.654   1.067
 5096TIP3   OH215230   1.721   5.434   2.689
 5096TIP3    H115231   1.760   5.346   2.685
 5096TIP3    H215232   1.652   5.427   2.756
 5097TIP3   OH215233   0.634   3.581   4.638
 5097TIP3    H115234   0.647   3.665   4.594
 5097TIP3    H215235   0.723   3.549   4.655
 5098TIP3   OH215236   3.688   0.949   6.337
 5098TIP3    H115237   3.747   0.875   6.321
 5098TIP3    H215238   3.620   0.941   6.270
 5099TIP3   OH215239   7.467   0.695   1.492
 5099TIP3    H115240   7.407   0.763   1.522
 5099TIP3    H215241   7.425   0.661   1.413
 5100TIP3   OH215242   3.055   4.622   1.550
 5100TIP3    H115243   3.067   4.528   1.532
 5100TIP3    H215244   3.101   4.636   1.633
 5101TIP3   OH215245   5.448   5.715   1.389
 5101TIP3    H115246   5.422   5.772   1.316
 5101TIP3    H215247   5.506   5.650   1.349
 5102TIP3   OH215248   1.684   0.102   4.799
 5102TIP3    H115249   1.589   0.089   4.794
 5102TIP3    H215250   1.704   0.166   4.731
 5103TIP3   OH215251   8.212   3.017   5.352
 5103TIP3    H115252   8.161   3.086   5.310
 5103TIP3    H215253   8.279   2.994   5.287
 5104TIP3   OH215254   4.866   3.937   1.945
 5104TIP3    H115255   4.799   3.881   1.906
 5104TIP3    H215256   4.840   4.026   1.919
 5105TIP3   OH215257   4.007   4.934   0.251
 5105TIP3    H115258   3.973   4.847   0.229
 5105TIP3    H215259   3.940   4.972   0.308
 5106TIP3   OH215260   6.714   2.763   3.417
 5106TIP3    H115261   6.676   2.733   3.335
 5106TIP3    H215262   6.681   2.852   3.428
 5107TIP3   OH215263   4.512   1.027   5.718
 5107TIP3    H115264   4.418   1.036   5.702
 5107TIP3    H215265   4.547   1.115   5.703
 5108TIP3   OH215266   7.313   7.722   4.630
 5108TIP3    H115267   7.318   7.680   4.716
 5108TIP3    H215268   7.279   7.810   4.647
 5109TIP3   OH215269   4.023   3.035   1.907
 5109TIP3    H115270   4.053   2.953   1.869
 5109TIP3    H215271   3.956   3.067   1.847
 5110TIP3   OH215272   5.412   3.263   3.910
 5110TIP3    H115273   5.455   3.344   3.935
 5110TIP3    H215274   5.320   3.287   3.895
 5111TIP3   OH215275   0.669   6.467   3.895
 5111TIP3    H115276   0.746   6.417   3.923
 5111TIP3    H215277   0.704   6.545   3.853
 5112TIP3   OH215278   7.733   4.419   1.201
 5112TIP3    H115279   7.713   4.397   1.292
 5112TIP3    H215280   7.749   4.334   1.159
 5113TIP3   OH215281   3.727   3.475   5.795
 5113TIP3    H115282   3.713   3.569   5.799
 5113TIP3    H215283   3.813   3.465   5.754
 5114TIP3   OH215284   4.912   1.748   6.703
 5114TIP3    H115285   4.869   1.780   6.623
 5114TIP3    H215286   4.847   1.692   6.744
 5115TIP3   OH215287   0.985   7.579   1.442
 5115TIP3    H115288   0.896   7.613   1.432
 5115TIP3    H215289   0.978   7.487   1.417
 5116TIP3   OH215290   1.721   3.715   4.457
 5116TIP3    H115291   1.640   3.731   4.505
 5116TIP3    H215292   1.787   3.764   4.504
 5117TIP3   OH215293   4.955   7.703   1.646
 5117TIP3    H115294   4.957   7.795   1.622
 5117TIP3    H215295   5.043   7.684   1.678
 5118TIP3   OH215296   3.118   4.009   5.187
 5118TIP3    H115297   3.184   4.062   5.142
 5118TIP3    H215298   3.038   4.022   5.136
 5119TIP3   OH215299   1.750   2.103   0.312
 5119TIP3    H115300   1.753   2.138   0.401
 5119TIP3    H215301   1.728   2.179   0.258
 5120TIP3   OH215302   3.933   0.923   0.582
 5120TIP3    H115303   3.841   0.934   0.557
 5120TIP3    H215304   3.975   1.006   0.558
 5121TIP3   OH215305   5.842   4.994   5.663
 5121TIP3    H115306   5.886   4.929   5.609
 5121TIP3    H215307   5.796   4.943   5.730
 5122TIP3   OH215308   8.011   1.986   4.067
 5122TIP3    H115309   7.980   1.922   4.131
 5122TIP3    H215310   7.982   1.951   3.982
 5123TIP3   OH215311   2.566   3.195   0.453
 5123TIP3    H115312   2.656   3.172   0.478
 5123TIP3    H215313   2.520   3.111   0.450
 5124TIP3   OH215314   0.246   6.821   1.050
 5124TIP3    H115315   0.234   6.731   1.020
 5124TIP3    H215316   0.166   6.866   1.023
 5125TIP3   OH215317   1.855   3.850   0.876
 5125TIP3    H115318   1.881   3.771   0.923
 5125TIP3    H215319   1.915   3.854   0.801
 5126TIP3   OH215320   1.537   0.413   3.883
 5126TIP3    H115321   1.623   0.418   3.841
 5126TIP3    H215322   1.487   0.485   3.844
 5127TIP3   OH215323   1.025   6.342   5.288
 5127TIP3    H115324   1.116   6.350   5.316
 5127TIP3    H215325   0.990   6.431   5.292
 5128TIP3   OH215326   6.643   0.098   3.159
 5128TIP3    H115327   6.578   0.075   3.226
 5128TIP3    H215328   6.654   0.193   3.168
 5129TIP3   OH215329   1.970   6.365   2.288
 5129TIP3    H115330   1.976   6.340   2.380
 5129TIP3    H215331   2.058   6.348   2.253
 5130TIP3   OH215332   2.820   6.659   0.113
 5130TIP3    H115333   2.728   6.680   0.129
 5130TIP3    H215334   2.842   6.705   0.032
 5131TIP3   OH215335   7.677   6.222   5.620
 5131TIP3    H115336   7.660   6.158   5.550
 5131TIP3    H215337   7.597   6.275   5.623
 5132TIP3   OH215338   1.257   4.901   1.389
 5132TIP3    H115339   1.343   4.913   1.429
 5132TIP3    H215340   1.268   4.932   1.299
 5133TIP3   OH215341   5.697   7.122   5.981
 5133TIP3    H115342   5.679   7.052   6.043
 5133TIP3    H215343   5.610   7.148   5.949
 5134TIP3   OH215344   2.363   2.751   3.566
 5134TIP3    H115345   2.312   2.683   3.522
 5134TIP3    H215346   2.346   2.738   3.659
 5135TIP3   OH215347   2.461   2.733   0.009
 5135TIP3    H115348   2.547   2.774  -0.003
 5135TIP3    H215349   2.408   2.800   0.053
 5136TIP3   OH215350   6.607   7.159   3.097
 5136TIP3    H115351   6.546   7.229   3.120
 5136TIP3    H215352   6.596   7.147   3.003
 5137TIP3   OH215353   1.247   4.654   3.344
 5137TIP3    H115354   1.248   4.739   3.389
 5137TIP3    H215355   1.296   4.596   3.401
 5138TIP3   OH215356   7.565   1.232   5.563
 5138TIP3    H115357   7.540   1.140   5.572
 5138TIP3    H215358   7.501   1.280   5.615
 5139TIP3   OH215359   4.903   6.803   2.805
 5139TIP3    H115360   4.843   6.737   2.842
 5139TIP3    H215361   4.908   6.871   2.871
 5140TIP3   OH215362   2.289   6.057   1.745
 5140TIP3    H115363   2.316   6.039   1.835
 5140TIP3    H215364   2.197   6.028   1.741
 5141TIP3   OH215365   4.557   6.816   6.402
 5141TIP3    H115366   4.547   6.726   6.433
 5141TIP3    H215367   4.514   6.817   6.317
 5142TIP3   OH215368   6.473   7.430   2.988
 5142TIP3    H115369   6.526   7.415   2.909
 5142TIP3    H215370   6.404   7.364   2.984
 5143TIP3   OH215371   3.881   4.716   5.209
 5143TIP3    H115372   3.854   4.801   5.174
 5143TIP3    H215373   3.849   4.652   5.145
 5144TIP3   OH215374   4.507   3.072   4.876
 5144TIP3    H115375   4.502   3.164   4.901
 5144TIP3    H215376   4.495   3.024   4.958
 5145TIP3   OH215377   3.298   7.074   2.209
 5145TIP3    H115378   3.290   6.979   2.203
 5145TIP3    H215379   3.209   7.107   2.199
 5146TIP3   OH215380   7.564   5.018   0.360
 5146TIP3    H115381   7.550   4.938   0.309
 5146TIP3    H215382   7.641   5.059   0.321
 5147TIP3   OH215383   4.635   7.183   3.603
 5147TIP3    H115384   4.631   7.226   3.518
 5147TIP3    H215385   4.668   7.095   3.584
 5148TIP3   OH215386   2.754   5.686   6.216
 5148TIP3    H115387   2.788   5.756   6.272
 5148TIP3    H215388   2.721   5.732   6.139
 5149TIP3   OH215389   4.099   1.046   3.789
 5149TIP3    H115390   4.153   1.095   3.851
 5149TIP3    H215391   4.160   0.987   3.746
 5150TIP3   OH215392   3.482   3.980   5.925
 5150TIP3    H115393   3.567   4.019   5.945
 5150TIP3    H215394   3.448   4.030   5.851
 5151TIP3   OH215395   4.167   4.173   6.596
 5151TIP3    H115396   4.261   4.166   6.579
 5151TIP3    H215397   4.161   4.191   6.690
 5152TIP3   OH215398   2.330   7.234   4.958
 5152TIP3    H115399   2.354   7.284   5.035
 5152TIP3    H215400   2.320   7.144   4.990
 5153TIP3   OH215401   4.211   5.365   2.565
 5153TIP3    H115402   4.147   5.381   2.496
 5153TIP3    H215403   4.296   5.383   2.524
 5154TIP3   OH215404   6.500   3.076   6.160
 5154TIP3    H115405   6.527   3.030   6.080
 5154TIP3    H215406   6.483   3.165   6.132
 5155TIP3   OH215407   3.432   6.284   2.061
 5155TIP3    H115408   3.427   6.379   2.069
 5155TIP3    H215409   3.436   6.268   1.967
 5156TIP3   OH215410   7.992   6.824   0.330
 5156TIP3    H115411   7.940   6.904   0.324
 5156TIP3    H215412   8.043   6.822   0.249
 5157TIP3   OH215413   7.720   5.806   5.624
 5157TIP3    H115414   7.669   5.739   5.578
 5157TIP3    H215415   7.768   5.852   5.554
 5158TIP3   OH215416   1.835   2.599   2.021
 5158TIP3    H115417   1.822   2.672   1.961
 5158TIP3    H215418   1.795   2.628   2.103
 5159TIP3   OH215419   1.563   2.832   5.526
 5159TIP3    H115420   1.569   2.816   5.432
 5159TIP3    H215421   1.652   2.815   5.559
 5160TIP3   OH215422   7.574   1.435   6.196
 5160TIP3    H115423   7.542   1.441   6.106
 5160TIP3    H215424   7.495   1.437   6.250
 5161TIP3   OH215425   5.225   3.212   1.438
 5161TIP3    H115426   5.172   3.293   1.442
 5161TIP3    H215427   5.303   3.232   1.489
 5162TIP3   OH215428   3.770   0.141   6.548
 5162TIP3    H115429   3.847   0.195   6.566
 5162TIP3    H215430   3.804   0.066   6.498
 5163TIP3   OH215431   7.818   6.573   4.487
 5163TIP3    H115432   7.901   6.576   4.534
 5163TIP3    H215433   7.759   6.629   4.537
 5164TIP3   OH215434   5.438   3.510   0.766
 5164TIP3    H115435   5.518   3.543   0.726
 5164TIP3    H215436   5.400   3.586   0.809
 5165TIP3   OH215437   4.630   5.771   5.322
 5165TIP3    H115438   4.702   5.707   5.324
 5165TIP3    H215439   4.557   5.722   5.285
 5166TIP3   OH215440   5.486   6.192   2.075
 5166TIP3    H115441   5.401   6.217   2.040
 5166TIP3    H215442   5.526   6.273   2.105
 5167TIP3   OH215443   1.268   4.542   2.729
 5167TIP3    H115444   1.333   4.478   2.699
 5167TIP3    H215445   1.236   4.505   2.811
 5168TIP3   OH215446   4.140   1.751   1.626
 5168TIP3    H115447   4.048   1.734   1.646
 5168TIP3    H215448   4.173   1.795   1.704
 5169TIP3   OH215449   5.214   3.435   5.697
 5169TIP3    H115450   5.207   3.409   5.605
 5169TIP3    H215451   5.171   3.520   5.701
 5170TIP3   OH215452   2.297   2.607   4.226
 5170TIP3    H115453   2.215   2.627   4.181
 5170TIP3    H215454   2.365   2.643   4.169
 5171TIP3   OH215455   6.858   2.279   6.581
 5171TIP3    H115456   6.814   2.357   6.615
 5171TIP3    H215457   6.807   2.253   6.504
 5172TIP3   OH215458   1.907   0.237  -0.004
 5172TIP3    H115459   1.992   0.206  -0.034
 5172TIP3    H215460   1.916   0.245   0.090
 5173TIP3   OH215461   1.484   3.952   5.296
 5173TIP3    H115462   1.502   3.859   5.299
 5173TIP3    H215463   1.517   3.986   5.380
 5174TIP3   OH215464   3.052   4.911   5.122
 5174TIP3    H115465   3.122   4.912   5.057
 5174TIP3    H215466   3.042   5.002   5.149
 5175TIP3   OH215467   5.738   5.678   0.453
 5175TIP3    H115468   5.796   5.753   0.440
 5175TIP3    H215469   5.651   5.717   0.466
 5176TIP3   OH215470   6.516   3.648   4.702
 5176TIP3    H115471   6.421   3.658   4.708
 5176TIP3    H215472   6.542   3.712   4.636
 5177TIP3   OH215473   1.541   4.450   1.750
 5177TIP3    H115474   1.636   4.457   1.738
 5177TIP3    H215475   1.525   4.357   1.762
 5178TIP3   OH215476   5.182   1.962   3.120
 5178TIP3    H115477   5.179   1.905   3.197
 5178TIP3    H215478   5.138   1.911   3.051
 5179TIP3   OH215479   7.210   0.709   5.634
 5179TIP3    H115480   7.144   0.775   5.612
 5179TIP3    H215481   7.198   0.692   5.727
 5180TIP3   OH215482   1.635   0.518   5.994
 5180TIP3    H115483   1.572   0.572   6.041
 5180TIP3    H215484   1.582   0.450   5.953
 5181TIP3   OH215485   7.181   0.192   0.129
 5181TIP3    H115486   7.174   0.159   0.218
 5181TIP3    H215487   7.098   0.239   0.114
 5182TIP3   OH215488   5.193   7.596   1.717
 5182TIP3    H115489   5.227   7.529   1.657
 5182TIP3    H215490   5.264   7.660   1.724
 5183TIP3   OH215491   1.414   4.901   3.409
 5183TIP3    H115492   1.451   4.872   3.326
 5183TIP3    H215493   1.478   4.874   3.475
 5184TIP3   OH215494   8.236   1.694   3.440
 5184TIP3    H115495   8.313   1.747   3.465
 5184TIP3    H215496   8.162   1.739   3.481
 5185TIP3   OH215497   3.585   4.317   5.936
 5185TIP3    H115498   3.613   4.356   5.853
 5185TIP3    H215499   3.490   4.315   5.930
 5186TIP3   OH215500   1.459   0.327   0.085
 5186TIP3    H115501   1.513   0.406   0.079
 5186TIP3    H215502   1.380   0.354   0.132
 5187TIP3   OH215503   0.300   0.186   5.379
 5187TIP3    H115504   0.343   0.114   5.332
 5187TIP3    H215505   0.217   0.199   5.332
 5188TIP3   OH215506   2.015   6.331   6.119
 5188TIP3    H115507   2.091   6.372   6.078
 5188TIP3    H215508   1.975   6.279   6.050
 5189TIP3   OH215509   1.429   6.089   2.989
 5189TIP3    H115510   1.418   6.182   3.011
 5189TIP3    H215511   1.509   6.087   2.936
 5190TIP3   OH215512   5.874   3.297   4.780
 5190TIP3    H115513   5.961   3.268   4.750
 5190TIP3    H215514   5.816   3.281   4.706
 5191TIP3   OH215515   0.641   0.878   0.840
 5191TIP3    H115516   0.594   0.854   0.759
 5191TIP3    H215517   0.712   0.934   0.810
 5192TIP3   OH215518   6.312   7.247   5.134
 5192TIP3    H115519   6.341   7.156   5.133
 5192TIP3    H215520   6.277   7.262   5.046
 5193TIP3   OH215521   4.748   5.534   6.538
 5193TIP3    H115522   4.712   5.502   6.455
 5193TIP3    H215523   4.768   5.454   6.587
 5194TIP3   OH215524   4.393   0.566   0.711
 5194TIP3    H115525   4.426   0.480   0.686
 5194TIP3    H215526   4.322   0.584   0.649
 5195TIP3   OH215527   5.184   4.213   1.726
 5195TIP3    H115528   5.150   4.283   1.782
 5195TIP3    H215529   5.141   4.227   1.642
 5196TIP3   OH215530   1.119   1.988   4.030
 5196TIP3    H115531   1.182   1.930   4.072
 5196TIP3    H215532   1.036   1.967   4.071
 5197TIP3   OH215533   5.455   4.180   5.252
 5197TIP3    H115534   5.455   4.103   5.195
 5197TIP3    H215535   5.363   4.193   5.275
 5198TIP3   OH215536   7.713   4.673   1.986
 5198TIP3    H115537   7.751   4.674   2.074
 5198TIP3    H215538   7.759   4.743   1.939
 5199TIP3   OH215539   6.356   5.047   2.479
 5199TIP3    H115540   6.312   4.969   2.514
 5199TIP3    H215541   6.322   5.055   2.390
 5200TIP3   OH215542   0.892   4.265   1.117
 5200TIP3    H115543   0.826   4.205   1.083
 5200TIP3    H215544   0.964   4.208   1.145
 5201TIP3   OH215545   6.902   2.579   0.773
 5201TIP3    H115546   6.889   2.585   0.678
 5201TIP3    H215547   6.826   2.529   0.804
 5202TIP3   OH215548   2.003   4.426   0.743
 5202TIP3    H115549   2.028   4.335   0.762
 5202TIP3    H215550   1.911   4.431   0.771
 5203TIP3   OH215551   4.885   1.937   1.573
 5203TIP3    H115552   4.815   1.990   1.534
 5203TIP3    H215553   4.882   1.959   1.667
 5204TIP3   OH215554   8.131  -0.014   1.767
 5204TIP3    H115555   8.119   0.078   1.741
 5204TIP3    H215556   8.203  -0.012   1.830
 5205TIP3   OH215557   3.625   3.088   5.568
 5205TIP3    H115558   3.705   3.034   5.565
 5205TIP3    H215559   3.625   3.124   5.657
 5206TIP3   OH215560   5.742   2.929   5.306
 5206TIP3    H115561   5.648   2.943   5.290
 5206TIP3    H215562   5.780   2.923   5.218
 5207TIP3   OH215563   6.843   4.412   5.031
 5207TIP3    H115564   6.805   4.375   4.951
 5207TIP3    H215565   6.870   4.336   5.082
 5208TIP3   OH215566   5.804   5.784   4.825
 5208TIP3    H115567   5.786   5.747   4.739
 5208TIP3    H215568   5.833   5.710   4.878
 5209TIP3   OH215569   3.058   5.680   1.026
 5209TIP3    H115570   3.121   5.646   1.089
 5209TIP3    H215571   3.034   5.605   0.972
 5210TIP3   OH215572   7.566   6.043   0.442
 5210TIP3    H115573   7.603   6.130   0.430
 5210TIP3    H215574   7.558   6.008   0.353
 5211TIP3   OH215575   2.314   2.291   5.298
 5211TIP3    H115576   2.307   2.211   5.350
 5211TIP3    H215577   2.309   2.361   5.362
 5212TIP3   OH215578   8.213   1.357   3.787
 5212TIP3    H115579   8.196   1.264   3.770
 5212TIP3    H215580   8.170   1.402   3.714
 5213TIP3   OH215581   0.545   5.109   2.346
 5213TIP3    H115582   0.606   5.117   2.419
 5213TIP3    H215583   0.539   5.015   2.329
 5214TIP3   OH215584   8.040   5.908   3.142
 5214TIP3    H115585   8.115   5.849   3.142
 5214TIP3    H215586   8.076   5.992   3.113
 5215TIP3   OH215587   7.688   0.976   0.728
 5215TIP3    H115588   7.736   1.048   0.769
 5215TIP3    H215589   7.688   0.998   0.634
 5216TIP3   OH215590   8.191   4.208   6.083
 5216TIP3    H115591   8.262   4.151   6.113
 5216TIP3    H215592   8.111   4.164   6.112
 5217TIP3   OH215593   1.173   2.945   6.682
 5217TIP3    H115594   1.254   2.984   6.714
 5217TIP3    H215595   1.111   2.956   6.754
 5218TIP3   OH215596   2.088   1.505   1.157
 5218TIP3    H115597   2.128   1.438   1.102
 5218TIP3    H215598   2.161   1.548   1.201
 5219TIP3   OH215599   2.950   4.658   1.138
 5219TIP3    H115600   2.885   4.588   1.139
 5219TIP3    H215601   3.034   4.614   1.152
 5220TIP3   OH215602   0.469   4.058   3.731
 5220TIP3    H115603   0.473   4.119   3.658
 5220TIP3    H215604   0.385   4.012   3.720
 5221TIP3   OH215605   8.160   5.015   2.962
 5221TIP3    H115606   8.226   4.994   3.029
 5221TIP3    H215607   8.190   5.099   2.926
 5222TIP3   OH215608   4.219   4.497   3.167
 5222TIP3    H115609   4.260   4.411   3.169
 5222TIP3    H215610   4.174   4.505   3.251
 5223TIP3   OH215611   2.838   3.637   4.555
 5223TIP3    H115612   2.892   3.596   4.487
 5223TIP3    H215613   2.861   3.730   4.551
 5224TIP3   OH215614   0.876   4.712   3.568
 5224TIP3    H115615   0.860   4.769   3.493
 5224TIP3    H215616   0.821   4.747   3.638
 5225TIP3   OH215617   2.308   6.395   1.180
 5225TIP3    H115618   2.244   6.400   1.109
 5225TIP3    H215619   2.363   6.472   1.168
 5226TIP3   OH215620   2.609   5.897   3.424
 5226TIP3    H115621   2.552   5.859   3.356
 5226TIP3    H215622   2.551   5.910   3.499
 5227TIP3   OH215623   3.040   7.662   1.735
 5227TIP3    H115624   3.105   7.594   1.752
 5227TIP3    H215625   3.076   7.741   1.775
 5228TIP3   OH215626   1.125   6.309   3.860
 5228TIP3    H115627   1.073   6.302   3.780
 5228TIP3    H215628   1.196   6.245   3.848
 5229TIP3   OH215629   0.286   6.896   2.775
 5229TIP3    H115630   0.327   6.848   2.848
 5229TIP3    H215631   0.228   6.959   2.818
 5230TIP3   OH215632   7.076   1.873   4.052
 5230TIP3    H115633   7.122   1.822   4.119
 5230TIP3    H215634   7.034   1.807   3.997
 5231TIP3   OH215635   1.526   3.201   4.984
 5231TIP3    H115636   1.583   3.259   5.036
 5231TIP3    H215637   1.552   3.113   5.010
 5232TIP3   OH215638   3.016   4.530   2.481
 5232TIP3    H115639   3.005   4.436   2.498
 5232TIP3    H215640   2.927   4.565   2.482
 5233TIP3   OH215641   3.159   0.821   4.896
 5233TIP3    H115642   3.103   0.752   4.860
 5233TIP3    H215643   3.099   0.888   4.928
 5234TIP3   OH215644   5.685   2.924   0.006
 5234TIP3    H115645   5.628   2.936  -0.070
 5234TIP3    H215646   5.626   2.892   0.075
 5235TIP3   OH215647   3.693   6.861   1.996
 5235TIP3    H115648   3.696   6.911   1.915
 5235TIP3    H215649   3.758   6.792   1.984
 5236TIP3   OH215650   4.728   1.033   5.445
 5236TIP3    H115651   4.728   1.125   5.418
 5236TIP3    H215652   4.772   1.034   5.530
 5237TIP3   OH215653   4.364   5.888  -0.001
 5237TIP3    H115654   4.436   5.824  -0.003
 5237TIP3    H215655   4.285   5.835   0.005
 5238TIP3   OH215656   3.807   0.275   2.623
 5238TIP3    H115657   3.821   0.294   2.530
 5238TIP3    H215658   3.730   0.218   2.624
 5239TIP3   OH215659   7.971   5.502   2.821
 5239TIP3    H115660   7.913   5.480   2.748
 5239TIP3    H215661   8.034   5.563   2.785
 5240TIP3   OH215662   7.051   0.069   1.411
 5240TIP3    H115663   7.144   0.074   1.430
 5240TIP3    H215664   7.028  -0.022   1.428
 5241TIP3   OH215665   7.009   7.652   2.487
 5241TIP3    H115666   7.087   7.620   2.441
 5241TIP3    H215667   7.016   7.748   2.481
 5242TIP3   OH215668   7.409   6.183   5.957
 5242TIP3    H115669   7.400   6.218   6.045
 5242TIP3    H215670   7.331   6.129   5.944
 5243TIP3   OH215671   1.644   1.127   5.854
 5243TIP3    H115672   1.581   1.142   5.783
 5243TIP3    H215673   1.601   1.161   5.932
 5244TIP3   OH215674   1.367   3.014   1.081
 5244TIP3    H115675   1.357   2.967   0.998
 5244TIP3    H215676   1.294   3.075   1.082
 5245TIP3   OH215677   1.620   5.369   5.436
 5245TIP3    H115678   1.629   5.446   5.380
 5245TIP3    H215679   1.677   5.385   5.511
 5246TIP3   OH215680   5.929   2.598   3.613
 5246TIP3    H115681   5.892   2.630   3.530
 5246TIP3    H215682   6.011   2.648   3.623
 5247TIP3   OH215683   2.912   3.529   5.642
 5247TIP3    H115684   2.912   3.559   5.733
 5247TIP3    H215685   2.821   3.531   5.615
 5248TIP3   OH215686   5.181   5.287   2.516
 5248TIP3    H115687   5.100   5.335   2.497
 5248TIP3    H215688   5.230   5.345   2.574
 5249TIP3   OH215689   1.317   3.666   4.656
 5249TIP3    H115690   1.263   3.605   4.606
 5249TIP3    H215691   1.278   3.666   4.744
 5250TIP3   OH215692   7.968   6.581   3.458
 5250TIP3    H115693   8.048   6.633   3.455
 5250TIP3    H215694   7.958   6.547   3.369
 5251TIP3   OH215695   6.457   4.297   1.318
 5251TIP3    H115696   6.411   4.298   1.234
 5251TIP3    H215697   6.406   4.236   1.372
 5252TIP3   OH215698   7.411   1.515   6.423
 5252TIP3    H115699   7.412   1.425   6.457
 5252TIP3    H215700   7.343   1.514   6.355
 5253TIP3   OH215701   1.136   0.978   6.281
 5253TIP3    H115702   1.148   1.006   6.372
 5253TIP3    H215703   1.042   0.958   6.275
 5254TIP3   OH215704   2.473   5.025   6.505
 5254TIP3    H115705   2.404   4.958   6.508
 5254TIP3    H215706   2.429   5.105   6.532
 5255TIP3   OH215707   6.003   3.827   3.726
 5255TIP3    H115708   6.026   3.892   3.660
 5255TIP3    H215709   5.908   3.835   3.736
 5256TIP3   OH215710   6.982   1.103   6.759
 5256TIP3    H115711   6.894   1.089   6.724
 5256TIP3    H215712   7.023   1.163   6.697
 5257TIP3   OH215713   3.854   5.704   6.290
 5257TIP3    H115714   3.932   5.739   6.332
 5257TIP3    H215715   3.803   5.782   6.266
 5258TIP3   OH215716   1.385   6.792   6.737
 5258TIP3    H115717   1.396   6.886   6.726
 5258TIP3    H215718   1.432   6.772   6.818
 5259TIP3   OH215719   5.597   6.791   0.397
 5259TIP3    H115720   5.528   6.742   0.442
 5259TIP3    H215721   5.600   6.755   0.309
 5260TIP3   OH215722   4.355   3.423   2.363
 5260TIP3    H115723   4.264   3.400   2.344
 5260TIP3    H215724   4.370   3.504   2.314
 5261TIP3   OH215725   2.875   1.132   0.373
 5261TIP3    H115726   2.851   1.205   0.430
 5261TIP3    H215727   2.808   1.066   0.389
 5262TIP3   OH215728   1.371   1.765   0.472
 5262TIP3    H115729   1.406   1.780   0.559
 5262TIP3    H215730   1.437   1.710   0.429
 5263TIP3   OH215731   7.735   1.973   2.632
 5263TIP3    H115732   7.695   2.046   2.587
 5263TIP3    H215733   7.665   1.907   2.639
 5264TIP3   OH215734   2.380   6.996   5.646
 5264TIP3    H115735   2.416   7.003   5.558
 5264TIP3    H215736   2.441   6.937   5.692
 5265TIP3   OH215737   5.748   4.496   4.549
 5265TIP3    H115738   5.797   4.578   4.554
 5265TIP3    H215739   5.757   4.468   4.458
 5266TIP3   OH215740   0.012   6.775   2.838
 5266TIP3    H115741   0.053   6.746   2.757
 5266TIP3    H215742  -0.077   6.801   2.812
 5267TIP3   OH215743   2.299   0.809   6.583
 5267TIP3    H115744   2.229   0.852   6.533
 5267TIP3    H215745   2.351   0.764   6.516
 5268TIP3   OH215746   2.209   1.858   2.419
 5268TIP3    H115747   2.118   1.838   2.439
 5268TIP3    H215748   2.228   1.806   2.341
 5269TIP3   OH215749   2.431   5.946   1.199
 5269TIP3    H115750   2.420   5.963   1.292
 5269TIP3    H215751   2.367   5.877   1.180
 5270TIP3   OH215752   3.140   4.243   1.878
 5270TIP3    H115753   3.090   4.320   1.905
 5270TIP3    H215754   3.086   4.201   1.811
 5271TIP3   OH215755   3.322   2.961   1.621
 5271TIP3    H115756   3.364   3.043   1.647
 5271TIP3    H215757   3.383   2.893   1.649
 5272TIP3   OH215758   6.305   3.389   4.587
 5272TIP3    H115759   6.268   3.471   4.621
 5272TIP3    H215760   6.399   3.396   4.605
 5273TIP3   OH215761   5.943   3.928   1.071
 5273TIP3    H115762   5.941   3.940   0.976
 5273TIP3    H215763   6.014   3.984   1.100
 5274TIP3   OH215764   3.900   5.911   3.368
 5274TIP3    H115765   3.876   5.981   3.308
 5274TIP3    H215766   3.921   5.956   3.450
 5275TIP3   OH215767   2.982   0.084   0.737
 5275TIP3    H115768   2.962   0.177   0.749
 5275TIP3    H215769   3.012   0.055   0.823
 5276TIP3   OH215770   6.937   0.357   0.322
 5276TIP3    H115771   6.979   0.423   0.267
 5276TIP3    H215772   6.884   0.407   0.384
 5277TIP3   OH215773   5.730   5.297   6.744
 5277TIP3    H115774   5.792   5.236   6.784
 5277TIP3    H215775   5.648   5.282   6.790
 5278TIP3   OH215776   7.792   3.712   5.661
 5278TIP3    H115777   7.740   3.752   5.730
 5278TIP3    H215778   7.731   3.702   5.587
 5279TIP3   OH215779   6.911   2.068   2.535
 5279TIP3    H115780   6.833   2.017   2.556
 5279TIP3    H215781   6.943   2.030   2.453
 5280TIP3   OH215782   3.392   2.229   0.507
 5280TIP3    H115783   3.326   2.184   0.455
 5280TIP3    H215784   3.383   2.191   0.595
 5281TIP3   OH215785   0.091   6.871   3.563
 5281TIP3    H115786   0.137   6.877   3.479
 5281TIP3    H215787   0.073   6.963   3.586
 5282TIP3   OH215788   6.048   0.294   6.358
 5282TIP3    H115789   6.045   0.358   6.430
 5282TIP3    H215790   5.960   0.258   6.353
 5283TIP3   OH215791   3.878   6.811   0.857
 5283TIP3    H115792   3.837   6.746   0.800
 5283TIP3    H215793   3.907   6.880   0.797
 5284TIP3   OH215794   3.972   2.507   1.797
 5284TIP3    H115795   4.056   2.497   1.840
 5284TIP3    H215796   3.984   2.469   1.710
 5285TIP3   OH215797   5.811   4.493   0.102
 5285TIP3    H115798   5.885   4.500   0.041
 5285TIP3    H215799   5.815   4.574   0.153
 5286TIP3   OH215800   0.502   7.681   2.932
 5286TIP3    H115801   0.564   7.632   2.879
 5286TIP3    H215802   0.480   7.622   3.005
 5287TIP3   OH215803   8.083   1.806   2.702
 5287TIP3    H115804   8.082   1.875   2.769
 5287TIP3    H215805   8.057   1.851   2.621
 5288TIP3   OH215806   4.425   3.810   6.324
 5288TIP3    H115807   4.456   3.734   6.275
 5288TIP3    H215808   4.379   3.772   6.400
 5289TIP3   OH215809   1.489   6.391   2.043
 5289TIP3    H115810   1.562   6.433   2.089
 5289TIP3    H215811   1.418   6.388   2.107
 5290TIP3   OH215812   0.848   0.803   1.666
 5290TIP3    H115813   0.856   0.894   1.696
 5290TIP3    H215814   0.922   0.791   1.606
 5291TIP3   OH215815   1.344   1.606   0.865
 5291TIP3    H115816   1.372   1.545   0.796
 5291TIP3    H215817   1.380   1.570   0.946
 5292TIP3   OH215818   4.716   3.225   5.086
 5292TIP3    H115819   4.701   3.257   5.175
 5292TIP3    H215820   4.644   3.262   5.034
 5293TIP3   OH215821   1.451   6.317   6.548
 5293TIP3    H115822   1.358   6.308   6.525
 5293TIP3    H215823   1.467   6.411   6.547
 5294TIP3   OH215824   4.376   5.504   6.545
 5294TIP3    H115825   4.340   5.506   6.634
 5294TIP3    H215826   4.396   5.596   6.526
 5295TIP3   OH215827   2.973   1.653   4.271
 5295TIP3    H115828   3.035   1.652   4.344
 5295TIP3    H215829   3.029   1.659   4.193
 5296TIP3   OH215830   2.476   2.249   1.206
 5296TIP3    H115831   2.498   2.290   1.123
 5296TIP3    H215832   2.496   2.316   1.272
 5297TIP3   OH215833   5.581   0.607   3.909
 5297TIP3    H115834   5.651   0.553   3.946
 5297TIP3    H215835   5.616   0.696   3.909
 5298TIP3   OH215836   5.072   4.017   4.527
 5298TIP3    H115837   5.037   3.957   4.594
 5298TIP3    H215838   5.073   4.102   4.570
 5299TIP3   OH215839   6.331   3.510   6.649
 5299TIP3    H115840   6.391   3.572   6.608
 5299TIP3    H215841   6.248   3.557   6.655
 5300TIP3   OH215842   8.105   3.823   1.833
 5300TIP3    H115843   8.191   3.826   1.875
 5300TIP3    H215844   8.043   3.827   1.906
 5301TIP3   OH215845   5.756   1.150   0.348
 5301TIP3    H115846   5.834   1.135   0.295
 5301TIP3    H215847   5.725   1.062   0.372
 5302TIP3   OH215848   1.248   5.517   5.665
 5302TIP3    H115849   1.174   5.459   5.646
 5302TIP3    H215850   1.247   5.581   5.594
 5303TIP3   OH215851   8.082   3.258   3.419
 5303TIP3    H115852   7.997   3.248   3.463
 5303TIP3    H215853   8.065   3.237   3.327
 5304TIP3   OH215854   2.086   6.317   2.551
 5304TIP3    H115855   2.146   6.262   2.602
 5304TIP3    H215856   2.052   6.379   2.615
 5305TIP3   OH215857   4.100   2.582   3.695
 5305TIP3    H115858   4.144   2.599   3.612
 5305TIP3    H215859   4.035   2.515   3.675
 5306TIP3   OH215860   5.522   6.251   3.055
 5306TIP3    H115861   5.465   6.239   3.130
 5306TIP3    H215862   5.611   6.240   3.090
 5307TIP3   OH215863   3.643   2.204   3.382
 5307TIP3    H115864   3.678   2.127   3.426
 5307TIP3    H215865   3.573   2.171   3.326
 5308TIP3   OH215866   0.290   2.742   0.505
 5308TIP3    H115867   0.202   2.763   0.475
 5308TIP3    H215868   0.277   2.705   0.592
 5309TIP3   OH215869   7.274   3.954   0.121
 5309TIP3    H115870   7.268   4.049   0.119
 5309TIP3    H215871   7.368   3.935   0.117
 5310TIP3   OH215872   0.367   3.619   3.031
 5310TIP3    H115873   0.351   3.712   3.013
 5310TIP3    H215874   0.349   3.609   3.124
 5311TIP3   OH215875   3.081   7.186   4.317
 5311TIP3    H115876   2.991   7.160   4.335
 5311TIP3    H215877   3.134   7.112   4.347
 5312TIP3   OH215878   4.515   4.446   4.633
 5312TIP3    H115879   4.517   4.511   4.563
 5312TIP3    H215880   4.503   4.363   4.587
 5313TIP3   OH215881   2.468   2.024   0.664
 5313TIP3    H115882   2.496   2.015   0.755
 5313TIP3    H215883   2.500   1.945   0.621
 5314TIP3   OH215884   5.334   0.529   1.897
 5314TIP3    H115885   5.368   0.444   1.868
 5314TIP3    H215886   5.264   0.550   1.836
 5315TIP3   OH215887   3.454   2.446   1.365
 5315TIP3    H115888   3.535   2.420   1.321
 5315TIP3    H215889   3.433   2.531   1.328
 5316TIP3   OH215890   1.251   0.738   6.132
 5316TIP3    H115891   1.183   0.758   6.067
 5316TIP3    H215892   1.228   0.793   6.207
 5317TIP3   OH215893   3.742   0.680   2.927
 5317TIP3    H115894   3.760   0.586   2.924
 5317TIP3    H215895   3.655   0.690   2.888
 5318TIP3   OH215896   5.359   0.577   6.603
 5318TIP3    H115897   5.296   0.578   6.530
 5318TIP3    H215898   5.380   0.669   6.618
 5319TIP3   OH215899   1.103   0.387   3.869
 5319TIP3    H115900   1.055   0.454   3.820
 5319TIP3    H215901   1.131   0.324   3.803
 5320TIP3   OH215902   7.882   2.677   2.409
 5320TIP3    H115903   7.867   2.758   2.458
 5320TIP3    H215904   7.974   2.681   2.382
 5321TIP3   OH215905   4.545   6.883   5.584
 5321TIP3    H115906   4.472   6.822   5.576
 5321TIP3    H215907   4.617   6.830   5.619
 5322TIP3   OH215908   5.769   1.081   4.223
 5322TIP3    H115909   5.685   1.041   4.199
 5322TIP3    H215910   5.835   1.021   4.189
 5323TIP3   OH215911   2.310   7.218   3.512
 5323TIP3    H115912   2.403   7.195   3.509
 5323TIP3    H215913   2.306   7.295   3.569
 5324TIP3   OH215914   4.838   3.344   0.905
 5324TIP3    H115915   4.897   3.353   0.981
 5324TIP3    H215916   4.801   3.432   0.894
 5325TIP3   OH215917   1.487   4.566   4.483
 5325TIP3    H115918   1.556   4.527   4.430
 5325TIP3    H215919   1.478   4.508   4.558
 5326TIP3   OH215920   1.858   0.815   2.428
 5326TIP3    H115921   1.812   0.812   2.345
 5326TIP3    H215922   1.925   0.747   2.421
 5327TIP3   OH215923   2.298   4.477   6.237
 5327TIP3    H115924   2.324   4.487   6.145
 5327TIP3    H215925   2.205   4.499   6.238
 5328TIP3   OH215926   6.780   7.539   0.170
 5328TIP3    H115927   6.853   7.572   0.119
 5328TIP3    H215928   6.820   7.498   0.247
 5329TIP3   OH215929   7.740   1.994   2.255
 5329TIP3    H115930   7.771   2.085   2.254
 5329TIP3    H215931   7.801   1.947   2.197
 5330TIP3   OH215932   6.148   5.595   1.557
 5330TIP3    H115933   6.201   5.518   1.536
 5330TIP3    H215934   6.085   5.564   1.622
 5331TIP3   OH215935   6.235   4.547   0.188
 5331TIP3    H115936   6.240   4.582   0.099
 5331TIP3    H215937   6.174   4.474   0.183
 5332TIP3   OH215938   0.160   6.219   5.068
 5332TIP3    H115939   0.207   6.147   5.025
 5332TIP3    H215940   0.068   6.191   5.068
 5333TIP3   OH215941   1.754   1.528   1.612
 5333TIP3    H115942   1.830   1.496   1.660
 5333TIP3    H215943   1.770   1.501   1.521
 5334TIP3   OH215944   4.755   3.581   6.211
 5334TIP3    H115945   4.741   3.611   6.121
 5334TIP3    H215946   4.668   3.560   6.243
 5335TIP3   OH215947   1.944   0.289   4.363
 5335TIP3    H115948   1.849   0.296   4.359
 5335TIP3    H215949   1.967   0.228   4.292
 5336TIP3   OH215950   1.674   5.569   6.061
 5336TIP3    H115951   1.616   5.508   6.015
 5336TIP3    H215952   1.614   5.632   6.102
 5337TIP3   OH215953   6.576   0.762   1.062
 5337TIP3    H115954   6.543   0.747   1.151
 5337TIP3    H215955   6.595   0.855   1.058
 5338TIP3   OH215956   2.368   6.001   0.727
 5338TIP3    H115957   2.390   6.085   0.687
 5338TIP3    H215958   2.317   5.955   0.660
 5339TIP3   OH215959   7.923   2.677   3.541
 5339TIP3    H115960   7.991   2.620   3.506
 5339TIP3    H215961   7.872   2.621   3.599
 5340TIP3   OH215962   4.709   0.077   2.636
 5340TIP3    H115963   4.789   0.129   2.634
 5340TIP3    H215964   4.710   0.033   2.721
 5341TIP3   OH215965   4.349   2.421   3.605
 5341TIP3    H115966   4.329   2.421   3.699
 5341TIP3    H215967   4.274   2.377   3.565
 5342TIP3   OH215968   0.748   3.049   5.034
 5342TIP3    H115969   0.790   3.027   4.951
 5342TIP3    H215970   0.818   3.086   5.087
 5343TIP3   OH215971   1.122   5.568   2.472
 5343TIP3    H115972   1.201   5.611   2.439
 5343TIP3    H215973   1.131   5.477   2.444
 5344TIP3   OH215974   2.383   5.229   1.038
 5344TIP3    H115975   2.419   5.281   0.967
 5344TIP3    H215976   2.371   5.292   1.110
 5345TIP3   OH215977   6.962   0.134   4.263
 5345TIP3    H115978   7.005   0.197   4.206
 5345TIP3    H215979   7.005   0.144   4.348
 5346TIP3   OH215980   1.202   5.789   6.529
 5346TIP3    H115981   1.297   5.800   6.540
 5346TIP3    H215982   1.181   5.716   6.587
 5347TIP3   OH215983   0.708   6.617   2.676
 5347TIP3    H115984   0.678   6.707   2.664
 5347TIP3    H215985   0.794   6.626   2.718
 5348TIP3   OH215986   6.512   3.355   6.776
 5348TIP3    H115987   6.437   3.406   6.745
 5348TIP3    H215988   6.566   3.343   6.698
 5349TIP3   OH215989   5.591   2.104   3.165
 5349TIP3    H115990   5.592   2.123   3.259
 5349TIP3    H215991   5.592   2.008   3.160
 5350TIP3   OH215992   4.975   6.524   1.407
 5350TIP3    H115993   4.888   6.483   1.413
 5350TIP3    H215994   4.961   6.613   1.438
 5351TIP3   OH215995   7.473   2.927   3.895
 5351TIP3    H115996   7.515   3.013   3.899
 5351TIP3    H215997   7.431   2.917   3.980
 5352TIP3   OH215998   4.372   1.576   1.662
 5352TIP3    H115999   4.287   1.535   1.642
 5352TIP3    H216000   4.349   1.659   1.705
 5353TIP3   OH216001   7.554   3.882   0.327
 5353TIP3    H116002   7.537   3.934   0.406
 5353TIP3    H216003   7.551   3.946   0.256
 5354TIP3   OH216004   3.815   5.514   1.586
 5354TIP3    H116005   3.780   5.500   1.674
 5354TIP3    H216006   3.743   5.492   1.527
 5355TIP3   OH216007   3.979   4.734   0.489
 5355TIP3    H116008   4.067   4.727   0.453
 5355TIP3    H216009   3.962   4.828   0.495
 5356TIP3   OH216010   7.539   2.117   0.529
 5356TIP3    H116011   7.527   2.196   0.582
 5356TIP3    H216012   7.495   2.136   0.446
 5357TIP3   OH216013   1.553   4.490   0.237
 5357TIP3    H116014   1.515   4.559   0.182
 5357TIP3    H216015   1.518   4.507   0.324
 5358TIP3   OH216016   4.643   6.134   3.222
 5358TIP3    H116017   4.576   6.087   3.272
 5358TIP3    H216018   4.722   6.126   3.274
 5359TIP3   OH216019   0.434   4.781   4.812
 5359TIP3    H116020   0.473   4.714   4.755
 5359TIP3    H216021   0.348   4.797   4.773
 5360TIP3   OH216022   0.593   6.215   2.574
 5360TIP3    H116023   0.518   6.177   2.620
 5360TIP3    H216024   0.668   6.191   2.628
 5361TIP3   OH216025   2.310   1.625   1.413
 5361TIP3    H116026   2.287   1.716   1.395
 5361TIP3    H216027   2.340   1.626   1.504
 5362TIP3   OH216028   2.515   7.401   1.200
 5362TIP3    H116029   2.464   7.374   1.276
 5362TIP3    H216030   2.452   7.403   1.128
 5363TIP3   OH216031   5.520   2.073   0.611
 5363TIP3    H116032   5.459   2.029   0.552
 5363TIP3    H216033   5.490   2.164   0.613
 5364TIP3   OH216034   3.408   7.186   2.798
 5364TIP3    H116035   3.501   7.171   2.813
 5364TIP3    H216036   3.365   7.157   2.878
 5365TIP3   OH216037   1.339   0.625   5.836
 5365TIP3    H116038   1.380   0.662   5.914
 5365TIP3    H216039   1.245   0.632   5.853
 5366TIP3   OH216040   8.278   6.822   3.110
 5366TIP3    H116041   8.311   6.789   3.026
 5366TIP3    H216042   8.253   6.913   3.092
 5367TIP3   OH216043   7.859   0.999   6.012
 5367TIP3    H116044   7.875   0.915   5.969
 5367TIP3    H216045   7.792   0.979   6.078
 5368TIP3   OH216046   2.829   1.076   1.101
 5368TIP3    H116047   2.819   1.131   1.178
 5368TIP3    H216048   2.781   0.996   1.123
 5369TIP3   OH216049   6.095   1.691   1.157
 5369TIP3    H116050   6.078   1.747   1.232
 5369TIP3    H216051   6.035   1.722   1.089
 5370TIP3   OH216052   3.619   7.708   1.232
 5370TIP3    H116053   3.661   7.762   1.165
 5370TIP3    H216054   3.659   7.736   1.314
 5371TIP3   OH216055   5.182   1.909   6.148
 5371TIP3    H116056   5.265   1.894   6.103
 5371TIP3    H216057   5.141   1.980   6.098
 5372TIP3   OH216058   2.521   2.234   6.287
 5372TIP3    H116059   2.487   2.238   6.377
 5372TIP3    H216060   2.520   2.325   6.258
 5373TIP3   OH216061   7.963   0.649   3.822
 5373TIP3    H116062   8.049   0.662   3.783
 5373TIP3    H216063   7.903   0.649   3.748
 5374TIP3   OH216064   7.186   0.428   1.393
 5374TIP3    H116065   7.139   0.465   1.468
 5374TIP3    H216066   7.129   0.359   1.360
 5375TIP3   OH216067   6.980   1.488   6.152
 5375TIP3    H116068   6.940   1.451   6.230
 5375TIP3    H216069   6.921   1.464   6.080
 5376TIP3   OH216070   1.992   4.438   5.553
 5376TIP3    H116071   1.921   4.390   5.509
 5376TIP3    H216072   2.058   4.451   5.485
 5377TIP3   OH216073   2.996   2.279   2.701
 5377TIP3    H116074   3.034   2.309   2.619
 5377TIP3    H216075   2.998   2.183   2.695
 5378TIP3   OH216076   1.627   2.417   2.795
 5378TIP3    H116077   1.544   2.464   2.803
 5378TIP3    H216078   1.691   2.485   2.775
 5379TIP3   OH216079   1.194   6.083   5.273
 5379TIP3    H116080   1.278   6.051   5.305
 5379TIP3    H216081   1.129   6.036   5.324
 5380TIP3   OH216082   5.314   5.532   1.115
 5380TIP3    H116083   5.281   5.473   1.047
 5380TIP3    H216084   5.240   5.546   1.173
 5381TIP3   OH216085   2.614   7.474   2.056
 5381TIP3    H116086   2.583   7.453   1.968
 5381TIP3    H216087   2.654   7.560   2.047
 5382TIP3   OH216088   2.278   3.613   2.936
 5382TIP3    H116089   2.320   3.530   2.911
 5382TIP3    H216090   2.311   3.631   3.024
 5383TIP3   OH216091   6.341   1.605   2.644
 5383TIP3    H116092   6.418   1.554   2.620
 5383TIP3    H216093   6.305   1.560   2.720
 5384TIP3   OH216094   7.895   2.683   4.363
 5384TIP3    H116095   7.841   2.742   4.311
 5384TIP3    H216096   7.863   2.595   4.341
 5385TIP3   OH216097   5.872   2.667   0.930
 5385TIP3    H116098   5.866   2.596   0.865
 5385TIP3    H216099   5.799   2.652   0.989
 5386TIP3   OH216100   0.565   5.014   4.750
 5386TIP3    H116101   0.512   4.939   4.777
 5386TIP3    H216102   0.538   5.085   4.809
 5387TIP3   OH216103   3.226   0.642   2.030
 5387TIP3    H116104   3.175   0.623   2.110
 5387TIP3    H216105   3.205   0.733   2.010
 5388TIP3   OH216106   1.082   7.310   0.608
 5388TIP3    H116107   1.005   7.255   0.621
 5388TIP3    H216108   1.121   7.278   0.526
 5389TIP3   OH216109   7.977   0.559   2.154
 5389TIP3    H116110   8.041   0.518   2.213
 5389TIP3    H216111   8.011   0.543   2.066
 5390TIP3   OH216112   3.003   5.750   1.485
 5390TIP3    H116113   3.030   5.677   1.430
 5390TIP3    H216114   3.052   5.825   1.452
 5391TIP3   OH216115   2.771   0.394   6.641
 5391TIP3    H116116   2.806   0.447   6.570
 5391TIP3    H216117   2.696   0.443   6.674
 5392TIP3   OH216118   5.340   4.801   6.490
 5392TIP3    H116119   5.335   4.893   6.515
 5392TIP3    H216120   5.271   4.789   6.426
 5393TIP3   OH216121   3.438   2.961   2.894
 5393TIP3    H116122   3.504   2.915   2.947
 5393TIP3    H216123   3.375   2.994   2.957
 5394TIP3   OH216124   6.888   2.539   3.320
 5394TIP3    H116125   6.956   2.525   3.386
 5394TIP3    H216126   6.850   2.624   3.343
 5395TIP3   OH216127   1.009   3.043   4.210
 5395TIP3    H116128   0.960   3.028   4.130
 5395TIP3    H216129   0.943   3.049   4.279
 5396TIP3   OH216130   0.842   0.399   1.674
 5396TIP3    H116131   0.817   0.411   1.582
 5396TIP3    H216132   0.772   0.441   1.723
 5397TIP3   OH216133   1.015   3.067   2.523
 5397TIP3    H116134   0.995   2.980   2.487
 5397TIP3    H216135   1.095   3.094   2.477
 5398TIP3   OH216136   1.765   2.774   6.502
 5398TIP3    H116137   1.847   2.776   6.550
 5398TIP3    H216138   1.717   2.851   6.531
 5399TIP3   OH216139   2.945   2.997   5.846
 5399TIP3    H116140   2.951   2.977   5.752
 5399TIP3    H216141   2.950   3.092   5.851
 5400TIP3   OH216142   3.460   7.424   2.583
 5400TIP3    H116143   3.462   7.385   2.496
 5400TIP3    H216144   3.429   7.354   2.640
 5401TIP3   OH216145   5.128   2.769   4.927
 5401TIP3    H116146   5.199   2.805   4.873
 5401TIP3    H216147   5.064   2.839   4.933
 5402TIP3   OH216148   0.933   3.063   2.139
 5402TIP3    H116149   0.937   2.989   2.078
 5402TIP3    H216150   1.024   3.092   2.147
 5403TIP3   OH216151   3.173   0.480   4.297
 5403TIP3    H116152   3.229   0.542   4.344
 5403TIP3    H216153   3.234   0.422   4.252
 5404TIP3   OH216154   6.208   2.778   3.069
 5404TIP3    H116155   6.130   2.808   3.022
 5404TIP3    H216156   6.176   2.752   3.155
 5405TIP3   OH216157   2.154   2.519   1.454
 5405TIP3    H116158   2.075   2.495   1.405
 5405TIP3    H216159   2.132   2.604   1.494
 5406TIP3   OH216160   3.021   7.767   3.616
 5406TIP3    H116161   2.946   7.769   3.676
 5406TIP3    H216162   2.984   7.785   3.530
 5407TIP3   OH216163   2.892   6.397   0.166
 5407TIP3    H116164   2.863   6.488   0.158
 5407TIP3    H216165   2.816   6.350   0.199
 5408TIP3   OH216166   1.446   6.418   4.532
 5408TIP3    H116167   1.483   6.375   4.609
 5408TIP3    H216168   1.522   6.445   4.481
 5409TIP3   OH216169   5.631   0.969   5.144
 5409TIP3    H116170   5.565   0.917   5.188
 5409TIP3    H216171   5.599   0.980   5.055
 5410TIP3   OH216172   6.906   4.161   4.540
 5410TIP3    H116173   6.831   4.111   4.506
 5410TIP3    H216174   6.904   4.243   4.492
 5411TIP3   OH216175   1.203   6.065   2.745
 5411TIP3    H116176   1.293   6.097   2.748
 5411TIP3    H216177   1.152   6.134   2.788
 5412TIP3   OH216178   0.945   3.065   1.795
 5412TIP3    H116179   1.013   3.100   1.736
 5412TIP3    H216180   0.994   3.013   1.859
 5413TIP3   OH216181   7.411   3.551   1.601
 5413TIP3    H116182   7.445   3.603   1.528
 5413TIP3    H216183   7.316   3.563   1.597
 5414TIP3   OH216184   1.334   6.663   6.103
 5414TIP3    H116185   1.415   6.665   6.053
 5414TIP3    H216186   1.270   6.624   6.044
 5415TIP3   OH216187   7.823   5.247   0.989
 5415TIP3    H116188   7.874   5.199   0.923
 5415TIP3    H216189   7.736   5.208   0.984
 5416TIP3   OH216190   1.954   5.036   4.856
 5416TIP3    H116191   2.004   4.955   4.854
 5416TIP3    H216192   1.864   5.010   4.834
 5417TIP3   OH216193   7.051   1.194   4.316
 5417TIP3    H116194   6.980   1.148   4.271
 5417TIP3    H216195   7.015   1.215   4.402
 5418TIP3   OH216196   3.048   7.554   2.844
 5418TIP3    H116197   3.015   7.610   2.914
 5418TIP3    H216198   3.123   7.601   2.809
 5419TIP3   OH216199   2.336   3.401   2.317
 5419TIP3    H116200   2.358   3.493   2.333
 5419TIP3    H216201   2.420   3.355   2.316
 5420TIP3   OH216202   1.315   1.613   2.588
 5420TIP3    H116203   1.326   1.654   2.502
 5420TIP3    H216204   1.264   1.676   2.639
 5421TIP3   OH216205   7.661   3.019   4.774
 5421TIP3    H116206   7.718   2.965   4.720
 5421TIP3    H216207   7.574   3.005   4.738
 5422TIP3   OH216208   5.839   4.336   5.916
 5422TIP3    H116209   5.805   4.293   5.994
 5422TIP3    H216210   5.921   4.289   5.896
 5423TIP3   OH216211   7.298   6.341   4.501
 5423TIP3    H116212   7.316   6.434   4.514
 5423TIP3    H216213   7.338   6.298   4.576
 5424TIP3   OH216214   6.990   7.241   0.769
 5424TIP3    H116215   7.001   7.191   0.688
 5424TIP3    H216216   7.017   7.181   0.838
 5425TIP3   OH216217   3.935   5.348   4.834
 5425TIP3    H116218   3.886   5.306   4.763
 5425TIP3    H216219   3.962   5.432   4.798
 5426TIP3   OH216220   8.287   4.566   3.898
 5426TIP3    H116221   8.361   4.517   3.934
 5426TIP3    H216222   8.210   4.519   3.932
 5427TIP3   OH216223   7.051   0.556   1.129
 5427TIP3    H116224   7.036   0.481   1.187
 5427TIP3    H216225   6.977   0.614   1.145
 5428TIP3   OH216226   4.305   2.588   1.701
 5428TIP3    H116227   4.365   2.548   1.638
 5428TIP3    H216228   4.308   2.529   1.777
 5429TIP3   OH216229   4.891   6.565   3.770
 5429TIP3    H116230   4.901   6.471   3.782
 5429TIP3    H216231   4.846   6.595   3.849
 5430TIP3   OH216232   1.675   1.904   0.521
 5430TIP3    H116233   1.635   1.990   0.510
 5430TIP3    H216234   1.635   1.869   0.601
 5431TIP3   OH216235   3.456   5.856   3.183
 5431TIP3    H116236   3.448   5.951   3.187
 5431TIP3    H216237   3.545   5.841   3.151
 5432TIP3   OH216238   7.470   6.485   6.736
 5432TIP3    H116239   7.472   6.407   6.681
 5432TIP3    H216240   7.398   6.470   6.797
 5433TIP3   OH216241   1.317   1.963   2.602
 5433TIP3    H116242   1.408   1.984   2.620
 5433TIP3    H216243   1.281   1.938   2.687
 5434TIP3   OH216244   1.645   7.031   3.089
 5434TIP3    H116245   1.576   7.060   3.148
 5434TIP3    H216246   1.653   7.102   3.025
 5435TIP3   OH216247   2.605   4.115   4.125
 5435TIP3    H116248   2.643   4.105   4.212
 5435TIP3    H216249   2.555   4.196   4.130
 5436TIP3   OH216250   3.463   6.042   0.896
 5436TIP3    H116251   3.546   6.090   0.896
 5436TIP3    H216252   3.403   6.098   0.945
 5437TIP3   OH216253   2.385   6.950  -0.027
 5437TIP3    H116254   2.398   6.932   0.066
 5437TIP3    H216255   2.360   6.865  -0.064
 5438TIP3   OH216256   4.285   3.961   2.842
 5438TIP3    H116257   4.222   3.952   2.912
 5438TIP3    H216258   4.350   3.892   2.859
 5439TIP3   OH216259   7.918   3.805   3.157
 5439TIP3    H116260   7.897   3.724   3.203
 5439TIP3    H216261   7.935   3.777   3.067
 5440TIP3   OH216262   5.074   5.840   2.115
 5440TIP3    H116263   5.092   5.933   2.127
 5440TIP3    H216264   4.983   5.836   2.086
 5441TIP3   OH216265   2.482   2.121   2.119
 5441TIP3    H116266   2.415   2.168   2.169
 5441TIP3    H216267   2.544   2.189   2.093
 5442TIP3   OH216268   4.564   2.215   4.264
 5442TIP3    H116269   4.587   2.306   4.283
 5442TIP3    H216270   4.473   2.207   4.292
 5443TIP3   OH216271   2.534   5.216   3.517
 5443TIP3    H116272   2.600   5.278   3.486
 5443TIP3    H216273   2.572   5.129   3.500
 5444TIP3   OH216274   2.674   5.881   5.652
 5444TIP3    H116275   2.666   5.844   5.564
 5444TIP3    H216276   2.584   5.881   5.685
 5445TIP3   OH216277   0.087   3.891   2.798
 5445TIP3    H116278   0.132   3.836   2.862
 5445TIP3    H216279   0.151   3.957   2.774
 5446TIP3   OH216280   1.595   5.702   5.234
 5446TIP3    H116281   1.637   5.747   5.308
 5446TIP3    H216282   1.657   5.634   5.210
 5447TIP3   OH216283   4.769   4.368   2.313
 5447TIP3    H116284   4.791   4.378   2.406
 5447TIP3    H216285   4.738   4.278   2.305
 5448TIP3   OH216286   5.653   1.395   3.106
 5448TIP3    H116287   5.669   1.399   3.200
 5448TIP3    H216288   5.566   1.355   3.098
 5449TIP3   OH216289   0.452   7.353   5.308
 5449TIP3    H116290   0.391   7.399   5.249
 5449TIP3    H216291   0.424   7.261   5.304
 5450TIP3   OH216292   2.896   0.088   2.604
 5450TIP3    H116293   2.951   0.046   2.670
 5450TIP3    H216294   2.829   0.022   2.583
 5451TIP3   OH216295   7.255   0.821   4.497
 5451TIP3    H116296   7.298   0.906   4.499
 5451TIP3    H216297   7.328   0.758   4.500
 5452TIP3   OH216298   1.031   2.159   1.446
 5452TIP3    H116299   1.022   2.148   1.351
 5452TIP3    H216300   1.122   2.189   1.458
 5453TIP3   OH216301   7.470   1.928   3.731
 5453TIP3    H116302   7.500   1.888   3.650
 5453TIP3    H216303   7.538   1.905   3.795
 5454TIP3   OH216304   1.251   3.719   6.754
 5454TIP3    H116305   1.244   3.653   6.684
 5454TIP3    H216306   1.346   3.728   6.767
 5455TIP3   OH216307   4.085   1.403   4.329
 5455TIP3    H116308   4.164   1.404   4.383
 5455TIP3    H216309   4.035   1.479   4.359
 5456TIP3   OH216310   1.524   0.584   4.120
 5456TIP3    H116311   1.433   0.581   4.092
 5456TIP3    H216312   1.520   0.571   4.215
 5457TIP3   OH216313   6.732   5.596   0.225
 5457TIP3    H116314   6.679   5.520   0.203
 5457TIP3    H216315   6.671   5.658   0.264
 5458TIP3   OH216316   0.529   1.964   3.538
 5458TIP3    H116317   0.495   1.942   3.625
 5458TIP3    H216318   0.453   1.959   3.480
 5459TIP3   OH216319   4.788   6.299   1.369
 5459TIP3    H116320   4.719   6.348   1.412
 5459TIP3    H216321   4.775   6.316   1.275
 5460TIP3   OH216322   4.054   4.322   4.701
 5460TIP3    H116323   4.078   4.244   4.651
 5460TIP3    H216324   3.970   4.299   4.741
 5461TIP3   OH216325   2.316   3.107   4.291
 5461TIP3    H116326   2.336   3.166   4.363
 5461TIP3    H216327   2.311   3.020   4.331
 5462TIP3   OH216328   6.981   3.294   0.346
 5462TIP3    H116329   7.010   3.363   0.405
 5462TIP3    H216330   7.051   3.229   0.347
 5463TIP3   OH216331   7.342   6.323   4.225
 5463TIP3    H116332   7.307   6.412   4.218
 5463TIP3    H216333   7.350   6.308   4.319
 5464TIP3   OH216334   7.762   1.033   3.669
 5464TIP3    H116335   7.699   1.100   3.696
 5464TIP3    H216336   7.810   1.011   3.749
 5465TIP3   OH216337   4.954   6.182   4.666
 5465TIP3    H116338   4.911   6.118   4.609
 5465TIP3    H216339   4.978   6.134   4.744
 5466TIP3   OH216340   2.189   7.503   5.704
 5466TIP3    H116341   2.263   7.444   5.694
 5466TIP3    H216342   2.227   7.583   5.742
 5467TIP3   OH216343   6.360   7.724   4.153
 5467TIP3    H116344   6.435   7.703   4.097
 5467TIP3    H216345   6.284   7.694   4.103
 5468TIP3   OH216346   8.181   6.846   2.479
 5468TIP3    H116347   8.169   6.922   2.423
 5468TIP3    H216348   8.276   6.844   2.496
 5469TIP3   OH216349   6.251   0.588   2.917
 5469TIP3    H116350   6.207   0.522   2.864
 5469TIP3    H216351   6.340   0.555   2.929
 5470TIP3   OH216352   7.374   6.842   4.120
 5470TIP3    H116353   7.393   6.839   4.026
 5470TIP3    H216354   7.343   6.931   4.136
 5471TIP3   OH216355   5.656   3.061   2.118
 5471TIP3    H116356   5.696   3.148   2.122
 5471TIP3    H216357   5.570   3.072   2.159
 5472TIP3   OH216358   3.364   0.677   5.438
 5472TIP3    H116359   3.457   0.681   5.463
 5472TIP3    H216360   3.362   0.707   5.347
 5473TIP3   OH216361   4.512   0.413   2.831
 5473TIP3    H116362   4.443   0.350   2.811
 5473TIP3    H216363   4.590   0.359   2.843
 5474TIP3   OH216364   4.843   1.144   5.851
 5474TIP3    H116365   4.934   1.138   5.881
 5474TIP3    H216366   4.844   1.104   5.764
 5475TIP3   OH216367   7.516   2.234   4.492
 5475TIP3    H116368   7.511   2.315   4.440
 5475TIP3    H216369   7.481   2.167   4.433
 5476TIP3   OH216370   4.014   7.282   2.700
 5476TIP3    H116371   4.090   7.338   2.716
 5476TIP3    H216372   4.050   7.193   2.698
 5477TIP3   OH216373   0.201   3.252   3.931
 5477TIP3    H116374   0.224   3.218   4.018
 5477TIP3    H216375   0.120   3.207   3.908
 5478TIP3   OH216376   5.003   2.752   1.193
 5478TIP3    H116377   4.998   2.671   1.244
 5478TIP3    H216378   5.070   2.735   1.127
 5479TIP3   OH216379   1.847   0.419   2.453
 5479TIP3    H116380   1.822   0.508   2.478
 5479TIP3    H216381   1.807   0.406   2.367
 5480TIP3   OH216382   3.217   0.180   5.800
 5480TIP3    H116383   3.308   0.154   5.793
 5480TIP3    H216384   3.178   0.156   5.716
 5481TIP3   OH216385   7.397   2.982   2.957
 5481TIP3    H116386   7.416   3.003   3.048
 5481TIP3    H216387   7.345   3.056   2.925
 5482TIP3   OH216388   0.978   7.289   3.203
 5482TIP3    H116389   1.019   7.207   3.174
 5482TIP3    H216390   0.884   7.274   3.190
 5483TIP3   OH216391   6.219   4.907   5.905
 5483TIP3    H116392   6.301   4.956   5.906
 5483TIP3    H216393   6.161   4.956   5.846
 5484TIP3   OH216394   5.551   6.721   4.644
 5484TIP3    H116395   5.487   6.676   4.588
 5484TIP3    H216396   5.620   6.656   4.658
 5485TIP3   OH216397   7.349   5.525   5.810
 5485TIP3    H116398   7.393   5.610   5.816
 5485TIP3    H216399   7.417   5.461   5.828
 5486TIP3   OH216400   5.844   0.606   3.171
 5486TIP3    H116401   5.773   0.628   3.111
 5486TIP3    H216402   5.887   0.531   3.131
 5487TIP3   OH216403   0.612   6.597   1.443
 5487TIP3    H116404   0.569   6.525   1.489
 5487TIP3    H216405   0.544   6.633   1.386
 5488TIP3   OH216406   4.645   7.548   2.799
 5488TIP3    H116407   4.702   7.624   2.786
 5488TIP3    H216408   4.563   7.571   2.754
 5489TIP3   OH216409   4.894   1.116   2.585
 5489TIP3    H116410   4.849   1.060   2.521
 5489TIP3    H216411   4.824   1.152   2.639
 5490TIP3   OH216412   7.650   6.767   4.185
 5490TIP3    H116413   7.556   6.768   4.168
 5490TIP3    H216414   7.679   6.856   4.166
 5491TIP3   OH216415   2.639   5.757   1.917
 5491TIP3    H116416   2.678   5.783   1.833
 5491TIP3    H216417   2.713   5.731   1.971
 5492TIP3   OH216418   2.477   7.316   1.871
 5492TIP3    H116419   2.450   7.306   1.780
 5492TIP3    H216420   2.446   7.237   1.914
 5493TIP3   OH216421   4.644   2.673   1.358
 5493TIP3    H116422   4.667   2.642   1.446
 5493TIP3    H216423   4.556   2.639   1.343
 5494TIP3   OH216424   0.296   3.007   0.125
 5494TIP3    H116425   0.276   3.099   0.105
 5494TIP3    H216426   0.221   2.958   0.090
 5495TIP3   OH216427   5.284   2.014   5.152
 5495TIP3    H116428   5.248   2.007   5.241
 5495TIP3    H216429   5.302   2.108   5.142
 5496TIP3   OH216430   2.168   6.970   6.208
 5496TIP3    H116431   2.233   6.903   6.188
 5496TIP3    H216432   2.095   6.922   6.246
 5497TIP3   OH216433   6.351   4.686   4.332
 5497TIP3    H116434   6.346   4.595   4.302
 5497TIP3    H216435   6.444   4.708   4.324
 5498TIP3   OH216436   0.221   4.535   4.974
 5498TIP3    H116437   0.152   4.529   4.909
 5498TIP3    H216438   0.183   4.586   5.046
 5499TIP3   OH216439   6.317   7.059   6.071
 5499TIP3    H116440   6.407   7.082   6.048
 5499TIP3    H216441   6.267   7.139   6.058
 5500TIP3   OH216442   2.871   1.804   0.609
 5500TIP3    H116443   2.833   1.755   0.682
 5500TIP3    H216444   2.802   1.806   0.543
 5501TIP3   OH216445   4.598   0.308   6.427
 5501TIP3    H116446   4.509   0.285   6.455
 5501TIP3    H216447   4.587   0.386   6.373
 5502TIP3   OH216448   4.817   3.427   0.261
 5502TIP3    H116449   4.861   3.500   0.303
 5502TIP3    H216450   4.839   3.435   0.168
 5503TIP3   OH216451   5.160   2.066   0.676
 5503TIP3    H116452   5.163   1.973   0.698
 5503TIP3    H216453   5.240   2.082   0.626
 5504TIP3   OH216454   2.448   6.648   2.442
 5504TIP3    H116455   2.408   6.659   2.528
 5504TIP3    H216456   2.511   6.719   2.436
 5505TIP3   OH216457   7.297   6.317   1.406
 5505TIP3    H116458   7.385   6.356   1.405
 5505TIP3    H216459   7.289   6.272   1.322
 5506TIP3   OH216460   4.315   7.060   6.383
 5506TIP3    H116461   4.379   7.092   6.446
 5506TIP3    H216462   4.363   7.051   6.301
 5507TIP3   OH216463   3.447   0.783   2.886
 5507TIP3    H116464   3.378   0.810   2.825
 5507TIP3    H216465   3.481   0.865   2.921
 5508TIP3   OH216466   6.746   7.714   4.968
 5508TIP3    H116467   6.684   7.780   4.935
 5508TIP3    H216468   6.694   7.662   5.030
 5509TIP3   OH216469   3.184   4.584   6.083
 5509TIP3    H116470   3.268   4.595   6.128
 5509TIP3    H216471   3.146   4.506   6.122
 5510TIP3   OH216472   0.486   6.001   0.644
 5510TIP3    H116473   0.452   6.090   0.633
 5510TIP3    H216474   0.409   5.945   0.631
 5511TIP3   OH216475   7.565   0.778   3.483
 5511TIP3    H116476   7.475   0.794   3.512
 5511TIP3    H216477   7.619   0.830   3.543
 5512TIP3   OH216478   6.793  -0.017   4.469
 5512TIP3    H116479   6.838   0.067   4.463
 5512TIP3    H216480   6.825  -0.067   4.394
 5513TIP3   OH216481   0.247   1.684   5.056
 5513TIP3    H116482   0.215   1.726   5.136
 5513TIP3    H216483   0.215   1.594   5.062
 5514TIP3   OH216484   1.948   4.197   6.050
 5514TIP3    H116485   1.985   4.127   5.996
 5514TIP3    H216486   1.987   4.277   6.015
 5515TIP3   OH216487   5.482   1.612   4.723
 5515TIP3    H116488   5.402   1.589   4.676
 5515TIP3    H216489   5.521   1.528   4.746
 5516TIP3   OH216490   2.367   3.199   1.094
 5516TIP3    H116491   2.354   3.128   1.032
 5516TIP3    H216492   2.370   3.156   1.180
 5517TIP3   OH216493   8.211   0.117   5.438
 5517TIP3    H116494   8.278   0.154   5.381
 5517TIP3    H216495   8.255   0.104   5.522
 5518TIP3   OH216496   1.486   3.840   6.680
 5518TIP3    H116497   1.493   3.791   6.598
 5518TIP3    H216498   1.569   3.825   6.724
 5519TIP3   OH216499   1.115   4.404   5.078
 5519TIP3    H116500   1.164   4.460   5.017
 5519TIP3    H216501   1.172   4.395   5.154
 5520TIP3   OH216502   1.315   7.256   5.988
 5520TIP3    H116503   1.295   7.171   6.027
 5520TIP3    H216504   1.308   7.241   5.894
 5521TIP3   OH216505   6.971   1.447   5.593
 5521TIP3    H116506   6.940   1.379   5.652
 5521TIP3    H216507   6.892   1.484   5.554
 5522TIP3   OH216508   0.205   4.311   6.059
 5522TIP3    H116509   0.282   4.367   6.063
 5522TIP3    H216510   0.235   4.226   6.092
 5523TIP3   OH216511   1.412   7.632   4.761
 5523TIP3    H116512   1.505   7.648   4.747
 5523TIP3    H216513   1.371   7.717   4.745
 5524TIP3   OH216514   3.929   5.989   5.323
 5524TIP3    H116515   3.947   5.895   5.330
 5524TIP3    H216516   3.989   6.031   5.384
 5525TIP3   OH216517   0.334   5.125   6.298
 5525TIP3    H116518   0.416   5.162   6.331
 5525TIP3    H216519   0.341   5.032   6.319
 5526TIP3   OH216520   3.257   2.644   0.744
 5526TIP3    H116521   3.190   2.587   0.782
 5526TIP3    H216522   3.229   2.732   0.769
 5527TIP3   OH216523   5.431   0.710   2.548
 5527TIP3    H116524   5.368   0.731   2.479
 5527TIP3    H216525   5.516   0.735   2.513
 5528TIP3   OH216526   7.970   2.252   2.999
 5528TIP3    H116527   8.019   2.317   3.049
 5528TIP3    H216528   7.916   2.303   2.939
 5529TIP3   OH216529   5.267   6.332   4.822
 5529TIP3    H116530   5.280   6.391   4.896
 5529TIP3    H216531   5.266   6.244   4.860
 5530TIP3   OH216532   7.053   3.450   2.285
 5530TIP3    H116533   7.079   3.483   2.199
 5530TIP3    H216534   7.135   3.449   2.335
 5531TIP3   OH216535   4.040   5.917   6.335
 5531TIP3    H116536   4.024   6.007   6.365
 5531TIP3    H216537   4.035   5.922   6.240
 5532TIP3   OH216538   7.788   6.445   5.486
 5532TIP3    H116539   7.841   6.367   5.469
 5532TIP3    H216540   7.843   6.501   5.540
 5533TIP3   OH216541   3.707   1.646   4.219
 5533TIP3    H116542   3.683   1.675   4.307
 5533TIP3    H216543   3.623   1.636   4.174
 5534TIP3   OH216544  -0.016   3.370   6.618
 5534TIP3    H116545   0.065   3.318   6.623
 5534TIP3    H216546  -0.005   3.437   6.685
 5535TIP3   OH216547   7.980   4.977   6.343
 5535TIP3    H116548   7.897   5.024   6.348
 5535TIP3    H216549   7.986   4.948   6.252
 5536TIP3   OH216550   7.531   1.877   0.371
 5536TIP3    H116551   7.622   1.903   0.389
 5536TIP3    H216552   7.511   1.812   0.438
 5537TIP3   OH216553   2.527  -0.009   3.432
 5537TIP3    H116554   2.484   0.047   3.496
 5537TIP3    H216555   2.455  -0.050   3.383
 5538TIP3   OH216556   6.620   6.903   2.551
 5538TIP3    H116557   6.714   6.883   2.546
 5538TIP3    H216558   6.603   6.956   2.474
 5539TIP3   OH216559   5.078   1.398   3.191
 5539TIP3    H116560   5.043   1.408   3.279
 5539TIP3    H216561   5.031   1.465   3.140
 5540TIP3   OH216562   2.087   0.195   2.132
 5540TIP3    H116563   2.155   0.183   2.066
 5540TIP3    H216564   2.129   0.173   2.215
 5541TIP3   OH216565   4.845   4.782   6.156
 5541TIP3    H116566   4.878   4.692   6.162
 5541TIP3    H216567   4.752   4.774   6.173
 5542TIP3   OH216568   0.667   6.057   0.299
 5542TIP3    H116569   0.731   6.101   0.243
 5542TIP3    H216570   0.588   6.110   0.291
 5543TIP3   OH216571   2.130   1.002   6.456
 5543TIP3    H116572   2.075   0.950   6.398
 5543TIP3    H216573   2.097   1.091   6.447
 5544TIP3   OH216574   7.062   4.477   1.277
 5544TIP3    H116575   6.973   4.456   1.306
 5544TIP3    H216576   7.076   4.567   1.305
 5545TIP3   OH216577   1.940   3.346   4.283
 5545TIP3    H116578   1.862   3.386   4.322
 5545TIP3    H216579   1.965   3.277   4.345
 5546TIP3   OH216580   2.229   2.143   3.153
 5546TIP3    H116581   2.275   2.104   3.228
 5546TIP3    H216582   2.259   2.091   3.078
 5547TIP3   OH216583   1.514   4.644   5.885
 5547TIP3    H116584   1.450   4.677   5.822
 5547TIP3    H216585   1.584   4.709   5.884
 5548TIP3   OH216586   1.015   4.485   6.575
 5548TIP3    H116587   1.077   4.555   6.596
 5548TIP3    H216588   1.055   4.441   6.499
 5549TIP3   OH216589   6.692   5.568   3.184
 5549TIP3    H116590   6.750   5.638   3.152
 5549TIP3    H216591   6.744   5.488   3.174
 5550TIP3   OH216592   3.967   0.303   3.639
 5550TIP3    H116593   3.956   0.252   3.720
 5550TIP3    H216594   3.881   0.342   3.624
 5551TIP3   OH216595   7.578   2.875   1.181
 5551TIP3    H116596   7.672   2.888   1.174
 5551TIP3    H216597   7.562   2.792   1.135
 5552TIP3   OH216598   5.480   1.047   4.910
 5552TIP3    H116599   5.467   0.960   4.872
 5552TIP3    H216600   5.392   1.075   4.937
 5553TIP3   OH216601   0.150   0.832   5.285
 5553TIP3    H116602   0.222   0.894   5.293
 5553TIP3    H216603   0.072   0.882   5.309
 5554TIP3   OH216604   8.161   1.702   6.553
 5554TIP3    H116605   8.099   1.666   6.490
 5554TIP3    H216606   8.247   1.688   6.512
 5555TIP3   OH216607   7.556   0.945   6.520
 5555TIP3    H116608   7.509   0.863   6.504
 5555TIP3    H216609   7.617   0.952   6.447
 5556TIP3   OH216610   5.335   2.635   0.728
 5556TIP3    H116611   5.392   2.685   0.670
 5556TIP3    H216612   5.363   2.544   0.719
 5557TIP3   OH216613   7.002   0.171   3.031
 5557TIP3    H116614   6.946   0.095   3.018
 5557TIP3    H216615   7.005   0.214   2.945
 5558TIP3   OH216616   5.038   7.587   2.570
 5558TIP3    H116617   4.953   7.603   2.529
 5558TIP3    H216618   5.028   7.505   2.618
 5559TIP3   OH216619   6.006   4.759   2.229
 5559TIP3    H116620   6.036   4.791   2.144
 5559TIP3    H216621   5.919   4.798   2.240
 5560TIP3   OH216622   5.355   7.208   2.317
 5560TIP3    H116623   5.405   7.289   2.306
 5560TIP3    H216624   5.381   7.154   2.242
 5561TIP3   OH216625   2.594   3.907   0.060
 5561TIP3    H116626   2.543   3.828   0.078
 5561TIP3    H216627   2.547   3.976   0.107
 5562TIP3   OH216628   7.406   4.472   2.331
 5562TIP3    H116629   7.404   4.567   2.331
 5562TIP3    H216630   7.345   4.447   2.401
 5563TIP3   OH216631   1.197   3.776   3.730
 5563TIP3    H116632   1.258   3.834   3.776
 5563TIP3    H216633   1.237   3.690   3.735
 5564TIP3   OH216634   1.659   1.504   2.432
 5564TIP3    H116635   1.610   1.566   2.379
 5564TIP3    H216636   1.650   1.537   2.522
 5565TIP3   OH216637   5.014   1.243   1.416
 5565TIP3    H116638   4.923   1.216   1.415
 5565TIP3    H216639   5.043   1.228   1.506
 5566TIP3   OH216640   7.429   5.099   2.011
 5566TIP3    H116641   7.347   5.141   1.984
 5566TIP3    H216642   7.405   5.049   2.089
 5567TIP3   OH216643   1.171   1.980   6.644
 5567TIP3    H116644   1.147   2.067   6.674
 5567TIP3    H216645   1.091   1.928   6.655
 5568TIP3   OH216646   7.813   4.794   5.255
 5568TIP3    H116647   7.903   4.772   5.233
 5568TIP3    H216648   7.760   4.750   5.189
 5569TIP3   OH216649   7.977   7.599   5.983
 5569TIP3    H116650   7.915   7.622   6.052
 5569TIP3    H216651   8.032   7.531   6.023
 5570TIP3   OH216652   6.859   3.753   2.756
 5570TIP3    H116653   6.894   3.682   2.702
 5570TIP3    H216654   6.935   3.791   2.799
 5571TIP3   OH216655   2.600   1.148   2.239
 5571TIP3    H116656   2.684   1.190   2.258
 5571TIP3    H216657   2.546   1.218   2.203
 5572TIP3   OH216658   4.539   1.172   1.011
 5572TIP3    H116659   4.491   1.212   0.939
 5572TIP3    H216660   4.471   1.131   1.065
 5573TIP3   OH216661   3.790   0.391   1.823
 5573TIP3    H116662   3.715   0.415   1.770
 5573TIP3    H216663   3.799   0.463   1.886
 5574TIP3   OH216664   5.630   1.510   0.782
 5574TIP3    H116665   5.697   1.515   0.714
 5574TIP3    H216666   5.548   1.523   0.734
 5575TIP3   OH216667   0.018   7.104   3.322
 5575TIP3    H116668   0.069   7.184   3.338
 5575TIP3    H216669   0.083   7.036   3.310
 5576TIP3   OH216670   5.233   5.952   5.566
 5576TIP3    H116671   5.267   5.907   5.643
 5576TIP3    H216672   5.176   5.887   5.524
 5577TIP3   OH216673   7.101   4.097   0.989
 5577TIP3    H116674   7.092   4.003   0.973
 5577TIP3    H216675   7.033   4.117   1.053
 5578TIP3   OH216676   8.239   3.231   0.629
 5578TIP3    H116677   8.285   3.150   0.603
 5578TIP3    H216678   8.173   3.201   0.692
 5579TIP3   OH216679   3.483   4.545   3.658
 5579TIP3    H116680   3.392   4.565   3.679
 5579TIP3    H216681   3.526   4.630   3.654
 5580TIP3   OH216682   1.665   2.411   3.080
 5580TIP3    H116683   1.580   2.403   3.122
 5580TIP3    H216684   1.644   2.427   2.988
 5581TIP3   OH216685   6.566   1.208   3.752
 5581TIP3    H116686   6.546   1.301   3.749
 5581TIP3    H216687   6.483   1.165   3.733
 5582TIP3   OH216688   4.949   2.051   6.340
 5582TIP3    H116689   4.961   2.039   6.246
 5582TIP3    H216690   4.892   2.128   6.348
 5583TIP3   OH216691   3.422   0.771   5.021
 5583TIP3    H116692   3.398   0.807   5.107
 5583TIP3    H216693   3.343   0.784   4.967
 5584TIP3   OH216694   1.773   1.985   2.025
 5584TIP3    H116695   1.841   1.941   1.973
 5584TIP3    H216696   1.772   2.075   1.992
 5585TIP3   OH216697   4.649   6.614   2.011
 5585TIP3    H116698   4.687   6.574   2.089
 5585TIP3    H216699   4.644   6.707   2.032
 5586TIP3   OH216700   2.726   7.624   4.607
 5586TIP3    H116701   2.646   7.574   4.591
 5586TIP3    H216702   2.764   7.635   4.520
 5587TIP3   OH216703   6.525   5.784   3.981
 5587TIP3    H116704   6.513   5.797   3.887
 5587TIP3    H216705   6.563   5.696   3.988
 5588TIP3   OH216706   1.158   1.393   6.214
 5588TIP3    H116707   1.191   1.347   6.292
 5588TIP3    H216708   1.219   1.466   6.203
 5589TIP3   OH216709   7.242   3.069   5.508
 5589TIP3    H116710   7.245   2.987   5.558
 5589TIP3    H216711   7.224   3.043   5.418
 5590TIP3   OH216712   4.337   3.356   3.208
 5590TIP3    H116713   4.323   3.391   3.120
 5590TIP3    H216714   4.432   3.359   3.220
 5591TIP3   OH216715   5.458   3.652   2.867
 5591TIP3    H116716   5.416   3.570   2.894
 5591TIP3    H216717   5.506   3.630   2.788
 5592TIP3   OH216718   0.956   5.229   2.974
 5592TIP3    H116719   0.918   5.160   3.028
 5592TIP3    H216720   0.958   5.306   3.030
 5593TIP3   OH216721   8.083   2.577   5.112
 5593TIP3    H116722   8.105   2.572   5.020
 5593TIP3    H216723   8.053   2.668   5.125
 5594TIP3   OH216724   7.950   2.796   3.043
 5594TIP3    H116725   8.029   2.829   3.001
 5594TIP3    H216726   7.919   2.727   2.985
 5595TIP3   OH216727   1.035   3.276   5.481
 5595TIP3    H116728   1.115   3.226   5.469
 5595TIP3    H216729   1.064   3.364   5.503
 5596TIP3   OH216730   5.796   2.139   4.062
 5596TIP3    H116731   5.819   2.204   4.129
 5596TIP3    H216732   5.862   2.070   4.072
 5597TIP3   OH216733   3.718   0.410   6.087
 5597TIP3    H116734   3.693   0.502   6.096
 5597TIP3    H216735   3.647   0.370   6.037
 5598TIP3   OH216736   3.363   4.820   3.956
 5598TIP3    H116737   3.271   4.803   3.934
 5598TIP3    H216738   3.407   4.830   3.872
 5599TIP3   OH216739   3.701   4.695   3.870
 5599TIP3    H116740   3.641   4.755   3.827
 5599TIP3    H216741   3.646   4.623   3.900
 5600TIP3   OH216742   3.863   4.558   4.979
 5600TIP3    H116743   3.846   4.463   4.975
 5600TIP3    H216744   3.952   4.568   4.946
 5601TIP3   OH216745   0.712   6.189   4.652
 5601TIP3    H116746   0.683   6.153   4.568
 5601TIP3    H216747   0.708   6.114   4.712
 5602TIP3   OH216748   0.313   1.729   2.075
 5602TIP3    H116749   0.224   1.719   2.040
 5602TIP3    H216750   0.350   1.802   2.026
 5603TIP3   OH216751   7.941   6.768   4.179
 5603TIP3    H116752   7.911   6.811   4.099
 5603TIP3    H216753   7.860   6.743   4.225
 5604TIP3   OH216754   6.644   0.430   2.623
 5604TIP3    H116755   6.572   0.371   2.647
 5604TIP3    H216756   6.694   0.441   2.703
 5605TIP3   OH216757   5.857   1.045   2.737
 5605TIP3    H116758   5.779   1.099   2.724
 5605TIP3    H216759   5.876   1.052   2.831
 5606TIP3   OH216760   4.723   2.666   2.454
 5606TIP3    H116761   4.639   2.711   2.466
 5606TIP3    H216762   4.768   2.717   2.386
 5607TIP3   OH216763   2.371   4.257   1.951
 5607TIP3    H116764   2.440   4.197   1.980
 5607TIP3    H216765   2.309   4.258   2.024
 5608TIP3   OH216766   2.998   2.612   1.559
 5608TIP3    H116767   3.059   2.547   1.525
 5608TIP3    H216768   3.041   2.696   1.544
 5609TIP3   OH216769   5.606   7.419   4.684
 5609TIP3    H116770   5.649   7.503   4.700
 5609TIP3    H216771   5.519   7.443   4.651
 5610TIP3   OH216772   3.819   4.387   1.221
 5610TIP3    H116773   3.782   4.348   1.142
 5610TIP3    H216774   3.875   4.458   1.189
 5611TIP3   OH216775   7.681   0.724   2.142
 5611TIP3    H116776   7.594   0.763   2.130
 5611TIP3    H216777   7.729   0.746   2.063
 5612TIP3   OH216778   0.907   1.302   0.373
 5612TIP3    H116779   0.923   1.383   0.420
 5612TIP3    H216780   0.994   1.273   0.344
 5613TIP3   OH216781   3.671   3.206   0.281
 5613TIP3    H116782   3.726   3.279   0.253
 5613TIP3    H216783   3.584   3.245   0.293
 5614TIP3   OH216784   4.963   7.715   1.299
 5614TIP3    H116785   4.970   7.738   1.391
 5614TIP3    H216786   5.053   7.717   1.267
 5615TIP3   OH216787   8.254   2.729   1.909
 5615TIP3    H116788   8.315   2.802   1.895
 5615TIP3    H216789   8.218   2.710   1.823
 5616TIP3   OH216790   2.931   4.928   6.197
 5616TIP3    H116791   2.936   4.846   6.147
 5616TIP3    H216792   2.854   4.972   6.161
 5617TIP3   OH216793   1.385   2.461   4.638
 5617TIP3    H116794   1.478   2.478   4.622
 5617TIP3    H216795   1.380   2.366   4.652
 5618TIP3   OH216796   6.915   7.559   1.223
 5618TIP3    H116797   6.874   7.534   1.140
 5618TIP3    H216798   6.875   7.643   1.245
 5619TIP3   OH216799   1.410   0.061   4.844
 5619TIP3    H116800   1.354   0.009   4.901
 5619TIP3    H216801   1.372   0.149   4.846
 5620TIP3   OH216802   3.410   5.487   3.294
 5620TIP3    H116803   3.380   5.406   3.253
 5620TIP3    H216804   3.351   5.554   3.258
 5621TIP3   OH216805   0.632   2.160   3.781
 5621TIP3    H116806   0.706   2.101   3.798
 5621TIP3    H216807   0.597   2.180   3.868
 5622TIP3   OH216808   7.392   0.859   0.371
 5622TIP3    H116809   7.367   0.850   0.278
 5622TIP3    H216810   7.410   0.952   0.381
 5623TIP3   OH216811   8.304   3.749   5.405
 5623TIP3    H116812   8.238   3.786   5.348
 5623TIP3    H216813   8.257   3.685   5.459
 5624TIP3   OH216814   4.607   5.697   2.518
 5624TIP3    H116815   4.696   5.701   2.481
 5624TIP3    H216816   4.553   5.741   2.453
 5625TIP3   OH216817   4.271   0.578   1.445
 5625TIP3    H116818   4.204   0.515   1.470
 5625TIP3    H216819   4.328   0.530   1.385
 5626TIP3   OH216820   4.467   3.228   1.596
 5626TIP3    H116821   4.453   3.270   1.681
 5626TIP3    H216822   4.379   3.206   1.566
 5627TIP3   OH216823   3.927   2.986   0.047
 5627TIP3    H116824   4.005   2.955   0.001
 5627TIP3    H216825   3.858   2.925   0.020
 5628TIP3   OH216826   6.924   2.546   1.398
 5628TIP3    H116827   6.862   2.595   1.344
 5628TIP3    H216828   6.920   2.589   1.483
 5629TIP3   OH216829   0.371   4.868   2.574
 5629TIP3    H116830   0.321   4.935   2.526
 5629TIP3    H216831   0.462   4.883   2.547
 5630TIP3   OH216832   7.808   5.022   2.979
 5630TIP3    H116833   7.818   5.078   2.902
 5630TIP3    H216834   7.860   5.064   3.047
 5631TIP3   OH216835   0.696   3.891   3.996
 5631TIP3    H116836   0.646   3.972   4.007
 5631TIP3    H216837   0.671   3.836   4.070
 5632TIP3   OH216838   1.113   5.305   2.700
 5632TIP3    H116839   1.191   5.356   2.722
 5632TIP3    H216840   1.112   5.235   2.765
 5633TIP3   OH216841   6.388   2.813   5.031
 5633TIP3    H116842   6.328   2.825   5.105
 5633TIP3    H216843   6.459   2.875   5.047
 5634TIP3   OH216844   4.713   7.649   6.717
 5634TIP3    H116845   4.656   7.723   6.739
 5634TIP3    H216846   4.786   7.689   6.670
 5635TIP3   OH216847   5.386   3.054   1.805
 5635TIP3    H116848   5.438   3.122   1.849
 5635TIP3    H216849   5.414   3.059   1.714
 5636TIP3   OH216850   2.838   1.796   3.518
 5636TIP3    H116851   2.791   1.713   3.520
 5636TIP3    H216852   2.930   1.772   3.526
 5637TIP3   OH216853   3.273   7.492   4.401
 5637TIP3    H116854   3.234   7.456   4.322
 5637TIP3    H216855   3.368   7.488   4.385
 5638TIP3   OH216856   3.972   0.793   0.254
 5638TIP3    H116857   3.999   0.714   0.207
 5638TIP3    H216858   3.936   0.761   0.336
 5639TIP3   OH216859   0.131   3.802   1.857
 5639TIP3    H116860   0.218   3.794   1.819
 5639TIP3    H216861   0.141   3.774   1.947
 5640TIP3   OH216862   1.837   5.465   0.488
 5640TIP3    H116863   1.852   5.432   0.399
 5640TIP3    H216864   1.796   5.551   0.474
 5641TIP3   OH216865   4.286   6.573   0.403
 5641TIP3    H116866   4.276   6.491   0.355
 5641TIP3    H216867   4.291   6.546   0.495
 5642TIP3   OH216868   2.699   2.225   5.543
 5642TIP3    H116869   2.688   2.288   5.472
 5642TIP3    H216870   2.793   2.223   5.559
 5643TIP3   OH216871   3.187   5.578   2.414
 5643TIP3    H116872   3.122   5.574   2.483
 5643TIP3    H216873   3.165   5.658   2.365
 5644TIP3   OH216874   6.726   4.172   6.131
 5644TIP3    H116875   6.776   4.225   6.194
 5644TIP3    H216876   6.792   4.121   6.085
 5645TIP3   OH216877   8.191   0.580   4.037
 5645TIP3    H116878   8.239   0.535   3.968
 5645TIP3    H216879   8.139   0.511   4.080
 5646TIP3   OH216880   4.406   3.509   5.103
 5646TIP3    H116881   4.461   3.450   5.155
 5646TIP3    H216882   4.464   3.580   5.078
 5647TIP3   OH216883   1.684   5.928   2.867
 5647TIP3    H116884   1.629   5.890   2.799
 5647TIP3    H216885   1.702   6.017   2.837
 5648TIP3   OH216886   7.233   3.743   5.957
 5648TIP3    H116887   7.234   3.712   6.048
 5648TIP3    H216888   7.166   3.690   5.914
 5649TIP3   OH216889   4.705   7.634   1.403
 5649TIP3    H116890   4.728   7.541   1.412
 5649TIP3    H216891   4.788   7.676   1.381
 5650TIP3   OH216892   2.901   0.487   4.247
 5650TIP3    H116893   2.994   0.508   4.242
 5650TIP3    H216894   2.891   0.410   4.191
 5651TIP3   OH216895   1.591   7.629   5.374
 5651TIP3    H116896   1.674   7.677   5.381
 5651TIP3    H216897   1.613   7.552   5.322
 5652TIP3   OH216898   2.315   7.830   5.107
 5652TIP3    H116899   2.315   7.793   5.019
 5652TIP3    H216900   2.380   7.779   5.155
 5653TIP3   OH216901   4.844   0.925   1.702
 5653TIP3    H116902   4.898   0.859   1.747
 5653TIP3    H216903   4.775   0.874   1.659
 5654TIP3   OH216904   3.266   4.045   1.237
 5654TIP3    H116905   3.346   4.031   1.287
 5654TIP3    H216906   3.216   4.108   1.289
 5655TIP3   OH216907   8.211   1.982   2.013
 5655TIP3    H116908   8.252   2.038   2.079
 5655TIP3    H216909   8.273   1.910   2.002
 5656TIP3   OH216910   6.212   4.117   2.606
 5656TIP3    H116911   6.117   4.119   2.618
 5656TIP3    H216912   6.230   4.031   2.567
 5657TIP3   OH216913   2.879   5.911   6.310
 5657TIP3    H116914   2.946   5.927   6.376
 5657TIP3    H216915   2.908   5.962   6.234
 5658TIP3   OH216916   0.247   0.027   1.707
 5658TIP3    H116917   0.212   0.115   1.724
 5658TIP3    H216918   0.175  -0.032   1.731
 5659TIP3   OH216919   2.273   1.647   3.210
 5659TIP3    H116920   2.224   1.724   3.183
 5659TIP3    H216921   2.360   1.659   3.172
 5660TIP3   OH216922   0.056   4.776   5.367
 5660TIP3    H116923   0.081   4.770   5.460
 5660TIP3    H216924   0.079   4.690   5.331
 5661TIP3   OH216925   6.378   4.346   4.656
 5661TIP3    H116926   6.298   4.400   4.665
 5661TIP3    H216927   6.402   4.325   4.746
 5662TIP3   OH216928   4.346   0.958   6.636
 5662TIP3    H116929   4.305   1.007   6.707
 5662TIP3    H216930   4.430   1.001   6.623
 5663TIP3   OH216931   5.918   0.341   1.977
 5663TIP3    H116932   6.002   0.303   1.952
 5663TIP3    H216933   5.874   0.272   2.027
 5664TIP3   OH216934   2.868   4.919   4.797
 5664TIP3    H116935   2.862   4.933   4.703
 5664TIP3    H216936   2.926   4.988   4.828
 5665TIP3   OH216937   6.318   1.950   4.524
 5665TIP3    H116938   6.371   1.963   4.445
 5665TIP3    H216939   6.228   1.945   4.491
 5666TIP3   OH216940   3.072   0.876   1.297
 5666TIP3    H116941   3.153   0.825   1.304
 5666TIP3    H216942   3.010   0.830   1.353
 5667TIP3   OH216943   7.801   4.482   6.363
 5667TIP3    H116944   7.755   4.404   6.391
 5667TIP3    H216945   7.785   4.546   6.433
 5668TIP3   OH216946   7.169   5.789   1.140
 5668TIP3    H116947   7.151   5.868   1.190
 5668TIP3    H216948   7.084   5.764   1.103
 5669TIP3   OH216949   7.503   1.257   0.646
 5669TIP3    H116950   7.543   1.280   0.730
 5669TIP3    H216951   7.439   1.189   0.668
 5670TIP3   OH216952   6.988   4.130   2.879
 5670TIP3    H116953   7.005   4.109   2.787
 5670TIP3    H216954   6.909   4.081   2.901
 5671TIP3   OH216955   2.998   5.115   4.497
 5671TIP3    H116956   3.072   5.106   4.437
 5671TIP3    H216957   3.023   5.185   4.556
 5672TIP3   OH216958   5.403   4.697   5.337
 5672TIP3    H116959   5.358   4.613   5.333
 5672TIP3    H216960   5.494   4.677   5.319
 5673TIP3   OH216961   7.092   7.566   2.097
 5673TIP3    H116962   7.170   7.512   2.107
 5673TIP3    H216963   7.108   7.643   2.151
 5674TIP3   OH216964   2.635   3.979   1.730
 5674TIP3    H116965   2.673   3.891   1.729
 5674TIP3    H216966   2.623   4.001   1.638
 5675TIP3   OH216967   4.668   6.593   0.686
 5675TIP3    H116968   4.592   6.558   0.733
 5675TIP3    H216969   4.741   6.536   0.711
 5676TIP3   OH216970   8.037   4.712   3.785
 5676TIP3    H116971   8.082   4.629   3.801
 5676TIP3    H216972   7.950   4.699   3.823
 5677TIP3   OH216973   3.663   1.119   3.273
 5677TIP3    H116974   3.661   1.028   3.243
 5677TIP3    H216975   3.740   1.124   3.330
 5678TIP3   OH216976   4.435   0.715   2.202
 5678TIP3    H116977   4.409   0.802   2.171
 5678TIP3    H216978   4.489   0.680   2.132
 5679TIP3   OH216979   4.544   7.738   6.350
 5679TIP3    H116980   4.592   7.820   6.363
 5679TIP3    H216981   4.612   7.673   6.333
 5680TIP3   OH216982   3.373   2.782   5.249
 5680TIP3    H116983   3.320   2.861   5.258
 5680TIP3    H216984   3.357   2.751   5.160
 5681TIP3   OH216985   7.253   5.639   5.042
 5681TIP3    H116986   7.239   5.587   4.963
 5681TIP3    H216987   7.239   5.729   5.014
 5682TIP3   OH216988   7.215   1.017   1.146
 5682TIP3    H116989   7.164   1.040   1.069
 5682TIP3    H216990   7.304   1.047   1.126
 5683TIP3   OH216991   0.539   5.546   6.350
 5683TIP3    H116992   0.495   5.625   6.380
 5683TIP3    H216993   0.610   5.533   6.413
 5684TIP3   OH216994   1.690   2.694   6.773
 5684TIP3    H116995   1.775   2.655   6.794
 5684TIP3    H216996   1.693   2.708   6.678
 5685TIP3   OH216997   3.618   5.795   2.346
 5685TIP3    H116998   3.691   5.749   2.389
 5685TIP3    H216999   3.569   5.834   2.418
 5686TIP3   OH217000   7.480   3.469   5.751
 5686TIP3    H117001   7.426   3.393   5.770
 5686TIP3    H217002   7.567   3.433   5.733
 5687TIP3   OH217003   4.266   3.001   6.702
 5687TIP3    H117004   4.357   2.997   6.730
 5687TIP3    H217005   4.227   2.920   6.734
 5688TIP3   OH217006   8.262   6.690   0.960
 5688TIP3    H117007   8.239   6.660   0.872
 5688TIP3    H217008   8.279   6.784   0.950
 5689TIP3   OH217009   7.626   6.799   1.150
 5689TIP3    H117010   7.580   6.866   1.100
 5689TIP3    H217011   7.564   6.727   1.156
 5690TIP3   OH217012   1.775   1.870   3.499
 5690TIP3    H117013   1.863   1.899   3.474
 5690TIP3    H217014   1.788   1.821   3.580
 5691TIP3   OH217015   2.124   0.427   3.311
 5691TIP3    H117016   2.207   0.472   3.330
 5691TIP3    H217017   2.073   0.437   3.392
 5692TIP3   OH217018   4.410   2.523   4.148
 5692TIP3    H117019   4.339   2.468   4.181
 5692TIP3    H217020   4.409   2.600   4.205
 5693TIP3   OH217021   1.103   4.836   6.308
 5693TIP3    H117022   1.079   4.751   6.272
 5693TIP3    H217023   1.074   4.832   6.400
 5694TIP3   OH217024   7.694   4.229   6.432
 5694TIP3    H117025   7.736   4.259   6.512
 5694TIP3    H217026   7.726   4.139   6.420
 5695TIP3   OH217027   6.376   1.347   1.436
 5695TIP3    H117028   6.432   1.384   1.368
 5695TIP3    H217029   6.308   1.413   1.450
 5696TIP3   OH217030   1.733   3.997   3.790
 5696TIP3    H117031   1.724   3.916   3.839
 5696TIP3    H217032   1.777   4.057   3.851
 5697TIP3   OH217033   0.534   4.326   3.118
 5697TIP3    H117034   0.607   4.304   3.061
 5697TIP3    H217035   0.489   4.398   3.073
 5698TIP3   OH217036   3.777   5.247   5.716
 5698TIP3    H117037   3.752   5.268   5.806
 5698TIP3    H217038   3.862   5.204   5.725
 5699TIP3   OH217039   1.228   1.095   3.376
 5699TIP3    H117040   1.258   1.168   3.431
 5699TIP3    H217041   1.273   1.018   3.411
 5700TIP3   OH217042   4.574   1.856   3.828
 5700TIP3    H117043   4.538   1.931   3.876
 5700TIP3    H217044   4.627   1.895   3.759
 5701TIP3   OH217045   1.812   4.063   3.313
 5701TIP3    H117046   1.731   4.072   3.364
 5701TIP3    H217047   1.838   4.153   3.293
 5702TIP3   OH217048   7.003   2.836   0.856
 5702TIP3    H117049   6.975   2.744   0.849
 5702TIP3    H217050   6.921   2.885   0.868
 5703TIP3   OH217051   1.418   4.705   0.097
 5703TIP3    H117052   1.397   4.798   0.096
 5703TIP3    H217053   1.337   4.661   0.072
 5704TIP3   OH217054   0.057   4.290   0.737
 5704TIP3    H117055  -0.006   4.287   0.809
 5704TIP3    H217056   0.003   4.295   0.658
 5705TIP3   OH217057   7.846   1.525   0.054
 5705TIP3    H117058   7.807   1.612   0.062
 5705TIP3    H217059   7.779   1.465   0.085
 5706TIP3   OH217060   7.087   4.751   1.415
 5706TIP3    H117061   7.076   4.684   1.483
 5706TIP3    H217062   7.016   4.813   1.430
 5707TIP3   OH217063   5.258   3.733   4.267
 5707TIP3    H117064   5.212   3.816   4.271
 5707TIP3    H217065   5.332   3.749   4.208
 5708TIP3   OH217066   4.465   5.793   4.565
 5708TIP3    H117067   4.450   5.883   4.593
 5708TIP3    H217068   4.379   5.762   4.537
 5709TIP3   OH217069   2.397   5.761   0.204
 5709TIP3    H117070   2.362   5.816   0.274
 5709TIP3    H217071   2.320   5.716   0.168
 5710TIP3   OH217072   4.977   0.438   6.597
 5710TIP3    H117073   5.052   0.491   6.569
 5710TIP3    H217074   5.016   0.366   6.646
 5711TIP3   OH217075   4.936   3.869   1.615
 5711TIP3    H117076   4.929   3.926   1.538
 5711TIP3    H217077   4.964   3.927   1.685
 5712TIP3   OH217078   3.207   1.121   1.584
 5712TIP3    H117079   3.112   1.129   1.584
 5712TIP3    H217080   3.227   1.070   1.663
 5713TIP3   OH217081   1.752   7.256   5.562
 5713TIP3    H117082   1.804   7.255   5.481
 5713TIP3    H217083   1.767   7.344   5.597
 5714TIP3   OH217084   3.898   2.043   0.090
 5714TIP3    H117085   3.870   2.091   0.168
 5714TIP3    H217086   3.929   1.958   0.124
 5715TIP3   OH217087   4.542   2.572   2.865
 5715TIP3    H117088   4.598   2.497   2.881
 5715TIP3    H217089   4.603   2.644   2.845
 5716TIP3   OH217090   5.159   0.601   6.407
 5716TIP3    H117091   5.138   0.694   6.394
 5716TIP3    H217092   5.082   0.554   6.373
 5717TIP3   OH217093   6.869   6.760   2.507
 5717TIP3    H117094   6.830   6.729   2.589
 5717TIP3    H217095   6.963   6.753   2.521
 5718TIP3   OH217096   7.735   3.881   4.915
 5718TIP3    H117097   7.798   3.931   4.967
 5718TIP3    H217098   7.755   3.789   4.935
 5719TIP3   OH217099   1.264   2.380   1.520
 5719TIP3    H117100   1.188   2.414   1.567
 5719TIP3    H217101   1.308   2.457   1.485
 5720TIP3   OH217102   6.033   3.087   4.090
 5720TIP3    H117103   6.024   3.073   3.996
 5720TIP3    H217104   6.077   3.172   4.098
 5721TIP3   OH217105   6.707   3.665   0.284
 5721TIP3    H117106   6.753   3.629   0.360
 5721TIP3    H217107   6.617   3.633   0.293
 5722TIP3   OH217108   5.219   5.744   0.764
 5722TIP3    H117109   5.257   5.660   0.740
 5722TIP3    H217110   5.202   5.737   0.858
 5723TIP3   OH217111   0.508   6.535   2.035
 5723TIP3    H117112   0.586   6.575   2.073
 5723TIP3    H217113   0.514   6.443   2.061
 5724TIP3   OH217114   1.658   7.530   0.422
 5724TIP3    H117115   1.701   7.593   0.365
 5724TIP3    H217116   1.599   7.481   0.364
 5725TIP3   OH217117   7.836   0.686   5.001
 5725TIP3    H117118   7.801   0.731   5.078
 5725TIP3    H217119   7.822   0.593   5.018
 5726TIP3   OH217120   3.378   6.556   2.125
 5726TIP3    H117121   3.431   6.562   2.205
 5726TIP3    H217122   3.304   6.613   2.141
 5727TIP3   OH217123   7.632   0.779   0.117
 5727TIP3    H117124   7.568   0.788   0.047
 5727TIP3    H217125   7.599   0.706   0.170
 5728TIP3   OH217126   6.459   4.298   1.713
 5728TIP3    H117127   6.508   4.380   1.700
 5728TIP3    H217128   6.492   4.239   1.645
 5729TIP3   OH217129   1.002   2.214   1.750
 5729TIP3    H117130   0.936   2.200   1.682
 5729TIP3    H217131   1.062   2.140   1.741
 5730TIP3   OH217132   3.610   7.095   2.521
 5730TIP3    H117133   3.684   7.060   2.472
 5730TIP3    H217134   3.646   7.118   2.606
 5731TIP3   OH217135   8.265   0.276   4.858
 5731TIP3    H117136   8.215   0.309   4.933
 5731TIP3    H217137   8.356   0.296   4.879
 5732TIP3   OH217138   7.956   1.378   2.505
 5732TIP3    H117139   7.989   1.376   2.415
 5732TIP3    H217140   7.914   1.464   2.513
 5733TIP3   OH217141   0.760   2.764   5.528
 5733TIP3    H117142   0.729   2.738   5.614
 5733TIP3    H217143   0.687   2.813   5.490
 5734TIP3   OH217144   4.173   5.115   1.811
 5734TIP3    H117145   4.213   5.179   1.751
 5734TIP3    H217146   4.242   5.050   1.826
 5735TIP3   OH217147   1.196   3.133   5.822
 5735TIP3    H117148   1.122   3.185   5.854
 5735TIP3    H217149   1.273   3.184   5.845
 5736TIP3   OH217150   3.811   2.081   0.896
 5736TIP3    H117151   3.804   2.053   0.987
 5736TIP3    H217152   3.868   2.158   0.898
 5737TIP3   OH217153   4.016   5.970   0.692
 5737TIP3    H117154   4.054   5.883   0.678
 5737TIP3    H217155   4.089   6.022   0.724
 5738TIP3   OH217156   4.936   3.041   5.396
 5738TIP3    H117157   4.949   3.015   5.305
 5738TIP3    H217158   5.023   3.067   5.427
 5739TIP3   OH217159   3.925   4.653   3.584
 5739TIP3    H117160   4.000   4.655   3.524
 5739TIP3    H217161   3.963   4.629   3.669
 5740TIP3   OH217162   3.670   7.229   4.916
 5740TIP3    H117163   3.714   7.157   4.960
 5740TIP3    H217164   3.689   7.215   4.823
 5741TIP3   OH217165   7.300   2.733   5.160
 5741TIP3    H117166   7.395   2.725   5.167
 5741TIP3    H217167   7.266   2.650   5.194
 5742TIP3   OH217168   4.167   0.397   2.579
 5742TIP3    H117169   4.246   0.445   2.556
 5742TIP3    H217170   4.095   0.455   2.554
 5743TIP3   OH217171   0.343   5.140   5.231
 5743TIP3    H117172   0.332   5.180   5.318
 5743TIP3    H217173   0.338   5.214   5.170
 5744TIP3   OH217174   6.702   5.586   4.130
 5744TIP3    H117175   6.756   5.647   4.080
 5744TIP3    H217176   6.713   5.612   4.221
 5745TIP3   OH217177   2.477   2.732   5.978
 5745TIP3    H117178   2.564   2.717   6.015
 5745TIP3    H217179   2.470   2.827   5.970
 5746TIP3   OH217180   2.154   7.448   4.258
 5746TIP3    H117181   2.081   7.493   4.299
 5746TIP3    H217182   2.116   7.403   4.183
 5747TIP3   OH217183   5.550   7.260   5.281
 5747TIP3    H117184   5.496   7.263   5.202
 5747TIP3    H217185   5.491   7.229   5.349
 5748TIP3   OH217186   5.489   0.117   5.768
 5748TIP3    H117187   5.473   0.190   5.708
 5748TIP3    H217188   5.460   0.040   5.719
 5749TIP3   OH217189   7.431   2.616   0.573
 5749TIP3    H117190   7.350   2.658   0.603
 5749TIP3    H217191   7.435   2.534   0.622
 5750TIP3   OH217192   1.882   2.453   1.716
 5750TIP3    H117193   1.930   2.521   1.763
 5750TIP3    H217194   1.895   2.373   1.768
 5751TIP3   OH217195   3.376   6.617   0.183
 5751TIP3    H117196   3.454   6.565   0.163
 5751TIP3    H217197   3.311   6.553   0.212
 5752TIP3   OH217198   1.101   5.481   6.377
 5752TIP3    H117199   1.192   5.486   6.347
 5752TIP3    H217200   1.104   5.507   6.469
 5753TIP3   OH217201   4.474   2.007   0.176
 5753TIP3    H117202   4.396   2.052   0.144
 5753TIP3    H217203   4.494   1.943   0.107
 5754TIP3   OH217204   2.258   4.856   2.133
 5754TIP3    H117205   2.331   4.813   2.178
 5754TIP3    H217206   2.298   4.930   2.087
 5755TIP3   OH217207   7.352   6.831   6.002
 5755TIP3    H117208   7.299   6.855   6.078
 5755TIP3    H217209   7.422   6.777   6.037
 5756TIP3   OH217210   3.142   0.290   5.367
 5756TIP3    H117211   3.148   0.233   5.444
 5756TIP3    H217212   3.118   0.376   5.403
 5757TIP3   OH217213   6.766   0.403   2.397
 5757TIP3    H117214   6.804   0.315   2.397
 5757TIP3    H217215   6.713   0.406   2.478
 5758TIP3   OH217216   4.022   6.060   3.560
 5758TIP3    H117217   4.047   6.051   3.652
 5758TIP3    H217218   4.105   6.059   3.513
 5759TIP3   OH217219   2.415   2.873   6.558
 5759TIP3    H117220   2.450   2.849   6.472
 5759TIP3    H217221   2.469   2.825   6.620
 5760TIP3   OH217222   4.845   6.023   6.476
 5760TIP3    H117223   4.846   5.927   6.476
 5760TIP3    H217224   4.935   6.048   6.454
 5761TIP3   OH217225   8.154   6.162   3.607
 5761TIP3    H117226   8.141   6.256   3.621
 5761TIP3    H217227   8.226   6.139   3.666
 5762TIP3   OH217228   0.157   4.600   0.965
 5762TIP3    H117229   0.230   4.599   0.902
 5762TIP3    H217230   0.181   4.535   1.031
 5763TIP3   OH217231   0.571   1.864   5.684
 5763TIP3    H117232   0.652   1.894   5.643
 5763TIP3    H217233   0.589   1.870   5.778
 5764TIP3   OH217234   2.515   5.901   4.630
 5764TIP3    H117235   2.538   5.876   4.719
 5764TIP3    H217236   2.419   5.896   4.628
 5765TIP3   OH217237   0.807   7.613   3.927
 5765TIP3    H117238   0.854   7.575   3.853
 5765TIP3    H217239   0.761   7.688   3.891
 5766TIP3   OH217240   5.335   5.696   6.454
 5766TIP3    H117241   5.302   5.611   6.424
 5766TIP3    H217242   5.333   5.690   6.550
 5767TIP3   OH217243   7.365   0.282   0.978
 5767TIP3    H117244   7.394   0.195   1.006
 5767TIP3    H217245   7.357   0.276   0.883
 5768TIP3   OH217246   0.116   2.930   6.003
 5768TIP3    H117247   0.025   2.950   6.026
 5768TIP3    H217248   0.169   2.981   6.065
 5769TIP3   OH217249   3.627   5.975   1.963
 5769TIP3    H117250   3.537   5.945   1.974
 5769TIP3    H217251   3.666   5.911   1.903
 5770TIP3   OH217252   2.316   3.825   4.407
 5770TIP3    H117253   2.291   3.806   4.317
 5770TIP3    H217254   2.382   3.759   4.429
 5771TIP3   OH217255   3.236   0.384   3.413
 5771TIP3    H117256   3.145   0.415   3.420
 5771TIP3    H217257   3.280   0.453   3.363
 5772TIP3   OH217258   2.060   0.764   1.246
 5772TIP3    H117259   2.085   0.792   1.159
 5772TIP3    H217260   2.007   0.685   1.232
 5773TIP3   OH217261   5.811   3.160   3.475
 5773TIP3    H117262   5.885   3.215   3.501
 5773TIP3    H217263   5.755   3.156   3.552
 5774TIP3   OH217264   1.378   5.986   1.163
 5774TIP3    H117265   1.391   5.938   1.244
 5774TIP3    H217266   1.431   5.939   1.098
 5775TIP3   OH217267   6.373   2.676   4.349
 5775TIP3    H117268   6.309   2.729   4.395
 5775TIP3    H217269   6.380   2.716   4.262
 5776TIP3   OH217270   0.317   0.166   4.106
 5776TIP3    H117271   0.373   0.244   4.109
 5776TIP3    H217272   0.228   0.199   4.116
 5777TIP3   OH217273   4.271   3.805   5.437
 5777TIP3    H117274   4.240   3.847   5.517
 5777TIP3    H217275   4.194   3.800   5.381
 5778TIP3   OH217276   3.570   1.393   3.660
 5778TIP3    H117277   3.594   1.304   3.685
 5778TIP3    H217278   3.504   1.420   3.724
 5779TIP3   OH217279   6.667   5.856   5.351
 5779TIP3    H117280   6.759   5.843   5.327
 5779TIP3    H217281   6.645   5.780   5.404
 5780TIP3   OH217282   5.333   1.332   1.809
 5780TIP3    H117283   5.282   1.269   1.859
 5780TIP3    H217284   5.419   1.292   1.799
 5781TIP3   OH217285   4.369   6.348   2.823
 5781TIP3    H117286   4.303   6.407   2.860
 5781TIP3    H217287   4.437   6.344   2.889
 5782TIP3   OH217288   5.103   6.183   5.973
 5782TIP3    H117289   5.154   6.243   5.919
 5782TIP3    H217290   5.165   6.114   5.998
 5783TIP3   OH217291   7.798   0.082   3.474
 5783TIP3    H117292   7.807   0.167   3.517
 5783TIP3    H217293   7.725   0.040   3.518
 5784TIP3   OH217294   5.531   0.672  -0.029
 5784TIP3    H117295   5.492   0.605   0.028
 5784TIP3    H217296   5.462   0.694  -0.091
 5785TIP3   OH217297   3.677   6.433   3.421
 5785TIP3    H117298   3.601   6.486   3.396
 5785TIP3    H217299   3.752   6.481   3.385
 5786TIP3   OH217300   2.743   1.101   6.242
 5786TIP3    H117301   2.759   1.089   6.336
 5786TIP3    H217302   2.730   1.012   6.209
 5787TIP3   OH217303   5.953   6.325   2.388
 5787TIP3    H117304   5.892   6.263   2.428
 5787TIP3    H217305   5.932   6.323   2.295
 5788TIP3   OH217306   2.842   2.107   5.301
 5788TIP3    H117307   2.935   2.093   5.316
 5788TIP3    H217308   2.827   2.198   5.328
 5789TIP3   OH217309   6.610   6.511   1.930
 5789TIP3    H117310   6.595   6.512   2.024
 5789TIP3    H217311   6.555   6.439   1.898
 5790TIP3   OH217312   3.265   0.858   5.217
 5790TIP3    H117313   3.204   0.832   5.148
 5790TIP3    H217314   3.210   0.868   5.295
 5791TIP3   OH217315   7.290   2.555   3.426
 5791TIP3    H117316   7.309   2.467   3.394
 5791TIP3    H217317   7.322   2.613   3.356
 5792TIP3   OH217318   6.441   3.210   2.937
 5792TIP3    H117319   6.516   3.224   2.994
 5792TIP3    H217320   6.446   3.119   2.911
 5793TIP3   OH217321   4.120   3.637   3.217
 5793TIP3    H117322   4.031   3.669   3.198
 5793TIP3    H217323   4.107   3.561   3.273
 5794TIP3   OH217324   1.157   5.988   1.675
 5794TIP3    H117325   1.250   5.975   1.653
 5794TIP3    H217326   1.117   6.016   1.592
 5795TIP3   OH217327   4.690   0.289   3.801
 5795TIP3    H117328   4.701   0.376   3.763
 5795TIP3    H217329   4.699   0.229   3.727
 5796TIP3   OH217330   0.067   7.074   4.709
 5796TIP3    H117331   0.051   6.983   4.687
 5796TIP3    H217332   0.160   7.077   4.734
 5797TIP3   OH217333   4.950   3.205   1.843
 5797TIP3    H117334   5.015   3.135   1.832
 5797TIP3    H217335   4.963   3.236   1.932
 5798TIP3   OH217336   5.324   2.014   3.538
 5798TIP3    H117337   5.298   2.039   3.627
 5798TIP3    H217338   5.326   1.919   3.539
 5799TIP3   OH217339   0.895   1.164   4.209
 5799TIP3    H117340   0.960   1.097   4.229
 5799TIP3    H217341   0.869   1.199   4.295
 5800TIP3   OH217342   1.352   6.979   4.946
 5800TIP3    H117343   1.277   7.003   4.890
 5800TIP3    H217344   1.340   7.030   5.026
 5801TIP3   OH217345   0.413   6.509   3.331
 5801TIP3    H117346   0.388   6.422   3.361
 5801TIP3    H217347   0.419   6.562   3.411
 5802TIP3   OH217348   7.507   7.403   3.560
 5802TIP3    H117349   7.548   7.349   3.493
 5802TIP3    H217350   7.569   7.475   3.573
 5803TIP3   OH217351   5.163   4.734   0.920
 5803TIP3    H117352   5.087   4.677   0.909
 5803TIP3    H217353   5.133   4.804   0.977
 5804TIP3   OH217354   7.818   5.110   3.533
 5804TIP3    H117355   7.879   5.059   3.478
 5804TIP3    H217356   7.736   5.061   3.529
 5805TIP3   OH217357   1.142   3.189   4.853
 5805TIP3    H117358   1.104   3.233   4.929
 5805TIP3    H217359   1.077   3.201   4.784
 5806TIP3   OH217360   7.450   3.088   1.256
 5806TIP3    H117361   7.360   3.077   1.225
 5806TIP3    H217362   7.497   3.013   1.220
 5807TIP3   OH217363   4.754   2.323   6.624
 5807TIP3    H117364   4.814   2.259   6.661
 5807TIP3    H217365   4.710   2.277   6.553
 5808TIP3   OH217366   6.931   3.869   4.936
 5808TIP3    H117367   6.853   3.850   4.885
 5808TIP3    H217368   6.905   3.852   5.027
 5809TIP3   OH217369   2.445   3.047   2.318
 5809TIP3    H117370   2.350   3.036   2.314
 5809TIP3    H217371   2.464   3.062   2.410
 5810TIP3   OH217372   1.371   6.596   3.167
 5810TIP3    H117373   1.332   6.639   3.243
 5810TIP3    H217374   1.404   6.669   3.113
 5811TIP3   OH217375   7.335   6.771   1.335
 5811TIP3    H117376   7.317   6.705   1.402
 5811TIP3    H217377   7.325   6.724   1.252
 5812TIP3   OH217378   3.661   2.590   2.469
 5812TIP3    H117379   3.578   2.630   2.495
 5812TIP3    H217380   3.702   2.564   2.552
 5813TIP3   OH217381   3.197   3.277   3.475
 5813TIP3    H117382   3.224   3.195   3.436
 5813TIP3    H217383   3.213   3.343   3.407
 5814TIP3   OH217384   5.941   0.326   1.554
 5814TIP3    H117385   5.989   0.387   1.610
 5814TIP3    H217386   5.999   0.250   1.547
 5815TIP3   OH217387   7.778   5.912   6.431
 5815TIP3    H117388   7.778   5.929   6.526
 5815TIP3    H217389   7.808   5.821   6.424
 5816TIP3   OH217390   6.027   6.554   0.939
 5816TIP3    H117391   6.028   6.473   0.887
 5816TIP3    H217392   5.954   6.604   0.903
 5817TIP3   OH217393   7.459   5.908   4.111
 5817TIP3    H117394   7.534   5.920   4.053
 5817TIP3    H217395   7.398   5.978   4.087
 5818TIP3   OH217396   5.258   6.373   5.829
 5818TIP3    H117397   5.343   6.336   5.855
 5818TIP3    H217398   5.274   6.467   5.824
 5819TIP3   OH217399   4.198   4.824   4.689
 5819TIP3    H117400   4.157   4.776   4.616
 5819TIP3    H217401   4.278   4.861   4.652
 5820TIP3   OH217402   0.264   7.076   5.764
 5820TIP3    H117403   0.229   7.085   5.675
 5820TIP3    H217404   0.219   7.000   5.800
 5821TIP3   OH217405   4.239   1.644   1.373
 5821TIP3    H117406   4.333   1.664   1.373
 5821TIP3    H217407   4.211   1.663   1.463
 5822TIP3   OH217408   4.706   2.905   5.808
 5822TIP3    H117409   4.640   2.864   5.752
 5822TIP3    H217410   4.766   2.834   5.831
 5823TIP3   OH217411   1.793   0.532   0.258
 5823TIP3    H117412   1.754   0.535   0.171
 5823TIP3    H217413   1.855   0.605   0.260
 5824TIP3   OH217414   7.192   5.668   0.826
 5824TIP3    H117415   7.105   5.670   0.868
 5824TIP3    H217416   7.222   5.578   0.839
 5825TIP3   OH217417   4.805   5.286   0.024
 5825TIP3    H117418   4.747   5.245   0.088
 5825TIP3    H217419   4.773   5.256  -0.061
 5826TIP3   OH217420   5.168   4.542   2.309
 5826TIP3    H117421   5.140   4.507   2.225
 5826TIP3    H217422   5.146   4.474   2.372
 5827TIP3   OH217423   7.836   5.160   1.444
 5827TIP3    H117424   7.862   5.247   1.476
 5827TIP3    H217425   7.788   5.121   1.517
 5828TIP3   OH217426   5.737   1.486   1.883
 5828TIP3    H117427   5.688   1.404   1.875
 5828TIP3    H217428   5.698   1.544   1.818
 5829TIP3   OH217429   0.895   2.780   0.654
 5829TIP3    H117430   0.948   2.704   0.632
 5829TIP3    H217431   0.835   2.790   0.580
 5830TIP3   OH217432   7.359   7.402   2.565
 5830TIP3    H117433   7.273   7.367   2.585
 5830TIP3    H217434   7.384   7.361   2.482
 5831TIP3   OH217435   5.964   2.923   3.559
 5831TIP3    H117436   5.932   2.864   3.490
 5831TIP3    H217437   5.885   2.959   3.599
 5832TIP3   OH217438   1.643   6.416   0.372
 5832TIP3    H117439   1.641   6.499   0.419
 5832TIP3    H217440   1.724   6.374   0.400
 5833TIP3   OH217441   2.646   1.586   5.307
 5833TIP3    H117442   2.668   1.642   5.233
 5833TIP3    H217443   2.618   1.647   5.375
 5834TIP3   OH217444   0.358   6.332   4.907
 5834TIP3    H117445   0.307   6.277   4.967
 5834TIP3    H217446   0.426   6.371   4.962
 5835TIP3   OH217447   2.693   2.936   0.241
 5835TIP3    H117448   2.625   3.000   0.261
 5835TIP3    H217449   2.756   2.983   0.187
 5836TIP3   OH217450   0.380   0.943   0.202
 5836TIP3    H117451   0.325   0.866   0.210
 5836TIP3    H217452   0.338   1.008   0.259
 5837TIP3   OH217453   0.015   2.101   2.924
 5837TIP3    H117454  -0.062   2.052   2.953
 5837TIP3    H217455   0.035   2.159   2.998
 5838TIP3   OH217456   6.156   0.957   0.599
 5838TIP3    H117457   6.169   1.046   0.566
 5838TIP3    H217458   6.191   0.900   0.531
 5839TIP3   OH217459   3.852   7.508   3.143
 5839TIP3    H117460   3.819   7.543   3.061
 5839TIP3    H217461   3.875   7.417   3.123
 5840TIP3   OH217462   3.877   7.654   2.452
 5840TIP3    H117463   3.900   7.741   2.486
 5840TIP3    H217464   3.857   7.603   2.530
 5841TIP3   OH217465   5.444   3.977   5.068
 5841TIP3    H117466   5.503   3.914   5.025
 5841TIP3    H217467   5.381   4.000   5.000
 5842TIP3   OH217468   2.622   3.894   2.561
 5842TIP3    H117469   2.677   3.819   2.539
 5842TIP3    H217470   2.652   3.963   2.503
 5843TIP3   OH217471   0.057   2.816   0.876
 5843TIP3    H117472  -0.037   2.829   0.888
 5843TIP3    H217473   0.093   2.819   0.965
 5844TIP3   OH217474   3.735   0.684   0.094
 5844TIP3    H117475   3.682   0.686   0.014
 5844TIP3    H217476   3.732   0.593   0.122
 5845TIP3   OH217477   0.687   0.984   5.310
 5845TIP3    H117478   0.658   0.898   5.279
 5845TIP3    H217479   0.757   0.964   5.373
 5846TIP3   OH217480   2.065   2.785   0.018
 5846TIP3    H117481   1.985   2.732   0.019
 5846TIP3    H217482   2.064   2.832   0.101
 5847TIP3   OH217483   0.925   0.253   0.613
 5847TIP3    H117484   0.847   0.204   0.639
 5847TIP3    H217485   0.933   0.322   0.679
 5848TIP3   OH217486   4.200   2.949   3.361
 5848TIP3    H117487   4.131   2.944   3.426
 5848TIP3    H217488   4.174   3.022   3.303
 5849TIP3   OH217489   0.094   0.680   6.129
 5849TIP3    H117490   0.032   0.703   6.197
 5849TIP3    H217491   0.040   0.658   6.053
 5850TIP3   OH217492   5.721   7.564   5.846
 5850TIP3    H117493   5.659   7.565   5.918
 5850TIP3    H217494   5.689   7.495   5.788
 5851TIP3   OH217495   1.778   3.910   6.757
 5851TIP3    H117496   1.842   3.942   6.694
 5851TIP3    H217497   1.759   3.986   6.812
 5852TIP3   OH217498   3.276   1.826   1.668
 5852TIP3    H117499   3.218   1.750   1.675
 5852TIP3    H217500   3.315   1.834   1.754
 5853TIP3   OH217501   1.864   3.519   5.416
 5853TIP3    H117502   1.818   3.437   5.434
 5853TIP3    H217503   1.931   3.495   5.352
 5854TIP3   OH217504   1.278   5.249   1.637
 5854TIP3    H117505   1.343   5.310   1.603
 5854TIP3    H217506   1.327   5.193   1.697
 5855TIP3   OH217507   2.207   0.421   1.443
 5855TIP3    H117508   2.281   0.362   1.433
 5855TIP3    H217509   2.130   0.364   1.441
 5856TIP3   OH217510   3.496   1.009   4.090
 5856TIP3    H117511   3.434   1.082   4.091
 5856TIP3    H217512   3.564   1.036   4.028
 5857TIP3   OH217513   7.602   3.515   0.563
 5857TIP3    H117514   7.654   3.595   0.573
 5857TIP3    H217515   7.574   3.494   0.651
 5858TIP3   OH217516   2.997   6.425   4.057
 5858TIP3    H117517   3.035   6.352   4.105
 5858TIP3    H217518   3.071   6.475   4.025
 5859TIP3   OH217519   0.198   0.197   4.479
 5859TIP3    H117520   0.230   0.145   4.405
 5859TIP3    H217521   0.178   0.283   4.441
 5860TIP3   OH217522   8.085   1.858   6.177
 5860TIP3    H117523   8.043   1.909   6.247
 5860TIP3    H217524   8.012   1.829   6.122
 5861TIP3   OH217525   8.329   3.015   3.872
 5861TIP3    H117526   8.248   3.055   3.840
 5861TIP3    H217527   8.314   3.004   3.966
 5862TIP3   OH217528   2.788   4.612   1.406
 5862TIP3    H117529   2.882   4.621   1.395
 5862TIP3    H217530   2.754   4.594   1.318
 5863TIP3   OH217531   5.813   3.573   5.355
 5863TIP3    H117532   5.867   3.604   5.428
 5863TIP3    H217533   5.810   3.478   5.366
 5864TIP3   OH217534   3.710   4.195   4.365
 5864TIP3    H117535   3.684   4.248   4.441
 5864TIP3    H217536   3.776   4.135   4.399
 5865TIP3   OH217537   4.830   2.192   2.109
 5865TIP3    H117538   4.748   2.233   2.081
 5865TIP3    H217539   4.883   2.264   2.141
 5866TIP3   OH217540   7.493   3.588   0.213
 5866TIP3    H117541   7.510   3.657   0.149
 5866TIP3    H217542   7.562   3.524   0.197
 5867TIP3   OH217543   0.396   7.092   2.597
 5867TIP3    H117544   0.484   7.094   2.559
 5867TIP3    H217545   0.391   7.008   2.642
 5868TIP3   OH217546   6.141   6.534   5.778
 5868TIP3    H117547   6.230   6.567   5.769
 5868TIP3    H217548   6.126   6.483   5.698
 5869TIP3   OH217549   4.141   6.170   4.857
 5869TIP3    H117550   4.213   6.233   4.854
 5869TIP3    H217551   4.171   6.097   4.802
 5870TIP3   OH217552   6.452   3.488   3.740
 5870TIP3    H117553   6.459   3.440   3.657
 5870TIP3    H217554   6.430   3.577   3.714
 5871TIP3   OH217555   6.676   0.706   4.370
 5871TIP3    H117556   6.664   0.792   4.411
 5871TIP3    H217557   6.644   0.717   4.281
 5872TIP3   OH217558   1.174   4.942   4.843
 5872TIP3    H117559   1.177   4.883   4.767
 5872TIP3    H217560   1.080   4.959   4.855
 5873TIP3   OH217561   5.678   3.608   0.710
 5873TIP3    H117562   5.650   3.668   0.779
 5873TIP3    H217563   5.773   3.615   0.709
 5874TIP3   OH217564   8.006   4.571   6.632
 5874TIP3    H117565   7.931   4.627   6.612
 5874TIP3    H217566   8.029   4.531   6.548
 5875TIP3   OH217567   5.005   5.905   4.776
 5875TIP3    H117568   4.912   5.894   4.757
 5875TIP3    H217569   5.050   5.852   4.711
 5876TIP3   OH217570   6.827   7.191   1.238
 5876TIP3    H117571   6.803   7.244   1.162
 5876TIP3    H217572   6.889   7.127   1.204
 5877TIP3   OH217573   7.151   7.697   6.419
 5877TIP3    H117574   7.116   7.612   6.390
 5877TIP3    H217575   7.162   7.747   6.338
 5878TIP3   OH217576   5.996   6.404   4.710
 5878TIP3    H117577   6.018   6.315   4.683
 5878TIP3    H217578   5.915   6.394   4.761
 5879TIP3   OH217579   1.952   4.010   2.403
 5879TIP3    H117580   1.863   3.980   2.420
 5879TIP3    H217581   1.957   4.017   2.308
 5880TIP3   OH217582   2.913   2.691   4.307
 5880TIP3    H117583   2.975   2.630   4.348
 5880TIP3    H217584   2.917   2.670   4.213
 5881TIP3   OH217585   3.344   6.796   0.405
 5881TIP3    H117586   3.314   6.731   0.342
 5881TIP3    H217587   3.431   6.820   0.375
 5882TIP3   OH217588   4.074   6.494   3.842
 5882TIP3    H117589   4.049   6.512   3.751
 5882TIP3    H217590   3.992   6.483   3.889
 5883TIP3   OH217591   2.684   7.291   4.807
 5883TIP3    H117592   2.706   7.199   4.789
 5883TIP3    H217593   2.694   7.300   4.901
 5884TIP3   OH217594   4.836   6.089   3.668
 5884TIP3    H117595   4.862   6.001   3.694
 5884TIP3    H217596   4.887   6.106   3.589
 5885TIP3   OH217597   4.237   2.154   1.654
 5885TIP3    H117598   4.328   2.167   1.681
 5885TIP3    H217599   4.187   2.158   1.736
 5886TIP3   OH217600   2.047   0.083   6.060
 5886TIP3    H117601   1.982   0.111   6.126
 5886TIP3    H217602   2.129   0.123   6.089
 5887TIP3   OH217603   2.299   5.654   4.500
 5887TIP3    H117604   2.299   5.727   4.563
 5887TIP3    H217605   2.249   5.585   4.543
 5888TIP3   OH217606   0.750   2.531   2.177
 5888TIP3    H117607   0.666   2.544   2.133
 5888TIP3    H217608   0.772   2.440   2.157
 5889TIP3   OH217609   2.721   1.437   3.787
 5889TIP3    H117610   2.711   1.410   3.878
 5889TIP3    H217611   2.774   1.369   3.747
 5890TIP3   OH217612   4.661   6.399   3.578
 5890TIP3    H117613   4.641   6.427   3.489
 5890TIP3    H217614   4.724   6.328   3.567
 5891TIP3   OH217615   5.054   0.525   0.724
 5891TIP3    H117616   4.989   0.535   0.793
 5891TIP3    H217617   5.125   0.584   0.749
 5892TIP3   OH217618   7.965   3.205   4.705
 5892TIP3    H117619   7.884   3.246   4.734
 5892TIP3    H217620   8.011   3.272   4.656
 5893TIP3   OH217621   1.546   6.693   4.377
 5893TIP3    H117622   1.616   6.643   4.419
 5893TIP3    H217623   1.503   6.631   4.318
 5894TIP3   OH217624   7.324   5.707   6.089
 5894TIP3    H117625   7.318   5.708   5.993
 5894TIP3    H217626   7.301   5.796   6.115
 5895TIP3   OH217627   1.570   3.245   1.939
 5895TIP3    H117628   1.599   3.191   2.012
 5895TIP3    H217629   1.644   3.301   1.919
 5896TIP3   OH217630   3.480   1.684   1.464
 5896TIP3    H117631   3.433   1.718   1.540
 5896TIP3    H217632   3.566   1.727   1.467
 5897TIP3   OH217633   1.604   2.477   3.655
 5897TIP3    H117634   1.653   2.473   3.573
 5897TIP3    H217635   1.549   2.555   3.646
 5898TIP3   OH217636   6.700   4.591   5.218
 5898TIP3    H117637   6.762   4.565   5.286
 5898TIP3    H217638   6.726   4.540   5.141
 5899TIP3   OH217639   7.092   1.846   1.049
 5899TIP3    H117640   7.020   1.872   1.106
 5899TIP3    H217641   7.102   1.752   1.064
 5900TIP3   OH217642   2.850   6.404   5.313
 5900TIP3    H117643   2.843   6.499   5.321
 5900TIP3    H217644   2.852   6.388   5.219
 5901TIP3   OH217645   8.112   2.860   0.597
 5901TIP3    H117646   8.126   2.887   0.688
 5901TIP3    H217647   8.083   2.769   0.603
 5902TIP3   OH217648   6.344   0.861   4.430
 5902TIP3    H117649   6.281   0.820   4.489
 5902TIP3    H217650   6.372   0.791   4.372
 5903TIP3   OH217651   5.080   1.076   4.187
 5903TIP3    H117652   5.017   1.146   4.202
 5903TIP3    H217653   5.042   1.024   4.116
 5904TIP3   OH217654   0.418   3.605   1.665
 5904TIP3    H117655   0.478   3.639   1.731
 5904TIP3    H217656   0.438   3.655   1.586
 5905TIP3   OH217657   6.970   5.734   6.693
 5905TIP3    H117658   7.066   5.725   6.694
 5905TIP3    H217659   6.955   5.819   6.651
 5906TIP3   OH217660   3.421   5.318   6.462
 5906TIP3    H117661   3.442   5.225   6.459
 5906TIP3    H217662   3.496   5.361   6.420
 5907TIP3   OH217663   4.515   1.607   2.329
 5907TIP3    H117664   4.503   1.688   2.378
 5907TIP3    H217665   4.426   1.582   2.303
 5908TIP3   OH217666   4.450   2.226   4.793
 5908TIP3    H117667   4.491   2.208   4.709
 5908TIP3    H217668   4.514   2.197   4.858
 5909TIP3   OH217669   4.501   5.804   5.974
 5909TIP3    H117670   4.557   5.876   5.946
 5909TIP3    H217671   4.448   5.841   6.045
 5910TIP3   OH217672   2.197   0.303   1.164
 5910TIP3    H117673   2.175   0.332   1.076
 5910TIP3    H217674   2.287   0.270   1.157
 5911TIP3   OH217675   0.693   5.902   5.703
 5911TIP3    H117676   0.667   5.902   5.611
 5911TIP3    H217677   0.784   5.871   5.702
 5912TIP3   OH217678   4.746   0.801   4.366
 5912TIP3    H117679   4.675   0.739   4.379
 5912TIP3    H217680   4.727   0.872   4.428
 5913TIP3   OH217681   5.514   2.844   1.380
 5913TIP3    H117682   5.484   2.802   1.299
 5913TIP3    H217683   5.562   2.775   1.426
 5914TIP3   OH217684  -0.019   6.396   3.346
 5914TIP3    H117685   0.031   6.429   3.420
 5914TIP3    H217686   0.042   6.399   3.273
 5915TIP3   OH217687   2.812   7.100   1.207
 5915TIP3    H117688   2.901   7.091   1.173
 5915TIP3    H217689   2.783   7.010   1.222
 5916TIP3   OH217690   0.958   1.698   0.893
 5916TIP3    H117691   1.007   1.712   0.974
 5916TIP3    H217692   1.023   1.708   0.824
 5917TIP3   OH217693   4.209   6.249   3.857
 5917TIP3    H117694   4.250   6.254   3.771
 5917TIP3    H217695   4.184   6.339   3.877
 5918TIP3   OH217696   1.815   2.325   1.049
 5918TIP3    H117697   1.806   2.230   1.057
 5918TIP3    H217698   1.908   2.342   1.063
 5919TIP3   OH217699   2.716   7.291   1.057
 5919TIP3    H117700   2.762   7.232   1.117
 5919TIP3    H217701   2.660   7.344   1.115
 5920TIP3   OH217702   4.463   3.080   0.831
 5920TIP3    H117703   4.558   3.075   0.839
 5920TIP3    H217704   4.446   3.063   0.738
 5921TIP3   OH217705   0.439   6.113   5.534
 5921TIP3    H117706   0.477   6.201   5.542
 5921TIP3    H217707   0.504   6.062   5.487
 5922TIP3   OH217708   7.433   2.329   2.912
 5922TIP3    H117709   7.528   2.317   2.916
 5922TIP3    H217710   7.420   2.392   2.840
 5923TIP3   OH217711   5.730   6.932   1.160
 5923TIP3    H117712   5.753   6.959   1.249
 5923TIP3    H217713   5.756   6.840   1.155
 5924TIP3   OH217714   1.720   5.653   2.083
 5924TIP3    H117715   1.769   5.613   2.155
 5924TIP3    H217716   1.670   5.724   2.125
 5925TIP3   OH217717   4.533   3.858   1.305
 5925TIP3    H117718   4.475   3.842   1.231
 5925TIP3    H217719   4.554   3.770   1.338
 5926TIP3   OH217720   4.700   7.318   4.000
 5926TIP3    H117721   4.649   7.249   4.040
 5926TIP3    H217722   4.791   7.297   4.021
 5927TIP3   OH217723   0.049   3.319   1.183
 5927TIP3    H117724   0.042   3.299   1.090
 5927TIP3    H217725   0.097   3.245   1.220
 5928TIP3   OH217726   7.951   0.757   4.091
 5928TIP3    H117727   8.027   0.702   4.107
 5928TIP3    H217728   7.936   0.751   3.997
 5929TIP3   OH217729   0.893   0.396   5.662
 5929TIP3    H117730   0.850   0.337   5.600
 5929TIP3    H217731   0.930   0.339   5.729
 5930TIP3   OH217732   5.979   2.946   2.003
 5930TIP3    H117733   6.039   2.901   1.944
 5930TIP3    H217734   5.910   2.882   2.021
 5931TIP3   OH217735   2.710   1.601   0.711
 5931TIP3    H117736   2.663   1.585   0.792
 5931TIP3    H217737   2.653   1.660   0.661
 5932TIP3   OH217738   0.975   1.310   4.507
 5932TIP3    H117739   1.048   1.255   4.479
 5932TIP3    H217740   0.988   1.392   4.460
 5933TIP3   OH217741   4.501   3.925   4.541
 5933TIP3    H117742   4.524   3.851   4.485
 5933TIP3    H217743   4.440   3.888   4.606
 5934TIP3   OH217744   5.586   4.188   6.301
 5934TIP3    H117745   5.563   4.103   6.336
 5934TIP3    H217746   5.502   4.232   6.287
 5935TIP3   OH217747   0.230   0.896   4.704
 5935TIP3    H117748   0.273   0.930   4.626
 5935TIP3    H217749   0.143   0.935   4.703
 5936TIP3   OH217750   3.524   4.866   3.744
 5936TIP3    H117751   3.536   4.889   3.651
 5936TIP3    H217752   3.535   4.948   3.790
 5937TIP3   OH217753   0.960   0.055   1.555
 5937TIP3    H117754   0.942   0.141   1.518
 5937TIP3    H217755   1.024   0.072   1.625
 5938TIP3   OH217756   6.606   1.638   5.290
 5938TIP3    H117757   6.612   1.613   5.382
 5938TIP3    H217758   6.601   1.554   5.243
 5939TIP3   OH217759   0.652   7.685   3.641
 5939TIP3    H117760   0.592   7.717   3.708
 5939TIP3    H217761   0.725   7.747   3.642
 5940TIP3   OH217762   3.351   6.303   6.097
 5940TIP3    H117763   3.390   6.333   6.179
 5940TIP3    H217764   3.258   6.326   6.105
 5941TIP3   OH217765   7.623   7.301   3.171
 5941TIP3    H117766   7.670   7.375   3.210
 5941TIP3    H217767   7.542   7.339   3.137
 5942TIP3   OH217768   3.724   1.359   2.508
 5942TIP3    H117769   3.698   1.299   2.578
 5942TIP3    H217770   3.741   1.302   2.433
 5943TIP3   OH217771   4.415   2.483   5.184
 5943TIP3    H117772   4.344   2.534   5.223
 5943TIP3    H217773   4.456   2.541   5.120
 5944TIP3   OH217774   0.965   1.855   4.879
 5944TIP3    H117775   0.932   1.847   4.789
 5944TIP3    H217776   1.058   1.834   4.872
 5945TIP3   OH217777   0.315   2.007   3.328
 5945TIP3    H117778   0.323   2.017   3.233
 5945TIP3    H217779   0.278   2.090   3.358
 5946TIP3   OH217780   2.425   2.366   0.968
 5946TIP3    H117781   2.408   2.303   0.898
 5946TIP3    H217782   2.472   2.438   0.926
 5947TIP3   OH217783   3.411   5.947   0.631
 5947TIP3    H117784   3.387   5.966   0.722
 5947TIP3    H217785   3.473   6.017   0.608
 5948TIP3   OH217786   6.769   7.606   6.611
 5948TIP3    H117787   6.684   7.647   6.597
 5948TIP3    H217788   6.778   7.600   6.706
 5949TIP3   OH217789   3.269   5.553   2.107
 5949TIP3    H117790   3.242   5.614   2.038
 5949TIP3    H217791   3.255   5.601   2.189
 5950TIP3   OH217792   0.308   4.505   2.607
 5950TIP3    H117793   0.244   4.537   2.543
 5950TIP3    H217794   0.254   4.475   2.681
 5951TIP3   OH217795   6.401   1.155   3.281
 5951TIP3    H117796   6.387   1.116   3.194
 5951TIP3    H217797   6.457   1.092   3.326
 5952TIP3   OH217798   4.395   4.951   3.912
 5952TIP3    H117799   4.318   4.895   3.905
 5952TIP3    H217800   4.468   4.894   3.886
 5953TIP3   OH217801   7.353   5.166   0.450
 5953TIP3    H117802   7.292   5.200   0.385
 5953TIP3    H217803   7.408   5.104   0.401
 5954TIP3   OH217804   3.341   6.733   1.402
 5954TIP3    H117805   3.405   6.792   1.363
 5954TIP3    H217806   3.294   6.787   1.466
 5955TIP3   OH217807   6.279   6.827   2.008
 5955TIP3    H117808   6.273   6.918   1.980
 5955TIP3    H217809   6.261   6.776   1.929
 5956TIP3   OH217810   4.095   5.491   1.877
 5956TIP3    H117811   4.111   5.495   1.972
 5956TIP3    H217812   4.034   5.418   1.865
 5957TIP3   OH217813   6.467   5.428   4.096
 5957TIP3    H117814   6.560   5.450   4.101
 5957TIP3    H217815   6.457   5.351   4.152
 5958TIP3   OH217816   0.032   3.296   3.524
 5958TIP3    H117817   0.085   3.288   3.444
 5958TIP3    H217818  -0.058   3.283   3.494
 5959TIP3   OH217819   5.216   6.002   0.712
 5959TIP3    H117820   5.162   6.040   0.781
 5959TIP3    H217821   5.215   5.908   0.729
 5960TIP3   OH217822   2.758   6.735   4.401
 5960TIP3    H117823   2.823   6.802   4.418
 5960TIP3    H217824   2.803   6.672   4.345
 5961TIP3   OH217825   5.788   2.335   4.248
 5961TIP3    H117826   5.718   2.325   4.313
 5961TIP3    H217827   5.867   2.351   4.300
 5962TIP3   OH217828   2.792   4.280   0.681
 5962TIP3    H117829   2.800   4.375   0.692
 5962TIP3    H217830   2.875   4.253   0.642
 5963TIP3   OH217831   1.048   1.410   2.603
 5963TIP3    H117832   1.105   1.412   2.526
 5963TIP3    H217833   0.959   1.410   2.567
 5964TIP3   OH217834   2.295   2.091   6.053
 5964TIP3    H117835   2.306   2.070   6.146
 5964TIP3    H217836   2.378   2.067   6.013
 5965TIP3   OH217837   0.498   6.982   1.375
 5965TIP3    H117838   0.458   7.066   1.353
 5965TIP3    H217839   0.429   6.934   1.421
 5966TIP3   OH217840   2.746   5.291   0.881
 5966TIP3    H117841   2.805   5.318   0.810
 5966TIP3    H217842   2.770   5.200   0.897
 5967TIP3   OH217843   4.896   6.010   2.913
 5967TIP3    H117844   4.820   6.035   2.861
 5967TIP3    H217845   4.879   5.919   2.937
 5968TIP3   OH217846   4.689   5.917   1.081
 5968TIP3    H117847   4.733   5.833   1.065
 5968TIP3    H217848   4.603   5.908   1.041
 5969TIP3   OH217849   3.635   5.747   5.979
 5969TIP3    H117850   3.712   5.703   5.943
 5969TIP3    H217851   3.670   5.807   6.045
 5970TIP3   OH217852   0.976   5.401   3.360
 5970TIP3    H117853   0.899   5.347   3.341
 5970TIP3    H217854   0.959   5.484   3.313
 5971TIP3   OH217855   7.790   5.462   1.906
 5971TIP3    H117856   7.770   5.411   1.985
 5971TIP3    H217857   7.705   5.490   1.873
 5972TIP3   OH217858   2.668   1.043   3.056
 5972TIP3    H117859   2.606   1.009   2.990
 5972TIP3    H217860   2.612   1.087   3.120
 5973TIP3   OH217861   2.860   6.204   6.533
 5973TIP3    H117862   2.937   6.218   6.477
 5973TIP3    H217863   2.786   6.206   6.473
 5974TIP3   OH217864   3.183   2.451   1.433
 5974TIP3    H117865   3.275   2.477   1.427
 5974TIP3    H217866   3.168   2.402   1.353
 5975TIP3   OH217867   4.670   6.286   4.317
 5975TIP3    H117868   4.671   6.302   4.223
 5975TIP3    H217869   4.619   6.358   4.353
 5976TIP3   OH217870   1.450   5.850   3.288
 5976TIP3    H117871   1.522   5.893   3.335
 5976TIP3    H217872   1.432   5.909   3.215
 5977TIP3   OH217873   6.193   5.006   6.449
 5977TIP3    H117874   6.190   4.920   6.406
 5977TIP3    H217875   6.123   5.003   6.514
 5978TIP3   OH217876   6.984   4.313   1.690
 5978TIP3    H117877   6.924   4.246   1.722
 5978TIP3    H217878   7.060   4.263   1.658
 5979TIP3   OH217879   0.485   5.868   0.926
 5979TIP3    H117880   0.426   5.879   0.852
 5979TIP3    H217881   0.465   5.941   0.985
 5980TIP3   OH217882   4.384   4.463   2.108
 5980TIP3    H117883   4.338   4.379   2.108
 5980TIP3    H217884   4.476   4.440   2.092
 5981TIP3   OH217885   3.572   1.001   5.292
 5981TIP3    H117886   3.509   1.074   5.288
 5981TIP3    H217887   3.633   1.026   5.361
 5982TIP3   OH217888   1.027   0.138   5.727
 5982TIP3    H117889   1.029   0.045   5.751
 5982TIP3    H217890   1.068   0.142   5.641
 5983TIP3   OH217891   2.067   3.234   4.507
 5983TIP3    H117892   2.158   3.212   4.487
 5983TIP3    H217893   2.073   3.314   4.559
 5984TIP3   OH217894   4.199   7.513   5.969
 5984TIP3    H117895   4.265   7.482   6.031
 5984TIP3    H217896   4.170   7.597   6.005
 5985TIP3   OH217897   1.016   4.575   6.281
 5985TIP3    H117898   1.031   4.486   6.313
 5985TIP3    H217899   0.984   4.562   6.191
 5986TIP3   OH217900   4.456   0.097   5.437
 5986TIP3    H117901   4.526   0.138   5.386
 5986TIP3    H217902   4.385   0.082   5.375
 5987TIP3   OH217903   3.239   7.015   5.620
 5987TIP3    H117904   3.308   7.022   5.553
 5987TIP3    H217905   3.227   6.921   5.632
 5988TIP3   OH217906   5.176   3.279   2.335
 5988TIP3    H117907   5.126   3.211   2.381
 5988TIP3    H217908   5.161   3.359   2.386
 5989TIP3   OH217909   5.984   7.671   2.965
 5989TIP3    H117910   5.889   7.661   2.960
 5989TIP3    H217911   6.018   7.586   2.940
 5990TIP3   OH217912   7.547   1.770   2.660
 5990TIP3    H117913   7.547   1.781   2.565
 5990TIP3    H217914   7.454   1.777   2.684
 5991TIP3   OH217915   3.406   2.219   6.473
 5991TIP3    H117916   3.440   2.287   6.415
 5991TIP3    H217917   3.469   2.148   6.466
 5992TIP3   OH217918   3.782   4.802   2.244
 5992TIP3    H117919   3.720   4.729   2.241
 5992TIP3    H217920   3.794   4.819   2.337
 5993TIP3   OH217921   7.531   1.910   1.791
 5993TIP3    H117922   7.529   1.993   1.744
 5993TIP3    H217923   7.440   1.893   1.814
 5994TIP3   OH217924   0.469   6.868   5.423
 5994TIP3    H117925   0.467   6.963   5.413
 5994TIP3    H217926   0.378   6.840   5.409
 5995TIP3   OH217927   3.500   2.821   4.790
 5995TIP3    H117928   3.555   2.833   4.712
 5995TIP3    H217929   3.532   2.887   4.852
 5996TIP3   OH217930   0.873   7.224   6.575
 5996TIP3    H117931   0.798   7.251   6.522
 5996TIP3    H217932   0.926   7.304   6.583
 5997TIP3   OH217933   2.781   2.994   2.171
 5997TIP3    H117934   2.834   2.951   2.238
 5997TIP3    H217935   2.767   2.926   2.104
 5998TIP3   OH217936   8.232   2.122   4.732
 5998TIP3    H117937   8.274   2.140   4.648
 5998TIP3    H217938   8.168   2.192   4.743
 5999TIP3   OH217939   6.340   4.190   5.691
 5999TIP3    H117940   6.296   4.113   5.727
 5999TIP3    H217941   6.374   4.235   5.768
 6000TIP3   OH217942   5.719   4.287   2.372
 6000TIP3    H117943   5.778   4.237   2.428
 6000TIP3    H217944   5.761   4.373   2.365
 6001TIP3   OH217945   3.575   2.399   4.271
 6001TIP3    H117946   3.569   2.370   4.362
 6001TIP3    H217947   3.509   2.347   4.225
 6002TIP3   OH217948   0.603   5.739   5.261
 6002TIP3    H117949   0.672   5.795   5.224
 6002TIP3    H217950   0.641   5.651   5.260
 6003TIP3   OH217951   2.875   3.871   0.343
 6003TIP3    H117952   2.856   3.927   0.267
 6003TIP3    H217953   2.812   3.800   0.336
 6004TIP3   OH217954   6.862   3.294   2.088
 6004TIP3    H117955   6.859   3.281   1.994
 6004TIP3    H217956   6.903   3.379   2.100
 6005TIP3   OH217957   0.985   4.720   3.904
 6005TIP3    H117958   1.018   4.798   3.949
 6005TIP3    H217959   1.061   4.684   3.859
 6006TIP3   OH217960   1.272   2.161   1.810
 6006TIP3    H117961   1.358   2.127   1.784
 6006TIP3    H217962   1.269   2.248   1.771
 6007TIP3   OH217963   3.832   2.877   6.660
 6007TIP3    H117964   3.861   2.927   6.584
 6007TIP3    H217965   3.737   2.867   6.646
 6008TIP3   OH217966   5.745   2.506   3.820
 6008TIP3    H117967   5.670   2.565   3.812
 6008TIP3    H217968   5.806   2.536   3.753
 6009TIP3   OH217969   5.814   0.424   3.882
 6009TIP3    H117970   5.816   0.337   3.843
 6009TIP3    H217971   5.822   0.484   3.808
 6010TIP3   OH217972   5.622   3.281   2.586
 6010TIP3    H117973   5.654   3.227   2.514
 6010TIP3    H217974   5.696   3.287   2.646
 6011TIP3   OH217975   1.152   4.207   0.776
 6011TIP3    H117976   1.131   4.115   0.760
 6011TIP3    H217977   1.175   4.241   0.689
 6012TIP3   OH217978   1.951   0.034   4.918
 6012TIP3    H117979   1.992   0.100   4.973
 6012TIP3    H217980   1.860   0.061   4.911
 6013TIP3   OH217981   0.239   3.229   6.701
 6013TIP3    H117982   0.273   3.280   6.628
 6013TIP3    H217983   0.224   3.294   6.770
 6014TIP3   OH217984   2.348   0.759   5.978
 6014TIP3    H117985   2.349   0.712   5.894
 6014TIP3    H217986   2.387   0.697   6.040
 6015TIP3   OH217987   6.716   1.840   3.045
 6015TIP3    H117988   6.659   1.915   3.064
 6015TIP3    H217989   6.780   1.840   3.116
 6016TIP3   OH217990   1.217   7.565   3.482
 6016TIP3    H117991   1.177   7.548   3.396
 6016TIP3    H217992   1.220   7.660   3.488
 6017TIP3   OH217993   5.535   0.161   1.447
 6017TIP3    H117994   5.559   0.084   1.498
 6017TIP3    H217995   5.472   0.129   1.383
 6018TIP3   OH217996   0.044   3.363   5.600
 6018TIP3    H117997  -0.043   3.368   5.641
 6018TIP3    H217998   0.098   3.425   5.649
 6019TIP3   OH217999   4.455   1.849   3.378
 6019TIP3    H118000   4.373   1.845   3.330
 6019TIP3    H218001   4.452   1.932   3.425
 6020TIP3   OH218002   1.516   4.779   2.573
 6020TIP3    H118003   1.510   4.683   2.572
 6020TIP3    H218004   1.431   4.808   2.607
 6021TIP3   OH218005   3.476   4.514   5.114
 6021TIP3    H118006   3.552   4.499   5.170
 6021TIP3    H218007   3.495   4.598   5.071
 6022TIP3   OH218008   5.743   5.136   5.095
 6022TIP3    H118009   5.701   5.050   5.086
 6022TIP3    H218010   5.698   5.177   5.168
 6023TIP3   OH218011   6.231   4.463   2.412
 6023TIP3    H118012   6.149   4.436   2.453
 6023TIP3    H218013   6.253   4.545   2.454
 6024TIP3   OH218014   8.062   3.535   4.094
 6024TIP3    H118015   7.994   3.583   4.045
 6024TIP3    H218016   8.026   3.447   4.105
 6025TIP3   OH218017   2.395   4.726   2.801
 6025TIP3    H118018   2.380   4.637   2.832
 6025TIP3    H218019   2.327   4.778   2.846
 6026TIP3   OH218020   4.747   7.138   5.167
 6026TIP3    H118021   4.659   7.103   5.177
 6026TIP3    H218022   4.793   7.109   5.246
 6027TIP3   OH218023   2.273   6.756   4.444
 6027TIP3    H118024   2.270   6.667   4.479
 6027TIP3    H218025   2.312   6.746   4.357
 6028TIP3   OH218026   6.313   7.709   1.436
 6028TIP3    H118027   6.357   7.644   1.382
 6028TIP3    H218028   6.384   7.764   1.469
 6029TIP3   OH218029   6.003   3.812   3.277
 6029TIP3    H118030   6.071   3.750   3.303
 6029TIP3    H218031   6.034   3.848   3.194
 6030TIP3   OH218032   3.423   4.623   6.231
 6030TIP3    H118033   3.507   4.669   6.241
 6030TIP3    H218034   3.435   4.541   6.279
 6031TIP3   OH218035   5.024   6.706   5.779
 6031TIP3    H118036   4.975   6.714   5.861
 6031TIP3    H218037   4.981   6.635   5.732
 6032TIP3   OH218038   5.966   0.908   0.915
 6032TIP3    H118039   5.993   0.992   0.952
 6032TIP3    H218040   6.041   0.880   0.862
 6033TIP3   OH218041   0.330   5.282   3.317
 6033TIP3    H118042   0.303   5.293   3.226
 6033TIP3    H218043   0.306   5.192   3.338
 6034TIP3   OH218044   1.535   5.907   0.565
 6034TIP3    H118045   1.547   5.831   0.622
 6034TIP3    H218046   1.457   5.886   0.513
 6035TIP3   OH218047   5.700   0.047   3.345
 6035TIP3    H118048   5.789   0.081   3.349
 6035TIP3    H218049   5.649   0.116   3.302
 6036TIP3   OH218050   7.589   5.454   5.943
 6036TIP3    H118051   7.608   5.455   6.037
 6036TIP3    H218052   7.670   5.485   5.902
 6037TIP3   OH218053   6.034   0.487   4.911
 6037TIP3    H118054   6.106   0.483   4.848
 6037TIP3    H218055   5.956   0.473   4.859
 6038TIP3   OH218056   6.043   6.406   5.523
 6038TIP3    H118057   5.966   6.413   5.465
 6038TIP3    H218058   6.074   6.316   5.512
 6039TIP3   OH218059   7.233   3.612   6.462
 6039TIP3    H118060   7.231   3.610   6.366
 6039TIP3    H218061   7.325   3.603   6.484
 6040TIP3   OH218062   6.970   1.936   5.465
 6040TIP3    H118063   6.911   1.991   5.516
 6040TIP3    H218064   7.020   1.887   5.531
 6041TIP3   OH218065   1.137   4.224   4.323
 6041TIP3    H118066   1.196   4.151   4.340
 6041TIP3    H218067   1.105   4.251   4.409
 6042TIP3   OH218068   0.714   0.369   0.124
 6042TIP3    H118069   0.746   0.344   0.211
 6042TIP3    H218070   0.640   0.427   0.141
 6043TIP3   OH218071   6.583   3.040   0.671
 6043TIP3    H118072   6.633   3.119   0.652
 6043TIP3    H218073   6.551   3.052   0.760
 6044TIP3   OH218074   6.005   5.959   6.188
 6044TIP3    H118075   6.047   5.955   6.102
 6044TIP3    H218076   6.075   5.933   6.249
 6045TIP3   OH218077   6.699   4.035   2.745
 6045TIP3    H118078   6.703   4.080   2.660
 6045TIP3    H218079   6.728   3.946   2.726
 6046TIP3   OH218080   6.552   1.629   3.890
 6046TIP3    H118081   6.561   1.723   3.872
 6046TIP3    H218082   6.522   1.592   3.807
 6047TIP3   OH218083   0.573   4.760   5.851
 6047TIP3    H118084   0.572   4.749   5.756
 6047TIP3    H218085   0.554   4.673   5.885
 6048TIP3   OH218086   7.672   4.527   4.086
 6048TIP3    H118087   7.697   4.618   4.098
 6048TIP3    H218088   7.637   4.523   3.997
 6049TIP3   OH218089   6.815   6.438   4.790
 6049TIP3    H118090   6.753   6.472   4.726
 6049TIP3    H218091   6.777   6.355   4.818
 6050TIP3   OH218092   0.056   2.636   6.283
 6050TIP3    H118093   0.100   2.720   6.291
 6050TIP3    H218094   0.104   2.590   6.214
 6051TIP3   OH218095   0.706   5.964   3.474
 6051TIP3    H118096   0.765   5.986   3.401
 6051TIP3    H218097   0.647   6.039   3.480
 6052TIP3   OH218098   4.894   0.553   0.505
 6052TIP3    H118099   4.937   0.559   0.590
 6052TIP3    H218100   4.913   0.465   0.474
 6053TIP3   OH218101   7.445   0.904   4.996
 6053TIP3    H118102   7.509   0.966   4.960
 6053TIP3    H218103   7.444   0.832   4.933
 6054TIP3   OH218104   0.989   6.306   0.980
 6054TIP3    H118105   0.965   6.306   0.887
 6054TIP3    H218106   0.943   6.231   1.017
 6055TIP3   OH218107   3.893   6.777   0.348
 6055TIP3    H118108   3.858   6.863   0.371
 6055TIP3    H218109   3.982   6.793   0.320
 6056TIP3   OH218110   0.608   3.892   2.099
 6056TIP3    H118111   0.595   3.821   2.036
 6056TIP3    H218112   0.519   3.923   2.118
 6057TIP3   OH218113   7.505   1.406   5.312
 6057TIP3    H118114   7.560   1.368   5.381
 6057TIP3    H218115   7.461   1.331   5.272
 6058TIP3   OH218116   1.941   4.752   2.402
 6058TIP3    H118117   1.864   4.794   2.364
 6058TIP3    H218118   2.000   4.739   2.328
 6059TIP3   OH218119   3.752   0.214   0.955
 6059TIP3    H118120   3.746   0.217   0.859
 6059TIP3    H218121   3.661   0.214   0.984
 6060TIP3   OH218122   5.944   6.252   4.254
 6060TIP3    H118123   5.867   6.309   4.256
 6060TIP3    H218124   5.952   6.218   4.343
 6061TIP3   OH218125   1.716   3.209   6.073
 6061TIP3    H118126   1.743   3.118   6.059
 6061TIP3    H218127   1.648   3.204   6.140
 6062TIP3   OH218128   3.240   7.825   1.569
 6062TIP3    H118129   3.285   7.842   1.487
 6062TIP3    H218130   3.256   7.732   1.587
 6063TIP3   OH218131   6.842   0.986   1.627
 6063TIP3    H118132   6.853   1.075   1.660
 6063TIP3    H218133   6.911   0.935   1.671
 6064TIP3   OH218134   7.539   6.560   1.870
 6064TIP3    H118135   7.603   6.494   1.897
 6064TIP3    H218136   7.463   6.545   1.926
 6065TIP3   OH218137   1.520   3.697   0.783
 6065TIP3    H118138   1.450   3.646   0.743
 6065TIP3    H218139   1.585   3.632   0.809
 6066TIP3   OH218140   7.088   0.789   0.868
 6066TIP3    H118141   7.028   0.720   0.894
 6066TIP3    H218142   7.086   0.787   0.772
 6067TIP3   OH218143   7.022   0.266   5.745
 6067TIP3    H118144   7.064   0.184   5.770
 6067TIP3    H218145   7.000   0.308   5.828
 6068TIP3   OH218146   7.667   5.732   2.621
 6068TIP3    H118147   7.719   5.714   2.542
 6068TIP3    H218148   7.628   5.817   2.604
 6069TIP3   OH218149   7.139   0.080   4.529
 6069TIP3    H118150   7.176   0.011   4.473
 6069TIP3    H218151   7.212   0.140   4.545
 6070TIP3   OH218152   3.009   0.800   4.202
 6070TIP3    H118153   3.058   0.805   4.284
 6070TIP3    H218154   2.921   0.776   4.229
 6071TIP3   OH218155   4.615   7.803   0.985
 6071TIP3    H118156   4.622   7.711   1.009
 6071TIP3    H218157   4.633   7.806   0.891
 6072TIP3   OH218158   4.592   4.053   3.078
 6072TIP3    H118159   4.616   4.103   3.000
 6072TIP3    H218160   4.672   4.005   3.101
 6073TIP3   OH218161   7.969   2.959   0.387
 6073TIP3    H118162   8.039   2.963   0.452
 6073TIP3    H218163   7.963   2.866   0.365
 6074TIP3   OH218164   1.887   1.839   4.029
 6074TIP3    H118165   1.940   1.879   3.959
 6074TIP3    H218166   1.850   1.914   4.076
 6075TIP3   OH218167   6.183   2.914   4.240
 6075TIP3    H118168   6.113   2.963   4.198
 6075TIP3    H218169   6.225   2.865   4.169
 6076TIP3   OH218170   6.410   1.011   3.042
 6076TIP3    H118171   6.495   1.011   2.996
 6076TIP3    H218172   6.377   0.922   3.029
 6077TIP3   OH218173   6.808   0.542   2.797
 6077TIP3    H118174   6.837   0.557   2.887
 6077TIP3    H218175   6.763   0.622   2.772
 6078TIP3   OH218176   1.818   7.462   5.753
 6078TIP3    H118177   1.730   7.476   5.788
 6078TIP3    H218178   1.861   7.547   5.759
 6079TIP3   OH218179   7.870   1.809   5.126
 6079TIP3    H118180   7.962   1.827   5.107
 6079TIP3    H218181   7.828   1.895   5.126
 6080TIP3   OH218182   0.541   5.838   2.686
 6080TIP3    H118183   0.528   5.767   2.623
 6080TIP3    H218184   0.484   5.909   2.655
 6081TIP3   OH218185   4.450   2.071   2.683
 6081TIP3    H118186   4.541   2.075   2.713
 6081TIP3    H218187   4.456   2.087   2.588
 6082TIP3   OH218188   4.583   2.189   1.268
 6082TIP3    H118189   4.577   2.134   1.190
 6082TIP3    H218190   4.594   2.278   1.235
 6083TIP3   OH218191   0.796   0.794   3.401
 6083TIP3    H118192   0.845   0.759   3.326
 6083TIP3    H218193   0.805   0.726   3.469
 6084TIP3   OH218194   2.333   7.248   0.136
 6084TIP3    H118195   2.245   7.244   0.100
 6084TIP3    H218196   2.353   7.158   0.163
 6085TIP3   OH218197   6.681   4.181   6.589
 6085TIP3    H118198   6.666   4.113   6.524
 6085TIP3    H218199   6.775   4.201   6.582
 6086TIP3   OH218200   0.233   0.604   3.344
 6086TIP3    H118201   0.263   0.631   3.258
 6086TIP3    H218202   0.160   0.545   3.327
 6087TIP3   OH218203   5.939   5.682   2.182
 6087TIP3    H118204   6.013   5.743   2.179
 6087TIP3    H218205   5.944   5.642   2.268
 6088TIP3   OH218206   5.920   2.641   4.406
 6088TIP3    H118207   5.979   2.566   4.415
 6088TIP3    H218208   5.840   2.604   4.368
 6089TIP3   OH218209   2.310   7.541   6.602
 6089TIP3    H118210   2.283   7.567   6.514
 6089TIP3    H218211   2.247   7.473   6.627
 6090TIP3   OH218212   5.817   6.281   2.888
 6090TIP3    H118213   5.741   6.339   2.875
 6090TIP3    H218214   5.793   6.226   2.962
 6091TIP3   OH218215   4.345   6.469   5.813
 6091TIP3    H118216   4.372   6.450   5.903
 6091TIP3    H218217   4.371   6.560   5.799
 6092TIP3   OH218218   2.083   5.008   1.825
 6092TIP3    H118219   2.110   4.916   1.824
 6092TIP3    H218220   1.987   5.005   1.825
 6093TIP3   OH218221   5.661   0.849   5.771
 6093TIP3    H118222   5.715   0.923   5.800
 6093TIP3    H218223   5.659   0.856   5.676
 6094TIP3   OH218224   4.945   5.215   2.216
 6094TIP3    H118225   4.992   5.136   2.243
 6094TIP3    H218226   4.859   5.207   2.258
 6095TIP3   OH218227   0.643   2.935   2.092
 6095TIP3    H118228   0.549   2.922   2.077
 6095TIP3    H218229   0.647   2.992   2.169
 6096TIP3   OH218230   0.712   5.786   3.233
 6096TIP3    H118231   0.650   5.840   3.281
 6096TIP3    H218232   0.683   5.791   3.142
 6097TIP3   OH218233   1.798   0.897   6.088
 6097TIP3    H118234   1.719   0.933   6.129
 6097TIP3    H218235   1.781   0.904   5.994
 6098TIP3   OH218236   0.810   6.722   0.652
 6098TIP3    H118237   0.789   6.808   0.687
 6098TIP3    H218238   0.807   6.664   0.728
 6099TIP3   OH218239   4.017   3.254   0.361
 6099TIP3    H118240   3.971   3.315   0.419
 6099TIP3    H218241   4.040   3.181   0.418
 6100TIP3   OH218242   3.601   0.669   4.357
 6100TIP3    H118243   3.690   0.678   4.323
 6100TIP3    H218244   3.613   0.637   4.447
 6101TIP3   OH218245   5.763   6.313   1.708
 6101TIP3    H118246   5.804   6.257   1.642
 6101TIP3    H218247   5.768   6.263   1.789
 6102TIP3   OH218248   0.568   5.159   3.152
 6102TIP3    H118249   0.577   5.119   3.065
 6102TIP3    H218250   0.536   5.247   3.135
 6103TIP3   OH218251   1.889   7.812   4.672
 6103TIP3    H118252   1.813   7.766   4.638
 6103TIP3    H218253   1.890   7.896   4.626
 6104TIP3   OH218254   6.447   6.835   2.767
 6104TIP3    H118255   6.512   6.784   2.815
 6104TIP3    H218256   6.498   6.881   2.700
 6105TIP3   OH218257   4.855   1.270   0.310
 6105TIP3    H118258   4.814   1.188   0.283
 6105TIP3    H218259   4.853   1.268   0.405
 6106TIP3   OH218260   7.725   6.501   4.233
 6106TIP3    H118261   7.694   6.584   4.197
 6106TIP3    H218262   7.757   6.523   4.320
 6107TIP3   OH218263   3.915   0.648   3.517
 6107TIP3    H118264   3.957   0.671   3.600
 6107TIP3    H218265   3.852   0.718   3.501
 6108TIP3   OH218266   6.077   5.149   5.758
 6108TIP3    H118267   6.005   5.100   5.718
 6108TIP3    H218268   6.137   5.166   5.686
 6109TIP3   OH218269   8.221   7.650   4.598
 6109TIP3    H118270   8.125   7.657   4.598
 6109TIP3    H218271   8.251   7.740   4.601
 6110TIP3   OH218272   3.699   6.757   5.481
 6110TIP3    H118273   3.628   6.745   5.418
 6110TIP3    H218274   3.778   6.731   5.432
 6111TIP3   OH218275   4.458   5.892   2.396
 6111TIP3    H118276   4.407   5.965   2.361
 6111TIP3    H218277   4.463   5.909   2.490
 6112TIP3   OH218278   5.433   0.844   5.307
 6112TIP3    H118279   5.398   0.760   5.337
 6112TIP3    H218280   5.360   0.885   5.261
 6113TIP3   OH218281   2.282   6.724   2.900
 6113TIP3    H118282   2.278   6.817   2.920
 6113TIP3    H218283   2.317   6.720   2.811
 6114TIP3   OH218284   7.870   7.688   1.527
 6114TIP3    H118285   7.941   7.705   1.465
 6114TIP3    H218286   7.883   7.751   1.597
 6115TIP3   OH218287   5.466   1.269   0.772
 6115TIP3    H118288   5.442   1.187   0.814
 6115TIP3    H218289   5.552   1.291   0.808
 6116TIP3   OH218290   5.263   1.797   0.014
 6116TIP3    H118291   5.190   1.778   0.073
 6116TIP3    H218292   5.335   1.820   0.072
 6117TIP3   OH218293   6.533   7.179   3.568
 6117TIP3    H118294   6.442   7.152   3.577
 6117TIP3    H218295   6.582   7.097   3.563
 6118TIP3   OH218296   0.457   0.263   3.756
 6118TIP3    H118297   0.541   0.276   3.711
 6118TIP3    H218298   0.426   0.352   3.775
 6119TIP3   OH218299   7.839   0.364   4.972
 6119TIP3    H118300   7.910   0.419   4.939
 6119TIP3    H218301   7.870   0.274   4.961
 6120TIP3   OH218302   4.358   4.040   1.401
 6120TIP3    H118303   4.295   3.971   1.382
 6120TIP3    H218304   4.443   4.000   1.386
 6121TIP3   OH218305   7.650   0.820   1.674
 6121TIP3    H118306   7.683   0.906   1.646
 6121TIP3    H218307   7.642   0.770   1.593
 6122TIP3   OH218308   2.919   1.593   0.400
 6122TIP3    H118309   2.898   1.667   0.457
 6122TIP3    H218310   3.014   1.593   0.395
 6123TIP3   OH218311   2.395   5.844   5.344
 6123TIP3    H118312   2.488   5.867   5.342
 6123TIP3    H218313   2.394   5.749   5.355
 6124TIP3   OH218314   3.336   4.782   2.525
 6124TIP3    H118315   3.365   4.783   2.617
 6124TIP3    H218316   3.243   4.806   2.530
 6125TIP3   OH218317   6.038   3.616   1.737
 6125TIP3    H118318   5.978   3.687   1.714
 6125TIP3    H218319   6.091   3.652   1.808
 6126TIP3   OH218320   1.698   2.931   4.191
 6126TIP3    H118321   1.659   3.013   4.223
 6126TIP3    H218322   1.780   2.924   4.239
 6127TIP3   OH218323   6.579   6.692   3.011
 6127TIP3    H118324   6.667   6.725   3.031
 6127TIP3    H218325   6.531   6.702   3.093
 6128TIP3   OH218326   3.747   1.867   3.157
 6128TIP3    H118327   3.729   1.936   3.093
 6128TIP3    H218328   3.815   1.905   3.214
 6129TIP3   OH218329   2.806   1.923   2.390
 6129TIP3    H118330   2.841   1.885   2.309
 6129TIP3    H218331   2.816   2.018   2.379
 6130TIP3   OH218332   3.348   2.545   1.697
 6130TIP3    H118333   3.419   2.480   1.690
 6130TIP3    H218334   3.329   2.550   1.790
 6131TIP3   OH218335   5.557   3.380   2.965
 6131TIP3    H118336   5.652   3.386   2.950
 6131TIP3    H218337   5.537   3.287   2.957
 6132TIP3   OH218338   7.079   4.747   3.209
 6132TIP3    H118339   6.996   4.729   3.253
 6132TIP3    H218340   7.106   4.833   3.242
 6133TIP3   OH218341   6.040   3.668   1.073
 6133TIP3    H118342   6.099   3.714   1.013
 6133TIP3    H218343   5.996   3.737   1.122
 6134TIP3   OH218344   3.559   7.476   4.379
 6134TIP3    H118345   3.592   7.535   4.447
 6134TIP3    H218346   3.619   7.488   4.306
 6135TIP3   OH218347   1.518   7.802   0.991
 6135TIP3    H118348   1.459   7.734   1.024
 6135TIP3    H218349   1.586   7.809   1.057
 6136TIP3   OH218350   1.924   3.537   2.485
 6136TIP3    H118351   1.996   3.589   2.522
 6136TIP3    H218352   1.953   3.446   2.494
 6137TIP3   OH218353   2.265   3.888   2.634
 6137TIP3    H118354   2.271   3.983   2.644
 6137TIP3    H218355   2.301   3.853   2.715
 6138TIP3   OH218356   4.991   5.475   1.071
 6138TIP3    H118357   4.993   5.394   1.022
 6138TIP3    H218358   4.954   5.451   1.156
 6139TIP3   OH218359   5.687   3.123   6.107
 6139TIP3    H118360   5.697   3.042   6.157
 6139TIP3    H218361   5.613   3.106   6.049
 6140TIP3   OH218362   1.028   0.315   5.358
 6140TIP3    H118363   1.058   0.281   5.274
 6140TIP3    H218364   1.073   0.261   5.423
 6141TIP3   OH218365   1.795   6.980   6.069
 6141TIP3    H118366   1.730   7.050   6.083
 6141TIP3    H218367   1.773   6.913   6.134
 6142TIP3   OH218368   6.338   4.128   3.417
 6142TIP3    H118369   6.365   4.199   3.475
 6142TIP3    H218370   6.289   4.173   3.347
 6143TIP3   OH218371   0.560   7.244   4.955
 6143TIP3    H118372   0.641   7.213   4.997
 6143TIP3    H218373   0.587   7.324   4.910
 6144TIP3   OH218374   4.543   1.439   1.447
 6144TIP3    H118375   4.479   1.381   1.404
 6144TIP3    H218376   4.493   1.482   1.516
 6145TIP3   OH218377   7.433   6.213   6.233
 6145TIP3    H118378   7.410   6.305   6.219
 6145TIP3    H218379   7.485   6.213   6.313
 6146TIP3   OH218380   2.624   4.689   4.107
 6146TIP3    H118381   2.694   4.731   4.057
 6146TIP3    H218382   2.659   4.679   4.195
 6147TIP3   OH218383   6.485   2.748   5.929
 6147TIP3    H118384   6.438   2.802   5.992
 6147TIP3    H218385   6.435   2.667   5.925
 6148TIP3   OH218386   3.597   2.766   4.515
 6148TIP3    H118387   3.678   2.817   4.511
 6148TIP3    H218388   3.626   2.676   4.528
 6149TIP3   OH218389   1.788   4.380   6.168
 6149TIP3    H118390   1.869   4.393   6.217
 6149TIP3    H218391   1.814   4.331   6.090
 6150TIP3   OH218392   3.265   3.553   6.597
 6150TIP3    H118393   3.267   3.627   6.657
 6150TIP3    H218394   3.213   3.487   6.643
 6151TIP3   OH218395   8.093   5.487   4.146
 6151TIP3    H118396   8.164   5.485   4.210
 6151TIP3    H218397   8.018   5.452   4.192
 6152TIP3   OH218398   0.532   2.018   6.332
 6152TIP3    H118399   0.543   2.113   6.332
 6152TIP3    H218400   0.621   1.983   6.336
 6153TIP3   OH218401   5.630   4.406   0.507
 6153TIP3    H118402   5.586   4.480   0.465
 6153TIP3    H218403   5.575   4.384   0.582
 6154TIP3   OH218404   5.816   3.295   2.224
 6154TIP3    H118405   5.896   3.249   2.199
 6154TIP3    H218406   5.808   3.278   2.318
 6155TIP3   OH218407   4.648   4.546   3.207
 6155TIP3    H118408   4.615   4.473   3.259
 6155TIP3    H218409   4.650   4.620   3.268
 6156TIP3   OH218410   2.658   1.101   4.913
 6156TIP3    H118411   2.616   1.139   4.836
 6156TIP3    H218412   2.590   1.106   4.981
 6157TIP3   OH218413   6.419   5.150   3.406
 6157TIP3    H118414   6.467   5.087   3.353
 6157TIP3    H218415   6.354   5.187   3.347
 6158TIP3   OH218416   5.729   2.282   3.003
 6158TIP3    H118417   5.821   2.258   3.012
 6158TIP3    H218418   5.682   2.220   3.060
 6159TIP3   OH218419   2.452   6.493   5.532
 6159TIP3    H118420   2.543   6.517   5.545
 6159TIP3    H218421   2.447   6.465   5.441
 6160TIP3   OH218422   7.781   5.272   5.747
 6160TIP3    H118423   7.776   5.277   5.652
 6160TIP3    H218424   7.806   5.360   5.774
 6161TIP3   OH218425   0.484   0.103   2.276
 6161TIP3    H118426   0.423   0.058   2.334
 6161TIP3    H218427   0.503   0.040   2.207
 6162TIP3   OH218428   0.836   2.455   0.514
 6162TIP3    H118429   0.758   2.412   0.478
 6162TIP3    H218430   0.812   2.548   0.518
 6163TIP3   OH218431   1.329   2.745   5.650
 6163TIP3    H118432   1.409   2.788   5.622
 6163TIP3    H218433   1.356   2.684   5.719
 6164TIP3   OH218434   5.820   7.539   4.279
 6164TIP3    H118435   5.768   7.466   4.314
 6164TIP3    H218436   5.804   7.537   4.185
 6165TIP3   OH218437   6.972   3.270   3.066
 6165TIP3    H118438   6.894   3.244   3.017
 6165TIP3    H218439   6.949   3.257   3.158
 6166TIP3   OH218440   4.695   0.756   5.496
 6166TIP3    H118441   4.715   0.846   5.470
 6166TIP3    H218442   4.624   0.764   5.560
 6167TIP3   OH218443   0.531   3.338   0.301
 6167TIP3    H118444   0.583   3.373   0.373
 6167TIP3    H218445   0.491   3.415   0.260
 6168TIP3   OH218446   2.972   6.460   3.224
 6168TIP3    H118447   2.891   6.503   3.197
 6168TIP3    H218448   2.998   6.505   3.304
 6169TIP3   OH218449   7.591   1.015   4.255
 6169TIP3    H118450   7.583   1.037   4.162
 6169TIP3    H218451   7.657   0.945   4.257
 6170TIP3   OH218452   4.034   6.434   5.347
 6170TIP3    H118453   4.109   6.410   5.400
 6170TIP3    H218454   3.958   6.403   5.397
 6171TIP3   OH218455   0.964   1.306   5.587
 6171TIP3    H118456   1.059   1.305   5.599
 6171TIP3    H218457   0.943   1.397   5.568
 6172TIP3   OH218458   1.022   0.277   2.004
 6172TIP3    H118459   1.066   0.346   2.054
 6172TIP3    H218460   1.023   0.309   1.913
 6173TIP3   OH218461   4.318   5.955   6.121
 6173TIP3    H118462   4.247   5.978   6.062
 6173TIP3    H218463   4.374   6.033   6.122
 6174TIP3   OH218464   4.537   3.328   4.906
 6174TIP3    H118465   4.574   3.307   4.820
 6174TIP3    H218466   4.495   3.412   4.894
 6175TIP3   OH218467   1.782   0.493   3.270
 6175TIP3    H118468   1.769   0.399   3.285
 6175TIP3    H218469   1.694   0.528   3.256
 6176TIP3   OH218470   5.337   5.756   4.564
 6176TIP3    H118471   5.242   5.752   4.555
 6176TIP3    H218472   5.369   5.678   4.520
 6177TIP3   OH218473   7.565   7.634   6.086
 6177TIP3    H118474   7.559   7.725   6.058
 6177TIP3    H218475   7.532   7.583   6.012
 6178TIP3   OH218476   4.102   0.191   6.632
 6178TIP3    H118477   4.057   0.138   6.697
 6178TIP3    H218478   4.096   0.280   6.666
 6179TIP3   OH218479   1.942   5.603   3.970
 6179TIP3    H118480   2.007   5.560   3.914
 6179TIP3    H218481   1.864   5.608   3.915
 6180TIP3   OH218482   5.834   5.089   2.644
 6180TIP3    H118483   5.898   5.047   2.586
 6180TIP3    H218484   5.872   5.081   2.732
 6181TIP3   OH218485   0.735   5.208   0.507
 6181TIP3    H118486   0.723   5.221   0.601
 6181TIP3    H218487   0.828   5.192   0.496
 6182TIP3   OH218488   5.588   5.161   4.090
 6182TIP3    H118489   5.555   5.072   4.079
 6182TIP3    H218490   5.682   5.153   4.080
 6183TIP3   OH218491   1.806   0.736   1.644
 6183TIP3    H118492   1.902   0.738   1.646
 6183TIP3    H218493   1.785   0.706   1.556
 6184TIP3   OH218494   1.927   2.137   3.179
 6184TIP3    H118495   1.878   2.057   3.200
 6184TIP3    H218496   2.019   2.110   3.180
 6185TIP3   OH218497   1.977   5.770   6.713
 6185TIP3    H118498   2.018   5.689   6.683
 6185TIP3    H218499   2.046   5.816   6.760
 6186TIP3   OH218500   5.418   2.909   5.478
 6186TIP3    H118501   5.351   2.933   5.542
 6186TIP3    H218502   5.500   2.910   5.528
 6187TIP3   OH218503   2.449   5.155   2.626
 6187TIP3    H118504   2.356   5.160   2.649
 6187TIP3    H218505   2.483   5.243   2.643
 6188TIP3   OH218506   0.430   1.415   5.729
 6188TIP3    H118507   0.520   1.384   5.744
 6188TIP3    H218508   0.441   1.495   5.677
 6189TIP3   OH218509   6.360   4.423   3.447
 6189TIP3    H118510   6.365   4.518   3.431
 6189TIP3    H218511   6.317   4.415   3.532
 6190TIP3   OH218512   5.610   7.615   6.648
 6190TIP3    H118513   5.550   7.675   6.605
 6190TIP3    H218514   5.623   7.651   6.735
 6191TIP3   OH218515   4.933   0.597   4.419
 6191TIP3    H118516   4.877   0.665   4.381
 6191TIP3    H218517   4.917   0.520   4.365
 6192TIP3   OH218518   3.247   5.936   4.490
 6192TIP3    H118519   3.334   5.961   4.459
 6192TIP3    H218520   3.242   5.842   4.474
 6193TIP3   OH218521   2.812   6.851   6.466
 6193TIP3    H118522   2.734   6.905   6.478
 6193TIP3    H218523   2.883   6.903   6.505
 6194TIP3   OH218524   3.453   7.032   5.429
 6194TIP3    H118525   3.488   6.969   5.365
 6194TIP3    H218526   3.524   7.096   5.440
 6195TIP3   OH218527   1.407   3.704   5.014
 6195TIP3    H118528   1.359   3.720   5.096
 6195TIP3    H218529   1.387   3.780   4.960
 6196TIP3   OH218530   6.184   0.422   0.163
 6196TIP3    H118531   6.193   0.517   0.168
 6196TIP3    H218532   6.160   0.396   0.253
 6197TIP3   OH218533   4.650   0.253   1.145
 6197TIP3    H118534   4.700   0.315   1.092
 6197TIP3    H218535   4.716   0.197   1.185
 6198TIP3   OH218536   2.601   0.712   2.829
 6198TIP3    H118537   2.696   0.701   2.832
 6198TIP3    H218538   2.588   0.806   2.822
 6199TIP3   OH218539   8.185   0.379   0.340
 6199TIP3    H118540   8.219   0.298   0.378
 6199TIP3    H218541   8.174   0.358   0.247
 6200TIP3   OH218542   1.429   4.528   6.482
 6200TIP3    H118543   1.503   4.467   6.479
 6200TIP3    H218544   1.355   4.478   6.450
 6201TIP3   OH218545   3.470   4.722   0.228
 6201TIP3    H118546   3.417   4.800   0.247
 6201TIP3    H218547   3.530   4.715   0.303
 6202TIP3   OH218548   4.105   1.287   5.448
 6202TIP3    H118549   4.184   1.315   5.400
 6202TIP3    H218550   4.138   1.230   5.517
 6203TIP3   OH218551   5.552   0.879   4.176
 6203TIP3    H118552   5.470   0.906   4.218
 6203TIP3    H218553   5.584   0.808   4.231
 6204TIP3   OH218554   7.842   0.806   5.658
 6204TIP3    H118555   7.859   0.887   5.705
 6204TIP3    H218556   7.772   0.828   5.597
 6205TIP3   OH218557   3.760   3.061   3.775
 6205TIP3    H118558   3.725   3.096   3.857
 6205TIP3    H218559   3.813   2.985   3.802
 6206TIP3   OH218560   4.545   1.929   1.850
 6206TIP3    H118561   4.480   1.935   1.921
 6206TIP3    H218562   4.496   1.892   1.777
 6207TIP3   OH218563   5.494   0.261   2.325
 6207TIP3    H118564   5.444   0.341   2.340
 6207TIP3    H218565   5.559   0.260   2.395
 6208TIP3   OH218566   7.862   5.174   1.834
 6208TIP3    H118567   7.856   5.269   1.842
 6208TIP3    H218568   7.954   5.154   1.849
 6209TIP3   OH218569   4.805   7.196   3.283
 6209TIP3    H118570   4.782   7.288   3.296
 6209TIP3    H218571   4.723   7.154   3.256
 6210TIP3   OH218572   4.377   7.062   6.098
 6210TIP3    H118573   4.362   7.086   6.007
 6210TIP3    H218574   4.460   7.013   6.097
 6211TIP3   OH218575   4.696   6.032   4.264
 6211TIP3    H118576   4.707   6.126   4.275
 6211TIP3    H218577   4.603   6.017   4.278
 6212TIP3   OH218578   8.034   4.492   3.969
 6212TIP3    H118579   8.038   4.500   4.064
 6212TIP3    H218580   8.052   4.399   3.951
 6213TIP3   OH218581   6.914   2.599   0.487
 6213TIP3    H118582   6.841   2.648   0.450
 6213TIP3    H218583   6.919   2.519   0.434
 6214TIP3   OH218584   4.252   7.538   3.049
 6214TIP3    H118585   4.305   7.610   3.082
 6214TIP3    H218586   4.235   7.560   2.958
 6215TIP3   OH218587   0.530   4.840   0.367
 6215TIP3    H118588   0.451   4.889   0.389
 6215TIP3    H218589   0.509   4.749   0.390
 6216TIP3   OH218590   4.719   2.697   5.326
 6216TIP3    H118591   4.666   2.772   5.297
 6216TIP3    H218592   4.746   2.653   5.246
 6217TIP3   OH218593   7.704   3.164   6.619
 6217TIP3    H118594   7.795   3.143   6.639
 6217TIP3    H218595   7.656   3.083   6.634
 6218TIP3   OH218596   1.030   3.994   3.183
 6218TIP3    H118597   1.053   4.036   3.100
 6218TIP3    H218598   1.111   3.998   3.234
 6219TIP3   OH218599   0.922   6.126   6.517
 6219TIP3    H118600   0.858   6.059   6.492
 6219TIP3    H218601   0.958   6.157   6.434
 6220TIP3   OH218602   1.537   2.037   1.709
 6220TIP3    H118603   1.509   1.945   1.705
 6220TIP3    H218604   1.579   2.053   1.624
 6221TIP3   OH218605   4.720   2.781   4.410
 6221TIP3    H118606   4.797   2.729   4.386
 6221TIP3    H218607   4.736   2.809   4.500
 6222TIP3   OH218608   6.304   1.125   3.707
 6222TIP3    H118609   6.279   1.093   3.794
 6222TIP3    H218610   6.245   1.079   3.647
 6223TIP3   OH218611   2.106   5.786   0.168
 6223TIP3    H118612   2.105   5.738   0.085
 6223TIP3    H218613   2.097   5.719   0.235
 6224TIP3   OH218614   5.059   1.220   6.583
 6224TIP3    H118615   4.970   1.198   6.612
 6224TIP3    H218616   5.087   1.143   6.534
 6225TIP3   OH218617   1.656   4.441   3.552
 6225TIP3    H118618   1.654   4.349   3.578
 6225TIP3    H218619   1.593   4.484   3.610
 6226TIP3   OH218620   2.644   4.380   6.162
 6226TIP3    H118621   2.588   4.449   6.126
 6226TIP3    H218622   2.583   4.323   6.209
 6227TIP3   OH218623   6.680   0.493   3.492
 6227TIP3    H118624   6.606   0.463   3.440
 6227TIP3    H218625   6.664   0.459   3.580
 6228TIP3   OH218626   4.897   2.996   6.132
 6228TIP3    H118627   4.936   3.066   6.184
 6228TIP3    H218628   4.967   2.932   6.121
 6229TIP3   OH218629   8.077   1.342   1.019
 6229TIP3    H118630   8.100   1.319   1.109
 6229TIP3    H218631   8.067   1.258   0.975
 6230TIP3   OH218632   0.816   6.712   4.473
 6230TIP3    H118633   0.862   6.734   4.553
 6230TIP3    H218634   0.860   6.763   4.405
 6231TIP3   OH218635   6.465   0.197   2.227
 6231TIP3    H118636   6.482   0.285   2.259
 6231TIP3    H218637   6.416   0.154   2.298
 6232TIP3   OH218638   6.378   7.147   0.294
 6232TIP3    H118639   6.318   7.198   0.349
 6232TIP3    H218640   6.396   7.204   0.219
 6233TIP3   OH218641   7.461   3.533   6.022
 6233TIP3    H118642   7.437   3.543   5.930
 6233TIP3    H218643   7.498   3.618   6.047
 6234TIP3   OH218644   7.661   3.083   5.069
 6234TIP3    H118645   7.577   3.125   5.083
 6234TIP3    H218646   7.663   3.062   4.976
 6235TIP3   OH218647   6.983   7.765   4.610
 6235TIP3    H118648   6.976   7.801   4.698
 6235TIP3    H218649   7.052   7.699   4.617
 6236TIP3   OH218650   0.525   3.326   1.631
 6236TIP3    H118651   0.461   3.390   1.662
 6236TIP3    H218652   0.477   3.243   1.628
 6237TIP3   OH218653   7.219   3.626   3.870
 6237TIP3    H118654   7.303   3.673   3.876
 6237TIP3    H218655   7.243   3.537   3.843
 6238TIP3   OH218656   7.129   6.314   0.648
 6238TIP3    H118657   7.060   6.297   0.712
 6238TIP3    H218658   7.100   6.270   0.568
 6239TIP3   OH218659   2.314   7.714   0.267
 6239TIP3    H118660   2.230   7.753   0.245
 6239TIP3    H218661   2.291   7.638   0.321
 6240TIP3   OH218662   1.194   3.647   2.300
 6240TIP3    H118663   1.143   3.709   2.248
 6240TIP3    H218664   1.268   3.697   2.333
 6241TIP3   OH218665   6.346   2.218   1.448
 6241TIP3    H118666   6.333   2.124   1.444
 6241TIP3    H218667   6.272   2.256   1.401
 6242TIP3   OH218668   6.883   6.706   0.033
 6242TIP3    H118669   6.806   6.750  -0.003
 6242TIP3    H218670   6.847   6.638   0.091
 6243TIP3   OH218671   5.268   1.955   0.945
 6243TIP3    H118672   5.287   1.886   1.009
 6243TIP3    H218673   5.239   1.909   0.867
 6244TIP3   OH218674   6.133   7.604   3.777
 6244TIP3    H118675   6.110   7.676   3.719
 6244TIP3    H218676   6.081   7.619   3.856
 6245TIP3   OH218677   2.502   5.934   4.178
 6245TIP3    H118678   2.486   5.974   4.092
 6245TIP3    H218679   2.556   5.858   4.159
 6246TIP3   OH218680   0.328   5.233   1.303
 6246TIP3    H118681   0.289   5.320   1.297
 6246TIP3    H218682   0.256   5.176   1.326
 6247TIP3   OH218683   6.470   1.042   6.082
 6247TIP3    H118684   6.431   0.961   6.051
 6247TIP3    H218685   6.403   1.081   6.138
 6248TIP3   OH218686   5.714   2.257   6.676
 6248TIP3    H118687   5.713   2.239   6.770
 6248TIP3    H218688   5.630   2.298   6.658
 6249TIP3   OH218689   5.487   4.354   0.724
 6249TIP3    H118690   5.422   4.418   0.753
 6249TIP3    H218691   5.469   4.276   0.776
 6250TIP3   OH218692   6.008   1.332   0.742
 6250TIP3    H118693   5.959   1.251   0.730
 6250TIP3    H218694   5.964   1.395   0.684
 6251TIP3   OH218695   0.641   4.447   3.326
 6251TIP3    H118696   0.629   4.403   3.242
 6251TIP3    H218697   0.720   4.406   3.363
 6252TIP3   OH218698   1.018   2.943   1.378
 6252TIP3    H118699   1.095   2.892   1.350
 6252TIP3    H218700   1.053   3.029   1.400
 6253TIP3   OH218701   1.958   1.722   4.564
 6253TIP3    H118702   1.902   1.645   4.559
 6253TIP3    H218703   2.039   1.692   4.604
 6254TIP3   OH218704   6.001   0.328   2.555
 6254TIP3    H118705   6.056   0.362   2.625
 6254TIP3    H218706   5.982   0.404   2.500
 6255TIP3   OH218707   2.428   4.056   4.510
 6255TIP3    H118708   2.387   3.981   4.468
 6255TIP3    H218709   2.355   4.104   4.550
 6256TIP3   OH218710   7.624   4.138   5.360
 6256TIP3    H118711   7.572   4.094   5.291
 6256TIP3    H218712   7.602   4.230   5.351
 6257TIP3   OH218713   1.060   4.242   3.957
 6257TIP3    H118714   1.012   4.182   4.014
 6257TIP3    H218715   1.008   4.323   3.959
 6258TIP3   OH218716   6.738   5.395   5.426
 6258TIP3    H118717   6.714   5.331   5.359
 6258TIP3    H218718   6.770   5.342   5.499
 6259TIP3   OH218719   6.221   6.753   2.895
 6259TIP3    H118720   6.308   6.777   2.864
 6259TIP3    H218721   6.166   6.759   2.817
 6260TIP3   OH218722   4.479   0.506   0.201
 6260TIP3    H118723   4.529   0.585   0.182
 6260TIP3    H218724   4.516   0.475   0.284
 6261TIP3   OH218725   1.357   3.889   5.661
 6261TIP3    H118726   1.433   3.894   5.603
 6261TIP3    H218727   1.394   3.886   5.749
 6262TIP3   OH218728   0.083   0.313   1.682
 6262TIP3    H118729   0.172   0.344   1.698
 6262TIP3    H218730   0.044   0.380   1.625
 6263TIP3   OH218731   0.561   7.288   0.062
 6263TIP3    H118732   0.498   7.338   0.010
 6263TIP3    H218733   0.574   7.341   0.141
 6264TIP3   OH218734   8.216   7.438   6.379
 6264TIP3    H118735   8.258   7.518   6.347
 6264TIP3    H218736   8.287   7.388   6.420
 6265TIP3   OH218737   5.918   7.280   0.024
 6265TIP3    H118738   5.962   7.290   0.109
 6265TIP3    H218739   5.959   7.203  -0.015
 6266TIP3   OH218740   4.378   5.668   1.947
 6266TIP3    H118741   4.435   5.647   1.873
 6266TIP3    H218742   4.299   5.616   1.934
 6267TIP3   OH218743   1.902   2.334   1.480
 6267TIP3    H118744   1.933   2.248   1.507
 6267TIP3    H218745   1.901   2.386   1.560
 6268TIP3   OH218746   4.135   7.748   1.137
 6268TIP3    H118747   4.186   7.827   1.118
 6268TIP3    H218748   4.095   7.765   1.222
 6269TIP3   OH218749   2.171   1.940   2.031
 6269TIP3    H118750   2.165   1.854   2.072
 6269TIP3    H218751   2.177   2.001   2.105
 6270TIP3   OH218752   0.920   1.367   3.220
 6270TIP3    H118753   0.925   1.416   3.302
 6270TIP3    H218754   0.955   1.281   3.241
 6271TIP3   OH218755   7.678   5.368   4.252
 6271TIP3    H118756   7.623   5.302   4.210
 6271TIP3    H218757   7.621   5.412   4.314
 6272TIP3   OH218758   8.142   2.915   5.808
 6272TIP3    H118759   8.121   2.882   5.896
 6272TIP3    H218760   8.191   2.996   5.824
 6273TIP3   OH218761   7.736   5.628   4.966
 6273TIP3    H118762   7.691   5.688   4.906
 6273TIP3    H218763   7.801   5.682   5.010
 6274TIP3   OH218764   8.084   6.462   2.263
 6274TIP3    H118765   8.012   6.505   2.217
 6274TIP3    H218766   8.160   6.518   2.244
 6275TIP3   OH218767   1.843   1.792   1.327
 6275TIP3    H118768   1.871   1.883   1.321
 6275TIP3    H218769   1.902   1.752   1.390
 6276TIP3   OH218770   1.482   2.819   3.268
 6276TIP3    H118771   1.476   2.902   3.220
 6276TIP3    H218772   1.415   2.763   3.229
 6277TIP3   OH218773   0.520   0.837   0.589
 6277TIP3    H118774   0.573   0.898   0.537
 6277TIP3    H218775   0.465   0.793   0.525
 6278TIP3   OH218776   3.459   4.426   1.184
 6278TIP3    H118777   3.501   4.377   1.255
 6278TIP3    H218778   3.500   4.394   1.104
 6279TIP3   OH218779   2.432   3.832   1.303
 6279TIP3    H118780   2.340   3.812   1.321
 6279TIP3    H218781   2.457   3.897   1.369
 6280TIP3   OH218782   3.274   5.360   3.664
 6280TIP3    H118783   3.204   5.337   3.603
 6280TIP3    H218784   3.257   5.452   3.686
 6281TIP3   OH218785   5.361   4.447   1.674
 6281TIP3    H118786   5.447   4.464   1.712
 6281TIP3    H218787   5.357   4.352   1.666
 6282TIP3   OH218788   2.144   3.911   0.207
 6282TIP3    H118789   2.098   3.988   0.176
 6282TIP3    H218790   2.075   3.850   0.234
 6283TIP3   OH218791   3.248   0.748   1.526
 6283TIP3    H118792   3.227   0.655   1.515
 6283TIP3    H218793   3.333   0.758   1.483
 6284TIP3   OH218794   4.981   7.165   3.909
 6284TIP3    H118795   4.982   7.160   4.004
 6284TIP3    H218796   4.983   7.073   3.880
 6285TIP3   OH218797   5.316   2.455   5.824
 6285TIP3    H118798   5.224   2.464   5.847
 6285TIP3    H218799   5.346   2.380   5.875
 6286TIP3   OH218800   6.059   0.081   1.044
 6286TIP3    H118801   6.005   0.148   1.088
 6286TIP3    H218802   6.119   0.132   0.988
 6287TIP3   OH218803   6.778   2.333   5.787
 6287TIP3    H118804   6.766   2.426   5.807
 6287TIP3    H218805   6.834   2.301   5.857
 6288TIP3   OH218806   2.007   2.579   6.403
 6288TIP3    H118807   1.955   2.515   6.355
 6288TIP3    H218808   2.068   2.613   6.337
 6289TIP3   OH218809   6.185   1.573   1.511
 6289TIP3    H118810   6.112   1.515   1.489
 6289TIP3    H218811   6.153   1.661   1.491
 6290TIP3   OH218812   7.871   6.689   4.909
 6290TIP3    H118813   7.859   6.718   4.999
 6290TIP3    H218814   7.862   6.594   4.913
 6291TIP3   OH218815   4.730   6.838   4.656
 6291TIP3    H118816   4.691   6.759   4.694
 6291TIP3    H218817   4.655   6.895   4.637
 6292TIP3   OH218818   6.467   1.271   4.112
 6292TIP3    H118819   6.441   1.197   4.166
 6292TIP3    H218820   6.386   1.299   4.070
 6293TIP3   OH218821   2.843   2.446   4.502
 6293TIP3    H118822   2.751   2.422   4.509
 6293TIP3    H218823   2.853   2.481   4.414
 6294TIP3   OH218824   4.802   2.258   3.281
 6294TIP3    H118825   4.859   2.181   3.291
 6294TIP3    H218826   4.813   2.284   3.190
 6295TIP3   OH218827   2.139   6.414   0.246
 6295TIP3    H118828   2.083   6.389   0.173
 6295TIP3    H218829   2.112   6.503   0.268
 6296TIP3   OH218830   5.563   1.151   5.487
 6296TIP3    H118831   5.567   1.056   5.489
 6296TIP3    H218832   5.497   1.170   5.420
 6297TIP3   OH218833   4.386   1.026   0.173
 6297TIP3    H118834   4.391   1.082   0.095
 6297TIP3    H218835   4.477   1.007   0.195
 6298TIP3   OH218836   1.241   7.584   2.259
 6298TIP3    H118837   1.232   7.520   2.188
 6298TIP3    H218838   1.325   7.627   2.241
 6299TIP3   OH218839   4.652   0.865   5.950
 6299TIP3    H118840   4.635   0.900   6.038
 6299TIP3    H218841   4.626   0.935   5.891
 6300TIP3   OH218842   2.447   7.673   2.263
 6300TIP3    H118843   2.451   7.623   2.345
 6300TIP3    H218844   2.472   7.610   2.196
 6301TIP3   OH218845   0.872   0.993   6.309
 6301TIP3    H118846   0.794   1.029   6.352
 6301TIP3    H218847   0.856   1.008   6.216
 6302TIP3   OH218848   6.423   3.013   5.692
 6302TIP3    H118849   6.468   3.095   5.713
 6302TIP3    H218850   6.332   3.028   5.720
 6303TIP3   OH218851   1.993   0.292   4.729
 6303TIP3    H118852   1.944   0.361   4.774
 6303TIP3    H218853   1.947   0.211   4.751
 6304TIP3   OH218854   0.363   2.104   5.878
 6304TIP3    H118855   0.344   2.196   5.898
 6304TIP3    H218856   0.296   2.079   5.814
 6305TIP3   OH218857   3.185   6.201   0.470
 6305TIP3    H118858   3.152   6.169   0.554
 6305TIP3    H218859   3.280   6.199   0.479
 6306TIP3   OH218860   6.288   7.128   5.488
 6306TIP3    H118861   6.234   7.171   5.422
 6306TIP3    H218862   6.299   7.195   5.556
 6307TIP3   OH218863   5.732   2.349   0.089
 6307TIP3    H118864   5.738   2.413   0.160
 6307TIP3    H218865   5.716   2.401   0.010
 6308TIP3   OH218866   3.704   6.864   4.735
 6308TIP3    H118867   3.632   6.817   4.776
 6308TIP3    H218868   3.666   6.945   4.702
 6309TIP3   OH218869   2.702   0.278   5.205
 6309TIP3    H118870   2.787   0.243   5.181
 6309TIP3    H218871   2.721   0.350   5.265
 6310TIP3   OH218872   3.849   7.207   5.890
 6310TIP3    H118873   3.906   7.132   5.872
 6310TIP3    H218874   3.855   7.220   5.984
 6311TIP3   OH218875   4.329   5.348   6.300
 6311TIP3    H118876   4.398   5.289   6.271
 6311TIP3    H218877   4.369   5.402   6.368
 6312TIP3   OH218878   2.759   5.324   2.102
 6312TIP3    H118879   2.718   5.237   2.096
 6312TIP3    H218880   2.787   5.330   2.193
 6313TIP3   OH218881   4.846   4.159   3.231
 6313TIP3    H118882   4.868   4.195   3.317
 6313TIP3    H218883   4.926   4.172   3.179
 6314TIP3   OH218884   8.058   4.409   5.585
 6314TIP3    H118885   7.962   4.406   5.591
 6314TIP3    H218886   8.082   4.485   5.639
 6315TIP3   OH218887   3.626   3.882   4.532
 6315TIP3    H118888   3.544   3.926   4.556
 6315TIP3    H218889   3.626   3.883   4.437
 6316TIP3   OH218890   3.510   1.058   2.978
 6316TIP3    H118891   3.583   1.119   2.994
 6316TIP3    H218892   3.485   1.074   2.887
 6317TIP3   OH218893   2.069   7.245   1.520
 6317TIP3    H118894   2.162   7.226   1.509
 6317TIP3    H218895   2.025   7.162   1.499
 6318TIP3   OH218896   7.011   6.351   0.985
 6318TIP3    H118897   6.933   6.333   0.933
 6318TIP3    H218898   7.085   6.330   0.927
 6319TIP3   OH218899   0.826   5.731   3.573
 6319TIP3    H118900   0.793   5.814   3.540
 6319TIP3    H218901   0.874   5.692   3.499
 6320TIP3   OH218902   4.623   5.129   4.163
 6320TIP3    H118903   4.629   5.184   4.241
 6320TIP3    H218904   4.626   5.190   4.090
 6321TIP3   OH218905   2.244   0.102   0.532
 6321TIP3    H118906   2.281   0.145   0.456
 6321TIP3    H218907   2.181   0.039   0.496
 6322TIP3   OH218908   6.766   4.861   5.146
 6322TIP3    H118909   6.680   4.894   5.119
 6322TIP3    H218910   6.777   4.780   5.097
 6323TIP3   OH218911   5.454   5.546   0.808
 6323TIP3    H118912   5.500   5.505   0.881
 6323TIP3    H218913   5.385   5.483   0.785
 6324TIP3   OH218914   3.384   4.035   4.530
 6324TIP3    H118915   3.307   3.981   4.515
 6324TIP3    H218916   3.358   4.097   4.598
 6325TIP3   OH218917   3.239   1.329   6.285
 6325TIP3    H118918   3.150   1.294   6.278
 6325TIP3    H218919   3.273   1.326   6.195
 6326TIP3   OH218920   1.262   6.603   4.365
 6326TIP3    H118921   1.320   6.579   4.437
 6326TIP3    H218922   1.203   6.528   4.355
 6327TIP3   OH218923   6.925   1.379   0.670
 6327TIP3    H118924   6.929   1.402   0.763
 6327TIP3    H218925   7.007   1.333   0.654
 6328TIP3   OH218926   3.458   2.760   2.502
 6328TIP3    H118927   3.381   2.750   2.448
 6328TIP3    H218928   3.448   2.845   2.545
 6329TIP3   OH218929   6.328   4.736   0.379
 6329TIP3    H118930   6.310   4.666   0.317
 6329TIP3    H218931   6.371   4.804   0.328
 6330TIP3   OH218932   1.772   5.230   4.672
 6330TIP3    H118933   1.797   5.297   4.736
 6330TIP3    H218934   1.849   5.174   4.665
 6331TIP3   OH218935   5.466   1.723   3.996
 6331TIP3    H118936   5.479   1.632   4.022
 6331TIP3    H218937   5.554   1.756   3.977
 6332TIP3   OH218938   2.113   6.176   0.952
 6332TIP3    H118939   2.110   6.260   0.905
 6332TIP3    H218940   2.075   6.195   1.038
 6333TIP3   OH218941   6.847   2.751   6.083
 6333TIP3    H118942   6.883   2.837   6.106
 6333TIP3    H218943   6.872   2.694   6.156
 6334TIP3   OH218944   1.820   1.516   3.412
 6334TIP3    H118945   1.906   1.548   3.440
 6334TIP3    H218946   1.814   1.539   3.320
 6335TIP3   OH218947   8.257   0.100   0.317
 6335TIP3    H118948   8.282   0.045   0.391
 6335TIP3    H218949   8.172   0.066   0.290
 6336TIP3   OH218950   8.101   2.835   6.374
 6336TIP3    H118951   8.023   2.836   6.319
 6336TIP3    H218952   8.154   2.764   6.338
 6337TIP3   OH218953   0.685   4.849   2.779
 6337TIP3    H118954   0.760   4.801   2.814
 6337TIP3    H218955   0.640   4.786   2.723
 6338TIP3   OH218956   3.522   6.718   3.864
 6338TIP3    H118957   3.584   6.654   3.830
 6338TIP3    H218958   3.536   6.717   3.959
 6339TIP3   OH218959   3.574   1.980   4.855
 6339TIP3    H118960   3.634   1.950   4.923
 6339TIP3    H218961   3.615   2.059   4.820
 6340TIP3   OH218962   6.727   2.156   6.285
 6340TIP3    H118963   6.699   2.230   6.230
 6340TIP3    H218964   6.823   2.161   6.285
 6341TIP3   OH218965   1.649   1.751   5.639
 6341TIP3    H118966   1.558   1.730   5.621
 6341TIP3    H218967   1.650   1.847   5.647
 6342TIP3   OH218968   0.074   2.133   5.003
 6342TIP3    H118969   0.075   2.226   5.029
 6342TIP3    H218970   0.003   2.128   4.939
 6343TIP3   OH218971   1.081   4.686   1.642
 6343TIP3    H118972   1.088   4.734   1.724
 6343TIP3    H218973   1.089   4.753   1.574
 6344TIP3   OH218974   0.488   6.269   3.903
 6344TIP3    H118975   0.543   6.333   3.859
 6344TIP3    H218976   0.549   6.202   3.935
 6345TIP3   OH218977   5.237   6.935   3.866
 6345TIP3    H118978   5.275   6.951   3.952
 6345TIP3    H218979   5.146   6.911   3.885
 6346TIP3   OH218980   1.579   1.706   3.915
 6346TIP3    H118981   1.613   1.703   4.004
 6346TIP3    H218982   1.569   1.799   3.896
 6347TIP3   OH218983   5.816   5.827   2.398
 6347TIP3    H118984   5.772   5.856   2.318
 6347TIP3    H218985   5.774   5.744   2.420
 6348TIP3   OH218986   1.514   0.549   4.430
 6348TIP3    H118987   1.547   0.516   4.514
 6348TIP3    H218988   1.422   0.566   4.445
 6349TIP3   OH218989   3.479   2.469   0.654
 6349TIP3    H118990   3.435   2.411   0.592
 6349TIP3    H218991   3.412   2.492   0.718
 6350TIP3   OH218992   1.745   0.734   6.745
 6350TIP3    H118993   1.691   0.796   6.696
 6350TIP3    H218994   1.702   0.650   6.733
 6351TIP3   OH218995   5.301   1.929   5.420
 6351TIP3    H118996   5.340   1.864   5.479
 6351TIP3    H218997   5.374   1.986   5.396
 6352TIP3   OH218998   5.804   5.502   4.219
 6352TIP3    H118999   5.831   5.563   4.150
 6352TIP3    H219000   5.869   5.514   4.288
 6353TIP3   OH219001   2.192   0.994   0.442
 6353TIP3    H119002   2.168   1.086   0.427
 6353TIP3    H219003   2.205   0.958   0.355
 6354TIP3   OH219004   4.676   5.809   0.764
 6354TIP3    H119005   4.713   5.749   0.829
 6354TIP3    H219006   4.752   5.846   0.719
 6355TIP3   OH219007   1.875   7.719   6.238
 6355TIP3    H119008   1.886   7.624   6.238
 6355TIP3    H219009   1.794   7.734   6.188
 6356TIP3   OH219010   4.562   0.816   2.719
 6356TIP3    H119011   4.497   0.795   2.786
 6356TIP3    H219012   4.571   0.735   2.668
 6357TIP3   OH219013   7.315   0.105   1.773
 6357TIP3    H119014   7.289   0.090   1.683
 6357TIP3    H219015   7.399   0.059   1.782
 6358TIP3   OH219016   7.011  -0.001   2.680
 6358TIP3    H119017   7.091   0.019   2.728
 6358TIP3    H219018   7.018   0.050   2.599
 6359TIP3   OH219019   3.482   0.811   3.558
 6359TIP3    H119020   3.482   0.905   3.577
 6359TIP3    H219021   3.396   0.795   3.521
 6360TIP3   OH219022   8.215   0.590   5.955
 6360TIP3    H119023   8.192   0.530   6.025
 6360TIP3    H219024   8.152   0.572   5.885
 6361TIP3   OH219025   5.869   2.072   3.579
 6361TIP3    H119026   5.956   2.110   3.586
 6361TIP3    H219027   5.877   2.005   3.511
 6362TIP3   OH219028   5.259   3.145   3.030
 6362TIP3    H119029   5.237   3.222   3.081
 6362TIP3    H219030   5.214   3.157   2.946
 6363TIP3   OH219031   3.010   1.437   3.872
 6363TIP3    H119032   2.982   1.423   3.781
 6363TIP3    H219033   3.092   1.388   3.879
 6364TIP3   OH219034   1.879   7.802   3.883
 6364TIP3    H119035   1.953   7.856   3.912
 6364TIP3    H219036   1.887   7.722   3.934
 6365TIP3   OH219037   2.102   4.982   3.436
 6365TIP3    H119038   2.196   4.961   3.431
 6365TIP3    H219039   2.100   5.078   3.441
 6366TIP3   OH219040   1.865   4.701   5.070
 6366TIP3    H119041   1.961   4.701   5.075
 6366TIP3    H219042   1.837   4.652   5.147
 6367TIP3   OH219043   2.447   0.427   0.252
 6367TIP3    H119044   2.506   0.429   0.327
 6367TIP3    H219045   2.453   0.514   0.213
 6368TIP3   OH219046   4.647   0.780   3.471
 6368TIP3    H119047   4.588   0.853   3.453
 6368TIP3    H219048   4.709   0.814   3.535
 6369TIP3   OH219049   1.803   6.306   5.136
 6369TIP3    H119050   1.877   6.287   5.078
 6369TIP3    H219051   1.792   6.227   5.187
 6370TIP3   OH219052   5.606   6.971   2.265
 6370TIP3    H119053   5.683   6.932   2.305
 6370TIP3    H219054   5.534   6.913   2.291
 6371TIP3   OH219055   2.228   3.681   2.218
 6371TIP3    H119056   2.188   3.600   2.187
 6371TIP3    H219057   2.162   3.720   2.276
 6372TIP3   OH219058   7.271   7.652   2.326
 6372TIP3    H119059   7.284   7.731   2.379
 6372TIP3    H219060   7.353   7.643   2.277
 6373TIP3   OH219061   6.132   5.917   4.769
 6373TIP3    H119062   6.204   5.967   4.808
 6373TIP3    H219063   6.141   5.829   4.805
 6374TIP3   OH219064   1.054   0.471   4.932
 6374TIP3    H119065   1.122   0.523   4.890
 6374TIP3    H219066   0.976   0.525   4.928
 6375TIP3   OH219067   7.610   5.351   3.800
 6375TIP3    H119068   7.662   5.325   3.724
 6375TIP3    H219069   7.640   5.440   3.820
 6376TIP3   OH219070   0.953   5.938   2.774
 6376TIP3    H119071   1.047   5.940   2.791
 6376TIP3    H219072   0.946   5.949   2.679
 6377TIP3   OH219073   5.777   0.803   4.783
 6377TIP3    H119074   5.802   0.765   4.698
 6377TIP3    H219075   5.852   0.788   4.839
 6378TIP3   OH219076   7.062   0.778   2.770
 6378TIP3    H119077   7.077   0.727   2.690
 6378TIP3    H219078   6.969   0.799   2.768
 6379TIP3   OH219079   7.580   4.397   4.312
 6379TIP3    H119080   7.659   4.381   4.363
 6379TIP3    H219081   7.608   4.459   4.244
 6380TIP3   OH219082   5.122   3.684   5.676
 6380TIP3    H119083   5.216   3.689   5.654
 6380TIP3    H219084   5.104   3.765   5.723
 6381TIP3   OH219085   7.129   4.653   3.520
 6381TIP3    H119086   7.150   4.688   3.433
 6381TIP3    H219087   7.043   4.612   3.509
 6382TIP3   OH219088   4.738   1.524   3.273
 6382TIP3    H119089   4.704   1.449   3.223
 6382TIP3    H219090   4.681   1.597   3.250
 6383TIP3   OH219091   7.155   1.449   3.600
 6383TIP3    H119092   7.212   1.453   3.524
 6383TIP3    H219093   7.075   1.407   3.568
 6384TIP3   OH219094   2.008   1.685   1.508
 6384TIP3    H119095   1.993   1.591   1.523
 6384TIP3    H219096   2.091   1.703   1.550
 6385TIP3   OH219097   1.724   3.013   0.570
 6385TIP3    H119098   1.763   2.990   0.654
 6385TIP3    H219099   1.778   3.084   0.536
 6386TIP3   OH219100   0.397   3.255   2.130
 6386TIP3    H119101   0.461   3.323   2.108
 6386TIP3    H219102   0.322   3.303   2.165
 6387TIP3   OH219103   5.589   2.842   4.879
 6387TIP3    H119104   5.594   2.779   4.807
 6387TIP3    H219105   5.654   2.811   4.942
 6388TIP3   OH219106   0.499   1.079   4.714
 6388TIP3    H119107   0.570   1.140   4.693
 6388TIP3    H219108   0.540   1.014   4.771
 6389TIP3   OH219109   5.532   4.168   1.798
 6389TIP3    H119110   5.453   4.117   1.817
 6389TIP3    H219111   5.559   4.138   1.711
 6390TIP3   OH219112   2.053   4.696   2.671
 6390TIP3    H119113   2.064   4.763   2.604
 6390TIP3    H219114   1.958   4.693   2.687
 6391TIP3   OH219115   7.176   1.016   3.277
 6391TIP3    H119116   7.218   1.100   3.293
 6391TIP3    H219117   7.148   1.020   3.185
 6392TIP3   OH219118   4.704   6.352   6.009
 6392TIP3    H119119   4.767   6.385   6.073
 6392TIP3    H219120   4.753   6.348   5.927
 6393TIP3   OH219121   2.722   3.405   2.833
 6393TIP3    H119122   2.789   3.415   2.901
 6393TIP3    H219123   2.701   3.312   2.833
 6394TIP3   OH219124   1.442   1.379   2.676
 6394TIP3    H119125   1.458   1.374   2.582
 6394TIP3    H219126   1.397   1.462   2.688
 6395TIP3   OH219127   6.633   6.724   1.743
 6395TIP3    H119128   6.626   6.645   1.797
 6395TIP3    H219129   6.659   6.793   1.805
 6396TIP3   OH219130   0.828   5.235   0.022
 6396TIP3    H119131   0.891   5.283   0.076
 6396TIP3    H219132   0.824   5.148   0.061
 6397TIP3   OH219133   5.347   0.719   4.312
 6397TIP3    H119134   5.388   0.635   4.292
 6397TIP3    H219135   5.280   0.697   4.377
 6398TIP3   OH219136   2.221   6.304   0.500
 6398TIP3    H119137   2.312   6.328   0.517
 6398TIP3    H219138   2.202   6.343   0.414
 6399TIP3   OH219139   7.701   7.465   1.229
 6399TIP3    H119140   7.656   7.501   1.306
 6399TIP3    H219141   7.794   7.477   1.248
 6400TIP3   OH219142   7.749   4.845   1.512
 6400TIP3    H119143   7.815   4.785   1.548
 6400TIP3    H219144   7.698   4.872   1.588
 6401TIP3   OH219145   6.876   4.978   3.867
 6401TIP3    H119146   6.917   4.892   3.869
 6401TIP3    H219147   6.949   5.040   3.865
 6402TIP3   OH219148   1.037   4.521   2.208
 6402TIP3    H119149   1.125   4.537   2.243
 6402TIP3    H219150   1.029   4.426   2.208
 6403TIP3   OH219151   1.052   1.591   5.021
 6403TIP3    H119152   1.068   1.534   5.096
 6403TIP3    H219153   0.957   1.602   5.018
 6404TIP3   OH219154   5.287   0.833   3.237
 6404TIP3    H119155   5.377   0.802   3.229
 6404TIP3    H219156   5.269   0.832   3.331
 6405TIP3   OH219157   6.117   5.452   2.835
 6405TIP3    H119158   6.103   5.528   2.778
 6405TIP3    H219159   6.180   5.398   2.788
 6406TIP3   OH219160   7.303   4.855   3.826
 6406TIP3    H119161   7.253   4.916   3.772
 6406TIP3    H219162   7.393   4.863   3.795
 6407TIP3   OH219163   2.088   1.827   3.098
 6407TIP3    H119164   2.092   1.804   3.005
 6407TIP3    H219165   2.004   1.873   3.107
 6408TIP3   OH219166   1.117   0.120   6.345
 6408TIP3    H119167   1.065   0.138   6.267
 6408TIP3    H219168   1.202   0.090   6.311
 6409TIP3   OH219169   1.017   0.268   6.125
 6409TIP3    H119170   1.039   0.181   6.089
 6409TIP3    H219171   0.929   0.286   6.091
 6410TIP3   OH219172   6.757   3.654   5.704
 6410TIP3    H119173   6.802   3.680   5.623
 6410TIP3    H219174   6.827   3.617   5.759
 6411TIP3   OH219175   5.545   0.937   1.755
 6411TIP3    H119176   5.498   0.966   1.832
 6411TIP3    H219177   5.477   0.922   1.689
 6412TIP3   OH219178   7.463   2.994   3.232
 6412TIP3    H119179   7.404   3.042   3.290
 6412TIP3    H219180   7.499   2.924   3.287
 6413TIP3   OH219181   5.191   0.266   0.976
 6413TIP3    H119182   5.278   0.230   0.993
 6413TIP3    H219183   5.171   0.240   0.887
 6414TIP3   OH219184   4.591   7.365   5.159
 6414TIP3    H119185   4.665   7.317   5.197
 6414TIP3    H219186   4.552   7.304   5.098
 6415TIP3   OH219187   4.100   3.537   2.902
 6415TIP3    H119188   4.196   3.534   2.904
 6415TIP3    H219189   4.079   3.627   2.876
 6416TIP3   OH219190   0.217   5.258   0.582
 6416TIP3    H119191   0.309   5.267   0.556
 6416TIP3    H219192   0.210   5.310   0.662
 6417TIP3   OH219193   3.405   3.960   1.947
 6417TIP3    H119194   3.365   3.977   2.033
 6417TIP3    H219195   3.489   3.920   1.968
 6418TIP3   OH219196   6.254   2.857   0.820
 6418TIP3    H119197   6.241   2.950   0.803
 6418TIP3    H219198   6.348   2.850   0.839
 6419TIP3   OH219199   1.416   2.610   1.083
 6419TIP3    H119200   1.485   2.636   1.144
 6419TIP3    H219201   1.450   2.532   1.039
 6420TIP3   OH219202   6.526   7.510   2.423
 6420TIP3    H119203   6.433   7.528   2.415
 6420TIP3    H219204   6.533   7.415   2.411
 6421TIP3   OH219205   3.077   4.194   3.159
 6421TIP3    H119206   3.068   4.155   3.071
 6421TIP3    H219207   3.026   4.136   3.215
 6422TIP3   OH219208   3.278   4.572   2.891
 6422TIP3    H119209   3.231   4.578   2.974
 6422TIP3    H219210   3.220   4.615   2.828
 6423TIP3   OH219211   4.881   7.357   1.844
 6423TIP3    H119212   4.889   7.287   1.780
 6423TIP3    H219213   4.925   7.432   1.803
 6424TIP3   OH219214   5.262   2.914   3.144
 6424TIP3    H119215   5.303   2.998   3.127
 6424TIP3    H219216   5.299   2.856   3.077
 6425TIP3   OH219217   1.121   1.378   0.699
 6425TIP3    H119218   1.103   1.470   0.679
 6425TIP3    H219219   1.214   1.376   0.723
 6426TIP3   OH219220   6.267   5.981   2.401
 6426TIP3    H119221   6.190   6.028   2.368
 6426TIP3    H219222   6.321   6.048   2.442
 6427TIP3   OH219223   5.101   0.622   1.773
 6427TIP3    H119224   5.033   0.661   1.827
 6427TIP3    H219225   5.057   0.552   1.725
 6428TIP3   OH219226   2.817   2.184   5.859
 6428TIP3    H119227   2.805   2.270   5.899
 6428TIP3    H219228   2.862   2.201   5.776
 6429TIP3   OH219229   7.785   4.178   1.000
 6429TIP3    H119230   7.699   4.141   0.981
 6429TIP3    H219231   7.832   4.174   0.916
 6430TIP3   OH219232   2.323   4.844   5.254
 6430TIP3    H119233   2.292   4.875   5.339
 6430TIP3    H219234   2.381   4.771   5.275
 6431TIP3   OH219235   4.984   2.077   6.039
 6431TIP3    H119236   4.986   2.166   6.003
 6431TIP3    H219237   4.954   2.022   5.966
 6432TIP3   OH219238   3.845   1.364   4.934
 6432TIP3    H119239   3.793   1.405   4.866
 6432TIP3    H219240   3.926   1.415   4.936
 6433TIP3   OH219241   7.907   1.604   6.443
 6433TIP3    H119242   7.936   1.522   6.483
 6433TIP3    H219243   7.899   1.584   6.350
 6434TIP3   OH219244   5.380   1.288   2.340
 6434TIP3    H119245   5.446   1.315   2.405
 6434TIP3    H219246   5.302   1.270   2.391
 6435TIP3   OH219247   1.376   5.585   4.228
 6435TIP3    H119248   1.385   5.623   4.316
 6435TIP3    H219249   1.463   5.592   4.189
 6436TIP3   OH219250   5.691   6.590   3.760
 6436TIP3    H119251   5.624   6.531   3.794
 6436TIP3    H219252   5.770   6.537   3.756
 6437TIP3   OH219253   3.322   7.086   6.473
 6437TIP3    H119254   3.393   7.072   6.535
 6437TIP3    H219255   3.355   7.154   6.414
 6438TIP3   OH219256   4.912   7.005   2.990
 6438TIP3    H119257   4.855   7.059   3.045
 6438TIP3    H219258   4.942   7.064   2.921
 6439TIP3   OH219259   7.506   6.778   5.683
 6439TIP3    H119260   7.428   6.778   5.628
 6439TIP3    H219261   7.476   6.808   5.768
 6440TIP3   OH219262   3.857   7.471   1.376
 6440TIP3    H119263   3.807   7.428   1.307
 6440TIP3    H219264   3.947   7.442   1.362
 6441TIP3   OH219265   2.979   0.406   3.592
 6441TIP3    H119266   2.989   0.312   3.605
 6441TIP3    H219267   2.888   0.416   3.564
 6442TIP3   OH219268   6.317   0.397   0.650
 6442TIP3    H119269   6.259   0.331   0.690
 6442TIP3    H219270   6.260   0.473   0.636
 6443TIP3   OH219271   1.633   7.429   3.735
 6443TIP3    H119272   1.603   7.373   3.806
 6443TIP3    H219273   1.575   7.505   3.738
 6444TIP3   OH219274   7.771   3.315   3.913
 6444TIP3    H119275   7.706   3.247   3.898
 6444TIP3    H219276   7.720   3.392   3.937
 6445TIP3   OH219277   1.967   5.413   2.088
 6445TIP3    H119278   2.055   5.419   2.125
 6445TIP3    H219279   1.909   5.439   2.159
 6446TIP3   OH219280   2.436   2.684   5.144
 6446TIP3    H119281   2.367   2.638   5.192
 6446TIP3    H219282   2.494   2.718   5.211
 6447TIP3   OH219283   2.219   7.262   4.583
 6447TIP3    H119284   2.304   7.220   4.571
 6447TIP3    H219285   2.174   7.209   4.648
 6448TIP3   OH219286   1.181   3.472   0.162
 6448TIP3    H119287   1.132   3.543   0.204
 6448TIP3    H219288   1.248   3.517   0.111
 6449TIP3   OH219289   1.953   5.068   1.282
 6449TIP3    H119290   1.934   5.134   1.350
 6449TIP3    H219291   1.903   5.098   1.206
 6450TIP3   OH219292   1.403   4.125   1.267
 6450TIP3    H119293   1.364   4.178   1.337
 6450TIP3    H219294   1.496   4.148   1.269
 6451TIP3   OH219295   4.626   6.102   1.607
 6451TIP3    H119296   4.609   6.194   1.589
 6451TIP3    H219297   4.674   6.102   1.690
 6452TIP3   OH219298   7.827   3.262   2.788
 6452TIP3    H119299   7.765   3.333   2.801
 6452TIP3    H219300   7.892   3.274   2.857
 6453TIP3   OH219301   8.103   2.834   3.298
 6453TIP3    H119302   8.036   2.875   3.353
 6453TIP3    H219303   8.058   2.759   3.258
 6454TIP3   OH219304   6.489   4.545   1.456
 6454TIP3    H119305   6.493   4.464   1.404
 6454TIP3    H219306   6.581   4.565   1.475
 6455TIP3   OH219307   6.781   2.088   0.147
 6455TIP3    H119308   6.698   2.136   0.152
 6455TIP3    H219309   6.800   2.082   0.053
 6456TIP3   OH219310   2.212   6.993   2.992
 6456TIP3    H119311   2.271   7.057   2.953
 6456TIP3    H219312   2.125   7.020   2.964
 6457TIP3   OH219313   7.044   2.075   6.643
 6457TIP3    H119314   6.999   2.154   6.614
 6457TIP3    H219315   6.976   2.023   6.686
 6458TIP3   OH219316   1.502   0.497   3.117
 6458TIP3    H119317   1.510   0.578   3.066
 6458TIP3    H219318   1.548   0.431   3.065
 6459TIP3   OH219319   0.731   4.653   5.197
 6459TIP3    H119320   0.766   4.580   5.145
 6459TIP3    H219321   0.669   4.697   5.138
 6460TIP3   OH219322   4.564   0.423   4.666
 6460TIP3    H119323   4.483   0.463   4.696
 6460TIP3    H219324   4.577   0.348   4.724
 6461TIP3   OH219325   6.230   5.156   0.705
 6461TIP3    H119326   6.305   5.129   0.652
 6461TIP3    H219327   6.260   5.233   0.753
 6462TIP3   OH219328   1.979   3.885   5.755
 6462TIP3    H119329   1.897   3.934   5.757
 6462TIP3    H219330   2.042   3.942   5.797
 6463TIP3   OH219331   5.972   3.932   4.683
 6463TIP3    H119332   5.912   3.882   4.740
 6463TIP3    H219333   5.998   4.007   4.736
 6464TIP3   OH219334   5.456   7.689   2.157
 6464TIP3    H119335   5.362   7.691   2.142
 6464TIP3    H219336   5.468   7.622   2.225
 6465TIP3   OH219337   5.786   6.657   1.258
 6465TIP3    H119338   5.789   6.580   1.201
 6465TIP3    H219339   5.693   6.671   1.276
 6466TIP3   OH219340   0.516   7.285   2.978
 6466TIP3    H119341   0.450   7.289   2.909
 6466TIP3    H219342   0.595   7.254   2.934
 6467TIP3   OH219343   6.458   7.045   1.421
 6467TIP3    H119344   6.554   7.041   1.429
 6467TIP3    H219345   6.439   7.138   1.409
 6468TIP3   OH219346   1.318   5.480   1.162
 6468TIP3    H119347   1.236   5.432   1.168
 6468TIP3    H219348   1.316   5.521   1.076
 6469TIP3   OH219349   4.356   6.371   4.801
 6469TIP3    H119350   4.332   6.445   4.857
 6469TIP3    H219351   4.310   6.388   4.718
 6470TIP3   OH219352   0.864   4.967   0.011
 6470TIP3    H119353   0.894   4.985  -0.078
 6470TIP3    H219354   0.888   4.876   0.027
 6471TIP3   OH219355   3.637   1.084   1.083
 6471TIP3    H119356   3.546   1.073   1.054
 6471TIP3    H219357   3.634   1.160   1.140
 6472TIP3   OH219358   5.100   0.252   2.053
 6472TIP3    H119359   5.192   0.227   2.066
 6472TIP3    H219360   5.050   0.191   2.107
 6473TIP3   OH219361   2.640   4.260   4.541
 6473TIP3    H119362   2.667   4.294   4.455
 6473TIP3    H219363   2.558   4.213   4.523
 6474TIP3   OH219364   4.049   4.260   2.056
 6474TIP3    H119365   4.061   4.314   2.134
 6474TIP3    H219366   4.136   4.225   2.038
 6475TIP3   OH219367   3.949   2.740   4.641
 6475TIP3    H119368   3.941   2.779   4.728
 6475TIP3    H219369   3.887   2.667   4.642
 6476TIP3   OH219370   2.469   1.004   6.292
 6476TIP3    H119371   2.456   0.911   6.307
 6476TIP3    H219372   2.555   1.010   6.250
 6477TIP3   OH219373   4.811   6.975   1.216
 6477TIP3    H119374   4.798   6.902   1.155
 6477TIP3    H219375   4.726   6.986   1.258
 6478TIP3   OH219376   2.754   1.162   5.418
 6478TIP3    H119377   2.662   1.185   5.402
 6478TIP3    H219378   2.750   1.089   5.480
 6479TIP3   OH219379   1.753   5.236   3.184
 6479TIP3    H119380   1.782   5.195   3.103
 6479TIP3    H219381   1.664   5.265   3.166
 6480TIP3   OH219382   2.615   1.723   5.546
 6480TIP3    H119383   2.561   1.748   5.622
 6480TIP3    H219384   2.670   1.800   5.530
 6481TIP3   OH219385   4.580   0.454   5.086
 6481TIP3    H119386   4.629   0.478   5.007
 6481TIP3    H219387   4.574   0.535   5.136
 6482TIP3   OH219388   3.922   0.084   4.582
 6482TIP3    H119389   4.007   0.048   4.607
 6482TIP3    H219390   3.862   0.050   4.649
 6483TIP3   OH219391   0.767   4.478   5.700
 6483TIP3    H119392   0.717   4.505   5.777
 6483TIP3    H219393   0.751   4.547   5.635
 6484TIP3   OH219394   7.029   7.375   0.369
 6484TIP3    H119395   6.939   7.394   0.396
 6484TIP3    H219396   7.070   7.335   0.446
 6485TIP3   OH219397   5.675   1.773   5.972
 6485TIP3    H119398   5.630   1.848   5.932
 6485TIP3    H219399   5.618   1.698   5.952
 6486TIP3   OH219400   3.523   0.502   4.868
 6486TIP3    H119401   3.551   0.533   4.954
 6486TIP3    H219402   3.436   0.464   4.884
 6487TIP3   OH219403   3.627   5.363   4.292
 6487TIP3    H119404   3.664   5.324   4.213
 6487TIP3    H219405   3.697   5.418   4.327
 6488TIP3   OH219406   6.731   3.830   6.659
 6488TIP3    H119407   6.818   3.845   6.695
 6488TIP3    H219408   6.671   3.850   6.730
 6489TIP3   OH219409   4.497   0.549   1.052
 6489TIP3    H119410   4.408   0.572   1.025
 6489TIP3    H219411   4.487   0.510   1.138
 6490TIP3   OH219412   3.664   4.764   0.429
 6490TIP3    H119413   3.750   4.739   0.463
 6490TIP3    H219414   3.602   4.728   0.492
 6491TIP3   OH219415   7.039   5.265   2.793
 6491TIP3    H119416   7.055   5.317   2.714
 6491TIP3    H219417   7.114   5.283   2.849
 6492TIP3   OH219418   7.858   4.067   0.748
 6492TIP3    H119419   7.900   3.991   0.788
 6492TIP3    H219420   7.776   4.034   0.711
 6493TIP3   OH219421   5.631   7.729   6.314
 6493TIP3    H119422   5.554   7.707   6.262
 6493TIP3    H219423   5.664   7.645   6.346
 6494TIP3   OH219424   4.459   4.987   1.289
 6494TIP3    H119425   4.510   4.908   1.276
 6494TIP3    H219426   4.390   4.982   1.223
 6495TIP3   OH219427   3.133   1.091   3.531
 6495TIP3    H119428   3.156   1.131   3.448
 6495TIP3    H219429   3.194   1.130   3.594
 6496TIP3   OH219430   5.166  -0.016   0.646
 6496TIP3    H119431   5.161   0.078   0.660
 6496TIP3    H219432   5.244  -0.044   0.693
 6497TIP3   OH219433   6.116   1.191   6.718
 6497TIP3    H119434   6.168   1.154   6.647
 6497TIP3    H219435   6.179   1.211   6.787
 6498TIP3   OH219436   2.376   1.457   0.808
 6498TIP3    H119437   2.459   1.432   0.768
 6498TIP3    H219438   2.401   1.505   0.887
 6499TIP3   OH219439   2.449   0.869   0.054
 6499TIP3    H119440   2.400   0.951   0.056
 6499TIP3    H219441   2.538   0.894   0.079
 6500TIP3   OH219442   8.148   5.169   5.577
 6500TIP3    H119443   8.098   5.155   5.658
 6500TIP3    H219444   8.222   5.109   5.584
 6501TIP3   OH219445   1.162   0.548   5.320
 6501TIP3    H119446   1.116   0.469   5.347
 6501TIP3    H219447   1.223   0.567   5.390
 6502TIP3   OH219448   7.014   5.893   6.164
 6502TIP3    H119449   7.023   5.798   6.152
 6502TIP3    H219450   6.947   5.902   6.231
 6503TIP3   OH219451   5.249   2.762   4.015
 6503TIP3    H119452   5.247   2.755   3.919
 6503TIP3    H219453   5.201   2.684   4.045
 6504TIP3   OH219454   5.778   1.449   5.581
 6504TIP3    H119455   5.824   1.438   5.664
 6504TIP3    H219456   5.699   1.499   5.604
 6505TIP3   OH219457   2.646   5.941   1.517
 6505TIP3    H119458   2.684   5.884   1.583
 6505TIP3    H219459   2.706   5.936   1.442
 6506TIP3   OH219460   5.329   4.723   5.754
 6506TIP3    H119461   5.402   4.664   5.737
 6506TIP3    H219462   5.257   4.665   5.778
 6507TIP3   OH219463   3.294   3.443   5.992
 6507TIP3    H119464   3.301   3.537   6.007
 6507TIP3    H219465   3.367   3.421   5.934
 6508TIP3   OH219466   2.284   1.498   2.234
 6508TIP3    H119467   2.315   1.520   2.322
 6508TIP3    H219468   2.303   1.405   2.224
 6509TIP3   OH219469   2.809   7.280   5.956
 6509TIP3    H119470   2.869   7.354   5.960
 6509TIP3    H219471   2.857   7.213   5.907
 6510TIP3   OH219472   8.224   2.891   0.172
 6510TIP3    H119473   8.238   2.985   0.164
 6510TIP3    H219474   8.145   2.874   0.121
 6511TIP3   OH219475   8.010   2.512   3.107
 6511TIP3    H119476   7.915   2.523   3.100
 6511TIP3    H219477   8.034   2.555   3.189
 6512TIP3   OH219478   1.768   7.340   4.077
 6512TIP3    H119479   1.798   7.371   3.991
 6512TIP3    H219480   1.763   7.245   4.067
 6513TIP3   OH219481   1.513   0.045   1.414
 6513TIP3    H119482   1.424   0.024   1.387
 6513TIP3    H219483   1.516   0.023   1.507
 6514TIP3   OH219484   1.230   5.415   5.202
 6514TIP3    H119485   1.297   5.483   5.193
 6514TIP3    H219486   1.274   5.344   5.249
 6515TIP3   OH219487   4.509   6.161   6.119
 6515TIP3    H119488   4.566   6.151   6.043
 6515TIP3    H219489   4.569   6.177   6.192
 6516TIP3   OH219490   5.905   0.693   0.656
 6516TIP3    H119491   5.975   0.711   0.719
 6516TIP3    H219492   5.824   0.695   0.708
 6517TIP3   OH219493   7.755   7.641   4.996
 6517TIP3    H119494   7.756   7.580   4.922
 6517TIP3    H219495   7.709   7.593   5.065
 6518TIP3   OH219496   3.247   7.407   6.085
 6518TIP3    H119497   3.330   7.426   6.129
 6518TIP3    H219498   3.187   7.475   6.117
 6519TIP3   OH219499   3.353   7.790   2.058
 6519TIP3    H119500   3.307   7.713   2.025
 6519TIP3    H219501   3.378   7.766   2.147
 6520TIP3   OH219502   3.303   7.590   5.038
 6520TIP3    H119503   3.397   7.577   5.049
 6520TIP3    H219504   3.295   7.639   4.956
 6521TIP3   OH219505   6.354   3.469   0.770
 6521TIP3    H119506   6.432   3.426   0.735
 6521TIP3    H219507   6.377   3.491   0.861
 6522TIP3   OH219508   1.806   5.593   1.572
 6522TIP3    H119509   1.822   5.668   1.516
 6522TIP3    H219510   1.824   5.625   1.661
 6523TIP3   OH219511   1.316   3.835   4.149
 6523TIP3    H119512   1.286   3.848   4.239
 6523TIP3    H219513   1.397   3.887   4.144
 6524TIP3   OH219514   5.562   5.794   5.021
 6524TIP3    H119515   5.535   5.794   5.113
 6524TIP3    H219516   5.647   5.749   5.021
 6525TIP3   OH219517   0.729   1.952   1.805
 6525TIP3    H119518   0.791   1.880   1.798
 6525TIP3    H219519   0.764   2.020   1.748
 6526TIP3   OH219520   8.013   7.164   2.755
 6526TIP3    H119521   8.058   7.231   2.704
 6526TIP3    H219522   7.936   7.209   2.790
 6527TIP3   OH219523   0.300   1.599   4.487
 6527TIP3    H119524   0.262   1.515   4.462
 6527TIP3    H219525   0.224   1.654   4.509
 6528TIP3   OH219526   2.506   3.099   6.163
 6528TIP3    H119527   2.430   3.090   6.105
 6528TIP3    H219528   2.501   3.022   6.220
 6529TIP3   OH219529   6.671   4.245   5.324
 6529TIP3    H119530   6.577   4.238   5.306
 6529TIP3    H219531   6.682   4.198   5.407
 6530TIP3   OH219532   7.665   2.343   0.958
 6530TIP3    H119533   7.675   2.280   1.030
 6530TIP3    H219534   7.571   2.362   0.956
 6531TIP3   OH219535   5.211   7.287   0.238
 6531TIP3    H119536   5.186   7.268   0.329
 6531TIP3    H219537   5.144   7.243   0.186
 6532TIP3   OH219538   0.843   4.838   3.338
 6532TIP3    H119539   0.869   4.925   3.309
 6532TIP3    H219540   0.757   4.823   3.297
 6533TIP3   OH219541   3.626   0.066   2.593
 6533TIP3    H119542   3.615   0.002   2.523
 6533TIP3    H219543   3.551   0.124   2.586
 6534TIP3   OH219544   4.027   5.117   2.633
 6534TIP3    H119545   4.119   5.108   2.609
 6534TIP3    H219546   4.029   5.167   2.715
 6535TIP3   OH219547   3.569   4.729   1.202
 6535TIP3    H119548   3.542   4.637   1.199
 6535TIP3    H219549   3.535   4.766   1.120
 6536TIP3   OH219550   0.311   2.212   6.678
 6536TIP3    H119551   0.292   2.286   6.620
 6536TIP3    H219552   0.237   2.152   6.665
 6537TIP3   OH219553   3.043   4.783   2.174
 6537TIP3    H119554   3.002   4.854   2.124
 6537TIP3    H219555   3.086   4.827   2.247
 6538TIP3   OH219556   4.054   0.711   3.747
 6538TIP3    H119557   4.142   0.692   3.713
 6538TIP3    H219558   4.063   0.799   3.786
 6539TIP3   OH219559   0.056   4.616   0.583
 6539TIP3    H119560   0.126   4.573   0.633
 6539TIP3    H219561  -0.019   4.557   0.592
 6540TIP3   OH219562   5.949   2.082   6.792
 6540TIP3    H119563   5.937   2.129   6.709
 6540TIP3    H219564   6.014   2.015   6.773
 6541TIP3   OH219565   0.470   1.344   4.330
 6541TIP3    H119566   0.436   1.317   4.415
 6541TIP3    H219567   0.393   1.375   4.282
 6542TIP3   OH219568   5.622   1.136   6.740
 6542TIP3    H119569   5.680   1.062   6.757
 6542TIP3    H219570   5.622   1.186   6.821
 6543TIP3   OH219571   6.827   0.862   5.220
 6543TIP3    H119572   6.887   0.936   5.231
 6543TIP3    H219573   6.811   0.832   5.310
 6544TIP3   OH219574   7.615   4.973   4.543
 6544TIP3    H119575   7.537   4.918   4.550
 6544TIP3    H219576   7.663   4.957   4.624
 6545TIP3   OH219577   3.760   2.953   6.060
 6545TIP3    H119578   3.752   2.946   6.155
 6545TIP3    H219579   3.680   2.912   6.026
 6546TIP3   OH219580   3.602   5.764   5.247
 6546TIP3    H119581   3.612   5.696   5.314
 6546TIP3    H219582   3.667   5.742   5.180
 6547TIP3   OH219583   2.140   5.547   6.049
 6547TIP3    H119584   2.052   5.572   6.021
 6547TIP3    H219585   2.154   5.595   6.131
 6548TIP3   OH219586   6.798   3.216   0.589
 6548TIP3    H119587   6.870   3.158   0.615
 6548TIP3    H219588   6.813   3.234   0.497
 6549TIP3   OH219589   5.902   4.585   1.843
 6549TIP3    H119590   5.995   4.581   1.867
 6549TIP3    H219591   5.856   4.593   1.926
 6550TIP3   OH219592   5.338   7.457   2.559
 6550TIP3    H119593   5.337   7.469   2.654
 6550TIP3    H219594   5.269   7.516   2.527
 6551TIP3   OH219595   1.566   1.139   0.751
 6551TIP3    H119596   1.554   1.126   0.845
 6551TIP3    H219597   1.496   1.088   0.711
 6552TIP3   OH219598   5.260   5.143   6.542
 6552TIP3    H119599   5.209   5.213   6.583
 6552TIP3    H219600   5.329   5.124   6.605
 6553TIP3   OH219601   1.484   0.679   1.878
 6553TIP3    H119602   1.406   0.623   1.885
 6553TIP3    H219603   1.511   0.671   1.787
 6554TIP3   OH219604   6.469   1.236   2.053
 6554TIP3    H119605   6.465   1.255   1.960
 6554TIP3    H219606   6.555   1.269   2.081
 6555TIP3   OH219607   7.556   2.466   5.418
 6555TIP3    H119608   7.611   2.542   5.440
 6555TIP3    H219609   7.546   2.471   5.323
 6556TIP3   OH219610   5.973   6.449   1.869
 6556TIP3    H119611   5.939   6.526   1.822
 6556TIP3    H219612   6.068   6.459   1.864
 6557TIP3   OH219613   3.778   5.479   3.116
 6557TIP3    H119614   3.854   5.482   3.058
 6557TIP3    H219615   3.804   5.531   3.193
 6558TIP3   OH219616   5.078   2.454   3.852
 6558TIP3    H119617   5.163   2.431   3.889
 6558TIP3    H219618   5.043   2.372   3.818
 6559TIP3   OH219619   2.064   0.775   5.491
 6559TIP3    H119620   2.068   0.801   5.583
 6559TIP3    H219621   2.095   0.684   5.491
 6560TIP3   OH219622   5.020   3.305   5.097
 6560TIP3    H119623   5.033   3.210   5.105
 6560TIP3    H219624   4.939   3.313   5.047
 6561TIP3   OH219625   7.780   0.803   4.299
 6561TIP3    H119626   7.837   0.795   4.223
 6561TIP3    H219627   7.784   0.717   4.342
 6562TIP3   OH219628   1.337   7.711   1.205
 6562TIP3    H119629   1.382   7.717   1.289
 6562TIP3    H219630   1.310   7.620   1.198
 6563TIP3   OH219631   5.077   4.925   4.247
 6563TIP3    H119632   5.103   5.001   4.298
 6563TIP3    H219633   5.132   4.928   4.169
 6564TIP3   OH219634   1.959   5.218   3.786
 6564TIP3    H119635   2.036   5.261   3.823
 6564TIP3    H219636   1.964   5.128   3.817
 6565TIP3   OH219637   1.623   0.168   5.439
 6565TIP3    H119638   1.642   0.102   5.505
 6565TIP3    H219639   1.622   0.251   5.488
 6566TIP3   OH219640   7.221   5.523   4.553
 6566TIP3    H119641   7.296   5.530   4.493
 6566TIP3    H219642   7.237   5.443   4.602
 6567TIP3   OH219643   7.335   6.906   1.681
 6567TIP3    H119644   7.324   6.957   1.762
 6567TIP3    H219645   7.363   6.970   1.616
 6568TIP3   OH219646   2.536   5.369   1.478
 6568TIP3    H119647   2.538   5.277   1.505
 6568TIP3    H219648   2.628   5.395   1.475
 6569TIP3   OH219649   0.023   3.213   1.678
 6569TIP3    H119650  -0.004   3.297   1.641
 6569TIP3    H219651   0.083   3.176   1.614
 6570TIP3   OH219652   3.683   7.343   3.402
 6570TIP3    H119653   3.743   7.271   3.383
 6570TIP3    H219654   3.596   7.307   3.384
 6571TIP3   OH219655   6.375   1.734   5.976
 6571TIP3    H119656   6.308   1.755   6.041
 6571TIP3    H219657   6.415   1.653   6.008
 6572TIP3   OH219658   0.882   7.819   4.479
 6572TIP3    H119659   0.907   7.726   4.482
 6572TIP3    H219660   0.965   7.866   4.485
 6573TIP3   OH219661   1.722   6.563   2.525
 6573TIP3    H119662   1.808   6.602   2.511
 6573TIP3    H219663   1.668   6.636   2.557
 6574TIP3   OH219664   2.963   5.002   3.339
 6574TIP3    H119665   2.871   5.020   3.360
 6574TIP3    H219666   2.960   4.964   3.251
 6575TIP3   OH219667   2.235   2.942   4.081
 6575TIP3    H119668   2.280   2.985   4.154
 6575TIP3    H219669   2.196   2.863   4.120
 6576TIP3   OH219670   1.878   5.600   5.462
 6576TIP3    H119671   1.820   5.557   5.524
 6576TIP3    H219672   1.958   5.546   5.462
 6577TIP3   OH219673   8.010   3.260   2.394
 6577TIP3    H119674   8.031   3.246   2.486
 6577TIP3    H219675   8.034   3.178   2.350
 6578TIP3   OH219676   3.840   7.241   3.160
 6578TIP3    H119677   3.904   7.274   3.223
 6578TIP3    H219678   3.846   7.146   3.167
 6579TIP3   OH219679   6.321   5.597   6.223
 6579TIP3    H119680   6.414   5.585   6.207
 6579TIP3    H219681   6.279   5.564   6.143
 6580TIP3   OH219682   3.674   5.005   3.532
 6580TIP3    H119683   3.685   5.078   3.471
 6580TIP3    H219684   3.706   4.929   3.485
 6581TIP3   OH219685   0.386   7.832   0.114
 6581TIP3    H119686   0.338   7.761   0.072
 6581TIP3    H219687   0.438   7.870   0.043
 6582TIP3   OH219688   6.493   6.215   5.039
 6582TIP3    H119689   6.436   6.139   5.056
 6582TIP3    H219690   6.513   6.249   5.126
 6583TIP3   OH219691   4.213   4.496   0.486
 6583TIP3    H119692   4.291   4.445   0.507
 6583TIP3    H219693   4.247   4.581   0.457
 6584TIP3   OH219694   1.589   7.172   6.166
 6584TIP3    H119695   1.564   7.255   6.206
 6584TIP3    H219696   1.572   7.106   6.233
 6585TIP3   OH219697   0.687   4.172   3.850
 6585TIP3    H119698   0.769   4.145   3.810
 6585TIP3    H219699   0.623   4.108   3.820
 6586TIP3   OH219700   3.203   2.209   0.329
 6586TIP3    H119701   3.110   2.229   0.319
 6586TIP3    H219702   3.243   2.238   0.247
 6587TIP3   OH219703   0.401   4.669   1.542
 6587TIP3    H119704   0.399   4.765   1.539
 6587TIP3    H219705   0.484   4.649   1.585
 6588TIP3   OH219706   4.177   5.486   5.577
 6588TIP3    H119707   4.185   5.392   5.595
 6588TIP3    H219708   4.084   5.504   5.587
 6589TIP3   OH219709   6.394   6.226   5.652
 6589TIP3    H119710   6.449   6.227   5.730
 6589TIP3    H219711   6.424   6.300   5.599
 6590TIP3   OH219712   8.130   7.188   4.603
 6590TIP3    H119713   8.075   7.192   4.681
 6590TIP3    H219714   8.210   7.144   4.634
 6591TIP3   OH219715   7.688   6.286   0.425
 6591TIP3    H119716   7.746   6.346   0.471
 6591TIP3    H219717   7.746   6.228   0.376
 6592TIP3   OH219718   5.274   5.470   0.603
 6592TIP3    H119719   5.360   5.474   0.561
 6592TIP3    H219720   5.227   5.403   0.554
 6593TIP3   OH219721   6.435   0.370   2.969
 6593TIP3    H119722   6.367   0.304   2.988
 6593TIP3    H219723   6.496   0.325   2.911
 6594TIP3   OH219724   0.185   0.773   0.206
 6594TIP3    H119725   0.142   0.779   0.291
 6594TIP3    H219726   0.114   0.758   0.143
 6595TIP3   OH219727   0.410   1.855   4.907
 6595TIP3    H119728   0.347   1.806   4.959
 6595TIP3    H219729   0.396   1.946   4.932
 6596TIP3   OH219730   3.817   5.488   0.609
 6596TIP3    H119731   3.783   5.442   0.686
 6596TIP3    H219732   3.842   5.575   0.643
 6597TIP3   OH219733   2.186   7.352   2.218
 6597TIP3    H119734   2.272   7.394   2.217
 6597TIP3    H219735   2.204   7.259   2.223
 6598TIP3   OH219736   2.421   6.478   4.480
 6598TIP3    H119737   2.470   6.430   4.413
 6598TIP3    H219738   2.485   6.539   4.517
 6599TIP3   OH219739   1.463   6.420   0.764
 6599TIP3    H119740   1.526   6.492   0.755
 6599TIP3    H219741   1.518   6.343   0.781
 6600TIP3   OH219742   3.861   1.083   4.153
 6600TIP3    H119743   3.791   1.031   4.193
 6600TIP3    H219744   3.940   1.031   4.165
 6601TIP3   OH219745   8.101   3.023   1.591
 6601TIP3    H119746   8.141   2.936   1.590
 6601TIP3    H219747   8.163   3.077   1.640
 6602TIP3   OH219748   3.228   5.066   3.696
 6602TIP3    H119749   3.289   5.124   3.650
 6602TIP3    H219750   3.191   5.120   3.765
 6603TIP3   OH219751   0.072   4.271   4.757
 6603TIP3    H119752   0.055   4.360   4.726
 6603TIP3    H219753   0.124   4.231   4.687
 6604TIP3   OH219754   5.821   1.790   5.650
 6604TIP3    H119755   5.730   1.789   5.619
 6604TIP3    H219756   5.824   1.722   5.717
 6605TIP3   OH219757   0.378   7.464   0.708
 6605TIP3    H119758   0.369   7.487   0.801
 6605TIP3    H219759   0.350   7.542   0.661
 6606TIP3   OH219760   3.330   1.107   0.223
 6606TIP3    H119761   3.292   1.023   0.198
 6606TIP3    H219762   3.294   1.125   0.310
 6607TIP3   OH219763   6.324   4.740   0.798
 6607TIP3    H119764   6.262   4.731   0.726
 6607TIP3    H219765   6.270   4.761   0.874
 6608TIP3   OH219766   7.198   5.845   3.061
 6608TIP3    H119767   7.173   5.810   3.147
 6608TIP3    H219768   7.118   5.887   3.028
 6609TIP3   OH219769   6.913   6.754   6.692
 6609TIP3    H119770   6.842   6.692   6.679
 6609TIP3    H219771   6.965   6.749   6.612
 6610TIP3   OH219772   4.021   2.204   4.020
 6610TIP3    H119773   4.069   2.245   3.948
 6610TIP3    H219774   3.945   2.261   4.033
 6611TIP3   OH219775   0.609   4.702   6.295
 6611TIP3    H119776   0.555   4.692   6.374
 6611TIP3    H219777   0.577   4.634   6.236
 6612TIP3   OH219778   5.267   4.074   2.187
 6612TIP3    H119779   5.199   4.104   2.249
 6612TIP3    H219780   5.346   4.118   2.215
 6613TIP3   OH219781   7.289   2.019   1.980
 6613TIP3    H119782   7.286   1.928   1.950
 6613TIP3    H219783   7.344   2.016   2.058
 6614TIP3   OH219784   0.252   6.547   4.807
 6614TIP3    H119785   0.166   6.528   4.845
 6614TIP3    H219786   0.301   6.465   4.817
 6615TIP3   OH219787   2.786   4.632   3.384
 6615TIP3    H119788   2.751   4.708   3.338
 6615TIP3    H219789   2.878   4.630   3.362
 6616TIP3   OH219790   3.943   7.041   0.718
 6616TIP3    H119791   4.013   7.083   0.769
 6616TIP3    H219792   3.930   7.100   0.643
 6617TIP3   OH219793   8.101   1.497   3.606
 6617TIP3    H119794   8.036   1.468   3.542
 6617TIP3    H219795   8.170   1.537   3.554
 6618TIP3   OH219796   2.755   5.752   4.455
 6618TIP3    H119797   2.815   5.742   4.530
 6618TIP3    H219798   2.794   5.822   4.403
 6619TIP3   OH219799   2.398   6.572   0.794
 6619TIP3    H119800   2.348   6.612   0.723
 6619TIP3    H219801   2.489   6.578   0.766
 6620TIP3   OH219802   1.217   7.635   3.780
 6620TIP3    H119803   1.162   7.563   3.811
 6620TIP3    H219804   1.155   7.703   3.754
 6621TIP3   OH219805   2.186   5.499   0.599
 6621TIP3    H119806   2.126   5.428   0.619
 6621TIP3    H219807   2.260   5.487   0.659
 6622TIP3   OH219808   3.961   4.640   1.514
 6622TIP3    H119809   3.969   4.662   1.421
 6622TIP3    H219810   4.002   4.713   1.560
 6623TIP3   OH219811   6.300   5.543   0.036
 6623TIP3    H119812   6.392   5.519   0.025
 6623TIP3    H219813   6.284   5.609  -0.032
 6624TIP3   OH219814   1.133   5.673   1.739
 6624TIP3    H119815   1.080   5.627   1.803
 6624TIP3    H219816   1.070   5.699   1.671
 6625TIP3   OH219817   0.820   1.336   5.326
 6625TIP3    H119818   0.759   1.317   5.255
 6625TIP3    H219819   0.813   1.260   5.384
 6626TIP3   OH219820   5.623   5.163   3.279
 6626TIP3    H119821   5.529   5.166   3.296
 6626TIP3    H219822   5.660   5.121   3.357
 6627TIP3   OH219823   0.221   3.443   1.543
 6627TIP3    H119824   0.271   3.516   1.579
 6627TIP3    H219825   0.210   3.382   1.616
 6628TIP3   OH219826   4.196   4.625   5.914
 6628TIP3    H119827   4.179   4.565   5.841
 6628TIP3    H219828   4.195   4.712   5.874
 6629TIP3   OH219829   1.614   2.964   0.143
 6629TIP3    H119830   1.670   3.039   0.128
 6629TIP3    H219831   1.570   2.949   0.059
 6630TIP3   OH219832   7.080   3.424   1.966
 6630TIP3    H119833   7.086   3.519   1.976
 6630TIP3    H219834   7.149   3.402   1.903
 6631TIP3   OH219835   1.429   2.390   0.210
 6631TIP3    H119836   1.431   2.415   0.117
 6631TIP3    H219837   1.396   2.467   0.256
 6632TIP3   OH219838   8.235   7.309   1.006
 6632TIP3    H119839   8.325   7.334   1.026
 6632TIP3    H219840   8.193   7.390   0.976
 6633TIP3   OH219841   4.564   2.901   6.689
 6633TIP3    H119842   4.597   2.986   6.717
 6633TIP3    H219843   4.576   2.844   6.765
 6634TIP3   OH219844   0.846   1.879   0.498
 6634TIP3    H119845   0.817   1.842   0.581
 6634TIP3    H219846   0.882   1.964   0.521
 6635TIP3   OH219847   1.888   6.937   3.781
 6635TIP3    H119848   1.827   6.900   3.845
 6635TIP3    H219849   1.873   7.031   3.783
 6636TIP3   OH219850   7.321   0.701   2.442
 6636TIP3    H119851   7.367   0.646   2.505
 6636TIP3    H219852   7.244   0.650   2.417
 6637TIP3   OH219853   2.481   1.691   2.089
 6637TIP3    H119854   2.418   1.660   2.153
 6637TIP3    H219855   2.538   1.750   2.138
 6638TIP3   OH219856   0.776   7.292   4.658
 6638TIP3    H119857   0.741   7.206   4.682
 6638TIP3    H219858   0.782   7.290   4.563
 6639TIP3   OH219859   0.652   3.451   3.466
 6639TIP3    H119860   0.614   3.537   3.484
 6639TIP3    H219861   0.631   3.398   3.543
 6640TIP3   OH219862   4.927   1.804   5.253
 6640TIP3    H119863   4.973   1.725   5.284
 6640TIP3    H219864   4.908   1.853   5.332
 6641TIP3   OH219865   0.541   5.099   1.197
 6641TIP3    H119866   0.463   5.113   1.251
 6641TIP3    H219867   0.609   5.071   1.258
 6642TIP3   OH219868   0.335   0.766   1.636
 6642TIP3    H119869   0.277   0.805   1.701
 6642TIP3    H219870   0.360   0.838   1.578
 6643TIP3   OH219871   6.368   0.681   2.418
 6643TIP3    H119872   6.294   0.673   2.478
 6643TIP3    H219873   6.340   0.635   2.339
 6644TIP3   OH219874   5.757   6.971   5.465
 6644TIP3    H119875   5.733   6.993   5.555
 6644TIP3    H219876   5.731   7.047   5.414
 6645TIP3   OH219877   2.014   5.436   5.754
 6645TIP3    H119878   2.021   5.408   5.662
 6645TIP3    H219879   2.006   5.355   5.803
 6646TIP3   OH219880   6.254   3.952   2.162
 6646TIP3    H119881   6.329   3.968   2.104
 6646TIP3    H219882   6.251   4.029   2.218
 6647TIP3   OH219883   3.242   7.334   0.608
 6647TIP3    H119884   3.323   7.291   0.581
 6647TIP3    H219885   3.215   7.286   0.686
 6648TIP3   OH219886   6.739   1.993   4.282
 6648TIP3    H119887   6.717   1.951   4.365
 6648TIP3    H219888   6.676   2.065   4.274
 6649TIP3   OH219889   3.564   2.904   3.265
 6649TIP3    H119890   3.493   2.840   3.276
 6649TIP3    H219891   3.575   2.943   3.352
 6650TIP3   OH219892   1.156   2.580   6.012
 6650TIP3    H119893   1.118   2.657   6.054
 6650TIP3    H219894   1.134   2.508   6.071
 6651TIP3   OH219895   2.410   2.710   1.753
 6651TIP3    H119896   2.425   2.712   1.658
 6651TIP3    H219897   2.344   2.642   1.765
 6652TIP3   OH219898   3.059   0.153   5.590
 6652TIP3    H119899   2.990   0.121   5.648
 6652TIP3    H219900   3.048   0.103   5.509
 6653TIP3   OH219901   2.290   5.439   5.831
 6653TIP3    H119902   2.287   5.475   5.920
 6653TIP3    H219903   2.198   5.436   5.804
 6654TIP3   OH219904   2.705   6.816   2.228
 6654TIP3    H119905   2.668   6.881   2.168
 6654TIP3    H219906   2.724   6.740   2.172
 6655TIP3   OH219907   8.288   0.880   3.232
 6655TIP3    H119908   8.218   0.943   3.252
 6655TIP3    H219909   8.243   0.796   3.223
 6656TIP3   OH219910   5.571   3.643   2.616
 6656TIP3    H119911   5.646   3.699   2.595
 6656TIP3    H219912   5.508   3.661   2.546
 6657TIP3   OH219913   4.768   3.265   6.540
 6657TIP3    H119914   4.807   3.350   6.519
 6657TIP3    H219915   4.756   3.222   6.456
 6658TIP3   OH219916   0.244   0.223   2.772
 6658TIP3    H119917   0.174   0.171   2.811
 6658TIP3    H219918   0.309   0.158   2.743
 6659TIP3   OH219919   0.042   6.245   4.548
 6659TIP3    H119920   0.137   6.248   4.532
 6659TIP3    H219921   0.004   6.288   4.472
 6660TIP3   OH219922   3.875   4.838   1.748
 6660TIP3    H119923   3.818   4.776   1.704
 6660TIP3    H219924   3.835   4.851   1.834
 6661TIP3   OH219925   4.944   1.293   4.859
 6661TIP3    H119926   4.922   1.341   4.938
 6661TIP3    H219927   4.934   1.201   4.884
 6662TIP3   OH219928   3.887   3.551   0.869
 6662TIP3    H119929   3.959   3.488   0.874
 6662TIP3    H219930   3.814   3.501   0.832
 6663TIP3   OH219931   2.151   3.170   2.055
 6663TIP3    H119932   2.111   3.146   2.138
 6663TIP3    H219933   2.229   3.115   2.049
 6664TIP3   OH219934   7.335   0.252   0.699
 6664TIP3    H119935   7.393   0.182   0.671
 6664TIP3    H219936   7.295   0.284   0.618
 6665TIP3   OH219937   6.070   4.339   1.689
 6665TIP3    H119938   6.015   4.411   1.719
 6665TIP3    H219939   6.125   4.378   1.620
 6666TIP3   OH219940   4.668   3.356   3.500
 6666TIP3    H119941   4.635   3.367   3.411
 6666TIP3    H219942   4.601   3.397   3.555
 6667TIP3   OH219943   6.010   4.424   2.598
 6667TIP3    H119944   6.025   4.475   2.678
 6667TIP3    H219945   5.992   4.335   2.630
 6668TIP3   OH219946   4.873   0.123   2.143
 6668TIP3    H119947   4.925   0.087   2.214
 6668TIP3    H219948   4.787   0.081   2.152
 6669TIP3   OH219949   0.421   3.835   0.672
 6669TIP3    H119950   0.464   3.768   0.620
 6669TIP3    H219951   0.405   3.794   0.757
 6670TIP3   OH219952   3.670   1.096   1.655
 6670TIP3    H119953   3.636   1.185   1.656
 6670TIP3    H219954   3.681   1.076   1.562
 6671TIP3   OH219955   8.286   6.098   0.871
 6671TIP3    H119956   8.221   6.105   0.941
 6671TIP3    H219957   8.371   6.097   0.917
 6672TIP3   OH219958   2.490   1.108   3.765
 6672TIP3    H119959   2.499   1.109   3.670
 6672TIP3    H219960   2.438   1.030   3.784
 6673TIP3   OH219961   2.247   7.458   0.385
 6673TIP3    H119962   2.234   7.473   0.479
 6673TIP3    H219963   2.174   7.402   0.359
 6674TIP3   OH219964   0.961   5.659   3.266
 6674TIP3    H119965   1.024   5.728   3.283
 6674TIP3    H219966   0.878   5.705   3.252
 6675TIP3   OH219967   4.645   6.648   2.813
 6675TIP3    H119968   4.645   6.734   2.770
 6675TIP3    H219969   4.724   6.604   2.781
 6676TIP3   OH219970   1.549   4.333   4.988
 6676TIP3    H119971   1.505   4.251   5.013
 6676TIP3    H219972   1.519   4.397   5.052
 6677TIP3   OH219973   4.389   0.007   4.844
 6677TIP3    H119974   4.480  -0.019   4.829
 6677TIP3    H219975   4.395   0.097   4.875
 6678TIP3   OH219976   2.795   5.014   2.472
 6678TIP3    H119977   2.870   5.055   2.514
 6678TIP3    H219978   2.740   4.983   2.544
 6679TIP3   OH219979   4.338   1.455   5.653
 6679TIP3    H119980   4.381   1.493   5.576
 6679TIP3    H219981   4.254   1.500   5.658
 6680TIP3   OH219982   4.487   6.277   5.090
 6680TIP3    H119983   4.514   6.239   5.006
 6680TIP3    H219984   4.463   6.201   5.144
 6681TIP3   OH219985   5.943   2.519   2.876
 6681TIP3    H119986   5.985   2.444   2.835
 6681TIP3    H219987   5.945   2.500   2.969
 6682TIP3   OH219988   2.481   4.685   2.159
 6682TIP3    H119989   2.496   4.656   2.069
 6682TIP3    H219990   2.566   4.714   2.190
 6683TIP3   OH219991   4.542   7.185   0.925
 6683TIP3    H119992   4.458   7.178   0.879
 6683TIP3    H219993   4.536   7.268   0.972
 6684TIP3   OH219994   4.894   4.496   3.688
 6684TIP3    H119995   4.840   4.429   3.646
 6684TIP3    H219996   4.855   4.579   3.662
 6685TIP3   OH219997   1.998   3.309   4.909
 6685TIP3    H119998   1.997   3.219   4.876
 6685TIP3    H219999   1.929   3.353   4.861
 6686TIP3   OH220000   7.759   1.263   2.229
 6686TIP3    H120001   7.846   1.228   2.252
 6686TIP3    H220002   7.773   1.309   2.146
 6687TIP3   OH220003   0.685   3.823   6.160
 6687TIP3    H120004   0.731   3.884   6.218
 6687TIP3    H220005   0.748   3.751   6.147
 6688TIP3   OH220006   1.656   0.545   2.273
 6688TIP3    H120007   1.703   0.616   2.231
 6688TIP3    H220008   1.565   0.557   2.246
 6689TIP3   OH220009   7.182   1.056   5.038
 6689TIP3    H120010   7.157   1.052   4.946
 6689TIP3    H220011   7.263   1.005   5.043
 6690TIP3   OH220012   1.401   6.287   5.166
 6690TIP3    H120013   1.387   6.309   5.074
 6690TIP3    H220014   1.368   6.198   5.176
 6691TIP3   OH220015   8.179   2.443   2.205
 6691TIP3    H120016   8.125   2.435   2.284
 6691TIP3    H220017   8.234   2.519   2.221
 6692TIP3   OH220018   4.462   0.998   5.356
 6692TIP3    H120019   4.412   1.045   5.423
 6692TIP3    H220020   4.547   0.981   5.397
 6693TIP3   OH220021   1.904   7.265   5.347
 6693TIP3    H120022   1.966   7.209   5.301
 6693TIP3    H220023   1.956   7.340   5.377
 6694TIP3   OH220024   4.633   7.408   4.275
 6694TIP3    H120025   4.602   7.319   4.291
 6694TIP3    H220026   4.568   7.446   4.216
 6695TIP3   OH220027   6.757   1.430   6.004
 6695TIP3    H120028   6.741   1.509   5.952
 6695TIP3    H220029   6.783   1.364   5.939
 6696TIP3   OH220030   5.330   1.675   6.419
 6696TIP3    H120031   5.404   1.736   6.415
 6696TIP3    H220032   5.290   1.680   6.332
 6697TIP3   OH220033   2.557   2.487   3.350
 6697TIP3    H120034   2.491   2.425   3.381
 6697TIP3    H220035   2.582   2.454   3.264
 6698TIP3   OH220036   0.941   7.519   0.855
 6698TIP3    H120037   0.943   7.542   0.762
 6698TIP3    H220038   0.951   7.424   0.856
 6699TIP3   OH220039   3.422   1.510   0.348
 6699TIP3    H120040   3.445   1.433   0.295
 6699TIP3    H220041   3.426   1.479   0.438
 6700TIP3   OH220042   4.088   4.549   3.786
 6700TIP3    H120043   4.032   4.536   3.863
 6700TIP3    H220044   4.157   4.484   3.795
 6701TIP3   OH220045   2.129   3.222   5.160
 6701TIP3    H120046   2.112   3.311   5.192
 6701TIP3    H220047   2.132   3.232   5.064
 6702TIP3   OH220048   6.046   6.783   3.567
 6702TIP3    H120049   5.982   6.782   3.496
 6702TIP3    H220050   6.016   6.854   3.625
 6703TIP3   OH220051   4.041   7.364   5.306
 6703TIP3    H120052   4.103   7.434   5.328
 6703TIP3    H220053   4.005   7.336   5.391
 6704TIP3   OH220054   1.629   0.418   6.404
 6704TIP3    H120055   1.552   0.405   6.348
 6704TIP3    H220056   1.602   0.485   6.467
 6705TIP3   OH220057   0.409   4.405   6.701
 6705TIP3    H120058   0.393   4.446   6.786
 6705TIP3    H220059   0.337   4.435   6.646
 6706TIP3   OH220060   3.684   1.216   2.730
 6706TIP3    H120061   3.604   1.166   2.714
 6706TIP3    H220062   3.675   1.248   2.820
 6707TIP3   OH220063   5.240   3.425   3.147
 6707TIP3    H120064   5.274   3.414   3.236
 6707TIP3    H220065   5.146   3.437   3.159
 6708TIP3   OH220066   3.593   4.446   2.423
 6708TIP3    H120067   3.527   4.483   2.481
 6708TIP3    H220068   3.568   4.354   2.413
 6709TIP3   OH220069   5.356   6.589   4.473
 6709TIP3    H120070   5.406   6.509   4.487
 6709TIP3    H220071   5.267   6.558   4.453
 6710TIP3   OH220072   4.181   6.137   5.605
 6710TIP3    H120073   4.226   6.172   5.528
 6710TIP3    H220074   4.252   6.109   5.664
 6711TIP3   OH220075   7.943   2.971   4.134
 6711TIP3    H120076   7.859   2.928   4.149
 6711TIP3    H220077   8.005   2.921   4.187
 6712TIP3   OH220078   0.598   5.650   1.626
 6712TIP3    H120079   0.658   5.665   1.553
 6712TIP3    H220080   0.654   5.647   1.703
 6713TIP3   OH220081   6.022   0.774   5.785
 6713TIP3    H120082   5.994   0.801   5.873
 6713TIP3    H220083   6.063   0.689   5.798
 6714TIP3   OH220084   7.453   7.780   4.411
 6714TIP3    H120085   7.405   7.759   4.331
 6714TIP3    H220086   7.390   7.763   4.481
 6715TIP3   OH220087   3.577   2.395   6.306
 6715TIP3    H120088   3.648   2.435   6.356
 6715TIP3    H220089   3.621   2.334   6.246
 6716TIP3   OH220090   7.896   6.257   5.788
 6716TIP3    H120091   7.821   6.225   5.838
 6716TIP3    H220092   7.862   6.272   5.700
 6717TIP3   OH220093   0.299   0.268   5.981
 6717TIP3    H120094   0.328   0.288   5.892
 6717TIP3    H220095   0.263   0.180   5.975
 6718TIP3   OH220096   6.490   5.926   4.228
 6718TIP3    H120097   6.420   5.976   4.185
 6718TIP3    H220098   6.526   5.871   4.159
 6719TIP3   OH220099   2.634   4.104   4.895
 6719TIP3    H120100   2.545   4.093   4.861
 6719TIP3    H220101   2.676   4.020   4.878
 6720TIP3   OH220102   7.962   4.610   0.633
 6720TIP3    H120103   7.932   4.700   0.627
 6720TIP3    H220104   7.935   4.570   0.550
 6721TIP3   OH220105   1.015   5.360   1.590
 6721TIP3    H120106   1.108   5.340   1.603
 6721TIP3    H220107   1.015   5.450   1.555
 6722TIP3   OH220108   0.167   6.478   5.170
 6722TIP3    H120109   0.230   6.496   5.240
 6722TIP3    H220110   0.196   6.395   5.133
 6723TIP3   OH220111   3.118   7.588   0.637
 6723TIP3    H120112   3.185   7.519   0.641
 6723TIP3    H220113   3.042   7.550   0.682
 6724TIP3   OH220114   4.367   0.739   1.644
 6724TIP3    H120115   4.313   0.745   1.723
 6724TIP3    H220116   4.312   0.693   1.581
 6725TIP3   OH220117   6.643   2.066   1.845
 6725TIP3    H120118   6.674   2.130   1.781
 6725TIP3    H220119   6.609   1.994   1.792
 6726TIP3   OH220120   5.632   3.274   0.802
 6726TIP3    H120121   5.724   3.268   0.775
 6726TIP3    H220122   5.622   3.365   0.831
 6727TIP3   OH220123   7.471   2.223   0.274
 6727TIP3    H120124   7.465   2.153   0.209
 6727TIP3    H220125   7.554   2.267   0.254
 6728TIP3   OH220126   4.930   7.143   2.708
 6728TIP3    H120127   4.875   7.100   2.641
 6728TIP3    H220128   5.000   7.184   2.658
 6729TIP3   OH220129   0.796   3.208   6.572
 6729TIP3    H120130   0.837   3.213   6.658
 6729TIP3    H220131   0.713   3.255   6.583
 6730TIP3   OH220132   5.004   7.612   4.347
 6730TIP3    H120133   4.923   7.651   4.381
 6730TIP3    H220134   5.053   7.685   4.310
 6731TIP3   OH220135   4.214   3.152   0.948
 6731TIP3    H120136   4.305   3.142   0.918
 6731TIP3    H220137   4.184   3.063   0.965
 6732TIP3   OH220138   0.948   2.059   3.113
 6732TIP3    H120139   0.922   2.059   3.205
 6732TIP3    H220140   1.023   2.117   3.108
 6733TIP3   OH220141   5.380   0.408   3.866
 6733TIP3    H120142   5.336   0.453   3.794
 6733TIP3    H220143   5.439   0.473   3.902
 6734TIP3   OH220144   1.778   6.118   0.760
 6734TIP3    H120145   1.729   6.049   0.805
 6734TIP3    H220146   1.762   6.196   0.814
 6735TIP3   OH220147   3.412   3.528   0.147
 6735TIP3    H120148   3.334   3.552   0.096
 6735TIP3    H220149   3.485   3.564   0.098
 6736TIP3   OH220150   8.042   3.150   2.657
 6736TIP3    H120151   7.973   3.214   2.676
 6736TIP3    H220152   8.088   3.139   2.740
 6737TIP3   OH220153   7.759   2.778   6.201
 6737TIP3    H120154   7.785   2.859   6.157
 6737TIP3    H220155   7.680   2.750   6.154
 6738TIP3   OH220156   2.910   6.171   2.911
 6738TIP3    H120157   2.937   6.110   2.979
 6738TIP3    H220158   2.955   6.140   2.832
 6739TIP3   OH220159   5.914   0.165   6.715
 6739TIP3    H120160   5.999   0.124   6.702
 6739TIP3    H220161   5.932   0.259   6.710
 6740TIP3   OH220162   8.156   1.531   3.986
 6740TIP3    H120163   8.155   1.463   3.919
 6740TIP3    H220164   8.099   1.498   4.055
 6741TIP3   OH220165   4.702   7.763   5.366
 6741TIP3    H120166   4.652   7.764   5.447
 6741TIP3    H220167   4.690   7.851   5.330
 6742TIP3   OH220168   7.346   2.421   2.073
 6742TIP3    H120169   7.379   2.485   2.135
 6742TIP3    H220170   7.376   2.337   2.107
 6743TIP3   OH220171   2.043   0.595   0.505
 6743TIP3    H120172   1.951   0.614   0.486
 6743TIP3    H220173   2.080   0.567   0.421
 6744TIP3   OH220174   4.889   4.415   1.854
 6744TIP3    H120175   4.882   4.444   1.946
 6744TIP3    H220176   4.965   4.463   1.820
 6745TIP3   OH220177   4.243   5.760   5.783
 6745TIP3    H120178   4.316   5.803   5.827
 6745TIP3    H220179   4.242   5.671   5.818
 6746TIP3   OH220180   0.147   4.389   6.595
 6746TIP3    H120181   0.098   4.317   6.636
 6746TIP3    H220182   0.107   4.468   6.629
 6747TIP3   OH220183   7.700   1.465   0.765
 6747TIP3    H120184   7.675   1.498   0.678
 6747TIP3    H220185   7.689   1.541   0.823
 6748TIP3   OH220186   2.682   1.565   1.947
 6748TIP3    H120187   2.739   1.541   2.020
 6748TIP3    H220188   2.605   1.604   1.988
 6749TIP3   OH220189   0.134   2.708   0.094
 6749TIP3    H120190   0.183   2.755   0.027
 6749TIP3    H220191   0.057   2.763   0.111
 6750TIP3   OH220192   6.496   3.903   2.950
 6750TIP3    H120193   6.423   3.951   2.988
 6750TIP3    H220194   6.552   3.970   2.911
 6751TIP3   OH220195   5.445   4.220   3.161
 6751TIP3    H120196   5.433   4.233   3.067
 6751TIP3    H220197   5.382   4.279   3.202
 6752TIP3   OH220198   7.273   3.372   4.090
 6752TIP3    H120199   7.335   3.341   4.156
 6752TIP3    H220200   7.246   3.459   4.121
 6753TIP3   OH220201   6.991   3.837   1.030
 6753TIP3    H120202   6.922   3.782   1.068
 6753TIP3    H220203   7.057   3.841   1.099
 6754TIP3   OH220204   1.165   2.542   3.914
 6754TIP3    H120205   1.166   2.561   4.008
 6754TIP3    H220206   1.102   2.605   3.878
 6755TIP3   OH220207   4.814   1.509   5.025
 6755TIP3    H120208   4.779   1.572   4.962
 6755TIP3    H220209   4.813   1.555   5.109
 6756TIP3   OH220210   7.273   5.807   6.684
 6756TIP3    H120211   7.224   5.857   6.619
 6756TIP3    H220212   7.339   5.760   6.633
 6757TIP3   OH220213   5.069   5.235   5.261
 6757TIP3    H120214   5.140   5.197   5.313
 6757TIP3    H220215   5.080   5.330   5.272
 6758TIP3   OH220216   4.773   0.040   4.911
 6758TIP3    H120217   4.735   0.016   4.826
 6758TIP3    H220218   4.865   0.013   4.905
 6759TIP3   OH220219   6.700   7.788   3.602
 6759TIP3    H120220   6.672   7.879   3.591
 6759TIP3    H220221   6.632   7.737   3.557
 6760TIP3   OH220222   6.583   4.667   0.433
 6760TIP3    H120223   6.586   4.639   0.524
 6760TIP3    H220224   6.490   4.681   0.416
 6761TIP3   OH220225   7.615   0.551   6.713
 6761TIP3    H120226   7.683   0.589   6.657
 6761TIP3    H220227   7.634   0.584   6.800
 6762TIP3   OH220228   0.341   7.300   2.768
 6762TIP3    H120229   0.346   7.236   2.697
 6762TIP3    H220230   0.257   7.344   2.754
 6763TIP3   OH220231   3.059   0.613   2.468
 6763TIP3    H120232   3.041   0.519   2.478
 6763TIP3    H220233   2.987   0.656   2.515
 6764TIP3   OH220234   2.594   3.582   2.117
 6764TIP3    H120235   2.665   3.624   2.068
 6764TIP3    H220236   2.613   3.601   2.209
 6765TIP3   OH220237   6.792   2.365   3.514
 6765TIP3    H120238   6.736   2.414   3.574
 6765TIP3    H220239   6.817   2.428   3.447
 6766TIP3   OH220240   5.742   7.513   6.433
 6766TIP3    H120241   5.763   7.427   6.469
 6766TIP3    H220242   5.689   7.555   6.501
 6767TIP3   OH220243   1.875   2.723   4.758
 6767TIP3    H120244   1.788   2.686   4.745
 6767TIP3    H220245   1.918   2.714   4.673
 6768TIP3   OH220246   0.490   1.325   4.913
 6768TIP3    H120247   0.484   1.229   4.913
 6768TIP3    H220248   0.489   1.349   5.006
 6769TIP3   OH220249   1.859   4.146   5.676
 6769TIP3    H120250   1.905   4.218   5.719
 6769TIP3    H220251   1.821   4.185   5.598
 6770TIP3   OH220252   8.260   1.128   2.290
 6770TIP3    H120253   8.187   1.157   2.235
 6770TIP3    H220254   8.222   1.059   2.345
 6771TIP3   OH220255   4.082   3.361   0.820
 6771TIP3    H120256   4.122   3.317   0.895
 6771TIP3    H220257   4.065   3.290   0.758
 6772TIP3   OH220258   1.853   1.030   4.140
 6772TIP3    H120259   1.869   0.946   4.182
 6772TIP3    H220260   1.882   1.018   4.050
 6773TIP3   OH220261   7.914   5.406   1.520
 6773TIP3    H120262   7.947   5.495   1.535
 6773TIP3    H220263   7.833   5.401   1.570
 6774TIP3   OH220264   0.752   3.667   0.804
 6774TIP3    H120265   0.797   3.601   0.857
 6774TIP3    H220266   0.802   3.670   0.722
 6775TIP3   OH220267   4.065   2.294   3.598
 6775TIP3    H120268   4.066   2.223   3.662
 6775TIP3    H220269   3.973   2.319   3.590
 6776TIP3   OH220270   2.030   6.656   0.236
 6776TIP3    H120271   1.986   6.687   0.157
 6776TIP3    H220272   1.981   6.695   0.308
 6777TIP3   OH220273   6.123   7.138   4.246
 6777TIP3    H120274   6.048   7.109   4.194
 6777TIP3    H220275   6.138   7.228   4.219
 6778TIP3   OH220276   6.112   6.843   6.587
 6778TIP3    H120277   6.172   6.911   6.616
 6778TIP3    H220278   6.025   6.876   6.607
 6779TIP3   OH220279   5.782   1.406   0.541
 6779TIP3    H120280   5.738   1.336   0.588
 6779TIP3    H220281   5.776   1.382   0.449
 6780TIP3   OH220282   7.766   3.952   1.431
 6780TIP3    H120283   7.701   3.975   1.365
 6780TIP3    H220284   7.819   4.031   1.442
 6781TIP3   OH220285   1.586   5.692   1.158
 6781TIP3    H120286   1.508   5.680   1.103
 6781TIP3    H220287   1.660   5.677   1.100
 6782TIP3   OH220288   7.476   3.656   1.074
 6782TIP3    H120289   7.400   3.714   1.081
 6782TIP3    H220290   7.450   3.577   1.121
 6783TIP3   OH220291   1.829   2.181   6.765
 6783TIP3    H120292   1.735   2.175   6.746
 6783TIP3    H220293   1.857   2.090   6.775
 6784TIP3   OH220294   0.717   1.424   4.845
 6784TIP3    H120295   0.624   1.413   4.863
 6784TIP3    H220296   0.742   1.346   4.796
 6785TIP3   OH220297   5.086   1.821   2.887
 6785TIP3    H120298   5.051   1.764   2.818
 6785TIP3    H220299   5.026   1.895   2.890
 6786TIP3   OH220300   7.941   6.625   5.646
 6786TIP3    H120301   7.926   6.717   5.669
 6786TIP3    H220302   8.004   6.594   5.711
 6787TIP3   OH220303   2.961   0.172   4.283
 6787TIP3    H120304   2.906   0.196   4.208
 6787TIP3    H220305   3.050   0.168   4.247
 6788TIP3   OH220306   6.076   5.696   2.689
 6788TIP3    H120307   6.072   5.702   2.593
 6788TIP3    H220308   6.028   5.773   2.720
 6789TIP3   OH220309   4.520   0.006   4.290
 6789TIP3    H120310   4.553   0.063   4.360
 6789TIP3    H220311   4.492   0.066   4.221
 6790TIP3   OH220312   3.694   3.761   6.070
 6790TIP3    H120313   3.719   3.708   5.995
 6790TIP3    H220314   3.753   3.837   6.067
 6791TIP3   OH220315   5.671   0.647   4.307
 6791TIP3    H120316   5.650   0.642   4.400
 6791TIP3    H220317   5.722   0.568   4.290
 6792TIP3   OH220318   4.818   3.320   4.749
 6792TIP3    H120319   4.867   3.299   4.669
 6792TIP3    H220320   4.728   3.294   4.728
 6793TIP3   OH220321   2.538   7.694   5.170
 6793TIP3    H120322   2.608   7.756   5.190
 6793TIP3    H220323   2.545   7.680   5.075
 6794TIP3   OH220324   2.864   6.476   2.899
 6794TIP3    H120325   2.803   6.459   2.827
 6794TIP3    H220326   2.807   6.501   2.973
 6795TIP3   OH220327   3.634   7.810   0.733
 6795TIP3    H120328   3.645   7.893   0.686
 6795TIP3    H220329   3.615   7.746   0.665
 6796TIP3   OH220330   0.752   1.612   5.953
 6796TIP3    H120331   0.826   1.565   5.992
 6796TIP3    H220332   0.776   1.705   5.962
 6797TIP3   OH220333   2.378   2.058   3.965
 6797TIP3    H120334   2.439   1.987   3.943
 6797TIP3    H220335   2.434   2.134   3.977
 6798TIP3   OH220336   2.981   6.878   1.480
 6798TIP3    H120337   3.060   6.929   1.497
 6798TIP3    H220338   2.995   6.840   1.393
 6799TIP3   OH220339   4.811   7.393   2.102
 6799TIP3    H120340   4.834   7.486   2.092
 6799TIP3    H220341   4.804   7.360   2.012
 6800TIP3   OH220342   0.685   7.258   3.435
 6800TIP3    H120343   0.774   7.230   3.454
 6800TIP3    H220344   0.679   7.259   3.339
 6801TIP3   OH220345   5.484   0.564   0.585
 6801TIP3    H120346   5.551   0.541   0.650
 6801TIP3    H220347   5.434   0.635   0.625
 6802TIP3   OH220348   2.064   0.099   0.909
 6802TIP3    H120349   2.065   0.005   0.929
 6802TIP3    H220350   1.971   0.121   0.905
 6803TIP3   OH220351   5.736   4.887   0.635
 6803TIP3    H120352   5.703   4.832   0.706
 6803TIP3    H220353   5.796   4.830   0.587
 6804TIP3   OH220354   3.807   0.034   3.682
 6804TIP3    H120355   3.856   0.071   3.756
 6804TIP3    H220356   3.851   0.070   3.605
 6805TIP3   OH220357   4.919   3.725   3.857
 6805TIP3    H120358   4.853   3.789   3.885
 6805TIP3    H220359   4.887   3.642   3.893
 6806TIP3   OH220360   7.605   1.746   2.374
 6806TIP3    H120361   7.669   1.817   2.378
 6806TIP3    H220362   7.540   1.775   2.311
 6807TIP3   OH220363   8.063   0.480   4.839
 6807TIP3    H120364   8.112   0.402   4.812
 6807TIP3    H220365   8.102   0.551   4.787
 6808TIP3   OH220366   4.809   0.502   2.349
 6808TIP3    H120367   4.886   0.472   2.398
 6808TIP3    H220368   4.745   0.523   2.416
 6809TIP3   OH220369   1.047   7.005   2.422
 6809TIP3    H120370   1.124   7.009   2.479
 6809TIP3    H220371   1.078   6.959   2.343
 6810TIP3   OH220372   1.231   2.588   3.041
 6810TIP3    H120373   1.150   2.537   3.043
 6810TIP3    H220374   1.204   2.676   3.070
 6811TIP3   OH220375   6.163   4.510   5.872
 6811TIP3    H120376   6.071   4.532   5.854
 6811TIP3    H220377   6.171   4.419   5.843
 6812TIP3   OH220378   0.752   7.016   0.846
 6812TIP3    H120379   0.792   6.945   0.897
 6812TIP3    H220380   0.683   7.050   0.903
 6813TIP3   OH220381   5.929   6.177   4.532
 6813TIP3    H120382   5.923   6.083   4.549
 6813TIP3    H220383   5.838   6.205   4.522
 6814TIP3   OH220384   0.713   1.654   1.744
 6814TIP3    H120385   0.654   1.605   1.801
 6814TIP3    H220386   0.660   1.678   1.669
 6815TIP3   OH220387   6.202   7.549   2.545
 6815TIP3    H120388   6.136   7.612   2.575
 6815TIP3    H220389   6.277   7.563   2.602
 6816TIP3   OH220390   5.274   6.646   5.806
 6816TIP3    H120391   5.184   6.666   5.782
 6816TIP3    H220392   5.314   6.731   5.827
 6817TIP3   OH220393   0.204   6.588   0.789
 6817TIP3    H120394   0.219   6.542   0.872
 6817TIP3    H220395   0.110   6.579   0.774
 6818TIP3   OH220396   3.378   6.949   5.021
 6818TIP3    H120397   3.294   6.970   5.061
 6818TIP3    H220398   3.361   6.951   4.927
 6819TIP3   OH220399   4.358   1.570   6.260
 6819TIP3    H120400   4.449   1.545   6.277
 6819TIP3    H220401   4.326   1.502   6.201
 6820TIP3   OH220402   7.966   2.062   1.858
 6820TIP3    H120403   7.939   2.143   1.901
 6820TIP3    H220404   8.060   2.056   1.877
 6821TIP3   OH220405   6.292   3.825   3.416
 6821TIP3    H120406   6.261   3.762   3.351
 6821TIP3    H220407   6.377   3.854   3.383
 6822TIP3   OH220408   1.975   4.028   4.290
 6822TIP3    H120409   1.977   4.107   4.235
 6822TIP3    H220410   2.041   3.971   4.251
 6823TIP3   OH220411   5.184   4.470   6.073
 6823TIP3    H120412   5.100   4.436   6.043
 6823TIP3    H220413   5.245   4.452   6.002
 6824TIP3   OH220414   6.061   2.642   0.252
 6824TIP3    H120415   6.082   2.566   0.199
 6824TIP3    H220416   6.120   2.636   0.327
 6825TIP3   OH220417   3.911   2.941   4.323
 6825TIP3    H120418   3.861   2.872   4.280
 6825TIP3    H220419   3.883   3.022   4.280
 6826TIP3   OH220420   3.734   6.498   5.826
 6826TIP3    H120421   3.740   6.591   5.850
 6826TIP3    H220422   3.660   6.465   5.876
 6827TIP3   OH220423   1.212   4.539   4.811
 6827TIP3    H120424   1.300   4.504   4.797
 6827TIP3    H220425   1.206   4.615   4.753
 6828TIP3   OH220426   3.196   3.373   1.419
 6828TIP3    H120427   3.285   3.380   1.451
 6828TIP3    H220428   3.178   3.278   1.419
 6829TIP3   OH220429   3.417   2.270   1.561
 6829TIP3    H120430   3.425   2.324   1.482
 6829TIP3    H220431   3.434   2.330   1.633
 6830TIP3   OH220432   5.895   1.673   0.032
 6830TIP3    H120433   5.865   1.725  -0.043
 6830TIP3    H220434   5.981   1.708   0.052
 6831TIP3   OH220435   2.132   5.679   1.870
 6831TIP3    H120436   2.116   5.748   1.805
 6831TIP3    H220437   2.227   5.677   1.880
 6832TIP3   OH220438   5.251   3.759   1.343
 6832TIP3    H120439   5.192   3.691   1.376
 6832TIP3    H220440   5.322   3.762   1.407
 6833TIP3   OH220441   3.455   2.383   5.316
 6833TIP3    H120442   3.542   2.419   5.298
 6833TIP3    H220443   3.414   2.375   5.230
 6834TIP3   OH220444   0.076   3.701   3.219
 6834TIP3    H120445   0.019   3.778   3.215
 6834TIP3    H220446   0.142   3.723   3.285
 6835TIP3   OH220447   6.539   6.696   0.694
 6835TIP3    H120448   6.557   6.685   0.601
 6835TIP3    H220449   6.448   6.668   0.705
 6836TIP3   OH220450   2.635   4.451   3.545
 6836TIP3    H120451   2.556   4.433   3.494
 6836TIP3    H220452   2.671   4.531   3.506
 6837TIP3   OH220453   4.312   2.047   4.374
 6837TIP3    H120454   4.263   2.058   4.455
 6837TIP3    H220455   4.357   1.963   4.384
 6838TIP3   OH220456   5.202   4.196   4.357
 6838TIP3    H120457   5.172   4.286   4.343
 6838TIP3    H220458   5.193   4.183   4.452
 6839TIP3   OH220459   4.034   0.218   1.913
 6839TIP3    H120460   4.095   0.256   1.976
 6839TIP3    H220461   3.969   0.288   1.899
 6840TIP3   OH220462   4.974   3.930   2.945
 6840TIP3    H120463   4.986   4.024   2.955
 6840TIP3    H220464   5.044   3.903   2.885
 6841TIP3   OH220465   1.411   0.211   6.542
 6841TIP3    H120466   1.388   0.303   6.529
 6841TIP3    H220467   1.398   0.171   6.455
 6842TIP3   OH220468   0.623   6.963   1.096
 6842TIP3    H120469   0.667   6.879   1.112
 6842TIP3    H220470   0.576   6.980   1.177
 6843TIP3   OH220471   1.677   5.611   0.138
 6843TIP3    H120472   1.583   5.598   0.124
 6843TIP3    H220473   1.698   5.556   0.213
 6844TIP3   OH220474   7.886   0.617   1.074
 6844TIP3    H120475   7.894   0.530   1.114
 6844TIP3    H220476   7.975   0.640   1.048
 6845TIP3   OH220477   2.474   6.592   1.143
 6845TIP3    H120478   2.486   6.664   1.081
 6845TIP3    H220479   2.484   6.632   1.229
 6846TIP3   OH220480   2.634   0.481   4.917
 6846TIP3    H120481   2.637   0.390   4.889
 6846TIP3    H220482   2.576   0.524   4.854
 6847TIP3   OH220483   3.278   3.059   3.319
 6847TIP3    H120484   3.237   3.056   3.233
 6847TIP3    H220485   3.250   2.978   3.362
 6848TIP3   OH220486   1.048   1.630   6.568
 6848TIP3    H120487   1.101   1.591   6.638
 6848TIP3    H220488   1.002   1.556   6.529
 6849TIP3   OH220489   6.277   7.270   1.519
 6849TIP3    H120490   6.271   7.364   1.534
 6849TIP3    H220491   6.322   7.236   1.597
 6850TIP3   OH220492   7.168   0.839   1.895
 6850TIP3    H120493   7.131   0.861   1.981
 6850TIP3    H220494   7.258   0.870   1.900
 6851TIP3   OH220495   5.453   0.298   3.530
 6851TIP3    H120496   5.375   0.241   3.532
 6851TIP3    H220497   5.475   0.311   3.622
 6852TIP3   OH220498   7.825   6.306   1.346
 6852TIP3    H120499   7.864   6.382   1.303
 6852TIP3    H220500   7.858   6.230   1.297
 6853TIP3   OH220501   2.480   0.176   1.181
 6853TIP3    H120502   2.575   0.189   1.187
 6853TIP3    H220503   2.470   0.097   1.128
 6854TIP3   OH220504   3.399   2.069   3.175
 6854TIP3    H120505   3.371   1.984   3.211
 6854TIP3    H220506   3.388   2.060   3.081
 6855TIP3   OH220507   1.087   7.076   3.717
 6855TIP3    H120508   1.081   7.060   3.622
 6855TIP3    H220509   1.148   7.149   3.725
 6856TIP3   OH220510   6.672   4.821   3.993
 6856TIP3    H120511   6.734   4.881   3.951
 6856TIP3    H220512   6.632   4.773   3.920
 6857TIP3   OH220513   1.556   1.359   1.352
 6857TIP3    H120514   1.610   1.334   1.277
 6857TIP3    H220515   1.472   1.317   1.336
 6858TIP3   OH220516   1.094   4.354   4.552
 6858TIP3    H120517   1.022   4.334   4.612
 6858TIP3    H220518   1.084   4.447   4.533
 6859TIP3   OH220519   6.301   7.015   0.725
 6859TIP3    H120520   6.347   6.958   0.786
 6859TIP3    H220521   6.364   7.084   0.704
 6860TIP3   OH220522   0.998   0.346   6.492
 6860TIP3    H120523   1.026   0.261   6.457
 6860TIP3    H220524   0.992   0.331   6.587
 6861TIP3   OH220525   6.673   1.675   1.019
 6861TIP3    H120526   6.701   1.703   0.932
 6861TIP3    H220527   6.592   1.626   1.004
 6862TIP3   OH220528   2.901   0.644   4.537
 6862TIP3    H120529   2.852   0.619   4.615
 6862TIP3    H220530   2.943   0.563   4.508
 6863TIP3   OH220531   3.385   3.482   1.630
 6863TIP3    H120532   3.391   3.411   1.693
 6863TIP3    H220533   3.461   3.537   1.648
 6864TIP3   OH220534   4.494   7.082   6.614
 6864TIP3    H120535   4.525   7.091   6.704
 6864TIP3    H220536   4.505   7.169   6.576
 6865TIP3   OH220537   3.223   6.552   2.425
 6865TIP3    H120538   3.154   6.544   2.491
 6865TIP3    H220539   3.298   6.588   2.472
 6866TIP3   OH220540   8.211   1.595   2.076
 6866TIP3    H120541   8.269   1.546   2.134
 6866TIP3    H220542   8.174   1.664   2.132
 6867TIP3   OH220543   7.189   5.211   1.936
 6867TIP3    H120544   7.181   5.189   1.843
 6867TIP3    H220545   7.108   5.257   1.957
 6868TIP3   OH220546   3.488   1.552   4.738
 6868TIP3    H120547   3.474   1.478   4.797
 6868TIP3    H220548   3.583   1.556   4.726
 6869TIP3   OH220549   0.752   0.866   5.847
 6869TIP3    H120550   0.758   0.953   5.887
 6869TIP3    H220551   0.825   0.817   5.884
 6870TIP3   OH220552   5.176   0.524   4.788
 6870TIP3    H120553   5.161   0.431   4.801
 6870TIP3    H220554   5.268   0.537   4.808
 6871TIP3   OH220555   1.442   0.372   1.444
 6871TIP3    H120556   1.506   0.321   1.394
 6871TIP3    H220557   1.377   0.400   1.380
 6872TIP3   OH220558   4.126   7.312   6.626
 6872TIP3    H120559   4.134   7.400   6.589
 6872TIP3    H220560   4.179   7.316   6.706
 6873TIP3   OH220561   4.030   0.432   1.129
 6873TIP3    H120562   4.060   0.355   1.082
 6873TIP3    H220563   4.081   0.504   1.092
 6874TIP3   OH220564   7.856   5.318   0.676
 6874TIP3    H120565   7.762   5.327   0.655
 6874TIP3    H220566   7.872   5.385   0.743
 6875TIP3   OH220567   3.781   5.545   0.342
 6875TIP3    H120568   3.694   5.584   0.348
 6875TIP3    H220569   3.800   5.515   0.431
 6876TIP3   OH220570   4.604   2.265   5.053
 6876TIP3    H120571   4.603   2.349   5.098
 6876TIP3    H220572   4.590   2.200   5.122
 6877TIP3   OH220573   4.037   7.777   0.842
 6877TIP3    H120574   4.076   7.848   0.893
 6877TIP3    H220575   4.009   7.819   0.760
 6878TIP3   OH220576   8.131   0.030   3.151
 6878TIP3    H120577   8.125  -0.008   3.239
 6878TIP3    H220578   8.041   0.054   3.129
 6879TIP3   OH220579   6.329   6.246   0.526
 6879TIP3    H120580   6.349   6.173   0.467
 6879TIP3    H220581   6.357   6.216   0.612
 6880TIP3   OH220582   2.995   1.165   5.904
 6880TIP3    H120583   3.029   1.083   5.869
 6880TIP3    H220584   2.997   1.226   5.830
 6881TIP3   OH220585   1.704   2.455   4.630
 6881TIP3    H120586   1.763   2.456   4.706
 6881TIP3    H220587   1.734   2.381   4.577
 6882TIP3   OH220588   6.933   7.827   5.590
 6882TIP3    H120589   6.930   7.763   5.519
 6882TIP3    H220590   6.982   7.783   5.660
 6883TIP3   OH220591   7.905   7.470   0.368
 6883TIP3    H120592   7.946   7.396   0.413
 6883TIP3    H220593   7.922   7.455   0.275
 6884TIP3   OH220594   2.765   7.544   6.323
 6884TIP3    H120595   2.771   7.459   6.279
 6884TIP3    H220596   2.698   7.592   6.274
 6885TIP3   OH220597   2.455   7.602   6.311
 6885TIP3    H120598   2.465   7.515   6.348
 6885TIP3    H220599   2.364   7.627   6.330
 6886TIP3   OH220600   6.754   2.635   5.483
 6886TIP3    H120601   6.796   2.644   5.398
 6886TIP3    H220602   6.672   2.683   5.474
 6887TIP3   OH220603   4.370   4.581   4.820
 6887TIP3    H120604   4.434   4.651   4.836
 6887TIP3    H220605   4.403   4.535   4.743
 6888TIP3   OH220606   6.647   6.771   3.427
 6888TIP3    H120607   6.621   6.788   3.518
 6888TIP3    H220608   6.585   6.821   3.375
 6889TIP3   OH220609   3.349   3.763   3.163
 6889TIP3    H120610   3.372   3.673   3.188
 6889TIP3    H220611   3.299   3.796   3.238
 6890TIP3   OH220612   5.558   2.417   4.933
 6890TIP3    H120613   5.625   2.452   4.874
 6890TIP3    H220614   5.512   2.494   4.964
 6891TIP3   OH220615   7.125   5.032   5.929
 6891TIP3    H120616   7.065   4.960   5.910
 6891TIP3    H220617   7.075   5.089   5.988
 6892TIP3   OH220618   5.134   7.250   2.502
 6892TIP3    H120619   5.202   7.281   2.443
 6892TIP3    H220620   5.131   7.315   2.572
 6893TIP3   OH220621   7.737   4.011   3.249
 6893TIP3    H120622   7.791   3.933   3.233
 6893TIP3    H220623   7.754   4.068   3.174
 6894TIP3   OH220624   6.722   7.487   1.451
 6894TIP3    H120625   6.741   7.580   1.437
 6894TIP3    H220626   6.762   7.443   1.377
 6895TIP3   OH220627   3.303   1.501   3.721
 6895TIP3    H120628   3.222   1.538   3.686
 6895TIP3    H220629   3.368   1.570   3.711
 6896TIP3   OH220630   3.402   0.093   3.968
 6896TIP3    H120631   3.382   0.185   3.954
 6896TIP3    H220632   3.492   0.093   4.001
 6897TIP3   OH220633   0.319   6.809   1.540
 6897TIP3    H120634   0.369   6.763   1.608
 6897TIP3    H220635   0.241   6.756   1.527
 6898TIP3   OH220636   1.999   2.762   1.185
 6898TIP3    H120637   1.954   2.687   1.226
 6898TIP3    H220638   2.091   2.739   1.187
 6899TIP3   OH220639   1.475   1.690   3.613
 6899TIP3    H120640   1.507   1.778   3.629
 6899TIP3    H220641   1.553   1.635   3.618
 6900TIP3   OH220642   6.651   3.420   0.763
 6900TIP3    H120643   6.706   3.484   0.718
 6900TIP3    H220644   6.661   3.340   0.712
 6901TIP3   OH220645   7.189   4.593   0.645
 6901TIP3    H120646   7.251   4.529   0.611
 6901TIP3    H220647   7.145   4.628   0.568
 6902TIP3   OH220648   6.075   7.509   2.284
 6902TIP3    H120649   6.105   7.527   2.373
 6902TIP3    H220650   6.084   7.414   2.274
 6903TIP3   OH220651   6.273   1.185   1.640
 6903TIP3    H120652   6.300   1.192   1.549
 6903TIP3    H220653   6.330   1.118   1.677
 6904TIP3   OH220654   4.539   1.745   5.518
 6904TIP3    H120655   4.497   1.827   5.544
 6904TIP3    H220656   4.498   1.723   5.434
 6905TIP3   OH220657   2.006   2.335   2.698
 6905TIP3    H120658   2.095   2.369   2.701
 6905TIP3    H220659   2.007   2.261   2.759
 6906TIP3   OH220660   3.192   0.060   4.693
 6906TIP3    H120661   3.153  -0.001   4.631
 6906TIP3    H220662   3.286   0.042   4.689
 6907TIP3   OH220663   6.694   2.703   2.740
 6907TIP3    H120664   6.758   2.634   2.718
 6907TIP3    H220665   6.609   2.660   2.731
 6908TIP3   OH220666   1.127   5.141   1.447
 6908TIP3    H120667   1.179   5.162   1.525
 6908TIP3    H220668   1.135   5.047   1.437
 6909TIP3   OH220669   3.212   5.995   6.704
 6909TIP3    H120670   3.250   5.952   6.781
 6909TIP3    H220671   3.204   6.087   6.729
 6910TIP3   OH220672   4.113   4.750   2.775
 6910TIP3    H120673   4.135   4.695   2.850
 6910TIP3    H220674   4.025   4.783   2.795
 6911TIP3   OH220675   7.625   2.767   0.792
 6911TIP3    H120676   7.593   2.819   0.718
 6911TIP3    H220677   7.648   2.682   0.754
 6912TIP3   OH220678   4.938   3.839   2.175
 6912TIP3    H120679   4.929   3.888   2.093
 6912TIP3    H220680   4.924   3.747   2.149
 6913TIP3   OH220681   2.074   2.735   2.126
 6913TIP3    H120682   2.105   2.751   2.037
 6913TIP3    H220683   2.006   2.669   2.117
 6914TIP3   OH220684   3.415   0.719   6.502
 6914TIP3    H120685   3.484   0.653   6.492
 6914TIP3    H220686   3.409   0.761   6.417
 6915TIP3   OH220687   6.117   5.754   1.124
 6915TIP3    H120688   6.025   5.760   1.148
 6915TIP3    H220689   6.164   5.779   1.204
 6916TIP3   OH220690   6.146   1.845   1.783
 6916TIP3    H120691   6.179   1.861   1.694
 6916TIP3    H220692   6.072   1.787   1.771
 6917TIP3   OH220693   6.615   3.714   1.585
 6917TIP3    H120694   6.528   3.749   1.566
 6917TIP3    H220695   6.643   3.763   1.662
 6918TIP3   OH220696   3.545   0.633   3.163
 6918TIP3    H120697   3.618   0.614   3.104
 6918TIP3    H220698   3.467   0.618   3.110
 6919TIP3   OH220699   3.508   1.350   2.209
 6919TIP3    H120700   3.477   1.319   2.294
 6919TIP3    H220701   3.583   1.294   2.189
 6920TIP3   OH220702   0.581   0.328   6.570
 6920TIP3    H120703   0.599   0.420   6.555
 6920TIP3    H220704   0.531   0.301   6.493
 6921TIP3   OH220705   1.627   1.715   5.236
 6921TIP3    H120706   1.637   1.789   5.296
 6921TIP3    H220707   1.704   1.719   5.180
 6922TIP3   OH220708   7.585   1.170   1.334
 6922TIP3    H120709   7.499   1.203   1.359
 6922TIP3    H220710   7.570   1.126   1.250
 6923TIP3   OH220711   5.398   3.651   1.110
 6923TIP3    H120712   5.336   3.667   1.181
 6923TIP3    H220713   5.473   3.706   1.131
 6924TIP3   OH220714   7.865   5.957   1.551
 6924TIP3    H120715   7.773   5.945   1.528
 6924TIP3    H220716   7.869   6.045   1.589
 6925TIP3   OH220717   1.235   0.259   4.748
 6925TIP3    H120718   1.152   0.213   4.764
 6925TIP3    H220719   1.215   0.351   4.763
 6926TIP3   OH220720   4.860   0.077   0.602
 6926TIP3    H120721   4.792   0.035   0.549
 6926TIP3    H220722   4.937   0.021   0.591
 6927TIP3   OH220723   2.756   6.275   4.716
 6927TIP3    H120724   2.762   6.334   4.641
 6927TIP3    H220725   2.813   6.313   4.782
 6928TIP3   OH220726   4.837   4.425   3.011
 6928TIP3    H120727   4.795   4.459   3.090
 6928TIP3    H220728   4.831   4.497   2.948
 6929TIP3   OH220729   6.396   3.640   2.309
 6929TIP3    H120730   6.333   3.607   2.372
 6929TIP3    H220731   6.422   3.725   2.344
 6930TIP3   OH220732   4.234   3.657   6.512
 6930TIP3    H120733   4.167   3.685   6.450
 6930TIP3    H220734   4.232   3.724   6.581
 6931TIP3   OH220735   2.826   5.354   3.830
 6931TIP3    H120736   2.870   5.406   3.763
 6931TIP3    H220737   2.799   5.417   3.896
 6932TIP3   OH220738   2.534   2.801   2.251
 6932TIP3    H120739   2.495   2.887   2.262
 6932TIP3    H220740   2.521   2.780   2.159
 6933TIP3   OH220741   0.013   2.680   4.935
 6933TIP3    H120742  -0.033   2.678   4.850
 6933TIP3    H220743   0.092   2.730   4.918
 6934TIP3   OH220744   7.230   3.335   5.279
 6934TIP3    H120745   7.174   3.263   5.250
 6934TIP3    H220746   7.210   3.407   5.219
 6935TIP3   OH220747   1.886   5.143   2.043
 6935TIP3    H120748   1.964   5.104   2.082
 6935TIP3    H220749   1.901   5.238   2.050
 6936TIP3   OH220750   5.786   1.791   4.599
 6936TIP3    H120751   5.736   1.715   4.629
 6936TIP3    H220752   5.851   1.754   4.539
 6937TIP3   OH220753   6.521   1.693   0.784
 6937TIP3    H120754   6.443   1.746   0.800
 6937TIP3    H220755   6.578   1.750   0.732
 6938TIP3   OH220756   6.055   6.970   3.959
 6938TIP3    H120757   6.115   7.043   3.952
 6938TIP3    H220758   6.088   6.918   4.032
 6939TIP3   OH220759   1.922   0.382   1.012
 6939TIP3    H120760   1.971   0.378   0.931
 6939TIP3    H220761   1.850   0.319   1.000
 6940TIP3   OH220762   1.798   4.318   5.124
 6940TIP3    H120763   1.813   4.243   5.181
 6940TIP3    H220764   1.710   4.304   5.089
 6941TIP3   OH220765   0.869   7.545   5.722
 6941TIP3    H120766   0.885   7.600   5.646
 6941TIP3    H220767   0.828   7.466   5.686
 6942TIP3   OH220768   7.340   0.396   3.598
 6942TIP3    H120769   7.411   0.426   3.655
 6942TIP3    H220770   7.278   0.469   3.597
 6943TIP3   OH220771   3.063   2.287   0.856
 6943TIP3    H120772   3.045   2.235   0.934
 6943TIP3    H220773   3.070   2.223   0.786
 6944TIP3   OH220774   4.477   1.246   0.505
 6944TIP3    H120775   4.518   1.160   0.499
 6944TIP3    H220776   4.417   1.250   0.430
 6945TIP3   OH220777   5.612   3.418   2.105
 6945TIP3    H120778   5.638   3.503   2.070
 6945TIP3    H220779   5.694   3.377   2.132
 6946TIP3   OH220780   5.206   7.202   5.318
 6946TIP3    H120781   5.238   7.288   5.347
 6946TIP3    H220782   5.197   7.151   5.398
 6947TIP3   OH220783   3.156   7.389   6.381
 6947TIP3    H120784   3.124   7.367   6.293
 6947TIP3    H220785   3.080   7.382   6.437
 6948TIP3   OH220786   7.049   3.842   3.937
 6948TIP3    H120787   7.117   3.905   3.960
 6948TIP3    H220788   7.097   3.766   3.904
 6949TIP3   OH220789   1.421   3.883   0.988
 6949TIP3    H120790   1.457   3.813   0.933
 6949TIP3    H220791   1.496   3.940   1.005
 6950TIP3   OH220792   4.103   4.804   5.740
 6950TIP3    H120793   4.023   4.773   5.697
 6950TIP3    H220794   4.126   4.884   5.691
 6951TIP3   OH220795   2.153   6.742   2.368
 6951TIP3    H120796   2.112   6.743   2.281
 6951TIP3    H220797   2.218   6.673   2.362
 6952TIP3   OH220798   2.674   1.755   3.217
 6952TIP3    H120799   2.650   1.724   3.130
 6952TIP3    H220800   2.754   1.805   3.203
 6953TIP3   OH220801   1.138   4.614   5.315
 6953TIP3    H120802   1.087   4.533   5.316
 6953TIP3    H220803   1.157   4.632   5.407
 6954TIP3   OH220804   0.676   4.331   2.592
 6954TIP3    H120805   0.746   4.273   2.623
 6954TIP3    H220806   0.686   4.331   2.496
 6955TIP3   OH220807   4.135   3.679   1.670
 6955TIP3    H120808   4.074   3.633   1.727
 6955TIP3    H220809   4.119   3.772   1.686
 6956TIP3   OH220810   1.463   4.920   4.299
 6956TIP3    H120811   1.456   4.952   4.209
 6956TIP3    H220812   1.373   4.897   4.323
 6957TIP3   OH220813   0.742   1.224   2.240
 6957TIP3    H120814   0.704   1.306   2.210
 6957TIP3    H220815   0.715   1.217   2.332
 6958TIP3   OH220816   5.963   2.577   5.710
 6958TIP3    H120817   6.057   2.588   5.697
 6958TIP3    H220818   5.937   2.514   5.643
 6959TIP3   OH220819   7.612   5.485   4.548
 6959TIP3    H120820   7.621   5.391   4.563
 6959TIP3    H220821   7.641   5.526   4.629
 6960TIP3   OH220822   6.582   4.522   2.994
 6960TIP3    H120823   6.667   4.566   3.003
 6960TIP3    H220824   6.574   4.505   2.900
 6961TIP3   OH220825   5.675   4.054   2.004
 6961TIP3    H120826   5.694   4.122   2.068
 6961TIP3    H220827   5.638   4.101   1.929
 6962TIP3   OH220828   4.630   2.909   3.364
 6962TIP3    H120829   4.539   2.880   3.353
 6962TIP3    H220830   4.626   2.969   3.438
 6963TIP3   OH220831   3.167   1.659   2.985
 6963TIP3    H120832   3.221   1.618   2.917
 6963TIP3    H220833   3.121   1.730   2.939
 6964TIP3   OH220834   4.509   1.605   6.528
 6964TIP3    H120835   4.535   1.602   6.436
 6964TIP3    H220836   4.427   1.654   6.527
 6965TIP3   OH220837   5.765   6.158   3.136
 6965TIP3    H120838   5.831   6.198   3.194
 6965TIP3    H220839   5.738   6.079   3.183
 6966TIP3   OH220840   7.069   1.328   0.134
 6966TIP3    H120841   7.050   1.322   0.040
 6966TIP3    H220842   7.000   1.384   0.169
 6967TIP3   OH220843   0.057   7.250   6.083
 6967TIP3    H120844  -0.029   7.284   6.107
 6967TIP3    H220845   0.044   7.156   6.072
 6968TIP3   OH220846   6.010   1.546   5.472
 6968TIP3    H120847   5.996   1.600   5.395
 6968TIP3    H220848   5.941   1.480   5.467
 6969TIP3   OH220849   0.316   1.080   0.436
 6969TIP3    H120850   0.385   1.133   0.478
 6969TIP3    H220851   0.250   1.144   0.411
 6970TIP3   OH220852   4.967   3.646   6.713
 6970TIP3    H120853   4.988   3.680   6.626
 6970TIP3    H220854   4.903   3.577   6.697
 6971TIP3   OH220855   1.501   0.785   5.709
 6971TIP3    H120856   1.443   0.714   5.737
 6971TIP3    H220857   1.577   0.777   5.767
 6972TIP3   OH220858   4.876   5.762   6.502
 6972TIP3    H120859   4.826   5.681   6.499
 6972TIP3    H220860   4.918   5.761   6.588
 6973TIP3   OH220861   7.233   5.359   0.269
 6973TIP3    H120862   7.183   5.320   0.197
 6973TIP3    H220863   7.206   5.450   0.270
 6974TIP3   OH220864   6.361   1.518   0.569
 6974TIP3    H120865   6.441   1.488   0.526
 6974TIP3    H220866   6.361   1.613   0.555
 6975TIP3   OH220867   8.109   5.115   2.427
 6975TIP3    H120868   8.176   5.102   2.360
 6975TIP3    H220869   8.143   5.186   2.481
 6976TIP3   OH220870   3.230   1.866   5.384
 6976TIP3    H120871   3.313   1.829   5.415
 6976TIP3    H220872   3.170   1.792   5.383
 6977TIP3   OH220873   7.697   0.220   6.550
 6977TIP3    H120874   7.708   0.139   6.499
 6977TIP3    H220875   7.740   0.287   6.498
 6978TIP3   OH220876   0.397   3.002   0.612
 6978TIP3    H120877   0.449   2.924   0.632
 6978TIP3    H220878   0.420   3.023   0.521
 6979TIP3   OH220879   8.186   5.785   2.326
 6979TIP3    H120880   8.261   5.827   2.368
 6979TIP3    H220881   8.116   5.851   2.330
 6980TIP3   OH220882   0.635   1.605   0.407
 6980TIP3    H120883   0.628   1.699   0.396
 6980TIP3    H220884   0.641   1.570   0.318
 6981TIP3   OH220885   3.310   7.554   3.052
 6981TIP3    H120886   3.346   7.467   3.066
 6981TIP3    H220887   3.298   7.561   2.957
 6982TIP3   OH220888   0.433   7.252   1.466
 6982TIP3    H120889   0.509   7.261   1.524
 6982TIP3    H220890   0.360   7.285   1.517
 6983TIP3   OH220891  -0.005   5.163   2.242
 6983TIP3    H120892  -0.025   5.250   2.277
 6983TIP3    H220893   0.010   5.178   2.149
 6984TIP3   OH220894   4.672   0.331   2.159
 6984TIP3    H120895   4.754   0.286   2.140
 6984TIP3    H220896   4.695   0.396   2.225
 6985TIP3   OH220897   2.666   4.753   6.367
 6985TIP3    H120898   2.578   4.717   6.373
 6985TIP3    H220899   2.674   4.810   6.443
 6986TIP3   OH220900   6.583   3.207   5.793
 6986TIP3    H120901   6.620   3.250   5.869
 6986TIP3    H220902   6.564   3.278   5.731
 6987TIP3   OH220903   2.394   3.858   1.787
 6987TIP3    H120904   2.470   3.903   1.749
 6987TIP3    H220905   2.410   3.860   1.881
 6988TIP3   OH220906   7.118   3.824   2.883
 6988TIP3    H120907   7.175   3.749   2.864
 6988TIP3    H220908   7.177   3.899   2.886
 6989TIP3   OH220909   4.684   6.358   4.052
 6989TIP3    H120910   4.633   6.357   3.971
 6989TIP3    H220911   4.767   6.399   4.027
 6990TIP3   OH220912   1.379   6.564   5.219
 6990TIP3    H120913   1.440   6.620   5.171
 6990TIP3    H220914   1.392   6.477   5.183
 6991TIP3   OH220915   2.655   1.809   0.442
 6991TIP3    H120916   2.640   1.903   0.435
 6991TIP3    H220917   2.587   1.770   0.387
 6992TIP3   OH220918   6.348   6.845   4.528
 6992TIP3    H120919   6.408   6.771   4.523
 6992TIP3    H220920   6.358   6.890   4.444
 6993TIP3   OH220921   4.558   5.621   4.176
 6993TIP3    H120922   4.630   5.681   4.160
 6993TIP3    H220923   4.589   5.563   4.246
 6994TIP3   OH220924   5.058   0.086   2.330
 6994TIP3    H120925   5.098   0.005   2.298
 6994TIP3    H220926   5.095   0.098   2.417
 6995TIP3   OH220927   6.068   2.296   2.794
 6995TIP3    H120928   6.110   2.267   2.875
 6995TIP3    H220929   6.060   2.216   2.742
 6996TIP3   OH220930   6.362   2.650   3.387
 6996TIP3    H120931   6.415   2.658   3.307
 6996TIP3    H220932   6.420   2.606   3.449
 6997TIP3   OH220933   8.053   1.535   4.516
 6997TIP3    H120934   8.079   1.505   4.429
 6997TIP3    H220935   8.135   1.539   4.566
 6998TIP3   OH220936   1.727   6.535   1.556
 6998TIP3    H120937   1.662   6.520   1.624
 6998TIP3    H220938   1.678   6.524   1.474
 6999TIP3   OH220939   4.565   1.093   6.554
 6999TIP3    H120940   4.548   1.179   6.592
 6999TIP3    H220941   4.532   1.100   6.464
 7000TIP3   OH220942   0.572   2.220   1.903
 7000TIP3    H120943   0.582   2.232   1.809
 7000TIP3    H220944   0.651   2.260   1.940
 7001TIP3   OH220945   7.852   6.906   2.286
 7001TIP3    H120946   7.861   6.908   2.191
 7001TIP3    H220947   7.901   6.982   2.317
 7002TIP3   OH220948   7.899   4.874   1.040
 7002TIP3    H120949   7.912   4.925   1.120
 7002TIP3    H220950   7.840   4.803   1.065
 7003TIP3   OH220951   1.701   4.739   6.328
 7003TIP3    H120952   1.609   4.730   6.305
 7003TIP3    H220953   1.731   4.650   6.346
 7004TIP3   OH220954   4.280   1.102   6.061
 7004TIP3    H120955   4.198   1.059   6.037
 7004TIP3    H220956   4.334   1.096   5.982
 7005TIP3   OH220957   7.717   6.503   6.404
 7005TIP3    H120958   7.691   6.576   6.461
 7005TIP3    H220959   7.782   6.541   6.345
 7006TIP3   OH220960   5.476   4.257   5.968
 7006TIP3    H120961   5.527   4.314   6.025
 7006TIP3    H220962   5.465   4.176   6.019
 7007TIP3   OH220963   6.349   5.023   2.825
 7007TIP3    H120964   6.278   5.005   2.763
 7007TIP3    H220965   6.398   4.941   2.831
 7008TIP3   OH220966   5.373   1.179   6.628
 7008TIP3    H120967   5.462   1.155   6.654
 7008TIP3    H220968   5.379   1.271   6.602
 7009TIP3   OH220969   3.490   5.627   0.683
 7009TIP3    H120970   3.553   5.678   0.733
 7009TIP3    H220971   3.405   5.667   0.704
 7010TIP3   OH220972   2.379   0.375   4.175
 7010TIP3    H120973   2.309   0.406   4.233
 7010TIP3    H220974   2.386   0.443   4.108
 7011TIP3   OH220975   4.464   5.299   0.013
 7011TIP3    H120976   4.489   5.250   0.092
 7011TIP3    H220977   4.416   5.375   0.047
 7012TIP3   OH220978   0.011   0.661   2.004
 7012TIP3    H120979   0.052   0.574   2.006
 7012TIP3    H220980   0.037   0.697   1.919
 7013TIP3   OH220981   1.449   4.214   2.624
 7013TIP3    H120982   1.433   4.167   2.705
 7013TIP3    H220983   1.536   4.184   2.596
 7014TIP3   OH220984   3.516   6.696   4.830
 7014TIP3    H120985   3.427   6.731   4.830
 7014TIP3    H220986   3.505   6.602   4.843
 7015TIP3   OH220987   3.259   2.580   1.981
 7015TIP3    H120988   3.216   2.498   1.959
 7015TIP3    H220989   3.192   2.647   1.964
 7016TIP3   OH220990   4.465   6.746   6.149
 7016TIP3    H120991   4.454   6.796   6.067
 7016TIP3    H220992   4.425   6.661   6.131
 7017TIP3   OH220993   1.039   6.985   3.460
 7017TIP3    H120994   0.948   7.004   3.482
 7017TIP3    H220995   1.040   6.890   3.443
 7018TIP3   OH220996   5.328   7.387   5.467
 7018TIP3    H120997   5.306   7.408   5.557
 7018TIP3    H220998   5.347   7.472   5.426
 7019TIP3   OH220999   1.205   7.785   0.925
 7019TIP3    H121000   1.260   7.773   1.003
 7019TIP3    H221001   1.119   7.755   0.952
 7020TIP3   OH221002   2.566   3.357   0.084
 7020TIP3    H121003   2.562   3.265   0.056
 7020TIP3    H221004   2.600   3.404   0.008
 7021TIP3   OH221005   0.132   7.526   6.767
 7021TIP3    H121006   0.039   7.505   6.770
 7021TIP3    H221007   0.165   7.479   6.691
 7022TIP3   OH221008   5.628   5.810   4.109
 7022TIP3    H121009   5.694   5.741   4.111
 7022TIP3    H221010   5.678   5.891   4.102
 7023TIP3   OH221011   4.007   5.317   0.492
 7023TIP3    H121012   4.093   5.293   0.527
 7023TIP3    H221013   3.959   5.349   0.568
 7024TIP3   OH221014   2.546   1.885   4.643
 7024TIP3    H121015   2.481   1.860   4.708
 7024TIP3    H221016   2.530   1.827   4.569
 7025TIP3   OH221017   4.415   1.777   4.420
 7025TIP3    H121018   4.337   1.735   4.456
 7025TIP3    H221019   4.416   1.749   4.328
 7026TIP3   OH221020   5.991   3.001   3.825
 7026TIP3    H121021   6.015   2.938   3.758
 7026TIP3    H221022   5.910   2.967   3.863
 7027TIP3   OH221023   6.580   4.916   2.537
 7027TIP3    H121024   6.570   4.836   2.485
 7027TIP3    H221025   6.507   4.971   2.510
 7028TIP3   OH221026   5.116   5.048   2.367
 7028TIP3    H121027   5.087   4.972   2.417
 7028TIP3    H221028   5.121   5.118   2.433
 7029TIP3   OH221029   3.201   3.130   6.679
 7029TIP3    H121030   3.213   3.080   6.760
 7029TIP3    H221031   3.152   3.071   6.622
 7030TIP3   OH221032   3.622   3.417   2.533
 7030TIP3    H121033   3.706   3.373   2.519
 7030TIP3    H221034   3.591   3.383   2.617
 7031TIP3   OH221035   3.717   6.081   4.723
 7031TIP3    H121036   3.791   6.139   4.739
 7031TIP3    H221037   3.656   6.100   4.793
 7032TIP3   OH221038   5.943   4.781   3.877
 7032TIP3    H121039   5.957   4.687   3.892
 7032TIP3    H221040   5.975   4.795   3.788
 7033TIP3   OH221041   3.348   7.727   5.436
 7033TIP3    H121042   3.406   7.736   5.512
 7033TIP3    H221043   3.369   7.641   5.400
 7034TIP3   OH221044   0.084   3.278   0.904
 7034TIP3    H121045   0.164   3.237   0.871
 7034TIP3    H221046   0.039   3.309   0.825
 7035TIP3   OH221047   4.468   0.065   0.782
 7035TIP3    H121048   4.422   0.038   0.861
 7035TIP3    H221049   4.505  -0.016   0.747
 7036TIP3   OH221050   3.686   6.860   2.871
 7036TIP3    H121051   3.651   6.836   2.786
 7036TIP3    H221052   3.610   6.893   2.920
 7037TIP3   OH221053   3.716   6.420   2.091
 7037TIP3    H121054   3.666   6.451   2.167
 7037TIP3    H221055   3.720   6.325   2.103
 7038TIP3   OH221056   7.328   1.578   5.432
 7038TIP3    H121057   7.397   1.525   5.392
 7038TIP3    H221058   7.282   1.617   5.357
 7039TIP3   OH221059   3.223   0.602   6.664
 7039TIP3    H121060   3.282   0.654   6.610
 7039TIP3    H221061   3.205   0.524   6.611
 7040TIP3   OH221062   0.962   1.207   0.987
 7040TIP3    H121063   0.952   1.296   1.019
 7040TIP3    H221064   1.056   1.197   0.973
 7041TIP3   OH221065   0.032   0.639   2.615
 7041TIP3    H121066   0.125   0.655   2.629
 7041TIP3    H221067  -0.010   0.722   2.636
 7042TIP3   OH221068   2.348   4.708   1.358
 7042TIP3    H121069   2.322   4.778   1.418
 7042TIP3    H221070   2.305   4.730   1.275
 7043TIP3   OH221071   6.974   4.852   6.167
 7043TIP3    H121072   6.884   4.875   6.190
 7043TIP3    H221073   6.969   4.824   6.076
 7044TIP3   OH221074   3.677   4.048   3.820
 7044TIP3    H121075   3.679   3.959   3.785
 7044TIP3    H221076   3.737   4.097   3.764
 7045TIP3   OH221077   1.730   6.408   3.541
 7045TIP3    H121078   1.711   6.496   3.507
 7045TIP3    H221079   1.751   6.357   3.463
 7046TIP3   OH221080   4.779   3.444   5.370
 7046TIP3    H121081   4.705   3.425   5.428
 7046TIP3    H221082   4.798   3.536   5.384
 7047TIP3   OH221083   0.794   7.561   3.244
 7047TIP3    H121084   0.856   7.575   3.316
 7047TIP3    H221085   0.842   7.589   3.166
 7048TIP3   OH221086   4.183   0.327   4.148
 7048TIP3    H121087   4.155   0.272   4.222
 7048TIP3    H221088   4.130   0.406   4.156
 7049TIP3   OH221089   6.577   2.688   3.182
 7049TIP3    H121090   6.530   2.694   3.099
 7049TIP3    H221091   6.662   2.650   3.159
 7050TIP3   OH221092   8.241   1.581   6.265
 7050TIP3    H121093   8.298   1.527   6.320
 7050TIP3    H221094   8.284   1.667   6.265
 7051TIP3   OH221095   6.907   1.788   3.274
 7051TIP3    H121096   6.955   1.737   3.339
 7051TIP3    H221097   6.974   1.839   3.229
 7052TIP3   OH221098   1.714   6.762   3.643
 7052TIP3    H121099   1.682   6.740   3.555
 7052TIP3    H221100   1.804   6.793   3.629
 7053TIP3   OH221101   4.784   0.455   4.883
 7053TIP3    H121102   4.822   0.541   4.902
 7053TIP3    H221103   4.844   0.415   4.820
 7054TIP3   OH221104   0.876   1.747   2.706
 7054TIP3    H121105   0.947   1.811   2.716
 7054TIP3    H221106   0.820   1.783   2.637
 7055TIP3   OH221107   7.112   0.229   6.180
 7055TIP3    H121108   7.092   0.261   6.268
 7055TIP3    H221109   7.133   0.308   6.130
 7056TIP3   OH221110   7.254   3.311   4.868
 7056TIP3    H121111   7.303   3.357   4.800
 7056TIP3    H221112   7.207   3.381   4.915
 7057TIP3   OH221113   3.088   3.729   5.121
 7057TIP3    H121114   3.093   3.817   5.158
 7057TIP3    H221115   3.063   3.743   5.030
 7058TIP3   OH221116   0.513   4.255   0.338
 7058TIP3    H121117   0.424   4.289   0.327
 7058TIP3    H221118   0.508   4.199   0.416
 7059TIP3   OH221119   7.179   6.439   4.977
 7059TIP3    H121120   7.156   6.476   4.892
 7059TIP3    H221121   7.144   6.502   5.040
 7060TIP3   OH221122   4.211   6.893  -0.004
 7060TIP3    H121123   4.273   6.821   0.005
 7060TIP3    H221124   4.264   6.968  -0.030
 7061TIP3   OH221125   6.550   7.506   0.339
 7061TIP3    H121126   6.566   7.598   0.316
 7061TIP3    H221127   6.562   7.459   0.256
 7062TIP3   OH221128   4.105   2.998   5.723
 7062TIP3    H121129   4.057   2.963   5.798
 7062TIP3    H221130   4.087   3.092   5.724
 7063TIP3   OH221131   2.524   6.710   3.457
 7063TIP3    H121132   2.444   6.669   3.491
 7063TIP3    H221133   2.592   6.645   3.471
 7064TIP3   OH221134   0.136   7.380   3.347
 7064TIP3    H121135   0.164   7.405   3.435
 7064TIP3    H221136   0.148   7.458   3.295
 7065TIP3   OH221137   0.634   3.037   5.621
 7065TIP3    H121138   0.717   3.082   5.635
 7065TIP3    H221139   0.567   3.102   5.643
 7066TIP3   OH221140   3.132   3.945   4.440
 7066TIP3    H121141   3.065   3.920   4.504
 7066TIP3    H221142   3.090   4.012   4.386
 7067TIP3   OH221143   4.943   0.430   5.539
 7067TIP3    H121144   4.962   0.353   5.485
 7067TIP3    H221145   4.960   0.505   5.481
 7068TIP3   OH221146   0.446   4.588   0.403
 7068TIP3    H121147   0.480   4.537   0.476
 7068TIP3    H221148   0.355   4.559   0.394
 7069TIP3   OH221149   1.774   6.928   5.170
 7069TIP3    H121150   1.866   6.949   5.156
 7069TIP3    H221151   1.745   6.988   5.239
 7070TIP3   OH221152   4.758   4.784   4.723
 7070TIP3    H121153   4.704   4.852   4.682
 7070TIP3    H221154   4.706   4.752   4.796
 7071TIP3   OH221155   4.136   4.442   6.493
 7071TIP3    H121156   4.199   4.370   6.488
 7071TIP3    H221157   4.051   4.402   6.474
 7072TIP3   OH221158   5.884   0.612   4.607
 7072TIP3    H121159   5.938   0.603   4.528
 7072TIP3    H221160   5.872   0.522   4.637
 7073TIP3   OH221161   0.544   3.720   4.192
 7073TIP3    H121162   0.454   3.740   4.166
 7073TIP3    H221163   0.536   3.642   4.247
 7074TIP3   OH221164   0.137   0.650   5.626
 7074TIP3    H121165   0.144   0.629   5.533
 7074TIP3    H221166   0.043   0.664   5.641
 7075TIP3   OH221167   1.632   0.606   0.033
 7075TIP3    H121168   1.717   0.612  -0.012
 7075TIP3    H221169   1.573   0.660  -0.020
 7076TIP3   OH221170   7.111   5.997   0.238
 7076TIP3    H121171   7.118   5.924   0.300
 7076TIP3    H221172   7.201   6.011   0.209
 7077TIP3   OH221173   4.965   0.958   3.969
 7077TIP3    H121174   5.003   0.906   3.899
 7077TIP3    H221175   4.875   0.975   3.942
 7078TIP3   OH221176   5.972   6.776   3.065
 7078TIP3    H121177   6.039   6.839   3.040
 7078TIP3    H221178   5.976   6.708   2.997
 7079TIP3   OH221179   6.073   0.917   3.192
 7079TIP3    H121180   6.140   0.886   3.131
 7079TIP3    H221181   6.080   0.859   3.268
 7080TIP3   OH221182   8.020   1.007   1.181
 7080TIP3    H121183   8.085   1.011   1.110
 7080TIP3    H221184   8.069   1.029   1.260
 7081TIP3   OH221185   4.562   6.176   2.443
 7081TIP3    H121186   4.478   6.214   2.471
 7081TIP3    H221187   4.551   6.162   2.349
 7082TIP3   OH221188   5.546   6.497   3.254
 7082TIP3    H121189   5.519   6.450   3.175
 7082TIP3    H221190   5.604   6.437   3.300
 7083TIP3   OH221191   1.045   0.761   0.917
 7083TIP3    H121192   1.078   0.813   0.991
 7083TIP3    H221193   1.116   0.765   0.852
 7084TIP3   OH221194   4.844   0.262   3.399
 7084TIP3    H121195   4.903   0.334   3.381
 7084TIP3    H221196   4.818   0.230   3.312
 7085TIP3   OH221197   8.309   4.351   5.475
 7085TIP3    H121198   8.231   4.371   5.525
 7085TIP3    H221199   8.290   4.267   5.433
 7086TIP3   OH221200   8.238   1.341   5.526
 7086TIP3    H121201   8.155   1.297   5.508
 7086TIP3    H221202   8.214   1.419   5.576
 7087TIP3   OH221203   1.790   5.501   5.213
 7087TIP3    H121204   1.838   5.524   5.292
 7087TIP3    H221205   1.855   5.463   5.154
 7088TIP3   OH221206   0.736   1.353   3.895
 7088TIP3    H121207   0.725   1.337   3.989
 7088TIP3    H221208   0.648   1.345   3.859
 7089TIP3   OH221209   7.682   1.517   3.173
 7089TIP3    H121210   7.609   1.541   3.230
 7089TIP3    H221211   7.662   1.562   3.090
 7090TIP3   OH221212   2.842   3.441   1.145
 7090TIP3    H121213   2.912   3.446   1.080
 7090TIP3    H221214   2.887   3.432   1.228
 7091TIP3   OH221215   5.067   0.220   0.056
 7091TIP3    H121216   5.123   0.161   0.005
 7091TIP3    H221217   5.126   0.257   0.122
 7092TIP3   OH221218   3.265   3.383   1.119
 7092TIP3    H121219   3.353   3.415   1.137
 7092TIP3    H221220   3.221   3.385   1.204
 7093TIP3   OH221221   0.311   0.833   5.725
 7093TIP3    H121222   0.321   0.811   5.817
 7093TIP3    H221223   0.255   0.764   5.689
 7094TIP3   OH221224   4.585   3.975   2.087
 7094TIP3    H121225   4.604   3.983   1.993
 7094TIP3    H221226   4.583   3.880   2.103
 7095TIP3   OH221227   1.202   0.523   3.161
 7095TIP3    H121228   1.298   0.525   3.157
 7095TIP3    H221229   1.177   0.454   3.099
 7096TIP3   OH221230   1.187   5.198   4.047
 7096TIP3    H121231   1.120   5.242   3.994
 7096TIP3    H221232   1.181   5.239   4.133
 7097TIP3   OH221233   1.162   6.301   6.643
 7097TIP3    H121234   1.072   6.329   6.627
 7097TIP3    H221235   1.202   6.375   6.689
 7098TIP3   OH221236   5.612   2.190   0.313
 7098TIP3    H121237   5.611   2.227   0.402
 7098TIP3    H221238   5.680   2.239   0.267
 7099TIP3   OH221239   5.517   7.522   0.775
 7099TIP3    H121240   5.601   7.567   0.763
 7099TIP3    H221241   5.493   7.541   0.865
 7100TIP3   OH221242   6.354   0.631   4.209
 7100TIP3    H121243   6.412   0.669   4.143
 7100TIP3    H221244   6.307   0.561   4.163
 7101TIP3   OH221245   6.777   1.724   5.065
 7101TIP3    H121246   6.766   1.689   5.153
 7101TIP3    H221247   6.731   1.808   5.066
 7102TIP3   OH221248   4.202   4.107   2.613
 7102TIP3    H121249   4.214   4.036   2.676
 7102TIP3    H221250   4.109   4.130   2.620
 7103TIP3   OH221251   1.181   1.191   2.725
 7103TIP3    H121252   1.258   1.218   2.674
 7103TIP3    H221253   1.119   1.263   2.713
 7104TIP3   OH221254   3.037   7.667   6.694
 7104TIP3    H121255   3.101   7.603   6.724
 7104TIP3    H221256   3.035   7.656   6.599
 7105TIP3   OH221257   4.746   2.363   5.753
 7105TIP3    H121258   4.690   2.288   5.732
 7105TIP3    H221259   4.699   2.438   5.716
 7106TIP3   OH221260   1.371   5.818   5.932
 7106TIP3    H121261   1.456   5.861   5.920
 7106TIP3    H221262   1.385   5.759   6.006
 7107TIP3   OH221263   7.321   2.359   3.746
 7107TIP3    H121264   7.270   2.379   3.824
 7107TIP3    H221265   7.294   2.271   3.722
 7108TIP3   OH221266   7.976   2.636   0.642
 7108TIP3    H121267   7.890   2.618   0.679
 7108TIP3    H221268   8.020   2.551   0.644
 7109TIP3   OH221269   2.249   4.450   4.683
 7109TIP3    H121270   2.214   4.361   4.678
 7109TIP3    H221271   2.177   4.501   4.722
 7110TIP3   OH221272   5.730   5.855   0.151
 7110TIP3    H121273   5.788   5.903   0.090
 7110TIP3    H221274   5.775   5.861   0.235
 7111TIP3   OH221275   3.501   3.233   3.343
 7111TIP3    H121276   3.563   3.182   3.395
 7111TIP3    H221277   3.432   3.171   3.320
 7112TIP3   OH221278   1.799   0.666   0.839
 7112TIP3    H121279   1.891   0.641   0.838
 7112TIP3    H221280   1.772   0.654   0.930
 7113TIP3   OH221281   2.910   0.592   4.834
 7113TIP3    H121282   2.852   0.668   4.831
 7113TIP3    H221283   2.857   0.523   4.875
 7114TIP3   OH221284   0.941   4.790   1.016
 7114TIP3    H121285   1.022   4.746   0.990
 7114TIP3    H221286   0.909   4.739   1.091
 7115TIP3   OH221287   2.728   1.680   4.026
 7115TIP3    H121288   2.733   1.606   4.087
 7115TIP3    H221289   2.799   1.665   3.964
 7116TIP3   OH221290   7.352   4.660   0.844
 7116TIP3    H121291   7.423   4.646   0.783
 7116TIP3    H221292   7.273   4.638   0.795
 7117TIP3   OH221293   0.394   3.191   5.573
 7117TIP3    H121294   0.398   3.282   5.544
 7117TIP3    H221295   0.360   3.143   5.497
 7118TIP3   OH221296   0.157   7.613   1.350
 7118TIP3    H121297   0.120   7.701   1.345
 7118TIP3    H221298   0.223   7.619   1.419
 7119TIP3   OH221299   1.409   1.782   1.661
 7119TIP3    H121300   1.468   1.717   1.700
 7119TIP3    H221301   1.322   1.745   1.671
 7120TIP3   OH221302   5.514   4.753   0.285
 7120TIP3    H121303   5.426   4.776   0.255
 7120TIP3    H221304   5.500   4.688   0.353
 7121TIP3   OH221305   6.870   4.892   1.459
 7121TIP3    H121306   6.779   4.910   1.435
 7121TIP3    H221307   6.890   4.960   1.523
 7122TIP3   OH221308   3.403   5.610   3.845
 7122TIP3    H121309   3.389   5.525   3.889
 7122TIP3    H221310   3.486   5.599   3.799
 7123TIP3   OH221311   0.652   1.098   3.083
 7123TIP3    H121312   0.561   1.102   3.053
 7123TIP3    H221313   0.695   1.174   3.043
 7124TIP3   OH221314   8.182   5.257   0.953
 7124TIP3    H121315   8.191   5.302   0.869
 7124TIP3    H221316   8.122   5.184   0.935
 7125TIP3   OH221317   3.423   0.597   5.906
 7125TIP3    H121318   3.410   0.536   5.833
 7125TIP3    H221319   3.356   0.664   5.893
 7126TIP3   OH221320   5.401   4.837   1.357
 7126TIP3    H121321   5.368   4.748   1.345
 7126TIP3    H221322   5.489   4.824   1.395
 7127TIP3   OH221323   5.117   3.271   2.725
 7127TIP3    H121324   5.176   3.330   2.772
 7127TIP3    H221325   5.176   3.217   2.671
 7128TIP3   OH221326   3.814   2.862   2.462
 7128TIP3    H121327   3.718   2.862   2.464
 7128TIP3    H221328   3.840   2.893   2.549
 7129TIP3   OH221329   5.665   6.989   1.546
 7129TIP3    H121330   5.589   6.933   1.532
 7129TIP3    H221331   5.646   7.034   1.629
 7130TIP3   OH221332   3.279   2.754   4.962
 7130TIP3    H121333   3.364   2.788   4.932
 7130TIP3    H221334   3.263   2.677   4.907
 7131TIP3   OH221335   2.422   1.498   2.925
 7131TIP3    H121336   2.451   1.444   2.999
 7131TIP3    H221337   2.418   1.586   2.960
 7132TIP3   OH221338   7.901   0.377   2.624
 7132TIP3    H121339   7.994   0.372   2.604
 7132TIP3    H221340   7.858   0.386   2.539
 7133TIP3   OH221341   1.378   1.565   0.149
 7133TIP3    H121342   1.283   1.558   0.154
 7133TIP3    H221343   1.394   1.639   0.090
 7134TIP3   OH221344   3.778   3.727   1.544
 7134TIP3    H121345   3.736   3.813   1.542
 7134TIP3    H221346   3.868   3.744   1.517
 7135TIP3   OH221347   2.757   3.573   0.597
 7135TIP3    H121348   2.708   3.649   0.567
 7135TIP3    H221349   2.690   3.509   0.620
 7136TIP3   OH221350   6.972   0.016   6.459
 7136TIP3    H121351   7.043   0.073   6.489
 7136TIP3    H221352   6.895   0.074   6.454
 7137TIP3   OH221353   0.715   4.863   1.828
 7137TIP3    H121354   0.783   4.883   1.764
 7137TIP3    H221355   0.667   4.945   1.839
 7138TIP3   OH221356   6.943   3.246   2.473
 7138TIP3    H121357   6.939   3.316   2.408
 7138TIP3    H221358   6.935   3.165   2.423
 7139TIP3   OH221359   2.136   6.983   3.669
 7139TIP3    H121360   2.152   7.066   3.625
 7139TIP3    H221361   2.044   6.988   3.697
 7140TIP3   OH221362   1.046   5.823   0.095
 7140TIP3    H121363   1.046   5.809   0.000
 7140TIP3    H221364   0.979   5.764   0.128
 7141TIP3   OH221365   1.995   6.205   1.202
 7141TIP3    H121366   1.919   6.253   1.233
 7141TIP3    H221367   2.028   6.160   1.280
 7142TIP3   OH221368   0.986   6.453   5.029
 7142TIP3    H121369   0.998   6.362   5.056
 7142TIP3    H221370   1.071   6.494   5.043
 7143TIP3   OH221371   3.521   2.504   4.986
 7143TIP3    H121372   3.565   2.527   5.067
 7143TIP3    H221373   3.437   2.467   5.014
 7144TIP3   OH221374   0.940   7.092   1.933
 7144TIP3    H121375   0.974   7.179   1.955
 7144TIP3    H221376   0.862   7.110   1.880
 7145TIP3   OH221377   3.437   5.840   4.188
 7145TIP3    H121378   3.417   5.754   4.151
 7145TIP3    H221379   3.385   5.901   4.136
 7146TIP3   OH221380   5.270   6.746   4.806
 7146TIP3    H121381   5.284   6.840   4.794
 7146TIP3    H221382   5.352   6.706   4.777
 7147TIP3   OH221383   1.729   2.003   2.819
 7147TIP3    H121384   1.721   1.998   2.724
 7147TIP3    H221385   1.695   1.919   2.850
 7148TIP3   OH221386   6.595   2.763   0.619
 7148TIP3    H121387   6.578   2.855   0.636
 7148TIP3    H221388   6.615   2.759   0.525
 7149TIP3   OH221389   6.214   1.798   2.085
 7149TIP3    H121390   6.307   1.783   2.101
 7149TIP3    H221391   6.197   1.758   2.000
 7150TIP3   OH221392   0.422   7.009   3.101
 7150TIP3    H121393   0.478   7.067   3.048
 7150TIP3    H221394   0.423   6.926   3.054
 7151TIP3   OH221395   8.230   0.267   1.916
 7151TIP3    H121396   8.171   0.342   1.920
 7151TIP3    H221397   8.257   0.263   1.824
 7152TIP3   OH221398   3.652   2.079   6.506
 7152TIP3    H121399   3.706   2.126   6.570
 7152TIP3    H221400   3.714   2.043   6.444
 7153TIP3   OH221401   1.156   2.339   2.731
 7153TIP3    H121402   1.180   2.250   2.755
 7153TIP3    H221403   1.060   2.339   2.731
 7154TIP3   OH221404   6.735   4.900   3.563
 7154TIP3    H121405   6.661   4.953   3.591
 7154TIP3    H221406   6.756   4.846   3.640
 7155TIP3   OH221407   4.131   2.001   6.001
 7155TIP3    H121408   4.147   2.094   6.017
 7155TIP3    H221409   4.041   1.986   6.031
 7156TIP3   OH221410   6.710   3.611   2.058
 7156TIP3    H121411   6.762   3.611   1.978
 7156TIP3    H221412   6.672   3.699   2.061
 7157TIP3   OH221413   7.257   2.750   6.750
 7157TIP3    H121414   7.343   2.747   6.707
 7157TIP3    H221415   7.225   2.838   6.731
 7158TIP3   OH221416   1.494   6.810   1.648
 7158TIP3    H121417   1.548   6.745   1.693
 7158TIP3    H221418   1.417   6.761   1.619
 7159TIP3   OH221419   5.864   3.365   4.264
 7159TIP3    H121420   5.786   3.312   4.247
 7159TIP3    H221421   5.889   3.398   4.178
 7160TIP3   OH221422   5.320   0.308   5.415
 7160TIP3    H121423   5.279   0.246   5.475
 7160TIP3    H221424   5.405   0.268   5.394
 7161TIP3   OH221425   0.741   7.339   0.591
 7161TIP3    H121426   0.743   7.273   0.521
 7161TIP3    H221427   0.712   7.291   0.668
 7162TIP3   OH221428   5.217   0.743   1.521
 7162TIP3    H121429   5.300   0.695   1.518
 7162TIP3    H221430   5.192   0.742   1.613
 7163TIP3   OH221431   4.598   7.263   1.530
 7163TIP3    H121432   4.557   7.219   1.604
 7163TIP3    H221433   4.599   7.356   1.555
 7164TIP3   OH221434   0.245   5.813   0.263
 7164TIP3    H121435   0.247   5.726   0.224
 7164TIP3    H221436   0.315   5.811   0.329
 7165TIP3   OH221437   7.976   4.024   5.053
 7165TIP3    H121438   8.058   4.040   5.006
 7165TIP3    H221439   7.992   3.942   5.101
 7166TIP3   OH221440   3.697   6.571   3.712
 7166TIP3    H121441   3.768   6.547   3.654
 7166TIP3    H221442   3.622   6.521   3.680
 7167TIP3   OH221443   6.997   5.822   1.667
 7167TIP3    H121444   7.046   5.799   1.587
 7167TIP3    H221445   6.958   5.907   1.648
 7168TIP3   OH221446   4.033   6.999   2.681
 7168TIP3    H121447   4.078   6.918   2.656
 7168TIP3    H221448   3.965   7.010   2.615
 7169TIP3   OH221449   0.772   2.160   1.635
 7169TIP3    H121450   0.778   2.165   1.539
 7169TIP3    H221451   0.690   2.205   1.656
 7170TIP3   OH221452   2.793   0.698   1.283
 7170TIP3    H121453   2.704   0.671   1.307
 7170TIP3    H221454   2.826   0.745   1.359
 7171TIP3   OH221455   1.330   0.899   2.644
 7171TIP3    H121456   1.251   0.941   2.610
 7171TIP3    H221457   1.345   0.941   2.728
 7172TIP3   OH221458   6.064   2.697   2.203
 7172TIP3    H121459   6.047   2.685   2.109
 7172TIP3    H221460   5.985   2.664   2.246
 7173TIP3   OH221461   4.281   6.698   1.310
 7173TIP3    H121462   4.327   6.779   1.329
 7173TIP3    H221463   4.243   6.712   1.223
 7174TIP3   OH221464   3.556   4.886   0.950
 7174TIP3    H121465   3.601   4.950   1.006
 7174TIP3    H221466   3.624   4.853   0.892
 7175TIP3   OH221467   7.956   6.208   2.344
 7175TIP3    H121468   7.990   6.276   2.286
 7175TIP3    H221469   7.976   6.239   2.432
 7176TIP3   OH221470   4.146   0.967   3.460
 7176TIP3    H121471   4.085   0.992   3.391
 7176TIP3    H221472   4.174   0.878   3.436
 7177TIP3   OH221473   2.227   0.716   4.591
 7177TIP3    H121474   2.213   0.654   4.663
 7177TIP3    H221475   2.276   0.666   4.526
 7178TIP3   OH221476   5.366   2.806   1.923
 7178TIP3    H121477   5.441   2.747   1.914
 7178TIP3    H221478   5.392   2.884   1.874
 7179TIP3   OH221479   6.967   5.415   6.305
 7179TIP3    H121480   6.888   5.414   6.359
 7179TIP3    H221481   7.038   5.426   6.368
 7180TIP3   OH221482   2.138   0.135   1.587
 7180TIP3    H121483   2.076   0.175   1.526
 7180TIP3    H221484   2.085   0.071   1.635
 7181TIP3   OH221485   2.222   5.363   0.016
 7181TIP3    H121486   2.201   5.447  -0.025
 7181TIP3    H221487   2.301   5.381   0.068
 7182TIP3   OH221488   8.232   3.913   1.416
 7182TIP3    H121489   8.268   3.828   1.441
 7182TIP3    H221490   8.191   3.946   1.497
 7183TIP3   OH221491   3.469   7.267   2.357
 7183TIP3    H121492   3.417   7.202   2.310
 7183TIP3    H221493   3.535   7.217   2.405
 7184TIP3   OH221494   4.946   5.100   3.311
 7184TIP3    H121495   5.020   5.065   3.262
 7184TIP3    H221496   4.877   5.111   3.246
 7185TIP3   OH221497   1.439   0.750   2.330
 7185TIP3    H121498   1.440   0.819   2.264
 7185TIP3    H221499   1.401   0.675   2.285
 7186TIP3   OH221500   3.606   5.350   2.164
 7186TIP3    H121501   3.596   5.256   2.181
 7186TIP3    H221502   3.626   5.388   2.250
 7187TIP3   OH221503   3.982   1.060   3.258
 7187TIP3    H121504   3.978   1.142   3.208
 7187TIP3    H221505   3.984   0.991   3.191
 7188TIP3   OH221506   0.104   1.893   5.820
 7188TIP3    H121507   0.067   1.926   5.738
 7188TIP3    H221508   0.056   1.939   5.889
 7189TIP3   OH221509   4.982   0.606   3.988
 7189TIP3    H121510   5.053   0.564   4.037
 7189TIP3    H221511   4.924   0.642   4.055
 7190TIP3   OH221512   1.193   4.092   3.381
 7190TIP3    H121513   1.267   4.096   3.441
 7190TIP3    H221514   1.131   4.157   3.415
 7191TIP3   OH221515   4.255   3.031   2.977
 7191TIP3    H121516   4.289   2.961   3.033
 7191TIP3    H221517   4.231   3.101   3.038
 7192TIP3   OH221518   4.782   1.485   6.040
 7192TIP3    H121519   4.719   1.550   6.069
 7192TIP3    H221520   4.867   1.522   6.064
 7193TIP3   OH221521   4.280   4.693   1.980
 7193TIP3    H121522   4.326   4.765   2.022
 7193TIP3    H221523   4.331   4.615   2.003
 7194TIP3   OH221524   4.811   6.668   4.013
 7194TIP3    H121525   4.732   6.665   4.067
 7194TIP3    H221526   4.878   6.706   4.070
 7195TIP3   OH221527   0.654   1.206   3.590
 7195TIP3    H121528   0.657   1.285   3.538
 7195TIP3    H221529   0.679   1.136   3.530
 7196TIP3   OH221530   8.222   2.581   1.158
 7196TIP3    H121531   8.274   2.549   1.084
 7196TIP3    H221532   8.236   2.676   1.157
 7197TIP3   OH221533   0.190   2.095   0.867
 7197TIP3    H121534   0.157   2.138   0.946
 7197TIP3    H221535   0.187   2.002   0.888
 7198TIP3   OH221536   5.545   7.468   2.822
 7198TIP3    H121537   5.582   7.388   2.860
 7198TIP3    H221538   5.471   7.489   2.879
 7199TIP3   OH221539   2.611   1.068   0.161
 7199TIP3    H121540   2.606   1.161   0.136
 7199TIP3    H221541   2.576   1.066   0.251
 7200TIP3   OH221542   1.946   6.209   4.234
 7200TIP3    H121543   1.988   6.234   4.152
 7200TIP3    H221544   1.852   6.220   4.218
 7201TIP3   OH221545   0.329   0.147   5.651
 7201TIP3    H121546   0.394   0.212   5.681
 7201TIP3    H221547   0.311   0.171   5.560
 7202TIP3   OH221548   3.879   4.119   0.822
 7202TIP3    H121549   3.886   4.214   0.810
 7202TIP3    H221550   3.786   4.101   0.816
 7203TIP3   OH221551   7.322   2.296   3.359
 7203TIP3    H121552   7.416   2.292   3.377
 7203TIP3    H221553   7.283   2.227   3.413
 7204TIP3   OH221554   0.186   4.020   3.665
 7204TIP3    H121555   0.133   4.096   3.641
 7204TIP3    H221556   0.148   3.989   3.747
 7205TIP3   OH221557   0.371   5.054   3.672
 7205TIP3    H121558   0.328   5.094   3.748
 7205TIP3    H221559   0.458   5.093   3.671
 7206TIP3   OH221560   6.773   7.179   6.290
 7206TIP3    H121561   6.815   7.111   6.343
 7206TIP3    H221562   6.749   7.247   6.353
 7207TIP3   OH221563   6.727   4.920   4.797
 7207TIP3    H121564   6.716   4.889   4.707
 7207TIP3    H221565   6.783   4.998   4.788
 7208TIP3   OH221566   5.404   4.605   0.484
 7208TIP3    H121567   5.379   4.657   0.560
 7208TIP3    H221568   5.328   4.550   0.465
 7209TIP3   OH221569   7.299   0.777   1.038
 7209TIP3    H121570   7.286   0.853   1.093
 7209TIP3    H221571   7.223   0.775   0.980
 7210TIP3   OH221572   2.912   4.074   4.998
 7210TIP3    H121573   2.819   4.073   5.020
 7210TIP3    H221574   2.938   4.165   5.007
 7211TIP3   OH221575   2.912   5.151   0.286
 7211TIP3    H121576   2.877   5.182   0.369
 7211TIP3    H221577   2.993   5.201   0.274
 7212TIP3   OH221578   0.032   7.701   1.838
 7212TIP3    H121579   0.046   7.646   1.916
 7212TIP3    H221580   0.110   7.755   1.833
 7213TIP3   OH221581   6.812   5.279   4.025
 7213TIP3    H121582   6.817   5.300   4.118
 7213TIP3    H221583   6.790   5.186   4.023
 7214TIP3   OH221584   3.037   6.501   1.522
 7214TIP3    H121585   3.055   6.410   1.544
 7214TIP3    H221586   2.945   6.501   1.493
 7215TIP3   OH221587   5.787   0.412   4.335
 7215TIP3    H121588   5.786   0.324   4.372
 7215TIP3    H221589   5.842   0.404   4.257
 7216TIP3   OH221590   2.005   7.148   0.623
 7216TIP3    H121591   1.946   7.214   0.586
 7216TIP3    H221592   2.077   7.142   0.560
 7217TIP3   OH221593   0.315   7.731   2.146
 7217TIP3    H121594   0.285   7.770   2.228
 7217TIP3    H221595   0.358   7.650   2.173
 7218TIP3   OH221596   2.050   5.550   3.392
 7218TIP3    H121597   1.994   5.512   3.460
 7218TIP3    H221598   2.069   5.477   3.334
 7219TIP3   OH221599   1.721   6.525   0.721
 7219TIP3    H121600   1.763   6.571   0.794
 7219TIP3    H221601   1.710   6.593   0.654
 7220TIP3   OH221602   1.715   6.575   5.250
 7220TIP3    H121603   1.735   6.490   5.212
 7220TIP3    H221604   1.689   6.629   5.175
 7221TIP3   OH221605   1.977   1.513   4.201
 7221TIP3    H121606   2.036   1.491   4.129
 7221TIP3    H221607   2.030   1.565   4.262
 7222TIP3   OH221608   0.667   3.262   0.653
 7222TIP3    H121609   0.637   3.325   0.719
 7222TIP3    H221610   0.684   3.182   0.703
 7223TIP3   OH221611   0.551   1.146   6.000
 7223TIP3    H121612   0.515   1.228   5.967
 7223TIP3    H221613   0.540   1.151   6.095
 7224TIP3   OH221614   6.814   6.420   2.887
 7224TIP3    H121615   6.806   6.513   2.869
 7224TIP3    H221616   6.880   6.389   2.825
 7225TIP3   OH221617   6.806   5.590   2.660
 7225TIP3    H121618   6.822   5.564   2.569
 7225TIP3    H221619   6.733   5.651   2.655
 7226TIP3   OH221620   1.524   4.278   5.351
 7226TIP3    H121621   1.511   4.366   5.316
 7226TIP3    H221622   1.442   4.232   5.333
 7227TIP3   OH221623   3.065   0.982   5.431
 7227TIP3    H121624   3.084   1.010   5.520
 7227TIP3    H221625   3.031   0.893   5.441
 7228TIP3   OH221626   2.614   4.792   2.983
 7228TIP3    H121627   2.605   4.719   3.044
 7228TIP3    H221628   2.564   4.764   2.906
 7229TIP3   OH221629   5.300   0.250   1.725
 7229TIP3    H121630   5.379   0.198   1.714
 7229TIP3    H221631   5.290   0.258   1.820
 7230TIP3   OH221632   6.201   1.848   5.045
 7230TIP3    H121633   6.142   1.922   5.046
 7230TIP3    H221634   6.228   1.840   4.953
 7231TIP3   OH221635   0.476   4.869   0.102
 7231TIP3    H121636   0.510   4.870   0.192
 7231TIP3    H221637   0.479   4.960   0.074
 7232TIP3   OH221638   3.649   7.514   1.915
 7232TIP3    H121639   3.590   7.465   1.972
 7232TIP3    H221640   3.666   7.596   1.963
 7233TIP3   OH221641   1.819   7.628   0.795
 7233TIP3    H121642   1.864   7.587   0.721
 7233TIP3    H221643   1.877   7.612   0.870
 7234TIP3   OH221644   3.758   2.571   2.170
 7234TIP3    H121645   3.665   2.552   2.158
 7234TIP3    H221646   3.765   2.599   2.262
 7235TIP3   OH221647   5.833   5.734   1.203
 7235TIP3    H121648   5.782   5.781   1.137
 7235TIP3    H221649   5.819   5.784   1.284
 7236TIP3   OH221650   4.291   7.284   5.823
 7236TIP3    H121651   4.250   7.339   5.889
 7236TIP3    H221652   4.347   7.343   5.773
 7237TIP3   OH221653   6.644   6.832   1.113
 7237TIP3    H121654   6.708   6.881   1.166
 7237TIP3    H221655   6.634   6.749   1.159
 7238TIP3   OH221656   6.863   0.884   6.169
 7238TIP3    H121657   6.868   0.788   6.160
 7238TIP3    H221658   6.849   0.915   6.080
 7239TIP3   OH221659   5.263   2.463   3.609
 7239TIP3    H121660   5.260   2.449   3.704
 7239TIP3    H221661   5.354   2.445   3.585
 7240TIP3   OH221662   4.180   6.319   2.230
 7240TIP3    H121663   4.148   6.300   2.142
 7240TIP3    H221664   4.112   6.284   2.288
 7241TIP3   OH221665   2.340   3.260   4.510
 7241TIP3    H121666   2.402   3.230   4.576
 7241TIP3    H221667   2.355   3.354   4.504
 7242TIP3   OH221668   0.765   4.712   1.441
 7242TIP3    H121669   0.725   4.636   1.398
 7242TIP3    H221670   0.741   4.702   1.533
 7243TIP3   OH221671   1.243   6.340   2.158
 7243TIP3    H121672   1.198   6.280   2.099
 7243TIP3    H221673   1.173   6.395   2.195
 7244TIP3   OH221674   6.806   6.416   1.334
 7244TIP3    H121675   6.786   6.481   1.401
 7244TIP3    H221676   6.876   6.362   1.373
 7245TIP3   OH221677   3.718   2.984   0.466
 7245TIP3    H121678   3.695   3.055   0.405
 7245TIP3    H221679   3.635   2.943   0.488
 7246TIP3   OH221680   0.669   5.989   4.850
 7246TIP3    H121681   0.632   6.044   4.918
 7246TIP3    H221682   0.618   5.908   4.853
 7247TIP3   OH221683   0.468   6.971   0.770
 7247TIP3    H121684   0.412   7.010   0.837
 7247TIP3    H221685   0.495   7.044   0.715
 7248TIP3   OH221686   8.197   3.232   5.946
 7248TIP3    H121687   8.274   3.257   5.997
 7248TIP3    H221688   8.137   3.194   6.010
 7249TIP3   OH221689   0.399   1.705   0.687
 7249TIP3    H121690   0.433   1.735   0.770
 7249TIP3    H221691   0.421   1.612   0.683
 7250TIP3   OH221692   7.514   7.631   0.909
 7250TIP3    H121693   7.582   7.572   0.942
 7250TIP3    H221694   7.432   7.587   0.933
 7251TIP3   OH221695   1.971   2.097   4.645
 7251TIP3    H121696   2.055   2.052   4.656
 7251TIP3    H221697   1.995   2.187   4.624
 7252TIP3   OH221698   6.867   0.800   5.485
 7252TIP3    H121699   6.939   0.845   5.529
 7252TIP3    H221700   6.866   0.712   5.524
 7253TIP3   OH221701   5.876   1.794   3.007
 7253TIP3    H121702   5.863   1.776   2.914
 7253TIP3    H221703   5.910   1.712   3.044
 7254TIP3   OH221704   6.121   0.908   5.340
 7254TIP3    H121705   6.034   0.892   5.306
 7254TIP3    H221706   6.121   1.001   5.363
 7255TIP3   OH221707   3.909   0.584   5.411
 7255TIP3    H121708   3.941   0.590   5.321
 7255TIP3    H221709   3.983   0.612   5.465
 7256TIP3   OH221710   6.217   5.204   1.314
 7256TIP3    H121711   6.225   5.129   1.373
 7256TIP3    H221712   6.220   5.166   1.227
 7257TIP3   OH221713   2.761   0.344   4.681
 7257TIP3    H121714   2.844   0.341   4.633
 7257TIP3    H221715   2.758   0.262   4.730
 7258TIP3   OH221716   5.887   3.221   0.666
 7258TIP3    H121717   5.978   3.247   0.680
 7258TIP3    H221718   5.875   3.224   0.571
 7259TIP3   OH221719   2.119   1.035   4.931
 7259TIP3    H121720   2.143   0.974   5.001
 7259TIP3    H221721   2.068   0.982   4.870
 7260TIP3   OH221722   3.961   1.623   4.417
 7260TIP3    H121723   3.912   1.595   4.494
 7260TIP3    H221724   3.907   1.691   4.378
 7261TIP3   OH221725   3.606   6.963   1.749
 7261TIP3    H121726   3.582   6.889   1.692
 7261TIP3    H221727   3.603   7.039   1.691
 7262TIP3   OH221728   8.002   0.233   1.089
 7262TIP3    H121729   7.997   0.141   1.064
 7262TIP3    H221730   7.911   0.260   1.100
 7263TIP3   OH221731   1.744   5.483   5.645
 7263TIP3    H121732   1.817   5.492   5.707
 7263TIP3    H221733   1.665   5.490   5.699
 7264TIP3   OH221734   5.051   2.063   4.154
 7264TIP3    H121735   5.073   2.102   4.239
 7264TIP3    H221736   5.136   2.046   4.113
 7265TIP3   OH221737   2.617   5.360   3.185
 7265TIP3    H121738   2.553   5.430   3.201
 7265TIP3    H221739   2.682   5.400   3.128
 7266TIP3   OH221740   4.833   2.610   1.557
 7266TIP3    H121741   4.851   2.517   1.543
 7266TIP3    H221742   4.909   2.654   1.519
 7267TIP3   OH221743   3.599   1.862   0.775
 7267TIP3    H121744   3.603   1.796   0.705
 7267TIP3    H221745   3.512   1.850   0.814
 7268TIP3   OH221746   0.345   0.858   3.524
 7268TIP3    H121747   0.340   0.867   3.429
 7268TIP3    H221748   0.385   0.772   3.537
 7269TIP3   OH221749   5.314   5.035   3.613
 7269TIP3    H121750   5.261   5.098   3.564
 7269TIP3    H221751   5.371   4.996   3.547
 7270TIP3   OH221752   0.184   5.439   0.791
 7270TIP3    H121753   0.155   5.469   0.877
 7270TIP3    H221754   0.156   5.507   0.731
 7271TIP3   OH221755   5.825   3.315   5.962
 7271TIP3    H121756   5.827   3.261   5.883
 7271TIP3    H221757   5.791   3.256   6.030
 7272TIP3   OH221758   1.059   3.324   4.135
 7272TIP3    H121759   0.974   3.367   4.126
 7272TIP3    H221760   1.037   3.233   4.156
 7273TIP3   OH221761   7.514   1.109   6.726
 7273TIP3    H121762   7.602   1.144   6.740
 7273TIP3    H221763   7.529   1.026   6.680
 7274TIP3   OH221764   1.991   2.718   4.513
 7274TIP3    H121765   1.964   2.684   4.428
 7274TIP3    H221766   2.025   2.806   4.494
 7275TIP3   OH221767   4.309   6.721   1.037
 7275TIP3    H121768   4.263   6.743   0.956
 7275TIP3    H221769   4.365   6.796   1.055
 7276TIP3   OH221770   7.565   6.358   1.394
 7276TIP3    H121771   7.593   6.394   1.478
 7276TIP3    H221772   7.646   6.337   1.348
 7277TIP3   OH221773   5.085   2.536   6.017
 7277TIP3    H121774   5.139   2.520   6.095
 7277TIP3    H221775   5.031   2.457   6.010
 7278TIP3   OH221776   2.983   3.538   2.585
 7278TIP3    H121777   2.925   3.597   2.632
 7278TIP3    H221778   3.066   3.585   2.580
 7279TIP3   OH221779   3.555   3.134   0.691
 7279TIP3    H121780   3.508   3.189   0.628
 7279TIP3    H221781   3.622   3.090   0.639
 7280TIP3   OH221782   3.703   1.517   1.969
 7280TIP3    H121783   3.628   1.541   1.914
 7280TIP3    H221784   3.732   1.433   1.933
 7281TIP3   OH221785   1.231   4.158   4.719
 7281TIP3    H121786   1.168   4.137   4.789
 7281TIP3    H221787   1.179   4.203   4.652
 7282TIP3   OH221788   4.377   2.976   1.939
 7282TIP3    H121789   4.397   3.055   1.889
 7282TIP3    H221790   4.404   2.904   1.881
 7283TIP3   OH221791   0.520   5.783   4.743
 7283TIP3    H121792   0.499   5.747   4.656
 7283TIP3    H221793   0.460   5.858   4.752
 7284TIP3   OH221794   3.311   4.290   5.954
 7284TIP3    H121795   3.242   4.301   5.889
 7284TIP3    H221796   3.268   4.310   6.038
 7285TIP3   OH221797   5.617   0.504   2.417
 7285TIP3    H121798   5.663   0.420   2.409
 7285TIP3    H221799   5.588   0.523   2.328
 7286TIP3   OH221800   4.559   5.039   2.004
 7286TIP3    H121801   4.592   4.949   2.003
 7286TIP3    H221802   4.464   5.030   2.000
 7287TIP3   OH221803   0.951   5.922   4.917
 7287TIP3    H121804   0.871   5.951   4.873
 7287TIP3    H221805   0.989   5.858   4.857
 7288TIP3   OH221806   6.726   1.625   0.537
 7288TIP3    H121807   6.770   1.646   0.620
 7288TIP3    H221808   6.730   1.707   0.487
 7289TIP3   OH221809   6.818   3.972   1.444
 7289TIP3    H121810   6.774   3.903   1.394
 7289TIP3    H221811   6.869   3.926   1.510
 7290TIP3   OH221812   4.771   3.813   5.875
 7290TIP3    H121813   4.816   3.858   5.948
 7290TIP3    H221814   4.686   3.788   5.912
 7291TIP3   OH221815   5.720   4.516   3.540
 7291TIP3    H121816   5.702   4.534   3.448
 7291TIP3    H221817   5.641   4.544   3.586
 7292TIP3   OH221818   1.716   4.349   4.590
 7292TIP3    H121819   1.723   4.383   4.679
 7292TIP3    H221820   1.733   4.256   4.599
 7293TIP3   OH221821   5.723   1.312   2.656
 7293TIP3    H121822   5.810   1.350   2.668
 7293TIP3    H221823   5.664   1.368   2.705
 7294TIP3   OH221824   4.328   6.106   0.733
 7294TIP3    H121825   4.290   6.091   0.819
 7294TIP3    H221826   4.371   6.023   0.712
 7295TIP3   OH221827   6.833   0.441   4.242
 7295TIP3    H121828   6.871   0.464   4.327
 7295TIP3    H221829   6.852   0.348   4.232
 7296TIP3   OH221830   7.970   2.674   1.037
 7296TIP3    H121831   8.026   2.623   1.096
 7296TIP3    H221832   7.915   2.608   0.994
 7297TIP3   OH221833   6.124   2.806   6.553
 7297TIP3    H121834   6.069   2.846   6.621
 7297TIP3    H221835   6.194   2.763   6.601
 7298TIP3   OH221836   1.644   7.074   5.380
 7298TIP3    H121837   1.588   7.134   5.331
 7298TIP3    H221838   1.602   7.066   5.466
 7299TIP3   OH221839   3.857   7.310   1.783
 7299TIP3    H121840   3.941   7.304   1.739
 7299TIP3    H221841   3.853   7.232   1.839
 7300TIP3   OH221842   7.120   6.345   2.077
 7300TIP3    H121843   7.062   6.276   2.108
 7300TIP3    H221844   7.092   6.423   2.124
 7301TIP3   OH221845   1.795   2.730   3.990
 7301TIP3    H121846   1.829   2.773   3.912
 7301TIP3    H221847   1.776   2.801   4.051
 7302TIP3   OH221848   7.541   6.029   3.080
 7302TIP3    H121849   7.504   5.983   3.155
 7302TIP3    H221850   7.636   6.029   3.096
 7303TIP3   OH221851   5.671   5.580   2.399
 7303TIP3    H121852   5.737   5.512   2.384
 7303TIP3    H221853   5.612   5.571   2.324
 7304TIP3   OH221854   7.201   3.528   1.254
 7304TIP3    H121855   7.266   3.459   1.243
 7304TIP3    H221856   7.123   3.497   1.208
 7305TIP3   OH221857   2.113   3.131   2.895
 7305TIP3    H121858   2.083   3.119   2.985
 7305TIP3    H221859   2.039   3.105   2.840
 7306TIP3   OH221860   4.924   6.258   6.722
 7306TIP3    H121861   4.921   6.350   6.696
 7306TIP3    H221862   4.980   6.216   6.657
 7307TIP3   OH221863   2.952   7.037   2.625
 7307TIP3    H121864   2.887   7.089   2.577
 7307TIP3    H221865   3.009   7.102   2.666
 7308TIP3   OH221866   4.525   1.266   2.413
 7308TIP3    H121867   4.555   1.189   2.461
 7308TIP3    H221868   4.470   1.314   2.475
 7309TIP3   OH221869   7.842   6.439   6.708
 7309TIP3    H121870   7.861   6.469   6.620
 7309TIP3    H221871   7.786   6.363   6.696
 7310TIP3   OH221872   5.086   1.477   1.794
 7310TIP3    H121873   5.020   1.472   1.725
 7310TIP3    H221874   5.144   1.403   1.778
 7311TIP3   OH221875   4.235   1.998   6.729
 7311TIP3    H121876   4.213   1.912   6.765
 7311TIP3    H221877   4.273   2.045   6.803
 7312TIP3   OH221878   4.304   3.846   1.117
 7312TIP3    H121879   4.373   3.859   1.053
 7312TIP3    H221880   4.316   3.756   1.147
 7313TIP3   OH221881   4.725   1.804   3.209
 7313TIP3    H121882   4.653   1.835   3.264
 7313TIP3    H221883   4.688   1.797   3.121
 7314TIP3   OH221884   1.769   0.340   4.104
 7314TIP3    H121885   1.674   0.330   4.100
 7314TIP3    H221886   1.793   0.373   4.017
 7315TIP3   OH221887   4.442   5.011   4.845
 7315TIP3    H121888   4.526   5.055   4.851
 7315TIP3    H221889   4.447   4.961   4.763
 7316TIP3   OH221890   5.591   3.387   6.229
 7316TIP3    H121891   5.629   3.307   6.193
 7316TIP3    H221892   5.589   3.373   6.323
 7317TIP3   OH221893   4.112   5.520   4.079
 7317TIP3    H121894   4.024   5.523   4.042
 7317TIP3    H221895   4.129   5.609   4.108
 7318TIP3   OH221896   6.164   0.006   6.153
 7318TIP3    H121897   6.222   0.001   6.076
 7318TIP3    H221898   6.217  -0.030   6.225
 7319TIP3   OH221899   6.228   6.008   5.356
 7319TIP3    H121900   6.232   5.920   5.394
 7319TIP3    H221901   6.206   6.065   5.430
 7320TIP3   OH221902   6.737   1.371   6.555
 7320TIP3    H121903   6.765   1.311   6.486
 7320TIP3    H221904   6.739   1.318   6.635
 7321TIP3   OH221905   0.888   1.536   0.106
 7321TIP3    H121906   0.825   1.578   0.165
 7321TIP3    H221907   0.897   1.598   0.033
 7322TIP3   OH221908   3.692   6.166   5.789
 7322TIP3    H121909   3.666   6.248   5.748
 7322TIP3    H221910   3.655   6.097   5.733
 7323TIP3   OH221911   7.764   6.886   3.162
 7323TIP3    H121912   7.832   6.824   3.135
 7323TIP3    H221913   7.749   6.940   3.084
 7324TIP3   OH221914   0.382   2.195   1.351
 7324TIP3    H121915   0.344   2.246   1.278
 7324TIP3    H221916   0.318   2.125   1.367
 7325TIP3   OH221917   1.524   1.934   0.222
 7325TIP3    H121918   1.533   1.894   0.309
 7325TIP3    H221919   1.575   2.015   0.228
 7326TIP3   OH221920   3.011   5.236   1.054
 7326TIP3    H121921   2.951   5.296   1.097
 7326TIP3    H221922   3.094   5.248   1.100
 7327TIP3   OH221923   0.366   2.447   6.478
 7327TIP3    H121924   0.293   2.392   6.449
 7327TIP3    H221925   0.324   2.528   6.508
 7328TIP3   OH221926   4.178   2.873   4.318
 7328TIP3    H121927   4.086   2.891   4.337
 7328TIP3    H221928   4.222   2.957   4.329
 7329TIP3   OH221929   8.038   3.170   3.152
 7329TIP3    H121930   7.952   3.135   3.172
 7329TIP3    H221931   8.021   3.254   3.110
 7330TIP3   OH221932   0.330   7.782   5.965
 7330TIP3    H121933   0.279   7.748   5.892
 7330TIP3    H221934   0.273   7.847   6.006
 7331TIP3   OH221935   2.006   0.629   3.846
 7331TIP3    H121936   2.097   0.612   3.820
 7331TIP3    H221937   1.970   0.682   3.775
 7332TIP3   OH221938   5.260   3.238   1.998
 7332TIP3    H121939   5.248   3.325   2.037
 7332TIP3    H221940   5.307   3.188   2.064
 7333TIP3   OH221941   5.763   4.049   4.510
 7333TIP3    H121942   5.852   4.032   4.541
 7333TIP3    H221943   5.727   4.112   4.574
 7334TIP3   OH221944   5.923   2.292   3.885
 7334TIP3    H121945   5.855   2.353   3.854
 7334TIP3    H221946   5.887   2.255   3.965
 7335TIP3   OH221947   5.040   4.111   3.931
 7335TIP3    H121948   4.973   4.043   3.928
 7335TIP3    H221949   4.994   4.190   3.903
 7336TIP3   OH221950   6.371   5.657   0.762
 7336TIP3    H121951   6.309   5.638   0.692
 7336TIP3    H221952   6.327   5.724   0.815
 7337TIP3   OH221953   4.626   1.508   4.213
 7337TIP3    H121954   4.710   1.467   4.230
 7337TIP3    H221955   4.583   1.512   4.298
 7338TIP3   OH221956   1.556   5.281   3.555
 7338TIP3    H121957   1.628   5.249   3.500
 7338TIP3    H221958   1.594   5.285   3.643
 7339TIP3   OH221959   8.282   5.357   1.390
 7339TIP3    H121960   8.210   5.311   1.348
 7339TIP3    H221961   8.268   5.343   1.484
 7340TIP3   OH221962   7.446   4.531   2.053
 7340TIP3    H121963   7.432   4.502   2.144
 7340TIP3    H221964   7.536   4.563   2.052
 7341TIP3   OH221965   1.479   4.209   6.431
 7341TIP3    H121966   1.451   4.173   6.515
 7341TIP3    H221967   1.397   4.235   6.388
 7342TIP3   OH221968   1.095   5.563   1.353
 7342TIP3    H121969   1.155   5.491   1.333
 7342TIP3    H221970   1.050   5.581   1.271
 7343TIP3   OH221971   2.156   2.242   6.399
 7343TIP3    H121972   2.120   2.260   6.312
 7343TIP3    H221973   2.090   2.276   6.459
 7344TIP3   OH221974   1.585   7.355   4.308
 7344TIP3    H121975   1.634   7.313   4.379
 7344TIP3    H221976   1.627   7.324   4.228
 7345TIP3   OH221977   4.874   3.088   5.682
 7345TIP3    H121978   4.805   3.045   5.733
 7345TIP3    H221979   4.884   3.032   5.604
 7346TIP3   OH221980   5.604   3.295   6.523
 7346TIP3    H121981   5.665   3.284   6.595
 7346TIP3    H221982   5.561   3.209   6.515
 7347TIP3   OH221983   0.367   3.662   3.296
 7347TIP3    H121984   0.351   3.610   3.375
 7347TIP3    H221985   0.416   3.738   3.327
 7348TIP3   OH221986   5.599   0.168   4.911
 7348TIP3    H121987   5.564   0.115   4.983
 7348TIP3    H221988   5.607   0.256   4.947
 7349TIP3   OH221989   5.064   7.400   3.817
 7349TIP3    H121990   4.992   7.421   3.757
 7349TIP3    H221991   5.032   7.325   3.868
 7350TIP3   OH221992   3.952   2.900   1.198
 7350TIP3    H121993   4.014   2.930   1.132
 7350TIP3    H221994   3.970   2.955   1.275
 7351TIP3   OH221995   4.902   1.357   6.402
 7351TIP3    H121996   4.963   1.308   6.457
 7351TIP3    H221997   4.920   1.327   6.313
 7352TIP3   OH221998   6.368   2.279   1.946
 7352TIP3    H121999   6.390   2.228   1.868
 7352TIP3    H222000   6.447   2.276   2.000
 7353TIP3   OH222001   6.303   4.404   3.950
 7353TIP3    H122002   6.365   4.347   3.996
 7353TIP3    H222003   6.217   4.365   3.967
 7354TIP3   OH222004   1.637   4.038   6.300
 7354TIP3    H122005   1.594   4.121   6.324
 7354TIP3    H222006   1.595   3.973   6.357
 7355TIP3   OH222007   3.006   1.713   5.498
 7355TIP3    H122008   3.050   1.677   5.575
 7355TIP3    H222009   2.997   1.639   5.438
 7356TIP3   OH222010   4.193   0.991   4.477
 7356TIP3    H122011   4.253   1.003   4.404
 7356TIP3    H222012   4.133   1.066   4.471
 7357TIP3   OH222013   3.474   4.226   3.838
 7357TIP3    H122014   3.482   4.266   3.751
 7357TIP3    H222015   3.531   4.149   3.834
 7358TIP3   OH222016   3.993   7.311   1.133
 7358TIP3    H122017   3.971   7.230   1.088
 7358TIP3    H222018   3.927   7.374   1.104
 7359TIP3   OH222019   6.942   5.561   1.743
 7359TIP3    H122020   6.953   5.650   1.710
 7359TIP3    H222021   7.027   5.519   1.728
 7360TIP3   OH222022   0.971   6.366   6.026
 7360TIP3    H122023   1.004   6.454   6.006
 7360TIP3    H222024   0.977   6.359   6.121
 7361TIP3   OH222025   0.886   2.612   5.343
 7361TIP3    H122026   0.851   2.662   5.416
 7361TIP3    H222027   0.899   2.676   5.273
 7362TIP3   OH222028   1.458   4.252   0.808
 7362TIP3    H122029   1.462   4.330   0.862
 7362TIP3    H222030   1.368   4.220   0.819
 7363TIP3   OH222031   7.640   4.131   4.780
 7363TIP3    H122032   7.579   4.085   4.722
 7363TIP3    H222033   7.718   4.075   4.782
 7364TIP3   OH222034   2.491   5.338   0.826
 7364TIP3    H122035   2.497   5.365   0.734
 7364TIP3    H222036   2.580   5.310   0.848
 7365TIP3   OH222037   0.111   4.045   0.831
 7365TIP3    H122038   0.057   4.019   0.906
 7365TIP3    H222039   0.094   4.138   0.820
 7366TIP3   OH222040   7.155   2.489   1.266
 7366TIP3    H122041   7.113   2.491   1.179
 7366TIP3    H222042   7.092   2.533   1.323
 7367TIP3   OH222043   4.049   5.193   1.462
 7367TIP3    H122044   3.980   5.260   1.455
 7367TIP3    H222045   4.109   5.214   1.390
 7368TIP3   OH222046   1.558   4.122   4.757
 7368TIP3    H122047   1.613   4.105   4.832
 7368TIP3    H222048   1.553   4.038   4.711
 7369TIP3   OH222049   0.395   1.114   2.986
 7369TIP3    H122050   0.310   1.076   2.964
 7369TIP3    H222051   0.374   1.195   3.033
 7370TIP3   OH222052   8.072   1.833   0.898
 7370TIP3    H122053   8.057   1.739   0.899
 7370TIP3    H222054   8.018   1.866   0.826
 7371TIP3   OH222055   3.818   0.636   6.353
 7371TIP3    H122056   3.734   0.589   6.349
 7371TIP3    H222057   3.880   0.569   6.381
 7372TIP3   OH222058   2.726   3.217   1.291
 7372TIP3    H122059   2.631   3.232   1.289
 7372TIP3    H222060   2.757   3.249   1.206
 7373TIP3   OH222061   3.166   7.081   0.820
 7373TIP3    H122062   3.083   7.035   0.833
 7373TIP3    H222063   3.198   7.050   0.736
 7374TIP3   OH222064   2.568   5.710   0.875
 7374TIP3    H122065   2.580   5.737   0.784
 7374TIP3    H222066   2.473   5.715   0.889
 7375TIP3   OH222067   2.980   6.179   1.032
 7375TIP3    H122068   3.012   6.162   1.121
 7375TIP3    H222069   2.999   6.098   0.984
 7376TIP3   OH222070   4.081   3.020   0.499
 7376TIP3    H122071   4.028   3.014   0.578
 7376TIP3    H222072   4.066   2.937   0.454
 7377TIP3   OH222073   5.347   3.729   2.492
 7377TIP3    H122074   5.302   3.746   2.409
 7377TIP3    H222075   5.303   3.786   2.555
 7378TIP3   OH222076   7.521   4.216   5.835
 7378TIP3    H122077   7.552   4.177   5.916
 7378TIP3    H222078   7.522   4.310   5.852
 7379TIP3   OH222079   0.303   5.176   6.664
 7379TIP3    H122080   0.209   5.164   6.675
 7379TIP3    H222081   0.325   5.248   6.724
 7380TIP3   OH222082   2.838   4.607   0.090
 7380TIP3    H122083   2.918   4.622   0.140
 7380TIP3    H222084   2.850   4.658   0.010
 7381TIP3   OH222085   8.112   4.806   0.119
 7381TIP3    H122086   8.150   4.772   0.200
 7381TIP3    H222087   8.155   4.757   0.049
 7382TIP3   OH222088   2.787   3.500   1.517
 7382TIP3    H122089   2.704   3.482   1.473
 7382TIP3    H222090   2.781   3.452   1.600
 7383TIP3   OH222091   2.473   7.169   4.566
 7383TIP3    H122092   2.547   7.111   4.585
 7383TIP3    H222093   2.494   7.208   4.482
 7384TIP3   OH222094   4.234   7.269   1.924
 7384TIP3    H122095   4.168   7.230   1.981
 7384TIP3    H222096   4.271   7.340   1.976
 7385TIP3   OH222097   7.440   2.756   3.655
 7385TIP3    H122098   7.440   2.813   3.732
 7385TIP3    H222099   7.350   2.756   3.625
 7386TIP3   OH222100   0.713   6.674   3.521
 7386TIP3    H122101   0.739   6.713   3.438
 7386TIP3    H222102   0.694   6.749   3.577
 7387TIP3   OH222103   3.184   6.261   6.751
 7387TIP3    H122104   3.253   6.323   6.727
 7387TIP3    H222105   3.103   6.307   6.731
 7388TIP3   OH222106   6.889   3.211   5.672
 7388TIP3    H122107   6.896   3.119   5.697
 7388TIP3    H222108   6.800   3.236   5.694
 7389TIP3   OH222109   3.701   7.308   5.214
 7389TIP3    H122110   3.693   7.377   5.148
 7389TIP3    H222111   3.681   7.227   5.167
 7390TIP3   OH222112   0.691   7.760   0.759
 7390TIP3    H122113   0.675   7.818   0.684
 7390TIP3    H222114   0.770   7.795   0.799
 7391TIP3   OH222115   4.005   3.757   5.381
 7391TIP3    H122116   4.021   3.706   5.461
 7391TIP3    H222117   3.924   3.804   5.399
 7392TIP3   OH222118   5.027   5.294   3.801
 7392TIP3    H122119   4.991   5.382   3.808
 7392TIP3    H222120   5.009   5.268   3.710
 7393TIP3   OH222121   6.047   0.019   5.188
 7393TIP3    H122122   6.088  -0.020   5.265
 7393TIP3    H222123   6.039  -0.053   5.126
 7394TIP3   OH222124   1.124   1.637   5.577
 7394TIP3    H122125   1.097   1.601   5.662
 7394TIP3    H222126   1.042   1.657   5.533
 7395TIP3   OH222127   6.598   1.131   2.599
 7395TIP3    H122128   6.683   1.142   2.643
 7395TIP3    H222129   6.621   1.102   2.511
 7396TIP3   OH222130   3.171   3.328   6.450
 7396TIP3    H122131   3.088   3.294   6.483
 7396TIP3    H222132   3.193   3.400   6.509
 7397TIP3   OH222133   5.264   1.785   0.700
 7397TIP3    H122134   5.257   1.802   0.607
 7397TIP3    H222135   5.311   1.702   0.706
 7398TIP3   OH222136   3.783   3.806   2.351
 7398TIP3    H122137   3.766   3.828   2.442
 7398TIP3    H222138   3.873   3.771   2.351
 7399TIP3   OH222139   5.718   6.657   5.994
 7399TIP3    H122140   5.692   6.565   5.988
 7399TIP3    H222141   5.789   6.666   5.931
 7400TIP3   OH222142   2.307   7.498   3.678
 7400TIP3    H122143   2.371   7.539   3.620
 7400TIP3    H222144   2.241   7.566   3.693
 7401TIP3   OH222145   2.918   0.765   2.921
 7401TIP3    H122146   2.886   0.787   3.009
 7401TIP3    H222147   2.965   0.682   2.932
 7402TIP3   OH222148   4.059   2.451   1.217
 7402TIP3    H122149   4.076   2.536   1.257
 7402TIP3    H222150   4.094   2.387   1.280
 7403TIP3   OH222151   5.909   1.959   4.274
 7403TIP3    H122152   5.963   2.015   4.332
 7403TIP3    H222153   5.968   1.889   4.247
 7404TIP3   OH222154   5.379   5.246   1.574
 7404TIP3    H122155   5.460   5.196   1.581
 7404TIP3    H222156   5.355   5.267   1.664
 7405TIP3   OH222157   5.016   0.229   5.380
 7405TIP3    H122158   4.964   0.191   5.308
 7405TIP3    H222159   5.069   0.157   5.413
 7406TIP3   OH222160   7.610   1.252   3.716
 7406TIP3    H122161   7.676   1.300   3.765
 7406TIP3    H222162   7.554   1.319   3.679
 7407TIP3   OH222163   1.564   3.798   6.402
 7407TIP3    H122164   1.633   3.772   6.464
 7407TIP3    H222165   1.592   3.761   6.318
 7408TIP3   OH222166   4.152   0.978   0.913
 7408TIP3    H122167   4.062   1.006   0.901
 7408TIP3    H222168   4.159   0.897   0.862
 7409TIP3   OH222169   4.367   5.520   0.171
 7409TIP3    H122170   4.386   5.527   0.264
 7409TIP3    H222171   4.274   5.498   0.167
 7410TIP3   OH222172   7.217   4.647   6.118
 7410TIP3    H122173   7.310   4.626   6.111
 7410TIP3    H222174   7.195   4.689   6.035
 7411TIP3   OH222175   7.665   2.341   0.039
 7411TIP3    H122176   7.608   2.273   0.002
 7411TIP3    H222177   7.734   2.292   0.084
 7412TIP3   OH222178   6.010   6.300   0.832
 7412TIP3    H122179   6.038   6.224   0.780
 7412TIP3    H222180   5.972   6.261   0.911
 7413TIP3   OH222181   3.471   5.407   5.213
 7413TIP3    H122182   3.511   5.489   5.184
 7413TIP3    H222183   3.545   5.347   5.224
 7414TIP3   OH222184   7.714   3.837   2.846
 7414TIP3    H122185   7.656   3.781   2.898
 7414TIP3    H222186   7.712   3.922   2.890
 7415TIP3   OH222187   0.519   5.418   3.090
 7415TIP3    H122188   0.490   5.469   3.165
 7415TIP3    H222189   0.554   5.484   3.029
 7416TIP3   OH222190   1.100   5.616   4.453
 7416TIP3    H122191   1.042   5.540   4.448
 7416TIP3    H222192   1.085   5.662   4.370
 7417TIP3   OH222193   5.870   2.853   1.439
 7417TIP3    H122194   5.870   2.839   1.344
 7417TIP3    H222195   5.897   2.944   1.449
 7418TIP3   OH222196   7.831   4.753   6.495
 7418TIP3    H122197   7.907   4.768   6.438
 7418TIP3    H222198   7.823   4.834   6.545
 7419TIP3   OH222199   6.732   1.417   1.557
 7419TIP3    H122200   6.763   1.498   1.597
 7419TIP3    H222201   6.800   1.393   1.495
 7420TIP3   OH222202   1.803   1.608   6.223
 7420TIP3    H122203   1.761   1.623   6.138
 7420TIP3    H222204   1.774   1.681   6.277
 7421TIP3   OH222205   8.250   4.247   5.824
 7421TIP3    H122206   8.192   4.179   5.788
 7421TIP3    H222207   8.258   4.224   5.917
 7422TIP3   OH222208   7.626   2.953   2.509
 7422TIP3    H122209   7.656   2.982   2.423
 7422TIP3    H222210   7.567   2.880   2.491
 7423TIP3   OH222211   6.164   7.567   1.667
 7423TIP3    H122212   6.105   7.620   1.613
 7423TIP3    H222213   6.250   7.580   1.628
 7424TIP3   OH222214   6.291   2.266   5.199
 7424TIP3    H122215   6.228   2.264   5.126
 7424TIP3    H222216   6.371   2.228   5.162
 7425TIP3   OH222217   0.769   7.237   1.168
 7425TIP3    H122218   0.797   7.146   1.153
 7425TIP3    H222219   0.690   7.246   1.115
 7426TIP3   OH222220   7.306   6.029   4.394
 7426TIP3    H122221   7.271   5.948   4.357
 7426TIP3    H222222   7.236   6.093   4.383
 7427TIP3   OH222223   2.722   3.006   1.058
 7427TIP3    H122224   2.811   3.007   1.093
 7427TIP3    H222225   2.698   3.099   1.051
 7428TIP3   OH222226   7.330   5.289   2.778
 7428TIP3    H122227   7.394   5.222   2.755
 7428TIP3    H222228   7.352   5.364   2.723
 7429TIP3   OH222229   2.941   7.408   6.578
 7429TIP3    H122230   2.982   7.420   6.664
 7429TIP3    H222231   2.847   7.405   6.596
 7430TIP3   OH222232   6.901   3.664   2.403
 7430TIP3    H122233   6.822   3.614   2.423
 7430TIP3    H222234   6.947   3.610   2.339
 7431TIP3   OH222235   4.873   0.401   4.244
 7431TIP3    H122236   4.850   0.309   4.253
 7431TIP3    H222237   4.810   0.436   4.181
 7432TIP3   OH222238   7.262   2.096   3.673
 7432TIP3    H122239   7.319   2.036   3.720
 7432TIP3    H222240   7.180   2.094   3.721
 7433TIP3   OH222241   5.298   6.509   5.040
 7433TIP3    H122242   5.389   6.485   5.052
 7433TIP3    H222243   5.287   6.590   5.091
 7434TIP3   OH222244   7.546   7.594   2.229
 7434TIP3    H122245   7.602   7.520   2.205
 7434TIP3    H222246   7.576   7.620   2.316
 7435TIP3   OH222247   6.216   2.640   1.329
 7435TIP3    H122248   6.159   2.593   1.268
 7435TIP3    H222249   6.192   2.732   1.318
 7436TIP3   OH222250   0.083   0.153   5.217
 7436TIP3    H122251   0.122   0.199   5.143
 7436TIP3    H222252   0.027   0.086   5.178
 7437TIP3   OH222253   3.437   0.394   3.896
 7437TIP3    H122254   3.450   0.485   3.925
 7437TIP3    H222255   3.517   0.372   3.849
 7438TIP3   OH222256   3.647   1.470   0.151
 7438TIP3    H122257   3.620   1.381   0.174
 7438TIP3    H222258   3.650   1.516   0.235
 7439TIP3   OH222259   5.359   6.015   4.204
 7439TIP3    H122260   5.281   6.064   4.230
 7439TIP3    H222261   5.331   5.924   4.200
 7440TIP3   OH222262   7.012   2.212   6.266
 7440TIP3    H122263   7.089   2.163   6.295
 7440TIP3    H222264   7.044   2.301   6.251
 7441TIP3   OH222265   7.293   7.635   1.293
 7441TIP3    H122266   7.383   7.623   1.322
 7441TIP3    H222267   7.267   7.720   1.330
 7442TIP3   OH222268   6.205   2.486   3.744
 7442TIP3    H122269   6.137   2.520   3.803
 7442TIP3    H222270   6.212   2.553   3.676
 7443TIP3   OH222271   7.298   0.031   1.508
 7443TIP3    H122272   7.340  -0.055   1.505
 7443TIP3    H222273   7.356   0.089   1.459
 7444TIP3   OH222274   3.887   0.680   4.657
 7444TIP3    H122275   3.889   0.776   4.653
 7444TIP3    H222276   3.962   0.656   4.711
 7445TIP3   OH222277   7.171   6.969   6.586
 7445TIP3    H122278   7.180   6.874   6.594
 7445TIP3    H222279   7.261   7.002   6.589
 7446TIP3   OH222280   5.597   2.733   0.676
 7446TIP3    H122281   5.653   2.811   0.684
 7446TIP3    H222282   5.631   2.672   0.742
 7447TIP3   OH222283   7.986   2.848   5.203
 7447TIP3    H122284   8.061   2.873   5.256
 7447TIP3    H222285   7.967   2.926   5.151
 7448TIP3   OH222286   3.217   7.805   2.997
 7448TIP3    H122287   3.247   7.719   3.026
 7448TIP3    H222288   3.122   7.803   3.011
 7449TIP3   OH222289   1.829   6.387   1.924
 7449TIP3    H122290   1.896   6.322   1.945
 7449TIP3    H222291   1.825   6.443   2.002
 7450TIP3   OH222292   7.968   6.333   6.282
 7450TIP3    H122293   7.990   6.284   6.203
 7450TIP3    H222294   7.872   6.330   6.285
 7451TIP3   OH222295   7.730   6.982   5.854
 7451TIP3    H122296   7.647   7.029   5.851
 7451TIP3    H222297   7.708   6.898   5.895
 7452TIP3   OH222298   0.368   2.938   3.517
 7452TIP3    H122299   0.272   2.945   3.519
 7452TIP3    H222300   0.396   3.011   3.461
 7453TIP3   OH222301   1.799   6.320   0.957
 7453TIP3    H122302   1.804   6.259   1.031
 7453TIP3    H222303   1.757   6.398   0.993
 7454TIP3   OH222304   4.408   1.195   1.644
 7454TIP3    H122305   4.328   1.248   1.645
 7454TIP3    H222306   4.412   1.161   1.555
 7455TIP3   OH222307   5.039   5.514   5.338
 7455TIP3    H122308   4.995   5.495   5.421
 7455TIP3    H222309   5.069   5.605   5.347
 7456TIP3   OH222310   0.706   0.003   5.867
 7456TIP3    H122311   0.712   0.046   5.952
 7456TIP3    H222312   0.670  -0.084   5.888
 7457TIP3   OH222313   2.600   2.811   4.799
 7457TIP3    H122314   2.687   2.772   4.808
 7457TIP3    H222315   2.541   2.745   4.835
 7458TIP3   OH222316   0.257   1.279   0.032
 7458TIP3    H122317   0.215   1.194   0.033
 7458TIP3    H222318   0.208   1.331   0.096
 7459TIP3   OH222319   5.935   7.528   0.293
 7459TIP3    H122320   5.904   7.606   0.338
 7459TIP3    H222321   5.967   7.560   0.209
 7460TIP3   OH222322   4.079   0.637   5.195
 7460TIP3    H122323   4.145   0.703   5.218
 7460TIP3    H222324   4.030   0.676   5.123
 7461TIP3   OH222325   1.216   6.970   0.712
 7461TIP3    H122326   1.144   7.027   0.740
 7461TIP3    H222327   1.228   6.909   0.785
 7462TIP3   OH222328   0.740   2.473   4.698
 7462TIP3    H122329   0.693   2.393   4.675
 7462TIP3    H222330   0.811   2.479   4.634
 7463TIP3   OH222331   2.058   4.237   3.505
 7463TIP3    H122332   2.066   4.174   3.577
 7463TIP3    H222333   2.092   4.191   3.428
 7464TIP3   OH222334   1.757   1.041   0.096
 7464TIP3    H122335   1.697   0.974   0.063
 7464TIP3    H222336   1.757   1.027   0.191
 7465TIP3   OH222337   5.564   2.232   5.599
 7465TIP3    H122338   5.609   2.278   5.669
 7465TIP3    H222339   5.478   2.211   5.635
 7466TIP3   OH222340   7.551   2.695   6.020
 7466TIP3    H122341   7.559   2.769   5.959
 7466TIP3    H222342   7.566   2.618   5.966
 7467TIP3   OH222343   7.237   3.305   3.798
 7467TIP3    H122344   7.263   3.317   3.890
 7467TIP3    H222345   7.270   3.218   3.775
 7468TIP3   OH222346   4.896   2.499   0.347
 7468TIP3    H122347   4.877   2.519   0.439
 7468TIP3    H222348   4.864   2.575   0.299
 7469TIP3   OH222349   2.392   1.016   2.385
 7469TIP3    H122350   2.348   0.931   2.372
 7469TIP3    H222351   2.481   1.002   2.353
 7470TIP3   OH222352   5.511   6.120   6.250
 7470TIP3    H122353   5.601   6.150   6.262
 7470TIP3    H222354   5.498   6.056   6.320
 7471TIP3   OH222355   3.710   4.637   1.652
 7471TIP3    H122356   3.782   4.650   1.590
 7471TIP3    H222357   3.745   4.576   1.717
 7472TIP3   OH222358   4.434   5.853   0.666
 7472TIP3    H122359   4.516   5.816   0.699
 7472TIP3    H222360   4.379   5.777   0.646
 7473TIP3   OH222361   7.143   7.405   4.340
 7473TIP3    H122362   7.123   7.441   4.427
 7473TIP3    H222363   7.238   7.399   4.338
 7474TIP3   OH222364   5.169   3.456   6.511
 7474TIP3    H122365   5.097   3.485   6.454
 7474TIP3    H222366   5.126   3.409   6.582
 7475TIP3   OH222367   4.964   6.429   4.560
 7475TIP3    H122368   4.959   6.352   4.618
 7475TIP3    H222369   5.052   6.425   4.523
 7476TIP3   OH222370   3.689   3.530   0.402
 7476TIP3    H122371   3.703   3.477   0.324
 7476TIP3    H222372   3.753   3.601   0.395
 7477TIP3   OH222373   2.841   4.679   2.875
 7477TIP3    H122374   2.763   4.693   2.928
 7477TIP3    H222375   2.856   4.584   2.878
 7478TIP3   OH222376   1.422   7.742   0.343
 7478TIP3    H122377   1.358   7.813   0.347
 7478TIP3    H222378   1.427   7.710   0.433
 7479TIP3   OH222379   0.334   5.160   0.914
 7479TIP3    H122380   0.308   5.250   0.900
 7479TIP3    H222381   0.281   5.131   0.989
 7480TIP3   OH222382   4.404   3.344   3.904
 7480TIP3    H122383   4.371   3.269   3.953
 7480TIP3    H222384   4.486   3.367   3.948
 7481TIP3   OH222385   5.103   6.186   2.526
 7481TIP3    H122386   5.119   6.161   2.617
 7481TIP3    H222387   5.020   6.143   2.504
 7482TIP3   OH222388   5.554   5.127   5.601
 7482TIP3    H122389   5.590   5.108   5.515
 7482TIP3    H222390   5.546   5.041   5.643
 7483TIP3   OH222391   3.673   7.496   5.542
 7483TIP3    H122392   3.751   7.486   5.598
 7483TIP3    H222393   3.684   7.430   5.474
 7484TIP3   OH222394   2.853   6.409   1.032
 7484TIP3    H122395   2.903   6.328   1.040
 7484TIP3    H222396   2.764   6.385   1.058
 7485TIP3   OH222397   7.630   2.950   2.808
 7485TIP3    H122398   7.596   2.927   2.721
 7485TIP3    H222399   7.553   2.980   2.857
 7486TIP3   OH222400   3.094   7.028   1.152
 7486TIP3    H122401   3.157   7.015   1.082
 7486TIP3    H222402   3.075   6.940   1.184
 7487TIP3   OH222403   7.324   0.631   0.686
 7487TIP3    H122404   7.264   0.605   0.757
 7487TIP3    H222405   7.411   0.620   0.724
 7488TIP3   OH222406   6.376   5.647   4.773
 7488TIP3    H122407   6.386   5.608   4.686
 7488TIP3    H222408   6.465   5.673   4.797
 7489TIP3   OH222409   1.695   4.414   1.344
 7489TIP3    H122410   1.717   4.336   1.395
 7489TIP3    H222411   1.746   4.404   1.263
 7490TIP3   OH222412   1.870   4.715   4.433
 7490TIP3    H122413   1.799   4.714   4.497
 7490TIP3    H222414   1.901   4.806   4.432
 7491TIP3   OH222415   1.083   4.931   4.051
 7491TIP3    H122416   1.151   4.875   4.086
 7491TIP3    H222417   1.118   5.020   4.059
 7492TIP3   OH222418   8.097   7.810   2.078
 7492TIP3    H122419   8.116   7.805   2.172
 7492TIP3    H222420   8.178   7.843   2.040
 7493TIP3   OH222421   4.522   4.480   2.385
 7493TIP3    H122422   4.483   4.395   2.364
 7493TIP3    H222423   4.613   4.472   2.356
 7494TIP3   OH222424   6.976   3.491   1.082
 7494TIP3    H122425   6.892   3.536   1.091
 7494TIP3    H222426   7.025   3.545   1.020
 7495TIP3   OH222427   2.179   1.484   0.618
 7495TIP3    H122428   2.107   1.512   0.674
 7495TIP3    H222429   2.258   1.503   0.669
 7496TIP3   OH222430   3.280   0.127   6.357
 7496TIP3    H122431   3.373   0.106   6.369
 7496TIP3    H222432   3.241   0.045   6.329
 7497TIP3   OH222433   5.280   6.068   2.224
 7497TIP3    H122434   5.258   6.099   2.137
 7497TIP3    H222435   5.329   6.140   2.264
 7498TIP3   OH222436   8.252   7.062   5.441
 7498TIP3    H122437   8.257   7.030   5.531
 7498TIP3    H222438   8.245   6.982   5.388
 7499TIP3   OH222439   5.749   0.259   2.461
 7499TIP3    H122440   5.809   0.253   2.535
 7499TIP3    H222441   5.797   0.220   2.388
 7500TIP3   OH222442   0.237   6.449   1.016
 7500TIP3    H122443   0.296   6.449   1.092
 7500TIP3    H222444   0.150   6.461   1.053
 7501TIP3   OH222445   8.033   6.958   6.444
 7501TIP3    H122446   7.952   7.007   6.457
 7501TIP3    H222447   8.026   6.923   6.355
 7502TIP3   OH222448   7.846   1.636   2.159
 7502TIP3    H122449   7.762   1.665   2.125
 7502TIP3    H222450   7.897   1.716   2.167
 7503TIP3   OH222451   1.581   0.458   4.666
 7503TIP3    H122452   1.660   0.476   4.716
 7503TIP3    H222453   1.509   0.484   4.724
 7504TIP3   OH222454   1.984   7.233   1.987
 7504TIP3    H122455   2.031   7.161   1.945
 7504TIP3    H222456   2.038   7.256   2.062
 7505TIP3   OH222457   7.920   4.000   3.853
 7505TIP3    H122458   7.847   3.970   3.799
 7505TIP3    H222459   7.997   3.994   3.796
 7506TIP3   OH222460   2.671   7.089   4.096
 7506TIP3    H122461   2.715   7.156   4.148
 7506TIP3    H222462   2.737   7.020   4.085
 7507TIP3   OH222463   6.944   7.083   3.432
 7507TIP3    H122464   7.027   7.127   3.454
 7507TIP3    H222465   6.917   7.123   3.350
 7508TIP3   OH222466   5.245   0.576   5.485
 7508TIP3    H122467   5.311   0.585   5.553
 7508TIP3    H222468   5.220   0.484   5.489
 7509TIP3   OH222469   6.564   0.269   5.897
 7509TIP3    H122470   6.600   0.329   5.832
 7509TIP3    H222471   6.470   0.287   5.897
 7510TIP3   OH222472   7.301   5.301   6.188
 7510TIP3    H122473   7.323   5.301   6.095
 7510TIP3    H222474   7.209   5.327   6.191
 7511TIP3   OH222475   6.192   0.871   2.902
 7511TIP3    H122476   6.236   0.885   2.818
 7511TIP3    H222477   6.189   0.776   2.912
 7512TIP3   OH222478   3.277   5.954   5.513
 7512TIP3    H122479   3.279   5.966   5.608
 7512TIP3    H222480   3.302   5.863   5.499
 7513TIP3   OH222481   2.879   3.445   1.791
 7513TIP3    H122482   2.952   3.497   1.757
 7513TIP3    H222483   2.919   3.361   1.816
 7514TIP3   OH222484   1.769   2.162   0.601
 7514TIP3    H122485   1.749   2.097   0.668
 7514TIP3    H222486   1.750   2.246   0.644
 7515TIP3   OH222487   2.797   7.259   5.490
 7515TIP3    H122488   2.784   7.295   5.578
 7515TIP3    H222489   2.814   7.336   5.436
 7516TIP3   OH222490   8.118   2.863   4.348
 7516TIP3    H122491   8.054   2.804   4.387
 7516TIP3    H222492   8.129   2.934   4.412
 7517TIP3   OH222493   2.352   5.627   2.511
 7517TIP3    H122494   2.282   5.660   2.567
 7517TIP3    H222495   2.310   5.562   2.455
 7518TIP3   OH222496   5.449   6.840   1.023
 7518TIP3    H122497   5.530   6.877   0.988
 7518TIP3    H222498   5.473   6.808   1.110
 7519TIP3   OH222499   8.194   4.518   2.110
 7519TIP3    H122500   8.239   4.495   2.028
 7519TIP3    H222501   8.231   4.604   2.133
 7520TIP3   OH222502   6.492   5.467   4.536
 7520TIP3    H122503   6.450   5.383   4.549
 7520TIP3    H222504   6.567   5.466   4.596
 7521TIP3   OH222505   6.154   4.878   4.387
 7521TIP3    H122506   6.220   4.809   4.381
 7521TIP3    H222507   6.090   4.845   4.450
 7522TIP3   OH222508   4.354   6.226   6.674
 7522TIP3    H122509   4.349   6.313   6.636
 7522TIP3    H222510   4.262   6.198   6.680
 7523TIP3   OH222511   0.251   5.843   1.960
 7523TIP3    H122512   0.274   5.853   1.868
 7523TIP3    H222513   0.286   5.922   2.002
 7524TIP3   OH222514   3.373   2.167   3.663
 7524TIP3    H122515   3.394   2.083   3.622
 7524TIP3    H222516   3.456   2.196   3.701
 7525TIP3   OH222517   0.270   0.815   2.336
 7525TIP3    H122518   0.180   0.797   2.311
 7525TIP3    H222519   0.302   0.734   2.375
 7526TIP3   OH222520   1.612   2.810   2.091
 7526TIP3    H122521   1.557   2.850   2.158
 7526TIP3    H222522   1.584   2.851   2.009
 7527TIP3   OH222523   2.104   0.330   3.592
 7527TIP3    H122524   2.075   0.264   3.529
 7527TIP3    H222525   2.034   0.395   3.593
 7528TIP3   OH222526   0.752   2.341   6.026
 7528TIP3    H122527   0.718   2.414   5.975
 7528TIP3    H222528   0.674   2.299   6.063
 7529TIP3   OH222529   5.515   0.409   4.736
 7529TIP3    H122530   5.464   0.331   4.717
 7529TIP3    H222531   5.519   0.413   4.831
 7530TIP3   OH222532   2.047   1.272   3.414
 7530TIP3    H122533   1.963   1.285   3.457
 7530TIP3    H222534   2.110   1.266   3.485
 7531TIP3   OH222535   2.450   3.691   0.144
 7531TIP3    H122536   2.365   3.735   0.139
 7531TIP3    H222537   2.429   3.601   0.167
 7532TIP3   OH222538   7.368   4.620   4.980
 7532TIP3    H122539   7.326   4.552   4.927
 7532TIP3    H222540   7.386   4.691   4.919
 7533TIP3   OH222541   2.591   0.132   4.137
 7533TIP3    H122542   2.634   0.156   4.055
 7533TIP3    H222543   2.581   0.037   4.132
 7534TIP3   OH222544   7.991   3.485   0.917
 7534TIP3    H122545   7.998   3.468   1.011
 7534TIP3    H222546   7.917   3.431   0.888
 7535TIP3   OH222547   6.657   0.570   5.984
 7535TIP3    H122548   6.637   0.657   6.018
 7535TIP3    H222549   6.574   0.523   5.986
 7536TIP3   OH222550   5.383   3.270   3.516
 7536TIP3    H122551   5.292   3.260   3.544
 7536TIP3    H222552   5.388   3.360   3.483
 7537TIP3   OH222553   7.016   5.296   6.687
 7537TIP3    H122554   7.052   5.237   6.622
 7537TIP3    H222555   7.081   5.366   6.694
 7538TIP3   OH222556   1.812   6.931   0.235
 7538TIP3    H122557   1.737   6.875   0.217
 7538TIP3    H222558   1.841   6.905   0.323
 7539TIP3   OH222559   1.420   5.160   6.662
 7539TIP3    H122560   1.336   5.173   6.705
 7539TIP3    H222561   1.398   5.131   6.574
 7540TIP3   OH222562   4.133   4.214   5.522
 7540TIP3    H122563   4.131   4.152   5.595
 7540TIP3    H222564   4.218   4.199   5.480
 7541TIP3   OH222565   5.108   3.337   3.615
 7541TIP3    H122566   5.039   3.313   3.553
 7541TIP3    H222567   5.096   3.277   3.689
 7542TIP3   OH222568   5.577   3.599   5.527
 7542TIP3    H122569   5.639   3.534   5.560
 7542TIP3    H222570   5.630   3.659   5.475
 7543TIP3   OH222571   3.662   7.339   2.967
 7543TIP3    H122572   3.721   7.300   3.031
 7543TIP3    H222573   3.640   7.425   3.003
 7544TIP3   OH222574   0.242   7.624   5.763
 7544TIP3    H122575   0.231   7.569   5.686
 7544TIP3    H222576   0.182   7.588   5.828
 7545TIP3   OH222577   3.715   7.749   3.910
 7545TIP3    H122578   3.645   7.713   3.855
 7545TIP3    H222579   3.742   7.677   3.965
 7546TIP3   OH222580   1.663   0.048   1.927
 7546TIP3    H122581   1.676   0.134   1.887
 7546TIP3    H222582   1.744   0.031   1.975
 7547TIP3   OH222583   2.666   3.189   6.415
 7547TIP3    H122584   2.643   3.181   6.323
 7547TIP3    H222585   2.588   3.227   6.456
 7548TIP3   OH222586   3.269   5.993   2.442
 7548TIP3    H122587   3.206   5.929   2.410
 7548TIP3    H222588   3.227   6.078   2.426
 7549TIP3   OH222589   2.625   7.027   5.511
 7549TIP3    H122590   2.664   7.114   5.507
 7549TIP3    H222591   2.649   6.994   5.597
 7550TIP3   OH222592   7.013   7.061   5.120
 7550TIP3    H122593   6.964   6.984   5.092
 7550TIP3    H222594   6.962   7.097   5.193
 7551TIP3   OH222595   6.421   0.308   5.078
 7551TIP3    H122596   6.452   0.388   5.122
 7551TIP3    H222597   6.330   0.301   5.104
 7552TIP3   OH222598   7.122   2.781   6.222
 7552TIP3    H122599   7.216   2.763   6.217
 7552TIP3    H222600   7.116   2.873   6.249
 7553TIP3   OH222601   4.309   6.731   5.511
 7553TIP3    H122602   4.278   6.655   5.561
 7553TIP3    H222603   4.236   6.793   5.514
 7554TIP3   OH222604   4.581   0.582   2.608
 7554TIP3    H122605   4.508   0.563   2.549
 7554TIP3    H222606   4.580   0.512   2.673
 7555TIP3   OH222607   3.532   1.769   0.289
 7555TIP3    H122608   3.543   1.785   0.196
 7555TIP3    H222609   3.478   1.690   0.293
 7556TIP3   OH222610   2.951   5.891   6.026
 7556TIP3    H122611   3.001   5.973   6.025
 7556TIP3    H222612   2.982   5.843   5.949
 7557TIP3   OH222613   8.170   7.455   0.039
 7557TIP3    H122614   8.230   7.402   0.091
 7557TIP3    H222615   8.215   7.467  -0.045
 7558TIP3   OH222616   7.087   6.595   6.185
 7558TIP3    H122617   7.132   6.521   6.143
 7558TIP3    H222618   7.158   6.658   6.204
 7559TIP3   OH222619   6.170   4.624   4.047
 7559TIP3    H122620   6.185   4.714   4.017
 7559TIP3    H222621   6.232   4.571   3.997
 7560TIP3   OH222622   0.626   0.566   1.293
 7560TIP3    H122623   0.614   0.574   1.388
 7560TIP3    H222624   0.645   0.473   1.279
 7561TIP3   OH222625   2.551   3.509   1.348
 7561TIP3    H122626   2.492   3.584   1.345
 7561TIP3    H222627   2.588   3.503   1.260
 7562TIP3   OH222628   5.627   4.018   2.997
 7562TIP3    H122629   5.554   3.957   3.009
 7562TIP3    H222630   5.585   4.103   2.982
 7563TIP3   OH222631   3.184   5.686   4.468
 7563TIP3    H122632   3.103   5.637   4.452
 7563TIP3    H222633   3.254   5.627   4.440
 7564TIP3   OH222634   2.306   6.085   3.949
 7564TIP3    H122635   2.248   6.087   4.026
 7564TIP3    H222636   2.257   6.132   3.882
 7565TIP3   OH222637   5.857   3.743   4.865
 7565TIP3    H122638   5.809   3.693   4.800
 7565TIP3    H222639   5.842   3.697   4.947
 7566TIP3   OH222640   7.425   3.729   5.345
 7566TIP3    H122641   7.349   3.672   5.352
 7566TIP3    H222642   7.454   3.742   5.435
 7567TIP3   OH222643   0.271   7.562   6.128
 7567TIP3    H122644   0.299   7.623   6.060
 7567TIP3    H222645   0.307   7.477   6.100
 7568TIP3   OH222646   1.157   7.192   5.423
 7568TIP3    H122647   1.244   7.161   5.446
 7568TIP3    H222648   1.166   7.225   5.333
 7569TIP3   OH222649   4.060   0.494   4.879
 7569TIP3    H122650   3.976   0.452   4.861
 7569TIP3    H222651   4.037   0.579   4.917
 7570TIP3   OH222652   4.310   7.490   5.082
 7570TIP3    H122653   4.393   7.535   5.069
 7570TIP3    H222654   4.264   7.542   5.148
 7571TIP3   OH222655   2.827   0.438   5.387
 7571TIP3    H122656   2.806   0.524   5.424
 7571TIP3    H222657   2.912   0.416   5.426
 7572TIP3   OH222658   3.485   2.168   4.126
 7572TIP3    H122659   3.391   2.150   4.116
 7572TIP3    H222660   3.513   2.199   4.041
 7573TIP3   OH222661   8.045   2.719   6.035
 7573TIP3    H122662   7.957   2.692   6.061
 7573TIP3    H222663   8.093   2.637   6.022
 7574TIP3   OH222664   4.715   3.114   0.951
 7574TIP3    H122665   4.771   3.186   0.920
 7574TIP3    H222666   4.773   3.038   0.951
 7575TIP3   OH222667   3.956   1.255   1.739
 7575TIP3    H122668   3.938   1.282   1.649
 7575TIP3    H222669   3.949   1.159   1.736
 7576TIP3   OH222670   0.521   6.907  -0.015
 7576TIP3    H122671   0.473   6.850   0.045
 7576TIP3    H222672   0.597   6.935   0.035
 7577TIP3   OH222673   5.348   2.339   3.863
 7577TIP3    H122674   5.443   2.334   3.879
 7577TIP3    H222675   5.325   2.253   3.828
 7578TIP3   OH222676   3.881   5.062   0.785
 7578TIP3    H122677   3.823   5.060   0.862
 7578TIP3    H222678   3.927   5.146   0.792
 7579TIP3   OH222679   1.608   4.902   0.925
 7579TIP3    H122680   1.608   4.950   0.842
 7579TIP3    H222681   1.695   4.862   0.929
 7580TIP3   OH222682   5.258   5.428   6.389
 7580TIP3    H122683   5.271   5.363   6.320
 7580TIP3    H222684   5.327   5.410   6.453
 7581TIP3   OH222685   0.224   2.677   1.798
 7581TIP3    H122686   0.141   2.630   1.805
 7581TIP3    H222687   0.284   2.615   1.758
 7582TIP3   OH222688   0.871   2.740   5.850
 7582TIP3    H122689   0.948   2.768   5.800
 7582TIP3    H222690   0.859   2.808   5.916
 7583TIP3   OH222691   1.191   0.864   4.384
 7583TIP3    H122692   1.217   0.776   4.412
 7583TIP3    H222693   1.273   0.906   4.358
 7584TIP3   OH222694   7.061   6.733   0.846
 7584TIP3    H122695   7.099   6.690   0.769
 7584TIP3    H222696   6.966   6.734   0.828
 7585TIP3   OH222697   8.205   4.696   1.078
 7585TIP3    H122698   8.266   4.708   1.151
 7585TIP3    H222699   8.122   4.731   1.109
 7586TIP3   OH222700   5.280   6.958   0.133
 7586TIP3    H122701   5.358   6.989   0.180
 7586TIP3    H222702   5.250   6.883   0.183
 7587TIP3   OH222703   0.901   5.000   4.794
 7587TIP3    H122704   0.876   4.911   4.771
 7587TIP3    H222705   0.842   5.024   4.865
 7588TIP3   OH222706   3.602   0.771   1.724
 7588TIP3    H122707   3.559   0.804   1.646
 7588TIP3    H222708   3.693   0.800   1.715
 7589TIP3   OH222709   0.531   2.805   5.697
 7589TIP3    H122710   0.522   2.818   5.791
 7589TIP3    H222711   0.570   2.887   5.665
 7590TIP3   OH222712   5.595   2.379   0.902
 7590TIP3    H122713   5.521   2.361   0.960
 7590TIP3    H222714   5.614   2.295   0.861
 7591TIP3   OH222715   1.630   1.678   5.956
 7591TIP3    H122716   1.625   1.703   5.864
 7591TIP3    H222717   1.656   1.586   5.954
 7592TIP3   OH222718   4.679   5.259   0.284
 7592TIP3    H122719   4.634   5.245   0.367
 7592TIP3    H222720   4.708   5.172   0.257
 7593TIP3   OH222721   1.648   4.731   4.061
 7593TIP3    H122722   1.674   4.677   4.136
 7593TIP3    H222723   1.564   4.769   4.087
 7594TIP3   OH222724   3.352   1.543   5.195
 7594TIP3    H122725   3.382   1.633   5.211
 7594TIP3    H222726   3.354   1.501   5.281
 7595TIP3   OH222727   5.430   6.767   3.173
 7595TIP3    H122728   5.428   6.775   3.268
 7595TIP3    H222729   5.508   6.716   3.154
 7596TIP3   OH222730   6.981   7.428   5.411
 7596TIP3    H122731   6.914   7.495   5.396
 7596TIP3    H222732   6.939   7.345   5.388
 7597TIP3   OH222733   0.473   2.674   4.369
 7597TIP3    H122734   0.392   2.632   4.341
 7597TIP3    H222735   0.467   2.676   4.465
 7598TIP3   OH222736   6.198   1.607   0.252
 7598TIP3    H122737   6.150   1.690   0.255
 7598TIP3    H222738   6.151   1.550   0.312
 7599TIP3   OH222739   7.605   7.501   5.825
 7599TIP3    H122740   7.696   7.518   5.798
 7599TIP3    H222741   7.569   7.449   5.753
 7600TIP3   OH222742   6.669   0.792   0.491
 7600TIP3    H122743   6.610   0.850   0.538
 7600TIP3    H222744   6.676   0.715   0.548
 7601TIP3   OH222745   2.948   0.080   1.496
 7601TIP3    H122746   2.962   0.130   1.576
 7601TIP3    H222747   2.975   0.140   1.426
 7602TIP3   OH222748   4.601   2.494   0.778
 7602TIP3    H122749   4.518   2.514   0.736
 7602TIP3    H222750   4.614   2.564   0.842
 7603TIP3   OH222751   2.488   3.066   1.316
 7603TIP3    H122752   2.455   2.982   1.349
 7603TIP3    H222753   2.563   3.042   1.262
 7604TIP3   OH222754   6.698   0.562   1.656
 7604TIP3    H122755   6.767   0.599   1.711
 7604TIP3    H222756   6.722   0.586   1.567
 7605TIP3   OH222757   5.277   7.743   2.502
 7605TIP3    H122758   5.204   7.704   2.551
 7605TIP3    H222759   5.238   7.771   2.420
 7606TIP3   OH222760   7.731   0.822   2.992
 7606TIP3    H122761   7.645   0.845   2.954
 7606TIP3    H222762   7.711   0.753   3.055
 7607TIP3   OH222763   0.898   4.203   5.613
 7607TIP3    H122764   0.955   4.186   5.688
 7607TIP3    H222765   0.819   4.241   5.651
 7608TIP3   OH222766   3.831   3.578   3.275
 7608TIP3    H122767   3.803   3.570   3.184
 7608TIP3    H222768   3.889   3.503   3.289
 7609TIP3   OH222769   6.330   0.122   0.318
 7609TIP3    H122770   6.258   0.141   0.378
 7609TIP3    H222771   6.384   0.201   0.319
 7610TIP3   OH222772   7.255   0.917   6.383
 7610TIP3    H122773   7.320   0.847   6.382
 7610TIP3    H222774   7.217   0.914   6.471
 7611TIP3   OH222775   3.166   2.027   5.600
 7611TIP3    H122776   3.235   2.077   5.556
 7611TIP3    H222777   3.133   1.967   5.533
 7612TIP3   OH222778   1.897   0.504   3.525
 7612TIP3    H122779   1.885   0.590   3.565
 7612TIP3    H222780   1.857   0.512   3.439
 7613TIP3   OH222781   0.146   4.090   0.129
 7613TIP3    H122782   0.219   4.050   0.082
 7613TIP3    H222783   0.075   4.091   0.065
 7614TIP3   OH222784   5.010   5.273   2.941
 7614TIP3    H122785   5.081   5.330   2.910
 7614TIP3    H222786   4.982   5.227   2.862
 7615TIP3   OH222787   6.307   4.783   5.663
 7615TIP3    H122788   6.403   4.789   5.655
 7615TIP3    H222789   6.291   4.777   5.757
 7616TIP3   OH222790   7.632   0.073   0.136
 7616TIP3    H122791   7.698   0.050   0.202
 7616TIP3    H222792   7.682   0.111   0.064
 7617TIP3   OH222793   6.207   2.927   4.658
 7617TIP3    H122794   6.139   2.929   4.591
 7617TIP3    H222795   6.171   2.978   4.731
 7618TIP3   OH222796   5.577   5.096   3.719
 7618TIP3    H122797   5.625   5.046   3.652
 7618TIP3    H222798   5.490   5.056   3.721
 7619TIP3   OH222799   0.685   1.945   4.926
 7619TIP3    H122800   0.757   1.887   4.950
 7619TIP3    H222801   0.609   1.888   4.920
 7620TIP3   OH222802   2.194   0.060   6.395
 7620TIP3    H122803   2.237   0.101   6.320
 7620TIP3    H222804   2.205   0.123   6.466
 7621TIP3   OH222805   6.899   7.536   4.215
 7621TIP3    H122806   6.945   7.620   4.218
 7621TIP3    H222807   6.807   7.559   4.200
 7622TIP3   OH222808   6.589   3.429   5.636
 7622TIP3    H122809   6.632   3.410   5.553
 7622TIP3    H222810   6.625   3.513   5.663
 7623TIP3   OH222811   3.479   2.536   4.700
 7623TIP3    H122812   3.506   2.501   4.785
 7623TIP3    H222813   3.458   2.628   4.717
 7624TIP3   OH222814   2.596   3.502   6.154
 7624TIP3    H122815   2.679   3.546   6.169
 7624TIP3    H222816   2.556   3.548   6.081
 7625TIP3   OH222817   0.105   6.581   4.541
 7625TIP3    H122818   0.191   6.564   4.579
 7625TIP3    H222819   0.068   6.651   4.593
 7626TIP3   OH222820   5.703   3.832   3.736
 7626TIP3    H122821   5.663   3.914   3.706
 7626TIP3    H222822   5.630   3.771   3.744
 7627TIP3   OH222823   7.696   2.671   3.966
 7627TIP3    H122824   7.778   2.622   3.971
 7627TIP3    H222825   7.647   2.630   3.895
 7628TIP3   OH222826   5.637   2.715   0.218
 7628TIP3    H122827   5.668   2.771   0.289
 7628TIP3    H222828   5.542   2.723   0.220
 7629TIP3   OH222829   8.291   0.787   0.401
 7629TIP3    H122830   8.218   0.848   0.398
 7629TIP3    H222831   8.250   0.700   0.401
 7630TIP3   OH222832   3.148   2.110   5.299
 7630TIP3    H122833   3.155   2.015   5.309
 7630TIP3    H222834   3.219   2.144   5.354
 7631TIP3   OH222835   3.488   0.203   5.677
 7631TIP3    H122836   3.543   0.151   5.618
 7631TIP3    H222837   3.444   0.265   5.620
 7632TIP3   OH222838   3.254   6.223   0.943
 7632TIP3    H122839   3.268   6.239   1.036
 7632TIP3    H222840   3.246   6.311   0.905
 7633TIP3   OH222841   2.589   5.160   1.651
 7633TIP3    H122842   2.542   5.223   1.706
 7633TIP3    H222843   2.521   5.101   1.619
 7634TIP3   OH222844   1.527   6.781   0.761
 7634TIP3    H122845   1.440   6.768   0.799
 7634TIP3    H222846   1.587   6.763   0.834
 7635TIP3   OH222847   0.959   0.268   4.582
 7635TIP3    H122848   0.962   0.174   4.600
 7635TIP3    H222849   0.987   0.276   4.490
 7636TIP3   OH222850   7.774   2.452   2.872
 7636TIP3    H122851   7.795   2.534   2.828
 7636TIP3    H222852   7.715   2.477   2.943
 7637TIP3   OH222853   4.470   5.154   4.453
 7637TIP3    H122854   4.563   5.172   4.466
 7637TIP3    H222855   4.456   5.165   4.359
 7638TIP3   OH222856   2.829   4.513   6.331
 7638TIP3    H122857   2.798   4.598   6.300
 7638TIP3    H222858   2.780   4.449   6.279
 7639TIP3   OH222859   4.937   3.004   4.620
 7639TIP3    H122860   4.939   3.099   4.612
 7639TIP3    H222861   5.009   2.973   4.566
 7640TIP3   OH222862   5.862   3.746   4.227
 7640TIP3    H122863   5.893   3.660   4.198
 7640TIP3    H222864   5.837   3.791   4.147
 7641TIP3   OH222865   8.025   6.078   6.719
 7641TIP3    H122866   8.074   6.118   6.791
 7641TIP3    H222867   8.083   6.087   6.643
 7642TIP3   OH222868   1.483   5.246   0.566
 7642TIP3    H122869   1.408   5.189   0.550
 7642TIP3    H222870   1.452   5.307   0.633
 7643TIP3   OH222871   1.573   6.458   0.114
 7643TIP3    H122872   1.632   6.514   0.062
 7643TIP3    H222873   1.606   6.465   0.203
 7644TIP3   OH222874   2.905   6.386   0.657
 7644TIP3    H122875   2.921   6.386   0.562
 7644TIP3    H222876   2.932   6.299   0.686
 7645TIP3   OH222877   0.510   1.213   0.580
 7645TIP3    H122878   0.596   1.186   0.547
 7645TIP3    H222879   0.520   1.307   0.598
 7646TIP3   OH222880   4.640   7.050   4.368
 7646TIP3    H122881   4.600   7.107   4.434
 7646TIP3    H222882   4.733   7.069   4.372
 7647TIP3   OH222883   6.283   5.158   6.164
 7647TIP3    H122884   6.231   5.159   6.084
 7647TIP3    H222885   6.265   5.073   6.204
 7648TIP3   OH222886   7.302   7.322   2.130
 7648TIP3    H122887   7.360   7.350   2.059
 7648TIP3    H222888   7.358   7.267   2.185
 7649TIP3   OH222889   4.785   0.950   2.055
 7649TIP3    H122890   4.747   0.925   2.139
 7649TIP3    H222891   4.866   0.995   2.078
 7650TIP3   OH222892   4.929   1.615   3.091
 7650TIP3    H122893   4.890   1.678   3.030
 7650TIP3    H222894   4.855   1.580   3.140
 7651TIP3   OH222895   5.698   4.239   0.173
 7651TIP3    H122896   5.616   4.258   0.128
 7651TIP3    H222897   5.755   4.313   0.153
 7652TIP3   OH222898   3.919   7.026   1.896
 7652TIP3    H122899   3.915   6.970   1.818
 7652TIP3    H222900   3.965   6.974   1.961
 7653TIP3   OH222901   1.832   5.684   4.679
 7653TIP3    H122902   1.819   5.592   4.702
 7653TIP3    H222903   1.853   5.682   4.585
 7654TIP3   OH222904   8.073   0.596   0.492
 7654TIP3    H122905   7.987   0.601   0.451
 7654TIP3    H222906   8.110   0.514   0.459
 7655TIP3   OH222907   0.661   1.045   3.383
 7655TIP3    H122908   0.730   0.985   3.411
 7655TIP3    H222909   0.682   1.066   3.292
 7656TIP3   OH222910   7.671   2.081   6.154
 7656TIP3    H122911   7.731   2.044   6.219
 7656TIP3    H222912   7.683   2.026   6.077
 7657TIP3   OH222913   6.503   7.810   6.090
 7657TIP3    H122914   6.506   7.756   6.011
 7657TIP3    H222915   6.417   7.789   6.129
 7658TIP3   OH222916   0.342   1.350   3.422
 7658TIP3    H122917   0.381   1.278   3.471
 7658TIP3    H222918   0.286   1.394   3.487
 7659TIP3   OH222919   2.394   2.455   6.154
 7659TIP3    H122920   2.390   2.494   6.067
 7659TIP3    H222921   2.330   2.384   6.152
 7660TIP3   OH222922   5.206   5.504   5.901
 7660TIP3    H122923   5.211   5.593   5.937
 7660TIP3    H222924   5.274   5.455   5.947
 7661TIP3   OH222925   0.798   2.709   0.896
 7661TIP3    H122926   0.831   2.711   0.807
 7661TIP3    H222927   0.830   2.625   0.931
 7662TIP3   OH222928   5.375   5.561   4.829
 7662TIP3    H122929   5.444   5.573   4.765
 7662TIP3    H222930   5.419   5.526   4.907
 7663TIP3   OH222931   2.104   6.168   1.989
 7663TIP3    H122932   2.156   6.236   1.946
 7663TIP3    H222933   2.111   6.093   1.930
 7664TIP3   OH222934   3.342   2.344   6.694
 7664TIP3    H122935   3.371   2.302   6.613
 7664TIP3    H222936   3.246   2.338   6.690
 7665TIP3   OH222937   1.730   4.183   0.763
 7665TIP3    H122938   1.636   4.197   0.773
 7665TIP3    H222939   1.741   4.156   0.671
 7666TIP3   OH222940   2.417   7.795   0.006
 7666TIP3    H122941   2.494   7.740  -0.008
 7666TIP3    H222942   2.386   7.772   0.093
 7667TIP3   OH222943   1.341   7.182   2.325
 7667TIP3    H122944   1.427   7.223   2.327
 7667TIP3    H222945   1.348   7.106   2.383
 7668TIP3   OH222946   0.195   0.329   3.149
 7668TIP3    H122947   0.187   0.239   3.119
 7668TIP3    H222948   0.241   0.374   3.077
 7669TIP3   OH222949   6.920   1.104   2.244
 7669TIP3    H122950   6.949   1.081   2.333
 7669TIP3    H222951   6.932   1.198   2.239
 7670TIP3   OH222952   2.206   1.861   3.925
 7670TIP3    H122953   2.261   1.936   3.946
 7670TIP3    H222954   2.263   1.785   3.938
 7671TIP3   OH222955   2.540   1.632   3.681
 7671TIP3    H122956   2.540   1.595   3.593
 7671TIP3    H222957   2.611   1.585   3.726
 7672TIP3   OH222958   2.083   5.046   2.253
 7672TIP3    H122959   2.132   4.976   2.211
 7672TIP3    H222960   2.109   5.042   2.346
 7673TIP3   OH222961   3.667   1.505   5.466
 7673TIP3    H122962   3.690   1.457   5.386
 7673TIP3    H222963   3.748   1.504   5.518
 7674TIP3   OH222964   0.901   5.421   4.379
 7674TIP3    H122965   0.824   5.431   4.435
 7674TIP3    H222966   0.943   5.341   4.410
 7675TIP3   OH222967   7.665   3.760   4.553
 7675TIP3    H122968   7.741   3.819   4.552
 7675TIP3    H222969   7.603   3.801   4.614
 7676TIP3   OH222970   8.059   7.001   1.956
 7676TIP3    H122971   8.091   6.914   1.932
 7676TIP3    H222972   7.964   6.992   1.956
 7677TIP3   OH222973   5.446   7.390   6.652
 7677TIP3    H122974   5.373   7.391   6.590
 7677TIP3    H222975   5.481   7.479   6.649
 7678TIP3   OH222976   2.045   4.917   4.388
 7678TIP3    H122977   2.079   4.978   4.321
 7678TIP3    H222978   2.086   4.946   4.469
 7679TIP3   OH222979   5.709   6.104   0.601
 7679TIP3    H122980   5.615   6.089   0.611
 7679TIP3    H222981   5.749   6.017   0.608
 7680TIP3   OH222982   1.653   6.290   2.515
 7680TIP3    H122983   1.660   6.384   2.529
 7680TIP3    H222984   1.572   6.279   2.465
 7681TIP3   OH222985   0.716   3.709   6.528
 7681TIP3    H122986   0.667   3.791   6.536
 7681TIP3    H222987   0.805   3.732   6.556
 7682TIP3   OH222988   0.407   4.862   3.933
 7682TIP3    H122989   0.320   4.900   3.928
 7682TIP3    H222990   0.392   4.767   3.941
 7683TIP3   OH222991   2.293   4.695   1.008
 7683TIP3    H122992   2.255   4.780   1.028
 7683TIP3    H222993   2.324   4.703   0.918
 7684TIP3   OH222994   4.196   6.776   5.979
 7684TIP3    H122995   4.261   6.769   5.910
 7684TIP3    H222996   4.180   6.686   6.007
 7685TIP3   OH222997   5.804   3.886   3.988
 7685TIP3    H122998   5.785   3.969   4.029
 7685TIP3    H222999   5.741   3.879   3.917
 7686TIP3   OH223000   2.570   0.559   6.713
 7686TIP3    H123001   2.512   0.574   6.638
 7686TIP3    H223002   2.616   0.642   6.725
 7687TIP3   OH223003   4.720   6.247   6.327
 7687TIP3    H123004   4.748   6.180   6.390
 7687TIP3    H223005   4.793   6.255   6.266
 7688TIP3   OH223006   4.219   4.899   3.415
 7688TIP3    H123007   4.238   4.986   3.450
 7688TIP3    H223008   4.226   4.910   3.320
 7689TIP3   OH223009   0.172   2.536   1.393
 7689TIP3    H123010   0.158   2.483   1.315
 7689TIP3    H223011   0.247   2.495   1.437
 7690TIP3   OH223012   6.074   6.237   3.878
 7690TIP3    H123013   6.137   6.296   3.838
 7690TIP3    H223014   6.124   6.187   3.942
 7691TIP3   OH223015   7.721   3.281   3.097
 7691TIP3    H123016   7.629   3.301   3.082
 7691TIP3    H223017   7.732   3.192   3.062
 7692TIP3   OH223018   1.304   5.977   4.962
 7692TIP3    H123019   1.225   5.923   4.961
 7692TIP3    H223020   1.286   6.047   4.899
 7693TIP3   OH223021   4.963   3.047   3.017
 7693TIP3    H123022   4.886   3.002   3.050
 7693TIP3    H223023   5.037   2.995   3.047
 7694TIP3   OH223024   3.320   2.818   0.107
 7694TIP3    H123025   3.369   2.896   0.079
 7694TIP3    H223026   3.230   2.848   0.115
 7695TIP3   OH223027   5.921   7.050   4.700
 7695TIP3    H123028   5.982   7.080   4.632
 7695TIP3    H223029   5.843   7.022   4.652
 7696TIP3   OH223030   7.442   4.946   2.271
 7696TIP3    H123031   7.412   4.980   2.356
 7696TIP3    H223032   7.484   4.863   2.292
 7697TIP3   OH223033   5.978   4.037   6.647
 7697TIP3    H123034   5.899   4.058   6.596
 7697TIP3    H223035   6.016   4.123   6.668
 7698TIP3   OH223036   2.472   6.756   4.250
 7698TIP3    H123037   2.526   6.773   4.327
 7698TIP3    H223038   2.522   6.692   4.199
 7699TIP3   OH223039   6.732   6.216   6.450
 7699TIP3    H123040   6.701   6.145   6.394
 7699TIP3    H223041   6.758   6.285   6.389
 7700TIP3   OH223042   7.286   3.202   4.540
 7700TIP3    H123043   7.268   3.295   4.549
 7700TIP3    H223044   7.379   3.193   4.561
 7701TIP3   OH223045   3.211   4.908   1.595
 7701TIP3    H123046   3.127   4.887   1.636
 7701TIP3    H223047   3.271   4.922   1.668
 7702TIP3   OH223048   7.847   5.935   3.571
 7702TIP3    H123049   7.895   5.975   3.499
 7702TIP3    H223050   7.910   5.935   3.644
 7703TIP3   OH223051   7.327   0.565   0.354
 7703TIP3    H123052   7.286   0.644   0.389
 7703TIP3    H223053   7.397   0.545   0.416
 7704TIP3   OH223054   4.649   4.559   0.726
 7704TIP3    H123055   4.587   4.498   0.687
 7704TIP3    H223056   4.669   4.622   0.657
 7705TIP3   OH223057   6.308   3.773   4.108
 7705TIP3    H123058   6.247   3.824   4.163
 7705TIP3    H223059   6.357   3.720   4.171
 7706TIP3   OH223060   7.298   4.320   5.074
 7706TIP3    H123061   7.303   4.224   5.078
 7706TIP3    H223062   7.281   4.339   4.982
 7707TIP3   OH223063   2.340   4.423   0.476
 7707TIP3    H123064   2.265   4.473   0.445
 7707TIP3    H223065   2.322   4.332   0.450
 7708TIP3   OH223066   2.219   6.426   5.967
 7708TIP3    H123067   2.250   6.393   5.883
 7708TIP3    H223068   2.227   6.521   5.960
 7709TIP3   OH223069   4.367   5.779   4.837
 7709TIP3    H123070   4.348   5.854   4.781
 7709TIP3    H223071   4.442   5.736   4.796
 7710TIP3   OH223072   3.106   0.556   5.422
 7710TIP3    H123073   3.190   0.580   5.461
 7710TIP3    H223074   3.053   0.635   5.429
 7711TIP3   OH223075   7.437   7.805   2.034
 7711TIP3    H123076   7.493   7.878   2.060
 7711TIP3    H223077   7.477   7.728   2.076
 7712TIP3   OH223078   7.069   0.239   2.177
 7712TIP3    H123079   7.107   0.155   2.154
 7712TIP3    H223080   7.006   0.257   2.107
 7713TIP3   OH223081   4.984   6.337   3.264
 7713TIP3    H123082   4.933   6.409   3.298
 7713TIP3    H223083   5.070   6.345   3.306
 7714TIP3   OH223084   1.082   2.876   5.749
 7714TIP3    H123085   1.104   2.955   5.797
 7714TIP3    H223086   1.166   2.842   5.718
 7715TIP3   OH223087   3.310   0.252   5.166
 7715TIP3    H123088   3.253   0.272   5.240
 7715TIP3    H223089   3.266   0.180   5.120
 7716TIP3   OH223090   2.129   5.372   6.364
 7716TIP3    H123091   2.101   5.284   6.387
 7716TIP3    H223092   2.199   5.359   6.300
 7717TIP3   OH223093   4.273   6.159   1.900
 7717TIP3    H123094   4.181   6.172   1.925
 7717TIP3    H223095   4.297   6.076   1.940
 7718TIP3   OH223096   8.168   5.344   0.669
 7718TIP3    H123097   8.237   5.369   0.608
 7718TIP3    H223098   8.090   5.390   0.637
 7719TIP3   OH223099   2.796   7.388   2.973
 7719TIP3    H123100   2.796   7.314   2.912
 7719TIP3    H223101   2.806   7.347   3.060
 7720TIP3   OH223102   8.256   3.173   0.074
 7720TIP3    H123103   8.323   3.212   0.018
 7720TIP3    H223104   8.211   3.247   0.113
 7721TIP3   OH223105   4.162   6.913   2.024
 7721TIP3    H123106   4.202   6.998   2.039
 7721TIP3    H223107   4.137   6.882   2.111
 7722TIP3   OH223108   3.517   3.938   6.247
 7722TIP3    H123109   3.505   3.858   6.196
 7722TIP3    H223110   3.580   3.990   6.197
 7723TIP3   OH223111   0.122   2.988   2.902
 7723TIP3    H123112   0.143   3.067   2.851
 7723TIP3    H223113   0.102   3.022   2.990
 7724TIP3   OH223114   3.906   3.591   4.852
 7724TIP3    H123115   3.941   3.654   4.789
 7724TIP3    H223116   3.947   3.613   4.935
 7725TIP3   OH223117   7.560   2.177   6.450
 7725TIP3    H123118   7.552   2.143   6.361
 7725TIP3    H223119   7.501   2.252   6.452
 7726TIP3   OH223120   6.600   2.312   4.811
 7726TIP3    H123121   6.651   2.243   4.854
 7726TIP3    H223122   6.510   2.279   4.812
 7727TIP3   OH223123   3.515   1.833   2.730
 7727TIP3    H123124   3.560   1.862   2.651
 7727TIP3    H223125   3.485   1.744   2.710
 7728TIP3   OH223126   5.501   6.713   1.281
 7728TIP3    H123127   5.487   6.732   1.374
 7728TIP3    H223128   5.421   6.669   1.253
 7729TIP3   OH223129   6.099   1.413   6.427
 7729TIP3    H123130   6.005   1.430   6.421
 7729TIP3    H223131   6.123   1.438   6.516
 7730TIP3   OH223132   6.572   1.304   1.778
 7730TIP3    H123133   6.513   1.363   1.732
 7730TIP3    H223134   6.643   1.288   1.716
 7731TIP3   OH223135   0.616   4.658   1.986
 7731TIP3    H123136   0.659   4.726   1.935
 7731TIP3    H223137   0.667   4.652   2.066
 7732TIP3   OH223138   0.670   3.594   3.191
 7732TIP3    H123139   0.724   3.538   3.247
 7732TIP3    H223140   0.599   3.624   3.248
 7733TIP3   OH223141   1.432   3.853   3.369
 7733TIP3    H123142   1.481   3.807   3.437
 7733TIP3    H223143   1.393   3.928   3.415
 7734TIP3   OH223144   6.334   5.976   2.743
 7734TIP3    H123145   6.375   6.022   2.669
 7734TIP3    H223146   6.247   5.953   2.712
 7735TIP3   OH223147   7.308   4.107   6.220
 7735TIP3    H123148   7.329   4.111   6.314
 7735TIP3    H223149   7.392   4.100   6.176
 7736TIP3   OH223150   6.531   0.752   2.922
 7736TIP3    H123151   6.625   0.758   2.903
 7736TIP3    H223152   6.488   0.782   2.842
 7737TIP3   OH223153   5.261   2.392   4.513
 7737TIP3    H123154   5.193   2.438   4.562
 7737TIP3    H223155   5.314   2.349   4.581
 7738TIP3   OH223156   6.610   6.301   3.581
 7738TIP3    H123157   6.555   6.374   3.608
 7738TIP3    H223158   6.694   6.317   3.625
 7739TIP3   OH223159   6.198   7.323   6.039
 7739TIP3    H123160   6.107   7.350   6.031
 7739TIP3    H223161   6.230   7.369   6.116
 7740TIP3   OH223162   0.891   3.778   1.679
 7740TIP3    H123163   0.954   3.817   1.740
 7740TIP3    H223164   0.878   3.845   1.612
 7741TIP3   OH223165   7.140   3.646   1.799
 7741TIP3    H123166   7.150   3.634   1.705
 7741TIP3    H223167   7.225   3.623   1.835
 7742TIP3   OH223168   0.577   2.701   2.728
 7742TIP3    H123169   0.558   2.717   2.821
 7742TIP3    H223170   0.672   2.691   2.725
 7743TIP3   OH223171   4.935   1.253   4.591
 7743TIP3    H123172   4.916   1.293   4.676
 7743TIP3    H223173   5.024   1.219   4.601
 7744TIP3   OH223174   0.885   5.030   1.624
 7744TIP3    H123175   0.803   5.078   1.611
 7744TIP3    H223176   0.941   5.058   1.552
 7745TIP3   OH223177   4.219   0.374   3.600
 7745TIP3    H123178   4.260   0.358   3.685
 7745TIP3    H223179   4.127   0.352   3.613
 7746TIP3   OH223180   0.213   7.325   1.658
 7746TIP3    H123181   0.249   7.326   1.747
 7746TIP3    H223182   0.131   7.277   1.667
 7747TIP3   OH223183   0.602   6.336   1.832
 7747TIP3    H123184   0.697   6.327   1.823
 7747TIP3    H223185   0.581   6.285   1.910
 7748TIP3   OH223186   4.363   0.773   6.410
 7748TIP3    H123187   4.394   0.840   6.471
 7748TIP3    H223188   4.283   0.810   6.374
 7749TIP3   OH223189   2.648   5.594   4.736
 7749TIP3    H123190   2.653   5.658   4.664
 7749TIP3    H223191   2.554   5.578   4.747
 7750TIP3   OH223192   8.293   2.249   1.727
 7750TIP3    H123193   8.262   2.304   1.800
 7750TIP3    H223194   8.334   2.174   1.769
 7751TIP3   OH223195   7.900   0.061   2.311
 7751TIP3    H123196   7.857   0.146   2.326
 7751TIP3    H223197   7.940   0.070   2.224
 7752TIP3   OH223198   2.363   1.545   5.651
 7752TIP3    H123199   2.275   1.525   5.684
 7752TIP3    H223200   2.405   1.592   5.723
 7753TIP3   OH223201   5.761   3.760   4.473
 7753TIP3    H123202   5.801   3.737   4.390
 7753TIP3    H223203   5.761   3.855   4.475
 7754TIP3   OH223204   4.901   3.199   3.506
 7754TIP3    H123205   4.818   3.247   3.508
 7754TIP3    H223206   4.878   3.110   3.532
 7755TIP3   OH223207   5.034   4.588   4.619
 7755TIP3    H123208   5.010   4.680   4.611
 7755TIP3    H223209   5.084   4.583   4.700
 7756TIP3   OH223210   4.813   6.102   2.539
 7756TIP3    H123211   4.776   6.145   2.462
 7756TIP3    H223212   4.746   6.112   2.607
 7757TIP3   OH223213   4.898   1.796   4.547
 7757TIP3    H123214   4.944   1.750   4.477
 7757TIP3    H223215   4.958   1.793   4.622
 7758TIP3   OH223216   4.610   3.621   1.127
 7758TIP3    H123217   4.588   3.584   1.212
 7758TIP3    H223218   4.603   3.548   1.066
 7759TIP3   OH223219   7.163   1.812   5.260
 7759TIP3    H123220   7.092   1.829   5.321
 7759TIP3    H223221   7.138   1.858   5.180
 7760TIP3   OH223222   3.273   6.450   2.813
 7760TIP3    H123223   3.207   6.434   2.746
 7760TIP3    H223224   3.225   6.450   2.896
 7761TIP3   OH223225   2.584   1.959   0.894
 7761TIP3    H123226   2.670   1.999   0.876
 7761TIP3    H223227   2.572   1.970   0.988
 7762TIP3   OH223228   4.728   6.025   5.308
 7762TIP3    H123229   4.710   5.943   5.263
 7762TIP3    H223230   4.728   6.003   5.401
 7763TIP3   OH223231   1.000   7.649   6.642
 7763TIP3    H123232   0.946   7.656   6.721
 7763TIP3    H223233   1.089   7.667   6.673
 7764TIP3   OH223234   1.042   0.817   6.008
 7764TIP3    H123235   1.024   0.893   5.953
 7764TIP3    H223236   1.060   0.746   5.947
 7765TIP3   OH223237   4.670   0.187   4.482
 7765TIP3    H123238   4.764   0.198   4.472
 7765TIP3    H223239   4.632   0.270   4.453
 7766TIP3   OH223240   7.084   3.630   0.493
 7766TIP3    H123241   7.179   3.620   0.490
 7766TIP3    H223242   7.068   3.719   0.461
 7767TIP3   OH223243   4.049   4.518  -0.004
 7767TIP3    H123244   4.078   4.606   0.020
 7767TIP3    H223245   3.981   4.497   0.059
 7768TIP3   OH223246   5.436   1.329   1.143
 7768TIP3    H123247   5.419   1.237   1.160
 7768TIP3    H223248   5.452   1.334   1.049
 7769TIP3   OH223249   1.135   4.157   3.689
 7769TIP3    H123250   1.224   4.132   3.665
 7769TIP3    H223251   1.139   4.170   3.784
 7770TIP3   OH223252   3.351   6.999   1.024
 7770TIP3    H123253   3.308   7.012   0.940
 7770TIP3    H223254   3.426   7.058   1.023
 7771TIP3   OH223255   1.313   7.308   4.229
 7771TIP3    H123256   1.392   7.361   4.238
 7771TIP3    H223257   1.281   7.297   4.319
 7772TIP3   OH223258   1.362   5.359   3.380
 7772TIP3    H123259   1.365   5.455   3.387
 7772TIP3    H223260   1.422   5.328   3.447
 7773TIP3   OH223261   7.127   1.711   5.592
 7773TIP3    H123262   7.080   1.640   5.636
 7773TIP3    H223263   7.190   1.666   5.535
 7774TIP3   OH223264   5.117   6.776   3.406
 7774TIP3    H123265   5.068   6.846   3.363
 7774TIP3    H223266   5.208   6.794   3.386
 7775TIP3   OH223267   6.593   2.255   4.296
 7775TIP3    H123268   6.503   2.282   4.313
 7775TIP3    H223269   6.635   2.253   4.382
 7776TIP3   OH223270   2.065   5.513   6.623
 7776TIP3    H123271   2.058   5.435   6.678
 7776TIP3    H223272   2.060   5.479   6.534
 7777TIP3   OH223273   4.738   2.717   2.780
 7777TIP3    H123274   4.713   2.806   2.756
 7777TIP3    H223275   4.771   2.678   2.699
 7778TIP3   OH223276   2.690   7.360   4.232
 7778TIP3    H123277   2.685   7.383   4.139
 7778TIP3    H223278   2.602   7.379   4.266
 7779TIP3   OH223279   6.001   2.206   2.399
 7779TIP3    H123280   5.925   2.161   2.438
 7779TIP3    H223281   6.064   2.136   2.383
 7780TIP3   OH223282   1.617   3.530   2.810
 7780TIP3    H123283   1.599   3.441   2.842
 7780TIP3    H223284   1.549   3.546   2.745
 7781TIP3   OH223285   0.042   5.245   3.514
 7781TIP3    H123286  -0.019   5.245   3.440
 7781TIP3    H223287   0.119   5.198   3.483
 7782TIP3   OH223288   1.924   7.149   1.107
 7782TIP3    H123289   1.976   7.120   1.182
 7782TIP3    H223290   1.990   7.175   1.042
 7783TIP3   OH223291   0.222   2.450   2.509
 7783TIP3    H123292   0.316   2.456   2.529
 7783TIP3    H223293   0.198   2.538   2.480
 7784TIP3   OH223294   2.205   5.180   1.295
 7784TIP3    H123295   2.141   5.110   1.311
 7784TIP3    H223296   2.279   5.135   1.253
 7785TIP3   OH223297   7.166   4.665   1.780
 7785TIP3    H123298   7.113   4.636   1.705
 7785TIP3    H223299   7.256   4.643   1.756
 7786TIP3   OH223300   3.527   3.255   3.063
 7786TIP3    H123301   3.514   3.244   3.157
 7786TIP3    H223302   3.439   3.264   3.027
 7787TIP3   OH223303   7.881   1.649   2.546
 7787TIP3    H123304   7.905   1.666   2.637
 7787TIP3    H223305   7.800   1.697   2.533
 7788TIP3   OH223306   5.458   3.848   2.007
 7788TIP3    H123307   5.501   3.862   2.091
 7788TIP3    H223308   5.424   3.934   1.982
 7789TIP3   OH223309   4.499   5.260   6.635
 7789TIP3    H123310   4.460   5.341   6.600
 7789TIP3    H223311   4.577   5.246   6.581
 7790TIP3   OH223312   0.188   5.379   3.970
 7790TIP3    H123313   0.223   5.420   3.891
 7790TIP3    H223314   0.100   5.414   3.979
 7791TIP3   OH223315   1.500   6.704   2.639
 7791TIP3    H123316   1.444   6.709   2.562
 7791TIP3    H223317   1.481   6.619   2.679
 7792TIP3   OH223318   3.079   2.886   1.542
 7792TIP3    H123319   3.013   2.907   1.608
 7792TIP3    H223320   3.162   2.910   1.582
 7793TIP3   OH223321   1.543   7.256   1.063
 7793TIP3    H123322   1.450   7.234   1.054
 7793TIP3    H223323   1.570   7.211   1.142
 7794TIP3   OH223324   7.806   7.016   0.613
 7794TIP3    H123325   7.822   6.922   0.613
 7794TIP3    H223326   7.718   7.026   0.649
 7795TIP3   OH223327   0.620   3.574   5.115
 7795TIP3    H123328   0.671   3.512   5.063
 7795TIP3    H223329   0.670   3.586   5.195
 7796TIP3   OH223330   0.908   5.283   6.648
 7796TIP3    H123331   0.887   5.209   6.590
 7796TIP3    H223332   0.824   5.309   6.685
 7797TIP3   OH223333   6.425   2.945   1.256
 7797TIP3    H123334   6.448   3.006   1.326
 7797TIP3    H223335   6.467   2.980   1.178
 7798TIP3   OH223336   8.068   7.105   0.908
 7798TIP3    H123337   8.079   7.084   0.815
 7798TIP3    H223338   8.142   7.162   0.929
 7799TIP3   OH223339   6.091   7.012   4.482
 7799TIP3    H123340   6.168   6.956   4.486
 7799TIP3    H223341   6.112   7.076   4.413
 7800TIP3   OH223342   5.377   1.880   5.937
 7800TIP3    H123343   5.433   1.939   5.886
 7800TIP3    H223344   5.301   1.865   5.881
 7801TIP3   OH223345   0.340   0.554   3.868
 7801TIP3    H123346   0.393   0.633   3.878
 7801TIP3    H223347   0.298   0.564   3.782
 7802TIP3   OH223348   3.341   3.826   3.818
 7802TIP3    H123349   3.311   3.846   3.730
 7802TIP3    H223350   3.292   3.747   3.843
 7803TIP3   OH223351   1.600   5.894   1.820
 7803TIP3    H123352   1.626   5.945   1.897
 7803TIP3    H223353   1.509   5.869   1.837
 7804TIP3   OH223354   7.176   2.663   5.962
 7804TIP3    H123355   7.180   2.745   5.912
 7804TIP3    H223356   7.118   2.682   6.035
 7805TIP3   OH223357   5.599   7.624   0.113
 7805TIP3    H123358   5.611   7.709   0.071
 7805TIP3    H223359   5.608   7.643   0.207
 7806TIP3   OH223360   6.761   3.065   1.303
 7806TIP3    H123361   6.763   2.977   1.265
 7806TIP3    H223362   6.690   3.062   1.367
 7807TIP3   OH223363   3.894   5.484   2.705
 7807TIP3    H123364   3.965   5.480   2.768
 7807TIP3    H223365   3.861   5.574   2.711
 7808TIP3   OH223366   3.800   4.461   1.864
 7808TIP3    H123367   3.884   4.503   1.882
 7808TIP3    H223368   3.791   4.394   1.932
 7809TIP3   OH223369   5.303   4.894   4.654
 7809TIP3    H123370   5.207   4.890   4.649
 7809TIP3    H223371   5.333   4.830   4.591
 7810TIP3   OH223372   1.960   6.065   6.693
 7810TIP3    H123373   1.925   5.977   6.679
 7810TIP3    H223374   1.906   6.121   6.637
 7811TIP3   OH223375   0.152   1.080   6.011
 7811TIP3    H123376   0.165   1.091   6.105
 7811TIP3    H223377   0.167   1.168   5.974
 7812TIP3   OH223378   3.251   7.183   1.320
 7812TIP3    H123379   3.278   7.268   1.285
 7812TIP3    H223380   3.215   7.137   1.245
 7813TIP3   OH223381   2.165   6.377   3.334
 7813TIP3    H123382   2.109   6.455   3.339
 7813TIP3    H223383   2.166   6.342   3.423
 7814TIP3   OH223384   7.709   1.944   4.773
 7814TIP3    H123385   7.802   1.948   4.797
 7814TIP3    H223386   7.676   1.868   4.821
 7815TIP3   OH223387   3.722   0.183   5.351
 7815TIP3    H123388   3.703   0.242   5.278
 7815TIP3    H223389   3.812   0.204   5.376
 7816TIP3   OH223390   1.470   5.818   1.366
 7816TIP3    H123391   1.438   5.759   1.434
 7816TIP3    H223392   1.516   5.760   1.305
 7817TIP3   OH223393   2.085   7.579   1.952
 7817TIP3    H123394   2.076   7.505   1.892
 7817TIP3    H223395   2.011   7.569   2.012
 7818TIP3   OH223396   7.865   4.851   0.586
 7818TIP3    H123397   7.889   4.942   0.569
 7818TIP3    H223398   7.770   4.849   0.573
 7819TIP3   OH223399   5.468   6.996   6.135
 7819TIP3    H123400   5.400   6.974   6.200
 7819TIP3    H223401   5.441   6.950   6.056
 7820TIP3   OH223402   1.397   1.001   4.335
 7820TIP3    H123403   1.395   1.007   4.239
 7820TIP3    H223404   1.475   1.050   4.360
 7821TIP3   OH223405   2.793   7.778   3.748
 7821TIP3    H123406   2.780   7.741   3.836
 7821TIP3    H223407   2.746   7.861   3.750
 7822TIP3   OH223408   5.427   5.217   4.454
 7822TIP3    H123409   5.485   5.275   4.404
 7822TIP3    H223410   5.453   5.228   4.545
 7823TIP3   OH223411   3.774   7.316   2.306
 7823TIP3    H123412   3.742   7.260   2.235
 7823TIP3    H223413   3.747   7.404   2.281
 7824TIP3   OH223414   2.628   2.718   4.426
 7824TIP3    H123415   2.594   2.806   4.446
 7824TIP3    H223416   2.723   2.728   4.430
 7825TIP3   OH223417   3.657   3.049   3.495
 7825TIP3    H123418   3.686   3.013   3.579
 7825TIP3    H223419   3.712   3.126   3.481
 7826TIP3   OH223420   6.897   1.814   6.674
 7826TIP3    H123421   6.946   1.800   6.593
 7826TIP3    H223422   6.831   1.744   6.675
 7827TIP3   OH223423   7.067   4.933   1.676
 7827TIP3    H123424   7.079   4.887   1.592
 7827TIP3    H223425   7.130   4.891   1.735
 7828TIP3   OH223426   3.242   1.473   5.914
 7828TIP3    H123427   3.228   1.544   5.977
 7828TIP3    H223428   3.245   1.393   5.967
 7829TIP3   OH223429   5.998   5.099   0.172
 7829TIP3    H123430   5.928   5.113   0.108
 7829TIP3    H223431   5.953   5.093   0.256
 7830TIP3   OH223432   6.355   3.728   0.709
 7830TIP3    H123433   6.338   3.634   0.718
 7830TIP3    H223434   6.424   3.745   0.773
 7831TIP3   OH223435   4.762   4.226   0.015
 7831TIP3    H123436   4.797   4.181   0.092
 7831TIP3    H223437   4.828   4.212  -0.053
 7832TIP3   OH223438   8.054   6.022   4.096
 7832TIP3    H123439   8.115   5.992   4.029
 7832TIP3    H223440   8.037   6.114   4.074
 7833TIP3   OH223441   3.888   7.266   3.671
 7833TIP3    H123442   3.895   7.273   3.767
 7833TIP3    H223443   3.882   7.357   3.641
 7834TIP3   OH223444   4.958   0.544   2.116
 7834TIP3    H123445   4.993   0.456   2.101
 7834TIP3    H223446   4.912   0.538   2.199
 7835TIP3   OH223447   3.681   4.666   6.316
 7835TIP3    H123448   3.670   4.612   6.394
 7835TIP3    H223449   3.763   4.635   6.277
 7836TIP3   OH223450   6.949   2.706   2.410
 7836TIP3    H123451   6.914   2.718   2.499
 7836TIP3    H223452   6.871   2.698   2.355
 7837TIP3   OH223453   2.216   6.926   3.938
 7837TIP3    H123454   2.188   6.939   3.848
 7837TIP3    H223455   2.312   6.918   3.933
 7838TIP3   OH223456   3.375   2.640   4.335
 7838TIP3    H123457   3.359   2.603   4.248
 7838TIP3    H223458   3.424   2.572   4.382
 7839TIP3   OH223459   3.330   5.311   1.907
 7839TIP3    H123460   3.331   5.224   1.947
 7839TIP3    H223461   3.306   5.370   1.978
 7840TIP3   OH223462   2.467   7.392   2.261
 7840TIP3    H123463   2.509   7.316   2.302
 7840TIP3    H223464   2.520   7.410   2.184
 7841TIP3   OH223465   2.890   2.683   5.266
 7841TIP3    H123466   2.824   2.641   5.211
 7841TIP3    H223467   2.893   2.774   5.235
 7842TIP3   OH223468   5.744   6.161   2.469
 7842TIP3    H123469   5.737   6.225   2.540
 7842TIP3    H223470   5.701   6.082   2.503
 7843TIP3   OH223471   6.206   4.116   5.058
 7843TIP3    H123472   6.192   4.176   4.985
 7843TIP3    H223473   6.163   4.035   5.031
 7844TIP3   OH223474   2.973   0.133   3.554
 7844TIP3    H123475   3.037   0.077   3.510
 7844TIP3    H223476   2.897   0.076   3.569
 7845TIP3   OH223477   6.429   3.881   6.140
 7845TIP3    H123478   6.406   3.973   6.125
 7845TIP3    H223479   6.521   3.874   6.116
 7846TIP3   OH223480   3.576   5.609   2.065
 7846TIP3    H123481   3.549   5.518   2.068
 7846TIP3    H223482   3.502   5.658   2.103
 7847TIP3   OH223483   1.785   5.156   0.080
 7847TIP3    H123484   1.779   5.220   0.009
 7847TIP3    H223485   1.855   5.097   0.053
 7848TIP3   OH223486   3.655   4.310   0.988
 7848TIP3    H123487   3.640   4.216   0.994
 7848TIP3    H223488   3.724   4.320   0.922
 7849TIP3   OH223489   7.442   5.723   2.798
 7849TIP3    H123490   7.384   5.731   2.723
 7849TIP3    H223491   7.528   5.748   2.764
 7850TIP3   OH223492   3.914   2.372   2.805
 7850TIP3    H123493   3.989   2.383   2.746
 7850TIP3    H223494   3.948   2.389   2.892
 7851TIP3   OH223495   7.447   1.989   5.195
 7851TIP3    H123496   7.442   2.003   5.101
 7851TIP3    H223497   7.405   1.904   5.209
 7852TIP3   OH223498   2.733   6.581   2.095
 7852TIP3    H123499   2.826   6.582   2.073
 7852TIP3    H223500   2.689   6.558   2.013
 7853TIP3   OH223501   1.258   4.534   6.116
 7853TIP3    H123502   1.235   4.473   6.186
 7853TIP3    H223503   1.341   4.501   6.082
 7854TIP3   OH223504   6.835   5.565   2.336
 7854TIP3    H123505   6.844   5.613   2.253
 7854TIP3    H223506   6.751   5.521   2.329
 7855TIP3   OH223507   6.466   3.270   0.417
 7855TIP3    H123508   6.381   3.235   0.389
 7855TIP3    H223509   6.525   3.195   0.416
 7856TIP3   OH223510   3.979   4.895   6.451
 7856TIP3    H123511   4.017   4.982   6.462
 7856TIP3    H223512   3.903   4.894   6.510
 7857TIP3   OH223513   3.289   4.188   4.741
 7857TIP3    H123514   3.317   4.270   4.782
 7857TIP3    H223515   3.224   4.215   4.676
 7858TIP3   OH223516   0.198   4.857   0.610
 7858TIP3    H123517   0.118   4.891   0.648
 7858TIP3    H223518   0.179   4.765   0.592
 7859TIP3   OH223519   1.140   6.458   1.639
 7859TIP3    H123520   1.176   6.525   1.697
 7859TIP3    H223521   1.124   6.383   1.695
 7860TIP3   OH223522   5.962   3.009   6.425
 7860TIP3    H123523   6.036   2.951   6.443
 7860TIP3    H223524   5.886   2.963   6.460
 7861TIP3   OH223525   3.920   1.281   2.011
 7861TIP3    H123526   3.923   1.253   1.919
 7861TIP3    H223527   3.998   1.336   2.021
 7862TIP3   OH223528   4.851   3.709   5.018
 7862TIP3    H123529   4.855   3.674   4.928
 7862TIP3    H223530   4.929   3.674   5.060
 7863TIP3   OH223531   6.953   0.489   6.626
 7863TIP3    H123532   6.883   0.541   6.666
 7863TIP3    H223533   7.033   0.517   6.672
 7864TIP3   OH223534   1.755   0.162   0.956
 7864TIP3    H123535   1.745   0.199   0.869
 7864TIP3    H223536   1.679   0.105   0.968
 7865TIP3   OH223537   5.820   2.115   0.546
 7865TIP3    H123538   5.730   2.088   0.561
 7865TIP3    H223539   5.819   2.154   0.458
 7866TIP3   OH223540   6.997   5.629   5.571
 7866TIP3    H123541   7.035   5.543   5.551
 7866TIP3    H223542   6.955   5.655   5.488
 7867TIP3   OH223543   3.209   0.499   1.421
 7867TIP3    H123544   3.153   0.487   1.345
 7867TIP3    H223545   3.296   0.515   1.384
 7868TIP3   OH223546   3.097   5.333   5.889
 7868TIP3    H123547   3.077   5.416   5.932
 7868TIP3    H223548   3.168   5.296   5.940
 7869TIP3   OH223549   7.957   1.544   3.131
 7869TIP3    H123550   7.865   1.538   3.158
 7869TIP3    H223551   7.955   1.523   3.037
 7870TIP3   OH223552   1.652   7.706   2.591
 7870TIP3    H123553   1.687   7.743   2.510
 7870TIP3    H223554   1.561   7.734   2.593
 7871TIP3   OH223555   3.927   7.580   0.570
 7871TIP3    H123556   3.929   7.674   0.589
 7871TIP3    H223557   4.004   7.565   0.515
 7872TIP3   OH223558   7.552   2.630   1.376
 7872TIP3    H123559   7.526   2.639   1.467
 7872TIP3    H223560   7.590   2.715   1.353
 7873TIP3   OH223561   0.754   5.941   4.430
 7873TIP3    H123562   0.795   5.874   4.484
 7873TIP3    H223563   0.663   5.945   4.461
 7874TIP3   OH223564   1.884   5.511   6.285
 7874TIP3    H123565   1.980   5.510   6.288
 7874TIP3    H223566   1.860   5.600   6.310
 7875TIP3   OH223567   2.504   1.318   1.512
 7875TIP3    H123568   2.527   1.247   1.572
 7875TIP3    H223569   2.507   1.397   1.566
 7876TIP3   OH223570   1.380   3.145   0.047
 7876TIP3    H123571   1.391   3.104  -0.038
 7876TIP3    H223572   1.289   3.125   0.071
 7877TIP3   OH223573   4.814   7.393   1.444
 7877TIP3    H123574   4.773   7.311   1.419
 7877TIP3    H223575   4.849   7.377   1.531
 7878TIP3   OH223576   0.711   7.492   5.067
 7878TIP3    H123577   0.791   7.493   5.016
 7878TIP3    H223578   0.643   7.522   5.007
 7879TIP3   OH223579   1.505   4.465   1.010
 7879TIP3    H123580   1.444   4.500   1.075
 7879TIP3    H223581   1.591   4.493   1.041
 7880TIP3   OH223582   4.519   0.068   2.446
 7880TIP3    H123583   4.477   0.154   2.442
 7880TIP3    H223584   4.585   0.076   2.515
 7881TIP3   OH223585   2.535   1.007   4.369
 7881TIP3    H123586   2.450   1.020   4.329
 7881TIP3    H223587   2.596   1.002   4.295
 7882TIP3   OH223588   0.380   4.035   2.183
 7882TIP3    H123589   0.318   4.102   2.155
 7882TIP3    H223590   0.401   4.057   2.274
 7883TIP3   OH223591   5.226   3.530   3.751
 7883TIP3    H123592   5.185   3.462   3.699
 7883TIP3    H223593   5.161   3.553   3.817
 7884TIP3   OH223594   7.343   4.812   1.325
 7884TIP3    H123595   7.391   4.738   1.361
 7884TIP3    H223596   7.251   4.786   1.330
 7885TIP3   OH223597   5.552   3.852   2.314
 7885TIP3    H123598   5.528   3.764   2.343
 7885TIP3    H223599   5.585   3.896   2.393
 7886TIP3   OH223600   5.197   2.539   3.121
 7886TIP3    H123601   5.146   2.545   3.202
 7886TIP3    H223602   5.273   2.486   3.145
 7887TIP3   OH223603   4.924   6.859   2.276
 7887TIP3    H123604   4.992   6.925   2.289
 7887TIP3    H223605   4.972   6.782   2.244
 7888TIP3   OH223606   2.296   3.021   0.871
 7888TIP3    H123607   2.333   2.946   0.822
 7888TIP3    H223608   2.318   3.097   0.817
 7889TIP3   OH223609   0.970   6.171   4.207
 7889TIP3    H123610   0.951   6.222   4.286
 7889TIP3    H223611   1.027   6.100   4.237
 7890TIP3   OH223612   5.946   7.268   4.896
 7890TIP3    H123613   6.038   7.292   4.881
 7890TIP3    H223614   5.931   7.193   4.837
 7891TIP3   OH223615   4.611   5.086   3.508
 7891TIP3    H123616   4.568   5.031   3.442
 7891TIP3    H223617   4.666   5.025   3.557
 7892TIP3   OH223618   5.782   3.522   3.079
 7892TIP3    H123619   5.772   3.535   2.985
 7892TIP3    H223620   5.770   3.610   3.116
 7893TIP3   OH223621   4.548   4.696   3.924
 7893TIP3    H123622   4.590   4.611   3.932
 7893TIP3    H223623   4.477   4.693   3.989
 7894TIP3   OH223624   3.862   0.146   2.143
 7894TIP3    H123625   3.892   0.151   2.052
 7894TIP3    H223626   3.939   0.165   2.196
 7895TIP3   OH223627   6.980   0.798   2.343
 7895TIP3    H123628   7.046   0.836   2.285
 7895TIP3    H223629   6.924   0.746   2.285
 7896TIP3   OH223630   6.229   6.119   4.464
 7896TIP3    H123631   6.142   6.160   4.469
 7896TIP3    H223632   6.246   6.089   4.553
 7897TIP3   OH223633   5.186   1.510   0.361
 7897TIP3    H123634   5.136   1.431   0.340
 7897TIP3    H223635   5.150   1.541   0.444
 7898TIP3   OH223636   1.966   4.647   6.652
 7898TIP3    H123637   1.901   4.582   6.677
 7898TIP3    H223638   2.033   4.597   6.605
 7899TIP3   OH223639   7.987   2.405   2.415
 7899TIP3    H123640   7.927   2.449   2.475
 7899TIP3    H223641   8.058   2.373   2.470
 7900TIP3   OH223642   0.686   5.492   0.233
 7900TIP3    H123643   0.604   5.485   0.282
 7900TIP3    H223644   0.706   5.586   0.235
 7901TIP3   OH223645   1.406   5.697   4.497
 7901TIP3    H123646   1.310   5.691   4.496
 7901TIP3    H223647   1.430   5.684   4.589
 7902TIP3   OH223648   8.220   6.565   0.710
 7902TIP3    H123649   8.224   6.469   0.705
 7902TIP3    H223650   8.164   6.590   0.636
 7903TIP3   OH223651   1.758   1.903   4.651
 7903TIP3    H123652   1.798   1.819   4.628
 7903TIP3    H223653   1.827   1.967   4.636
 7904TIP3   OH223654   7.692   7.633   2.464
 7904TIP3    H123655   7.767   7.638   2.524
 7904TIP3    H223656   7.623   7.592   2.516
 7905TIP3   OH223657   2.122   3.187   6.353
 7905TIP3    H123658   2.115   3.093   6.372
 7905TIP3    H223659   2.193   3.217   6.409
 7906TIP3   OH223660   6.432   0.413   1.003
 7906TIP3    H123661   6.448   0.492   0.951
 7906TIP3    H223662   6.357   0.371   0.961
 7907TIP3   OH223663   5.427   1.419   1.490
 7907TIP3    H123664   5.437   1.332   1.452
 7907TIP3    H223665   5.493   1.473   1.446
 7908TIP3   OH223666   6.013   7.548   5.347
 7908TIP3    H123667   5.986   7.579   5.433
 7908TIP3    H223668   5.960   7.600   5.286
 7909TIP3   OH223669   1.835   1.354   5.522
 7909TIP3    H123670   1.838   1.448   5.536
 7909TIP3    H223671   1.741   1.333   5.522
 7910TIP3   OH223672   2.055   5.336   3.207
 7910TIP3    H123673   1.971   5.310   3.167
 7910TIP3    H223674   2.121   5.307   3.144
 7911TIP3   OH223675   2.145   1.385   4.546
 7911TIP3    H123676   2.206   1.318   4.577
 7911TIP3    H223677   2.187   1.468   4.566
 7912TIP3   OH223678   1.499   4.133   4.470
 7912TIP3    H123679   1.494   4.056   4.527
 7912TIP3    H223680   1.537   4.202   4.524
 7913TIP3   OH223681   3.467   1.138   1.454
 7913TIP3    H123682   3.501   1.227   1.456
 7913TIP3    H223683   3.388   1.141   1.510
 7914TIP3   OH223684   4.254   2.265   4.991
 7914TIP3    H123685   4.295   2.250   4.906
 7914TIP3    H223686   4.327   2.279   5.051
 7915TIP3   OH223687   6.686   5.692   5.604
 7915TIP3    H123688   6.716   5.606   5.574
 7915TIP3    H223689   6.637   5.674   5.684
 7916TIP3   OH223690   1.408   5.692   4.843
 7916TIP3    H123691   1.385   5.724   4.930
 7916TIP3    H223692   1.447   5.767   4.799
 7917TIP3   OH223693   7.795   2.462   3.672
 7917TIP3    H123694   7.836   2.377   3.659
 7917TIP3    H223695   7.715   2.443   3.721
 7918TIP3   OH223696   7.341   6.016   2.884
 7918TIP3    H123697   7.288   5.936   2.887
 7918TIP3    H223698   7.408   6.003   2.951
 7919TIP3   OH223699   3.533   6.883   1.206
 7919TIP3    H123700   3.586   6.812   1.168
 7919TIP3    H223701   3.476   6.910   1.134
 7920TIP3   OH223702   2.327   2.927   0.180
 7920TIP3    H123703   2.238   2.922   0.213
 7920TIP3    H223704   2.379   2.955   0.255
 7921TIP3   OH223705   1.173   6.533   2.933
 7921TIP3    H123706   1.119   6.605   2.900
 7921TIP3    H223707   1.232   6.573   2.996
 7922TIP3   OH223708   1.732   1.184   4.633
 7922TIP3    H123709   1.774   1.138   4.706
 7922TIP3    H223710   1.787   1.261   4.619
 7923TIP3   OH223711   0.702   4.161   2.117
 7923TIP3    H123712   0.796   4.150   2.105
 7923TIP3    H223713   0.669   4.072   2.132
 7924TIP3   OH223714   5.710   0.084   4.208
 7924TIP3    H123715   5.691   0.165   4.160
 7924TIP3    H223716   5.748   0.113   4.291
 7925TIP3   OH223717   5.366   0.975   1.504
 7925TIP3    H123718   5.288   0.925   1.528
 7925TIP3    H223719   5.396   0.933   1.423
 7926TIP3   OH223720   7.660   2.350   4.992
 7926TIP3    H123721   7.693   2.434   4.961
 7926TIP3    H223722   7.615   2.312   4.916
 7927TIP3   OH223723   3.956   6.680   4.178
 7927TIP3    H123724   4.026   6.739   4.149
 7927TIP3    H223725   3.913   6.652   4.097
 7928TIP3   OH223726   7.179   4.679   2.422
 7928TIP3    H123727   7.168   4.736   2.498
 7928TIP3    H223728   7.108   4.616   2.429
 7929TIP3   OH223729   3.574   3.038   4.934
 7929TIP3    H123730   3.624   3.043   5.015
 7929TIP3    H223731   3.524   3.120   4.930
 7930TIP3   OH223732   5.643   5.901   2.993
 7930TIP3    H123733   5.566   5.931   3.041
 7930TIP3    H223734   5.634   5.805   2.991
 7931TIP3   OH223735   1.257   4.459   3.606
 7931TIP3    H123736   1.301   4.388   3.653
 7931TIP3    H223737   1.176   4.420   3.573
 7932TIP3   OH223738   6.808   1.397   1.942
 7932TIP3    H123739   6.830   1.484   1.974
 7932TIP3    H223740   6.730   1.411   1.888
 7933TIP3   OH223741   2.276   5.762   0.627
 7933TIP3    H123742   2.293   5.749   0.720
 7933TIP3    H223743   2.252   5.675   0.595
 7934TIP3   OH223744   1.831   1.748   5.067
 7934TIP3    H123745   1.802   1.704   4.987
 7934TIP3    H223746   1.904   1.803   5.038
 7935TIP3   OH223747   4.047   1.028   2.034
 7935TIP3    H123748   3.982   1.096   2.015
 7935TIP3    H223749   4.125   1.056   1.987
 7936TIP3   OH223750   7.703   1.030   0.460
 7936TIP3    H123751   7.612   1.034   0.432
 7936TIP3    H223752   7.752   1.074   0.391
 7937TIP3   OH223753   8.019   6.201   6.043
 7937TIP3    H123754   8.061   6.120   6.070
 7937TIP3    H223755   7.979   6.181   5.958
 7938TIP3   OH223756   3.068   4.330   1.509
 7938TIP3    H123757   3.094   4.314   1.418
 7938TIP3    H223758   3.056   4.243   1.546
 7939TIP3   OH223759   2.833   4.547   6.630
 7939TIP3    H123760   2.776   4.525   6.556
 7939TIP3    H223761   2.780   4.606   6.684
 7940TIP3   OH223762   8.146   6.644   0.119
 7940TIP3    H123763   8.188   6.578   0.064
 7940TIP3    H223764   8.082   6.595   0.171
 7941TIP3   OH223765   5.148   4.942   5.725
 7941TIP3    H123766   5.223   4.884   5.740
 7941TIP3    H223767   5.076   4.882   5.704
 7942TIP3   OH223768   6.197   6.241   2.079
 7942TIP3    H123769   6.172   6.330   2.104
 7942TIP3    H223770   6.115   6.196   2.064
 7943TIP3   OH223771   8.145   6.498   5.801
 7943TIP3    H123772   8.174   6.475   5.889
 7943TIP3    H223773   8.108   6.417   5.766
 7944TIP3   OH223774   5.887   1.970   2.104
 7944TIP3    H123775   5.913   1.883   2.076
 7944TIP3    H223776   5.952   2.028   2.064
 7945TIP3   OH223777   3.750   1.559   1.432
 7945TIP3    H123778   3.792   1.569   1.347
 7945TIP3    H223779   3.743   1.648   1.466
 7946TIP3   OH223780   5.695   4.230   3.641
 7946TIP3    H123781   5.788   4.233   3.618
 7946TIP3    H223782   5.653   4.193   3.563
 7947TIP3   OH223783   3.999   1.469   5.269
 7947TIP3    H123784   4.027   1.410   5.339
 7947TIP3    H223785   3.905   1.452   5.260
 7948TIP3   OH223786   7.963   0.939   3.824
 7948TIP3    H123787   8.006   0.989   3.893
 7948TIP3    H223788   8.004   0.853   3.827
 7949TIP3   OH223789   6.064   1.886   5.567
 7949TIP3    H123790   6.064   1.890   5.472
 7949TIP3    H223791   5.979   1.849   5.590
 7950TIP3   OH223792   4.437   2.413   5.876
 7950TIP3    H123793   4.415   2.446   5.789
 7950TIP3    H223794   4.501   2.475   5.910
 7951TIP3   OH223795   1.109   3.716   2.887
 7951TIP3    H123796   1.177   3.650   2.872
 7951TIP3    H223797   1.105   3.726   2.982
 7952TIP3   OH223798   2.406   0.319   3.359
 7952TIP3    H123799   2.496   0.350   3.346
 7952TIP3    H223800   2.366   0.382   3.418
 7953TIP3   OH223801   1.417   2.672   2.583
 7953TIP3    H123802   1.424   2.604   2.516
 7953TIP3    H223803   1.391   2.626   2.662
 7954TIP3   OH223804   1.661   6.225   2.782
 7954TIP3    H123805   1.635   6.259   2.696
 7954TIP3    H223806   1.715   6.295   2.819
 7955TIP3   OH223807   0.051   4.049   6.633
 7955TIP3    H123808   0.031   3.964   6.596
 7955TIP3    H223809   0.029   4.040   6.726
 7956TIP3   OH223810   1.151   0.560   3.483
 7956TIP3    H123811   1.216   0.539   3.550
 7956TIP3    H223812   1.174   0.503   3.409
 7957TIP3   OH223813   3.975   3.315   3.056
 7957TIP3    H123814   3.881   3.333   3.056
 7957TIP3    H223815   4.015   3.398   3.028
 7958TIP3   OH223816   1.019   0.293   4.313
 7958TIP3    H123817   0.945   0.260   4.262
 7958TIP3    H223818   1.086   0.313   4.247
 7959TIP3   OH223819   4.163   5.201   5.540
 7959TIP3    H123820   4.246   5.164   5.510
 7959TIP3    H223821   4.098   5.134   5.519
 7960TIP3   OH223822   2.612   5.044   1.070
 7960TIP3    H123823   2.576   5.053   1.158
 7960TIP3    H223824   2.568   5.112   1.018
 7961TIP3   OH223825   7.958   2.515   6.547
 7961TIP3    H123826   7.988   2.485   6.461
 7961TIP3    H223827   7.899   2.447   6.577
 7962TIP3   OH223828   1.646   5.516   3.329
 7962TIP3    H123829   1.634   5.441   3.271
 7962TIP3    H223830   1.581   5.580   3.299
 7963TIP3   OH223831   1.053   2.762   6.199
 7963TIP3    H123832   0.983   2.827   6.205
 7963TIP3    H223833   1.070   2.737   6.290
 7964TIP3   OH223834   1.107   3.194   1.448
 7964TIP3    H123835   1.097   3.160   1.536
 7964TIP3    H223836   1.143   3.283   1.460
 7965TIP3   OH223837   3.413   2.891   5.764
 7965TIP3    H123838   3.335   2.893   5.819
 7965TIP3    H223839   3.472   2.957   5.803
 7966TIP3   OH223840   5.012   7.025   3.357
 7966TIP3    H123841   5.047   7.053   3.442
 7966TIP3    H223842   4.934   7.079   3.345
 7967TIP3   OH223843   2.762   1.012   2.521
 7967TIP3    H123844   2.756   0.968   2.436
 7967TIP3    H223845   2.693   1.079   2.518
 7968TIP3   OH223846   2.067   1.051   0.178
 7968TIP3    H123847   1.992   1.104   0.203
 7968TIP3    H223848   2.047   1.020   0.090
 7969TIP3   OH223849   4.110   1.029   0.277
 7969TIP3    H123850   4.190   1.015   0.227
 7969TIP3    H223851   4.053   0.955   0.254
 7970TIP3   OH223852   7.895   5.191   3.205
 7970TIP3    H123853   7.802   5.212   3.197
 7970TIP3    H223854   7.940   5.274   3.193
 7971TIP3   OH223855   5.333   4.516   2.040
 7971TIP3    H123856   5.370   4.501   2.127
 7971TIP3    H223857   5.398   4.481   1.979
 7972TIP3   OH223858   0.468   4.645   4.246
 7972TIP3    H123859   0.384   4.664   4.288
 7972TIP3    H223860   0.534   4.674   4.310
 7973TIP3   OH223861   4.204   4.193   3.134
 7973TIP3    H123862   4.230   4.186   3.226
 7973TIP3    H223863   4.188   4.103   3.107
 7974TIP3   OH223864   3.187   4.505   1.168
 7974TIP3    H123865   3.195   4.587   1.217
 7974TIP3    H223866   3.272   4.463   1.177
 7975TIP3   OH223867   1.925   7.136   4.523
 7975TIP3    H123868   2.010   7.121   4.480
 7975TIP3    H223869   1.947   7.142   4.616
 7976TIP3   OH223870   1.493   5.338   3.107
 7976TIP3    H123871   1.426   5.381   3.054
 7976TIP3    H223872   1.453   5.329   3.194
 7977TIP3   OH223873   4.569   3.649   5.995
 7977TIP3    H123874   4.597   3.564   5.961
 7977TIP3    H223875   4.475   3.640   6.008
 7978TIP3   OH223876   0.162   5.131   4.673
 7978TIP3    H123877   0.105   5.144   4.748
 7978TIP3    H223878   0.225   5.203   4.677
 7979TIP3   OH223879   3.431   7.494   5.324
 7979TIP3    H123880   3.443   7.484   5.230
 7979TIP3    H223881   3.380   7.417   5.350
 7980TIP3   OH223882   2.704   2.359   0.530
 7980TIP3    H123883   2.723   2.451   0.510
 7980TIP3    H223884   2.637   2.364   0.599
 7981TIP3   OH223885   6.296   6.883   0.223
 7981TIP3    H123886   6.257   6.848   0.304
 7981TIP3    H223887   6.320   6.973   0.244
 7982TIP3   OH223888   6.639   4.904   0.608
 7982TIP3    H123889   6.603   4.819   0.582
 7982TIP3    H223890   6.733   4.890   0.612
 7983TIP3   OH223891   0.280   3.218   5.003
 7983TIP3    H123892   0.198   3.208   4.956
 7983TIP3    H223893   0.326   3.288   4.958
 7984TIP3   OH223894   6.648   1.368   0.632
 7984TIP3    H123895   6.742   1.382   0.639
 7984TIP3    H223896   6.614   1.450   0.595
 7985TIP3   OH223897   0.648   4.871   3.147
 7985TIP3    H123898   0.622   4.963   3.151
 7985TIP3    H223899   0.632   4.846   3.056
 7986TIP3   OH223900   7.313   7.300   3.744
 7986TIP3    H123901   7.385   7.248   3.780
 7986TIP3    H223902   7.343   7.325   3.657
 7987TIP3   OH223903   2.153   5.448   4.616
 7987TIP3    H123904   2.159   5.361   4.575
 7987TIP3    H223905   2.059   5.465   4.621
 7988TIP3   OH223906   1.186   3.908   1.113
 7988TIP3    H123907   1.274   3.888   1.082
 7988TIP3    H223908   1.151   3.968   1.047
 7989TIP3   OH223909   0.941   7.668   3.459
 7989TIP3    H123910   0.921   7.587   3.506
 7989TIP3    H223911   0.980   7.725   3.526
 7990TIP3   OH223912   5.301   2.151   3.281
 7990TIP3    H123913   5.249   2.100   3.220
 7990TIP3    H223914   5.293   2.105   3.364
 7991TIP3   OH223915   0.983   3.104   3.023
 7991TIP3    H123916   1.025   3.125   2.939
 7991TIP3    H223917   1.037   3.148   3.088
 7992TIP3   OH223918   1.051   3.487   3.518
 7992TIP3    H123919   1.013   3.481   3.606
 7992TIP3    H223920   1.062   3.396   3.491
 7993TIP3   OH223921   5.284   0.723   0.180
 7993TIP3    H123922   5.266   0.691   0.092
 7993TIP3    H223923   5.296   0.644   0.233
 7994TIP3   OH223924   1.366   3.538   3.798
 7994TIP3    H123925   1.364   3.535   3.702
 7994TIP3    H223926   1.320   3.459   3.826
 7995TIP3   OH223927   1.334   3.514   1.740
 7995TIP3    H123928   1.248   3.539   1.707
 7995TIP3    H223929   1.390   3.512   1.663
 7996TIP3   OH223930   7.570   3.050   0.952
 7996TIP3    H123931   7.644   3.003   0.988
 7996TIP3    H223932   7.522   2.985   0.900
 7997TIP3   OH223933   0.663   2.568   5.860
 7997TIP3    H123934   0.599   2.623   5.905
 7997TIP3    H223935   0.741   2.622   5.852
 7998TIP3   OH223936   7.135   1.542   1.124
 7998TIP3    H123937   7.109   1.597   1.198
 7998TIP3    H223938   7.191   1.475   1.163
 7999TIP3   OH223939   0.437   2.996   4.136
 7999TIP3    H123940   0.348   3.023   4.158
 7999TIP3    H223941   0.431   2.901   4.124
 8000TIP3   OH223942   2.807   2.669   4.839
 8000TIP3    H123943   2.795   2.575   4.828
 8000TIP3    H223944   2.897   2.685   4.813
 8001TIP3   OH223945   6.554   6.852   3.708
 8001TIP3    H123946   6.469   6.864   3.666
 8001TIP3    H223947   6.548   6.768   3.752
 8002TIP3   OH223948   6.415   3.923   5.163
 8002TIP3    H123949   6.508   3.904   5.173
 8002TIP3    H223950   6.411   3.991   5.095
 8003TIP3   OH223951   1.280   1.970   1.537
 8003TIP3    H123952   1.190   1.963   1.569
 8003TIP3    H223953   1.331   1.918   1.598
 8004TIP3   OH223954   5.038   6.201   0.307
 8004TIP3    H123955   4.966   6.170   0.361
 8004TIP3    H223956   5.108   6.220   0.369
 8005TIP3   OH223957   2.683   5.795   5.304
 8005TIP3    H123958   2.742   5.870   5.298
 8005TIP3    H223959   2.712   5.735   5.235
 8006TIP3   OH223960   2.688   7.310   6.207
 8006TIP3    H123961   2.720   7.291   6.119
 8006TIP3    H223962   2.604   7.266   6.213
 8007TIP3   OH223963   1.471   4.675   0.445
 8007TIP3    H123964   1.547   4.658   0.502
 8007TIP3    H223965   1.396   4.672   0.504
 8008TIP3   OH223966   1.916   4.346   3.229
 8008TIP3    H123967   1.968   4.421   3.256
 8008TIP3    H223968   1.961   4.311   3.152
 8009TIP3   OH223969   1.269   5.241   0.303
 8009TIP3    H123970   1.361   5.216   0.303
 8009TIP3    H223971   1.262   5.308   0.371
 8010TIP3   OH223972   0.007   4.233   3.566
 8010TIP3    H123973  -0.084   4.262   3.571
 8010TIP3    H223974   0.020   4.209   3.475
 8011TIP3   OH223975   3.170   2.565   5.275
 8011TIP3    H123976   3.234   2.592   5.342
 8011TIP3    H223977   3.114   2.642   5.264
 8012TIP3   OH223978   5.344   2.288   6.316
 8012TIP3    H123979   5.421   2.265   6.264
 8012TIP3    H223980   5.304   2.204   6.337
 8013TIP3   OH223981   3.876   5.478   6.509
 8013TIP3    H123982   3.937   5.414   6.545
 8013TIP3    H223983   3.926   5.522   6.440
 8014TIP3   OH223984   3.308   3.685   1.443
 8014TIP3    H123985   3.335   3.606   1.489
 8014TIP3    H223986   3.232   3.658   1.392
 8015TIP3   OH223987   2.327   3.482   3.977
 8015TIP3    H123988   2.260   3.423   4.009
 8015TIP3    H223989   2.406   3.428   3.971
 8016TIP3   OH223990   4.960   4.966   1.540
 8016TIP3    H123991   5.031   5.029   1.531
 8016TIP3    H223992   5.002   4.885   1.570
 8017TIP3   OH223993   2.944   1.210   2.011
 8017TIP3    H123994   2.975   1.280   1.954
 8017TIP3    H223995   2.930   1.135   1.954
 8018TIP3   OH223996   6.274   7.581   5.350
 8018TIP3    H123997   6.319   7.601   5.432
 8018TIP3    H223998   6.181   7.580   5.373
 8019TIP3   OH223999   7.509   2.227   5.566
 8019TIP3    H124000   7.419   2.214   5.535
 8019TIP3    H224001   7.535   2.312   5.530
 8020TIP3   OH224002   0.982   3.936   5.475
 8020TIP3    H124003   0.939   4.019   5.497
 8020TIP3    H224004   0.995   3.941   5.380
 8021TIP3   OH224005   5.151   2.189   4.378
 8021TIP3    H124006   5.235   2.145   4.395
 8021TIP3    H224007   5.168   2.281   4.395
 8022TIP3   OH224008   7.203   5.000   5.156
 8022TIP3    H124009   7.178   4.914   5.190
 8022TIP3    H224010   7.276   5.027   5.211
 8023TIP3   OH224011   3.022   7.088   5.446
 8023TIP3    H124012   3.063   7.055   5.527
 8023TIP3    H224013   2.963   7.157   5.476
 8024TIP3   OH224014   4.578   2.167   0.462
 8024TIP3    H124015   4.643   2.221   0.417
 8024TIP3    H224016   4.589   2.190   0.555
 8025TIP3   OH224017   6.667   5.309   1.214
 8025TIP3    H124018   6.747   5.361   1.200
 8025TIP3    H224019   6.600   5.375   1.236
 8026TIP3   OH224020   1.411   2.434   3.208
 8026TIP3    H124021   1.369   2.435   3.294
 8026TIP3    H224022   1.343   2.464   3.148
 8027TIP3   OH224023   7.785   3.713   0.546
 8027TIP3    H124024   7.809   3.740   0.457
 8027TIP3    H224025   7.848   3.645   0.568
 8028TIP3   OH224026   3.378   3.471   5.309
 8028TIP3    H124027   3.292   3.507   5.331
 8028TIP3    H224028   3.425   3.467   5.392
 8029TIP3   OH224029   6.191   2.709   3.597
 8029TIP3    H124030   6.257   2.710   3.528
 8029TIP3    H224031   6.201   2.793   3.641
 8030TIP3   OH224032   1.190   6.666   0.288
 8030TIP3    H124033   1.230   6.589   0.247
 8030TIP3    H224034   1.153   6.632   0.370
 8031TIP3   OH224035   6.315   5.386   1.525
 8031TIP3    H124036   6.373   5.411   1.453
 8031TIP3    H224037   6.305   5.291   1.516
 8032TIP3   OH224038   7.749   7.473   4.738
 8032TIP3    H124039   7.760   7.414   4.664
 8032TIP3    H224040   7.675   7.437   4.787
 8033TIP3   OH224041   6.509   6.504   2.791
 8033TIP3    H124042   6.601   6.484   2.776
 8033TIP3    H224043   6.509   6.561   2.868
 8034TIP3   OH224044   4.615   4.438   6.655
 8034TIP3    H124045   4.625   4.412   6.563
 8034TIP3    H224046   4.698   4.415   6.696
 8035TIP3   OH224047   7.578   2.251   4.757
 8035TIP3    H124048   7.532   2.260   4.674
 8035TIP3    H224049   7.585   2.157   4.771
 8036TIP3   OH224050   5.807   5.252   3.650
 8036TIP3    H124051   5.780   5.181   3.592
 8036TIP3    H224052   5.753   5.242   3.728
 8037TIP3   OH224053   2.952   6.926   2.345
 8037TIP3    H124054   2.872   6.889   2.307
 8037TIP3    H224055   2.923   7.006   2.388
 8038TIP3   OH224056   4.851   1.874   1.064
 8038TIP3    H124057   4.922   1.901   1.121
 8038TIP3    H224058   4.830   1.785   1.092
 8039TIP3   OH224059   6.052   0.466   5.369
 8039TIP3    H124060   6.080   0.547   5.326
 8039TIP3    H224061   6.133   0.416   5.381
 8040TIP3   OH224062   0.661   2.306   4.332
 8040TIP3    H124063   0.682   2.296   4.425
 8040TIP3    H224064   0.571   2.273   4.324
 8041TIP3   OH224065   0.673   1.408   3.122
 8041TIP3    H124066   0.749   1.375   3.170
 8041TIP3    H224067   0.707   1.429   3.035
 8042TIP3   OH224068   0.972   1.123   1.508
 8042TIP3    H124069   1.022   1.173   1.443
 8042TIP3    H224070   0.941   1.046   1.459
 8043TIP3   OH224071   1.815   5.459   2.297
 8043TIP3    H124072   1.753   5.386   2.288
 8043TIP3    H224073   1.848   5.451   2.387
 8044TIP3   OH224074   0.528   2.074   6.737
 8044TIP3    H124075   0.450   2.119   6.703
 8044TIP3    H224076   0.576   2.141   6.785
 8045TIP3   OH224077   0.899   0.521   0.001
 8045TIP3    H124078   0.849   0.461   0.057
 8045TIP3    H224079   0.890   0.606   0.043
 8046TIP3   OH224080   0.085   5.600   6.472
 8046TIP3    H124081   0.004   5.549   6.463
 8046TIP3    H224082   0.154   5.535   6.473
 8047TIP3   OH224083   6.841   7.422   5.155
 8047TIP3    H124084   6.800   7.389   5.075
 8047TIP3    H224085   6.933   7.434   5.131
 8048TIP3   OH224086   0.901   4.845   5.332
 8048TIP3    H124087   0.968   4.786   5.368
 8048TIP3    H224088   0.848   4.790   5.276
 8049TIP3   OH224089   5.050   5.077   6.322
 8049TIP3    H124090   5.069   5.006   6.261
 8049TIP3    H224091   5.092   5.049   6.404
 8050TIP3   OH224092   1.827   1.070   0.354
 8050TIP3    H124093   1.802   1.024   0.434
 8050TIP3    H224094   1.849   1.158   0.383
 8051TIP3   OH224095   6.100   0.761   6.696
 8051TIP3    H124096   6.074   0.823   6.765
 8051TIP3    H224097   6.047   0.683   6.713
 8052TIP3   OH224098   6.778   6.722   3.972
 8052TIP3    H124099   6.807   6.784   3.904
 8052TIP3    H224100   6.853   6.665   3.987
 8053TIP3   OH224101   2.864   2.270   2.101
 8053TIP3    H124102   2.780   2.309   2.078
 8053TIP3    H224103   2.927   2.340   2.089
 8054TIP3   OH224104   7.977   2.768   1.366
 8054TIP3    H124105   7.977   2.676   1.342
 8054TIP3    H224106   8.029   2.810   1.297
 8055TIP3   OH224107   3.297   1.482   5.445
 8055TIP3    H124108   3.340   1.524   5.519
 8055TIP3    H224109   3.208   1.465   5.475
 8056TIP3   OH224110   7.773   4.338   3.504
 8056TIP3    H124111   7.787   4.330   3.598
 8056TIP3    H224112   7.699   4.279   3.486
 8057TIP3   OH224113   4.138   3.544   3.601
 8057TIP3    H124114   4.115   3.603   3.673
 8057TIP3    H224115   4.230   3.564   3.582
 8058TIP3   OH224116   7.687   4.511   3.299
 8058TIP3    H124117   7.776   4.539   3.278
 8058TIP3    H224118   7.697   4.452   3.373
 8059TIP3   OH224119   1.189   7.689   2.730
 8059TIP3    H124120   1.115   7.723   2.782
 8059TIP3    H224121   1.150   7.665   2.646
 8060TIP3   OH224122   6.752   3.533   6.619
 8060TIP3    H124123   6.844   3.511   6.629
 8060TIP3    H224124   6.752   3.624   6.589
 8061TIP3   OH224125   1.865   7.806   2.192
 8061TIP3    H124126   1.813   7.727   2.203
 8061TIP3    H224127   1.850   7.856   2.272
 8062TIP3   OH224128   5.048   5.263   1.722
 8062TIP3    H124129   5.140   5.273   1.748
 8062TIP3    H224130   5.025   5.174   1.749
 8063TIP3   OH224131   3.306   1.235   3.721
 8063TIP3    H124132   3.340   1.325   3.728
 8063TIP3    H224133   3.268   1.216   3.806
 8064TIP3   OH224134   2.789   7.272   2.499
 8064TIP3    H124135   2.855   7.318   2.448
 8064TIP3    H224136   2.771   7.330   2.573
 8065TIP3   OH224137   6.311   4.344   2.735
 8065TIP3    H124138   6.288   4.345   2.827
 8065TIP3    H224139   6.256   4.276   2.696
 8066TIP3   OH224140   3.396   5.525   4.352
 8066TIP3    H124141   3.455   5.450   4.346
 8066TIP3    H224142   3.453   5.597   4.379
 8067TIP3   OH224143   2.554   6.410   1.560
 8067TIP3    H124144   2.487   6.351   1.524
 8067TIP3    H224145   2.573   6.375   1.647
 8068TIP3   OH224146   6.258   7.216   3.030
 8068TIP3    H124147   6.279   7.158   2.957
 8068TIP3    H224148   6.165   7.201   3.046
 8069TIP3   OH224149   5.962   1.259   3.385
 8069TIP3    H124150   6.005   1.234   3.303
 8069TIP3    H224151   5.900   1.188   3.402
 8070TIP3   OH224152   0.203   4.588   3.613
 8070TIP3    H124153   0.262   4.528   3.569
 8070TIP3    H224154   0.239   4.675   3.595
 8071TIP3   OH224155   7.936   3.454   6.425
 8071TIP3    H124156   7.949   3.478   6.517
 8071TIP3    H224157   8.009   3.396   6.405
 8072TIP3   OH224158   8.156   3.360   4.520
 8072TIP3    H124159   8.152   3.439   4.466
 8072TIP3    H224160   8.249   3.348   4.538
 8073TIP3   OH224161   0.653   2.547   1.875
 8073TIP3    H124162   0.713   2.474   1.864
 8073TIP3    H224163   0.668   2.602   1.798
 8074TIP3   OH224164   6.505   5.799   6.398
 8074TIP3    H124165   6.472   5.822   6.484
 8074TIP3    H224166   6.549   5.715   6.411
 8075TIP3   OH224167   5.859   6.658   1.738
 8075TIP3    H124168   5.889   6.729   1.681
 8075TIP3    H224169   5.804   6.701   1.803
 8076TIP3   OH224170   0.508   0.417   5.271
 8076TIP3    H124171   0.581   0.441   5.328
 8076TIP3    H224172   0.449   0.367   5.328
 8077TIP3   OH224173   7.767   7.653   5.513
 8077TIP3    H124174   7.731   7.709   5.581
 8077TIP3    H224175   7.824   7.592   5.560
 8078TIP3   OH224176   2.357   3.107   2.798
 8078TIP3    H124177   2.370   3.031   2.854
 8078TIP3    H224178   2.268   3.136   2.817
 8079TIP3   OH224179   7.288   3.769   0.799
 8079TIP3    H124180   7.273   3.823   0.876
 8079TIP3    H224181   7.215   3.708   0.797
 8080TIP3   OH224182   4.225   4.028   0.469
 8080TIP3    H124183   4.198   4.091   0.403
 8080TIP3    H224184   4.312   4.056   0.495
 8081TIP3   OH224185   6.227   2.620   1.629
 8081TIP3    H124186   6.224   2.618   1.533
 8081TIP3    H224187   6.320   2.628   1.650
 8082TIP3   OH224188   4.602   7.311   0.599
 8082TIP3    H124189   4.562   7.357   0.673
 8082TIP3    H224190   4.696   7.314   0.616
 8083TIP3   OH224191   4.137   6.081   5.976
 8083TIP3    H124192   4.081   6.004   5.973
 8083TIP3    H224193   4.088   6.149   5.930
 8084TIP3   OH224194   0.219   1.078   2.381
 8084TIP3    H124195   0.238   0.986   2.363
 8084TIP3    H224196   0.133   1.093   2.342
 8085TIP3   OH224197   5.807   5.331   0.756
 8085TIP3    H124198   5.876   5.292   0.703
 8085TIP3    H224199   5.742   5.261   0.765
 8086TIP3   OH224200   5.686   4.121   4.073
 8086TIP3    H124201   5.677   4.210   4.038
 8086TIP3    H224202   5.596   4.091   4.085
 8087TIP3   OH224203   7.272   5.224   4.430
 8087TIP3    H124204   7.261   5.306   4.382
 8087TIP3    H224205   7.345   5.241   4.490
 8088TIP3   OH224206   0.403   6.295   6.418
 8088TIP3    H124207   0.410   6.344   6.336
 8088TIP3    H224208   0.331   6.336   6.465
 8089TIP3   OH224209   4.229   3.742   0.736
 8089TIP3    H124210   4.186   3.730   0.652
 8089TIP3    H224211   4.238   3.837   0.746
 8090TIP3   OH224212   2.905   4.517   5.410
 8090TIP3    H124213   2.876   4.580   5.476
 8090TIP3    H224214   2.970   4.565   5.359
 8091TIP3   OH224215   0.001   5.907   2.015
 8091TIP3    H124216   0.084   5.865   1.991
 8091TIP3    H224217   0.014   5.999   1.992
 8092TIP3   OH224218   7.246   2.317   6.733
 8092TIP3    H124219   7.237   2.324   6.828
 8092TIP3    H224220   7.199   2.238   6.709
 8093TIP3   OH224221   0.306   4.065   4.390
 8093TIP3    H124222   0.294   4.099   4.302
 8093TIP3    H224223   0.265   3.979   4.389
 8094TIP3   OH224224   6.326   2.323   0.325
 8094TIP3    H124225   6.285   2.380   0.389
 8094TIP3    H224226   6.281   2.342   0.243
 8095TIP3   OH224227   3.920   6.995   2.934
 8095TIP3    H124228   3.962   6.980   2.849
 8095TIP3    H224229   3.835   6.951   2.927
 8096TIP3   OH224230   7.179   0.752   3.213
 8096TIP3    H124231   7.163   0.845   3.229
 8096TIP3    H224232   7.102   0.708   3.249
 8097TIP3   OH224233   3.854   7.468   0.120
 8097TIP3    H124234   3.838   7.403   0.052
 8097TIP3    H224235   3.924   7.523   0.085
 8098TIP3   OH224236   1.491   1.786   0.705
 8098TIP3    H124237   1.545   1.727   0.759
 8098TIP3    H224238   1.426   1.820   0.766
 8099TIP3   OH224239   2.034   3.659   0.986
 8099TIP3    H124240   1.995   3.611   1.060
 8099TIP3    H224241   2.075   3.736   1.027
 8100TIP3   OH224242   4.146   1.399   1.936
 8100TIP3    H124243   4.238   1.379   1.950
 8100TIP3    H224244   4.121   1.344   1.862
 8101TIP3   OH224245   8.203   3.483   1.552
 8101TIP3    H124246   8.183   3.455   1.462
 8101TIP3    H224247   8.262   3.558   1.541
 8102TIP3   OH224248   1.929   4.060   3.970
 8102TIP3    H124249   1.936   3.989   4.033
 8102TIP3    H224250   1.974   4.133   4.011
 8103TIP3   OH224251   7.970   4.461   5.159
 8103TIP3    H124252   7.924   4.384   5.193
 8103TIP3    H224253   8.055   4.427   5.131
 8104TIP3   OH224254   6.903   5.728   4.968
 8104TIP3    H124255   6.977   5.721   4.908
 8104TIP3    H224256   6.942   5.714   5.055
 8105TIP3   OH224257   2.283   6.444   4.871
 8105TIP3    H124258   2.268   6.355   4.903
 8105TIP3    H224259   2.213   6.495   4.911
 8106TIP3   OH224260   2.111   6.258   6.470
 8106TIP3    H124261   2.143   6.170   6.492
 8106TIP3    H224262   2.141   6.313   6.542
 8107TIP3   OH224263   6.745   3.562   3.551
 8107TIP3    H124264   6.742   3.566   3.455
 8107TIP3    H224265   6.701   3.643   3.579
 8108TIP3   OH224266   3.041   7.480   1.321
 8108TIP3    H124267   3.083   7.536   1.256
 8108TIP3    H224268   2.947   7.488   1.302
 8109TIP3   OH224269   6.502   0.830   5.431
 8109TIP3    H124270   6.556   0.772   5.485
 8109TIP3    H224271   6.413   0.801   5.446
 8110TIP3   OH224272   4.254   4.284   3.791
 8110TIP3    H124273   4.286   4.221   3.727
 8110TIP3    H224274   4.179   4.241   3.833
 8111TIP3   OH224275   5.158   4.815   2.512
 8111TIP3    H124276   5.245   4.838   2.544
 8111TIP3    H224277   5.160   4.720   2.502
 8112TIP3   OH224278   7.076   3.523   4.315
 8112TIP3    H124279   7.146   3.587   4.328
 8112TIP3    H224280   6.995   3.575   4.316
 8113TIP3   OH224281   5.188   0.866   6.009
 8113TIP3    H124282   5.094   0.857   6.026
 8113TIP3    H224283   5.229   0.799   6.064
 8114TIP3   OH224284   5.306   0.786   2.322
 8114TIP3    H124285   5.262   0.872   2.322
 8114TIP3    H224286   5.284   0.748   2.238
 8115TIP3   OH224287   0.637   4.499   4.099
 8115TIP3    H124288   0.585   4.560   4.153
 8115TIP3    H224289   0.573   4.457   4.042
 8116TIP3   OH224290   2.094   0.254   2.884
 8116TIP3    H124291   2.043   0.331   2.859
 8116TIP3    H224292   2.175   0.262   2.833
 8117TIP3   OH224293   7.904   7.725   1.148
 8117TIP3    H124294   7.899   7.718   1.053
 8117TIP3    H224295   7.965   7.655   1.173
 8118TIP3   OH224296   1.588   2.719   1.588
 8118TIP3    H124297   1.622   2.630   1.579
 8118TIP3    H224298   1.497   2.707   1.614
 8119TIP3   OH224299   6.533   1.459   1.238
 8119TIP3    H124300   6.624   1.480   1.258
 8119TIP3    H224301   6.522   1.481   1.146
 8120TIP3   OH224302   3.003   1.765   4.779
 8120TIP3    H124303   3.015   1.798   4.867
 8120TIP3    H224304   3.058   1.686   4.775
 8121TIP3   OH224305   3.324   2.350   5.085
 8121TIP3    H124306   3.230   2.358   5.100
 8121TIP3    H224307   3.332   2.287   5.014
 8122TIP3   OH224308   5.557   1.793   5.589
 8122TIP3    H124309   5.543   1.751   5.505
 8122TIP3    H224310   5.476   1.778   5.638
 8123TIP3   OH224311   5.602   5.978   2.614
 8123TIP3    H124312   5.585   6.013   2.701
 8123TIP3    H224313   5.516   5.970   2.574
 8124TIP3   OH224314   2.771   5.960   6.710
 8124TIP3    H124315   2.789   5.893   6.644
 8124TIP3    H224316   2.825   6.034   6.684
 8125TIP3   OH224317   0.167   0.283   0.825
 8125TIP3    H124318   0.088   0.332   0.799
 8125TIP3    H224319   0.203   0.333   0.898
 8126TIP3   OH224320   4.929   0.750   1.936
 8126TIP3    H124321   4.916   0.688   2.008
 8126TIP3    H224322   4.862   0.817   1.951
 8127TIP3   OH224323   1.855   5.386   0.232
 8127TIP3    H124324   1.799   5.316   0.200
 8127TIP3    H224325   1.844   5.457   0.170
 8128TIP3   OH224326   0.139   1.810   2.587
 8128TIP3    H124327   0.202   1.786   2.519
 8128TIP3    H224328   0.116   1.901   2.567
 8129TIP3   OH224329   7.077   4.297   5.484
 8129TIP3    H124330   7.113   4.281   5.571
 8129TIP3    H224331   7.091   4.215   5.437
 8130TIP3   OH224332   2.630   6.679   2.850
 8130TIP3    H124333   2.544   6.696   2.889
 8130TIP3    H224334   2.612   6.623   2.775
 8131TIP3   OH224335   3.209   1.252   3.315
 8131TIP3    H124336   3.301   1.260   3.340
 8131TIP3    H224337   3.202   1.166   3.274
 8132TIP3   OH224338   5.672   6.111   6.741
 8132TIP3    H124339   5.717   6.064   6.671
 8132TIP3    H224340   5.631   6.043   6.793
 8133TIP3   OH224341   4.850   6.095   5.058
 8133TIP3    H124342   4.832   6.083   5.151
 8133TIP3    H224343   4.907   6.172   5.055
 8134TIP3   OH224344   1.382   6.556   1.832
 8134TIP3    H124345   1.475   6.580   1.843
 8134TIP3    H224346   1.360   6.509   1.912
 8135TIP3   OH224347   2.283   2.388   2.799
 8135TIP3    H124348   2.315   2.478   2.788
 8135TIP3    H224349   2.263   2.381   2.892
 8136TIP3   OH224350   6.175   2.258   0.984
 8136TIP3    H124351   6.103   2.236   0.925
 8136TIP3    H224352   6.174   2.189   1.050
 8137TIP3   OH224353   2.063   1.494   4.914
 8137TIP3    H124354   2.132   1.430   4.897
 8137TIP3    H224355   1.999   1.448   4.967
 8138TIP3   OH224356   5.804   1.612   1.541
 8138TIP3    H124357   5.822   1.551   1.469
 8138TIP3    H224358   5.875   1.675   1.537
 8139TIP3   OH224359   2.489   5.680   4.045
 8139TIP3    H124360   2.404   5.649   4.074
 8139TIP3    H224361   2.471   5.728   3.964
 8140TIP3   OH224362   8.076   3.404   5.787
 8140TIP3    H124363   8.020   3.337   5.747
 8140TIP3    H224364   8.131   3.355   5.848
 8141TIP3   OH224365   8.185   3.712   6.399
 8141TIP3    H124366   8.270   3.669   6.391
 8141TIP3    H224367   8.205   3.806   6.390
 8142TIP3   OH224368   7.806   5.905   6.702
 8142TIP3    H124369   7.825   5.811   6.713
 8142TIP3    H224370   7.890   5.948   6.716
 8143TIP3   OH224371   7.293   5.231   5.828
 8143TIP3    H124372   7.262   5.232   5.738
 8143TIP3    H224373   7.255   5.152   5.866
 8144TIP3   OH224374   1.894   2.560   1.330
 8144TIP3    H124375   1.812   2.608   1.321
 8144TIP3    H224376   1.869   2.467   1.328
 8145TIP3   OH224377   3.749   0.175   0.643
 8145TIP3    H124378   3.768   0.248   0.585
 8145TIP3    H224379   3.671   0.134   0.606
 8146TIP3   OH224380   5.395   3.757   5.671
 8146TIP3    H124381   5.443   3.834   5.639
 8146TIP3    H224382   5.445   3.683   5.637
 8147TIP3   OH224383   7.449   5.751   2.403
 8147TIP3    H124384   7.393   5.754   2.480
 8147TIP3    H224385   7.389   5.758   2.329
 8148TIP3   OH224386   3.253   3.793   1.123
 8148TIP3    H124387   3.174   3.764   1.077
 8148TIP3    H224388   3.230   3.877   1.162
 8149TIP3   OH224389   6.267   2.808   0.090
 8149TIP3    H124390   6.321   2.764   0.025
 8149TIP3    H224391   6.193   2.749   0.104
 8150TIP3   OH224392   2.074   1.565   2.546
 8150TIP3    H124393   2.043   1.547   2.635
 8150TIP3    H224394   2.006   1.620   2.508
 8151TIP3   OH224395   2.521   7.456   4.665
 8151TIP3    H124396   2.575   7.385   4.699
 8151TIP3    H224397   2.434   7.417   4.652
 8152TIP3   OH224398   7.433   5.885   3.322
 8152TIP3    H124399   7.338   5.890   3.326
 8152TIP3    H224400   7.452   5.792   3.323
 8153TIP3   OH224401   7.500   5.909   6.433
 8153TIP3    H124402   7.502   5.815   6.450
 8153TIP3    H224403   7.592   5.933   6.419
 8154TIP3   OH224404   4.309   0.507   4.730
 8154TIP3    H124405   4.225   0.503   4.777
 8154TIP3    H224406   4.286   0.496   4.638
 8155TIP3   OH224407   1.795   5.314   6.072
 8155TIP3    H124408   1.785   5.309   6.167
 8155TIP3    H224409   1.762   5.401   6.049
 8156TIP3   OH224410   0.742   6.714   1.163
 8156TIP3    H124411   0.771   6.625   1.145
 8156TIP3    H224412   0.750   6.724   1.258
 8157TIP3   OH224413   1.095   6.083   3.443
 8157TIP3    H124414   1.113   6.071   3.536
 8157TIP3    H224415   1.164   6.142   3.412
 8158TIP3   OH224416   5.881   6.070   0.048
 8158TIP3    H124417   5.858   6.133  -0.020
 8158TIP3    H224418   5.881   6.121   0.129
 8159TIP3   OH224419   7.644   2.938   5.889
 8159TIP3    H124420   7.675   2.974   5.973
 8159TIP3    H224421   7.723   2.920   5.840
 8160TIP3   OH224422   1.060   7.065   4.609
 8160TIP3    H124423   1.136   7.116   4.583
 8160TIP3    H224424   1.089   7.015   4.684
 8161TIP3   OH224425   3.093   2.142   6.049
 8161TIP3    H124426   3.041   2.216   6.017
 8161TIP3    H224427   3.121   2.169   6.137
 8162TIP3   OH224428   1.582   2.429   5.002
 8162TIP3    H124429   1.571   2.419   5.097
 8162TIP3    H224430   1.510   2.485   4.975
 8163TIP3   OH224431   1.135   1.440   4.757
 8163TIP3    H124432   1.092   1.477   4.835
 8163TIP3    H224433   1.090   1.356   4.743
 8164TIP3   OH224434   7.117   0.019   0.716
 8164TIP3    H124435   7.064   0.092   0.749
 8164TIP3    H224436   7.099   0.018   0.622
 8165TIP3   OH224437   4.216   0.348   1.718
 8165TIP3    H124438   4.138   0.307   1.754
 8165TIP3    H224439   4.237   0.419   1.779
 8166TIP3   OH224440   1.722   5.026   4.380
 8166TIP3    H124441   1.669   4.950   4.358
 8166TIP3    H224442   1.659   5.094   4.404
 8167TIP3   OH224443   2.551   2.018   5.359
 8167TIP3    H124444   2.622   2.060   5.408
 8167TIP3    H224445   2.592   1.942   5.318
 8168TIP3   OH224446   7.198   6.868   0.595
 8168TIP3    H124447   7.120   6.920   0.613
 8168TIP3    H224448   7.165   6.778   0.588
 8169TIP3   OH224449   1.960   4.241   1.686
 8169TIP3    H124450   2.054   4.255   1.675
 8169TIP3    H224451   1.935   4.303   1.755
 8170TIP3   OH224452   0.310   3.134   6.080
 8170TIP3    H124453   0.404   3.150   6.072
 8170TIP3    H224454   0.275   3.157   5.994
 8171TIP3   OH224455   3.574   3.423   4.519
 8171TIP3    H124456   3.632   3.372   4.575
 8171TIP3    H224457   3.578   3.379   4.434
 8172TIP3   OH224458   8.028   3.290   1.137
 8172TIP3    H124459   8.020   3.218   1.200
 8172TIP3    H224460   8.086   3.353   1.180
 8173TIP3   OH224461   0.236   6.003   6.431
 8173TIP3    H124462   0.166   6.049   6.478
 8173TIP3    H224463   0.239   6.046   6.345
 8174TIP3   OH224464   6.888   3.411   4.494
 8174TIP3    H124465   6.887   3.317   4.473
 8174TIP3    H224466   6.972   3.441   4.458
 8175TIP3   OH224467   7.848   1.712   6.033
 8175TIP3    H124468   7.859   1.654   5.957
 8175TIP3    H224469   7.857   1.654   6.108
 8176TIP3   OH224470   5.121   7.040   2.325
 8176TIP3    H124471   5.194   7.080   2.277
 8176TIP3    H224472   5.097   7.105   2.390
 8177TIP3   OH224473   4.954   3.981   6.090
 8177TIP3    H124474   4.952   3.949   6.181
 8177TIP3    H224475   4.866   4.016   6.075
 8178TIP3   OH224476   6.410   6.639   5.777
 8178TIP3    H124477   6.478   6.608   5.717
 8178TIP3    H224478   6.439   6.727   5.801
 8179TIP3   OH224479   2.003   6.725   3.602
 8179TIP3    H124480   2.018   6.695   3.691
 8179TIP3    H224481   2.026   6.818   3.603
 8180TIP3   OH224482   7.911   3.897   4.557
 8180TIP3    H124483   7.889   3.972   4.611
 8180TIP3    H224484   7.915   3.931   4.468
 8181TIP3   OH224485   3.860   5.753   2.213
 8181TIP3    H124486   3.770   5.774   2.239
 8181TIP3    H224487   3.850   5.695   2.138
 8182TIP3   OH224488   2.969   3.009   1.794
 8182TIP3    H124489   2.877   3.013   1.822
 8182TIP3    H224490   2.991   3.100   1.773
 8183TIP3   OH224491   7.536   3.640   6.521
 8183TIP3    H124492   7.631   3.638   6.513
 8183TIP3    H224493   7.504   3.600   6.441
 8184TIP3   OH224494   5.662   6.271   3.389
 8184TIP3    H124495   5.610   6.193   3.409
 8184TIP3    H224496   5.701   6.297   3.473
 8185TIP3   OH224497   5.326   3.746   5.205
 8185TIP3    H124498   5.300   3.810   5.270
 8185TIP3    H224499   5.370   3.677   5.255
 8186TIP3   OH224500   7.582   4.598   3.811
 8186TIP3    H124501   7.576   4.683   3.769
 8186TIP3    H224502   7.496   4.584   3.851
 8187TIP3   OH224503   6.260   2.257   3.390
 8187TIP3    H124504   6.325   2.295   3.449
 8187TIP3    H224505   6.306   2.247   3.306
 8188TIP3   OH224506   0.534   0.592   1.000
 8188TIP3    H124507   0.598   0.610   0.931
 8188TIP3    H224508   0.583   0.602   1.081
 8189TIP3   OH224509   5.097   4.222   2.354
 8189TIP3    H124510   5.041   4.144   2.350
 8189TIP3    H224511   5.111   4.236   2.447
 8190TIP3   OH224512   4.746   5.530   5.242
 8190TIP3    H124513   4.778   5.557   5.156
 8190TIP3    H224514   4.822   5.491   5.285
 8191TIP3   OH224515   0.315   5.530   4.481
 8191TIP3    H124516   0.328   5.537   4.387
 8191TIP3    H224517   0.383   5.586   4.519
 8192TIP3   OH224518   6.237   5.182   5.007
 8192TIP3    H124519   6.150   5.143   5.021
 8192TIP3    H224520   6.276   5.128   4.938
 8193TIP3   OH224521   6.536   1.411   0.941
 8193TIP3    H124522   6.536   1.374   0.853
 8193TIP3    H224523   6.450   1.453   0.949
 8194TIP3   OH224524   2.835   1.786   0.184
 8194TIP3    H124525   2.904   1.758   0.245
 8194TIP3    H224526   2.835   1.882   0.191
 8195TIP3   OH224527   5.060   4.675   2.861
 8195TIP3    H124528   5.082   4.769   2.857
 8195TIP3    H224529   4.966   4.673   2.876
 8196TIP3   OH224530   1.131   1.869   2.112
 8196TIP3    H124531   1.203   1.806   2.107
 8196TIP3    H224532   1.054   1.820   2.081
 8197TIP3   OH224533   3.228   2.074   2.701
 8197TIP3    H124534   3.225   2.042   2.611
 8197TIP3    H224535   3.260   2.164   2.694
 8198TIP3   OH224536   1.862   5.164   2.357
 8198TIP3    H124537   1.937   5.139   2.303
 8198TIP3    H224538   1.901   5.200   2.437
 8199TIP3   OH224539   6.787   1.190   0.252
 8199TIP3    H124540   6.756   1.139   0.177
 8199TIP3    H224541   6.837   1.262   0.214
 8200TIP3   OH224542   4.458   3.687   1.695
 8200TIP3    H124543   4.443   3.778   1.719
 8200TIP3    H224544   4.372   3.646   1.703
 8201TIP3   OH224545   1.424   6.433   2.758
 8201TIP3    H124546   1.364   6.484   2.811
 8201TIP3    H224547   1.492   6.405   2.819
 8202TIP3   OH224548   7.258   1.662   5.864
 8202TIP3    H124549   7.249   1.745   5.911
 8202TIP3    H224550   7.236   1.684   5.773
 8203TIP3   OH224551   1.428   7.190   1.730
 8203TIP3    H124552   1.358   7.129   1.707
 8203TIP3    H224553   1.508   7.138   1.725
 8204TIP3   OH224554   5.102   2.671   4.301
 8204TIP3    H124555   5.042   2.618   4.354
 8204TIP3    H224556   5.129   2.611   4.231
 8205TIP3   OH224557   1.282   1.774   2.343
 8205TIP3    H124558   1.251   1.863   2.358
 8205TIP3    H224559   1.202   1.722   2.334
 8206TIP3   OH224560   6.363   6.820   1.283
 8206TIP3    H124561   6.388   6.911   1.293
 8206TIP3    H224562   6.296   6.821   1.215
 8207TIP3   OH224563   4.579   5.445   2.232
 8207TIP3    H124564   4.512   5.395   2.186
 8207TIP3    H224565   4.574   5.533   2.195
 8208TIP3   OH224566   3.895   4.476   4.004
 8208TIP3    H124567   3.830   4.488   4.073
 8208TIP3    H224568   3.890   4.383   3.982
 8209TIP3   OH224569   0.027   7.716   6.124
 8209TIP3    H124570   0.051   7.793   6.072
 8209TIP3    H224571   0.106   7.662   6.122
 8210TIP3   OH224572   7.152   2.444   4.387
 8210TIP3    H124573   7.183   2.367   4.435
 8210TIP3    H224574   7.057   2.434   4.384
 8211TIP3   OH224575   5.373   2.303   2.729
 8211TIP3    H124576   5.360   2.256   2.812
 8211TIP3    H224577   5.456   2.270   2.695
 8212TIP3   OH224578   2.455   5.873   3.851
 8212TIP3    H124579   2.450   5.883   3.756
 8212TIP3    H224580   2.407   5.948   3.886
 8213TIP3   OH224581   3.453   7.407   1.269
 8213TIP3    H124582   3.509   7.461   1.213
 8213TIP3    H224583   3.513   7.340   1.304
 8214TIP3   OH224584   3.392   3.240   4.929
 8214TIP3    H124585   3.343   3.320   4.943
 8214TIP3    H224586   3.326   3.171   4.928
 8215TIP3   OH224587   6.626   2.108   3.113
 8215TIP3    H124588   6.667   2.104   3.199
 8215TIP3    H224589   6.538   2.142   3.130
 8216TIP3   OH224590   6.836   7.764   3.233
 8216TIP3    H124591   6.828   7.681   3.185
 8216TIP3    H224592   6.866   7.738   3.320
 8217TIP3   OH224593   5.982   6.469   1.552
 8217TIP3    H124594   5.963   6.562   1.540
 8217TIP3    H224595   5.933   6.444   1.630
 8218TIP3   OH224596   2.323   0.415   3.731
 8218TIP3    H124597   2.246   0.384   3.683
 8218TIP3    H224598   2.294   0.417   3.823
 8219TIP3   OH224599   0.507   7.094   6.261
 8219TIP3    H124600   0.525   7.037   6.336
 8219TIP3    H224601   0.582   7.084   6.203
 8220TIP3   OH224602   4.571   5.239   5.590
 8220TIP3    H124603   4.581   5.332   5.612
 8220TIP3    H224604   4.527   5.201   5.666
 8221TIP3   OH224605   8.087   4.559   2.816
 8221TIP3    H124606   8.043   4.625   2.869
 8221TIP3    H224607   8.053   4.572   2.727
 8222TIP3   OH224608   0.355   2.608   5.460
 8222TIP3    H124609   0.337   2.702   5.454
 8222TIP3    H224610   0.440   2.597   5.418
 8223TIP3   OH224611   8.040   7.088   6.130
 8223TIP3    H124612   7.954   7.046   6.141
 8223TIP3    H224613   8.103   7.018   6.148
 8224TIP3   OH224614   0.091   4.091   5.126
 8224TIP3    H124615   0.184   4.070   5.131
 8224TIP3    H224616   0.057   4.072   5.213
 8225TIP3   OH224617   3.886   6.643   2.029
 8225TIP3    H124618   3.970   6.619   1.990
 8225TIP3    H224619   3.839   6.560   2.038
 8226TIP3   OH224620   0.049   1.866   0.641
 8226TIP3    H124621   0.010   1.889   0.557
 8226TIP3    H224622   0.143   1.864   0.623
 8227TIP3   OH224623   2.888   3.738   2.758
 8227TIP3    H124624   2.795   3.747   2.778
 8227TIP3    H224625   2.909   3.814   2.705
 8228TIP3   OH224626   2.668   1.013   0.497
 8228TIP3    H124627   2.717   1.018   0.579
 8228TIP3    H224628   2.580   0.987   0.523
 8229TIP3   OH224629   2.489   1.714   0.880
 8229TIP3    H124630   2.532   1.799   0.883
 8229TIP3    H224631   2.474   1.691   0.972
 8230TIP3   OH224632   3.645   3.972   1.526
 8230TIP3    H124633   3.603   3.960   1.440
 8230TIP3    H224634   3.619   4.060   1.553
 8231TIP3   OH224635   6.587   4.646   0.707
 8231TIP3    H124636   6.599   4.551   0.705
 8231TIP3    H224637   6.497   4.659   0.737
 8232TIP3   OH224638   5.805   4.122   5.554
 8232TIP3    H124639   5.796   4.080   5.639
 8232TIP3    H224640   5.803   4.049   5.492
 8233TIP3   OH224641   0.502   1.590   0.093
 8233TIP3    H124642   0.494   1.650   0.019
 8233TIP3    H224643   0.572   1.530   0.067
 8234TIP3   OH224644   1.593   3.978   5.577
 8234TIP3    H124645   1.623   4.040   5.643
 8234TIP3    H224646   1.663   3.913   5.571
 8235TIP3   OH224647   3.738   5.625   1.218
 8235TIP3    H124648   3.718   5.637   1.125
 8235TIP3    H224649   3.827   5.659   1.229
 8236TIP3   OH224650   3.809   2.555   6.392
 8236TIP3    H124651   3.875   2.621   6.414
 8236TIP3    H224652   3.776   2.525   6.477
 8237TIP3   OH224653   7.766   4.310   4.606
 8237TIP3    H124654   7.680   4.289   4.641
 8237TIP3    H224655   7.819   4.233   4.625
 8238TIP3   OH224656   5.004   5.483   4.916
 8238TIP3    H124657   5.073   5.419   4.896
 8238TIP3    H224658   5.050   5.556   4.958
 8239TIP3   OH224659   4.057   0.093   5.574
 8239TIP3    H124660   4.076   0.187   5.572
 8239TIP3    H224661   3.997   0.082   5.647
 8240TIP3   OH224662   2.195   1.596   6.520
 8240TIP3    H124663   2.232   1.680   6.546
 8240TIP3    H224664   2.249   1.530   6.564
 8241TIP3   OH224665   1.224   2.808   0.963
 8241TIP3    H124666   1.255   2.770   1.045
 8241TIP3    H224667   1.175   2.738   0.921
 8242TIP3   OH224668   6.707   0.017   0.567
 8242TIP3    H124669   6.766   0.054   0.501
 8242TIP3    H224670   6.620   0.051   0.542
 8243TIP3   OH224671   6.649   6.558   5.001
 8243TIP3    H124672   6.712   6.487   5.010
 8243TIP3    H224673   6.671   6.599   4.917
 8244TIP3   OH224674   6.234   2.692   5.670
 8244TIP3    H124675   6.198   2.768   5.716
 8244TIP3    H224676   6.315   2.673   5.716
 8245TIP3   OH224677   4.846   0.154   3.986
 8245TIP3    H124678   4.786   0.214   3.942
 8245TIP3    H224679   4.915   0.211   4.020
 8246TIP3   OH224680   4.637   1.379   1.757
 8246TIP3    H124681   4.637   1.364   1.663
 8246TIP3    H224682   4.594   1.301   1.793
 8247TIP3   OH224683   2.898   1.148   0.107
 8247TIP3    H124684   2.815   1.101   0.120
 8247TIP3    H224685   2.942   1.143   0.192
 8248TIP3   OH224686   2.524   5.390   6.423
 8248TIP3    H124687   2.553   5.330   6.355
 8248TIP3    H224688   2.509   5.334   6.499
 8249TIP3   OH224689   3.986   7.153   4.301
 8249TIP3    H124690   4.046   7.094   4.346
 8249TIP3    H224691   3.914   7.166   4.364
 8250TIP3   OH224692   8.005   6.919   1.627
 8250TIP3    H124693   8.082   6.895   1.680
 8250TIP3    H224694   8.034   6.993   1.574
 8251TIP3   OH224695   3.707   1.821   1.507
 8251TIP3    H124696   3.712   1.838   1.601
 8251TIP3    H224697   3.714   1.908   1.467
 8252TIP3   OH224698   7.781   1.662   3.600
 8252TIP3    H124699   7.750   1.596   3.538
 8252TIP3    H224700   7.704   1.717   3.617
 8253TIP3   OH224701   0.015   4.524   5.245
 8253TIP3    H124702   0.039   4.469   5.320
 8253TIP3    H224703   0.000   4.462   5.174
 8254TIP3   OH224704   4.873   1.431   0.057
 8254TIP3    H124705   4.824   1.376   0.118
 8254TIP3    H224706   4.962   1.399   0.062
 8255TIP3   OH224707   4.343   4.920   6.306
 8255TIP3    H124708   4.313   5.001   6.347
 8255TIP3    H224709   4.292   4.851   6.349
 8256TIP3   OH224710   6.385   1.488   1.691
 8256TIP3    H124711   6.441   1.548   1.642
 8256TIP3    H224712   6.301   1.491   1.645
 8257TIP3   OH224713   6.924   1.600   2.969
 8257TIP3    H124714   6.923   1.521   3.024
 8257TIP3    H224715   6.840   1.642   2.987
 8258TIP3   OH224716   7.728   6.800   4.684
 8258TIP3    H124717   7.769   6.797   4.771
 8258TIP3    H224718   7.634   6.801   4.702
 8259TIP3   OH224719   6.853   4.726   0.734
 8259TIP3    H124720   6.761   4.704   0.718
 8259TIP3    H224721   6.901   4.645   0.718
 8260TIP3   OH224722   0.915   6.277   4.461
 8260TIP3    H124723   0.862   6.231   4.526
 8260TIP3    H224724   0.857   6.345   4.426
 8261TIP3   OH224725   5.311   6.028   4.580
 8261TIP3    H124726   5.327   5.937   4.605
 8261TIP3    H224727   5.310   6.075   4.664
 8262TIP3   OH224728   6.284   2.487   2.138
 8262TIP3    H124729   6.237   2.435   2.203
 8262TIP3    H224730   6.262   2.446   2.054
 8263TIP3   OH224731   2.447   5.253   0.347
 8263TIP3    H124732   2.414   5.180   0.294
 8263TIP3    H224733   2.422   5.331   0.297
 8264TIP3   OH224734   8.219   2.418   1.366
 8264TIP3    H124735   8.258   2.492   1.320
 8264TIP3    H224736   8.139   2.453   1.405
 8265TIP3   OH224737   0.723   5.271   3.333
 8265TIP3    H124738   0.665   5.232   3.267
 8265TIP3    H224739   0.665   5.321   3.390
 8266TIP3   OH224740   5.842   1.513   3.862
 8266TIP3    H124741   5.764   1.460   3.845
 8266TIP3    H224742   5.901   1.492   3.789
 8267TIP3   OH224743   0.900   7.493   2.236
 8267TIP3    H124744   0.980   7.448   2.209
 8267TIP3    H224745   0.886   7.465   2.327
 8268TIP3   OH224746   6.058   3.666   0.466
 8268TIP3    H124747   5.989   3.661   0.400
 8268TIP3    H224748   6.095   3.753   0.456
 8269TIP3   OH224749   0.082   0.339   6.729
 8269TIP3    H124750   0.175   0.356   6.744
 8269TIP3    H224751   0.055   0.405   6.666
 8270TIP3   OH224752   8.154   2.906   1.186
 8270TIP3    H124753   8.178   2.994   1.216
 8270TIP3    H224754   8.188   2.901   1.097
 8271TIP3   OH224755   5.807   3.537   2.812
 8271TIP3    H124756   5.765   3.493   2.738
 8271TIP3    H224757   5.884   3.484   2.832
 8272TIP3   OH224758   6.936   4.971   0.604
 8272TIP3    H124759   6.924   4.892   0.657
 8272TIP3    H224760   7.005   5.019   0.649
 8273TIP3   OH224761   8.053   5.810   0.447
 8273TIP3    H124762   8.136   5.798   0.401
 8273TIP3    H224763   8.018   5.892   0.414
 8274TIP3   OH224764   5.862   1.721   2.733
 8274TIP3    H124765   5.822   1.803   2.706
 8274TIP3    H224766   5.877   1.674   2.651
 8275TIP3   OH224767   2.028   3.791   4.051
 8275TIP3    H124768   2.086   3.864   4.072
 8275TIP3    H224769   2.076   3.739   3.988
 8276TIP3   OH224770   3.323   7.039   4.513
 8276TIP3    H124771   3.343   6.958   4.465
 8276TIP3    H224772   3.348   7.109   4.453
 8277TIP3   OH224773   4.775   0.402   0.196
 8277TIP3    H124774   4.722   0.329   0.162
 8277TIP3    H224775   4.835   0.361   0.258
 8278TIP3   OH224776   3.534   5.663   3.510
 8278TIP3    H124777   3.496   5.751   3.508
 8278TIP3    H224778   3.496   5.619   3.434
 8279TIP3   OH224779   3.567   5.215   5.536
 8279TIP3    H124780   3.638   5.211   5.599
 8279TIP3    H224781   3.492   5.249   5.586
 8280TIP3   OH224782   7.574   3.796   3.262
 8280TIP3    H124783   7.649   3.767   3.314
 8280TIP3    H224784   7.598   3.883   3.232
 8281TIP3   OH224785   1.320   4.454   1.995
 8281TIP3    H124786   1.294   4.466   1.903
 8281TIP3    H224787   1.310   4.360   2.010
 8282TIP3   OH224788   3.591   1.835   5.990
 8282TIP3    H124789   3.561   1.877   5.909
 8282TIP3    H224790   3.528   1.863   6.056
 8283TIP3   OH224791   3.412   4.164   1.452
 8283TIP3    H124792   3.482   4.227   1.440
 8283TIP3    H224793   3.396   4.163   1.546
 8284TIP3   OH224794   6.747   5.117   0.433
 8284TIP3    H124795   6.832   5.081   0.458
 8284TIP3    H224796   6.686   5.044   0.442
 8285TIP3   OH224797   4.949   0.690   3.315
 8285TIP3    H124798   4.933   0.717   3.224
 8285TIP3    H224799   4.876   0.727   3.364
 8286TIP3   OH224800   4.276   1.988   1.367
 8286TIP3    H124801   4.262   1.896   1.344
 8286TIP3    H224802   4.352   1.986   1.426
 8287TIP3   OH224803   7.623   7.105   4.420
 8287TIP3    H124804   7.564   7.031   4.434
 8287TIP3    H224805   7.708   7.066   4.405
 8288TIP3   OH224806   0.977   3.485   3.253
 8288TIP3    H124807   1.007   3.514   3.339
 8288TIP3    H224808   1.017   3.547   3.192
 8289TIP3   OH224809   0.297   0.846   6.000
 8289TIP3    H124810   0.238   0.793   6.054
 8289TIP3    H224811   0.263   0.935   6.008
 8290TIP3   OH224812   1.106   3.748   3.467
 8290TIP3    H124813   1.138   3.803   3.538
 8290TIP3    H224814   1.065   3.673   3.511
 8291TIP3   OH224815   1.778   6.440   2.909
 8291TIP3    H124816   1.733   6.518   2.878
 8291TIP3    H224817   1.794   6.456   3.002
 8292TIP3   OH224818   3.093   0.486   3.991
 8292TIP3    H124819   3.083   0.395   3.964
 8292TIP3    H224820   3.162   0.484   4.057
 8293TIP3   OH224821   4.226   7.027   4.516
 8293TIP3    H124822   4.180   7.049   4.597
 8293TIP3    H224823   4.244   6.934   4.524
 8294TIP3   OH224824   8.099   4.315   1.787
 8294TIP3    H124825   8.028   4.304   1.850
 8294TIP3    H224826   8.164   4.367   1.834
 8295TIP3   OH224827   0.641   4.931   0.965
 8295TIP3    H124828   0.637   4.992   1.039
 8295TIP3    H224829   0.681   4.852   1.002
 8296TIP3   OH224830   0.347   2.434   5.043
 8296TIP3    H124831   0.311   2.452   5.130
 8296TIP3    H224832   0.441   2.425   5.058
 8297TIP3   OH224833   0.874   6.490   3.658
 8297TIP3    H124834   0.788   6.529   3.668
 8297TIP3    H224835   0.932   6.543   3.713
 8298TIP3   OH224836   4.876   2.327   5.243
 8298TIP3    H124837   4.860   2.234   5.226
 8298TIP3    H224838   4.903   2.331   5.335
 8299TIP3   OH224839   8.086   7.401   2.600
 8299TIP3    H124840   8.065   7.437   2.513
 8299TIP3    H224841   8.039   7.458   2.661
 8300TIP3   OH224842   0.971   5.735   6.367
 8300TIP3    H124843   1.021   5.778   6.437
 8300TIP3    H224844   1.028   5.665   6.336
 8301TIP3   OH224845   1.084   5.260   5.977
 8301TIP3    H124846   1.126   5.336   5.938
 8301TIP3    H224847   1.116   5.257   6.067
 8302TIP3   OH224848   5.248   5.227   3.995
 8302TIP3    H124849   5.174   5.260   3.944
 8302TIP3    H224850   5.326   5.253   3.946
 8303TIP3   OH224851   1.152   0.502   2.486
 8303TIP3    H124852   1.176   0.411   2.466
 8303TIP3    H224853   1.233   0.543   2.515
 8304TIP3   OH224854   6.831   5.738   3.896
 8304TIP3    H124855   6.825   5.646   3.868
 8304TIP3    H224856   6.914   5.769   3.860
 8305TIP3   OH224857   2.272   7.758   5.786
 8305TIP3    H124858   2.322   7.837   5.809
 8305TIP3    H224859   2.197   7.759   5.845
 8306TIP3   OH224860   0.916   3.946   0.896
 8306TIP3    H124861   0.995   3.898   0.873
 8306TIP3    H224862   0.850   3.879   0.914
 8307TIP3   OH224863   3.162   5.432   0.647
 8307TIP3    H124864   3.143   5.510   0.697
 8307TIP3    H224865   3.248   5.404   0.678
 8308TIP3   OH224866   4.789   4.838   2.008
 8308TIP3    H124867   4.832   4.797   2.083
 8308TIP3    H224868   4.842   4.812   1.933
 8309TIP3   OH224869   5.801   5.094   0.459
 8309TIP3    H124870   5.868   5.148   0.499
 8309TIP3    H224871   5.774   5.033   0.528
 8310TIP3   OH224872   4.093   4.238   0.043
 8310TIP3    H124873   4.098   4.205  -0.047
 8310TIP3    H224874   4.083   4.333   0.032
 8311TIP3   OH224875   3.223   1.680   2.003
 8311TIP3    H124876   3.251   1.602   2.051
 8311TIP3    H224877   3.127   1.678   2.007
 8312TIP3   OH224878   7.345   0.674   6.203
 8312TIP3    H124879   7.439   0.665   6.185
 8312TIP3    H224880   7.315   0.742   6.143
 8313TIP3   OH224881   7.821   2.144   0.540
 8313TIP3    H124882   7.726   2.129   0.541
 8313TIP3    H224883   7.856   2.072   0.489
 8314TIP3   OH224884   2.540   4.840   3.261
 8314TIP3    H124885   2.450   4.808   3.255
 8314TIP3    H224886   2.541   4.918   3.205
 8315TIP3   OH224887   5.600   5.925   1.714
 8315TIP3    H124888   5.565   5.836   1.716
 8315TIP3    H224889   5.639   5.934   1.627
 8316TIP3   OH224890   5.576   1.641   4.986
 8316TIP3    H124891   5.520   1.574   5.023
 8316TIP3    H224892   5.543   1.654   4.897
 8317TIP3   OH224893   0.882   3.730   0.502
 8317TIP3    H124894   0.853   3.812   0.463
 8317TIP3    H224895   0.977   3.738   0.508
 8318TIP3   OH224896   5.793   2.031   2.767
 8318TIP3    H124897   5.779   2.032   2.672
 8318TIP3    H224898   5.886   2.054   2.777
 8319TIP3   OH224899   6.596   5.199   0.981
 8319TIP3    H124900   6.689   5.195   0.957
 8319TIP3    H224901   6.596   5.238   1.069
 8320TIP3   OH224902   5.318   0.310   2.673
 8320TIP3    H124903   5.410   0.338   2.674
 8320TIP3    H224904   5.269   0.390   2.657
 8321TIP3   OH224905   6.820   4.366   2.343
 8321TIP3    H124906   6.766   4.320   2.407
 8321TIP3    H224907   6.878   4.421   2.395
 8322TIP3   OH224908   0.761   4.905   1.204
 8322TIP3    H124909   0.849   4.893   1.170
 8322TIP3    H224910   0.760   4.855   1.286
 8323TIP3   OH224911   2.532   5.426   2.185
 8323TIP3    H124912   2.560   5.408   2.275
 8323TIP3    H224913   2.612   5.420   2.133
 8324TIP3   OH224914   5.637   2.636   6.510
 8324TIP3    H124915   5.727   2.618   6.485
 8324TIP3    H224916   5.588   2.633   6.428
 8325TIP3   OH224917   0.834   5.564   5.355
 8325TIP3    H124918   0.890   5.543   5.430
 8325TIP3    H224919   0.885   5.536   5.279
 8326TIP3   OH224920   6.382   6.495   3.779
 8326TIP3    H124921   6.363   6.403   3.797
 8326TIP3    H224922   6.433   6.524   3.855
 8327TIP3   OH224923   5.307   4.157   4.012
 8327TIP3    H124924   5.231   4.124   3.964
 8327TIP3    H224925   5.278   4.241   4.049
 8328TIP3   OH224926   7.001   1.829   0.256
 8328TIP3    H124927   7.057   1.903   0.281
 8328TIP3    H224928   7.002   1.771   0.333
 8329TIP3   OH224929   1.449   4.185   1.709
 8329TIP3    H124930   1.375   4.244   1.727
 8329TIP3    H224931   1.407   4.102   1.686
 8330TIP3   OH224932   3.071   6.985   6.526
 8330TIP3    H124933   3.013   7.040   6.473
 8330TIP3    H224934   3.156   7.029   6.521
 8331TIP3   OH224935   7.535   7.155   1.844
 8331TIP3    H124936   7.590   7.110   1.779
 8331TIP3    H224937   7.471   7.202   1.791
 8332TIP3   OH224938   0.430   3.651   2.152
 8332TIP3    H124939   0.517   3.624   2.124
 8332TIP3    H224940   0.444   3.692   2.237
 8333TIP3   OH224941   3.574   0.573   0.425
 8333TIP3    H124942   3.563   0.547   0.334
 8333TIP3    H224943   3.663   0.547   0.447
 8334TIP3   OH224944   2.723   2.705   2.982
 8334TIP3    H124945   2.639   2.659   2.994
 8334TIP3    H224946   2.736   2.706   2.888
 8335TIP3   OH224947   5.884   5.515   4.846
 8335TIP3    H124948   5.966   5.564   4.847
 8335TIP3    H224949   5.909   5.425   4.867
 8336TIP3   OH224950   6.986   3.709   3.628
 8336TIP3    H124951   6.941   3.625   3.627
 8336TIP3    H224952   7.013   3.720   3.720
 8337TIP3   OH224953   8.148   3.793   0.365
 8337TIP3    H124954   8.223   3.850   0.348
 8337TIP3    H224955   8.144   3.788   0.461
 8338TIP3   OH224956   7.631   4.796   1.192
 8338TIP3    H124957   7.628   4.734   1.266
 8338TIP3    H224958   7.614   4.742   1.115
 8339TIP3   OH224959   0.247   1.129   0.932
 8339TIP3    H124960   0.282   1.049   0.893
 8339TIP3    H224961   0.314   1.195   0.916
 8340TIP3   OH224962   4.861   7.330   0.666
 8340TIP3    H124963   4.847   7.408   0.721
 8340TIP3    H224964   4.931   7.282   0.710
 8341TIP3   OH224965   0.418   0.355   2.272
 8341TIP3    H124966   0.475   0.279   2.259
 8341TIP3    H224967   0.360   0.329   2.343
 8342TIP3   OH224968   0.825   2.459   0.993
 8342TIP3    H124969   0.809   2.451   1.087
 8342TIP3    H224970   0.862   2.375   0.967
 8343TIP3   OH224971   8.323   0.066   0.023
 8343TIP3    H124972   8.309   0.127  -0.050
 8343TIP3    H224973   8.276   0.106   0.097
 8344TIP3   OH224974   5.758   3.078   5.702
 8344TIP3    H124975   5.822   3.025   5.750
 8344TIP3    H224976   5.753   3.036   5.616
 8345TIP3   OH224977   6.610   6.986   2.265
 8345TIP3    H124978   6.697   6.987   2.224
 8345TIP3    H224979   6.576   6.898   2.247
 8346TIP3   OH224980   6.902   3.954   2.043
 8346TIP3    H124981   6.959   4.007   2.099
 8346TIP3    H224982   6.823   3.940   2.097
 8347TIP3   OH224983   6.372   5.507   5.433
 8347TIP3    H124984   6.459   5.485   5.468
 8347TIP3    H224985   6.338   5.423   5.401
 8348TIP3   OH224986   5.676   4.865   5.154
 8348TIP3    H124987   5.611   4.832   5.092
 8348TIP3    H224988   5.759   4.829   5.122
 8349TIP3   OH224989   7.021   6.342   3.381
 8349TIP3    H124990   7.049   6.324   3.291
 8349TIP3    H224991   6.943   6.397   3.371
 8350TIP3   OH224992   2.007   3.523   5.956
 8350TIP3    H124993   2.070   3.594   5.943
 8350TIP3    H224994   2.052   3.462   6.015
 8351TIP3   OH224995   0.914   2.167   0.524
 8351TIP3    H124996   0.998   2.213   0.522
 8351TIP3    H224997   0.892   2.163   0.617
 8352TIP3   OH224998   3.990   5.718   1.641
 8352TIP3    H124999   4.071   5.668   1.642
 8352TIP3    H225000   3.924   5.656   1.609
 8353TIP3   OH225001   0.141   5.070   5.675
 8353TIP3    H125002   0.204   5.084   5.746
 8353TIP3    H225003   0.172   4.989   5.633
 8354TIP3   OH225004   3.398   1.651   2.420
 8354TIP3    H125005   3.343   1.578   2.449
 8354TIP3    H225006   3.477   1.643   2.474
 8355TIP3   OH225007   7.884   5.272   3.750
 8355TIP3    H125008   7.907   5.228   3.668
 8355TIP3    H225009   7.895   5.365   3.731
 8356TIP3   OH225010   5.316   0.740   3.846
 8356TIP3    H125011   5.304   0.756   3.940
 8356TIP3    H225012   5.389   0.679   3.842
 8357TIP3   OH225013   1.388   4.667   5.016
 8357TIP3    H125014   1.480   4.691   5.005
 8357TIP3    H225015   1.351   4.668   4.928
 8358TIP3   OH225016   3.502   4.690   1.816
 8358TIP3    H125017   3.576   4.673   1.758
 8358TIP3    H225018   3.486   4.607   1.860
 8359TIP3   OH225019   0.834   1.735   2.056
 8359TIP3    H125020   0.738   1.730   2.051
 8359TIP3    H225021   0.853   1.828   2.055
 8360TIP3   OH225022   5.909   3.702   5.586
 8360TIP3    H125023   5.986   3.757   5.579
 8360TIP3    H225024   5.929   3.640   5.656
 8361TIP3   OH225025   3.494   4.320   2.685
 8361TIP3    H125026   3.500   4.311   2.780
 8361TIP3    H225027   3.513   4.412   2.668
 8362TIP3   OH225028   0.279   5.557   4.207
 8362TIP3    H125029   0.225   5.584   4.133
 8362TIP3    H225030   0.369   5.567   4.176
 8363TIP3   OH225031   0.472   5.423   2.077
 8363TIP3    H125032   0.426   5.458   2.154
 8363TIP3    H225033   0.420   5.453   2.002
 8364TIP3   OH225034   5.291   4.461   5.323
 8364TIP3    H125035   5.212   4.463   5.268
 8364TIP3    H225036   5.302   4.369   5.345
 8365TIP3   OH225037   6.564   3.336   3.529
 8365TIP3    H125038   6.629   3.406   3.514
 8365TIP3    H225039   6.616   3.256   3.532
 8366TIP3   OH225040   6.520   1.885   5.252
 8366TIP3    H125041   6.432   1.863   5.284
 8366TIP3    H225042   6.572   1.808   5.273
 8367TIP3   OH225043   1.699   6.997   1.070
 8367TIP3    H125044   1.760   7.067   1.093
 8367TIP3    H225045   1.665   7.021   0.984
 8368TIP3   OH225046   7.468   2.489   1.633
 8368TIP3    H125047   7.381   2.500   1.671
 8368TIP3    H225048   7.458   2.420   1.568
 8369TIP3   OH225049   5.344   6.915   5.881
 8369TIP3    H125050   5.361   7.009   5.880
 8369TIP3    H225051   5.262   6.905   5.929
 8370TIP3   OH225052   0.200   5.103   3.883
 8370TIP3    H125053   0.158   5.189   3.870
 8370TIP3    H225054   0.128   5.045   3.907
 8371TIP3   OH225055   4.797   1.997   4.770
 8371TIP3    H125056   4.867   2.033   4.825
 8371TIP3    H225057   4.796   2.055   4.693
 8372TIP3   OH225058   4.363   2.792   0.088
 8372TIP3    H125059   4.332   2.711   0.127
 8372TIP3    H225060   4.286   2.831   0.048
 8373TIP3   OH225061   3.611   2.706   5.684
 8373TIP3    H125062   3.535   2.765   5.687
 8373TIP3    H225063   3.671   2.748   5.622
 8374TIP3   OH225064   6.204   1.678   3.399
 8374TIP3    H125065   6.276   1.633   3.354
 8374TIP3    H225066   6.202   1.638   3.486
 8375TIP3   OH225067   4.566   1.197   3.534
 8375TIP3    H125068   4.568   1.230   3.624
 8375TIP3    H225069   4.567   1.276   3.480
 8376TIP3   OH225070   5.356   3.519   2.078
 8376TIP3    H125071   5.445   3.486   2.092
 8376TIP3    H225072   5.339   3.573   2.156
 8377TIP3   OH225073   6.276   0.701   5.530
 8377TIP3    H125074   6.312   0.629   5.582
 8377TIP3    H225075   6.186   0.710   5.560
 8378TIP3   OH225076   1.759   1.274   2.327
 8378TIP3    H125077   1.717   1.338   2.384
 8378TIP3    H225078   1.852   1.298   2.330
 8379TIP3   OH225079   3.421   6.874   1.989
 8379TIP3    H125080   3.496   6.833   2.032
 8379TIP3    H225081   3.459   6.925   1.917
 8380TIP3   OH225082   5.759   6.448   4.391
 8380TIP3    H125083   5.734   6.423   4.480
 8380TIP3    H225084   5.690   6.509   4.363
 8381TIP3   OH225085   3.739   4.129   6.569
 8381TIP3    H125086   3.645   4.149   6.568
 8381TIP3    H225087   3.754   4.093   6.657
 8382TIP3   OH225088   1.422   3.027   3.097
 8382TIP3    H125089   1.494   3.084   3.070
 8382TIP3    H225090   1.401   2.975   3.019
 8383TIP3   OH225091   0.555   2.310   6.340
 8383TIP3    H125092   0.644   2.338   6.363
 8383TIP3    H225093   0.499   2.354   6.404
 8384TIP3   OH225094   6.943   1.514   3.330
 8384TIP3    H125095   6.939   1.420   3.314
 8384TIP3    H225096   7.015   1.545   3.274
 8385TIP3   OH225097   6.331   3.527   1.930
 8385TIP3    H125098   6.309   3.526   2.023
 8385TIP3    H225099   6.320   3.436   1.902
 8386TIP3   OH225100   4.235   2.946   6.345
 8386TIP3    H125101   4.234   2.908   6.258
 8386TIP3    H225102   4.318   2.994   6.350
 8387TIP3   OH225103   4.576   0.018   3.433
 8387TIP3    H125104   4.567  -0.054   3.496
 8387TIP3    H225105   4.568   0.098   3.486
 8388TIP3   OH225106   0.915   3.223   4.702
 8388TIP3    H125107   0.873   3.256   4.782
 8388TIP3    H225108   0.856   3.155   4.670
 8389TIP3   OH225109   3.797   3.339   6.081
 8389TIP3    H125110   3.829   3.419   6.039
 8389TIP3    H225111   3.706   3.358   6.104
 8390TIP3   OH225112   7.567   4.926   2.895
 8390TIP3    H125113   7.659   4.929   2.919
 8390TIP3    H225114   7.520   4.955   2.973
 8391TIP3   OH225115   4.924   6.558   1.125
 8391TIP3    H125116   4.957   6.565   1.215
 8391TIP3    H225117   4.884   6.471   1.122
 8392TIP3   OH225118   3.948   0.814   2.152
 8392TIP3    H125119   3.984   0.888   2.102
 8392TIP3    H225120   4.023   0.757   2.168
 8393TIP3   OH225121   4.300   5.191   3.412
 8393TIP3    H125122   4.237   5.214   3.344
 8393TIP3    H225123   4.386   5.206   3.372
 8394TIP3   OH225124   5.947   4.307   2.900
 8394TIP3    H125125   5.895   4.258   2.837
 8394TIP3    H225126   5.898   4.301   2.982
 8395TIP3   OH225127   2.996   5.698   3.293
 8395TIP3    H125128   2.930   5.658   3.351
 8395TIP3    H225129   3.016   5.782   3.334
 8396TIP3   OH225130   0.398   0.662   0.421
 8396TIP3    H125131   0.424   0.614   0.342
 8396TIP3    H225132   0.304   0.646   0.428
 8397TIP3   OH225133   8.056   2.748   6.639
 8397TIP3    H125134   8.010   2.668   6.614
 8397TIP3    H225135   8.072   2.793   6.556
 8398TIP3   OH225136   1.054   0.250   3.557
 8398TIP3    H125137   1.020   0.315   3.496
 8398TIP3    H225138   1.132   0.290   3.595
 8399TIP3   OH225139   3.484   5.221   1.314
 8399TIP3    H125140   3.508   5.309   1.345
 8399TIP3    H225141   3.498   5.165   1.390
 8400TIP3   OH225142   2.805   6.630   1.756
 8400TIP3    H125143   2.758   6.649   1.676
 8400TIP3    H225144   2.824   6.716   1.794
 8401TIP3   OH225145   1.530   3.443   3.088
 8401TIP3    H125146   1.439   3.415   3.102
 8401TIP3    H225147   1.523   3.536   3.070
 8402TIP3   OH225148   6.699   6.473   1.077
 8402TIP3    H125149   6.759   6.437   1.142
 8402TIP3    H225150   6.613   6.470   1.119
 8403TIP3   OH225151   3.438   1.454   1.297
 8403TIP3    H125152   3.374   1.445   1.367
 8403TIP3    H225153   3.472   1.543   1.306
 8404TIP3   OH225154   5.358   1.967   4.115
 8404TIP3    H125155   5.442   2.009   4.094
 8404TIP3    H225156   5.368   1.877   4.084
 8405TIP3   OH225157   6.136   5.671   4.893
 8405TIP3    H125158   6.137   5.660   4.988
 8405TIP3    H225159   6.225   5.649   4.865
 8406TIP3   OH225160   8.115   0.868   2.323
 8406TIP3    H125161   8.184   0.806   2.299
 8406TIP3    H225162   8.077   0.896   2.240
 8407TIP3   OH225163   3.913   4.758   1.238
 8407TIP3    H125164   3.851   4.749   1.166
 8407TIP3    H225165   3.884   4.836   1.286
 8408TIP3   OH225166   6.612   0.966   4.467
 8408TIP3    H125167   6.518   0.963   4.454
 8408TIP3    H225168   6.630   1.059   4.485
 8409TIP3   OH225169   4.567   1.301   3.787
 8409TIP3    H125170   4.533   1.379   3.831
 8409TIP3    H225171   4.590   1.241   3.858
 8410TIP3   OH225172   7.765   2.240   3.454
 8410TIP3    H125173   7.691   2.233   3.513
 8410TIP3    H225174   7.726   2.262   3.369
 8411TIP3   OH225175   1.020   6.240   6.266
 8411TIP3    H125176   1.023   6.168   6.203
 8411TIP3    H225177   1.099   6.228   6.319
 8412TIP3   OH225178   7.783   4.408   5.580
 8412TIP3    H125179   7.736   4.399   5.497
 8412TIP3    H225180   7.747   4.487   5.620
 8413TIP3   OH225181   1.001   2.135   4.835
 8413TIP3    H125182   1.002   2.055   4.887
 8413TIP3    H225183   0.994   2.105   4.744
 8414TIP3   OH225184   2.697   7.205   1.419
 8414TIP3    H125185   2.614   7.161   1.400
 8414TIP3    H225186   2.755   7.179   1.348
 8415TIP3   OH225187   1.644   0.779   5.476
 8415TIP3    H125188   1.604   0.790   5.562
 8415TIP3    H225189   1.707   0.708   5.487
 8416TIP3   OH225190   0.297   5.788   2.819
 8416TIP3    H125191   0.284   5.707   2.868
 8416TIP3    H225192   0.386   5.781   2.785
 8417TIP3   OH225193   0.206   6.488   5.859
 8417TIP3    H125194   0.156   6.480   5.941
 8417TIP3    H225195   0.223   6.397   5.833
 8418TIP3   OH225196   5.418   6.722   3.452
 8418TIP3    H125197   5.375   6.745   3.535
 8418TIP3    H225198   5.511   6.737   3.469
 8419TIP3   OH225199   0.378   4.132   3.236
 8419TIP3    H125200   0.434   4.207   3.211
 8419TIP3    H225201   0.314   4.126   3.166
 8420TIP3   OH225202   4.548   3.876   0.996
 8420TIP3    H125203   4.600   3.796   1.000
 8420TIP3    H225204   4.560   3.909   0.907
 8421TIP3   OH225205   7.522   2.914   0.592
 8421TIP3    H125206   7.506   2.870   0.508
 8421TIP3    H225207   7.545   3.004   0.569
 8422TIP3   OH225208   0.633   6.769   6.308
 8422TIP3    H125209   0.583   6.820   6.372
 8422TIP3    H225210   0.597   6.795   6.224
 8423TIP3   OH225211   6.107   5.579   0.212
 8423TIP3    H125212   6.182   5.571   0.153
 8423TIP3    H225213   6.032   5.586   0.154
 8424TIP3   OH225214   4.571   4.965   5.988
 8424TIP3    H125215   4.624   5.040   6.013
 8424TIP3    H225216   4.507   5.000   5.925
 8425TIP3   OH225217   0.289   4.348   1.051
 8425TIP3    H125218   0.265   4.378   1.139
 8425TIP3    H225219   0.385   4.352   1.050
 8426TIP3   OH225220   1.748   4.594   0.560
 8426TIP3    H125221   1.775   4.685   0.560
 8426TIP3    H225222   1.779   4.559   0.477
 8427TIP3   OH225223   1.436   4.683   5.483
 8427TIP3    H125224   1.375   4.632   5.536
 8427TIP3    H225225   1.385   4.713   5.408
 8428TIP3   OH225226   3.530   0.194   0.102
 8428TIP3    H125227   3.510   0.101   0.086
 8428TIP3    H225228   3.478   0.240   0.037
 8429TIP3   OH225229   1.082   2.360   4.338
 8429TIP3    H125230   1.115   2.306   4.410
 8429TIP3    H225231   1.135   2.335   4.263
 8430TIP3   OH225232   1.988   5.318   0.655
 8430TIP3    H125233   1.937   5.283   0.727
 8430TIP3    H225234   1.924   5.353   0.594
 8431TIP3   OH225235   0.173   2.805   4.369
 8431TIP3    H125236   0.202   2.722   4.330
 8431TIP3    H225237   0.079   2.808   4.352
 8432TIP3   OH225238   2.431   5.925   6.276
 8432TIP3    H125239   2.446   5.832   6.293
 8432TIP3    H225240   2.375   5.926   6.199
 8433TIP3   OH225241   8.040   1.849   0.094
 8433TIP3    H125242   8.077   1.936   0.107
 8433TIP3    H225243   7.981   1.836   0.168
 8434TIP3   OH225244   6.927   6.177   0.757
 8434TIP3    H125245   6.843   6.198   0.797
 8434TIP3    H225246   6.926   6.081   0.748
 8435TIP3   OH225247   2.958   6.186   3.725
 8435TIP3    H125248   2.873   6.156   3.695
 8435TIP3    H225249   2.947   6.281   3.738
 8436TIP3   OH225250   0.805   3.393   1.165
 8436TIP3    H125251   0.802   3.383   1.260
 8436TIP3    H225252   0.832   3.307   1.133
 8437TIP3   OH225253   1.190   6.393   0.746
 8437TIP3    H125254   1.175   6.298   0.747
 8437TIP3    H225255   1.284   6.402   0.756
 8438TIP3   OH225256   7.337   6.271   3.137
 8438TIP3    H125257   7.312   6.186   3.099
 8438TIP3    H225258   7.433   6.270   3.133
 8439TIP3   OH225259   2.323   2.863   1.160
 8439TIP3    H125260   2.322   2.768   1.165
 8439TIP3    H225261   2.298   2.883   1.070
 8440TIP3   OH225262   4.934   5.211   3.558
 8440TIP3    H125263   4.988   5.172   3.489
 8440TIP3    H225264   4.864   5.257   3.510
 8441TIP3   OH225265   3.277   4.632   5.813
 8441TIP3    H125266   3.251   4.606   5.901
 8441TIP3    H225267   3.260   4.726   5.809
 8442TIP3   OH225268   5.265   3.668   1.847
 8442TIP3    H125269   5.284   3.599   1.911
 8442TIP3    H225270   5.274   3.749   1.897
 8443TIP3   OH225271   1.651   6.065   0.186
 8443TIP3    H125272   1.670   5.996   0.121
 8443TIP3    H225273   1.728   6.066   0.243
 8444TIP3   OH225274   3.551   2.734   1.768
 8444TIP3    H125275   3.615   2.679   1.813
 8444TIP3    H225276   3.512   2.676   1.702
 8445TIP3   OH225277   7.398   1.829   1.346
 8445TIP3    H125278   7.477   1.881   1.327
 8445TIP3    H225279   7.430   1.739   1.352
 8446TIP3   OH225280   5.224   7.098   5.583
 8446TIP3    H125281   5.188   7.011   5.599
 8446TIP3    H225282   5.151   7.158   5.598
 8447TIP3   OH225283   6.787   5.947   1.877
 8447TIP3    H125284   6.730   5.885   1.831
 8447TIP3    H225285   6.777   6.029   1.828
 8448TIP3   OH225286   6.194   7.694   0.531
 8448TIP3    H125287   6.109   7.651   0.517
 8448TIP3    H225288   6.252   7.624   0.560
 8449TIP3   OH225289   3.778   5.209   0.365
 8449TIP3    H125290   3.732   5.253   0.293
 8449TIP3    H225291   3.831   5.278   0.405
 8450TIP3   OH225292   6.977   4.569   1.592
 8450TIP3    H125293   6.881   4.570   1.599
 8450TIP3    H225294   7.000   4.476   1.595
 8451TIP3   OH225295   4.697   7.383   2.566
 8451TIP3    H125296   4.619   7.348   2.609
 8451TIP3    H225297   4.690   7.478   2.577
 8452TIP3   OH225298   4.754   4.761   5.093
 8452TIP3    H125299   4.848   4.777   5.083
 8452TIP3    H225300   4.745   4.666   5.085
 8453TIP3   OH225301   0.401   4.095   6.384
 8453TIP3    H125302   0.432   4.183   6.364
 8453TIP3    H225303   0.384   4.096   6.478
 8454TIP3   OH225304   5.477   1.856   0.192
 8454TIP3    H125305   5.524   1.781   0.229
 8454TIP3    H225306   5.543   1.904   0.142
 8455TIP3   OH225307   3.951   5.419   1.316
 8455TIP3    H125308   4.032   5.457   1.284
 8455TIP3    H225309   3.921   5.479   1.385
 8456TIP3   OH225310   3.974   5.678   5.850
 8456TIP3    H125311   3.936   5.648   5.767
 8456TIP3    H225312   4.031   5.751   5.826
 8457TIP3   OH225313   2.316   0.567   1.654
 8457TIP3    H125314   2.409   0.577   1.632
 8457TIP3    H225315   2.288   0.489   1.606
 8458TIP3   OH225316   1.289   5.111   2.887
 8458TIP3    H125317   1.292   5.048   2.815
 8458TIP3    H225318   1.286   5.056   2.966
 8459TIP3   OH225319   7.051   1.092   6.325
 8459TIP3    H125320   6.980   1.028   6.325
 8459TIP3    H225321   7.131   1.039   6.327
 8460TIP3   OH225322   1.415   6.189   2.405
 8460TIP3    H125323   1.417   6.103   2.446
 8460TIP3    H225324   1.395   6.171   2.313
 8461TIP3   OH225325   5.930   2.851   1.154
 8461TIP3    H125326   5.885   2.826   1.073
 8461TIP3    H225327   6.021   2.861   1.129
 8462TIP3   OH225328   4.370   3.499   3.462
 8462TIP3    H125329   4.359   3.419   3.515
 8462TIP3    H225330   4.322   3.481   3.381
 8463TIP3   OH225331   0.895   2.167   5.163
 8463TIP3    H125332   0.864   2.173   5.072
 8463TIP3    H225333   0.816   2.178   5.216
 8464TIP3   OH225334   6.744   0.345   6.749
 8464TIP3    H125335   6.714   0.422   6.797
 8464TIP3    H225336   6.817   0.376   6.696
 8465TIP3   OH225337   1.869   2.849   5.963
 8465TIP3    H125338   1.810   2.781   5.930
 8465TIP3    H225339   1.854   2.850   6.057
 8466TIP3   OH225340   5.656   7.786   4.214
 8466TIP3    H125341   5.723   7.842   4.176
 8466TIP3    H225342   5.704   7.719   4.261
 8467TIP3   OH225343   0.095   6.162   4.206
 8467TIP3    H125344   0.175   6.209   4.181
 8467TIP3    H225345   0.025   6.210   4.162
 8468TIP3   OH225346   4.204   6.175   0.481
 8468TIP3    H125347   4.185   6.081   0.481
 8468TIP3    H225348   4.246   6.191   0.565
 8469TIP3   OH225349   7.777   1.220   0.838
 8469TIP3    H125350   7.792   1.236   0.932
 8469TIP3    H225351   7.766   1.307   0.801
 8470TIP3   OH225352   0.877   0.093   3.681
 8470TIP3    H125353   0.953   0.138   3.645
 8470TIP3    H225354   0.843   0.040   3.609
 8471TIP3   OH225355   0.291   6.412   2.749
 8471TIP3    H125356   0.236   6.352   2.700
 8471TIP3    H225357   0.230   6.470   2.794
 8472TIP3   OH225358   3.679   2.009   0.345
 8472TIP3    H125359   3.647   2.090   0.305
 8472TIP3    H225360   3.611   1.944   0.326
 8473TIP3   OH225361   1.811   7.644   3.635
 8473TIP3    H125362   1.763   7.564   3.653
 8473TIP3    H225363   1.791   7.701   3.709
 8474TIP3   OH225364   6.113   0.291   4.418
 8474TIP3    H125365   6.095   0.385   4.413
 8474TIP3    H225366   6.199   0.280   4.379
 8475TIP3   OH225367   3.044   3.171   3.689
 8475TIP3    H125368   3.097   3.183   3.768
 8475TIP3    H225369   3.096   3.207   3.618
 8476TIP3   OH225370   5.347   2.772   0.466
 8476TIP3    H125371   5.357   2.848   0.522
 8476TIP3    H225372   5.258   2.741   0.483
 8477TIP3   OH225373   0.156   2.224   3.407
 8477TIP3    H125374   0.189   2.310   3.380
 8477TIP3    H225375   0.172   2.221   3.501
 8478TIP3   OH225376   6.904   6.211   2.531
 8478TIP3    H125377   6.984   6.180   2.490
 8478TIP3    H225378   6.908   6.306   2.522
 8479TIP3   OH225379   0.048   6.835   0.202
 8479TIP3    H125380   0.124   6.791   0.163
 8479TIP3    H225381  -0.028   6.789   0.166
 8480TIP3   OH225382   6.452   0.028   4.929
 8480TIP3    H125383   6.528   0.044   4.873
 8480TIP3    H225384   6.433   0.113   4.968
 8481TIP3   OH225385   4.393   6.991   1.139
 8481TIP3    H125386   4.344   7.069   1.114
 8481TIP3    H225387   4.449   7.020   1.211
 8482TIP3   OH225388   4.181   7.537   3.327
 8482TIP3    H125389   4.122   7.605   3.359
 8482TIP3    H225390   4.193   7.556   3.234
 8483TIP3   OH225391   0.356   7.567   5.139
 8483TIP3    H125392   0.395   7.637   5.191
 8483TIP3    H225393   0.424   7.544   5.076
 8484TIP3   OH225394   4.936   6.109   3.401
 8484TIP3    H125395   4.978   6.034   3.357
 8484TIP3    H225396   4.948   6.182   3.340
 8485TIP3   OH225397   1.343   3.645   1.382
 8485TIP3    H125398   1.382   3.731   1.393
 8485TIP3    H225399   1.249   3.662   1.380
 8486TIP3   OH225400   4.288   4.771   0.455
 8486TIP3    H125401   4.374   4.771   0.413
 8486TIP3    H225402   4.264   4.864   0.460
 8487TIP3   OH225403   4.732   2.278   0.254
 8487TIP3    H125404   4.786   2.339   0.304
 8487TIP3    H225405   4.792   2.240   0.189
 8488TIP3   OH225406   6.561   5.523   3.778
 8488TIP3    H125407   6.548   5.451   3.839
 8488TIP3    H225408   6.564   5.482   3.691
 8489TIP3   OH225409   4.779   7.774   2.724
 8489TIP3    H125410   4.859   7.731   2.756
 8489TIP3    H225411   4.811   7.837   2.659
 8490TIP3   OH225412   0.105   5.625   0.585
 8490TIP3    H125413   0.082   5.595   0.497
 8490TIP3    H225414   0.049   5.702   0.600
 8491TIP3   OH225415   1.072   2.594   0.574
 8491TIP3    H125416   1.044   2.503   0.570
 8491TIP3    H225417   1.157   2.595   0.529
 8492TIP3   OH225418   1.854   3.636   0.539
 8492TIP3    H125419   1.799   3.710   0.568
 8492TIP3    H225420   1.914   3.622   0.612
 8493TIP3   OH225421   4.865   3.169   0.337
 8493TIP3    H125422   4.842   3.258   0.311
 8493TIP3    H225423   4.835   3.114   0.264
 8494TIP3   OH225424   8.149   2.745   1.620
 8494TIP3    H125425   8.125   2.663   1.665
 8494TIP3    H225426   8.097   2.743   1.539
 8495TIP3   OH225427   0.141   7.618   3.202
 8495TIP3    H125428   0.047   7.635   3.205
 8495TIP3    H225429   0.165   7.633   3.111
 8496TIP3   OH225430   4.958   0.208   2.657
 8496TIP3    H125431   5.043   0.199   2.613
 8496TIP3    H225432   4.943   0.303   2.661
 8497TIP3   OH225433   6.716   1.957   3.748
 8497TIP3    H125434   6.639   1.950   3.691
 8497TIP3    H225435   6.710   2.045   3.785
 8498TIP3   OH225436   0.902   4.486   4.028
 8498TIP3    H125437   0.927   4.577   4.012
 8498TIP3    H225438   0.812   4.491   4.062
 8499TIP3   OH225439   4.658   5.502   5.641
 8499TIP3    H125440   4.639   5.535   5.729
 8499TIP3    H225441   4.590   5.540   5.586
 8500TIP3   OH225442   1.210   3.578   0.857
 8500TIP3    H125443   1.201   3.502   0.800
 8500TIP3    H225444   1.263   3.547   0.931
 8501TIP3   OH225445   4.094   1.936   4.050
 8501TIP3    H125446   4.054   2.023   4.051
 8501TIP3    H225447   4.023   1.877   4.075
 8502TIP3   OH225448   4.370   2.843   3.183
 8502TIP3    H125449   4.365   2.750   3.162
 8502TIP3    H225450   4.294   2.858   3.240
 8503TIP3   OH225451   2.438   1.076   3.209
 8503TIP3    H125452   2.443   0.990   3.250
 8503TIP3    H225453   2.358   1.074   3.157
 8504TIP3   OH225454   0.996   0.289   0.329
 8504TIP3    H125455   0.988   0.253   0.418
 8504TIP3    H225456   1.010   0.213   0.273
 8505TIP3   OH225457   6.989   2.891   2.879
 8505TIP3    H125458   6.902   2.879   2.916
 8505TIP3    H225459   6.988   2.980   2.844
 8506TIP3   OH225460   6.463   5.519   3.024
 8506TIP3    H125461   6.547   5.539   3.065
 8506TIP3    H225462   6.487   5.471   2.945
 8507TIP3   OH225463   4.113   2.141   3.050
 8507TIP3    H125464   4.125   2.138   2.955
 8507TIP3    H225465   4.025   2.108   3.064
 8508TIP3   OH225466   2.253   4.464   1.162
 8508TIP3    H125467   2.246   4.546   1.113
 8508TIP3    H225468   2.296   4.403   1.101
 8509TIP3   OH225469   4.321   6.233   2.552
 8509TIP3    H125470   4.314   6.240   2.647
 8509TIP3    H225471   4.238   6.194   2.524
 8510TIP3   OH225472   2.438   6.346   6.113
 8510TIP3    H125473   2.466   6.258   6.088
 8510TIP3    H225474   2.357   6.360   6.065
 8511TIP3   OH225475   6.434   7.698   3.513
 8511TIP3    H125476   6.432   7.614   3.559
 8511TIP3    H225477   6.391   7.680   3.429
 8512TIP3   OH225478  -0.021   0.066   0.798
 8512TIP3    H125479  -0.077   0.103   0.730
 8512TIP3    H225480   0.047   0.132   0.811
 8513TIP3   OH225481   1.105   1.415   5.232
 8513TIP3    H125482   1.180   1.380   5.280
 8513TIP3    H225483   1.029   1.368   5.268
 8514TIP3   OH225484   1.449   2.459   0.532
 8514TIP3    H125485   1.386   2.402   0.576
 8514TIP3    H225486   1.398   2.537   0.508
 8515TIP3   OH225487   2.981   5.913   0.197
 8515TIP3    H125488   2.957   5.891   0.287
 8515TIP3    H225489   2.957   6.006   0.189
 8516TIP3   OH225490   6.177   4.586   1.867
 8516TIP3    H125491   6.180   4.490   1.873
 8516TIP3    H225492   6.242   4.615   1.931
 8517TIP3   OH225493   5.840   3.134   2.459
 8517TIP3    H125494   5.821   3.040   2.464
 8517TIP3    H225495   5.913   3.147   2.520
 8518TIP3   OH225496   7.990   2.084   5.292
 8518TIP3    H125497   8.031   2.169   5.304
 8518TIP3    H225498   7.925   2.098   5.223
 8519TIP3   OH225499   2.889   5.064   1.924
 8519TIP3    H125500   2.925   5.091   2.009
 8519TIP3    H225501   2.796   5.051   1.941
 8520TIP3   OH225502   1.402   4.306   4.276
 8520TIP3    H125503   1.336   4.363   4.316
 8520TIP3    H225504   1.412   4.233   4.337
 8521TIP3   OH225505   4.660   3.011   1.546
 8521TIP3    H125506   4.593   3.079   1.554
 8521TIP3    H225507   4.670   2.976   1.635
 8522TIP3   OH225508   5.947   1.716   2.012
 8522TIP3    H125509   5.991   1.681   2.090
 8522TIP3    H225510   5.869   1.662   2.003
 8523TIP3   OH225511   0.430   4.455   1.296
 8523TIP3    H125512   0.510   4.466   1.346
 8523TIP3    H225513   0.416   4.540   1.253
 8524TIP3   OH225514   3.621   1.686   0.550
 8524TIP3    H125515   3.586   1.748   0.487
 8524TIP3    H225516   3.684   1.634   0.500
 8525TIP3   OH225517   1.948   2.981   4.456
 8525TIP3    H125518   1.977   3.059   4.502
 8525TIP3    H225519   1.981   2.992   4.367
 8526TIP3   OH225520   3.255   5.935   6.306
 8526TIP3    H125521   3.208   5.904   6.383
 8526TIP3    H225522   3.342   5.959   6.338
 8527TIP3   OH225523   6.264   6.625   0.759
 8527TIP3    H125524   6.217   6.562   0.703
 8527TIP3    H225525   6.196   6.661   0.816
 8528TIP3   OH225526   3.155   6.807   2.565
 8528TIP3    H125527   3.112   6.893   2.570
 8528TIP3    H225528   3.084   6.744   2.580
 8529TIP3   OH225529   5.999   2.344   4.414
 8529TIP3    H125530   6.029   2.268   4.365
 8529TIP3    H225531   6.010   2.319   4.506
 8530TIP3   OH225532   1.399   3.056   2.653
 8530TIP3    H125533   1.488   3.054   2.618
 8530TIP3    H225534   1.343   3.047   2.575
 8531TIP3   OH225535   5.867   2.825   2.486
 8531TIP3    H125536   5.848   2.818   2.393
 8531TIP3    H225537   5.813   2.757   2.527
 8532TIP3   OH225538   0.491   3.129   1.272
 8532TIP3    H125539   0.430   3.201   1.286
 8532TIP3    H225540   0.562   3.145   1.334
 8533TIP3   OH225541   2.478   5.189   4.584
 8533TIP3    H125542   2.552   5.242   4.555
 8533TIP3    H225543   2.414   5.196   4.513
 8534TIP3   OH225544   0.089   7.223   1.350
 8534TIP3    H125545   0.094   7.146   1.406
 8534TIP3    H225546   0.001   7.257   1.363
 8535TIP3   OH225547   2.261   5.419   1.407
 8535TIP3    H125548   2.252   5.334   1.365
 8535TIP3    H225549   2.343   5.414   1.456
 8536TIP3   OH225550   2.665   5.879   2.769
 8536TIP3    H125551   2.642   5.813   2.704
 8536TIP3    H225552   2.590   5.938   2.772
 8537TIP3   OH225553   4.634   3.983   1.589
 8537TIP3    H125554   4.629   3.897   1.546
 8537TIP3    H225555   4.635   4.046   1.518
 8538TIP3   OH225556   0.711   2.034   3.364
 8538TIP3    H125557   0.762   2.112   3.385
 8538TIP3    H225558   0.662   2.016   3.444
 8539TIP3   OH225559   3.930   0.410   3.353
 8539TIP3    H125560   3.887   0.469   3.415
 8539TIP3    H225561   3.982   0.350   3.407
 8540TIP3   OH225562   3.779   4.284   4.817
 8540TIP3    H125563   3.724   4.235   4.756
 8540TIP3    H225564   3.746   4.259   4.904
 8541TIP3   OH225565   4.006   7.700   6.103
 8541TIP3    H125566   3.997   7.618   6.151
 8541TIP3    H225567   4.092   7.734   6.130
 8542TIP3   OH225568   7.980   3.263   4.099
 8542TIP3    H125569   7.909   3.282   4.038
 8542TIP3    H225570   7.978   3.168   4.109
 8543TIP3   OH225571   3.066   6.178   2.374
 8543TIP3    H125572   3.064   6.274   2.382
 8543TIP3    H225573   3.092   6.162   2.284
 8544TIP3   OH225574   6.926   3.333   1.616
 8544TIP3    H125575   7.009   3.381   1.609
 8544TIP3    H225576   6.944   3.248   1.575
 8545TIP3   OH225577   2.933   3.555   3.362
 8545TIP3    H125578   2.843   3.555   3.396
 8545TIP3    H225579   2.977   3.624   3.412
 8546TIP3   OH225580   2.029   0.929   1.461
 8546TIP3    H125581   2.013   0.890   1.375
 8546TIP3    H225582   2.071   0.860   1.512
 8547TIP3   OH225583   0.556   5.079   2.888
 8547TIP3    H125584   0.581   4.993   2.854
 8547TIP3    H225585   0.626   5.137   2.860
 8548TIP3   OH225586   3.391   7.504   4.006
 8548TIP3    H125587   3.313   7.489   4.059
 8548TIP3    H225588   3.419   7.593   4.029
 8549TIP3   OH225589   5.516   4.145   2.250
 8549TIP3    H125590   5.572   4.206   2.297
 8549TIP3    H225591   5.534   4.060   2.290
 8550TIP3   OH225592   6.768   4.098   0.957
 8550TIP3    H125593   6.825   4.104   1.034
 8550TIP3    H225594   6.746   4.005   0.951
 8551TIP3   OH225595   2.142   1.713   2.191
 8551TIP3    H125596   2.200   1.641   2.216
 8551TIP3    H225597   2.071   1.671   2.142
 8552TIP3   OH225598   0.451   4.508   2.353
 8552TIP3    H125599   0.396   4.512   2.431
 8552TIP3    H225600   0.391   4.525   2.281
 8553TIP3   OH225601   3.913   5.433   2.432
 8553TIP3    H125602   3.830   5.462   2.394
 8553TIP3    H225603   3.910   5.463   2.522
 8554TIP3   OH225604   0.554   1.090   3.852
 8554TIP3    H125605   0.636   1.078   3.900
 8554TIP3    H225606   0.581   1.123   3.766
 8555TIP3   OH225607   0.628   7.168   4.223
 8555TIP3    H125608   0.585   7.086   4.246
 8555TIP3    H225609   0.611   7.179   4.129
 8556TIP3   OH225610   5.494   6.045   0.172
 8556TIP3    H125611   5.583   6.011   0.176
 8556TIP3    H225612   5.447   5.997   0.239
 8557TIP3   OH225613   5.597   2.912   3.316
 8557TIP3    H125614   5.562   2.825   3.336
 8557TIP3    H225615   5.601   2.915   3.221
 8558TIP3   OH225616   7.853   2.292   5.491
 8558TIP3    H125617   7.840   2.268   5.583
 8558TIP3    H225618   7.773   2.338   5.467
 8559TIP3   OH225619   8.076   6.115   1.063
 8559TIP3    H125620   8.031   6.101   1.147
 8559TIP3    H225621   8.007   6.109   0.997
 8560TIP3   OH225622   7.861   6.114   2.944
 8560TIP3    H125623   7.811   6.144   2.868
 8560TIP3    H225624   7.853   6.019   2.943
 8561TIP3   OH225625   3.849   7.705   6.577
 8561TIP3    H125626   3.854   7.610   6.579
 8561TIP3    H225627   3.818   7.726   6.488
 8562TIP3   OH225628   4.139   0.217   1.011
 8562TIP3    H125629   4.201   0.150   0.984
 8562TIP3    H225630   4.054   0.173   1.013
 8563TIP3   OH225631   7.897   5.781   5.110
 8563TIP3    H125632   7.959   5.834   5.058
 8563TIP3    H225633   7.953   5.725   5.163
 8564TIP3   OH225634   7.920   5.096   4.460
 8564TIP3    H125635   7.918   5.010   4.503
 8564TIP3    H225636   7.949   5.078   4.371
 8565TIP3   OH225637   6.105   1.388   2.500
 8565TIP3    H125638   6.115   1.407   2.406
 8565TIP3    H225639   6.185   1.342   2.524
 8566TIP3   OH225640   0.796   2.907   6.573
 8566TIP3    H125641   0.719   2.882   6.624
 8566TIP3    H225642   0.771   2.890   6.482
 8567TIP3   OH225643   6.575   5.643   3.437
 8567TIP3    H125644   6.642   5.609   3.497
 8567TIP3    H225645   6.493   5.608   3.470
 8568TIP3   OH225646   6.635   7.355   4.231
 8568TIP3    H125647   6.727   7.353   4.259
 8568TIP3    H225648   6.591   7.413   4.292
 8569TIP3   OH225649   6.599   0.700   2.543
 8569TIP3    H125650   6.633   0.614   2.570
 8569TIP3    H225651   6.511   0.681   2.511
 8570TIP3   OH225652   2.353   1.401   4.156
 8570TIP3    H125653   2.382   1.352   4.079
 8570TIP3    H225654   2.280   1.350   4.190
 8571TIP3   OH225655   4.414   6.493   1.854
 8571TIP3    H125656   4.464   6.515   1.932
 8571TIP3    H225657   4.380   6.577   1.822
 8572TIP3   OH225658   3.956   4.143   6.086
 8572TIP3    H125659   3.975   4.232   6.059
 8572TIP3    H225660   3.998   4.134   6.171
 8573TIP3   OH225661   4.134   5.730   0.618
 8573TIP3    H125662   4.151   5.666   0.549
 8573TIP3    H225663   4.095   5.680   0.690
 8574TIP3   OH225664   1.207   3.147   3.199
 8574TIP3    H125665   1.288   3.125   3.153
 8574TIP3    H225666   1.203   3.084   3.271
 8575TIP3   OH225667   6.493   4.031   1.127
 8575TIP3    H125668   6.542   4.112   1.113
 8575TIP3    H225669   6.518   3.975   1.053
 8576TIP3   OH225670   4.499   4.470   1.309
 8576TIP3    H125671   4.521   4.402   1.373
 8576TIP3    H225672   4.413   4.501   1.336
 8577TIP3   OH225673   2.101   7.690   2.504
 8577TIP3    H125674   2.030   7.748   2.533
 8577TIP3    H225675   2.167   7.750   2.469
 8578TIP3   OH225676   1.533   0.763   5.230
 8578TIP3    H125677   1.573   0.755   5.317
 8578TIP3    H225678   1.459   0.822   5.244
 8579TIP3   OH225679   4.994   5.426   1.956
 8579TIP3    H125680   5.047   5.368   1.902
 8579TIP3    H225681   4.918   5.447   1.902
 8580TIP3   OH225682   5.088   4.230   0.605
 8580TIP3    H125683   5.107   4.181   0.526
 8580TIP3    H225684   5.019   4.180   0.649
 8581TIP3   OH225685   5.068   7.650   2.872
 8581TIP3    H125686   5.076   7.744   2.853
 8581TIP3    H225687   5.156   7.624   2.901
 8582TIP3   OH225688   8.113   4.161   3.240
 8582TIP3    H125689   8.119   4.073   3.201
 8582TIP3    H225690   8.114   4.220   3.165
 8583TIP3   OH225691   0.993   7.372   1.217
 8583TIP3    H125692   0.902   7.344   1.210
 8583TIP3    H225693   1.001   7.444   1.156
 8584TIP3   OH225694   3.066   4.072   1.665
 8584TIP3    H125695   3.151   4.050   1.626
 8584TIP3    H225696   3.003   4.019   1.617
 8585TIP3   OH225697   1.360   2.787   4.431
 8585TIP3    H125698   1.439   2.736   4.414
 8585TIP3    H225699   1.334   2.821   4.345
 8586TIP3   OH225700   8.082   5.554   4.979
 8586TIP3    H125701   8.099   5.564   5.073
 8586TIP3    H225702   8.087   5.643   4.944
 8587TIP3   OH225703   1.008   1.295   2.290
 8587TIP3    H125704   0.930   1.240   2.282
 8587TIP3    H225705   1.004   1.352   2.213
 8588TIP3   OH225706   0.138   6.630   4.274
 8588TIP3    H125707   0.121   6.630   4.368
 8588TIP3    H225708   0.051   6.636   4.234
 8589TIP3   OH225709   3.653   2.457   5.514
 8589TIP3    H125710   3.562   2.440   5.488
 8589TIP3    H225711   3.647   2.532   5.573
 8590TIP3   OH225712   1.065   3.640   1.095
 8590TIP3    H125713   1.075   3.609   1.005
 8590TIP3    H225714   1.106   3.726   1.096
 8591TIP3   OH225715   4.239   0.317   2.106
 8591TIP3    H125716   4.266   0.396   2.059
 8591TIP3    H225717   4.282   0.245   2.060
 8592TIP3   OH225718   0.043   4.875   2.616
 8592TIP3    H125719   0.001   4.791   2.631
 8592TIP3    H225720   0.055   4.879   2.521
 8593TIP3   OH225721   2.914   2.580   2.510
 8593TIP3    H125722   2.980   2.516   2.485
 8593TIP3    H225723   2.882   2.615   2.426
 8594TIP3   OH225724   1.586   3.462   4.097
 8594TIP3    H125725   1.495   3.434   4.095
 8594TIP3    H225726   1.616   3.441   4.185
 8595TIP3   OH225727   4.701   4.020   5.419
 8595TIP3    H125728   4.700   3.985   5.508
 8595TIP3    H225729   4.616   3.993   5.382
 8596TIP3   OH225730   6.654   6.003   6.269
 8596TIP3    H125731   6.642   6.001   6.174
 8596TIP3    H225732   6.589   5.943   6.303
 8597TIP3   OH225733   2.444   6.564   0.386
 8597TIP3    H125734   2.469   6.472   0.394
 8597TIP3    H225735   2.511   6.603   0.331
 8598TIP3   OH225736   0.976   5.154   0.741
 8598TIP3    H125737   0.884   5.129   0.746
 8598TIP3    H225738   0.998   5.149   0.648
 8599TIP3   OH225739   4.147   3.158   3.187
 8599TIP3    H125740   4.216   3.221   3.208
 8599TIP3    H225741   4.076   3.211   3.150
 8600TIP3   OH225742   2.815   7.241   3.216
 8600TIP3    H125743   2.870   7.204   3.285
 8600TIP3    H225744   2.729   7.199   3.229
 8601TIP3   OH225745   2.160   6.772   6.714
 8601TIP3    H125746   2.158   6.750   6.807
 8601TIP3    H225747   2.133   6.864   6.710
 8602TIP3   OH225748   1.457   7.157   3.250
 8602TIP3    H125749   1.365   7.141   3.273
 8602TIP3    H225750   1.457   7.244   3.211
 8603TIP3   OH225751   1.181   0.743   1.922
 8603TIP3    H125752   1.275   0.751   1.913
 8603TIP3    H225753   1.152   0.830   1.951
 8604TIP3   OH225754   1.116   2.190   5.420
 8604TIP3    H125755   1.124   2.097   5.439
 8604TIP3    H225756   1.131   2.234   5.504
 8605TIP3   OH225757   7.984   2.685   2.016
 8605TIP3    H125758   7.965   2.762   1.962
 8605TIP3    H225759   8.079   2.686   2.026
 8606TIP3   OH225760   2.174   0.433   4.401
 8606TIP3    H125761   2.100   0.373   4.409
 8606TIP3    H225762   2.232   0.410   4.473
 8607TIP3   OH225763   3.821   0.733   0.962
 8607TIP3    H125764   3.871   0.814   0.958
 8607TIP3    H225765   3.833   0.692   0.876
 8608TIP3   OH225766   3.118   1.528   4.482
 8608TIP3    H125767   3.108   1.466   4.555
 8608TIP3    H225768   3.199   1.575   4.503
 8609TIP3   OH225769   1.080   7.379   3.852
 8609TIP3    H125770   1.053   7.360   3.942
 8609TIP3    H225771   1.174   7.364   3.852
 8610TIP3   OH225772   7.375   4.625   1.120
 8610TIP3    H125773   7.356   4.640   1.028
 8610TIP3    H225774   7.430   4.699   1.146
 8611TIP3   OH225775   3.174   1.134   4.388
 8611TIP3    H125776   3.093   1.132   4.439
 8611TIP3    H225777   3.179   1.223   4.354
 8612TIP3   OH225778   3.093   5.282   4.728
 8612TIP3    H125779   3.034   5.271   4.803
 8612TIP3    H225780   3.149   5.355   4.753
 8613TIP3   OH225781   7.668   1.126   1.937
 8613TIP3    H125782   7.729   1.181   1.987
 8613TIP3    H225783   7.651   1.176   1.857
 8614TIP3   OH225784   2.914   4.269   0.442
 8614TIP3    H125785   2.926   4.364   0.435
 8614TIP3    H225786   2.827   4.253   0.405
 8615TIP3   OH225787   4.342   6.327   0.287
 8615TIP3    H125788   4.408   6.312   0.355
 8615TIP3    H225789   4.275   6.261   0.305
 8616TIP3   OH225790   5.633   5.647   5.469
 8616TIP3    H125791   5.560   5.650   5.407
 8616TIP3    H225792   5.592   5.645   5.555
 8617TIP3   OH225793   6.081   4.957   4.865
 8617TIP3    H125794   6.086   4.876   4.814
 8617TIP3    H225795   6.040   5.020   4.806
 8618TIP3   OH225796   5.037   5.830   0.247
 8618TIP3    H125797   5.002   5.861   0.331
 8618TIP3    H225798   5.107   5.770   0.272
 8619TIP3   OH225799   2.835   6.119   1.700
 8619TIP3    H125800   2.871   6.044   1.747
 8619TIP3    H225801   2.740   6.103   1.699
 8620TIP3   OH225802   3.202   6.781   2.289
 8620TIP3    H125803   3.115   6.821   2.280
 8620TIP3    H225804   3.191   6.716   2.358
 8621TIP3   OH225805   0.048   3.638   6.722
 8621TIP3    H125806   0.115   3.622   6.655
 8621TIP3    H225807   0.078   3.716   6.768
 8622TIP3   OH225808   0.889   2.747   4.187
 8622TIP3    H125809   0.814   2.695   4.214
 8622TIP3    H225810   0.874   2.833   4.227
 8623TIP3   OH225811   4.799   6.541   3.282
 8623TIP3    H125812   4.827   6.627   3.249
 8623TIP3    H225813   4.704   6.543   3.276
 8624TIP3   OH225814   1.811   4.273   5.458
 8624TIP3    H125815   1.717   4.277   5.438
 8624TIP3    H225816   1.845   4.205   5.401
 8625TIP3   OH225817   0.373   2.874   1.991
 8625TIP3    H125818   0.413   2.788   2.005
 8625TIP3    H225819   0.320   2.888   2.070
 8626TIP3   OH225820   0.031   7.690   0.893
 8626TIP3    H125821   0.025   7.638   0.813
 8626TIP3    H225822   0.123   7.683   0.919
 8627TIP3   OH225823   5.177   3.482   2.493
 8627TIP3    H125824   5.256   3.524   2.525
 8627TIP3    H225825   5.110   3.550   2.497
 8628TIP3   OH225826   0.969   7.512   5.017
 8628TIP3    H125827   1.001   7.439   4.965
 8628TIP3    H225828   1.042   7.535   5.074
 8629TIP3   OH225829   0.199   0.005   3.533
 8629TIP3    H125830   0.139   0.051   3.592
 8629TIP3    H225831   0.163   0.022   3.445
 8630TIP3   OH225832   6.673   3.268   4.950
 8630TIP3    H125833   6.685   3.254   4.856
 8630TIP3    H225834   6.758   3.303   4.979
 8631TIP3   OH225835   5.701   1.048   6.192
 8631TIP3    H125836   5.690   1.077   6.102
 8631TIP3    H225837   5.795   1.034   6.202
 8632TIP3   OH225838   2.027   5.922   2.954
 8632TIP3    H125839   2.014   5.981   3.028
 8632TIP3    H225840   1.980   5.964   2.881
 8633TIP3   OH225841   4.958   7.094   0.974
 8633TIP3    H125842   4.938   7.035   0.902
 8633TIP3    H225843   4.920   7.052   1.051
 8634TIP3   OH225844   2.756   0.652   2.100
 8634TIP3    H125845   2.669   0.690   2.112
 8634TIP3    H225846   2.776   0.666   2.008
 8635TIP3   OH225847   5.984   7.713   6.609
 8635TIP3    H125848   5.920   7.776   6.641
 8635TIP3    H225849   5.942   7.627   6.621
 8636TIP3   OH225850   0.651   0.781   4.894
 8636TIP3    H125851   0.669   0.754   4.984
 8636TIP3    H225852   0.558   0.803   4.894
 8637TIP3   OH225853   7.113   4.863   0.432
 8637TIP3    H125854   7.019   4.878   0.437
 8637TIP3    H225855   7.125   4.803   0.359
 8638TIP3   OH225856   0.607   1.617   3.961
 8638TIP3    H125857   0.630   1.535   4.005
 8638TIP3    H225858   0.521   1.640   3.997
 8639TIP3   OH225859   1.185   3.230   1.150
 8639TIP3    H125860   1.187   3.217   1.245
 8639TIP3    H225861   1.109   3.180   1.121
 8640TIP3   OH225862   7.355   1.984   0.737
 8640TIP3    H125863   7.391   1.974   0.825
 8640TIP3    H225864   7.421   2.031   0.688
 8641TIP3   OH225865   1.665   3.632   6.205
 8641TIP3    H125866   1.753   3.630   6.243
 8641TIP3    H225867   1.678   3.664   6.116
 8642TIP3   OH225868   5.065   5.701   4.589
 8642TIP3    H125869   4.971   5.692   4.600
 8642TIP3    H225870   5.099   5.612   4.588
 8643TIP3   OH225871   6.562   1.366   3.372
 8643TIP3    H125872   6.538   1.385   3.463
 8643TIP3    H225873   6.482   1.330   3.333
 8644TIP3   OH225874   7.341   1.135   4.772
 8644TIP3    H125875   7.416   1.149   4.829
 8644TIP3    H225876   7.371   1.072   4.707
 8645TIP3   OH225877   5.206   7.478   5.778
 8645TIP3    H125878   5.270   7.438   5.838
 8645TIP3    H225879   5.244   7.563   5.756
 8646TIP3   OH225880   8.131   5.132   1.542
 8646TIP3    H125881   8.178   5.094   1.468
 8646TIP3    H225882   8.055   5.175   1.503
 8647TIP3   OH225883   2.170   0.553   6.687
 8647TIP3    H125884   2.254   0.600   6.688
 8647TIP3    H225885   2.116   0.601   6.749
 8648TIP3   OH225886   3.805   4.311   5.521
 8648TIP3    H125887   3.895   4.282   5.539
 8648TIP3    H225888   3.759   4.300   5.604
 8649TIP3   OH225889   5.091   3.225   6.695
 8649TIP3    H125890   5.014   3.222   6.752
 8649TIP3    H225891   5.063   3.183   6.613
 8650TIP3   OH225892   3.373   3.384   2.262
 8650TIP3    H125893   3.287   3.421   2.280
 8650TIP3    H225894   3.355   3.300   2.221
 8651TIP3   OH225895   5.846   0.605   0.146
 8651TIP3    H125896   5.795   0.686   0.143
 8651TIP3    H225897   5.900   0.614   0.224
 8652TIP3   OH225898   6.542   6.629   4.370
 8652TIP3    H125899   6.450   6.604   4.375
 8652TIP3    H225900   6.575   6.580   4.294
 8653TIP3   OH225901   6.525   0.073   4.453
 8653TIP3    H125902   6.621   0.062   4.457
 8653TIP3    H225903   6.492   0.013   4.519
 8654TIP3   OH225904   5.589   7.046   3.867
 8654TIP3    H125905   5.647   7.010   3.800
 8654TIP3    H225906   5.614   7.001   3.948
 8655TIP3   OH225907   1.827   2.020   1.034
 8655TIP3    H125908   1.867   1.935   1.051
 8655TIP3    H225909   1.791   2.013   0.945
 8656TIP3   OH225910   8.254   6.607   2.087
 8656TIP3    H125911   8.293   6.659   2.017
 8656TIP3    H225912   8.162   6.600   2.064
 8657TIP3   OH225913   6.234   0.510   1.918
 8657TIP3    H125914   6.179   0.579   1.879
 8657TIP3    H225915   6.174   0.437   1.933
 8658TIP3   OH225916   3.878   2.247   0.297
 8658TIP3    H125917   3.794   2.269   0.256
 8658TIP3    H225918   3.942   2.294   0.245
 8659TIP3   OH225919   1.032   0.738   4.105
 8659TIP3    H125920   1.037   0.702   4.194
 8659TIP3    H225921   1.058   0.830   4.116
 8660TIP3   OH225922   1.589   3.589   0.445
 8660TIP3    H125923   1.590   3.548   0.359
 8660TIP3    H225924   1.680   3.589   0.473
 8661TIP3   OH225925   2.557   6.398   6.663
 8661TIP3    H125926   2.557   6.404   6.567
 8661TIP3    H225927   2.549   6.305   6.681
 8662TIP3   OH225928   5.227   6.508   3.304
 8662TIP3    H125929   5.314   6.539   3.331
 8662TIP3    H225930   5.167   6.576   3.335
 8663TIP3   OH225931   1.120   5.122   6.237
 8663TIP3    H125932   1.117   5.028   6.255
 8663TIP3    H225933   1.028   5.149   6.235
 8664TIP3   OH225934   5.595   5.384   0.073
 8664TIP3    H125935   5.637   5.441   0.138
 8664TIP3    H225936   5.611   5.428  -0.011
 8665TIP3   OH225937   4.791   5.914   2.159
 8665TIP3    H125938   4.852   5.965   2.211
 8665TIP3    H225939   4.742   5.979   2.108
 8666TIP3   OH225940   4.295   0.017   5.706
 8666TIP3    H125941   4.203  -0.003   5.688
 8666TIP3    H225942   4.324   0.066   5.630
 8667TIP3   OH225943   5.757   4.856   0.026
 8667TIP3    H125944   5.761   4.944   0.062
 8667TIP3    H225945   5.790   4.800   0.096
 8668TIP3   OH225946   1.219   2.171   5.125
 8668TIP3    H125947   1.305   2.165   5.165
 8668TIP3    H225948   1.229   2.131   5.039
 8669TIP3   OH225949   4.775   4.946   2.894
 8669TIP3    H125950   4.772   5.033   2.853
 8669TIP3    H225951   4.734   4.959   2.979
 8670TIP3   OH225952   3.527   5.078   1.572
 8670TIP3    H125953   3.618   5.093   1.595
 8670TIP3    H225954   3.522   4.985   1.550
 8671TIP3   OH225955   5.525   1.988   2.851
 8671TIP3    H125956   5.489   2.056   2.907
 8671TIP3    H225957   5.620   1.995   2.861
 8672TIP3   OH225958   1.549   3.409   5.158
 8672TIP3    H125959   1.554   3.444   5.247
 8672TIP3    H225960   1.518   3.319   5.170
 8673TIP3   OH225961   3.679   6.116   5.234
 8673TIP3    H125962   3.591   6.128   5.270
 8673TIP3    H225963   3.723   6.059   5.297
 8674TIP3   OH225964   3.741   5.033   2.630
 8674TIP3    H125965   3.817   5.084   2.602
 8674TIP3    H225966   3.674   5.099   2.647
 8675TIP3   OH225967   5.706   0.390   0.135
 8675TIP3    H125968   5.748   0.316   0.179
 8675TIP3    H225969   5.761   0.465   0.158
 8676TIP3   OH225970   5.286   3.968   4.865
 8676TIP3    H125971   5.207   3.949   4.813
 8676TIP3    H225972   5.356   3.923   4.819
 8677TIP3   OH225973   6.665   2.539   4.706
 8677TIP3    H125974   6.657   2.598   4.781
 8677TIP3    H225975   6.645   2.452   4.742
 8678TIP3   OH225976   4.259   0.448   3.343
 8678TIP3    H125977   4.252   0.385   3.414
 8678TIP3    H225978   4.288   0.396   3.268
 8679TIP3   OH225979   5.561   4.678   6.333
 8679TIP3    H125980   5.496   4.731   6.379
 8679TIP3    H225981   5.639   4.683   6.389
 8680TIP3   OH225982   0.992   0.852   5.680
 8680TIP3    H125983   0.997   0.765   5.640
 8680TIP3    H225984   0.953   0.907   5.612
 8681TIP3   OH225985   0.584   5.482   5.386
 8681TIP3    H125986   0.674   5.515   5.385
 8681TIP3    H225987   0.546   5.517   5.467
 8682TIP3   OH225988   4.263   3.966   2.239
 8682TIP3    H125989   4.256   3.978   2.144
 8682TIP3    H225990   4.247   4.052   2.276
 8683TIP3   OH225991   2.298   1.560   4.674
 8683TIP3    H125992   2.368   1.499   4.651
 8683TIP3    H225993   2.339   1.621   4.735
 8684TIP3   OH225994   1.798   4.627   3.847
 8684TIP3    H125995   1.731   4.579   3.800
 8684TIP3    H225996   1.756   4.655   3.928
 8685TIP3   OH225997   5.155   1.234   6.157
 8685TIP3    H125998   5.249   1.220   6.169
 8685TIP3    H225999   5.114   1.175   6.221
 8686TIP3   OH226000   0.254   4.177   4.619
 8686TIP3    H126001   0.286   4.146   4.534
 8686TIP3    H226002   0.333   4.181   4.673
 8687TIP3   OH226003   7.268   1.688   3.699
 8687TIP3    H126004   7.196   1.750   3.689
 8687TIP3    H226005   7.234   1.605   3.665
 8688TIP3   OH226006   0.241   3.096   5.268
 8688TIP3    H126007   0.258   3.122   5.177
 8688TIP3    H226008   0.207   3.175   5.309
 8689TIP3   OH226009   1.610   5.681   6.398
 8689TIP3    H126010   1.611   5.585   6.401
 8689TIP3    H226011   1.528   5.706   6.439
 8690TIP3   OH226012   1.589   1.674   2.624
 8690TIP3    H126013   1.494   1.659   2.615
 8690TIP3    H226014   1.604   1.669   2.718
 8691TIP3   OH226015   1.693   2.324   1.301
 8691TIP3    H126016   1.731   2.329   1.213
 8691TIP3    H226017   1.768   2.309   1.358
 8692TIP3   OH226018   0.628   1.468   2.226
 8692TIP3    H126019   0.549   1.431   2.264
 8692TIP3    H226020   0.678   1.499   2.302
 8693TIP3   OH226021   4.636   4.006   6.367
 8693TIP3    H126022   4.545   3.978   6.361
 8693TIP3    H226023   4.631   4.102   6.366
 8694TIP3   OH226024   3.406   6.768   0.705
 8694TIP3    H126025   3.396   6.737   0.616
 8694TIP3    H226026   3.326   6.743   0.750
 8695TIP3   OH226027   1.968   2.596   6.087
 8695TIP3    H126028   2.057   2.632   6.090
 8695TIP3    H226029   1.919   2.655   6.030
 8696TIP3   OH226030   4.992   1.711   6.150
 8696TIP3    H126031   5.053   1.785   6.140
 8696TIP3    H226032   4.999   1.686   6.242
 8697TIP3   OH226033   3.855   3.633   3.541
 8697TIP3    H126034   3.765   3.602   3.556
 8697TIP3    H226035   3.867   3.625   3.446
 8698TIP3   OH226036   0.447   3.376   4.638
 8698TIP3    H126037   0.364   3.396   4.681
 8698TIP3    H226038   0.498   3.457   4.645
 8699TIP3   OH226039   1.921   1.788   0.447
 8699TIP3    H126040   1.836   1.826   0.467
 8699TIP3    H226041   1.941   1.818   0.358
 8700TIP3   OH226042   5.683   1.228   0.936
 8700TIP3    H126043   5.733   1.164   0.886
 8700TIP3    H226044   5.728   1.311   0.920
 8701TIP3   OH226045   4.160   7.477   1.265
 8701TIP3    H126046   4.105   7.418   1.214
 8701TIP3    H226047   4.170   7.555   1.209
 8702TIP3   OH226048   1.407   2.408   1.786
 8702TIP3    H126049   1.439   2.493   1.818
 8702TIP3    H226050   1.467   2.385   1.716
 8703TIP3   OH226051   6.539   2.963   1.653
 8703TIP3    H126052   6.591   2.885   1.674
 8703TIP3    H226053   6.465   2.960   1.714
 8704TIP3   OH226054   4.551   4.754   4.923
 8704TIP3    H126055   4.503   4.836   4.930
 8704TIP3    H226056   4.620   4.761   4.989
 8705TIP3   OH226057   4.372   0.223   1.525
 8705TIP3    H126058   4.333   0.265   1.601
 8705TIP3    H226059   4.301   0.216   1.462
 8706TIP3   OH226060   0.501   0.684   5.929
 8706TIP3    H126061   0.565   0.745   5.893
 8706TIP3    H226062   0.424   0.738   5.948
 8707TIP3   OH226063   3.200   2.174   4.674
 8707TIP3    H126064   3.201   2.085   4.638
 8707TIP3    H226065   3.110   2.204   4.659
 8708TIP3   OH226066   4.347   1.881   2.360
 8708TIP3    H126067   4.335   1.974   2.383
 8708TIP3    H226068   4.376   1.883   2.269
 8709TIP3   OH226069   6.529   0.692   0.812
 8709TIP3    H126070   6.551   0.710   0.904
 8709TIP3    H226071   6.520   0.779   0.773
 8710TIP3   OH226072   6.467   4.292   3.192
 8710TIP3    H126073   6.433   4.329   3.274
 8710TIP3    H226074   6.493   4.368   3.141
 8711TIP3   OH226075   5.295   6.800   2.079
 8711TIP3    H126076   5.257   6.887   2.082
 8711TIP3    H226077   5.368   6.803   2.141
 8712TIP3   OH226078   4.655   3.033   4.322
 8712TIP3    H126079   4.670   2.948   4.364
 8712TIP3    H226080   4.587   3.075   4.375
 8713TIP3   OH226081   8.156   3.373   5.021
 8713TIP3    H126082   8.174   3.406   4.933
 8713TIP3    H226083   8.219   3.419   5.077
 8714TIP3   OH226084   6.462   6.621   2.541
 8714TIP3    H126085   6.484   6.572   2.620
 8714TIP3    H226086   6.509   6.704   2.550
 8715TIP3   OH226087   4.293   6.215   1.353
 8715TIP3    H126088   4.348   6.140   1.333
 8715TIP3    H226089   4.293   6.219   1.449
 8716TIP3   OH226090   2.676   1.125   1.941
 8716TIP3    H126091   2.618   1.201   1.935
 8716TIP3    H226092   2.653   1.084   2.024
 8717TIP3   OH226093   3.134   4.249   6.733
 8717TIP3    H126094   3.184   4.168   6.731
 8717TIP3    H226095   3.088   4.252   6.650
 8718TIP3   OH226096   2.035   1.326   2.343
 8718TIP3    H126097   2.075   1.402   2.385
 8718TIP3    H226098   2.109   1.279   2.304
 8719TIP3   OH226099   7.545   6.745   0.349
 8719TIP3    H126100   7.467   6.748   0.293
 8719TIP3    H226101   7.591   6.827   0.331
 8720TIP3   OH226102   2.375   2.681   3.847
 8720TIP3    H126103   2.292   2.675   3.895
 8720TIP3    H226104   2.440   2.703   3.914
 8721TIP3   OH226105  -0.024   3.735   3.723
 8721TIP3    H126106  -0.032   3.643   3.749
 8721TIP3    H226107   0.056   3.765   3.766
 8722TIP3   OH226108   0.962   4.116   0.507
 8722TIP3    H126109   1.016   4.037   0.500
 8722TIP3    H226110   1.024   4.188   0.494
 8723TIP3   OH226111   7.368   1.198   5.207
 8723TIP3    H126112   7.281   1.239   5.211
 8723TIP3    H226113   7.350   1.104   5.199
 8724TIP3   OH226114   4.087   3.888   6.599
 8724TIP3    H126115   4.058   3.852   6.515
 8724TIP3    H226116   4.108   3.980   6.579
 8725TIP3   OH226117   1.080   2.555   3.374
 8725TIP3    H126118   1.006   2.495   3.388
 8725TIP3    H226119   1.078   2.575   3.281
 8726TIP3   OH226120   3.733   6.311   5.502
 8726TIP3    H126121   3.796   6.295   5.573
 8726TIP3    H226122   3.707   6.223   5.473
 8727TIP3   OH226123   2.245   5.843   2.804
 8727TIP3    H126124   2.179   5.848   2.873
 8727TIP3    H226125   2.197   5.809   2.728
 8728TIP3   OH226126   6.147   7.465   2.874
 8728TIP3    H126127   6.084   7.406   2.832
 8728TIP3    H226128   6.161   7.429   2.961
 8729TIP3   OH226129   0.361   2.933   2.745
 8729TIP3    H126130   0.296   2.883   2.794
 8729TIP3    H226131   0.441   2.928   2.798
 8730TIP3   OH226132   2.274   2.124   1.329
 8730TIP3    H126133   2.282   2.118   1.424
 8730TIP3    H226134   2.351   2.173   1.301
 8731TIP3   OH226135   5.441   7.322   3.101
 8731TIP3    H126136   5.432   7.358   3.189
 8731TIP3    H226137   5.431   7.227   3.112
 8732TIP3   OH226138   5.030   7.607   3.524
 8732TIP3    H126139   4.968   7.673   3.554
 8732TIP3    H226140   5.083   7.587   3.601
 8733TIP3   OH226141   1.848   6.625   6.646
 8733TIP3    H126142   1.907   6.642   6.573
 8733TIP3    H226143   1.906   6.607   6.720
 8734TIP3   OH226144   5.220   1.943   1.225
 8734TIP3    H126145   5.313   1.923   1.229
 8734TIP3    H226146   5.214   2.020   1.169
 8735TIP3   OH226147   1.299   0.303   3.674
 8735TIP3    H126148   1.352   0.349   3.738
 8735TIP3    H226149   1.361   0.248   3.626
 8736TIP3   OH226150   3.146   3.286   3.943
 8736TIP3    H126151   3.225   3.273   3.995
 8736TIP3    H226152   3.127   3.379   3.949
 8737TIP3   OH226153   7.971   5.875   0.072
 8737TIP3    H126154   8.001   5.806   0.013
 8737TIP3    H226155   7.899   5.835   0.120
 8738TIP3   OH226156   3.693   2.088   0.611
 8738TIP3    H126157   3.612   2.137   0.623
 8738TIP3    H226158   3.709   2.088   0.517
 8739TIP3   OH226159   7.654   3.762   4.051
 8739TIP3    H126160   7.611   3.844   4.076
 8739TIP3    H226161   7.697   3.732   4.132
 8740TIP3   OH226162   3.311   6.367   1.688
 8740TIP3    H126163   3.361   6.286   1.682
 8740TIP3    H226164   3.356   6.428   1.629
 8741TIP3   OH226165   6.834   0.614   2.193
 8741TIP3    H126166   6.790   0.588   2.112
 8741TIP3    H226167   6.808   0.548   2.257
 8742TIP3   OH226168   3.809   0.962   3.789
 8742TIP3    H126169   3.896   1.003   3.784
 8742TIP3    H226170   3.779   0.958   3.698
 8743TIP3   OH226171   4.796   5.752   4.662
 8743TIP3    H126172   4.745   5.814   4.714
 8743TIP3    H226173   4.737   5.724   4.593
 8744TIP3   OH226174   6.184   5.873   0.271
 8744TIP3    H126175   6.208   5.789   0.233
 8744TIP3    H226176   6.213   5.938   0.207
 8745TIP3   OH226177   2.694   1.053   6.523
 8745TIP3    H126178   2.667   1.035   6.613
 8745TIP3    H226179   2.668   1.144   6.507
 8746TIP3   OH226180   7.840   5.835   1.121
 8746TIP3    H126181   7.746   5.828   1.104
 8746TIP3    H226182   7.860   5.760   1.178
 8747TIP3   OH226183   2.801   5.574   2.418
 8747TIP3    H126184   2.861   5.588   2.491
 8747TIP3    H226185   2.764   5.487   2.433
 8748TIP3   OH226186   6.186   6.006   5.857
 8748TIP3    H126187   6.150   6.075   5.913
 8748TIP3    H226188   6.159   5.924   5.899
 8749TIP3   OH226189   4.975   2.733   2.165
 8749TIP3    H126190   5.032   2.722   2.089
 8749TIP3    H226191   5.019   2.685   2.235
 8750TIP3   OH226192   5.834   2.587   1.383
 8750TIP3    H126193   5.748   2.603   1.423
 8750TIP3    H226194   5.880   2.670   1.391
 8751TIP3   OH226195   1.721   2.104   5.476
 8751TIP3    H126196   1.746   2.037   5.413
 8751TIP3    H226197   1.765   2.184   5.445
 8752TIP3   OH226198   7.319   3.641   2.828
 8752TIP3    H126199   7.278   3.597   2.754
 8752TIP3    H226200   7.368   3.572   2.874
 8753TIP3   OH226201   5.164   7.081   3.627
 8753TIP3    H126202   5.196   7.034   3.704
 8753TIP3    H226203   5.202   7.169   3.635
 8754TIP3   OH226204   0.839   2.776   3.296
 8754TIP3    H126205   0.872   2.780   3.386
 8754TIP3    H226206   0.817   2.867   3.275
 8755TIP3   OH226207   0.226   2.356   4.519
 8755TIP3    H126208   0.158   2.293   4.494
 8755TIP3    H226209   0.307   2.319   4.485
 8756TIP3   OH226210   3.369   4.838   3.070
 8756TIP3    H126211   3.289   4.786   3.058
 8756TIP3    H226212   3.367   4.863   3.162
 8757TIP3   OH226213   2.128   2.401   3.579
 8757TIP3    H126214   2.089   2.485   3.555
 8757TIP3    H226215   2.106   2.390   3.671
 8758TIP3   OH226216   3.115   7.504   5.251
 8758TIP3    H126217   3.176   7.528   5.181
 8758TIP3    H226218   3.161   7.438   5.302
 8759TIP3   OH226219   3.015   6.442   2.254
 8759TIP3    H126220   3.105   6.477   2.258
 8759TIP3    H226221   2.982   6.469   2.169
 8760TIP3   OH226222   0.504   2.240   6.085
 8760TIP3    H126223   0.488   2.148   6.065
 8760TIP3    H226224   0.516   2.243   6.180
 8761TIP3   OH226225   0.474   4.606   6.513
 8761TIP3    H126226   0.540   4.581   6.578
 8761TIP3    H226227   0.420   4.671   6.557
 8762TIP3   OH226228   3.454   7.218   4.338
 8762TIP3    H126229   3.456   7.204   4.243
 8762TIP3    H226230   3.489   7.307   4.350
 8763TIP3   OH226231   5.960   2.074   3.002
 8763TIP3    H126232   5.898   2.002   3.014
 8763TIP3    H226233   5.978   2.105   3.091
 8764TIP3   OH226234   7.699   5.705   4.108
 8764TIP3    H126235   7.725   5.729   4.197
 8764TIP3    H226236   7.650   5.623   4.118
 8765TIP3   OH226237   2.663   2.712   5.752
 8765TIP3    H126238   2.759   2.715   5.757
 8765TIP3    H226239   2.634   2.729   5.841
 8766TIP3   OH226240   2.590   4.126   0.527
 8766TIP3    H126241   2.635   4.146   0.445
 8766TIP3    H226242   2.633   4.181   0.593
 8767TIP3   OH226243   3.614   6.401   5.228
 8767TIP3    H126244   3.585   6.485   5.263
 8767TIP3    H226245   3.602   6.339   5.300
 8768TIP3   OH226246   4.477   7.069   5.187
 8768TIP3    H126247   4.418   6.994   5.193
 8768TIP3    H226248   4.421   7.146   5.196
 8769TIP3   OH226249   3.604   5.928   5.703
 8769TIP3    H126250   3.510   5.934   5.721
 8769TIP3    H226251   3.636   5.863   5.765
 8770TIP3   OH226252   4.434   1.947   6.487
 8770TIP3    H126253   4.432   1.895   6.407
 8770TIP3    H226254   4.363   1.911   6.541
 8771TIP3   OH226255   2.822   1.937   5.539
 8771TIP3    H126256   2.892   1.873   5.533
 8771TIP3    H226257   2.840   1.999   5.469
 8772TIP3   OH226258   3.584   2.772   0.662
 8772TIP3    H126259   3.578   2.676   0.669
 8772TIP3    H226260   3.523   2.795   0.592
 8773TIP3   OH226261   3.913   3.804   0.763
 8773TIP3    H126262   3.896   3.781   0.672
 8773TIP3    H226263   3.895   3.724   0.812
 8774TIP3   OH226264   1.162   0.443   6.303
 8774TIP3    H126265   1.140   0.401   6.220
 8774TIP3    H226266   1.090   0.421   6.362
 8775TIP3   OH226267   3.532   0.898   6.128
 8775TIP3    H126268   3.515   0.943   6.045
 8775TIP3    H226269   3.449   0.901   6.174
 8776TIP3   OH226270   3.945   2.827   0.314
 8776TIP3    H126271   3.956   2.863   0.226
 8776TIP3    H226272   3.869   2.874   0.349
 8777TIP3   OH226273   1.623   0.923   3.756
 8777TIP3    H126274   1.636   0.862   3.828
 8777TIP3    H226275   1.589   1.003   3.797
 8778TIP3   OH226276   5.710   3.601   4.687
 8778TIP3    H126277   5.717   3.521   4.636
 8778TIP3    H226278   5.729   3.671   4.624
 8779TIP3   OH226279   1.023   0.217   2.300
 8779TIP3    H126280   1.117   0.237   2.304
 8779TIP3    H226281   1.007   0.165   2.379
 8780TIP3   OH226282   2.251   4.297   1.709
 8780TIP3    H126283   2.298   4.259   1.634
 8780TIP3    H226284   2.298   4.264   1.785
 8781TIP3   OH226285   1.513   5.315   2.545
 8781TIP3    H126286   1.528   5.294   2.637
 8781TIP3    H226287   1.466   5.239   2.511
 8782TIP3   OH226288   3.891   3.705   0.487
 8782TIP3    H126289   3.984   3.699   0.465
 8782TIP3    H226290   3.863   3.790   0.452
 8783TIP3   OH226291   7.032   1.936   0.007
 8783TIP3    H126292   7.125   1.958   0.002
 8783TIP3    H226293   7.022   1.891   0.091
 8784TIP3   OH226294   6.679   1.790   4.114
 8784TIP3    H126295   6.670   1.850   4.188
 8784TIP3    H226296   6.616   1.822   4.049
 8785TIP3   OH226297   8.266   3.982   2.062
 8785TIP3    H126298   8.348   3.932   2.059
 8785TIP3    H226299   8.216   3.940   2.132
 8786TIP3   OH226300   6.096   6.643   4.895
 8786TIP3    H126301   6.168   6.580   4.882
 8786TIP3    H226302   6.018   6.588   4.901
 8787TIP3   OH226303   1.012   6.793   3.706
 8787TIP3    H126304   0.918   6.779   3.711
 8787TIP3    H226305   1.023   6.888   3.711
 8788TIP3   OH226306   0.110   0.198   1.220
 8788TIP3    H126307   0.083   0.284   1.188
 8788TIP3    H226308   0.071   0.136   1.159
 8789TIP3   OH226309   3.360   1.534   2.828
 8789TIP3    H126310   3.451   1.541   2.800
 8789TIP3    H226311   3.332   1.448   2.798
 8790TIP3   OH226312   6.730   5.677   4.393
 8790TIP3    H126313   6.774   5.756   4.424
 8790TIP3    H226314   6.640   5.686   4.424
 8791TIP3   OH226315   5.677   5.012   5.377
 8791TIP3    H126316   5.653   4.943   5.314
 8791TIP3    H226317   5.768   5.033   5.355
 8792TIP3   OH226318   2.397   7.095   1.988
 8792TIP3    H126319   2.345   7.087   2.068
 8792TIP3    H226320   2.487   7.100   2.017
 8793TIP3   OH226321   1.437   0.445   3.376
 8793TIP3    H126322   1.469   0.476   3.291
 8793TIP3    H226323   1.427   0.525   3.428
 8794TIP3   OH226324   3.679   2.521   6.674
 8794TIP3    H126325   3.604   2.507   6.732
 8794TIP3    H226326   3.673   2.613   6.648
 8795TIP3   OH226327   2.100   1.116   1.642
 8795TIP3    H126328   2.064   1.074   1.564
 8795TIP3    H226329   2.185   1.073   1.654
 8796TIP3   OH226330   5.021   4.839   5.079
 8796TIP3    H126331   5.086   4.878   5.138
 8796TIP3    H226332   5.070   4.774   5.029
 8797TIP3   OH226333   1.042   0.757   2.230
 8797TIP3    H126334   1.038   0.757   2.325
 8797TIP3    H226335   1.106   0.825   2.208
 8798TIP3   OH226336   2.009   4.755   2.109
 8798TIP3    H126337   1.998   4.697   2.035
 8798TIP3    H226338   2.092   4.800   2.094
 8799TIP3   OH226339   2.024   4.135   1.309
 8799TIP3    H126340   2.001   4.151   1.218
 8799TIP3    H226341   2.074   4.212   1.336
 8800TIP3   OH226342   5.861   4.035   0.228
 8800TIP3    H126343   5.827   4.124   0.221
 8800TIP3    H226344   5.801   3.982   0.176
 8801TIP3   OH226345   6.834   2.951   0.226
 8801TIP3    H126346   6.927   2.928   0.218
 8801TIP3    H226347   6.834   3.047   0.233
 8802TIP3   OH226348   6.856   7.694   5.347
 8802TIP3    H126349   6.768   7.711   5.312
 8802TIP3    H226350   6.913   7.752   5.298
 8803TIP3   OH226351   0.091   1.431   2.221
 8803TIP3    H126352   0.121   1.344   2.194
 8803TIP3    H226353   0.029   1.414   2.292
 8804TIP3   OH226354   4.773   6.765   5.328
 8804TIP3    H126355   4.814   6.691   5.372
 8804TIP3    H226356   4.684   6.736   5.310
 8805TIP3   OH226357   3.590   5.012   4.793
 8805TIP3    H126358   3.569   4.995   4.701
 8805TIP3    H226359   3.678   4.976   4.805
 8806TIP3   OH226360   2.065   2.677   4.119
 8806TIP3    H126361   2.024   2.625   4.189
 8806TIP3    H226362   2.011   2.660   4.043
 8807TIP3   OH226363   3.985   3.829   4.730
 8807TIP3    H126364   3.891   3.831   4.745
 8807TIP3    H226365   4.007   3.917   4.698
 8808TIP3   OH226366   4.185   2.097   6.480
 8808TIP3    H126367   4.143   2.183   6.481
 8808TIP3    H226368   4.200   2.076   6.572
 8809TIP3   OH226369   0.664   0.586   4.541
 8809TIP3    H126370   0.725   0.653   4.571
 8809TIP3    H226371   0.714   0.532   4.480
 8810TIP3   OH226372   2.044   7.420   6.352
 8810TIP3    H126373   1.962   7.377   6.330
 8810TIP3    H226374   2.112   7.361   6.318
 8811TIP3   OH226375   1.050   7.831   1.268
 8811TIP3    H126376   1.039   7.787   1.183
 8811TIP3    H226377   1.058   7.760   1.331
 8812TIP3   OH226378   4.187   1.169   5.041
 8812TIP3    H126379   4.157   1.108   4.974
 8812TIP3    H226380   4.272   1.200   5.010
 8813TIP3   OH226381   4.354   0.984   2.522
 8813TIP3    H126382   4.295   0.959   2.451
 8813TIP3    H226383   4.303   0.970   2.602
 8814TIP3   OH226384   7.681   5.940   5.858
 8814TIP3    H126385   7.659   5.892   5.778
 8814TIP3    H226386   7.697   6.029   5.829
 8815TIP3   OH226387   4.034   4.635   2.523
 8815TIP3    H126388   4.088   4.664   2.450
 8815TIP3    H226389   4.074   4.677   2.600
 8816TIP3   OH226390   7.226   1.395   2.813
 8816TIP3    H126391   7.228   1.481   2.855
 8816TIP3    H226392   7.317   1.366   2.813
 8817TIP3   OH226393   7.532   0.739   4.534
 8817TIP3    H126394   7.607   0.692   4.497
 8817TIP3    H226395   7.571   0.815   4.578
 8818TIP3   OH226396   5.814   0.740   1.869
 8818TIP3    H126397   5.892   0.710   1.916
 8818TIP3    H226398   5.764   0.660   1.852
 8819TIP3   OH226399   5.148   3.462   0.390
 8819TIP3    H126400   5.229   3.463   0.440
 8819TIP3    H226401   5.173   3.423   0.306
 8820TIP3   OH226402   6.015   4.660   0.816
 8820TIP3    H126403   5.946   4.660   0.883
 8820TIP3    H226404   5.990   4.589   0.757
 8821TIP3   OH226405   7.393   3.324   5.496
 8821TIP3    H126406   7.339   3.344   5.420
 8821TIP3    H226407   7.360   3.239   5.527
 8822TIP3   OH226408   7.003   3.234   1.012
 8822TIP3    H126409   7.038   3.264   0.928
 8822TIP3    H226410   6.968   3.313   1.052
 8823TIP3   OH226411   1.857   2.503   3.517
 8823TIP3    H126412   1.825   2.485   3.429
 8823TIP3    H226413   1.879   2.597   3.516
 8824TIP3   OH226414   4.456   3.400   5.825
 8824TIP3    H126415   4.419   3.335   5.885
 8824TIP3    H226416   4.397   3.474   5.829
 8825TIP3   OH226417   7.803   0.845   1.914
 8825TIP3    H126418   7.753   0.925   1.930
 8825TIP3    H226419   7.792   0.828   1.821
 8826TIP3   OH226420   1.602   5.512   1.394
 8826TIP3    H126421   1.555   5.569   1.333
 8826TIP3    H226422   1.667   5.569   1.436
 8827TIP3   OH226423   2.087   6.529   2.820
 8827TIP3    H126424   2.120   6.616   2.845
 8827TIP3    H226425   2.047   6.495   2.899
 8828TIP3   OH226426   4.333   0.605   3.885
 8828TIP3    H126427   4.311   0.512   3.892
 8828TIP3    H226428   4.344   0.620   3.791
 8829TIP3   OH226429   5.445   1.644   3.154
 8829TIP3    H126430   5.484   1.572   3.204
 8829TIP3    H226431   5.358   1.657   3.194
 8830TIP3   OH226432   2.513   1.655   5.860
 8830TIP3    H126433   2.550   1.568   5.842
 8830TIP3    H226434   2.521   1.665   5.955
 8831TIP3   OH226435   4.614   5.524   1.836
 8831TIP3    H126436   4.564   5.443   1.839
 8831TIP3    H226437   4.689   5.504   1.781
 8832TIP3   OH226438   2.122   6.192   3.092
 8832TIP3    H126439   2.135   6.248   3.168
 8832TIP3    H226440   2.209   6.159   3.071
 8833TIP3   OH226441   7.636   5.660   1.366
 8833TIP3    H126442   7.639   5.590   1.300
 8833TIP3    H226443   7.606   5.616   1.446
 8834TIP3   OH226444   8.042   0.917   2.072
 8834TIP3    H126445   7.979   0.875   2.013
 8834TIP3    H226446   8.128   0.889   2.039
 8835TIP3   OH226447   0.373   2.543   0.307
 8835TIP3    H126448   0.321   2.608   0.355
 8835TIP3    H226449   0.316   2.465   0.304
 8836TIP3   OH226450   3.081   5.185   5.156
 8836TIP3    H126451   3.081   5.224   5.244
 8836TIP3    H226452   3.173   5.188   5.129
 8837TIP3   OH226453   1.055   3.256   4.463
 8837TIP3    H126454   0.992   3.298   4.405
 8837TIP3    H226455   1.005   3.232   4.541
 8838TIP3   OH226456   2.744   6.846   1.186
 8838TIP3    H126457   2.732   6.833   1.092
 8838TIP3    H226458   2.743   6.758   1.223
 8839TIP3   OH226459   5.218   2.252   5.494
 8839TIP3    H126460   5.252   2.312   5.428
 8839TIP3    H226461   5.175   2.309   5.558
 8840TIP3   OH226462   7.426   3.590   1.906
 8840TIP3    H126463   7.412   3.684   1.915
 8840TIP3    H226464   7.518   3.582   1.879
 8841TIP3   OH226465   6.709   1.174   6.189
 8841TIP3    H126466   6.649   1.099   6.187
 8841TIP3    H226467   6.657   1.248   6.156
 8842TIP3   OH226468   0.133   7.541   4.440
 8842TIP3    H126469   0.162   7.455   4.472
 8842TIP3    H226470   0.064   7.567   4.501
 8843TIP3   OH226471   0.928   7.269   1.511
 8843TIP3    H126472   0.842   7.232   1.531
 8843TIP3    H226473   0.953   7.227   1.428
 8844TIP3   OH226474   0.463   5.520   5.632
 8844TIP3    H126475   0.488   5.581   5.702
 8844TIP3    H226476   0.404   5.458   5.675
 8845TIP3   OH226477   0.768   3.350   6.282
 8845TIP3    H126478   0.701   3.417   6.297
 8845TIP3    H226479   0.850   3.392   6.308
 8846TIP3   OH226480   2.981   3.798   3.512
 8846TIP3    H126481   2.894   3.839   3.510
 8846TIP3    H226482   2.977   3.734   3.583
 8847TIP3   OH226483   7.414   5.224   3.616
 8847TIP3    H126484   7.451   5.296   3.667
 8847TIP3    H226485   7.430   5.249   3.525
 8848TIP3   OH226486   3.519   5.109   6.058
 8848TIP3    H126487   3.591   5.136   6.116
 8848TIP3    H226488   3.440   5.146   6.099
 8849TIP3   OH226489   6.936   5.072   5.127
 8849TIP3    H126490   7.022   5.032   5.143
 8849TIP3    H226491   6.875   4.997   5.125
 8850TIP3   OH226492   1.209   4.315   0.517
 8850TIP3    H126493   1.292   4.282   0.483
 8850TIP3    H226494   1.231   4.399   0.558
 8851TIP3   OH226495   5.604   6.501   6.299
 8851TIP3    H126496   5.632   6.457   6.219
 8851TIP3    H226497   5.686   6.516   6.347
 8852TIP3   OH226498   2.611   3.495   1.728
 8852TIP3    H126499   2.694   3.515   1.771
 8852TIP3    H226500   2.560   3.448   1.794
 8853TIP3   OH226501   3.735   3.874   4.792
 8853TIP3    H126502   3.654   3.849   4.838
 8853TIP3    H226503   3.707   3.886   4.701
 8854TIP3   OH226504   5.553   0.442   2.686
 8854TIP3    H126505   5.631   0.467   2.735
 8854TIP3    H226506   5.568   0.478   2.598
 8855TIP3   OH226507   2.154   5.698   6.312
 8855TIP3    H126508   2.108   5.724   6.391
 8855TIP3    H226509   2.231   5.650   6.344
 8856TIP3   OH226510   3.015   2.886   0.659
 8856TIP3    H126511   2.943   2.845   0.708
 8856TIP3    H226512   2.983   2.891   0.569
 8857TIP3   OH226513   7.245   1.660   1.589
 8857TIP3    H126514   7.249   1.755   1.576
 8857TIP3    H226515   7.336   1.631   1.591
 8858TIP3   OH226516   5.871   5.157   4.091
 8858TIP3    H126517   5.940   5.096   4.065
 8858TIP3    H226518   5.907   5.243   4.073
 8859TIP3   OH226519   5.489   4.380   4.169
 8859TIP3    H126520   5.509   4.355   4.079
 8859TIP3    H226521   5.394   4.379   4.174
 8860TIP3   OH226522   6.161   2.836   2.603
 8860TIP3    H126523   6.203   2.791   2.529
 8860TIP3    H226524   6.070   2.809   2.598
 8861TIP3   OH226525   6.444   7.426   5.915
 8861TIP3    H126526   6.477   7.447   6.002
 8861TIP3    H226527   6.383   7.354   5.929
 8862TIP3   OH226528   3.530   6.505   4.225
 8862TIP3    H126529   3.537   6.468   4.313
 8862TIP3    H226530   3.492   6.434   4.172
 8863TIP3   OH226531   1.754   2.482   3.899
 8863TIP3    H126532   1.699   2.476   3.821
 8863TIP3    H226533   1.759   2.576   3.917
 8864TIP3   OH226534   0.171   5.014   4.965
 8864TIP3    H126535   0.220   5.096   4.957
 8864TIP3    H226536   0.150   5.007   5.058
 8865TIP3   OH226537   4.038   0.735   0.754
 8865TIP3    H126538   4.021   0.644   0.728
 8865TIP3    H226539   4.026   0.785   0.674
 8866TIP3   OH226540   7.446   3.402   2.127
 8866TIP3    H126541   7.430   3.319   2.081
 8866TIP3    H226542   7.422   3.469   2.064
 8867TIP3   OH226543   2.079   2.769   1.527
 8867TIP3    H126544   2.109   2.842   1.473
 8867TIP3    H226545   1.983   2.777   1.527
 8868TIP3   OH226546   7.379   0.338   5.569
 8868TIP3    H126547   7.336   0.421   5.550
 8868TIP3    H226548   7.381   0.333   5.664
 8869TIP3   OH226549   3.323   5.896   5.771
 8869TIP3    H126550   3.357   5.814   5.806
 8869TIP3    H226551   3.228   5.882   5.764
 8870TIP3   OH226552   2.032   5.025   5.881
 8870TIP3    H126553   1.995   5.046   5.796
 8870TIP3    H226554   2.079   5.104   5.908
 8871TIP3   OH226555   5.826   0.493   5.861
 8871TIP3    H126556   5.871   0.509   5.778
 8871TIP3    H226557   5.734   0.510   5.842
 8872TIP3   OH226558   0.499   1.128   0.053
 8872TIP3    H126559   0.449   1.051   0.078
 8872TIP3    H226560   0.434   1.192   0.026
 8873TIP3   OH226561   4.196   6.812   2.599
 8873TIP3    H126562   4.253   6.812   2.522
 8873TIP3    H226563   4.256   6.814   2.674
 8874TIP3   OH226564   4.865   3.172   2.796
 8874TIP3    H126565   4.941   3.198   2.744
 8874TIP3    H226566   4.901   3.156   2.884
 8875TIP3   OH226567   8.230   3.438   3.743
 8875TIP3    H126568   8.288   3.407   3.673
 8875TIP3    H226569   8.163   3.370   3.751
 8876TIP3   OH226570   7.634   2.062   2.987
 8876TIP3    H126571   7.692   1.996   2.949
 8876TIP3    H226572   7.548   2.020   2.989
 8877TIP3   OH226573   6.045   3.368   1.491
 8877TIP3    H126574   5.987   3.374   1.567
 8877TIP3    H226575   5.987   3.380   1.416
 8878TIP3   OH226576   1.897   0.372   6.496
 8878TIP3    H126577   1.912   0.392   6.589
 8878TIP3    H226578   1.805   0.398   6.482
 8879TIP3   OH226579   1.513   2.091   2.961
 8879TIP3    H126580   1.599   2.064   2.927
 8879TIP3    H226581   1.532   2.165   3.019
 8880TIP3   OH226582   2.882   7.610   5.579
 8880TIP3    H126583   2.965   7.619   5.531
 8880TIP3    H226584   2.896   7.658   5.660
 8881TIP3   OH226585   3.506   5.243   3.650
 8881TIP3    H126586   3.523   5.187   3.725
 8881TIP3    H226587   3.425   5.288   3.671
 8882TIP3   OH226588   6.141   4.045   0.693
 8882TIP3    H126589   6.117   4.125   0.646
 8882TIP3    H226590   6.237   4.049   0.700
 8883TIP3   OH226591   3.505   6.434   4.936
 8883TIP3    H126592   3.539   6.397   4.854
 8883TIP3    H226593   3.519   6.365   5.001
 8884TIP3   OH226594   4.213   2.532   4.772
 8884TIP3    H126595   4.238   2.440   4.772
 8884TIP3    H226596   4.183   2.549   4.683
 8885TIP3   OH226597   6.404   6.302   1.907
 8885TIP3    H126598   6.340   6.301   1.979
 8885TIP3    H226599   6.352   6.282   1.829
 8886TIP3   OH226600   7.217   2.754   3.947
 8886TIP3    H126601   7.285   2.781   4.010
 8886TIP3    H226602   7.136   2.758   3.997
 8887TIP3   OH226603   4.657   4.380   0.278
 8887TIP3    H126604   4.702   4.365   0.195
 8887TIP3    H226605   4.677   4.303   0.331
 8888TIP3   OH226606   7.694   0.284   5.510
 8888TIP3    H126607   7.610   0.325   5.486
 8888TIP3    H226608   7.723   0.241   5.430
 8889TIP3   OH226609   6.126   4.147   3.780
 8889TIP3    H126610   6.079   4.146   3.863
 8889TIP3    H226611   6.063   4.113   3.716
 8890TIP3   OH226612   7.362   5.945   4.649
 8890TIP3    H126613   7.309   6.008   4.697
 8890TIP3    H226614   7.358   5.975   4.558
 8891TIP3   OH226615   3.322   0.912   6.319
 8891TIP3    H126616   3.334   0.974   6.390
 8891TIP3    H226617   3.232   0.925   6.291
 8892TIP3   OH226618   1.850   3.823   3.596
 8892TIP3    H126619   1.888   3.878   3.527
 8892TIP3    H226620   1.796   3.883   3.647
 8893TIP3   OH226621   4.495   4.786   4.333
 8893TIP3    H126622   4.555   4.819   4.266
 8893TIP3    H226623   4.413   4.831   4.316
 8894TIP3   OH226624   4.863   1.473   0.596
 8894TIP3    H126625   4.782   1.523   0.592
 8894TIP3    H226626   4.840   1.396   0.650
 8895TIP3   OH226627   3.159   4.962   2.888
 8895TIP3    H126628   3.158   4.887   2.829
 8895TIP3    H226629   3.250   4.969   2.915
 8896TIP3   OH226630   7.713   4.889   3.201
 8896TIP3    H126631   7.776   4.882   3.272
 8896TIP3    H226632   7.742   4.965   3.150
 8897TIP3   OH226633   3.225   2.809   2.928
 8897TIP3    H126634   3.310   2.846   2.905
 8897TIP3    H226635   3.174   2.885   2.957
 8898TIP3   OH226636   0.707   6.679   0.399
 8898TIP3    H126637   0.755   6.719   0.471
 8898TIP3    H226638   0.700   6.587   0.422
 8899TIP3   OH226639   1.913   6.188   3.467
 8899TIP3    H126640   1.876   6.132   3.535
 8899TIP3    H226641   1.955   6.127   3.406
 8900TIP3   OH226642   7.573   5.861   1.838
 8900TIP3    H126643   7.488   5.905   1.838
 8900TIP3    H226644   7.599   5.859   1.746
 8901TIP3   OH226645   8.096   5.240   4.685
 8901TIP3    H126646   8.118   5.158   4.728
 8901TIP3    H226647   8.013   5.224   4.641
 8902TIP3   OH226648   7.235   4.794   2.958
 8902TIP3    H126649   7.324   4.819   2.986
 8902TIP3    H226650   7.187   4.785   3.040
 8903TIP3   OH226651   2.702   0.179   1.637
 8903TIP3    H126652   2.722   0.225   1.556
 8903TIP3    H226653   2.771   0.113   1.646
 8904TIP3   OH226654   2.652   4.784   1.011
 8904TIP3    H126655   2.633   4.767   1.103
 8904TIP3    H226656   2.647   4.880   1.003
 8905TIP3   OH226657   1.259   2.718   3.515
 8905TIP3    H126658   1.219   2.695   3.431
 8905TIP3    H226659   1.248   2.641   3.570
 8906TIP3   OH226660   0.436   3.898   0.208
 8906TIP3    H126661   0.522   3.942   0.210
 8906TIP3    H226662   0.394   3.933   0.129
 8907TIP3   OH226663   8.041   2.278   5.016
 8907TIP3    H126664   8.033   2.291   4.922
 8907TIP3    H226665   8.046   2.367   5.052
 8908TIP3   OH226666   6.493   4.251   6.302
 8908TIP3    H126667   6.535   4.173   6.336
 8908TIP3    H226668   6.559   4.292   6.246
 8909TIP3   OH226669   6.289   3.157   3.890
 8909TIP3    H126670   6.273   3.168   3.984
 8909TIP3    H226671   6.241   3.230   3.850
 8910TIP3   OH226672   2.273   1.135   6.079
 8910TIP3    H126673   2.324   1.084   6.141
 8910TIP3    H226674   2.204   1.075   6.050
 8911TIP3   OH226675   3.259   2.583   1.125
 8911TIP3    H126676   3.237   2.660   1.176
 8911TIP3    H226677   3.180   2.529   1.128
 8912TIP3   OH226678   6.505   6.377   6.509
 8912TIP3    H126679   6.571   6.309   6.527
 8912TIP3    H226680   6.466   6.350   6.426
 8913TIP3   OH226681   0.177   4.424   2.852
 8913TIP3    H126682   0.247   4.439   2.915
 8913TIP3    H226683   0.110   4.375   2.901
 8914TIP3   OH226684   0.703   0.176   5.657
 8914TIP3    H126685   0.674   0.118   5.728
 8914TIP3    H226686   0.721   0.116   5.584
 8915TIP3   OH226687   7.527   2.210   3.601
 8915TIP3    H126688   7.492   2.277   3.660
 8915TIP3    H226689   7.517   2.128   3.650
 8916TIP3   OH226690   6.515   1.456   3.667
 8916TIP3    H126691   6.557   1.521   3.611
 8916TIP3    H226692   6.421   1.471   3.654
 8917TIP3   OH226693   2.035   1.449   6.188
 8917TIP3    H126694   1.945   1.484   6.194
 8917TIP3    H226695   2.024   1.358   6.163
 8918TIP3   OH226696   6.172   4.916   2.644
 8918TIP3    H126697   6.203   4.832   2.611
 8918TIP3    H226698   6.131   4.958   2.569
 8919TIP3   OH226699   1.959   4.380   5.818
 8919TIP3    H126700   1.962   4.395   5.723
 8919TIP3    H226701   1.869   4.399   5.842
 8920TIP3   OH226702   5.067   4.643   5.797
 8920TIP3    H126703   5.038   4.644   5.888
 8920TIP3    H226704   5.050   4.554   5.766
 8921TIP3   OH226705   3.538   1.458   3.926
 8921TIP3    H126706   3.629   1.445   3.953
 8921TIP3    H226707   3.486   1.408   3.989
 8922TIP3   OH226708   6.158   6.812   2.250
 8922TIP3    H126709   6.216   6.796   2.176
 8922TIP3    H226710   6.088   6.868   2.215
 8923TIP3   OH226711   1.340   2.472   4.269
 8923TIP3    H126712   1.330   2.512   4.355
 8923TIP3    H226713   1.256   2.487   4.226
 8924TIP3   OH226714   0.565   6.352   1.552
 8924TIP3    H126715   0.542   6.264   1.524
 8924TIP3    H226716   0.584   6.344   1.645
 8925TIP3   OH226717   2.839   5.277   5.792
 8925TIP3    H126718   2.929   5.284   5.822
 8925TIP3    H226719   2.796   5.355   5.826
 8926TIP3   OH226720   7.106   1.235   6.552
 8926TIP3    H126721   7.073   1.317   6.516
 8926TIP3    H226722   7.104   1.174   6.478
 8927TIP3   OH226723   5.996   7.425   0.555
 8927TIP3    H126724   5.915   7.394   0.596
 8927TIP3    H226725   5.971   7.444   0.464
 8928TIP3   OH226726   7.553   7.179   3.417
 8928TIP3    H126727   7.558   7.198   3.323
 8928TIP3    H226728   7.621   7.113   3.432
 8929TIP3   OH226729   6.366   6.125   3.273
 8929TIP3    H126730   6.380   6.218   3.262
 8929TIP3    H226731   6.323   6.096   3.192
 8930TIP3   OH226732   4.905   7.094   6.394
 8930TIP3    H126733   4.873   7.169   6.444
 8930TIP3    H226734   4.871   7.017   6.440
 8931TIP3   OH226735   2.044   5.802   5.129
 8931TIP3    H126736   2.093   5.720   5.139
 8931TIP3    H226737   2.018   5.826   5.218
 8932TIP3   OH226738   6.110   2.649   3.282
 8932TIP3    H126739   6.092   2.718   3.346
 8932TIP3    H226740   6.185   2.602   3.318
 8933TIP3   OH226741   2.752   4.490   4.640
 8933TIP3    H126742   2.792   4.458   4.721
 8933TIP3    H226743   2.685   4.424   4.619
 8934TIP3   OH226744   1.213   0.218   2.624
 8934TIP3    H126745   1.142   0.180   2.572
 8934TIP3    H226746   1.169   0.279   2.683
 8935TIP3   OH226747   3.590   1.562   2.654
 8935TIP3    H126748   3.662   1.578   2.715
 8935TIP3    H226749   3.628   1.506   2.586
 8936TIP3   OH226750   5.934   7.116   0.334
 8936TIP3    H126751   5.850   7.141   0.295
 8936TIP3    H226752   5.967   7.046   0.277
 8937TIP3   OH226753   2.401   6.228   4.566
 8937TIP3    H126754   2.496   6.224   4.573
 8937TIP3    H226755   2.383   6.314   4.527
 8938TIP3   OH226756   0.974   2.022   1.177
 8938TIP3    H126757   1.049   1.974   1.210
 8938TIP3    H226758   0.903   2.000   1.237
 8939TIP3   OH226759   7.918   6.762   0.845
 8939TIP3    H126760   7.928   6.824   0.916
 8939TIP3    H226761   7.844   6.795   0.794
 8940TIP3   OH226762   6.363   1.079   2.250
 8940TIP3    H126763   6.381   1.144   2.182
 8940TIP3    H226764   6.383   0.995   2.208
 8941TIP3   OH226765   1.291   4.851   2.161
 8941TIP3    H126766   1.198   4.830   2.158
 8941TIP3    H226767   1.294   4.947   2.162
 8942TIP3   OH226768   5.443   5.633   6.195
 8942TIP3    H126769   5.442   5.642   6.290
 8942TIP3    H226770   5.352   5.648   6.169
 8943TIP3   OH226771   3.539   3.731   1.032
 8943TIP3    H126772   3.585   3.676   0.969
 8943TIP3    H226773   3.446   3.718   1.011
 8944TIP3   OH226774   6.666   2.022   1.086
 8944TIP3    H126775   6.739   2.000   1.028
 8944TIP3    H226776   6.611   2.080   1.034
 8945TIP3   OH226777   4.041   3.651   0.101
 8945TIP3    H126778   4.080   3.738   0.105
 8945TIP3    H226779   4.089   3.599   0.165
 8946TIP3   OH226780   7.261   6.849   4.977
 8946TIP3    H126781   7.321   6.919   5.003
 8946TIP3    H226782   7.224   6.818   5.060
 8947TIP3   OH226783   2.202   3.439   1.989
 8947TIP3    H126784   2.297   3.440   1.984
 8947TIP3    H226785   2.181   3.355   2.030
 8948TIP3   OH226786   3.592   4.619   3.156
 8948TIP3    H126787   3.502   4.652   3.155
 8948TIP3    H226788   3.646   4.695   3.135
 8949TIP3   OH226789   3.559   6.534   6.259
 8949TIP3    H126790   3.548   6.542   6.353
 8949TIP3    H226791   3.648   6.499   6.248
 8950TIP3   OH226792   3.263   3.932   1.531
 8950TIP3    H126793   3.277   3.838   1.521
 8950TIP3    H226794   3.316   3.972   1.462
 8951TIP3   OH226795   0.361   1.914   5.467
 8951TIP3    H126796   0.427   1.936   5.533
 8951TIP3    H226797   0.325   1.830   5.497
 8952TIP3   OH226798   7.857   6.047   4.749
 8952TIP3    H126799   7.865   6.122   4.690
 8952TIP3    H226800   7.913   5.980   4.709
 8953TIP3   OH226801   4.600   6.706   2.489
 8953TIP3    H126802   4.560   6.620   2.506
 8953TIP3    H226803   4.682   6.705   2.538
 8954TIP3   OH226804   3.784   0.422   4.860
 8954TIP3    H126805   3.737   0.464   4.933
 8954TIP3    H226806   3.723   0.427   4.787
 8955TIP3   OH226807   5.625   6.648   4.219
 8955TIP3    H126808   5.697   6.606   4.171
 8955TIP3    H226809   5.636   6.741   4.201
 8956TIP3   OH226810   7.273   2.554   4.595
 8956TIP3    H126811   7.206   2.571   4.528
 8956TIP3    H226812   7.263   2.462   4.617
 8957TIP3   OH226813   4.164   6.064   0.963
 8957TIP3    H126814   4.137   6.146   1.004
 8957TIP3    H226815   4.083   6.016   0.948
 8958TIP3   OH226816   4.331   4.323   6.206
 8958TIP3    H126817   4.412   4.303   6.252
 8958TIP3    H226818   4.332   4.418   6.194
 8959TIP3   OH226819   8.134   1.536   0.034
 8959TIP3    H126820   8.183   1.589   0.098
 8959TIP3    H226821   8.042   1.557   0.052
 8960TIP3   OH226822   2.623   1.955   1.420
 8960TIP3    H126823   2.649   2.017   1.488
 8960TIP3    H226824   2.564   1.894   1.464
 8961TIP3   OH226825   4.206   5.543   6.189
 8961TIP3    H126826   4.242   5.618   6.237
 8961TIP3    H226827   4.246   5.467   6.229
 8962TIP3   OH226828   5.979   5.249   1.621
 8962TIP3    H126829   6.041   5.265   1.692
 8962TIP3    H226830   6.010   5.168   1.580
 8963TIP3   OH226831   6.150   1.990   2.398
 8963TIP3    H126832   6.221   2.025   2.343
 8963TIP3    H226833   6.122   1.910   2.353
 8964TIP3   OH226834   6.382   5.221   4.604
 8964TIP3    H126835   6.400   5.133   4.638
 8964TIP3    H226836   6.323   5.206   4.530
 8965TIP3   OH226837   1.849   3.488   4.652
 8965TIP3    H126838   1.833   3.581   4.659
 8965TIP3    H226839   1.939   3.482   4.618
 8966TIP3   OH226840   0.729   3.820   4.817
 8966TIP3    H126841   0.797   3.782   4.761
 8966TIP3    H226842   0.648   3.804   4.770
 8967TIP3   OH226843   7.996   0.194   0.046
 8967TIP3    H126844   7.940   0.228  -0.023
 8967TIP3    H226845   8.064   0.260   0.057
 8968TIP3   OH226846   0.722   6.046   6.204
 8968TIP3    H126847   0.673   5.978   6.157
 8968TIP3    H226848   0.814   6.023   6.191
 8969TIP3   OH226849   5.815   5.824   5.367
 8969TIP3    H126850   5.895   5.772   5.376
 8969TIP3    H226851   5.744   5.761   5.381
 8970TIP3   OH226852   0.224   7.387   6.539
 8970TIP3    H126853   0.260   7.367   6.453
 8970TIP3    H226854   0.243   7.310   6.592
 8971TIP3   OH226855   1.177   2.262   4.084
 8971TIP3    H126856   1.169   2.168   4.071
 8971TIP3    H226857   1.093   2.298   4.057
 8972TIP3   OH226858   5.669   6.734   0.095
 8972TIP3    H126859   5.652   6.824   0.066
 8972TIP3    H226860   5.728   6.698   0.030
 8973TIP3   OH226861   4.525   7.165   4.136
 8973TIP3    H126862   4.541   7.078   4.173
 8973TIP3    H226863   4.462   7.206   4.196
 8974TIP3   OH226864   0.660   0.539   3.271
 8974TIP3    H126865   0.755   0.541   3.258
 8974TIP3    H226866   0.637   0.446   3.261
 8975TIP3   OH226867   3.764   2.707   4.269
 8975TIP3    H126868   3.846   2.665   4.246
 8975TIP3    H226869   3.706   2.635   4.294
 8976TIP3   OH226870   6.215   0.311   4.101
 8976TIP3    H126871   6.202   0.219   4.076
 8976TIP3    H226872   6.285   0.309   4.166
 8977TIP3   OH226873   5.095   2.540   4.659
 8977TIP3    H126874   5.144   2.598   4.717
 8977TIP3    H226875   5.006   2.540   4.695
 8978TIP3   OH226876   5.688   6.722   3.532
 8978TIP3    H126877   5.681   6.686   3.620
 8978TIP3    H226878   5.750   6.663   3.487
 8979TIP3   OH226879   0.751   0.404   0.430
 8979TIP3    H126880   0.679   0.371   0.484
 8979TIP3    H226881   0.825   0.347   0.453
 8980TIP3   OH226882   2.884   2.384   5.399
 8980TIP3    H126883   2.923   2.442   5.464
 8980TIP3    H226884   2.860   2.441   5.327
 8981TIP3   OH226885   3.395   1.776   4.895
 8981TIP3    H126886   3.425   1.696   4.852
 8981TIP3    H226887   3.449   1.846   4.859
 8982TIP3   OH226888   1.569   2.270   5.898
 8982TIP3    H126889   1.572   2.241   5.989
 8982TIP3    H226890   1.634   2.341   5.893
 8983TIP3   OH226891   3.524   3.571   2.901
 8983TIP3    H126892   3.460   3.628   2.859
 8983TIP3    H226893   3.600   3.628   2.916
 8984TIP3   OH226894   2.550   6.118  -0.009
 8984TIP3    H126895   2.533   6.024  -0.021
 8984TIP3    H226896   2.475   6.149   0.042
 8985TIP3   OH226897   8.058   0.737   0.762
 8985TIP3    H126898   8.098   0.819   0.734
 8985TIP3    H226899   8.032   0.694   0.680
 8986TIP3   OH226900   2.223   1.886   1.447
 8986TIP3    H126901   2.247   1.943   1.374
 8986TIP3    H226902   2.153   1.933   1.493
 8987TIP3   OH226903   6.775   6.613   1.530
 8987TIP3    H126904   6.716   6.685   1.553
 8987TIP3    H226905   6.862   6.646   1.551
 8988TIP3   OH226906   5.373   3.979   6.014
 8988TIP3    H126907   5.298   3.951   5.961
 8988TIP3    H226908   5.440   3.912   5.998
 8989TIP3   OH226909   0.101   2.162   5.630
 8989TIP3    H126910   0.092   2.194   5.720
 8989TIP3    H226911   0.022   2.191   5.585
 8990TIP3   OH226912   0.150   1.390   0.783
 8990TIP3    H126913   0.088   1.331   0.740
 8990TIP3    H226914   0.108   1.476   0.781
 8991TIP3   OH226915   0.698   1.234   1.450
 8991TIP3    H126916   0.789   1.204   1.446
 8991TIP3    H226917   0.702   1.317   1.499
 8992TIP3   OH226918   7.720   2.270   3.150
 8992TIP3    H126919   7.815   2.264   3.141
 8992TIP3    H226920   7.687   2.199   3.095
 8993TIP3   OH226921   3.993   6.409   6.515
 8993TIP3    H126922   3.915   6.454   6.547
 8993TIP3    H226923   4.006   6.335   6.575
 8994TIP3   OH226924   2.402   3.602   5.598
 8994TIP3    H126925   2.346   3.679   5.589
 8994TIP3    H226926   2.343   3.533   5.629
 8995TIP3   OH226927   7.452   4.282   6.574
 8995TIP3    H126928   7.523   4.250   6.519
 8995TIP3    H226929   7.417   4.357   6.526
 8996TIP3   OH226930   7.522   4.645   5.504
 8996TIP3    H126931   7.435   4.644   5.543
 8996TIP3    H226932   7.510   4.687   5.419
 8997TIP3   OH226933   2.965   6.876   3.278
 8997TIP3    H126934   2.905   6.897   3.349
 8997TIP3    H226935   2.912   6.825   3.216
 8998TIP3   OH226936   0.005   0.075   3.733
 8998TIP3    H126937  -0.045   0.089   3.813
 8998TIP3    H226938  -0.001  -0.019   3.717
 8999TIP3   OH226939   5.614   4.371   4.763
 8999TIP3    H126940   5.561   4.304   4.720
 8999TIP3    H226941   5.641   4.429   4.691
 9000TIP3   OH226942   4.738   4.329   3.923
 9000TIP3    H126943   4.644   4.337   3.910
 9000TIP3    H226944   4.772   4.296   3.840
 9001TIP3   OH226945   4.161   1.666   5.353
 9001TIP3    H126946   4.172   1.718   5.274
 9001TIP3    H226947   4.094   1.602   5.331
 9002TIP3   OH226948   0.022   5.730   6.233
 9002TIP3    H126949  -0.032   5.658   6.200
 9002TIP3    H226950   0.063   5.696   6.312
 9003TIP3   OH226951   7.785   6.940   2.007
 9003TIP3    H126952   7.721   6.900   1.948
 9003TIP3    H226953   7.747   7.025   2.030
 9004TIP3   OH226954   0.841   7.552   4.646
 9004TIP3    H126955   0.758   7.541   4.599
 9004TIP3    H226956   0.870   7.463   4.665
 9005TIP3   OH226957   7.183   5.193   1.670
 9005TIP3    H126958   7.244   5.126   1.639
 9005TIP3    H226959   7.096   5.157   1.651
 9006TIP3   OH226960   4.135   4.982   0.888
 9006TIP3    H126961   4.061   5.011   0.834
 9006TIP3    H226962   4.198   4.947   0.825
 9007TIP3   OH226963   8.214   4.076   4.911
 9007TIP3    H126964   8.240   4.121   4.831
 9007TIP3    H226965   8.296   4.062   4.959
 9008TIP3   OH226966   3.429   6.160   5.387
 9008TIP3    H126967   3.433   6.220   5.462
 9008TIP3    H226968   3.409   6.075   5.426
 9009TIP3   OH226969   8.136   1.386   4.965
 9009TIP3    H126970   8.125   1.361   5.056
 9009TIP3    H226971   8.079   1.462   4.954
 9010TIP3   OH226972   6.877   1.340   3.678
 9010TIP3    H126973   6.816   1.386   3.620
 9010TIP3    H226974   6.880   1.392   3.758
 9011TIP3   OH226975   3.688   4.154   2.577
 9011TIP3    H126976   3.650   4.149   2.489
 9011TIP3    H226977   3.618   4.190   2.632
 9012TIP3   OH226978   7.479   2.478   5.159
 9012TIP3    H126979   7.536   2.446   5.090
 9012TIP3    H226980   7.399   2.427   5.150
 9013TIP3   OH226981   6.021   5.591   6.340
 9013TIP3    H126982   6.062   5.600   6.426
 9013TIP3    H226983   6.095   5.582   6.279
 9014TIP3   OH226984   3.381   4.018   3.600
 9014TIP3    H126985   3.441   3.979   3.537
 9014TIP3    H226986   3.419   4.103   3.622
 9015TIP3   OH226987   2.716   6.796   1.544
 9015TIP3    H126988   2.804   6.827   1.525
 9015TIP3    H226989   2.669   6.874   1.575
 9016TIP3   OH226990   3.640   3.398   2.187
 9016TIP3    H126991   3.555   3.392   2.232
 9016TIP3    H226992   3.617   3.395   2.094
 9017TIP3   OH226993   3.245   5.048   4.750
 9017TIP3    H126994   3.216   5.139   4.742
 9017TIP3    H226995   3.332   5.047   4.710
 9018TIP3   OH226996   5.810   6.771   0.576
 9018TIP3    H126997   5.733   6.767   0.520
 9018TIP3    H226998   5.823   6.865   0.591
 9019TIP3   OH226999   2.371   2.193   6.567
 9019TIP3    H127000   2.291   2.210   6.517
 9019TIP3    H227001   2.374   2.263   6.632
 9020TIP3   OH227002   4.307   1.443   3.559
 9020TIP3    H127003   4.377   1.493   3.518
 9020TIP3    H227004   4.338   1.424   3.647
 9021TIP3   OH227005   5.710   0.818   2.547
 9021TIP3    H127006   5.742   0.777   2.628
 9021TIP3    H227007   5.689   0.908   2.573
 9022TIP3   OH227008   4.084   6.428   1.323
 9022TIP3    H127009   4.133   6.503   1.290
 9022TIP3    H227010   4.150   6.360   1.335
 9023TIP3   OH227011   0.230   5.022   0.411
 9023TIP3    H127012   0.225   4.944   0.466
 9023TIP3    H227013   0.225   5.096   0.471
 9024TIP3   OH227014   2.044   2.027   1.807
 9024TIP3    H127015   2.092   1.992   1.882
 9024TIP3    H227016   2.018   2.115   1.834
 9025TIP3   OH227017   2.037   7.493   5.432
 9025TIP3    H127018   2.114   7.438   5.446
 9025TIP3    H227019   2.058   7.546   5.355
 9026TIP3   OH227020   2.582   7.151   3.553
 9026TIP3    H127021   2.537   7.119   3.631
 9026TIP3    H227022   2.650   7.085   3.536
 9027TIP3   OH227023   7.404   7.631   6.621
 9027TIP3    H127024   7.404   7.539   6.649
 9027TIP3    H227025   7.474   7.671   6.673
 9028TIP3   OH227026   2.462   4.955   4.317
 9028TIP3    H127027   2.443   4.930   4.408
 9028TIP3    H227028   2.550   4.922   4.300
 9029TIP3   OH227029   4.286   7.017   3.352
 9029TIP3    H127030   4.206   6.991   3.306
 9029TIP3    H227031   4.297   7.110   3.331
 9030TIP3   OH227032   1.010   2.961   0.869
 9030TIP3    H127033   1.068   2.894   0.905
 9030TIP3    H227034   0.947   2.912   0.815
 9031TIP3   OH227035   2.266   7.209   3.193
 9031TIP3    H127036   2.256   7.188   3.286
 9031TIP3    H227037   2.205   7.150   3.148
 9032TIP3   OH227038   3.088   0.810   4.467
 9032TIP3    H127039   3.171   0.772   4.496
 9032TIP3    H227040   3.021   0.747   4.495
 9033TIP3   OH227041   4.223   2.469   1.927
 9033TIP3    H127042   4.151   2.497   1.983
 9033TIP3    H227043   4.298   2.462   1.986
 9034TIP3   OH227044   3.441   5.363   4.011
 9034TIP3    H127045   3.420   5.271   4.028
 9034TIP3    H227046   3.468   5.397   4.096
 9035TIP3   OH227047   4.348   5.268   1.685
 9035TIP3    H127048   4.401   5.261   1.765
 9035TIP3    H227049   4.409   5.245   1.615
 9036TIP3   OH227050   4.082   6.941   3.172
 9036TIP3    H127051   4.035   6.986   3.102
 9036TIP3    H227052   4.012   6.904   3.227
 9037TIP3   OH227053   5.759   7.157   3.624
 9037TIP3    H127054   5.813   7.215   3.570
 9037TIP3    H227055   5.713   7.216   3.683
 9038TIP3   OH227056   6.684   1.635   6.690
 9038TIP3    H127057   6.615   1.600   6.745
 9038TIP3    H227058   6.700   1.566   6.625
 9039TIP3   OH227059   4.205   5.555   1.606
 9039TIP3    H127060   4.173   5.504   1.680
 9039TIP3    H227061   4.300   5.547   1.610
 9040TIP3   OH227062   6.282   7.211   1.048
 9040TIP3    H127063   6.208   7.156   1.077
 9040TIP3    H227064   6.318   7.165   0.972
 9041TIP3   OH227065   3.885   6.511   0.244
 9041TIP3    H127066   3.865   6.593   0.289
 9041TIP3    H227067   3.969   6.528   0.200
 9042TIP3   OH227068   4.881   4.046   2.348
 9042TIP3    H127069   4.873   3.970   2.291
 9042TIP3    H227070   4.793   4.085   2.347
 9043TIP3   OH227071   4.884   2.789   0.274
 9043TIP3    H127072   4.965   2.767   0.227
 9043TIP3    H227073   4.835   2.844   0.214
 9044TIP3   OH227074   0.660   5.485   1.409
 9044TIP3    H127075   0.636   5.439   1.328
 9044TIP3    H227076   0.577   5.500   1.454
 9045TIP3   OH227077   1.344   6.983   3.942
 9045TIP3    H127078   1.388   6.935   3.872
 9045TIP3    H227079   1.382   7.071   3.939
 9046TIP3   OH227080   0.011   5.515   2.760
 9046TIP3    H127081   0.084   5.517   2.822
 9046TIP3    H227082   0.048   5.479   2.679
 9047TIP3   OH227083   5.011   5.648   6.255
 9047TIP3    H127084   5.000   5.726   6.309
 9047TIP3    H227085   5.018   5.576   6.318
 9048TIP3   OH227086   2.600   0.076   4.756
 9048TIP3    H127087   2.505   0.082   4.768
 9048TIP3    H227088   2.618   0.133   4.681
 9049TIP3   OH227089   7.571   4.366   3.092
 9049TIP3    H127090   7.550   4.276   3.118
 9049TIP3    H227091   7.581   4.414   3.174
 9050TIP3   OH227092   4.464   4.255   0.777
 9050TIP3    H127093   4.517   4.184   0.814
 9050TIP3    H227094   4.438   4.308   0.853
 9051TIP3   OH227095   0.309   3.851   6.684
 9051TIP3    H127096   0.299   3.946   6.676
 9051TIP3    H227097   0.310   3.835   6.778
 9052TIP3   OH227098   3.261   5.855   1.657
 9052TIP3    H127099   3.330   5.788   1.661
 9052TIP3    H227100   3.253   5.876   1.564
 9053TIP3   OH227101   1.293   5.747   0.154
 9053TIP3    H127102   1.207   5.777   0.123
 9053TIP3    H227103   1.350   5.754   0.077
 9054TIP3   OH227104   1.841   5.706   3.288
 9054TIP3    H127105   1.787   5.629   3.306
 9054TIP3    H227106   1.916   5.697   3.346
 9055TIP3   OH227107   4.774   5.765   3.616
 9055TIP3    H127108   4.683   5.797   3.620
 9055TIP3    H227109   4.812   5.791   3.700
 9056TIP3   OH227110   6.282   2.452   0.735
 9056TIP3    H127111   6.202   2.469   0.686
 9056TIP3    H227112   6.278   2.512   0.810
 9057TIP3   OH227113   0.352   1.411   2.324
 9057TIP3    H127114   0.314   1.384   2.407
 9057TIP3    H227115   0.280   1.453   2.277
 9058TIP3   OH227116   3.522   4.233   5.388
 9058TIP3    H127117   3.588   4.299   5.366
 9058TIP3    H227118   3.440   4.282   5.391
 9059TIP3   OH227119   1.716   7.166   1.616
 9059TIP3    H127120   1.741   7.193   1.528
 9059TIP3    H227121   1.782   7.101   1.641
 9060TIP3   OH227122   4.649   3.522   3.988
 9060TIP3    H127123   4.651   3.585   4.060
 9060TIP3    H227124   4.731   3.474   3.996
 9061TIP3   OH227125   8.061   3.635   6.100
 9061TIP3    H127126   8.103   3.623   6.186
 9061TIP3    H227127   8.118   3.588   6.039
 9062TIP3   OH227128   5.974   0.442   4.120
 9062TIP3    H127129   6.043   0.376   4.109
 9062TIP3    H227130   5.921   0.435   4.041
 9063TIP3   OH227131   5.667   2.295   1.214
 9063TIP3    H127132   5.744   2.251   1.179
 9063TIP3    H227133   5.679   2.293   1.309
 9064TIP3   OH227134   2.509   4.441   2.286
 9064TIP3    H127135   2.467   4.509   2.233
 9064TIP3    H227136   2.465   4.447   2.371
 9065TIP3   OH227137   3.975   6.513   4.676
 9065TIP3    H127138   3.922   6.517   4.597
 9065TIP3    H227139   3.969   6.421   4.704
 9066TIP3   OH227140   5.696   6.760   2.743
 9066TIP3    H127141   5.645   6.688   2.780
 9066TIP3    H227142   5.771   6.768   2.801
 9067TIP3   OH227143   7.664   5.075   5.315
 9067TIP3    H127144   7.721   5.117   5.380
 9067TIP3    H227145   7.723   5.019   5.264
 9068TIP3   OH227146   8.100   3.975   2.505
 9068TIP3    H127147   8.124   3.889   2.541
 9068TIP3    H227148   8.011   3.990   2.538
 9069TIP3   OH227149   1.796   2.867   0.345
 9069TIP3    H127150   1.770   2.891   0.434
 9069TIP3    H227151   1.725   2.901   0.290
 9070TIP3   OH227152   2.611   4.933   2.260
 9070TIP3    H127153   2.526   4.917   2.301
 9070TIP3    H227154   2.655   4.995   2.318
 9071TIP3   OH227155   2.850   6.154   2.142
 9071TIP3    H127156   2.880   6.243   2.127
 9071TIP3    H227157   2.796   6.159   2.221
 9072TIP3   OH227158   7.619   4.297   1.660
 9072TIP3    H127159   7.654   4.258   1.741
 9072TIP3    H227160   7.549   4.354   1.690
 9073TIP3   OH227161   6.144   4.209   3.236
 9073TIP3    H127162   6.090   4.138   3.271
 9073TIP3    H227163   6.103   4.289   3.269
 9074TIP3   OH227164   0.604   0.855   2.941
 9074TIP3    H127165   0.570   0.825   3.025
 9074TIP3    H227166   0.649   0.937   2.960
 9075TIP3   OH227167   6.985   3.156   6.611
 9075TIP3    H127168   6.933   3.215   6.665
 9075TIP3    H227169   6.984   3.196   6.524
 9076TIP3   OH227170   5.366   6.271   0.292
 9076TIP3    H127171   5.283   6.251   0.336
 9076TIP3    H227172   5.397   6.186   0.259
 9077TIP3   OH227173   0.699   4.077   6.364
 9077TIP3    H127174   0.669   4.147   6.306
 9077TIP3    H227175   0.620   4.046   6.408
 9078TIP3   OH227176   4.407   0.821   4.148
 9078TIP3    H127177   4.480   0.864   4.192
 9078TIP3    H227178   4.428   0.828   4.055
 9079TIP3   OH227179   0.856   6.241   0.140
 9079TIP3    H127180   0.858   6.246   0.044
 9079TIP3    H227181   0.926   6.179   0.161
 9080TIP3   OH227182   4.422   3.907   0.226
 9080TIP3    H127183   4.502   3.882   0.273
 9080TIP3    H227184   4.450   3.977   0.167
 9081TIP3   OH227185   4.280   2.926   2.543
 9081TIP3    H127186   4.269   3.020   2.560
 9081TIP3    H227187   4.259   2.884   2.626
 9082TIP3   OH227188   2.941   2.237   0.398
 9082TIP3    H127189   2.887   2.232   0.477
 9082TIP3    H227190   2.941   2.330   0.375
 9083TIP3   OH227191   1.215   2.279   2.310
 9083TIP3    H127192   1.172   2.232   2.239
 9083TIP3    H227193   1.290   2.224   2.333
 9084TIP3   OH227194   5.275   7.327   3.647
 9084TIP3    H127195   5.203   7.341   3.708
 9084TIP3    H227196   5.352   7.315   3.703
 9085TIP3   OH227197   7.653   5.410   1.611
 9085TIP3    H127198   7.610   5.336   1.654
 9085TIP3    H227199   7.619   5.487   1.658
 9086TIP3   OH227200   6.783   5.767   0.564
 9086TIP3    H127201   6.698   5.785   0.525
 9086TIP3    H227202   6.769   5.778   0.658
 9087TIP3   OH227203   6.254   1.313   5.748
 9087TIP3    H127204   6.281   1.404   5.735
 9087TIP3    H227205   6.333   1.270   5.782
 9088TIP3   OH227206   6.634   1.066   4.001
 9088TIP3    H127207   6.580   1.131   4.046
 9088TIP3    H227208   6.645   1.100   3.913
 9089TIP3   OH227209   8.263   0.665   4.728
 9089TIP3    H127210   8.264   0.756   4.699
 9089TIP3    H227211   8.355   0.638   4.725
 9090TIP3   OH227212   2.363   0.147   6.174
 9090TIP3    H127213   2.333   0.176   6.088
 9090TIP3    H227214   2.455   0.125   6.162
 9091TIP3   OH227215   2.834   2.047   0.763
 9091TIP3    H127216   2.834   1.976   0.700
 9091TIP3    H227217   2.921   2.044   0.803
 9092TIP3   OH227218   0.785   4.279   5.152
 9092TIP3    H127219   0.795   4.196   5.105
 9092TIP3    H227220   0.724   4.259   5.223
 9093TIP3   OH227221   7.033   5.777   2.415
 9093TIP3    H127222   7.023   5.855   2.362
 9093TIP3    H227223   6.966   5.717   2.383
 9094TIP3   OH227224   5.816   6.412   0.342
 9094TIP3    H127225   5.845   6.386   0.430
 9094TIP3    H227226   5.730   6.451   0.356
 9095TIP3   OH227227   6.285   5.279   6.472
 9095TIP3    H127228   6.324   5.306   6.389
 9095TIP3    H227229   6.241   5.196   6.452
 9096TIP3   OH227230   2.494   6.778   6.746
 9096TIP3    H127231   2.451   6.711   6.693
 9096TIP3    H227232   2.466   6.861   6.708
 9097TIP3   OH227233   6.919   1.449   1.354
 9097TIP3    H127234   6.887   1.533   1.323
 9097TIP3    H227235   6.912   1.391   1.278
 9098TIP3   OH227236   6.908   6.514   5.559
 9098TIP3    H127237   6.913   6.460   5.638
 9098TIP3    H227238   6.981   6.576   5.568
 9099TIP3   OH227239   1.389   0.979   4.068
 9099TIP3    H127240   1.398   0.891   4.029
 9099TIP3    H227241   1.404   1.039   3.995
 9100TIP3   OH227242   6.265   0.929   1.355
 9100TIP3    H127243   6.241   0.973   1.273
 9100TIP3    H227244   6.349   0.888   1.337
 9101TIP3   OH227245   2.823   6.059   5.307
 9101TIP3    H127246   2.893   6.082   5.246
 9101TIP3    H227247   2.836   6.119   5.382
 9102TIP3   OH227248   4.443   7.397   2.249
 9102TIP3    H127249   4.361   7.435   2.218
 9102TIP3    H227250   4.503   7.472   2.255
 9103TIP3   OH227251   4.767   3.176   3.829
 9103TIP3    H127252   4.823   3.112   3.873
 9103TIP3    H227253   4.783   3.258   3.877
 9104TIP3   OH227254   1.573   6.266   6.205
 9104TIP3    H127255   1.640   6.213   6.249
 9104TIP3    H227256   1.590   6.254   6.112
 9105TIP3   OH227257   4.376   3.950   1.704
 9105TIP3    H127258   4.315   4.020   1.725
 9105TIP3    H227259   4.435   3.987   1.639
 9106TIP3   OH227260   7.692   4.996   2.141
 9106TIP3    H127261   7.751   5.026   2.210
 9106TIP3    H227262   7.616   4.962   2.188
 9107TIP3   OH227263   5.606   4.045   1.281
 9107TIP3    H127264   5.560   4.084   1.207
 9107TIP3    H227265   5.697   4.072   1.270
 9108TIP3   OH227266   6.919   2.716   5.713
 9108TIP3    H127267   6.884   2.701   5.625
 9108TIP3    H227268   6.858   2.671   5.772
 9109TIP3   OH227269   3.968   5.872   6.068
 9109TIP3    H127270   3.915   5.898   5.992
 9109TIP3    H227271   3.972   5.776   6.062
 9110TIP3   OH227272   7.470   7.287   6.331
 9110TIP3    H127273   7.443   7.375   6.304
 9110TIP3    H227274   7.565   7.293   6.343
 9111TIP3   OH227275   1.059   0.920   3.670
 9111TIP3    H127276   1.006   0.999   3.670
 9111TIP3    H227277   1.057   0.889   3.580
 9112TIP3   OH227278   1.959   0.739   3.280
 9112TIP3    H127279   1.964   0.826   3.320
 9112TIP3    H227280   2.050   0.715   3.263
 9113TIP3   OH227281   1.628   0.057   0.085
 9113TIP3    H127282   1.589   0.119   0.024
 9113TIP3    H227283   1.615   0.097   0.171
 9114TIP3   OH227284   2.983   3.230   5.551
 9114TIP3    H127285   2.915   3.168   5.579
 9114TIP3    H227286   3.000   3.283   5.629
 9115TIP3   OH227287   1.730   7.747   1.399
 9115TIP3    H127288   1.794   7.676   1.403
 9115TIP3    H227289   1.776   7.824   1.433
 9116TIP3   OH227290   4.111   5.762   0.050
 9116TIP3    H127291   4.043   5.725   0.107
 9116TIP3    H227292   4.062   5.805  -0.020
 9117TIP3   OH227293   1.216   6.060   1.922
 9117TIP3    H127294   1.131   6.022   1.941
 9117TIP3    H227295   1.229   6.047   1.828
 9118TIP3   OH227296   7.095   3.824   2.576
 9118TIP3    H127297   7.093   3.857   2.666
 9118TIP3    H227298   7.014   3.857   2.537
 9119TIP3   OH227299   4.935   5.372   2.594
 9119TIP3    H127300   4.927   5.439   2.526
 9119TIP3    H227301   4.925   5.420   2.676
 9120TIP3   OH227302   6.091   5.024   1.513
 9120TIP3    H127303   6.178   5.052   1.542
 9120TIP3    H227304   6.101   4.932   1.488
 9121TIP3   OH227305   3.630   5.451   6.358
 9121TIP3    H127306   3.669   5.424   6.275
 9121TIP3    H227307   3.705   5.473   6.413
 9122TIP3   OH227308   6.266   5.324   5.242
 9122TIP3    H127309   6.210   5.281   5.306
 9122TIP3    H227310   6.281   5.257   5.175
 9123TIP3   OH227311   2.979   1.417   3.336
 9123TIP3    H127312   2.976   1.466   3.254
 9123TIP3    H227313   3.053   1.358   3.326
 9124TIP3   OH227314   2.733   7.049   4.626
 9124TIP3    H127315   2.819   7.075   4.596
 9124TIP3    H227316   2.748   6.966   4.673
 9125TIP3   OH227317   3.804   0.147   6.127
 9125TIP3    H127318   3.802   0.242   6.117
 9125TIP3    H227319   3.872   0.131   6.192
 9126TIP3   OH227320   4.783   5.813   4.124
 9126TIP3    H127321   4.752   5.882   4.182
 9126TIP3    H227322   4.873   5.796   4.154
 9127TIP3   OH227323   0.332   0.492   6.756
 9127TIP3    H127324   0.307   0.582   6.734
 9127TIP3    H227325   0.417   0.501   6.800
 9128TIP3   OH227326   0.474   3.767   2.533
 9128TIP3    H127327   0.474   3.805   2.621
 9128TIP3    H227328   0.385   3.779   2.501
 9129TIP3   OH227329   6.127   7.296   5.317
 9129TIP3    H127330   6.181   7.307   5.238
 9129TIP3    H227331   6.082   7.380   5.327
 9130TIP3   OH227332   1.324   6.331   3.087
 9130TIP3    H127333   1.349   6.408   3.138
 9130TIP3    H227334   1.245   6.356   3.041
 9131TIP3   OH227335   6.934   6.854   6.115
 9131TIP3    H127336   6.840   6.845   6.127
 9131TIP3    H227337   6.971   6.770   6.142
 9132TIP3   OH227338   4.764   1.928   2.163
 9132TIP3    H127339   4.800   2.014   2.141
 9132TIP3    H227340   4.836   1.881   2.205
 9133TIP3   OH227341   4.325   7.615   1.484
 9133TIP3    H127342   4.268   7.553   1.437
 9133TIP3    H227343   4.378   7.559   1.541
 9134TIP3   OH227344   2.550   3.942   6.401
 9134TIP3    H127345   2.597   3.864   6.373
 9134TIP3    H227346   2.483   3.910   6.462
 9135TIP3   OH227347   1.639   0.983   3.348
 9135TIP3    H127348   1.730   0.981   3.319
 9135TIP3    H227349   1.621   1.076   3.363
 9136TIP3   OH227350   1.426   4.358   4.703
 9136TIP3    H127351   1.479   4.321   4.773
 9136TIP3    H227352   1.347   4.305   4.702
 9137TIP3   OH227353   1.603   5.504   4.480
 9137TIP3    H127354   1.596   5.471   4.570
 9137TIP3    H227355   1.526   5.560   4.470
 9138TIP3   OH227356   6.778   4.104   0.653
 9138TIP3    H127357   6.761   4.071   0.741
 9138TIP3    H227358   6.712   4.063   0.598
 9139TIP3   OH227359   5.143   6.114   4.386
 9139TIP3    H127360   5.063   6.063   4.401
 9139TIP3    H227361   5.204   6.082   4.453
 9140TIP3   OH227362   8.083   4.923   6.720
 9140TIP3    H127363   8.122   4.903   6.634
 9140TIP3    H227364   8.148   4.891   6.783
 9141TIP3   OH227365   2.255   5.944   0.424
 9141TIP3    H127366   2.256   5.868   0.482
 9141TIP3    H227367   2.205   6.010   0.472
 9142TIP3   OH227368   4.812   0.017   4.231
 9142TIP3    H127369   4.818   0.061   4.146
 9142TIP3    H227370   4.718   0.008   4.248
 9143TIP3   OH227371   4.607   3.833   6.661
 9143TIP3    H127372   4.607   3.911   6.606
 9143TIP3    H227373   4.519   3.830   6.699
 9144TIP3   OH227374   0.653   2.380   2.828
 9144TIP3    H127375   0.608   2.366   2.911
 9144TIP3    H227376   0.585   2.376   2.762
 9145TIP3   OH227377   4.327   4.838   6.676
 9145TIP3    H127378   4.369   4.804   6.597
 9145TIP3    H227379   4.261   4.773   6.700
 9146TIP3   OH227380   2.928   2.008   1.691
 9146TIP3    H127381   2.934   2.010   1.787
 9146TIP3    H227382   2.981   2.083   1.663
 9147TIP3   OH227383   7.052   6.856   3.148
 9147TIP3    H127384   7.140   6.819   3.156
 9147TIP3    H227385   7.019   6.861   3.237
 9148TIP3   OH227386   1.681   7.390   4.680
 9148TIP3    H127387   1.675   7.315   4.621
 9148TIP3    H227388   1.723   7.354   4.759
 9149TIP3   OH227389   6.158   4.087   5.341
 9149TIP3    H127390   6.182   4.067   5.251
 9149TIP3    H227391   6.241   4.085   5.389
 9150TIP3   OH227392   0.242   3.740   5.209
 9150TIP3    H127393   0.176   3.754   5.278
 9150TIP3    H227394   0.196   3.760   5.128
 9151TIP3   OH227395   2.641   5.057   4.983
 9151TIP3    H127396   2.725   5.053   4.938
 9151TIP3    H227397   2.648   5.132   5.041
 9152TIP3   OH227398   2.602   4.243   5.847
 9152TIP3    H127399   2.604   4.338   5.838
 9152TIP3    H227400   2.680   4.222   5.897
 9153TIP3   OH227401   1.627   5.407   1.964
 9153TIP3    H127402   1.624   5.373   2.053
 9153TIP3    H227403   1.661   5.496   1.974
 9154TIP3   OH227404   2.082   7.408   6.692
 9154TIP3    H127405   2.054   7.340   6.631
 9154TIP3    H227406   2.012   7.474   6.688
 9155TIP3   OH227407   3.036   2.465   6.321
 9155TIP3    H127408   3.082   2.506   6.248
 9155TIP3    H227409   3.075   2.378   6.328
 9156TIP3   OH227410   3.543   6.210   6.695
 9156TIP3    H127411   3.522   6.283   6.753
 9156TIP3    H227412   3.611   6.161   6.742
 9157TIP3   OH227413   1.938   1.963   4.381
 9157TIP3    H127414   1.972   1.879   4.409
 9157TIP3    H227415   1.846   1.945   4.360
 9158TIP3   OH227416   0.143   5.914   2.405
 9158TIP3    H127417   0.237   5.896   2.407
 9158TIP3    H227418   0.135   5.995   2.356
 9159TIP3   OH227419   0.876   3.893   2.792
 9159TIP3    H127420   0.854   3.833   2.863
 9159TIP3    H227421   0.816   3.870   2.721
 9160TIP3   OH227422   7.219   3.233   0.478
 9160TIP3    H127423   7.276   3.281   0.539
 9160TIP3    H227424   7.257   3.250   0.392
 9161TIP3   OH227425   4.991   6.842   4.210
 9161TIP3    H127426   5.076   6.843   4.255
 9161TIP3    H227427   4.931   6.804   4.275
 9162TIP3   OH227428   7.300   7.405   4.721
 9162TIP3    H127429   7.341   7.460   4.788
 9162TIP3    H227430   7.361   7.333   4.709
 9163TIP3   OH227431   2.291   2.884   5.398
 9163TIP3    H127432   2.231   2.813   5.423
 9163TIP3    H227433   2.254   2.918   5.316
 9164TIP3   OH227434   0.182   4.857   4.735
 9164TIP3    H127435   0.176   4.855   4.831
 9164TIP3    H227436   0.177   4.950   4.713
 9165TIP3   OH227437   5.593   4.012   2.529
 9165TIP3    H127438   5.536   4.084   2.553
 9165TIP3    H227439   5.681   4.043   2.551
 9166TIP3   OH227440   0.320   0.036   3.865
 9166TIP3    H127441   0.311   0.084   3.948
 9166TIP3    H227442   0.371   0.094   3.809
 9167TIP3   OH227443   1.255   0.027   3.862
 9167TIP3    H127444   1.185  -0.020   3.908
 9167TIP3    H227445   1.254  -0.010   3.774
 9168TIP3   OH227446   2.531   2.086   5.919
 9168TIP3    H127447   2.494   2.167   5.885
 9168TIP3    H227448   2.621   2.085   5.887
 9169TIP3   OH227449   4.759   6.490   1.742
 9169TIP3    H127450   4.848   6.522   1.752
 9169TIP3    H227451   4.714   6.517   1.822
 9170TIP3   OH227452   8.118   4.473   6.045
 9170TIP3    H127453   8.125   4.378   6.046
 9170TIP3    H227454   8.195   4.503   6.093
 9171TIP3   OH227455   3.815   3.385   6.580
 9171TIP3    H127456   3.908   3.382   6.601
 9171TIP3    H227457   3.809   3.439   6.502
 9172TIP3   OH227458   7.934   0.927   6.337
 9172TIP3    H127459   7.937   0.947   6.431
 9172TIP3    H227460   7.854   0.969   6.306
 9173TIP3   OH227461   7.749   3.419   5.758
 9173TIP3    H127462   7.816   3.369   5.711
 9173TIP3    H227463   7.787   3.506   5.767
 9174TIP3   OH227464   5.758   5.728   4.564
 9174TIP3    H127465   5.705   5.788   4.511
 9174TIP3    H227466   5.713   5.644   4.559
 9175TIP3   OH227467   1.609   2.112   4.778
 9175TIP3    H127468   1.663   2.146   4.849
 9175TIP3    H227469   1.664   2.047   4.735
 9176TIP3   OH227470   4.209   4.638   3.463
 9176TIP3    H127471   4.282   4.660   3.521
 9176TIP3    H227472   4.195   4.718   3.412
 9177TIP3   OH227473   6.810   4.607   0.058
 9177TIP3    H127474   6.716   4.612   0.041
 9177TIP3    H227475   6.851   4.637  -0.024
 9178TIP3   OH227476   3.386   5.533   6.265
 9178TIP3    H127477   3.477   5.521   6.290
 9178TIP3    H227478   3.339   5.463   6.309
 9179TIP3   OH227479   5.169   5.161   0.542
 9179TIP3    H127480   5.122   5.231   0.497
 9179TIP3    H227481   5.170   5.088   0.480
 9180TIP3   OH227482   6.377   5.367   0.823
 9180TIP3    H127483   6.318   5.412   0.883
 9180TIP3    H227484   6.432   5.312   0.880
 9181TIP3   OH227485   6.023   3.340   2.880
 9181TIP3    H127486   6.110   3.349   2.840
 9181TIP3    H227487   6.040   3.341   2.974
 9182TIP3   OH227488   4.116   6.007   3.813
 9182TIP3    H127489   4.129   5.945   3.884
 9182TIP3    H227490   4.161   6.087   3.842
 9183TIP3   OH227491   2.735   2.411   4.839
 9183TIP3    H127492   2.762   2.321   4.825
 9183TIP3    H227493   2.683   2.433   4.762
 9184TIP3   OH227494   1.118   5.992   4.340
 9184TIP3    H127495   1.122   5.901   4.313
 9184TIP3    H227496   1.109   5.989   4.436
 9185TIP3   OH227497   6.320   0.681   4.980
 9185TIP3    H127498   6.402   0.729   4.970
 9185TIP3    H227499   6.337   0.596   4.940
 9186TIP3   OH227500   3.806   0.769   2.378
 9186TIP3    H127501   3.840   0.810   2.298
 9186TIP3    H227502   3.741   0.706   2.347
 9187TIP3   OH227503   1.323   1.454   4.326
 9187TIP3    H127504   1.358   1.378   4.281
 9187TIP3    H227505   1.231   1.433   4.342
 9188TIP3   OH227506   3.477   3.903   2.474
 9188TIP3    H127507   3.475   3.831   2.411
 9188TIP3    H227508   3.540   3.876   2.540
 9189TIP3   OH227509   0.098   1.942   1.184
 9189TIP3    H127510   0.036   1.908   1.248
 9189TIP3    H227511   0.103   1.874   1.117
 9190TIP3   OH227512   2.786   5.499   0.666
 9190TIP3    H127513   2.807   5.583   0.707
 9190TIP3    H227514   2.715   5.519   0.605
 9191TIP3   OH227515   2.440   4.850   6.057
 9191TIP3    H127516   2.438   4.941   6.089
 9191TIP3    H227517   2.363   4.842   6.002
 9192TIP3   OH227518   0.648   5.052   2.589
 9192TIP3    H127519   0.677   4.964   2.615
 9192TIP3    H227520   0.708   5.111   2.633
 9193TIP3   OH227521   6.090   2.687   4.984
 9193TIP3    H127522   6.141   2.667   5.063
 9193TIP3    H227523   6.155   2.683   4.913
 9194TIP3   OH227524   1.336   6.858   0.467
 9194TIP3    H127525   1.305   6.869   0.557
 9194TIP3    H227526   1.281   6.789   0.430
 9195TIP3   OH227527   2.982   0.262   2.206
 9195TIP3    H127528   3.025   0.180   2.230
 9195TIP3    H227529   3.041   0.330   2.238
 9196TIP3   OH227530   8.123   7.045   2.251
 9196TIP3    H127531   8.162   7.132   2.257
 9196TIP3    H227532   8.110   7.031   2.158
 9197TIP3   OH227533   1.894   2.960   0.796
 9197TIP3    H127534   1.981   2.921   0.795
 9197TIP3    H227535   1.905   3.043   0.843
 9198TIP3   OH227536   8.267   2.789   5.597
 9198TIP3    H127537   8.210   2.837   5.657
 9198TIP3    H227538   8.356   2.811   5.627
 9199TIP3   OH227539   6.242   3.360   6.214
 9199TIP3    H127540   6.231   3.317   6.299
 9199TIP3    H227541   6.159   3.406   6.199
 9200TIP3   OH227542   7.455   6.372   2.094
 9200TIP3    H127543   7.364   6.353   2.118
 9200TIP3    H227544   7.502   6.291   2.113
 9201TIP3   OH227545   0.227   1.164   6.265
 9201TIP3    H127546   0.194   1.110   6.337
 9201TIP3    H227547   0.322   1.162   6.274
 9202TIP3   OH227548   3.371   4.329   0.562
 9202TIP3    H127549   3.310   4.261   0.591
 9202TIP3    H227550   3.328   4.371   0.488
 9203TIP3   OH227551   3.276   3.984   0.375
 9203TIP3    H127552   3.346   3.932   0.334
 9203TIP3    H227553   3.275   4.066   0.325
 9204TIP3   OH227554   8.092   4.386   3.046
 9204TIP3    H127555   8.089   4.450   3.118
 9204TIP3    H227556   8.086   4.440   2.966
 9205TIP3   OH227557   8.111   3.880   2.246
 9205TIP3    H127558   8.147   3.907   2.331
 9205TIP3    H227559   8.077   3.792   2.262
 9206TIP3   OH227560   4.846   3.837   6.289
 9206TIP3    H127561   4.823   3.745   6.276
 9206TIP3    H227562   4.762   3.883   6.292
 9207TIP3   OH227563   0.591   3.581   1.368
 9207TIP3    H127564   0.538   3.656   1.396
 9207TIP3    H227565   0.531   3.528   1.316
 9208TIP3   OH227566   3.975   7.039   1.027
 9208TIP3    H127567   3.954   6.976   0.957
 9208TIP3    H227568   4.024   6.988   1.091
 9209TIP3   OH227569   3.084   4.666   5.275
 9209TIP3    H127570   3.178   4.677   5.262
 9209TIP3    H227571   3.046   4.748   5.244
 9210TIP3   OH227572   5.954   0.300   1.151
 9210TIP3    H127573   5.904   0.291   1.232
 9210TIP3    H227574   5.980   0.392   1.148
 9211TIP3   OH227575   7.204   0.450   2.323
 9211TIP3    H127576   7.150   0.402   2.261
 9211TIP3    H227577   7.286   0.465   2.277
 9212TIP3   OH227578   7.243   2.164   2.424
 9212TIP3    H127579   7.232   2.226   2.351
 9212TIP3    H227580   7.232   2.217   2.502
 9213TIP3   OH227581   4.448   4.026   3.314
 9213TIP3    H127582   4.414   3.939   3.293
 9213TIP3    H227583   4.506   4.048   3.241
 9214TIP3   OH227584   4.772   6.992   2.479
 9214TIP3    H127585   4.839   6.927   2.455
 9214TIP3    H227586   4.779   7.059   2.411
 9215TIP3   OH227587   5.020   3.999   2.563
 9215TIP3    H127588   4.955   4.019   2.495
 9215TIP3    H227589   5.045   4.084   2.598
 9216TIP3   OH227590   5.447   7.279   5.022
 9216TIP3    H127591   5.379   7.260   4.957
 9216TIP3    H227592   5.527   7.244   4.985
 9217TIP3   OH227593   3.320   6.378   6.361
 9217TIP3    H127594   3.369   6.392   6.442
 9217TIP3    H227595   3.288   6.465   6.337
 9218TIP3   OH227596   3.275   0.201   6.074
 9218TIP3    H127597   3.228   0.160   6.001
 9218TIP3    H227598   3.261   0.141   6.148
 9219TIP3   OH227599   5.236   7.520   6.510
 9219TIP3    H127600   5.241   7.615   6.517
 9219TIP3    H227601   5.258   7.502   6.419
 9220TIP3   OH227602   4.897   2.063   1.824
 9220TIP3    H127603   4.953   2.132   1.861
 9220TIP3    H227604   4.813   2.074   1.869
 9221TIP3   OH227605   5.649   0.376   6.270
 9221TIP3    H127606   5.578   0.323   6.307
 9221TIP3    H227607   5.604   0.446   6.223
 9222TIP3   OH227608   2.538   3.106   2.573
 9222TIP3    H127609   2.607   3.060   2.621
 9222TIP3    H227610   2.468   3.117   2.637
 9223TIP3   OH227611   7.010   3.324   3.358
 9223TIP3    H127612   7.077   3.348   3.294
 9223TIP3    H227613   7.041   3.361   3.441
 9224TIP3   OH227614   2.136   1.504   3.007
 9224TIP3    H127615   2.159   1.562   3.079
 9224TIP3    H227616   2.219   1.462   2.982
 9225TIP3   OH227617   3.464   6.531   6.557
 9225TIP3    H127618   3.409   6.604   6.528
 9225TIP3    H227619   3.427   6.505   6.641
 9226TIP3   OH227620   7.019   0.651   0.616
 9226TIP3    H127621   7.110   0.625   0.600
 9226TIP3    H227622   6.970   0.569   0.618
 9227TIP3   OH227623   3.807   0.277   3.140
 9227TIP3    H127624   3.860   0.311   3.213
 9227TIP3    H227625   3.729   0.242   3.182
 9228TIP3   OH227626   2.380   3.837   0.963
 9228TIP3    H127627   2.391   3.781   0.887
 9228TIP3    H227628   2.375   3.926   0.928
 9229TIP3   OH227629   3.746   5.170   6.714
 9229TIP3    H127630   3.690   5.094   6.730
 9229TIP3    H227631   3.698   5.243   6.752
 9230TIP3   OH227632   2.463   5.020   1.319
 9230TIP3    H127633   2.430   5.035   1.407
 9230TIP3    H227634   2.497   4.930   1.322
 9231TIP3   OH227635   3.405   5.115   4.132
 9231TIP3    H127636   3.371   5.042   4.080
 9231TIP3    H227637   3.497   5.093   4.147
 9232TIP3   OH227638   2.594   1.127   4.627
 9232TIP3    H127639   2.672   1.184   4.630
 9232TIP3    H227640   2.568   1.127   4.535
 9233TIP3   OH227641   7.349   2.795   2.748
 9233TIP3    H127642   7.331   2.865   2.685
 9233TIP3    H227643   7.356   2.839   2.832
 9234TIP3   OH227644   1.689   2.018   0.800
 9234TIP3    H127645   1.617   2.051   0.855
 9234TIP3    H227646   1.679   1.923   0.803
 9235TIP3   OH227647   4.484   5.330   3.607
 9235TIP3    H127648   4.400   5.283   3.609
 9235TIP3    H227649   4.550   5.262   3.598
 9236TIP3   OH227650   1.667   0.508   1.275
 9236TIP3    H127651   1.639   0.416   1.269
 9236TIP3    H227652   1.760   0.503   1.295
 9237TIP3   OH227653   6.792   5.682   6.185
 9237TIP3    H127654   6.796   5.647   6.274
 9237TIP3    H227655   6.873   5.654   6.144
 9238TIP3   OH227656   6.079   4.467   5.436
 9238TIP3    H127657   6.003   4.517   5.467
 9238TIP3    H227658   6.052   4.436   5.349
 9239TIP3   OH227659   5.161   7.384   0.497
 9239TIP3    H127660   5.159   7.311   0.559
 9239TIP3    H227661   5.088   7.440   0.524
 9240TIP3   OH227662   4.939   5.635   2.702
 9240TIP3    H127663   4.853   5.656   2.739
 9240TIP3    H227664   4.979   5.720   2.687
 9241TIP3   OH227665   2.713   3.029   1.869
 9241TIP3    H127666   2.703   2.935   1.883
 9241TIP3    H227667   2.670   3.046   1.785
 9242TIP3   OH227668   7.168   2.440   2.574
 9242TIP3    H127669   7.252   2.442   2.619
 9242TIP3    H227670   7.108   2.398   2.636
 9243TIP3   OH227671   0.728   2.912   0.070
 9243TIP3    H127672   0.651   2.856   0.061
 9243TIP3    H227673   0.748   2.939  -0.019
 9244TIP3   OH227674   4.618   1.197   6.011
 9244TIP3    H127675   4.685   1.151   5.960
 9244TIP3    H227676   4.578   1.258   5.949
 9245TIP3   OH227677   2.437   2.948   0.444
 9245TIP3    H127678   2.459   2.856   0.460
 9245TIP3    H227679   2.361   2.965   0.501
 9246TIP3   OH227680   3.552   7.367   0.848
 9246TIP3    H127681   3.507   7.433   0.900
 9246TIP3    H227682   3.631   7.410   0.816
 9247TIP3   OH227683   4.349   5.938   2.020
 9247TIP3    H127684   4.407   5.861   2.019
 9247TIP3    H227685   4.261   5.901   2.016
 9248TIP3   OH227686   3.962   3.134   3.423
 9248TIP3    H127687   3.904   3.207   3.447
 9248TIP3    H227688   3.935   3.062   3.481
 9249TIP3   OH227689   1.252   1.927   4.419
 9249TIP3    H127690   1.280   1.910   4.329
 9249TIP3    H227691   1.281   1.851   4.469
 9250TIP3   OH227692   4.765   0.892   0.583
 9250TIP3    H127693   4.733   0.883   0.672
 9250TIP3    H227694   4.698   0.851   0.529
 9251TIP3   OH227695   8.089   6.512   5.126
 9251TIP3    H127696   8.126   6.431   5.162
 9251TIP3    H227697   8.072   6.567   5.202
 9252TIP3   OH227698   7.690   6.353   5.209
 9252TIP3    H127699   7.713   6.261   5.196
 9252TIP3    H227700   7.721   6.374   5.297
 9253TIP3   OH227701   2.086   4.477   2.524
 9253TIP3    H127702   2.013   4.498   2.466
 9253TIP3    H227703   2.091   4.551   2.584
 9254TIP3   OH227704   6.145   6.036   3.119
 9254TIP3    H127705   6.136   6.127   3.089
 9254TIP3    H227706   6.072   5.990   3.079
 9255TIP3   OH227707   5.782   0.101   2.042
 9255TIP3    H127708   5.701   0.052   2.057
 9255TIP3    H227709   5.794   0.099   1.947
 9256TIP3   OH227710   0.273   4.072   5.430
 9256TIP3    H127711   0.257   4.125   5.352
 9256TIP3    H227712   0.280   4.136   5.501
 9257TIP3   OH227713   2.013   6.262   0.026
 9257TIP3    H127714   2.059   6.190   0.068
 9257TIP3    H227715   1.930   6.224  -0.004
 9258TIP3   OH227716   5.379   0.890   3.547
 9258TIP3    H127717   5.374   0.794   3.539
 9258TIP3    H227718   5.289   0.917   3.565
 9259TIP3   OH227719   7.302   2.161   5.398
 9259TIP3    H127720   7.206   2.164   5.393
 9259TIP3    H227721   7.327   2.090   5.339
 9260TIP3   OH227722   2.415   1.803   3.015
 9260TIP3    H127723   2.400   1.887   3.059
 9260TIP3    H227724   2.367   1.810   2.933
 9261TIP3   OH227725   1.924   4.061   6.289
 9261TIP3    H127726   1.829   4.049   6.284
 9261TIP3    H227727   1.944   4.123   6.219
 9262TIP3   OH227728   3.674   2.179   4.503
 9262TIP3    H127729   3.588   2.204   4.536
 9262TIP3    H227730   3.657   2.121   4.430
 9263TIP3   OH227731   4.657   7.545   3.411
 9263TIP3    H127732   4.590   7.497   3.458
 9263TIP3    H227733   4.643   7.523   3.319
 9264TIP3   OH227734   0.758   1.536   2.836
 9264TIP3    H127735   0.814   1.589   2.780
 9264TIP3    H227736   0.669   1.552   2.804
 9265TIP3   OH227737   2.162   7.029   1.291
 9265TIP3    H127738   2.196   6.984   1.369
 9265TIP3    H227739   2.163   6.963   1.222
 9266TIP3   OH227740   4.018   6.787   1.429
 9266TIP3    H127741   4.109   6.767   1.406
 9266TIP3    H227742   3.987   6.708   1.473
 9267TIP3   OH227743   6.416   6.119   2.965
 9267TIP3    H127744   6.381   6.197   2.922
 9267TIP3    H227745   6.412   6.051   2.898
 9268TIP3   OH227746   7.844   5.678   2.348
 9268TIP3    H127747   7.866   5.638   2.264
 9268TIP3    H227748   7.908   5.748   2.359
 9269TIP3   OH227749   1.123   4.804   2.502
 9269TIP3    H127750   1.072   4.749   2.561
 9269TIP3    H227751   1.164   4.743   2.441
 9270TIP3   OH227752   6.647   2.733   4.890
 9270TIP3    H127753   6.586   2.762   4.958
 9270TIP3    H227754   6.709   2.806   4.882
 9271TIP3   OH227755   4.574   1.149   1.935
 9271TIP3    H127756   4.523   1.093   1.876
 9271TIP3    H227757   4.636   1.090   1.977
 9272TIP3   OH227758   1.730   3.265   0.425
 9272TIP3    H127759   1.660   3.258   0.359
 9272TIP3    H227760   1.798   3.317   0.382
 9273TIP3   OH227761   6.461   1.813   1.209
 9273TIP3    H127762   6.529   1.880   1.199
 9273TIP3    H227763   6.484   1.746   1.144
 9274TIP3   OH227764   6.791   1.667   1.633
 9274TIP3    H127765   6.704   1.707   1.630
 9274TIP3    H227766   6.847   1.734   1.671
 9275TIP3   OH227767   0.360   1.294   4.578
 9275TIP3    H127768   0.419   1.230   4.618
 9275TIP3    H227769   0.315   1.335   4.652
 9276TIP3   OH227770   0.773   5.930   5.151
 9276TIP3    H127771   0.714   6.001   5.125
 9276TIP3    H227772   0.854   5.974   5.174
 9277TIP3   OH227773   5.926   3.469   1.242
 9277TIP3    H127774   5.943   3.561   1.222
 9277TIP3    H227775   5.947   3.423   1.162
 9278TIP3   OH227776   1.466   0.885   6.001
 9278TIP3    H127777   1.425   0.954   5.948
 9278TIP3    H227778   1.399   0.860   6.064
 9279TIP3   OH227779   7.127   3.777   4.199
 9279TIP3    H127780   7.168   3.850   4.153
 9279TIP3    H227781   7.065   3.740   4.135
 9280TIP3   OH227782   3.252   1.022   3.145
 9280TIP3    H127783   3.248   1.092   3.080
 9280TIP3    H227784   3.345   1.004   3.156
 9281TIP3   OH227785   5.576   5.035   6.362
 9281TIP3    H127786   5.544   5.125   6.358
 9281TIP3    H227787   5.649   5.038   6.425
 9282TIP3   OH227788   0.849   5.119   5.863
 9282TIP3    H127789   0.851   5.027   5.890
 9282TIP3    H227790   0.906   5.164   5.925
 9283TIP3   OH227791   7.019   6.037   5.453
 9283TIP3    H127792   6.952   6.102   5.430
 9283TIP3    H227793   6.982   5.954   5.424
 9284TIP3   OH227794   2.670   1.140   0.894
 9284TIP3    H127795   2.729   1.121   0.968
 9284TIP3    H227796   2.583   1.123   0.928
 9285TIP3   OH227797   4.625   1.009   2.515
 9285TIP3    H127798   4.532   1.012   2.496
 9285TIP3    H227799   4.631   0.967   2.602
 9286TIP3   OH227800   1.338   0.468   6.530
 9286TIP3    H127801   1.319   0.524   6.605
 9286TIP3    H227802   1.286   0.505   6.458
 9287TIP3   OH227803   0.704   4.382   1.371
 9287TIP3    H127804   0.737   4.305   1.418
 9287TIP3    H227805   0.779   4.415   1.323
 9288TIP3   OH227806   2.452   4.764   0.205
 9288TIP3    H127807   2.527   4.706   0.220
 9288TIP3    H227808   2.427   4.794   0.292
 9289TIP3   OH227809   2.683   3.488   5.224
 9289TIP3    H127810   2.773   3.519   5.216
 9289TIP3    H227811   2.689   3.407   5.274
 9290TIP3   OH227812   7.103   5.761   4.779
 9290TIP3    H127813   7.045   5.833   4.756
 9290TIP3    H227814   7.131   5.724   4.695
 9291TIP3   OH227815   3.190   5.296   1.350
 9291TIP3    H127816   3.247   5.271   1.277
 9291TIP3    H227817   3.139   5.217   1.368
 9292TIP3   OH227818   0.353   2.607   3.037
 9292TIP3    H127819   0.269   2.631   2.996
 9292TIP3    H227820   0.409   2.683   3.023
 9293TIP3   OH227821   1.856   0.985   5.085
 9293TIP3    H127822   1.806   0.994   5.166
 9293TIP3    H227823   1.935   0.937   5.110
 9294TIP3   OH227824   4.220   5.900   0.406
 9294TIP3    H127825   4.185   5.839   0.471
 9294TIP3    H227826   4.161   5.890   0.330
 9295TIP3   OH227827   3.035   4.345   5.068
 9295TIP3    H127828   3.114   4.393   5.045
 9295TIP3    H227829   3.008   4.380   5.153
 9296TIP3   OH227830   7.199   5.932   5.678
 9296TIP3    H127831   7.206   5.970   5.766
 9296TIP3    H227832   7.150   5.998   5.628
 9297TIP3   OH227833   4.870   1.575   2.043
 9297TIP3    H127834   4.795   1.528   2.080
 9297TIP3    H227835   4.838   1.608   1.959
 9298TIP3   OH227836   6.048   6.813   4.216
 9298TIP3    H127837   6.140   6.799   4.235
 9298TIP3    H227838   6.015   6.862   4.291
 9299TIP3   OH227839   6.063   0.609   1.579
 9299TIP3    H127840   6.139   0.557   1.554
 9299TIP3    H227841   6.100   0.695   1.600
 9300TIP3   OH227842   1.958   1.916   2.569
 9300TIP3    H127843   1.912   1.851   2.515
 9300TIP3    H227844   1.915   1.999   2.548
 9301TIP3   OH227845   2.649   2.182   5.061
 9301TIP3    H127846   2.726   2.169   5.117
 9301TIP3    H227847   2.666   2.128   4.984
 9302TIP3   OH227848   7.728   7.335   2.510
 9302TIP3    H127849   7.786   7.263   2.486
 9302TIP3    H227850   7.772   7.414   2.476
 9303TIP3   OH227851   2.896   0.903   3.477
 9303TIP3    H127852   2.963   0.969   3.492
 9303TIP3    H227853   2.857   0.925   3.393
 9304TIP3   OH227854   0.777   0.242   2.545
 9304TIP3    H127855   0.795   0.239   2.451
 9304TIP3    H227856   0.766   0.150   2.571
 9305TIP3   OH227857   7.976   2.524   3.883
 9305TIP3    H127858   7.903   2.535   3.823
 9305TIP3    H227859   7.973   2.433   3.910
 9306TIP3   OH227860   7.122   4.976   3.373
 9306TIP3    H127861   7.059   5.023   3.427
 9306TIP3    H227862   7.105   5.007   3.284
 9307TIP3   OH227863   0.708   5.954   2.894
 9307TIP3    H127864   0.802   5.944   2.882
 9307TIP3    H227865   0.669   5.891   2.832
 9308TIP3   OH227866   2.808   5.779   1.697
 9308TIP3    H127867   2.893   5.807   1.663
 9308TIP3    H227868   2.789   5.697   1.652
 9309TIP3   OH227869   1.189   3.752   5.515
 9309TIP3    H127870   1.121   3.819   5.504
 9309TIP3    H227871   1.258   3.796   5.566
 9310TIP3   OH227872   6.035   4.321   0.690
 9310TIP3    H127873   6.011   4.369   0.611
 9310TIP3    H227874   5.956   4.325   0.745
 9311TIP3   OH227875   8.115   5.087   4.179
 9311TIP3    H127876   8.176   5.154   4.211
 9311TIP3    H227877   8.066   5.132   4.110
 9312TIP3   OH227878   7.846   0.271   6.310
 9312TIP3    H127879   7.942   0.266   6.312
 9312TIP3    H227880   7.825   0.293   6.220
 9313TIP3   OH227881   1.646   0.328   4.343
 9313TIP3    H127882   1.581   0.297   4.281
 9313TIP3    H227883   1.615   0.415   4.369
 9314TIP3   OH227884   8.154   6.205   3.188
 9314TIP3    H127885   8.234   6.173   3.146
 9314TIP3    H227886   8.185   6.265   3.256
 9315TIP3   OH227887   3.488   5.050   6.447
 9315TIP3    H127888   3.424   4.983   6.426
 9315TIP3    H227889   3.570   5.018   6.409
 9316TIP3   OH227890   4.622   2.330   1.970
 9316TIP3    H127891   4.544   2.371   2.008
 9316TIP3    H227892   4.688   2.399   1.968
 9317TIP3   OH227893   2.342   4.152   0.416
 9317TIP3    H127894   2.406   4.131   0.484
 9317TIP3    H227895   2.382   4.122   0.335
 9318TIP3   OH227896   2.865   3.237   3.330
 9318TIP3    H127897   2.785   3.230   3.382
 9318TIP3    H227898   2.920   3.300   3.378
 9319TIP3   OH227899   7.820   6.420   4.969
 9319TIP3    H127900   7.877   6.344   4.985
 9319TIP3    H227901   7.762   6.422   5.045
 9320TIP3   OH227902   2.283   6.777   0.310
 9320TIP3    H127903   2.338   6.702   0.330
 9320TIP3    H227904   2.232   6.750   0.233
 9321TIP3   OH227905   5.555   7.531   2.401
 9321TIP3    H127906   5.474   7.559   2.444
 9321TIP3    H227907   5.610   7.499   2.472
 9322TIP3   OH227908   1.564   6.574   3.889
 9322TIP3    H127909   1.483   6.613   3.857
 9322TIP3    H227910   1.582   6.503   3.826
 9323TIP3   OH227911   0.359   5.669   0.036
 9323TIP3    H127912   0.282   5.694  -0.015
 9323TIP3    H227913   0.426   5.732   0.010
 9324TIP3   OH227914   4.844   3.589   4.787
 9324TIP3    H127915   4.822   3.498   4.806
 9324TIP3    H227916   4.937   3.586   4.764
 9325TIP3   OH227917   4.566   2.020   4.080
 9325TIP3    H127918   4.654   1.982   4.082
 9325TIP3    H227919   4.574   2.102   4.129
 9326TIP3   OH227920   0.011   5.219   5.881
 9326TIP3    H127921   0.092   5.262   5.851
 9326TIP3    H227922   0.013   5.133   5.840
 9327TIP3   OH227923   0.800   2.505   3.226
 9327TIP3    H127924   0.777   2.477   3.315
 9327TIP3    H227925   0.827   2.596   3.236
 9328TIP3   OH227926   0.037   5.725   4.875
 9328TIP3    H127927   0.026   5.636   4.842
 9328TIP3    H227928   0.125   5.724   4.914
 9329TIP3   OH227929   5.406   2.083   4.346
 9329TIP3    H127930   5.391   2.019   4.276
 9329TIP3    H227931   5.492   2.058   4.382
 9330TIP3   OH227932   7.106   3.571   0.777
 9330TIP3    H127933   7.111   3.477   0.791
 9330TIP3    H227934   7.070   3.580   0.688
 9331TIP3   OH227935   7.087   5.389   4.212
 9331TIP3    H127936   6.999   5.404   4.247
 9331TIP3    H227937   7.090   5.294   4.196
 9332TIP3   OH227938   6.461   6.232   4.361
 9332TIP3    H127939   6.376   6.200   4.391
 9332TIP3    H227940   6.493   6.162   4.303
 9333TIP3   OH227941   3.568   4.420   0.720
 9333TIP3    H127942   3.504   4.408   0.650
 9333TIP3    H227943   3.524   4.387   0.799
 9334TIP3   OH227944   5.100   0.973   3.551
 9334TIP3    H127945   5.023   0.993   3.497
 9334TIP3    H227946   5.137   1.058   3.572
 9335TIP3   OH227947   8.334   2.472   4.179
 9335TIP3    H127948   8.262   2.529   4.151
 9335TIP3    H227949   8.330   2.397   4.120
 9336TIP3   OH227950   0.743   5.747   2.102
 9336TIP3    H127951   0.770   5.792   2.182
 9336TIP3    H227952   0.784   5.660   2.108
 9337TIP3   OH227953   3.228   5.346   2.714
 9337TIP3    H127954   3.159   5.359   2.779
 9337TIP3    H227955   3.280   5.426   2.718
 9338TIP3   OH227956   4.221   0.072   4.629
 9338TIP3    H127957   4.310   0.048   4.602
 9338TIP3    H227958   4.233   0.134   4.701
 9339TIP3   OH227959   3.170   0.502   4.772
 9339TIP3    H127960   3.080   0.531   4.781
 9339TIP3    H227961   3.206   0.507   4.860
 9340TIP3   OH227962   5.270   0.737   0.693
 9340TIP3    H127963   5.245   0.749   0.785
 9340TIP3    H227964   5.206   0.788   0.644
 9341TIP3   OH227965   6.237   2.185   0.649
 9341TIP3    H127966   6.273   2.256   0.703
 9341TIP3    H227967   6.294   2.111   0.666
 9342TIP3   OH227968   8.020   3.895   5.424
 9342TIP3    H127969   8.002   3.988   5.441
 9342TIP3    H227970   7.980   3.848   5.497
 9343TIP3   OH227971   4.542   7.787   6.068
 9343TIP3    H127972   4.628   7.791   6.110
 9343TIP3    H227973   4.479   7.804   6.138
 9344TIP3   OH227974   4.753   1.470   5.753
 9344TIP3    H127975   4.690   1.398   5.746
 9344TIP3    H227976   4.786   1.463   5.843
 9345TIP3   OH227977   6.090   3.849   4.958
 9345TIP3    H127978   6.114   3.791   5.030
 9345TIP3    H227979   6.009   3.812   4.923
 9346TIP3   OH227980   5.657   1.795   0.812
 9346TIP3    H127981   5.639   1.710   0.852
 9346TIP3    H227982   5.664   1.777   0.718
 9347TIP3   OH227983   1.291   1.686   3.903
 9347TIP3    H127984   1.379   1.698   3.866
 9347TIP3    H227985   1.287   1.749   3.975
 9348TIP3   OH227986   7.618   5.950   2.343
 9348TIP3    H127987   7.581   5.871   2.382
 9348TIP3    H227988   7.655   5.921   2.260
 9349TIP3   OH227989   0.247   5.928   4.114
 9349TIP3    H127990   0.335   5.891   4.122
 9349TIP3    H227991   0.242   5.992   4.184
 9350TIP3   OH227992   3.504   1.792   3.291
 9350TIP3    H127993   3.567   1.811   3.222
 9350TIP3    H227994   3.539   1.716   3.337
 9351TIP3   OH227995   7.378   2.701   4.792
 9351TIP3    H127996   7.315   2.725   4.861
 9351TIP3    H227997   7.324   2.668   4.721
 9352TIP3   OH227998   6.284   0.098   2.783
 9352TIP3    H127999   6.302   0.009   2.752
 9352TIP3    H228000   6.191   0.110   2.768
 9353TIP3   OH228001   3.700   6.114   2.718
 9353TIP3    H128002   3.615   6.118   2.675
 9353TIP3    H228003   3.682   6.138   2.809
 9354TIP3   OH228004   6.305   6.810   4.017
 9354TIP3    H128005   6.367   6.743   4.043
 9354TIP3    H228006   6.300   6.803   3.921
 9355TIP3   OH228007   6.241   2.661   2.431
 9355TIP3    H128008   6.147   2.660   2.411
 9355TIP3    H228009   6.283   2.648   2.346
 9356TIP3   OH228010   5.561   0.630   6.161
 9356TIP3    H128011   5.471   0.609   6.184
 9356TIP3    H228012   5.554   0.707   6.105
 9357TIP3   OH228013   2.236   7.073   2.230
 9357TIP3    H128014   2.143   7.065   2.251
 9357TIP3    H228015   2.276   7.101   2.313
 9358TIP3   OH228016   4.842   0.022   0.162
 9358TIP3    H128017   4.902   0.077   0.111
 9358TIP3    H228018   4.759   0.070   0.159
 9359TIP3   OH228019   7.324   0.082   5.602
 9359TIP3    H128020   7.338   0.176   5.594
 9359TIP3    H228021   7.373   0.057   5.681
 9360TIP3   OH228022   0.141   0.553   3.626
 9360TIP3    H128023   0.147   0.459   3.644
 9360TIP3    H228024   0.108   0.559   3.536
 9361TIP3   OH228025   2.619   1.322   0.030
 9361TIP3    H128026   2.658   1.388   0.087
 9361TIP3    H228027   2.610   1.366  -0.055
 9362TIP3   OH228028   7.420   6.284   5.697
 9362TIP3    H128029   7.419   6.238   5.781
 9362TIP3    H228030   7.334   6.327   5.693
 9363TIP3   OH228031   4.224   4.175   3.416
 9363TIP3    H128032   4.170   4.101   3.446
 9363TIP3    H228033   4.313   4.141   3.419
 9364TIP3   OH228034   4.173   2.153   3.369
 9364TIP3    H128035   4.239   2.097   3.410
 9364TIP3    H228036   4.130   2.198   3.442
 9365TIP3   OH228037   6.488   0.454   1.267
 9365TIP3    H128038   6.537   0.374   1.288
 9365TIP3    H228039   6.450   0.437   1.181
 9366TIP3   OH228040   3.011   2.902   5.597
 9366TIP3    H128041   2.931   2.949   5.571
 9366TIP3    H228042   3.081   2.947   5.551
 9367TIP3   OH228043   4.821   0.108   3.614
 9367TIP3    H128044   4.846   0.016   3.621
 9367TIP3    H228045   4.853   0.135   3.527
 9368TIP3   OH228046   2.083   4.810   4.803
 9368TIP3    H128047   2.119   4.799   4.892
 9368TIP3    H228048   2.057   4.721   4.778
 9369TIP3   OH228049   0.677   5.127   3.594
 9369TIP3    H128050   0.699   5.037   3.617
 9369TIP3    H228051   0.706   5.138   3.504
 9370TIP3   OH228052   8.213   4.128   0.522
 9370TIP3    H128053   8.257   4.124   0.437
 9370TIP3    H228054   8.196   4.037   0.544
 9371TIP3   OH228055   1.847   4.752   0.086
 9371TIP3    H128056   1.902   4.831   0.083
 9371TIP3    H228057   1.780   4.772   0.151
 9372TIP3   OH228058   3.576   4.615   2.220
 9372TIP3    H128059   3.558   4.543   2.160
 9372TIP3    H228060   3.599   4.573   2.302
 9373TIP3   OH228061   5.013   7.308   5.642
 9373TIP3    H128062   5.074   7.367   5.686
 9373TIP3    H228063   4.956   7.277   5.713
 9374TIP3   OH228064   1.983   0.714   2.024
 9374TIP3    H128065   1.973   0.620   2.040
 9374TIP3    H228066   2.064   0.722   1.974
 9375TIP3   OH228067   3.804   5.091   1.641
 9375TIP3    H128068   3.850   5.014   1.673
 9375TIP3    H228069   3.867   5.162   1.650
 9376TIP3   OH228070   6.417   4.190   3.730
 9376TIP3    H128071   6.458   4.138   3.798
 9376TIP3    H228072   6.325   4.198   3.758
 9377TIP3   OH228073   2.168   6.516   4.536
 9377TIP3    H128074   2.251   6.478   4.508
 9377TIP3    H228075   2.126   6.448   4.588
 9378TIP3   OH228076   0.664   7.039   4.757
 9378TIP3    H128077   0.709   6.957   4.739
 9378TIP3    H228078   0.639   7.032   4.849
 9379TIP3   OH228079   0.541   7.539   4.855
 9379TIP3    H128080   0.590   7.576   4.782
 9379TIP3    H228081   0.450   7.535   4.823
 9380TIP3   OH228082   1.774   5.597   0.995
 9380TIP3    H128083   1.837   5.546   1.044
 9380TIP3    H228084   1.802   5.589   0.904
 9381TIP3   OH228085   4.294   7.276   5.246
 9381TIP3    H128086   4.312   7.335   5.172
 9381TIP3    H228087   4.204   7.296   5.271
 9382TIP3   OH228088   2.522   6.528   4.047
 9382TIP3    H128089   2.537   6.433   4.056
 9382TIP3    H228090   2.429   6.536   4.026
 9383TIP3   OH228091   4.505   6.418   6.338
 9383TIP3    H128092   4.524   6.450   6.427
 9383TIP3    H228093   4.578   6.360   6.318
 9384TIP3   OH228094   3.288   0.403   1.103
 9384TIP3    H128095   3.383   0.391   1.102
 9384TIP3    H228096   3.275   0.497   1.109
 9385TIP3   OH228097   3.621   0.646   4.642
 9385TIP3    H128098   3.716   0.656   4.646
 9385TIP3    H228099   3.595   0.634   4.733
 9386TIP3   OH228100   6.512   7.617   0.778
 9386TIP3    H128101   6.453   7.631   0.853
 9386TIP3    H228102   6.599   7.637   0.813
 9387TIP3   OH228103   4.500   6.507   4.440
 9387TIP3    H128104   4.413   6.486   4.472
 9387TIP3    H228105   4.544   6.551   4.514
 9388TIP3   OH228106   0.459   0.396   6.324
 9388TIP3    H128107   0.476   0.308   6.289
 9388TIP3    H228108   0.514   0.454   6.273
 9389TIP3   OH228109   2.310   2.948   4.750
 9389TIP3    H128110   2.375   3.000   4.703
 9389TIP3    H228111   2.296   2.871   4.694
 9390TIP3   OH228112   6.027   2.110   6.526
 9390TIP3    H128113   5.970   2.151   6.461
 9390TIP3    H228114   6.043   2.022   6.493
 9391TIP3   OH228115   2.605   2.552   0.869
 9391TIP3    H128116   2.650   2.575   0.787
 9391TIP3    H228117   2.656   2.596   0.937
 9392TIP3   OH228118   3.585   7.634   5.080
 9392TIP3    H128119   3.593   7.698   5.010
 9392TIP3    H228120   3.649   7.661   5.145
 9393TIP3   OH228121   4.447   2.718   2.043
 9393TIP3    H128122   4.404   2.803   2.050
 9393TIP3    H228123   4.536   2.738   2.013
 9394TIP3   OH228124   5.870   6.662   3.328
 9394TIP3    H128125   5.911   6.682   3.245
 9394TIP3    H228126   5.880   6.568   3.338
 9395TIP3   OH228127   4.151   2.503   2.705
 9395TIP3    H128128   4.181   2.536   2.790
 9395TIP3    H228129   4.092   2.571   2.673
 9396TIP3   OH228130   4.903   0.619   0.921
 9396TIP3    H128131   4.979   0.646   0.973
 9396TIP3    H228132   4.842   0.693   0.929
 9397TIP3   OH228133   8.068   3.190   6.567
 9397TIP3    H128134   8.135   3.255   6.587
 9397TIP3    H228135   8.039   3.159   6.653
 9398TIP3   OH228136   0.092   4.726   3.238
 9398TIP3    H128137   0.147   4.649   3.237
 9398TIP3    H228138   0.043   4.722   3.155
 9399TIP3   OH228139   1.581   1.191   1.568
 9399TIP3    H128140   1.578   1.256   1.498
 9399TIP3    H228141   1.674   1.187   1.593
 9400TIP3   OH228142   0.294   7.280   1.919
 9400TIP3    H128143   0.313   7.344   1.987
 9400TIP3    H228144   0.302   7.195   1.963
 9401TIP3   OH228145   6.493   1.496   6.048
 9401TIP3    H128146   6.572   1.442   6.047
 9401TIP3    H228147   6.474   1.509   6.141
 9402TIP3   OH228148   3.311   7.614   6.454
 9402TIP3    H128149   3.306   7.602   6.549
 9402TIP3    H228150   3.250   7.550   6.419
 9403TIP3   OH228151   3.555   3.560   3.529
 9403TIP3    H128152   3.526   3.547   3.438
 9403TIP3    H228153   3.496   3.505   3.581
 9404TIP3   OH228154   2.431   5.335   4.339
 9404TIP3    H128155   2.464   5.410   4.388
 9404TIP3    H228156   2.509   5.296   4.299
 9405TIP3   OH228157   4.061   0.223   2.312
 9405TIP3    H128158   4.096   0.260   2.231
 9405TIP3    H228159   4.089   0.283   2.380
 9406TIP3   OH228160   4.504   5.551   5.857
 9406TIP3    H128161   4.514   5.635   5.903
 9406TIP3    H228162   4.412   5.530   5.867
 9407TIP3   OH228163   1.803   5.848   0.102
 9407TIP3    H128164   1.741   5.775   0.105
 9407TIP3    H228165   1.868   5.822   0.036
 9408TIP3   OH228166   3.087   2.306   3.748
 9408TIP3    H128167   3.126   2.284   3.663
 9408TIP3    H228168   3.006   2.256   3.751
 9409TIP3   OH228169   4.606   6.418   1.527
 9409TIP3    H128170   4.524   6.385   1.563
 9409TIP3    H228171   4.660   6.438   1.603
 9410TIP3   OH228172   0.388   0.811   4.922
 9410TIP3    H128173   0.345   0.740   4.969
 9410TIP3    H228174   0.331   0.827   4.846
 9411TIP3   OH228175   2.880   2.032   3.837
 9411TIP3    H128176   2.828   2.064   3.764
 9411TIP3    H228177   2.845   2.077   3.914
 9412TIP3   OH228178   6.658   4.772   5.899
 9412TIP3    H128179   6.616   4.770   5.813
 9412TIP3    H228180   6.692   4.684   5.912
 9413TIP3   OH228181   0.920   3.686   6.123
 9413TIP3    H128182   0.963   3.735   6.193
 9413TIP3    H228183   0.959   3.721   6.042
 9414TIP3   OH228184   2.964   0.569   6.479
 9414TIP3    H128185   3.036   0.538   6.425
 9414TIP3    H228186   3.003   0.634   6.536
 9415TIP3   OH228187   5.585   2.258   2.545
 9415TIP3    H128188   5.625   2.317   2.610
 9415TIP3    H228189   5.573   2.313   2.468
 9416TIP3   OH228190   4.141   6.423   0.981
 9416TIP3    H128191   4.131   6.465   0.895
 9416TIP3    H228192   4.052   6.419   1.016
 9417TIP3   OH228193   1.855   6.514   4.807
 9417TIP3    H128194   1.911   6.467   4.744
 9417TIP3    H228195   1.916   6.564   4.860
 9418TIP3   OH228196   4.093   0.195   2.757
 9418TIP3    H128197   4.006   0.175   2.723
 9418TIP3    H228198   4.125   0.266   2.701
 9419TIP3   OH228199   2.808   3.113   0.560
 9419TIP3    H128200   2.859   3.033   0.544
 9419TIP3    H228201   2.863   3.183   0.524
 9420TIP3   OH228202   1.205   2.410   1.169
 9420TIP3    H128203   1.169   2.431   1.255
 9420TIP3    H228204   1.255   2.487   1.143
 9421TIP3   OH228205   6.495   0.430   0.043
 9421TIP3    H128206   6.515   0.479  -0.037
 9421TIP3    H228207   6.400   0.438   0.052
 9422TIP3   OH228208   6.761   1.298   5.304
 9422TIP3    H128209   6.854   1.303   5.283
 9422TIP3    H228210   6.756   1.236   5.377
 9423TIP3   OH228211   3.367   1.838   0.903
 9423TIP3    H128212   3.292   1.779   0.913
 9423TIP3    H228213   3.390   1.863   0.992
 9424TIP3   OH228214   3.603   1.567   3.408
 9424TIP3    H128215   3.550   1.488   3.398
 9424TIP3    H228216   3.684   1.536   3.449
 9425TIP3   OH228217   5.712   6.064   4.032
 9425TIP3    H128218   5.676   6.065   4.121
 9425TIP3    H228219   5.730   6.156   4.013
 9426TIP3   OH228220   7.563   3.728   1.424
 9426TIP3    H128221   7.582   3.644   1.383
 9426TIP3    H228222   7.649   3.772   1.430
 9427TIP3   OH228223   1.030   5.733   1.051
 9427TIP3    H128224   1.023   5.790   1.128
 9427TIP3    H228225   0.945   5.742   1.007
 9428TIP3   OH228226   0.349   5.321   5.432
 9428TIP3    H128227   0.297   5.384   5.481
 9428TIP3    H228228   0.438   5.357   5.432
 9429TIP3   OH228229   6.563   7.013   0.476
 9429TIP3    H128230   6.492   7.075   0.460
 9429TIP3    H228231   6.565   6.959   0.397
 9430TIP3   OH228232   0.135   6.612   6.457
 9430TIP3    H128233   0.174   6.691   6.419
 9430TIP3    H228234   0.209   6.564   6.495
 9431TIP3   OH228235   0.172   5.740   6.695
 9431TIP3    H128236   0.134   5.828   6.696
 9431TIP3    H228237   0.111   5.688   6.643
 9432TIP3   OH228238   1.966   2.839   3.759
 9432TIP3    H128239   1.897   2.904   3.771
 9432TIP3    H228240   2.043   2.890   3.732
 9433TIP3   OH228241   2.023   3.368   1.427
 9433TIP3    H128242   1.936   3.382   1.465
 9433TIP3    H228243   2.083   3.385   1.500
 9434TIP3   OH228244   6.389   0.819   2.113
 9434TIP3    H128245   6.317   0.764   2.143
 9434TIP3    H228246   6.457   0.807   2.180
 9435TIP3   OH228247   0.777   1.902   5.501
 9435TIP3    H128248   0.801   1.832   5.440
 9435TIP3    H228249   0.856   1.955   5.510
 9436TIP3   OH228250   4.036   5.467   2.966
 9436TIP3    H128251   4.082   5.550   2.955
 9436TIP3    H228252   4.105   5.404   2.987
 9437TIP3   OH228253   6.692   0.308   5.359
 9437TIP3    H128254   6.766   0.279   5.412
 9437TIP3    H228255   6.702   0.262   5.276
 9438TIP3   OH228256   1.410   6.142   0.290
 9438TIP3    H128257   1.400   6.236   0.276
 9438TIP3    H228258   1.489   6.119   0.242
 9439TIP3   OH228259   6.230   7.400   1.257
 9439TIP3    H128260   6.253   7.353   1.177
 9439TIP3    H228261   6.157   7.456   1.232
 9440TIP3   OH228262   0.357   4.072   5.121
 9440TIP3    H128263   0.422   4.005   5.099
 9440TIP3    H228264   0.349   4.125   5.042
 9441TIP3   OH228265   5.310   0.127   1.282
 9441TIP3    H128266   5.228   0.176   1.293
 9441TIP3    H228267   5.293   0.043   1.325
 9442TIP3   OH228268   5.801   7.820   5.883
 9442TIP3    H128269   5.812   7.875   5.805
 9442TIP3    H228270   5.762   7.739   5.850
 9443TIP3   OH228271   5.472   0.209   0.380
 9443TIP3    H128272   5.406   0.140   0.373
 9443TIP3    H228273   5.555   0.161   0.385
 9444TIP3   OH228274   3.218   3.036   2.213
 9444TIP3    H128275   3.290   3.038   2.277
 9444TIP3    H228276   3.139   3.031   2.267
 9445TIP3   OH228277   1.714   2.487   5.474
 9445TIP3    H128278   1.703   2.430   5.398
 9445TIP3    H228279   1.628   2.527   5.487
 9446TIP3   OH228280   5.815   4.652   4.843
 9446TIP3    H128281   5.761   4.714   4.795
 9446TIP3    H228282   5.888   4.632   4.784
 9447TIP3   OH228283   6.220   3.104   4.904
 9447TIP3    H128284   6.211   3.162   4.829
 9447TIP3    H228285   6.288   3.145   4.958
 9448TIP3   OH228286   5.725   7.693   2.868
 9448TIP3    H128287   5.693   7.602   2.868
 9448TIP3    H228288   5.645   7.746   2.870
 9449TIP3   OH228289   5.808   1.898   3.386
 9449TIP3    H128290   5.752   1.863   3.317
 9449TIP3    H228291   5.896   1.867   3.365
 9450TIP3   OH228292   6.965   4.362   0.082
 9450TIP3    H128293   6.891   4.314   0.119
 9450TIP3    H228294   6.926   4.440   0.044
 9451TIP3   OH228295   3.815   1.553   6.778
 9451TIP3    H128296   3.862   1.509   6.850
 9451TIP3    H228297   3.858   1.521   6.699
 9452TIP3   OH228298   6.880   2.793   6.692
 9452TIP3    H128299   6.945   2.850   6.652
 9452TIP3    H228300   6.797   2.840   6.681
 9453TIP3   OH228301   4.813   1.088   6.652
 9453TIP3    H128302   4.846   1.000   6.634
 9453TIP3    H228303   4.725   1.089   6.614
 9454TIP3   OH228304   6.218   3.053   3.454
 9454TIP3    H128305   6.145   3.065   3.394
 9454TIP3    H228306   6.179   3.064   3.541
 9455TIP3   OH228307   7.098   0.601   4.030
 9455TIP3    H128308   7.190   0.579   4.015
 9455TIP3    H228309   7.082   0.677   3.974
 9456TIP3   OH228310   6.463   7.508   1.624
 9456TIP3    H128311   6.554   7.533   1.605
 9456TIP3    H228312   6.470   7.418   1.657
 9457TIP3   OH228313   2.172   6.011   0.036
 9457TIP3    H128314   2.232   6.046   0.103
 9457TIP3    H228315   2.133   5.934   0.077
 9458TIP3   OH228316   3.228   3.381   3.032
 9458TIP3    H128317   3.134   3.399   3.027
 9458TIP3    H228318   3.262   3.403   2.946
 9459TIP3   OH228319   3.198   1.239   2.961
 9459TIP3    H128320   3.110   1.203   2.970
 9459TIP3    H228321   3.205   1.263   2.868
 9460TIP3   OH228322   3.877   3.552   2.198
 9460TIP3    H128323   3.796   3.532   2.244
 9460TIP3    H228324   3.889   3.478   2.137
 9461TIP3   OH228325   2.500   6.312   0.528
 9461TIP3    H128326   2.508   6.313   0.623
 9461TIP3    H228327   2.508   6.220   0.504
 9462TIP3   OH228328   0.448   1.915   1.940
 9462TIP3    H128329   0.510   1.867   1.886
 9462TIP3    H228330   0.420   1.988   1.884
 9463TIP3   OH228331   7.543   3.160   3.720
 9463TIP3    H128332   7.576   3.082   3.676
 9463TIP3    H228333   7.555   3.231   3.657
 9464TIP3   OH228334   6.000   7.256   1.404
 9464TIP3    H128335   5.993   7.325   1.339
 9464TIP3    H228336   6.093   7.254   1.427
 9465TIP3   OH228337   1.729   1.583   3.711
 9465TIP3    H128338   1.795   1.647   3.684
 9465TIP3    H228339   1.688   1.621   3.788
 9466TIP3   OH228340   1.231   6.160   0.960
 9466TIP3    H128341   1.180   6.239   0.980
 9466TIP3    H228342   1.244   6.119   1.046
 9467TIP3   OH228343   1.252   4.725   4.354
 9467TIP3    H128344   1.318   4.665   4.389
 9467TIP3    H228345   1.194   4.669   4.303
 9468TIP3   OH228346   3.848   1.684   3.804
 9468TIP3    H128347   3.943   1.685   3.811
 9468TIP3    H228348   3.822   1.775   3.818
 9469TIP3   OH228349   6.309   3.446   0.152
 9469TIP3    H128350   6.344   3.357   0.140
 9469TIP3    H228351   6.216   3.433   0.171
 9470TIP3   OH228352   7.461   5.659   6.542
 9470TIP3    H128353   7.456   5.605   6.463
 9470TIP3    H228354   7.535   5.623   6.591
 9471TIP3   OH228355   4.954   3.091   1.528
 9471TIP3    H128356   4.987   3.051   1.608
 9471TIP3    H228357   5.029   3.137   1.490
 9472TIP3   OH228358   5.232   0.510   3.682
 9472TIP3    H128359   5.190   0.581   3.632
 9472TIP3    H228360   5.160   0.449   3.700
 9473TIP3   OH228361   3.616   2.906   4.143
 9473TIP3    H128362   3.636   2.845   4.213
 9473TIP3    H228363   3.654   2.867   4.064
 9474TIP3   OH228364   1.032   0.522   4.612
 9474TIP3    H128365   1.002   0.432   4.625
 9474TIP3    H228366   0.973   0.575   4.666
 9475TIP3   OH228367   6.697   4.079   5.555
 9475TIP3    H128368   6.635   4.024   5.604
 9475TIP3    H228369   6.781   4.066   5.598
 9476TIP3   OH228370   3.460   3.836   0.045
 9476TIP3    H128371   3.413   3.780   0.106
 9476TIP3    H228372   3.391   3.878  -0.007
 9477TIP3   OH228373   5.379   2.698   5.280
 9477TIP3    H128374   5.392   2.769   5.343
 9477TIP3    H228375   5.290   2.666   5.297
 9478TIP3   OH228376   4.464   6.460   6.076
 9478TIP3    H128377   4.535   6.413   6.031
 9478TIP3    H228378   4.472   6.435   6.168
 9479TIP3   OH228379   7.025   0.999   0.302
 9479TIP3    H128380   6.990   0.911   0.317
 9479TIP3    H228381   6.949   1.055   0.290
 9480TIP3   OH228382   1.184   5.988   5.970
 9480TIP3    H128383   1.236   5.910   5.953
 9480TIP3    H228384   1.225   6.028   6.047
 9481TIP3   OH228385   1.004   4.343   5.348
 9481TIP3    H128386   0.972   4.293   5.423
 9481TIP3    H228387   0.955   4.309   5.274
 9482TIP3   OH228388   8.065   1.145   2.643
 9482TIP3    H128389   8.141   1.194   2.676
 9482TIP3    H228390   8.019   1.207   2.587
 9483TIP3   OH228391   5.165   2.553   5.331
 9483TIP3    H128392   5.110   2.623   5.296
 9483TIP3    H228393   5.115   2.519   5.406
 9484TIP3   OH228394   4.113   4.637   4.501
 9484TIP3    H128395   4.153   4.624   4.415
 9484TIP3    H228396   4.054   4.562   4.511
 9485TIP3   OH228397   0.253   1.089   5.221
 9485TIP3    H128398   0.220   1.174   5.250
 9485TIP3    H228399   0.250   1.093   5.125
 9486TIP3   OH228400   3.589   7.674   2.676
 9486TIP3    H128401   3.543   7.602   2.632
 9486TIP3    H228402   3.673   7.636   2.703
 9487TIP3   OH228403   5.199   5.166   1.067
 9487TIP3    H128404   5.252   5.186   1.144
 9487TIP3    H228405   5.241   5.089   1.028
 9488TIP3   OH228406   5.814   6.731   0.844
 9488TIP3    H128407   5.805   6.730   0.749
 9488TIP3    H228408   5.776   6.815   0.870
 9489TIP3   OH228409   3.724   4.333   0.396
 9489TIP3    H128410   3.728   4.249   0.441
 9489TIP3    H228411   3.641   4.331   0.348
 9490TIP3   OH228412   8.047   4.894   5.016
 9490TIP3    H128413   8.067   4.846   5.097
 9490TIP3    H228414   8.115   4.960   5.009
 9491TIP3   OH228415   1.121   5.612   5.000
 9491TIP3    H128416   1.196   5.621   5.058
 9491TIP3    H228417   1.096   5.520   5.007
 9492TIP3   OH228418   3.603   7.543   6.238
 9492TIP3    H128419   3.575   7.528   6.148
 9492TIP3    H228420   3.579   7.463   6.285
 9493TIP3   OH228421   7.832   1.115   4.707
 9493TIP3    H128422   7.813   1.068   4.626
 9493TIP3    H228423   7.861   1.202   4.678
 9494TIP3   OH228424   2.367   0.933   5.528
 9494TIP3    H128425   2.371   1.015   5.578
 9494TIP3    H228426   2.278   0.931   5.492
 9495TIP3   OH228427   6.669   0.073   1.767
 9495TIP3    H128428   6.671   0.128   1.689
 9495TIP3    H228429   6.642   0.132   1.838
 9496TIP3   OH228430   4.567   2.050   5.257
 9496TIP3    H128431   4.549   1.964   5.217
 9496TIP3    H228432   4.481   2.092   5.262
 9497TIP3   OH228433   2.734   7.724   0.581
 9497TIP3    H128434   2.736   7.710   0.676
 9497TIP3    H228435   2.675   7.656   0.548
 9498TIP3   OH228436   2.813   1.595   6.347
 9498TIP3    H128437   2.887   1.584   6.288
 9498TIP3    H228438   2.741   1.550   6.302
 9499TIP3   OH228439   1.158   6.575   5.912
 9499TIP3    H128440   1.115   6.601   5.830
 9499TIP3    H228441   1.238   6.532   5.883
 9500TIP3   OH228442   8.306   1.736   4.851
 9500TIP3    H128443   8.239   1.684   4.894
 9500TIP3    H228444   8.377   1.742   4.916
 9501TIP3   OH228445   2.597   6.173   4.924
 9501TIP3    H128446   2.512   6.218   4.920
 9501TIP3    H228447   2.644   6.204   4.846
 9502TIP3   OH228448   7.707   4.985   4.299
 9502TIP3    H128449   7.677   4.976   4.390
 9502TIP3    H228450   7.660   5.061   4.265
 9503TIP3   OH228451   8.121   2.375   0.714
 9503TIP3    H128452   8.145   2.423   0.635
 9503TIP3    H228453   8.120   2.283   0.688
 9504TIP3   OH228454   5.624   0.606   4.562
 9504TIP3    H128455   5.716   0.587   4.581
 9504TIP3    H228456   5.575   0.549   4.622
 9505TIP3   OH228457   0.574   0.490   3.022
 9505TIP3    H128458   0.493   0.440   3.035
 9505TIP3    H228459   0.584   0.542   3.101
 9506TIP3   OH228460   0.987   1.818   3.580
 9506TIP3    H128461   1.020   1.803   3.669
 9506TIP3    H228462   0.895   1.792   3.584
 9507TIP3   OH228463   6.800   1.933   2.031
 9507TIP3    H128464   6.886   1.968   2.053
 9507TIP3    H228465   6.783   1.964   1.942
 9508TIP3   OH228466   1.382   1.700   4.511
 9508TIP3    H128467   1.457   1.680   4.567
 9508TIP3    H228468   1.396   1.649   4.431
 9509TIP3   OH228469   7.645   6.467   2.881
 9509TIP3    H128470   7.616   6.466   2.972
 9509TIP3    H228471   7.702   6.544   2.875
 9510TIP3   OH228472   6.508   1.648   1.516
 9510TIP3    H128473   6.556   1.575   1.476
 9510TIP3    H228474   6.466   1.692   1.443
 9511TIP3   OH228475   3.267   3.180   4.334
 9511TIP3    H128476   3.298   3.215   4.417
 9511TIP3    H228477   3.298   3.089   4.333
 9512TIP3   OH228478   7.950   0.835   5.253
 9512TIP3    H128479   7.919   0.895   5.321
 9512TIP3    H228480   8.004   0.890   5.195
 9513TIP3   OH228481   3.430   4.802   3.335
 9513TIP3    H128482   3.519   4.789   3.368
 9513TIP3    H228483   3.374   4.778   3.408
 9514TIP3   OH228484   5.087   7.818   0.542
 9514TIP3    H128485   5.070   7.805   0.448
 9514TIP3    H228486   5.057   7.737   0.583
 9515TIP3   OH228487   6.691   6.986   0.081
 9515TIP3    H128488   6.663   6.955  -0.006
 9515TIP3    H228489   6.639   6.935   0.142
 9516TIP3   OH228490   0.474   5.245   0.524
 9516TIP3    H128491   0.566   5.244   0.500
 9516TIP3    H228492   0.451   5.153   0.538
 9517TIP3   OH228493   4.106   5.311   6.706
 9517TIP3    H128494   4.147   5.366   6.773
 9517TIP3    H228495   4.147   5.226   6.716
 9518TIP3   OH228496   8.093   6.087   4.509
 9518TIP3    H128497   8.085   6.181   4.490
 9518TIP3    H228498   8.152   6.054   4.440
 9519TIP3   OH228499   0.783   1.748   3.808
 9519TIP3    H128500   0.815   1.670   3.762
 9519TIP3    H228501   0.716   1.715   3.868
 9520TIP3   OH228502   3.228   4.900   5.754
 9520TIP3    H128503   3.231   4.918   5.660
 9520TIP3    H228504   3.148   4.943   5.784
 9521TIP3   OH228505   5.071   7.233   2.981
 9521TIP3    H128506   5.111   7.297   3.040
 9521TIP3    H228507   5.108   7.149   3.008
 9522TIP3   OH228508   3.820   7.461   0.809
 9522TIP3    H128509   3.890   7.401   0.835
 9522TIP3    H228510   3.856   7.508   0.734
 9523TIP3   OH228511   7.970   0.094   5.677
 9523TIP3    H128512   7.882   0.058   5.686
 9523TIP3    H228513   7.962   0.161   5.609
 9524TIP3   OH228514   3.915   2.891   3.949
 9524TIP3    H128515   4.011   2.884   3.955
 9524TIP3    H228516   3.885   2.802   3.935
 9525TIP3   OH228517   0.665   6.422   4.774
 9525TIP3    H128518   0.572   6.409   4.791
 9525TIP3    H228519   0.696   6.339   4.739
 9526TIP3   OH228520   5.743   7.187   2.356
 9526TIP3    H128521   5.724   7.245   2.282
 9526TIP3    H228522   5.710   7.101   2.329
 9527TIP3   OH228523   7.722   0.709   0.800
 9527TIP3    H128524   7.718   0.802   0.777
 9527TIP3    H228525   7.814   0.693   0.822
 9528TIP3   OH228526   4.245   6.601   2.371
 9528TIP3    H128527   4.252   6.525   2.313
 9528TIP3    H228528   4.317   6.591   2.433
 9529TIP3   OH228529   5.366   4.939   1.050
 9529TIP3    H128530   5.410   4.854   1.057
 9529TIP3    H228531   5.431   5.002   1.083
 9530TIP3   OH228532   0.466   5.603   3.730
 9530TIP3    H128533   0.485   5.697   3.732
 9530TIP3    H228534   0.459   5.583   3.636
 9531TIP3   OH228535   7.841   7.379   3.519
 9531TIP3    H128536   7.826   7.450   3.581
 9531TIP3    H228537   7.838   7.299   3.573
 9532TIP3   OH228538   4.278   6.804   0.770
 9532TIP3    H128539   4.358   6.785   0.722
 9532TIP3    H228540   4.210   6.805   0.703
 9533TIP3   OH228541   6.913   1.233   1.689
 9533TIP3    H128542   6.941   1.313   1.734
 9533TIP3    H228543   6.982   1.216   1.625
 9534TIP3   OH228544   2.692   5.355   4.544
 9534TIP3    H128545   2.639   5.433   4.527
 9534TIP3    H228546   2.775   5.388   4.577
 9535TIP3   OH228547   5.513   6.475   2.152
 9535TIP3    H128548   5.585   6.522   2.110
 9535TIP3    H228549   5.520   6.497   2.244
 9536TIP3   OH228550   1.226   0.012   1.338
 9536TIP3    H128551   1.141   0.040   1.304
 9536TIP3    H228552   1.214   0.010   1.433
 9537TIP3   OH228553   4.564   2.721   5.015
 9537TIP3    H128554   4.569   2.795   5.076
 9537TIP3    H228555   4.477   2.728   4.975
 9538TIP3   OH228556   1.945   5.231   5.302
 9538TIP3    H128557   1.886   5.160   5.328
 9538TIP3    H228558   1.957   5.218   5.207
 9539TIP3   OH228559   8.176   4.303   1.520
 9539TIP3    H128560   8.229   4.240   1.471
 9539TIP3    H228561   8.164   4.263   1.606
 9540TIP3   OH228562   1.749   5.791   2.362
 9540TIP3    H128563   1.749   5.887   2.366
 9540TIP3    H228564   1.789   5.764   2.445
 9541TIP3   OH228565   3.403   7.050   0.086
 9541TIP3    H128566   3.369   7.096   0.009
 9541TIP3    H228567   3.376   6.959   0.074
 9542TIP3   OH228568   3.659   1.042   0.697
 9542TIP3    H128569   3.727   1.109   0.695
 9542TIP3    H228570   3.579   1.087   0.668
 9543TIP3   OH228571   2.317   3.319   5.406
 9543TIP3    H128572   2.344   3.257   5.338
 9543TIP3    H228573   2.239   3.280   5.445
 9544TIP3   OH228574   6.754   5.339   0.597
 9544TIP3    H128575   6.755   5.256   0.549
 9544TIP3    H228576   6.803   5.400   0.542
 9545TIP3   OH228577   5.210   2.204   1.070
 9545TIP3    H128578   5.236   2.143   1.002
 9545TIP3    H228579   5.167   2.275   1.023
 9546TIP3   OH228580   7.807   4.809   6.162
 9546TIP3    H128581   7.825   4.717   6.144
 9546TIP3    H228582   7.731   4.808   6.219
 9547TIP3   OH228583   3.879   0.991   0.896
 9547TIP3    H128584   3.814   1.049   0.935
 9547TIP3    H228585   3.839   0.961   0.814
 9548TIP3   OH228586   6.230   5.642   2.394
 9548TIP3    H128587   6.136   5.635   2.406
 9548TIP3    H228588   6.240   5.697   2.315
 9549TIP3   OH228589   4.774   2.514   5.093
 9549TIP3    H128590   4.703   2.488   5.034
 9549TIP3    H228591   4.810   2.431   5.125
 9550TIP3   OH228592   1.119   3.553   0.514
 9550TIP3    H128593   1.171   3.473   0.509
 9550TIP3    H228594   1.037   3.525   0.555
 9551TIP3   OH228595   4.005   4.635   0.745
 9551TIP3    H128596   4.088   4.667   0.781
 9551TIP3    H228597   4.015   4.644   0.650
 9552TIP3   OH228598   7.918   5.179   5.225
 9552TIP3    H128599   7.958   5.104   5.182
 9552TIP3    H228600   7.929   5.251   5.164
 9553TIP3   OH228601   4.271   7.232   1.087
 9553TIP3    H128602   4.312   7.316   1.107
 9553TIP3    H228603   4.179   7.242   1.112
 9554TIP3   OH228604   3.541   6.119   4.969
 9554TIP3    H128605   3.451   6.087   4.970
 9554TIP3    H228606   3.575   6.098   5.056
 9555TIP3   OH228607   2.855   4.077   5.384
 9555TIP3    H128608   2.933   4.120   5.348
 9555TIP3    H228609   2.845   3.997   5.332
 9556TIP3   OH228610   2.568   7.406   3.334
 9556TIP3    H128611   2.660   7.423   3.311
 9556TIP3    H228612   2.569   7.321   3.376
 9557TIP3   OH228613   1.844   4.541   5.277
 9557TIP3    H128614   1.804   4.537   5.364
 9557TIP3    H228615   1.816   4.460   5.234
 9558TIP3   OH228616   5.226   0.827   4.087
 9558TIP3    H128617   5.280   0.804   4.162
 9558TIP3    H228618   5.137   0.830   4.122
 9559TIP3   OH228619   2.403   0.130   3.895
 9559TIP3    H128620   2.365   0.088   3.972
 9559TIP3    H228621   2.496   0.110   3.900
 9560TIP3   OH228622   4.844   2.053   2.590
 9560TIP3    H128623   4.907   1.983   2.575
 9560TIP3    H228624   4.764   2.023   2.547
 9561TIP3   OH228625   7.348   5.596   1.209
 9561TIP3    H128626   7.314   5.679   1.176
 9561TIP3    H228627   7.301   5.529   1.160
 9562TIP3   OH228628   6.464   0.910   0.620
 9562TIP3    H128629   6.515   0.958   0.554
 9562TIP3    H228630   6.436   0.976   0.682
 9563TIP3   OH228631   1.261   4.153   5.662
 9563TIP3    H128632   1.247   4.183   5.572
 9563TIP3    H228633   1.291   4.063   5.653
 9564TIP3   OH228634   5.063   4.928   2.740
 9564TIP3    H128635   5.070   4.896   2.650
 9564TIP3    H228636   4.971   4.953   2.750
 9565TIP3   OH228637   1.773   1.210   6.314
 9565TIP3    H128638   1.724   1.129   6.330
 9565TIP3    H228639   1.707   1.271   6.280
 9566TIP3   OH228640   3.541   6.943   6.038
 9566TIP3    H128641   3.530   6.926   5.944
 9566TIP3    H228642   3.578   7.031   6.041
 9567TIP3   OH228643   1.344   6.351   4.916
 9567TIP3    H128644   1.323   6.293   4.842
 9567TIP3    H228645   1.432   6.384   4.897
 9568TIP3   OH228646   4.069   5.472   3.346
 9568TIP3    H128647   4.035   5.387   3.373
 9568TIP3    H228648   3.992   5.523   3.322
 9569TIP3   OH228649   5.044   3.843   4.749
 9569TIP3    H128650   4.953   3.850   4.777
 9569TIP3    H228651   5.064   3.750   4.754
 9570TIP3   OH228652   1.270   6.688   3.602
 9570TIP3    H128653   1.184   6.721   3.626
 9570TIP3    H228654   1.252   6.613   3.546
 9571TIP3   OH228655   4.762   0.543   3.769
 9571TIP3    H128656   4.765   0.611   3.701
 9571TIP3    H228657   4.814   0.579   3.841
 9572TIP3   OH228658   4.986   3.887   1.094
 9572TIP3    H128659   4.999   3.794   1.112
 9572TIP3    H228660   5.031   3.902   1.010
 9573TIP3   OH228661   2.016   7.399   2.905
 9573TIP3    H128662   1.921   7.408   2.908
 9573TIP3    H228663   2.046   7.433   2.990
 9574TIP3   OH228664   1.473   6.642   4.815
 9574TIP3    H128665   1.521   6.725   4.809
 9574TIP3    H228666   1.528   6.588   4.871
 9575TIP3   OH228667   1.886   1.285   6.567
 9575TIP3    H128668   1.839   1.269   6.485
 9575TIP3    H228669   1.838   1.356   6.609
 9576TIP3   OH228670   5.459   0.319   6.679
 9576TIP3    H128671   5.415   0.402   6.664
 9576TIP3    H228672   5.436   0.266   6.602
 9577TIP3   OH228673   5.088   6.029   6.307
 9577TIP3    H128674   5.003   6.001   6.272
 9577TIP3    H228675   5.144   6.039   6.230
 9578TIP3   OH228676   4.689   2.743   0.931
 9578TIP3    H128677   4.765   2.767   0.984
 9578TIP3    H228678   4.701   2.790   0.848
 9579TIP3   OH228679   8.170   7.302   2.157
 9579TIP3    H128680   8.239   7.317   2.093
 9579TIP3    H228681   8.090   7.291   2.105
 9580TIP3   OH228682   1.584   2.165   6.159
 9580TIP3    H128683   1.632   2.198   6.235
 9580TIP3    H228684   1.505   2.126   6.195
 9581TIP3   OH228685   0.989   4.840   2.093
 9581TIP3    H128686   0.952   4.926   2.074
 9581TIP3    H228687   0.920   4.794   2.141
 9582TIP3   OH228688   6.343   2.694   6.696
 9582TIP3    H128689   6.412   2.739   6.648
 9582TIP3    H228690   6.325   2.752   6.771
 9583TIP3   OH228691   2.467   6.489   5.083
 9583TIP3    H128692   2.396   6.472   5.021
 9583TIP3    H228693   2.507   6.571   5.052
 9584TIP3   OH228694   7.504   7.088   0.611
 9584TIP3    H128695   7.502   7.183   0.609
 9584TIP3    H228696   7.504   7.066   0.705
 9585TIP3   OH228697   6.070   4.150   1.858
 9585TIP3    H128698   6.162   4.176   1.866
 9585TIP3    H228699   6.032   4.213   1.797
 9586TIP3   OH228700   3.165   2.794   3.407
 9586TIP3    H128701   3.091   2.852   3.389
 9586TIP3    H228702   3.128   2.706   3.403
 9587TIP3   OH228703   1.067   6.758   6.572
 9587TIP3    H128704   1.004   6.825   6.547
 9587TIP3    H228705   1.132   6.758   6.502
 9588TIP3   OH228706   0.136   1.449   5.091
 9588TIP3    H128707   0.063   1.392   5.065
 9588TIP3    H228708   0.162   1.416   5.177
 9589TIP3   OH228709   0.748   1.759   0.720
 9589TIP3    H128710   0.678   1.707   0.759
 9589TIP3    H228711   0.818   1.758   0.785
 9590TIP3   OH228712   7.677   1.463   2.430
 9590TIP3    H128713   7.661   1.550   2.395
 9590TIP3    H228714   7.700   1.410   2.353
 9591TIP3   OH228715   7.100   3.671   4.801
 9591TIP3    H128716   7.125   3.637   4.887
 9591TIP3    H228717   7.008   3.646   4.791
 9592TIP3   OH228718   3.877   0.973   1.746
 9592TIP3    H128719   3.896   0.908   1.678
 9592TIP3    H228720   3.795   1.013   1.717
 9593TIP3   OH228721   3.094   0.931   3.963
 9593TIP3    H128722   3.127   0.865   3.903
 9593TIP3    H228723   3.062   0.881   4.038
 9594TIP3   OH228724   1.509   1.687   2.259
 9594TIP3    H128725   1.420   1.709   2.285
 9594TIP3    H228726   1.500   1.648   2.172
 9595TIP3   OH228727   1.937   4.812   5.345
 9595TIP3    H128728   1.921   4.723   5.315
 9595TIP3    H228729   1.975   4.803   5.432
 9596TIP3   OH228730   0.101   1.595   1.670
 9596TIP3    H128731   0.180   1.570   1.621
 9596TIP3    H228732   0.058   1.660   1.614
 9597TIP3   OH228733   6.355   5.090   1.521
 9597TIP3    H128734   6.435   5.106   1.571
 9597TIP3    H228735   6.381   5.025   1.455
 9598TIP3   OH228736   6.368   1.113   5.527
 9598TIP3    H128737   6.327   1.198   5.541
 9598TIP3    H228738   6.315   1.052   5.579
 9599TIP3   OH228739   1.456   7.292   2.893
 9599TIP3    H128740   1.488   7.363   2.837
 9599TIP3    H228741   1.377   7.327   2.933
 9600TIP3   OH228742   7.738   6.551   0.306
 9600TIP3    H128743   7.770   6.544   0.396
 9600TIP3    H228744   7.659   6.604   0.313
 9601TIP3   OH228745   5.401   6.980   2.737
 9601TIP3    H128746   5.393   6.972   2.832
 9601TIP3    H228747   5.385   7.072   2.720
 9602TIP3   OH228748   8.174   6.191   5.291
 9602TIP3    H128749   8.090   6.194   5.337
 9602TIP3    H228750   8.169   6.112   5.237
 9603TIP3   OH228751   5.389   1.551   0.642
 9603TIP3    H128752   5.314   1.494   0.660
 9603TIP3    H228753   5.410   1.534   0.550
 9604TIP3   OH228754   7.076   0.846   3.869
 9604TIP3    H128755   7.152   0.883   3.825
 9604TIP3    H228756   7.003   0.901   3.839
 9605TIP3   OH228757   1.868   2.563   2.752
 9605TIP3    H128758   1.900   2.485   2.708
 9605TIP3    H228759   1.932   2.580   2.821
 9606TIP3   OH228760   2.129   3.202   5.574
 9606TIP3    H128761   2.048   3.209   5.624
 9606TIP3    H228762   2.197   3.185   5.639
 9607TIP3   OH228763   6.737   4.037   4.264
 9607TIP3    H128764   6.705   3.970   4.324
 9607TIP3    H228765   6.677   4.111   4.275
 9608TIP3   OH228766   6.867   5.458   3.829
 9608TIP3    H128767   6.826   5.422   3.907
 9608TIP3    H228768   6.960   5.435   3.837
 9609TIP3   OH228769   7.572   4.342   6.218
 9609TIP3    H128770   7.629   4.317   6.291
 9609TIP3    H228771   7.566   4.263   6.164
 9610TIP3   OH228772   2.770   6.513   4.220
 9610TIP3    H128773   2.844   6.460   4.189
 9610TIP3    H228774   2.710   6.450   4.261
 9611TIP3   OH228775   2.833   3.717   1.996
 9611TIP3    H128776   2.927   3.736   1.999
 9611TIP3    H228777   2.810   3.727   1.903
 9612TIP3   OH228778   8.079   6.425   1.427
 9612TIP3    H128779   8.044   6.388   1.346
 9612TIP3    H228780   8.075   6.520   1.414
 9613TIP3   OH228781   3.212   4.885   5.473
 9613TIP3    H128782   3.119   4.908   5.463
 9613TIP3    H228783   3.244   4.874   5.384
 9614TIP3   OH228784   6.593   4.579   5.469
 9614TIP3    H128785   6.616   4.598   5.378
 9614TIP3    H228786   6.509   4.533   5.464
 9615TIP3   OH228787   8.079   6.609   0.473
 9615TIP3    H128788   8.099   6.572   0.387
 9615TIP3    H228789   8.050   6.698   0.454
 9616TIP3   OH228790   4.206   0.991   1.605
 9616TIP3    H128791   4.258   0.911   1.609
 9616TIP3    H228792   4.121   0.962   1.571
 9617TIP3   OH228793   7.374   4.317   3.807
 9617TIP3    H128794   7.320   4.250   3.765
 9617TIP3    H228795   7.464   4.297   3.779
 9618TIP3   OH228796   7.960   5.619   2.113
 9618TIP3    H128797   7.981   5.527   2.097
 9618TIP3    H228798   7.998   5.665   2.037
 9619TIP3   OH228799   2.263   2.407   3.063
 9619TIP3    H128800   2.238   2.442   3.149
 9619TIP3    H228801   2.264   2.312   3.076
 9620TIP3   OH228802   4.717   4.127   0.844
 9620TIP3    H128803   4.668   4.050   0.813
 9620TIP3    H228804   4.803   4.118   0.802
 9621TIP3   OH228805   0.543   7.361   1.060
 9621TIP3    H128806   0.458   7.350   1.101
 9621TIP3    H228807   0.542   7.450   1.024
 9622TIP3   OH228808   0.481   2.700   3.383
 9622TIP3    H128809   0.486   2.729   3.291
 9622TIP3    H228810   0.466   2.780   3.432
 9623TIP3   OH228811   6.660   2.885   2.359
 9623TIP3    H128812   6.670   2.965   2.308
 9623TIP3    H228813   6.738   2.881   2.413
 9624TIP3   OH228814   2.271   4.726   3.263
 9624TIP3    H128815   2.181   4.754   3.242
 9624TIP3    H228816   2.269   4.712   3.358
 9625TIP3   OH228817   4.212   2.441   4.423
 9625TIP3    H128818   4.305   2.426   4.441
 9625TIP3    H228819   4.167   2.371   4.470
 9626TIP3   OH228820   7.307   3.044   2.605
 9626TIP3    H128821   7.244   2.979   2.573
 9626TIP3    H228822   7.344   3.082   2.525
 9627TIP3   OH228823   3.063   7.217   3.387
 9627TIP3    H128824   3.122   7.177   3.322
 9627TIP3    H228825   3.060   7.309   3.361
 9628TIP3   OH228826   2.325   0.897   3.401
 9628TIP3    H128827   2.388   0.826   3.388
 9628TIP3    H228828   2.279   0.873   3.482
 9629TIP3   OH228829   1.357   2.166   0.381
 9629TIP3    H128830   1.304   2.114   0.320
 9629TIP3    H228831   1.390   2.239   0.328
 9630TIP3   OH228832   6.892   5.083   4.399
 9630TIP3    H128833   6.970   5.133   4.425
 9630TIP3    H228834   6.819   5.140   4.424
 9631TIP3   OH228835   4.299   7.387   2.559
 9631TIP3    H128836   4.234   7.354   2.497
 9631TIP3    H228837   4.323   7.310   2.612
 9632TIP3   OH228838   0.891   1.659   4.129
 9632TIP3    H128839   0.890   1.754   4.118
 9632TIP3    H228840   0.822   1.642   4.194
 9633TIP3   OH228841   5.482   0.253   0.108
 9633TIP3    H128842   5.474   0.218   0.197
 9633TIP3    H228843   5.566   0.299   0.108
 9634TIP3   OH228844   2.938   2.213   4.598
 9634TIP3    H128845   2.943   2.167   4.514
 9634TIP3    H228846   2.906   2.301   4.575
 9635TIP3   OH228847   5.932   7.050   2.498
 9635TIP3    H128848   5.878   7.119   2.461
 9635TIP3    H228849   5.880   7.014   2.570
 9636TIP3   OH228850   0.998   4.033   2.089
 9636TIP3    H128851   0.968   3.961   2.143
 9636TIP3    H228852   1.021   3.993   2.006
 9637TIP3   OH228853   6.440   4.097   4.314
 9637TIP3    H128854   6.349   4.075   4.293
 9637TIP3    H228855   6.459   4.174   4.261
 9638TIP3   OH228856   2.208   1.332   5.869
 9638TIP3    H128857   2.183   1.424   5.870
 9638TIP3    H228858   2.221   1.310   5.961
 9639TIP3   OH228859   8.016   1.441   4.202
 9639TIP3    H128860   8.051   1.381   4.267
 9639TIP3    H228861   7.929   1.463   4.234
 9640TIP3   OH228862   3.220   3.674   4.611
 9640TIP3    H128863   3.253   3.764   4.620
 9640TIP3    H228864   3.288   3.619   4.649
 9641TIP3   OH228865   2.143   1.631   0.338
 9641TIP3    H128866   2.066   1.668   0.381
 9641TIP3    H228867   2.172   1.561   0.397
 9642TIP3   OH228868   5.376   6.778   1.528
 9642TIP3    H128869   5.363   6.868   1.558
 9642TIP3    H228870   5.321   6.726   1.586
 9643TIP3   OH228871   4.230   5.026   0.564
 9643TIP3    H128872   4.239   5.112   0.605
 9643TIP3    H228873   4.156   5.036   0.504
 9644TIP3   OH228874   8.127   3.943   5.875
 9644TIP3    H128875   8.039   3.982   5.872
 9644TIP3    H228876   8.112   3.850   5.859
 9645TIP3   OH228877   2.305   2.808   4.406
 9645TIP3    H128878   2.327   2.742   4.341
 9645TIP3    H228879   2.286   2.759   4.485
 9646TIP3   OH228880   6.197   5.811   2.183
 9646TIP3    H128881   6.213   5.885   2.241
 9646TIP3    H228882   6.218   5.845   2.096
 9647TIP3   OH228883   3.682   2.470   3.471
 9647TIP3    H128884   3.632   2.396   3.504
 9647TIP3    H228885   3.616   2.536   3.449
 9648TIP3   OH228886   1.619   2.700   5.889
 9648TIP3    H128887   1.595   2.791   5.907
 9648TIP3    H228888   1.547   2.648   5.925
 9649TIP3   OH228889   6.995   3.311   4.116
 9649TIP3    H128890   6.982   3.395   4.159
 9649TIP3    H228891   7.084   3.315   4.081
 9650TIP3   OH228892   2.401   4.106   5.759
 9650TIP3    H128893   2.367   4.192   5.735
 9650TIP3    H228894   2.487   4.123   5.797
 9651TIP3   OH228895   4.160   7.135   2.174
 9651TIP3    H128896   4.157   7.043   2.199
 9651TIP3    H228897   4.128   7.182   2.252
 9652TIP3   OH228898   2.789   6.431   1.429
 9652TIP3    H128899   2.711   6.460   1.477
 9652TIP3    H228900   2.769   6.343   1.400
 9653TIP3   OH228901   2.298   7.715   4.849
 9653TIP3    H128902   2.253   7.631   4.851
 9653TIP3    H228903   2.326   7.725   4.757
 9654TIP3   OH228904   4.035   2.627   2.087
 9654TIP3    H128905   3.965   2.642   2.023
 9654TIP3    H228906   4.023   2.698   2.151
 9655TIP3   OH228907   5.144   4.537   1.825
 9655TIP3    H128908   5.191   4.585   1.893
 9655TIP3    H228909   5.210   4.516   1.759
 9656TIP3   OH228910   6.056   7.185   6.630
 9656TIP3    H128911   6.139   7.226   6.656
 9656TIP3    H228912   6.060   7.181   6.535
 9657TIP3   OH228913   4.610   1.016   1.450
 9657TIP3    H128914   4.667   0.967   1.508
 9657TIP3    H228915   4.653   1.101   1.440
 9658TIP3   OH228916   0.355   0.061   0.770
 9658TIP3    H128917   0.301   0.127   0.814
 9658TIP3    H228918   0.342   0.078   0.677
 9659TIP3   OH228919   4.968   0.881   6.617
 9659TIP3    H128920   5.011   0.809   6.663
 9659TIP3    H228921   4.959   0.850   6.527
 9660TIP3   OH228922   5.565   3.092   1.278
 9660TIP3    H128923   5.634   3.114   1.341
 9660TIP3    H228924   5.530   3.008   1.309
 9661TIP3   OH228925   7.997   0.030   0.919
 9661TIP3    H128926   8.006   0.084   0.841
 9661TIP3    H228927   8.065  -0.037   0.910
 9662TIP3   OH228928   2.071   4.395   5.087
 9662TIP3    H128929   1.989   4.351   5.111
 9662TIP3    H228930   2.088   4.454   5.160
 9663TIP3   OH228931   4.684   5.478   4.883
 9663TIP3    H128932   4.706   5.561   4.841
 9663TIP3    H228933   4.769   5.437   4.900
 9664TIP3   OH228934   1.395   2.594   5.211
 9664TIP3    H128935   1.428   2.510   5.242
 9664TIP3    H228936   1.325   2.616   5.274
 9665TIP3   OH228937   6.674   3.325   4.282
 9665TIP3    H128938   6.725   3.259   4.328
 9665TIP3    H228939   6.651   3.285   4.199
 9666TIP3   OH228940   5.973   4.403   5.192
 9666TIP3    H128941   5.941   4.444   5.112
 9666TIP3    H228942   5.957   4.309   5.180
 9667TIP3   OH228943   5.902   1.630   2.487
 9667TIP3    H128944   5.932   1.544   2.457
 9667TIP3    H228945   5.957   1.692   2.440
 9668TIP3   OH228946   6.517   3.895   3.286
 9668TIP3    H128947   6.606   3.918   3.259
 9668TIP3    H228948   6.465   3.900   3.205
 9669TIP3   OH228949   3.432   2.838   2.027
 9669TIP3    H128950   3.339   2.833   2.005
 9669TIP3    H228951   3.477   2.829   1.943
 9670TIP3   OH228952   2.902   1.174   3.017
 9670TIP3    H128953   2.885   1.256   3.064
 9670TIP3    H228954   2.821   1.125   3.027
 9671TIP3   OH228955   4.870   0.554   5.311
 9671TIP3    H128956   4.776   0.546   5.328
 9671TIP3    H228957   4.876   0.571   5.217
 9672TIP3   OH228958   5.197   5.248   5.659
 9672TIP3    H128959   5.161   5.159   5.668
 9672TIP3    H228960   5.129   5.304   5.697
 9673TIP3   OH228961   3.940   0.952   4.626
 9673TIP3    H128962   3.934   1.007   4.704
 9673TIP3    H228963   4.015   0.987   4.578
 9674TIP3   OH228964   3.746   5.869   3.640
 9674TIP3    H128965   3.751   5.806   3.712
 9674TIP3    H228966   3.827   5.854   3.591
 9675TIP3   OH228967   7.855   0.456   3.380
 9675TIP3    H128968   7.942   0.420   3.358
 9675TIP3    H228969   7.812   0.468   3.296
 9676TIP3   OH228970   6.671   5.167   5.250
 9676TIP3    H128971   6.745   5.107   5.258
 9676TIP3    H228972   6.644   5.160   5.158
 9677TIP3   OH228973   1.546   1.961   3.857
 9677TIP3    H128974   1.530   1.994   3.945
 9677TIP3    H228975   1.573   2.038   3.807
 9678TIP3   OH228976   1.156   4.810   1.886
 9678TIP3    H128977   1.096   4.796   1.959
 9678TIP3    H228978   1.240   4.831   1.927
 9679TIP3   OH228979   4.753   4.731   3.669
 9679TIP3    H128980   4.798   4.814   3.687
 9679TIP3    H228981   4.713   4.708   3.752
 9680TIP3   OH228982   7.626   0.144   1.587
 9680TIP3    H128983   7.545   0.177   1.548
 9680TIP3    H228984   7.696   0.180   1.533
 9681TIP3   OH228985   1.425   3.142   5.259
 9681TIP3    H128986   1.345   3.184   5.227
 9681TIP3    H228987   1.414   3.138   5.354
 9682TIP3   OH228988   4.727   5.094   3.158
 9682TIP3    H128989   4.675   5.025   3.199
 9682TIP3    H228990   4.675   5.174   3.170
 9683TIP3   OH228991   0.387   5.841   1.695
 9683TIP3    H128992   0.431   5.757   1.705
 9683TIP3    H228993   0.458   5.905   1.693
 9684TIP3   OH228994   8.045   7.036   1.329
 9684TIP3    H128995   7.953   7.012   1.339
 9684TIP3    H228996   8.043   7.116   1.277
 9685TIP3   OH228997   2.388   7.305   6.070
 9685TIP3    H128998   2.364   7.393   6.041
 9685TIP3    H228999   2.320   7.248   6.034
 9686TIP3   OH229000   4.570   3.296   6.144
 9686TIP3    H129001   4.591   3.209   6.112
 9686TIP3    H229002   4.639   3.352   6.108
 9687TIP3   OH229003   2.498   6.809   1.919
 9687TIP3    H129004   2.440   6.790   1.846
 9687TIP3    H229005   2.487   6.903   1.935
 9688TIP3   OH229006   3.800   7.750   2.929
 9688TIP3    H129007   3.709   7.722   2.945
 9688TIP3    H229008   3.816   7.816   2.997
 9689TIP3   OH229009   3.460   7.166   1.996
 9689TIP3    H129010   3.400   7.138   2.066
 9689TIP3    H229011   3.547   7.150   2.032
 9690TIP3   OH229012   6.289   6.471   4.426
 9690TIP3    H129013   6.198   6.495   4.408
 9690TIP3    H229014   6.314   6.414   4.354
 9691TIP3   OH229015   5.559   0.959   0.999
 9691TIP3    H129016   5.489   0.951   0.934
 9691TIP3    H229017   5.587   1.050   0.993
 9692TIP3   OH229018   0.276   5.921   4.690
 9692TIP3    H129019   0.192   5.951   4.726
 9692TIP3    H229020   0.253   5.871   4.612
 9693TIP3   OH229021   2.843   6.648   6.113
 9693TIP3    H129022   2.895   6.632   6.192
 9693TIP3    H229023   2.801   6.564   6.095
 9694TIP3   OH229024   0.879   4.068   2.400
 9694TIP3    H129025   0.831   4.005   2.454
 9694TIP3    H229026   0.966   4.029   2.390
 9695TIP3   OH229027   3.366   1.998   1.130
 9695TIP3    H129028   3.356   2.089   1.104
 9695TIP3    H229029   3.349   1.998   1.224
 9696TIP3   OH229030   1.655   0.762   3.972
 9696TIP3    H129031   1.738   0.747   4.016
 9696TIP3    H229032   1.593   0.706   4.018
 9697TIP3   OH229033   5.416   2.927   6.033
 9697TIP3    H129034   5.405   2.834   6.016
 9697TIP3    H229035   5.442   2.964   5.948
 9698TIP3   OH229036   0.057   5.790   2.646
 9698TIP3    H129037   0.101   5.794   2.561
 9698TIP3    H229038   0.109   5.729   2.698
 9699TIP3   OH229039   7.510   4.593   6.112
 9699TIP3    H129040   7.557   4.654   6.168
 9699TIP3    H229041   7.541   4.506   6.138
 9700TIP3   OH229042   1.467   2.427   4.019
 9700TIP3    H129043   1.435   2.434   4.109
 9700TIP3    H229044   1.397   2.380   3.972
 9701TIP3   OH229045   7.750   6.410   0.777
 9701TIP3    H129046   7.685   6.340   0.768
 9701TIP3    H229047   7.702   6.483   0.815
 9702TIP3   OH229048   1.128   5.399   0.515
 9702TIP3    H129049   1.217   5.428   0.535
 9702TIP3    H229050   1.073   5.450   0.574
 9703TIP3   OH229051   1.820   3.232   4.066
 9703TIP3    H129052   1.796   3.289   3.993
 9703TIP3    H229053   1.849   3.293   4.135
 9704TIP3   OH229054   0.523   1.969   2.617
 9704TIP3    H129055   0.490   2.055   2.642
 9704TIP3    H229056   0.511   1.915   2.695
 9705TIP3   OH229057   1.398   1.644   6.155
 9705TIP3    H129058   1.475   1.640   6.099
 9705TIP3    H229059   1.421   1.707   6.223
 9706TIP3   OH229060   4.748   5.137   1.821
 9706TIP3    H129061   4.840   5.121   1.844
 9706TIP3    H229062   4.698   5.088   1.887
 9707TIP3   OH229063   2.679   0.865   6.145
 9707TIP3    H129064   2.716   0.855   6.057
 9707TIP3    H229065   2.619   0.791   6.154
 9708TIP3   OH229066   6.849   3.067   6.313
 9708TIP3    H129067   6.847   3.157   6.346
 9708TIP3    H229068   6.940   3.040   6.323
 9709TIP3   OH229069   6.114   5.663   0.645
 9709TIP3    H129070   6.096   5.619   0.562
 9709TIP3    H229071   6.040   5.637   0.701
 9710TIP3   OH229072   3.926   7.514   3.567
 9710TIP3    H129073   3.889   7.552   3.488
 9710TIP3    H229074   3.987   7.580   3.599
 9711TIP3   OH229075   5.102   1.393   0.747
 9711TIP3    H129076   5.021   1.435   0.719
 9711TIP3    H229077   5.129   1.441   0.825
 9712TIP3   OH229078   5.926   2.511   1.630
 9712TIP3    H129079   6.022   2.503   1.632
 9712TIP3    H229080   5.906   2.527   1.538
 9713TIP3   OH229081   5.632   6.212   5.601
 9713TIP3    H129082   5.539   6.225   5.622
 9713TIP3    H229083   5.633   6.185   5.510
 9714TIP3   OH229084   3.922   2.219   6.299
 9714TIP3    H129085   3.926   2.302   6.252
 9714TIP3    H229086   3.959   2.238   6.385
 9715TIP3   OH229087   3.542   6.614   3.191
 9715TIP3    H129088   3.482   6.594   3.119
 9715TIP3    H229089   3.494   6.676   3.245
 9716TIP3   OH229090   8.039   5.486   1.808
 9716TIP3    H129091   7.957   5.471   1.855
 9716TIP3    H229092   8.029   5.573   1.770
 9717TIP3   OH229093   2.301   0.214   0.301
 9717TIP3    H129094   2.332   0.304   0.291
 9717TIP3    H229095   2.343   0.166   0.229
 9718TIP3   OH229096   7.154   7.654   5.016
 9718TIP3    H129097   7.241   7.670   4.979
 9718TIP3    H229098   7.136   7.733   5.068
 9719TIP3   OH229099   3.803   6.401   3.946
 9719TIP3    H129100   3.759   6.478   3.909
 9719TIP3    H229101   3.734   6.356   3.996
 9720TIP3   OH229102   1.719   1.137   2.110
 9720TIP3    H129103   1.742   1.165   2.198
 9720TIP3    H229104   1.800   1.101   2.074
 9721TIP3   OH229105   4.264   2.955   5.368
 9721TIP3    H129106   4.201   2.903   5.418
 9721TIP3    H229107   4.287   3.027   5.427
 9722TIP3   OH229108   2.732   1.385   3.095
 9722TIP3    H129109   2.654   1.441   3.103
 9722TIP3    H229110   2.806   1.444   3.108
 9723TIP3   OH229111   5.557   5.793   0.801
 9723TIP3    H129112   5.554   5.820   0.892
 9723TIP3    H229113   5.540   5.699   0.803
 9724TIP3   OH229114   0.959   5.484   5.584
 9724TIP3    H129115   1.009   5.402   5.584
 9724TIP3    H229116   0.899   5.476   5.658
 9725TIP3   OH229117   5.341   7.602   4.658
 9725TIP3    H129118   5.373   7.675   4.604
 9725TIP3    H229119   5.372   7.622   4.746
 9726TIP3   OH229120   2.905   1.648   2.415
 9726TIP3    H129121   2.894   1.743   2.408
 9726TIP3    H229122   2.816   1.614   2.427
 9727TIP3   OH229123   2.949   5.705   6.645
 9727TIP3    H129124   2.912   5.623   6.611
 9727TIP3    H229125   2.909   5.715   6.731
 9728TIP3   OH229126   1.561   2.003   1.112
 9728TIP3    H129127   1.654   1.989   1.090
 9728TIP3    H229128   1.541   1.934   1.176
 9729TIP3   OH229129   1.389   1.817   5.715
 9729TIP3    H129130   1.295   1.833   5.706
 9729TIP3    H229131   1.406   1.830   5.808
 9730TIP3   OH229132   8.303   7.510   5.905
 9730TIP3    H129133   8.270   7.536   5.991
 9730TIP3    H229134   8.263   7.571   5.843
 9731TIP3   OH229135   2.145   3.889   1.070
 9731TIP3    H129136   2.229   3.898   1.025
 9731TIP3    H229137   2.143   3.962   1.131
 9732TIP3   OH229138   1.285   4.679   4.049
 9732TIP3    H129139   1.295   4.587   4.072
 9732TIP3    H229140   1.281   4.679   3.953
 9733TIP3   OH229141   2.176   4.197   6.347
 9733TIP3    H129142   2.195   4.209   6.440
 9733TIP3    H229143   2.110   4.128   6.344
 9734TIP3   OH229144   5.733   4.720   4.054
 9734TIP3    H129145   5.772   4.722   4.141
 9734TIP3    H229146   5.803   4.749   3.996
 9735TIP3   OH229147   1.429   5.109   5.624
 9735TIP3    H129148   1.519   5.092   5.655
 9735TIP3    H229149   1.374   5.093   5.701
 9736TIP3   OH229150   4.937   6.320   6.171
 9736TIP3    H129151   5.000   6.374   6.218
 9736TIP3    H229152   4.989   6.278   6.102
 9737TIP3   OH229153   1.163   4.969   5.473
 9737TIP3    H129154   1.172   4.918   5.553
 9737TIP3    H229155   1.220   4.925   5.409
 9738TIP3   OH229156   1.534   5.963   5.103
 9738TIP3    H129157   1.453   5.984   5.057
 9738TIP3    H229158   1.525   5.870   5.125
 9739TIP3   OH229159   3.883   1.027   2.729
 9739TIP3    H129160   3.823   1.101   2.723
 9739TIP3    H229161   3.832   0.952   2.698
 9740TIP3   OH229162   1.900   1.329   0.356
 9740TIP3    H129163   1.862   1.383   0.426
 9740TIP3    H229164   1.855   1.358   0.277
 9741TIP3   OH229165   1.749   1.434   0.154
 9741TIP3    H129166   1.756   1.527   0.130
 9741TIP3    H229167   1.769   1.387   0.073
 9742TIP3   OH229168   5.473   2.573   2.764
 9742TIP3    H129169   5.553   2.534   2.799
 9742TIP3    H229170   5.411   2.500   2.761
 9743TIP3   OH229171   3.034   3.583   1.386
 9743TIP3    H129172   2.945   3.587   1.419
 9743TIP3    H229173   3.060   3.491   1.397
 9744TIP3   OH229174   3.857   4.987   1.371
 9744TIP3    H129175   3.948   5.016   1.372
 9744TIP3    H229176   3.821   5.013   1.456
 9745TIP3   OH229177   7.352   6.253   2.741
 9745TIP3    H129178   7.371   6.182   2.803
 9745TIP3    H229179   7.257   6.258   2.739
 9746TIP3   OH229180   5.042   0.263   6.036
 9746TIP3    H129181   5.051   0.358   6.049
 9746TIP3    H229182   4.948   0.247   6.036
 9747TIP3   OH229183   4.129   6.899   4.130
 9747TIP3    H129184   4.207   6.847   4.150
 9747TIP3    H229185   4.164   6.980   4.093
 9748TIP3   OH229186   1.551   4.503   2.552
 9748TIP3    H129187   1.608   4.498   2.475
 9748TIP3    H229188   1.525   4.412   2.568
 9749TIP3   OH229189   2.306   5.275   5.165
 9749TIP3    H129190   2.252   5.269   5.086
 9749TIP3    H229191   2.380   5.331   5.139
 9750TIP3   OH229192   2.259   3.434   6.783
 9750TIP3    H129193   2.350   3.442   6.755
 9750TIP3    H229194   2.208   3.433   6.701
 9751TIP3   OH229195   3.560   1.207   4.688
 9751TIP3    H129196   3.489   1.187   4.749
 9751TIP3    H229197   3.596   1.121   4.664
 9752TIP3   OH229198   3.276   0.079   1.180
 9752TIP3    H129199   3.349   0.139   1.188
 9752TIP3    H229200   3.273   0.033   1.265
 9753TIP3   OH229201   6.473   4.236   4.079
 9753TIP3    H129202   6.474   4.164   4.016
 9753TIP3    H229203   6.565   4.263   4.086
 9754TIP3   OH229204   5.925   4.078   3.319
 9754TIP3    H129205   5.839   4.119   3.308
 9754TIP3    H229206   5.916   3.992   3.279
 9755TIP3   OH229207   5.612   7.347   2.162
 9755TIP3    H129208   5.648   7.407   2.097
 9755TIP3    H229209   5.612   7.397   2.243
 9756TIP3   OH229210   7.437   3.861   6.684
 9756TIP3    H129211   7.494   3.856   6.760
 9756TIP3    H229212   7.469   3.793   6.625
 9757TIP3   OH229213   3.385   1.857   1.911
 9757TIP3    H129214   3.459   1.875   1.969
 9757TIP3    H229215   3.334   1.790   1.957
 9758TIP3   OH229216   7.266   5.933   3.790
 9758TIP3    H129217   7.231   6.010   3.744
 9758TIP3    H229218   7.361   5.939   3.779
 9759TIP3   OH229219   6.150   0.051   6.441
 9759TIP3    H129220   6.082   0.103   6.398
 9759TIP3    H229221   6.120  -0.039   6.432
 9760TIP3   OH229222   5.353   1.813   1.571
 9760TIP3    H129223   5.422   1.780   1.512
 9760TIP3    H229224   5.317   1.889   1.525
 9761TIP3   OH229225   4.092   6.816   0.606
 9761TIP3    H129226   4.143   6.847   0.531
 9761TIP3    H229227   4.043   6.892   0.636
 9762TIP3   OH229228   4.870   3.582   2.094
 9762TIP3    H129229   4.925   3.564   2.018
 9762TIP3    H229230   4.883   3.508   2.152
 9763TIP3   OH229231   1.247   2.522   2.162
 9763TIP3    H129232   1.220   2.431   2.179
 9763TIP3    H229233   1.165   2.568   2.144
 9764TIP3   OH229234   0.072   2.086   6.583
 9764TIP3    H129235   0.121   2.015   6.625
 9764TIP3    H229236  -0.020   2.065   6.600
 9765TIP3   OH229237   2.251   6.355   1.863
 9765TIP3    H129238   2.267   6.435   1.914
 9765TIP3    H229239   2.247   6.384   1.772
 9766TIP3   OH229240   1.117   3.542   4.518
 9766TIP3    H129241   1.108   3.587   4.434
 9766TIP3    H229242   1.091   3.452   4.500
 9767TIP3   OH229243   1.752   6.732   0.941
 9767TIP3    H129244   1.834   6.683   0.935
 9767TIP3    H229245   1.779   6.823   0.958
 9768TIP3   OH229246   6.022   6.215   5.964
 9768TIP3    H129247   5.941   6.223   5.913
 9768TIP3    H229248   6.002   6.262   6.046
 9769TIP3   OH229249   5.238   7.781   1.219
 9769TIP3    H129250   5.285   7.864   1.221
 9769TIP3    H229251   5.297   7.721   1.174
 9770TIP3   OH229252   4.192   2.663   1.350
 9770TIP3    H129253   4.235   2.742   1.319
 9770TIP3    H229254   4.260   2.597   1.352
 9771TIP3   OH229255   5.246   1.710   3.570
 9771TIP3    H129256   5.216   1.749   3.487
 9771TIP3    H229257   5.256   1.617   3.551
 9772TIP3   OH229258   0.959   1.898   1.582
 9772TIP3    H129259   0.955   1.981   1.534
 9772TIP3    H229260   0.901   1.839   1.534
 9773TIP3   OH229261   2.615   7.760   2.723
 9773TIP3    H129262   2.664   7.684   2.692
 9773TIP3    H229263   2.662   7.835   2.689
 9774TIP3   OH229264   6.251   1.962   3.773
 9774TIP3    H129265   6.200   1.881   3.780
 9774TIP3    H229266   6.191   2.024   3.731
 9775TIP3   OH229267   4.915   2.978   0.528
 9775TIP3    H129268   4.901   2.918   0.454
 9775TIP3    H229269   4.880   3.062   0.498
 9776TIP3   OH229270   3.247   5.566   0.361
 9776TIP3    H129271   3.202   5.568   0.276
 9776TIP3    H229272   3.226   5.650   0.401
 9777TIP3   OH229273   3.454   5.394   0.519
 9777TIP3    H129274   3.474   5.464   0.582
 9777TIP3    H229275   3.380   5.428   0.469
 9778TIP3   OH229276   5.123   1.226   0.316
 9778TIP3    H129277   5.027   1.233   0.322
 9778TIP3    H229278   5.140   1.132   0.312
 9779TIP3   OH229279   5.819   5.250   5.561
 9779TIP3    H129280   5.732   5.220   5.588
 9779TIP3    H229281   5.874   5.172   5.566
 9780TIP3   OH229282   5.482   7.161   0.247
 9780TIP3    H129283   5.409   7.210   0.284
 9780TIP3    H229284   5.550   7.227   0.232
 9781TIP3   OH229285   2.310   3.885   3.717
 9781TIP3    H129286   2.236   3.828   3.738
 9781TIP3    H229287   2.386   3.841   3.755
 9782TIP3   OH229288   7.200   6.179   4.767
 9782TIP3    H129289   7.160   6.264   4.748
 9782TIP3    H229290   7.274   6.200   4.824
 9783TIP3   OH229291   0.902   1.299   2.943
 9783TIP3    H129292   0.869   1.371   2.889
 9783TIP3    H229293   0.898   1.331   3.033
 9784TIP3   OH229294   4.211   0.266   4.829
 9784TIP3    H129295   4.255   0.344   4.794
 9784TIP3    H229296   4.151   0.300   4.896
 9785TIP3   OH229297   5.080   0.123   1.619
 9785TIP3    H129298   5.161   0.168   1.643
 9785TIP3    H229299   5.043   0.095   1.703
 9786TIP3   OH229300   5.415   3.010   0.886
 9786TIP3    H129301   5.507   3.019   0.911
 9786TIP3    H229302   5.381   3.099   0.886
 9787TIP3   OH229303   2.998   0.472   3.000
 9787TIP3    H129304   2.987   0.378   3.012
 9787TIP3    H229305   3.048   0.481   2.920
 9788TIP3   OH229306   1.301   3.138   5.548
 9788TIP3    H129307   1.351   3.214   5.577
 9788TIP3    H229308   1.253   3.109   5.626
 9789TIP3   OH229309   6.823   7.294   2.721
 9789TIP3    H129310   6.839   7.326   2.633
 9789TIP3    H229311   6.880   7.347   2.777
 9790TIP3   OH229312   6.279   2.918   3.760
 9790TIP3    H129313   6.362   2.879   3.787
 9790TIP3    H229314   6.281   3.007   3.796
 9791TIP3   OH229315   3.641   5.462   2.426
 9791TIP3    H129316   3.549   5.486   2.438
 9791TIP3    H229317   3.664   5.414   2.506
 9792TIP3   OH229318   5.863   1.454   0.963
 9792TIP3    H129319   5.865   1.546   0.938
 9792TIP3    H229320   5.918   1.411   0.898
 9793TIP3   OH229321   4.040   2.911   0.943
 9793TIP3    H129322   3.987   2.910   0.863
 9793TIP3    H229323   4.086   2.827   0.942
 9794TIP3   OH229324   4.501   1.862   4.827
 9794TIP3    H129325   4.587   1.829   4.852
 9794TIP3    H229326   4.505   1.869   4.731
 9795TIP3   OH229327   4.409   4.706   2.496
 9795TIP3    H129328   4.377   4.660   2.574
 9795TIP3    H229329   4.442   4.637   2.439
 9796TIP3   OH229330   2.809   4.387   2.904
 9796TIP3    H129331   2.721   4.385   2.866
 9796TIP3    H229332   2.829   4.296   2.925
 9797TIP3   OH229333   2.903   4.503   3.148
 9797TIP3    H129334   2.905   4.454   3.065
 9797TIP3    H229335   2.991   4.538   3.157
 9798TIP3   OH229336   6.115   7.520   5.702
 9798TIP3    H129337   6.031   7.558   5.676
 9798TIP3    H229338   6.097   7.477   5.786
 9799TIP3   OH229339   6.324   7.186   2.071
 9799TIP3    H129340   6.290   7.242   2.001
 9799TIP3    H229341   6.410   7.157   2.039
 9800TIP3   OH229342   5.396   4.637   1.048
 9800TIP3    H129343   5.328   4.665   0.986
 9800TIP3    H229344   5.348   4.584   1.112
 9801TIP3   OH229345   1.001   7.375   2.700
 9801TIP3    H129346   1.084   7.417   2.677
 9801TIP3    H229347   0.934   7.433   2.665
 9802TIP3   OH229348   5.332   2.087   5.699
 9802TIP3    H129349   5.266   2.020   5.717
 9802TIP3    H229350   5.305   2.126   5.616
 9803TIP3   OH229351   3.283   4.530   2.429
 9803TIP3    H129352   3.319   4.619   2.435
 9803TIP3    H229353   3.194   4.538   2.461
 9804TIP3   OH229354   1.757   3.779   5.982
 9804TIP3    H129355   1.794   3.723   5.913
 9804TIP3    H229356   1.833   3.806   6.034
 9805TIP3   OH229357   1.850   6.322   6.624
 9805TIP3    H129358   1.797   6.388   6.580
 9805TIP3    H229359   1.908   6.372   6.682
 9806TIP3   OH229360   3.108   3.562   5.455
 9806TIP3    H129361   3.069   3.538   5.371
 9806TIP3    H229362   3.040   3.541   5.519
 9807TIP3   OH229363   4.481   1.348   6.599
 9807TIP3    H129364   4.411   1.327   6.537
 9807TIP3    H229365   4.488   1.443   6.596
 9808TIP3   OH229366   8.204   1.688   4.255
 9808TIP3    H129367   8.293   1.690   4.218
 9808TIP3    H229368   8.148   1.666   4.181
 9809TIP3   OH229369   5.623   5.298   6.387
 9809TIP3    H129370   5.698   5.337   6.432
 9809TIP3    H229371   5.658   5.273   6.301
 9810TIP3   OH229372   7.725   0.567   4.429
 9810TIP3    H129373   7.726   0.517   4.511
 9810TIP3    H229374   7.715   0.501   4.361
 9811TIP3   OH229375   1.507   2.764   3.624
 9811TIP3    H129376   1.481   2.755   3.716
 9811TIP3    H229377   1.425   2.761   3.575
 9812TIP3   OH229378   3.830   7.566   4.133
 9812TIP3    H129379   3.913   7.570   4.086
 9812TIP3    H229380   3.806   7.473   4.130
 9813TIP3   OH229381   1.844   6.449   3.185
 9813TIP3    H129382   1.901   6.372   3.185
 9813TIP3    H229383   1.901   6.520   3.216
 9814TIP3   OH229384   3.336   7.294   3.770
 9814TIP3    H129385   3.425   7.319   3.746
 9814TIP3    H229386   3.287   7.376   3.770
 9815TIP3   OH229387   7.236   7.484   5.327
 9815TIP3    H129388   7.143   7.479   5.346
 9815TIP3    H229389   7.264   7.569   5.362
 9816TIP3   OH229390   0.731   7.147   0.391
 9816TIP3    H129391   0.674   7.072   0.373
 9816TIP3    H229392   0.798   7.113   0.449
 9817TIP3   OH229393   1.493   6.756   2.084
 9817TIP3    H129394   1.440   6.835   2.082
 9817TIP3    H229395   1.580   6.786   2.109
 9818TIP3   OH229396   4.286   2.326   5.528
 9818TIP3    H129397   4.249   2.291   5.610
 9818TIP3    H229398   4.345   2.395   5.557
 9819TIP3   OH229399   6.787   5.429   0.866
 9819TIP3    H129400   6.774   5.423   0.771
 9819TIP3    H229401   6.812   5.341   0.893
 9820TIP3   OH229402   4.321   3.210   5.483
 9820TIP3    H129403   4.261   3.227   5.555
 9820TIP3    H229404   4.341   3.297   5.447
 9821TIP3   OH229405   5.310   0.671   5.854
 9821TIP3    H129406   5.360   0.722   5.918
 9821TIP3    H229407   5.292   0.732   5.783
 9822TIP3   OH229408   3.428   1.938   6.201
 9822TIP3    H129409   3.473   2.020   6.222
 9822TIP3    H229410   3.369   1.924   6.275
 9823TIP3   OH229411   7.028   3.917   1.595
 9823TIP3    H129412   7.057   3.827   1.608
 9823TIP3    H229413   7.067   3.966   1.667
 9824TIP3   OH229414   0.926   0.614   0.383
 9824TIP3    H129415   0.946   0.589   0.473
 9824TIP3    H229416   0.871   0.544   0.350
 9825TIP3   OH229417   6.510   7.732   3.912
 9825TIP3    H129418   6.520   7.639   3.893
 9825TIP3    H229419   6.459   7.766   3.838
 9826TIP3   OH229420   4.286   3.844   3.826
 9826TIP3    H129421   4.365   3.792   3.823
 9826TIP3    H229422   4.250   3.838   3.737
 9827TIP3   OH229423   0.508   5.010   6.636
 9827TIP3    H129424   0.457   4.930   6.650
 9827TIP3    H229425   0.443   5.080   6.628
 9828TIP3   OH229426   3.899   0.723   1.895
 9828TIP3    H129427   3.887   0.742   1.988
 9828TIP3    H229428   3.880   0.806   1.851
 9829TIP3   OH229429   0.791   6.114   1.028
 9829TIP3    H129430   0.836   6.031   1.041
 9829TIP3    H229431   0.763   6.113   0.937
 9830TIP3   OH229432   3.669   7.118   3.658
 9830TIP3    H129433   3.748   7.172   3.653
 9830TIP3    H229434   3.599   7.174   3.625
 9831TIP3   OH229435   1.103   0.530   2.103
 9831TIP3    H129436   1.065   0.573   2.179
 9831TIP3    H229437   1.087   0.591   2.031
 9832TIP3   OH229438   1.841   7.212   0.104
 9832TIP3    H129439   1.799   7.138   0.148
 9832TIP3    H229440   1.768   7.266   0.074
 9833TIP3   OH229441   4.425   4.149   1.144
 9833TIP3    H129442   4.417   4.128   1.237
 9833TIP3    H229443   4.442   4.065   1.102
 9834TIP3   OH229444   1.608   5.352   4.961
 9834TIP3    H129445   1.577   5.261   4.965
 9834TIP3    H229446   1.603   5.383   5.052
 9835TIP3   OH229447   5.785   7.250   1.573
 9835TIP3    H129448   5.853   7.245   1.506
 9835TIP3    H229449   5.719   7.187   1.544
 9836TIP3   OH229450   2.526   4.216   5.414
 9836TIP3    H129451   2.539   4.208   5.320
 9836TIP3    H229452   2.605   4.261   5.445
 9837TIP3   OH229453   6.490   4.692   2.387
 9837TIP3    H129454   6.398   4.719   2.393
 9837TIP3    H229455   6.521   4.731   2.305
 9838TIP3   OH229456   2.354   3.726   4.146
 9838TIP3    H129457   2.353   3.643   4.099
 9838TIP3    H229458   2.442   3.761   4.131
 9839TIP3   OH229459   3.690   4.475   5.306
 9839TIP3    H129460   3.716   4.434   5.388
 9839TIP3    H229461   3.752   4.442   5.241
 9840TIP3   OH229462   4.962   4.073   6.671
 9840TIP3    H129463   4.942   4.079   6.577
 9840TIP3    H229464   4.962   3.979   6.689
 9841TIP3   OH229465   0.321   0.413   1.037
 9841TIP3    H129466   0.368   0.331   1.050
 9841TIP3    H229467   0.387   0.472   1.000
 9842TIP3   OH229468   3.738   0.562   2.089
 9842TIP3    H129469   3.711   0.521   2.172
 9842TIP3    H229470   3.675   0.633   2.077
 9843TIP3   OH229471   4.240   1.628   2.041
 9843TIP3    H129472   4.174   1.563   2.016
 9843TIP3    H229473   4.276   1.596   2.123
 9844TIP3   OH229474   3.827   2.536   1.481
 9844TIP3    H129475   3.856   2.445   1.471
 9844TIP3    H229476   3.890   2.574   1.542
 9845TIP3   OH229477   1.221   3.275   3.846
 9845TIP3    H129478   1.246   3.283   3.754
 9845TIP3    H229479   1.130   3.245   3.844
 9846TIP3   OH229480   6.379   1.584   4.135
 9846TIP3    H129481   6.323   1.518   4.094
 9846TIP3    H229482   6.428   1.623   4.061
 9847TIP3   OH229483   3.321   6.775   6.494
 9847TIP3    H129484   3.306   6.744   6.405
 9847TIP3    H229485   3.315   6.870   6.487
 9848TIP3   OH229486   0.421   5.698   0.418
 9848TIP3    H129487   0.499   5.731   0.373
 9848TIP3    H229488   0.440   5.709   0.511
 9849TIP3   OH229489   5.600   6.144   4.272
 9849TIP3    H129490   5.620   6.137   4.365
 9849TIP3    H229491   5.540   6.071   4.255
 9850TIP3   OH229492   3.732   4.975   5.391
 9850TIP3    H129493   3.668   5.027   5.439
 9850TIP3    H229494   3.692   4.889   5.382
 9851TIP3   OH229495   1.718   0.212   0.681
 9851TIP3    H129496   1.702   0.117   0.680
 9851TIP3    H229497   1.720   0.237   0.589
 9852TIP3   OH229498   7.399   5.806   5.822
 9852TIP3    H129499   7.348   5.865   5.766
 9852TIP3    H229500   7.474   5.858   5.850
 9853TIP3   OH229501   2.068   1.905   0.691
 9853TIP3    H129502   2.075   1.812   0.713
 9853TIP3    H229503   1.976   1.917   0.668
 9854TIP3   OH229504   8.253   4.680   1.361
 9854TIP3    H129505   8.181   4.618   1.352
 9854TIP3    H229506   8.260   4.695   1.456
 9855TIP3   OH229507   2.023   2.224   4.341
 9855TIP3    H129508   2.028   2.277   4.421
 9855TIP3    H229509   2.002   2.136   4.372
 9856TIP3   OH229510   5.145   3.527   4.083
 9856TIP3    H129511   5.195   3.592   4.132
 9856TIP3    H229512   5.185   3.443   4.107
 9857TIP3   OH229513   1.326   2.704   1.658
 9857TIP3    H129514   1.277   2.767   1.710
 9857TIP3    H229515   1.303   2.619   1.696
 9858TIP3   OH229516   2.497   7.356   6.428
 9858TIP3    H129517   2.440   7.292   6.470
 9858TIP3    H229518   2.584   7.316   6.429
 9859TIP3   OH229519   2.256   4.407   3.141
 9859TIP3    H129520   2.194   4.408   3.214
 9859TIP3    H229521   2.212   4.457   3.072
 9860TIP3   OH229522   3.369   7.337   5.073
 9860TIP3    H129523   3.314   7.416   5.071
 9860TIP3    H229524   3.329   7.278   5.011
 9861TIP3   OH229525   6.600   2.938   3.680
 9861TIP3    H129526   6.685   2.977   3.694
 9861TIP3    H229527   6.577   2.960   3.590
 9862TIP3   OH229528   7.617   0.951   4.774
 9862TIP3    H129529   7.649   0.872   4.732
 9862TIP3    H229530   7.682   1.018   4.752
 9863TIP3   OH229531   7.583   5.308   0.596
 9863TIP3    H129532   7.531   5.340   0.522
 9863TIP3    H229533   7.523   5.312   0.670
 9864TIP3   OH229534   1.818   3.858   5.296
 9864TIP3    H129535   1.870   3.821   5.368
 9864TIP3    H229536   1.727   3.850   5.326
 9865TIP3   OH229537   7.876   7.001   4.483
 9865TIP3    H129538   7.858   6.937   4.552
 9865TIP3    H229539   7.972   7.002   4.476
 9866TIP3   OH229540   4.584   7.118   4.915
 9866TIP3    H129541   4.568   7.067   4.995
 9866TIP3    H229542   4.676   7.142   4.920
 9867TIP3   OH229543   0.875   0.535   3.575
 9867TIP3    H129544   0.870   0.551   3.669
 9867TIP3    H229545   0.959   0.574   3.548
 9868TIP3   OH229546   2.250   7.236   6.310
 9868TIP3    H129547   2.241   7.145   6.284
 9868TIP3    H229548   2.332   7.265   6.271
 9869TIP3   OH229549   4.826   5.004   3.739
 9869TIP3    H129550   4.878   5.067   3.689
 9869TIP3    H229551   4.758   5.057   3.781
 9870TIP3   OH229552   4.704   4.758   1.028
 9870TIP3    H129553   4.666   4.732   1.111
 9870TIP3    H229554   4.737   4.847   1.043
 9871TIP3   OH229555   4.130   1.397   5.896
 9871TIP3    H129556   4.131   1.493   5.901
 9871TIP3    H229557   4.038   1.375   5.881
 9872TIP3   OH229558   3.836   6.271   5.065
 9872TIP3    H129559   3.822   6.348   5.121
 9872TIP3    H229560   3.783   6.202   5.104
 9873TIP3   OH229561   0.089   4.214   6.358
 9873TIP3    H129562   0.048   4.265   6.427
 9873TIP3    H229563   0.166   4.173   6.399
 9874TIP3   OH229564   6.113   4.341   1.275
 9874TIP3    H129565   6.109   4.264   1.218
 9874TIP3    H229566   6.067   4.409   1.227
 9875TIP3   OH229567   3.432   7.483   0.035
 9875TIP3    H129568   3.430   7.501  -0.059
 9875TIP3    H229569   3.446   7.569   0.075
 9876TIP3   OH229570   7.500   7.640   5.401
 9876TIP3    H129571   7.527   7.552   5.377
 9876TIP3    H229572   7.575   7.676   5.450
 9877TIP3   OH229573   0.728   1.447   5.748
 9877TIP3    H129574   0.751   1.487   5.664
 9877TIP3    H229575   0.725   1.520   5.809
 9878TIP3   OH229576   0.284   7.047   6.644
 9878TIP3    H129577   0.242   6.971   6.684
 9878TIP3    H229578   0.273   7.117   6.708
 9879TIP3   OH229579   1.564   1.848   3.350
 9879TIP3    H129580   1.529   1.760   3.362
 9879TIP3    H229581   1.633   1.855   3.416
 9880TIP3   OH229582   3.533   5.972   4.416
 9880TIP3    H129583   3.523   5.919   4.337
 9880TIP3    H229584   3.571   5.912   4.481
 9881TIP3   OH229585   0.074   5.003   5.230
 9881TIP3    H129586   0.152   5.052   5.258
 9881TIP3    H229587   0.067   4.931   5.292
 9882TIP3   OH229588   4.421   6.867   1.515
 9882TIP3    H129589   4.395   6.909   1.597
 9882TIP3    H229590   4.389   6.777   1.522
 9883TIP3   OH229591   6.343   0.842   6.530
 9883TIP3    H129592   6.344   0.793   6.447
 9883TIP3    H229593   6.279   0.796   6.584
 9884TIP3   OH229594   6.895   0.162   5.494
 9884TIP3    H129595   6.954   0.170   5.419
 9884TIP3    H229596   6.952   0.168   5.571
 9885TIP3   OH229597   0.938   1.500   1.685
 9885TIP3    H129598   0.910   1.475   1.597
 9885TIP3    H229599   0.868   1.558   1.716
 9886TIP3   OH229600   1.676   6.904   2.790
 9886TIP3    H129601   1.616   6.942   2.855
 9886TIP3    H229602   1.618   6.858   2.729
 9887TIP3   OH229603   7.221   4.179   3.631
 9887TIP3    H129604   7.142   4.188   3.685
 9887TIP3    H229605   7.189   4.191   3.541
 9888TIP3   OH229606   3.620   6.732   4.097
 9888TIP3    H129607   3.712   6.711   4.113
 9888TIP3    H229608   3.572   6.671   4.154
 9889TIP3   OH229609   1.698   2.423   4.197
 9889TIP3    H129610   1.682   2.509   4.237
 9889TIP3    H229611   1.633   2.417   4.127
 9890TIP3   OH229612   1.334   5.068   3.603
 9890TIP3    H129613   1.328   5.006   3.531
 9890TIP3    H229614   1.393   5.137   3.571
 9891TIP3   OH229615   1.646   4.120   5.835
 9891TIP3    H129616   1.725   4.152   5.792
 9891TIP3    H229617   1.631   4.182   5.906
 9892TIP3   OH229618   5.412   2.386   5.341
 9892TIP3    H129619   5.355   2.461   5.326
 9892TIP3    H229620   5.486   2.422   5.391
 9893TIP3   OH229621   3.554   2.378   2.319
 9893TIP3    H129622   3.515   2.434   2.252
 9893TIP3    H229623   3.587   2.439   2.385
 9894TIP3   OH229624   1.495   3.502   6.589
 9894TIP3    H129625   1.571   3.559   6.605
 9894TIP3    H229626   1.529   3.434   6.531
 9895TIP3   OH229627   1.436   3.473   4.525
 9895TIP3    H129628   1.415   3.408   4.592
 9895TIP3    H229629   1.411   3.557   4.563
 9896TIP3   OH229630   6.207   1.936   5.801
 9896TIP3    H129631   6.172   1.900   5.719
 9896TIP3    H229632   6.294   1.898   5.809
 9897TIP3   OH229633   7.057   6.231   5.125
 9897TIP3    H129634   7.099   6.286   5.059
 9897TIP3    H229635   7.119   6.231   5.198
 9898TIP3   OH229636   3.957   1.757   0.472
 9898TIP3    H129637   4.024   1.714   0.418
 9898TIP3    H229638   3.950   1.845   0.436
 9899TIP3   OH229639   3.879   3.311   5.026
 9899TIP3    H129640   3.879   3.340   4.934
 9899TIP3    H229641   3.969   3.327   5.056
 9900TIP3   OH229642   3.202   4.820   3.555
 9900TIP3    H129643   3.215   4.908   3.590
 9900TIP3    H229644   3.182   4.766   3.632
 9901TIP3   OH229645   0.899   1.289   5.914
 9901TIP3    H129646   0.956   1.355   5.953
 9901TIP3    H229647   0.840   1.338   5.858
 9902TIP3   OH229648   3.179   4.907   1.119
 9902TIP3    H129649   3.214   4.858   1.193
 9902TIP3    H229650   3.086   4.918   1.139
 9903TIP3   OH229651   2.144   6.121   4.503
 9903TIP3    H129652   2.220   6.171   4.533
 9903TIP3    H229653   2.158   6.110   4.409
 9904TIP3   OH229654   0.054   6.838   0.553
 9904TIP3    H129655   0.140   6.806   0.580
 9904TIP3    H229656   0.029   6.782   0.480
 9905TIP3   OH229657   1.256   3.691   5.249
 9905TIP3    H129658   1.177   3.647   5.218
 9905TIP3    H229659   1.237   3.715   5.339
 9906TIP3   OH229660   7.499   2.529   5.761
 9906TIP3    H129661   7.415   2.542   5.718
 9906TIP3    H229662   7.563   2.565   5.699
 9907TIP3   OH229663   2.513   6.218   1.806
 9907TIP3    H129664   2.421   6.223   1.782
 9907TIP3    H229665   2.514   6.168   1.888
 9908TIP3   OH229666   3.287   5.239   1.585
 9908TIP3    H129667   3.377   5.209   1.575
 9908TIP3    H229668   3.260   5.266   1.498
 9909TIP3   OH229669   7.451   6.392   4.965
 9909TIP3    H129670   7.356   6.400   4.979
 9909TIP3    H229671   7.489   6.452   5.029
 9910TIP3   OH229672   7.744   1.521   4.310
 9910TIP3    H129673   7.681   1.471   4.259
 9910TIP3    H229674   7.730   1.491   4.400
 9911TIP3   OH229675   5.095   5.164   4.687
 9911TIP3    H129676   5.122   5.142   4.776
 9911TIP3    H229677   5.151   5.237   4.662
 9912TIP3   OH229678   2.534   1.515   1.127
 9912TIP3    H129679   2.591   1.577   1.172
 9912TIP3    H229680   2.485   1.472   1.197
 9913TIP3   OH229681   0.861   0.706   1.253
 9913TIP3    H129682   0.851   0.801   1.259
 9913TIP3    H229683   0.773   0.672   1.261
 9914TIP3   OH229684   4.729   6.380   5.441
 9914TIP3    H129685   4.646   6.426   5.435
 9914TIP3    H229686   4.708   6.296   5.482
 9915TIP3   OH229687   5.614   3.459   1.297
 9915TIP3    H129688   5.610   3.487   1.388
 9915TIP3    H229689   5.688   3.507   1.261
 9916TIP3   OH229690   1.518   7.110   1.305
 9916TIP3    H129691   1.459   7.115   1.380
 9916TIP3    H229692   1.541   7.018   1.298
 9917TIP3   OH229693   3.731   4.894   1.980
 9917TIP3    H129694   3.774   4.875   2.063
 9917TIP3    H229695   3.650   4.843   1.983
 9918TIP3   OH229696   2.727   2.665   0.639
 9918TIP3    H129697   2.768   2.742   0.678
 9918TIP3    H229698   2.663   2.700   0.577
 9919TIP3   OH229699   6.382   7.418   3.580
 9919TIP3    H129700   6.363   7.410   3.486
 9919TIP3    H229701   6.420   7.333   3.604
 9920TIP3   OH229702   5.650   3.659   6.235
 9920TIP3    H129703   5.628   3.677   6.143
 9920TIP3    H229704   5.636   3.565   6.244
 9921TIP3   OH229705   4.278   4.256   5.930
 9921TIP3    H129706   4.199   4.305   5.954
 9921TIP3    H229707   4.316   4.228   6.013
 9922TIP3   OH229708   1.237   0.384   0.242
 9922TIP3    H129709   1.152   0.358   0.277
 9922TIP3    H229710   1.223   0.390   0.148
 9923TIP3   OH229711   3.213   6.821   3.170
 9923TIP3    H129712   3.197   6.766   3.094
 9923TIP3    H229713   3.125   6.837   3.206
 9924TIP3   OH229714   0.615   0.148   3.965
 9924TIP3    H129715   0.678   0.175   3.899
 9924TIP3    H229716   0.553   0.220   3.972
 9925TIP3   OH229717   1.618   5.405   6.357
 9925TIP3    H129718   1.709   5.434   6.346
 9925TIP3    H229719   1.625   5.329   6.414
 9926TIP3   OH229720   1.654   0.801   4.424
 9926TIP3    H129721   1.631   0.875   4.369
 9926TIP3    H229722   1.638   0.724   4.369
 9927TIP3   OH229723   3.872   1.788   5.512
 9927TIP3    H129724   3.801   1.756   5.567
 9927TIP3    H229725   3.859   1.744   5.428
 9928TIP3   OH229726   5.441   6.782   6.683
 9928TIP3    H129727   5.532   6.753   6.694
 9928TIP3    H229728   5.412   6.739   6.603
 9929TIP3   OH229729   1.326   1.953   3.557
 9929TIP3    H129730   1.261   1.951   3.627
 9929TIP3    H229731   1.374   2.035   3.571
 9930TIP3   OH229732   6.695   3.110   3.047
 9930TIP3    H129733   6.713   3.020   3.021
 9930TIP3    H229734   6.675   3.105   3.140
 9931TIP3   OH229735   1.408   4.081   3.570
 9931TIP3    H129736   1.400   4.028   3.650
 9931TIP3    H229737   1.502   4.098   3.562
 9932TIP3   OH229738   4.817   1.173   0.552
 9932TIP3    H129739   4.821   1.078   0.540
 9932TIP3    H229740   4.801   1.184   0.646
 9933TIP3   OH229741   1.465   7.562   5.660
 9933TIP3    H129742   1.496   7.598   5.577
 9933TIP3    H229743   1.403   7.627   5.693
 9934TIP3   OH229744   1.890   2.648   2.457
 9934TIP3    H129745   1.855   2.632   2.545
 9934TIP3    H229746   1.985   2.637   2.467
 9935TIP3   OH229747   5.677   1.131   2.454
 9935TIP3    H129748   5.596   1.095   2.489
 9935TIP3    H229749   5.694   1.209   2.506
 9936TIP3   OH229750   2.609   1.108   1.669
 9936TIP3    H129751   2.592   1.020   1.636
 9936TIP3    H229752   2.641   1.095   1.758
 9937TIP3   OH229753   2.371   2.329   3.468
 9937TIP3    H129754   2.282   2.362   3.479
 9937TIP3    H229755   2.385   2.273   3.545
 9938TIP3   OH229756   6.922   1.950   1.240
 9938TIP3    H129757   6.973   1.980   1.315
 9938TIP3    H229758   6.834   1.985   1.255
 9939TIP3   OH229759   6.786   7.534   3.101
 9939TIP3    H129760   6.841   7.517   3.024
 9939TIP3    H229761   6.757   7.448   3.129
 9940TIP3   OH229762   4.961   6.493   5.273
 9940TIP3    H129763   4.867   6.492   5.289
 9940TIP3    H229764   4.969   6.468   5.181
 9941TIP3   OH229765   3.255   4.651   6.624
 9941TIP3    H129766   3.182   4.712   6.617
 9941TIP3    H229767   3.221   4.568   6.591
 9942TIP3   OH229768   1.154   2.962   3.572
 9942TIP3    H129769   1.226   3.012   3.533
 9942TIP3    H229770   1.182   2.871   3.567
 9943TIP3   OH229771   8.018   1.613   0.395
 9943TIP3    H129772   7.972   1.696   0.392
 9943TIP3    H229773   8.108   1.634   0.371
 9944TIP3   OH229774   5.687   2.712   5.801
 9944TIP3    H129775   5.674   2.785   5.740
 9944TIP3    H229776   5.720   2.754   5.881
 9945TIP3   OH229777   7.230   7.031   1.311
 9945TIP3    H129778   7.278   6.948   1.304
 9945TIP3    H229779   7.256   7.066   1.397
 9946TIP3   OH229780   3.652   3.254   4.740
 9946TIP3    H129781   3.581   3.276   4.800
 9946TIP3    H229782   3.638   3.162   4.719
 9947TIP3   OH229783   7.535   5.467   5.105
 9947TIP3    H129784   7.584   5.526   5.048
 9947TIP3    H229785   7.506   5.522   5.178
 9948TIP3   OH229786   7.987   1.880   2.172
 9948TIP3    H129787   8.041   1.903   2.097
 9948TIP3    H229788   8.043   1.825   2.227
 9949TIP3   OH229789   2.872   4.702   4.562
 9949TIP3    H129790   2.948   4.734   4.611
 9949TIP3    H229791   2.831   4.638   4.620
 9950TIP3   OH229792   0.028   1.254   3.466
 9950TIP3    H129793   0.078   1.176   3.491
 9950TIP3    H229794  -0.056   1.243   3.509
 9951TIP3   OH229795   1.457   0.168   3.476
 9951TIP3    H129796   1.462   0.241   3.415
 9951TIP3    H229797   1.534   0.177   3.531
 9952TIP3   OH229798   1.441   1.398   0.695
 9952TIP3    H129799   1.504   1.326   0.700
 9952TIP3    H229800   1.403   1.390   0.607
 9953TIP3   OH229801   6.004   5.260   0.501
 9953TIP3    H129802   6.071   5.194   0.517
 9953TIP3    H229803   6.051   5.335   0.466
 9954TIP3   OH229804   3.898   7.004   2.444
 9954TIP3    H129805   3.845   6.929   2.415
 9954TIP3    H229806   3.980   6.995   2.396
 9955TIP3   OH229807   0.216   1.135   4.340
 9955TIP3    H129808   0.244   1.137   4.249
 9955TIP3    H229809   0.295   1.154   4.390
 9956TIP3   OH229810   6.280   0.709   6.279
 9956TIP3    H129811   6.199   0.669   6.248
 9956TIP3    H229812   6.349   0.667   6.227
 9957TIP3   OH229813   2.918   0.804   0.655
 9957TIP3    H129814   2.878   0.891   0.659
 9957TIP3    H229815   3.005   0.820   0.618
 9958TIP3   OH229816   3.851   4.940   4.781
 9958TIP3    H129817   3.915   5.005   4.752
 9958TIP3    H229818   3.876   4.860   4.734
 9959TIP3   OH229819   6.652   5.567   1.900
 9959TIP3    H129820   6.635   5.611   1.817
 9959TIP3    H229821   6.746   5.549   1.899
 9960TIP3   OH229822   4.493   3.175   1.115
 9960TIP3    H129823   4.539   3.141   1.038
 9960TIP3    H229824   4.495   3.270   1.104
 9961TIP3   OH229825   0.099   7.598   5.125
 9961TIP3    H129826   0.190   7.570   5.130
 9961TIP3    H229827   0.077   7.591   5.032
 9962TIP3   OH229828   8.126   5.499   3.735
 9962TIP3    H129829   8.212   5.536   3.719
 9962TIP3    H229830   8.142   5.418   3.785
 9963TIP3   OH229831   3.467   1.102   1.860
 9963TIP3    H129832   3.414   1.025   1.839
 9963TIP3    H229833   3.539   1.100   1.797
 9964TIP3   OH229834   7.732   1.508   1.173
 9964TIP3    H129835   7.779   1.431   1.143
 9964TIP3    H229836   7.753   1.576   1.109
 9965TIP3   OH229837   0.220   3.496   4.791
 9965TIP3    H129838   0.254   3.536   4.871
 9965TIP3    H229839   0.125   3.505   4.799
 9966TIP3   OH229840   4.404   5.214   5.371
 9966TIP3    H129841   4.408   5.302   5.333
 9966TIP3    H229842   4.450   5.222   5.454
 9967TIP3   OH229843   4.081   1.160   0.491
 9967TIP3    H129844   4.136   1.237   0.480
 9967TIP3    H229845   4.097   1.107   0.413
 9968TIP3   OH229846   6.908   5.826   5.834
 9968TIP3    H129847   6.902   5.771   5.756
 9968TIP3    H229848   6.995   5.808   5.869
 9969TIP3   OH229849   7.038   1.659   4.488
 9969TIP3    H129850   6.970   1.680   4.423
 9969TIP3    H229851   6.996   1.598   4.548
 9970TIP3   OH229852   4.137   3.403   5.106
 9970TIP3    H129853   4.095   3.489   5.109
 9970TIP3    H229854   4.227   3.419   5.136
 9971TIP3   OH229855   1.444   7.045   6.677
 9971TIP3    H129856   1.394   7.053   6.596
 9971TIP3    H229857   1.481   7.132   6.691
 9972TIP3   OH229858   1.261   4.261   5.382
 9972TIP3    H129859   1.222   4.183   5.342
 9972TIP3    H229860   1.188   4.320   5.397
 9973TIP3   OH229861   5.051   4.463   5.534
 9973TIP3    H129862   5.079   4.424   5.451
 9973TIP3    H229863   5.062   4.558   5.522
 9974TIP3   OH229864   6.733   2.395   2.701
 9974TIP3    H129865   6.732   2.336   2.777
 9974TIP3    H229866   6.650   2.376   2.656
 9975TIP3   OH229867   1.827   2.837   1.514
 9975TIP3    H129868   1.735   2.827   1.539
 9975TIP3    H229869   1.825   2.893   1.437
 9976TIP3   OH229870   7.504   5.413   0.903
 9976TIP3    H129871   7.423   5.437   0.857
 9976TIP3    H229872   7.573   5.454   0.852
 9977TIP3   OH229873   6.922   0.094   4.949
 9977TIP3    H129874   6.990   0.160   4.962
 9977TIP3    H229875   6.960   0.032   4.888
 9978TIP3   OH229876   3.989   6.000   2.228
 9978TIP3    H129877   3.947   6.059   2.165
 9978TIP3    H229878   3.953   5.914   2.207
 9979TIP3   OH229879   2.134   6.793   2.081
 9979TIP3    H129880   2.131   6.750   1.996
 9979TIP3    H229881   2.186   6.872   2.067
 9980TIP3   OH229882   5.213   5.150   6.006
 9980TIP3    H129883   5.164   5.082   6.051
 9980TIP3    H229884   5.254   5.106   5.931
 9981TIP3   OH229885   2.653   2.468   1.777
 9981TIP3    H129886   2.696   2.465   1.692
 9981TIP3    H229887   2.572   2.516   1.761
 9982TIP3   OH229888   0.475   6.488   5.750
 9982TIP3    H129889   0.468   6.413   5.809
 9982TIP3    H229890   0.390   6.532   5.757
 9983TIP3   OH229891   5.517   7.669   6.011
 9983TIP3    H129892   5.532   7.750   6.060
 9983TIP3    H229893   5.495   7.698   5.922
 9984TIP3   OH229894   8.056   5.605   4.555
 9984TIP3    H129895   8.108   5.574   4.481
 9984TIP3    H229896   8.032   5.525   4.603
 9985TIP3   OH229897   0.451   1.854   1.206
 9985TIP3    H129898   0.375   1.900   1.243
 9985TIP3    H229899   0.476   1.791   1.274
 9986TIP3   OH229900   2.667   3.441   4.588
 9986TIP3    H129901   2.723   3.514   4.561
 9986TIP3    H229902   2.715   3.363   4.561
 9987TIP3   OH229903   6.320   4.166   6.116
 9987TIP3    H129904   6.326   4.231   6.046
 9987TIP3    H229905   6.382   4.196   6.182
 9988TIP3   OH229906   3.167   3.192   6.008
 9988TIP3    H129907   3.242   3.162   5.956
 9988TIP3    H229908   3.141   3.275   5.968
 9989TIP3   OH229909   0.416   4.299   0.778
 9989TIP3    H129910   0.368   4.382   0.780
 9989TIP3    H229911   0.354   4.234   0.811
 9990TIP3   OH229912   2.780   2.379   4.217
 9990TIP3    H129913   2.794   2.422   4.133
 9990TIP3    H229914   2.686   2.383   4.231
 9991TIP3   OH229915   2.477   1.399   3.492
 9991TIP3    H129916   2.483   1.303   3.487
 9991TIP3    H229917   2.400   1.416   3.546
 9992TIP3   OH229918   2.070   4.189   1.038
 9992TIP3    H129919   2.156   4.224   1.018
 9992TIP3    H229920   2.026   4.183   0.954
 9993TIP3   OH229921   5.078   0.025   3.804
 9993TIP3    H129922   5.017  -0.039   3.765
 9993TIP3    H229923   5.023   0.079   3.861
 9994TIP3   OH229924   6.647   1.648   3.299
 9994TIP3    H129925   6.635   1.553   3.308
 9994TIP3    H229926   6.740   1.662   3.316
 9995TIP3   OH229927   7.876   4.598   1.683
 9995TIP3    H129928   7.855   4.542   1.608
 9995TIP3    H229929   7.856   4.544   1.759
 9996TIP3   OH229930   0.385   3.698   0.920
 9996TIP3    H129931   0.294   3.682   0.946
 9996TIP3    H229932   0.421   3.752   0.991
 9997TIP3   OH229933   0.025   4.832   2.033
 9997TIP3    H129934   0.113   4.869   2.041
 9997TIP3    H229935   0.017   4.807   1.941
 9998TIP3   OH229936   0.437   7.064   5.229
 9998TIP3    H129937   0.351   7.105   5.231
 9998TIP3    H229938   0.440   7.019   5.144
 9999TIP3   OH229939   6.870   5.557   3.562
 9999TIP3    H129940   6.867   5.516   3.648
 9999TIP3    H229941   6.838   5.490   3.502
10000TIP3   OH229942   0.930   7.685   3.055
10000TIP3    H129943   1.004   7.740   3.032
10000TIP3    H229944   0.887   7.667   2.971
10001TIP3   OH229945   6.852   0.767   1.234
10001TIP3    H129946   6.832   0.705   1.304
10001TIP3    H229947   6.803   0.846   1.257
10002TIP3   OH229948   4.264   2.779   5.614
10002TIP3    H129949   4.213   2.847   5.657
10002TIP3    H229950   4.353   2.816   5.609
10003TIP3   OH229951   7.897   1.549   4.953
10003TIP3    H129952   7.905   1.608   5.029
10003TIP3    H229953   7.862   1.605   4.884
10004TIP3   OH229954   5.432   6.345   4.599
10004TIP3    H129955   5.349   6.320   4.639
10004TIP3    H229956   5.463   6.265   4.557
10005TIP3   OH229957   3.749   3.318   3.495
10005TIP3    H129958   3.768   3.341   3.585
10005TIP3    H229959   3.669   3.367   3.474
10006TIP3   OH229960   5.228   0.589   0.957
10006TIP3    H129961   5.229   0.495   0.976
10006TIP3    H229962   5.279   0.629   1.028
10007TIP3   OH229963   0.391   4.028   0.858
10007TIP3    H129964   0.296   4.024   0.862
10007TIP3    H229965   0.411   4.025   0.764
10008TIP3   OH229966   6.051   5.514   4.601
10008TIP3    H129967   5.990   5.517   4.674
10008TIP3    H229968   6.130   5.473   4.638
10009TIP3   OH229969   1.997   6.107   5.960
10009TIP3    H129970   1.995   6.036   6.025
10009TIP3    H229971   2.064   6.079   5.897
10010TIP3   OH229972   1.903   2.611   0.813
10010TIP3    H129973   1.840   2.659   0.867
10010TIP3    H229974   1.857   2.530   0.789
10011TIP3   OH229975   7.525   1.619   3.655
10011TIP3    H129976   7.446   1.656   3.696
10011TIP3    H229977   7.493   1.582   3.573
10012TIP3   OH229978   3.485   1.304   3.397
10012TIP3    H129979   3.551   1.237   3.380
10012TIP3    H229980   3.498   1.327   3.489
10013TIP3   OH229981   4.931   4.176   5.429
10013TIP3    H129982   4.936   4.161   5.524
10013TIP3    H229983   4.850   4.134   5.403
10014TIP3   OH229984   5.498   3.957   5.452
10014TIP3    H129985   5.575   3.904   5.433
10014TIP3    H229986   5.504   4.032   5.393
10015TIP3   OH229987   8.218   5.208   3.753
10015TIP3    H129988   8.267   5.215   3.671
10015TIP3    H229989   8.153   5.140   3.737
10016TIP3   OH229990   1.980   0.037   0.512
10016TIP3    H129991   1.944  -0.033   0.457
10016TIP3    H229992   1.916   0.048   0.582
10017TIP3   OH229993   6.824   3.152   3.691
10017TIP3    H129994   6.807   3.246   3.690
10017TIP3    H229995   6.870   3.137   3.773
10018TIP3   OH229996   1.809   7.445   3.110
10018TIP3    H129997   1.740   7.488   3.059
10018TIP3    H229998   1.817   7.496   3.190
10019TIP3   OH229999   2.051   5.854   1.286
10019TIP3    H130000   2.045   5.927   1.347
10019TIP3    H230001   2.091   5.783   1.337
10020TIP3   OH230002   2.734   1.535   0.162
10020TIP3    H130003   2.719   1.630   0.155
10020TIP3    H230004   2.787   1.525   0.241
10021TIP3   OH230005   2.970   5.092   2.656
10021TIP3    H130006   2.917   5.060   2.730
10021TIP3    H230007   3.027   5.159   2.694
10022TIP3   OH230008   6.890   4.149   1.185
10022TIP3    H130009   6.938   4.086   1.238
10022TIP3    H230010   6.855   4.212   1.248
10023TIP3   OH230011   7.150   3.027   6.351
10023TIP3    H130012   7.183   3.116   6.349
10023TIP3    H230013   7.184   2.990   6.433
10024TIP3   OH230014   2.771   5.821   1.036
10024TIP3    H130015   2.735   5.788   0.954
10024TIP3    H230016   2.853   5.864   1.011
10025TIP3   OH230017   7.105   5.696   1.412
10025TIP3    H130018   7.111   5.600   1.412
10025TIP3    H230019   7.165   5.724   1.342
10026TIP3   OH230020   7.074   6.331   3.086
10026TIP3    H130021   7.088   6.421   3.055
10026TIP3    H230022   7.154   6.285   3.062
10027TIP3   OH230023   2.031   2.586   2.990
10027TIP3    H130024   2.007   2.653   3.054
10027TIP3    H230025   2.044   2.506   3.041
10028TIP3   OH230026   2.446   0.378   5.149
10028TIP3    H130027   2.452   0.359   5.056
10028TIP3    H230028   2.534   0.359   5.183
10029TIP3   OH230029   6.377   2.255   3.124
10029TIP3    H130030   6.418   2.314   3.062
10029TIP3    H230031   6.303   2.216   3.077
10030TIP3   OH230032   3.664   3.896   4.225
10030TIP3    H130033   3.735   3.886   4.161
10030TIP3    H230034   3.637   3.807   4.245
10031TIP3   OH230035   3.206   3.252   2.517
10031TIP3    H130036   3.288   3.212   2.486
10031TIP3    H230037   3.175   3.304   2.444
10032TIP3   OH230038   1.105   2.104   2.484
10032TIP3    H130039   1.190   2.107   2.527
10032TIP3    H230040   1.074   2.195   2.485
10033TIP3   OH230041   5.763   1.734   0.289
10033TIP3    H130042   5.791   1.825   0.304
10033TIP3    H230043   5.778   1.720   0.195
10034TIP3   OH230044   8.246   0.718   3.758
10034TIP3    H130045   8.303   0.663   3.704
10034TIP3    H230046   8.292   0.724   3.842
10035TIP3   OH230047   3.319   7.675   1.350
10035TIP3    H130048   3.312   7.742   1.283
10035TIP3    H230049   3.308   7.592   1.302
10036TIP3   OH230050   5.591   2.633   1.915
10036TIP3    H130051   5.533   2.567   1.877
10036TIP3    H230052   5.676   2.590   1.920
10037TIP3   OH230053   5.898   2.470   6.724
10037TIP3    H130054   5.828   2.408   6.742
10037TIP3    H230055   5.934   2.492   6.810
10038TIP3   OH230056   3.458   6.967   3.006
10038TIP3    H130057   3.465   6.945   3.099
10038TIP3    H230058   3.365   6.963   2.987
10039TIP3   OH230059   5.801   2.623   2.272
10039TIP3    H130060   5.779   2.683   2.200
10039TIP3    H230061   5.724   2.567   2.280
10040TIP3   OH230062   4.813   1.481   4.526
10040TIP3    H130063   4.843   1.391   4.541
10040TIP3    H230064   4.875   1.516   4.462
10041TIP3   OH230065   3.946   6.814   4.629
10041TIP3    H130066   3.863   6.854   4.653
10041TIP3    H230067   3.964   6.752   4.700
10042TIP3   OH230068   1.192   0.709   6.476
10042TIP3    H130069   1.157   0.735   6.561
10042TIP3    H230070   1.114   0.698   6.420
10043TIP3   OH230071   1.302   7.695   5.349
10043TIP3    H130072   1.282   7.765   5.411
10043TIP3    H230073   1.396   7.681   5.357
10044TIP3   OH230074   4.092   1.675   4.811
10044TIP3    H130075   4.129   1.594   4.845
10044TIP3    H230076   3.999   1.654   4.796
10045TIP3   OH230077   0.622   0.808   0.078
10045TIP3    H130078   0.551   0.855   0.122
10045TIP3    H230079   0.588   0.789  -0.010
10046TIP3   OH230080   7.507   5.460   2.630
10046TIP3    H130081   7.533   5.539   2.583
10046TIP3    H230082   7.546   5.470   2.717
10047TIP3   OH230083   5.602   7.291   1.311
10047TIP3    H130084   5.509   7.276   1.327
10047TIP3    H230085   5.636   7.205   1.287
10048TIP3   OH230086   0.229   3.339   5.391
10048TIP3    H130087   0.171   3.338   5.468
10048TIP3    H230088   0.299   3.401   5.415
10049TIP3   OH230089   5.655   0.624   0.816
10049TIP3    H130090   5.621   0.665   0.895
10049TIP3    H230091   5.646   0.530   0.833
10050TIP3   OH230092   1.779   6.185   3.699
10050TIP3    H130093   1.787   6.231   3.783
10050TIP3    H230094   1.736   6.248   3.641
10051TIP3   OH230095   8.321   2.177   4.468
10051TIP3    H130096   8.260   2.214   4.403
10051TIP3    H230097   8.305   2.083   4.465
10052TIP3   OH230098   6.384   0.894   2.697
10052TIP3    H130099   6.401   0.856   2.610
10052TIP3    H230100   6.405   0.987   2.687
10053TIP3   OH230101   8.054   3.683   5.779
10053TIP3    H130102   7.962   3.687   5.751
10053TIP3    H230103   8.079   3.592   5.762
10054TIP3   OH230104   5.852   2.779   3.376
10054TIP3    H130105   5.831   2.694   3.338
10054TIP3    H230106   5.793   2.840   3.332
10055TIP3   OH230107   5.529   3.495   4.899
10055TIP3    H130108   5.576   3.427   4.948
10055TIP3    H230109   5.593   3.526   4.834
10056TIP3   OH230110   6.572   7.510   6.187
10056TIP3    H130111   6.582   7.599   6.219
10056TIP3    H230112   6.661   7.480   6.168
10057TIP3   OH230113   1.737   7.130   2.183
10057TIP3    H130114   1.758   7.163   2.095
10057TIP3    H230115   1.682   7.197   2.222
10058TIP3   OH230116   7.961   7.662   1.839
10058TIP3    H130117   7.949   7.742   1.787
10058TIP3    H230118   8.010   7.690   1.916
10059TIP3   OH230119   1.070   3.633   1.366
10059TIP3    H130120   1.067   3.622   1.271
10059TIP3    H230121   0.986   3.599   1.397
10060TIP3   OH230122   5.265   7.607   3.778
10060TIP3    H130123   5.239   7.684   3.829
10060TIP3    H230124   5.207   7.537   3.808
10061TIP3   OH230125   6.689   3.289   1.175
10061TIP3    H130126   6.727   3.365   1.220
10061TIP3    H230127   6.729   3.214   1.219
10062TIP3   OH230128   4.143   4.843   3.865
10062TIP3    H130129   4.178   4.777   3.805
10062TIP3    H230130   4.063   4.804   3.900
10063TIP3   OH230131   1.577   6.301   1.777
10063TIP3    H130132   1.555   6.301   1.870
10063TIP3    H230133   1.670   6.325   1.774
10064TIP3   OH230134   4.102   0.897   4.126
10064TIP3    H130135   4.165   0.968   4.142
10064TIP3    H230136   4.151   0.817   4.146
10065TIP3   OH230137   1.028   7.427   1.727
10065TIP3    H130138   1.104   7.478   1.699
10065TIP3    H230139   1.008   7.371   1.652
10066TIP3   OH230140   2.810   6.087   3.386
10066TIP3    H130141   2.769   6.156   3.335
10066TIP3    H230142   2.741   6.022   3.398
10067TIP3   OH230143   7.970   4.808   4.540
10067TIP3    H130144   7.896   4.750   4.521
10067TIP3    H230145   8.027   4.800   4.464
10068TIP3   OH230146   1.240   1.918   0.269
10068TIP3    H130147   1.244   1.870   0.351
10068TIP3    H230148   1.329   1.912   0.234
10069TIP3   OH230149   8.107   7.494   2.348
10069TIP3    H130150   8.155   7.431   2.293
10069TIP3    H230151   8.154   7.576   2.337
10070TIP3   OH230152   1.340   3.247   6.595
10070TIP3    H130153   1.308   3.334   6.620
10070TIP3    H230154   1.279   3.219   6.526
10071TIP3   OH230155   0.800   4.619   2.185
10071TIP3    H130156   0.773   4.646   2.273
10071TIP3    H230157   0.891   4.589   2.196
10072TIP3   OH230158   8.172   5.150   3.307
10072TIP3    H130159   8.083   5.127   3.283
10072TIP3    H230160   8.226   5.114   3.236
10073TIP3   OH230161   2.583   3.743   5.311
10073TIP3    H130162   2.673   3.775   5.306
10073TIP3    H230163   2.592   3.648   5.309
10074TIP3   OH230164   2.382   5.581   5.614
10074TIP3    H130165   2.401   5.667   5.651
10074TIP3    H230166   2.361   5.526   5.690
10075TIP3   OH230167   2.527   1.355   4.984
10075TIP3    H130168   2.443   1.325   4.947
10075TIP3    H230169   2.572   1.397   4.911
10076TIP3   OH230170   8.112   2.516   3.419
10076TIP3    H130171   8.189   2.563   3.386
10076TIP3    H230172   8.148   2.444   3.471
10077TIP3   OH230173   2.466   7.622   3.483
10077TIP3    H130174   2.477   7.563   3.408
10077TIP3    H230175   2.459   7.709   3.443
10078TIP3   OH230176   7.465   4.235   1.347
10078TIP3    H130177   7.431   4.267   1.263
10078TIP3    H230178   7.509   4.153   1.325
10079TIP3   OH230179   3.332   0.490   5.669
10079TIP3    H130180   3.239   0.503   5.683
10079TIP3    H230181   3.356   0.555   5.603
10080TIP3   OH230182   2.051   5.297   5.998
10080TIP3    H130183   2.094   5.374   6.033
10080TIP3    H230184   1.964   5.296   6.038
10081TIP3   OH230185   6.812   5.579   6.493
10081TIP3    H130186   6.754   5.503   6.501
10081TIP3    H230187   6.850   5.588   6.580
10082TIP3   OH230188   3.730   0.402   1.146
10082TIP3    H130189   3.816   0.429   1.178
10082TIP3    H230190   3.749   0.335   1.080
10083TIP3   OH230191   2.385   3.132   3.281
10083TIP3    H130192   2.324   3.084   3.337
10083TIP3    H230193   2.330   3.167   3.211
10084TIP3   OH230194   6.957   3.449   2.675
10084TIP3    H130195   7.049   3.471   2.691
10084TIP3    H230196   6.961   3.382   2.606
10085TIP3   OH230197   3.470   5.786   1.221
10085TIP3    H130198   3.508   5.710   1.177
10085TIP3    H230199   3.544   5.833   1.258
10086TIP3   OH230200   1.529   2.456   6.308
10086TIP3    H130201   1.474   2.378   6.312
10086TIP3    H230202   1.481   2.522   6.358
10087TIP3   OH230203   6.421   5.287   0.402
10087TIP3    H130204   6.459   5.231   0.469
10087TIP3    H230205   6.431   5.376   0.435
10088TIP3   OH230206   4.047   2.349   6.504
10088TIP3    H130207   4.067   2.381   6.592
10088TIP3    H230208   4.078   2.418   6.445
10089TIP3   OH230209   6.517   7.322   1.369
10089TIP3    H130210   6.546   7.381   1.439
10089TIP3    H230211   6.431   7.356   1.343
10090TIP3   OH230212   7.681   0.524   2.747
10090TIP3    H130213   7.764   0.479   2.731
10090TIP3    H230214   7.642   0.477   2.821
10091TIP3   OH230215   2.946   5.183   0.654
10091TIP3    H130216   2.860   5.199   0.615
10091TIP3    H230217   3.000   5.255   0.622
10092TIP3   OH230218   5.772   3.702   3.456
10092TIP3    H130219   5.825   3.720   3.379
10092TIP3    H230220   5.743   3.612   3.445
10093TIP3   OH230221   6.342   2.449   1.088
10093TIP3    H130222   6.311   2.369   1.045
10093TIP3    H230223   6.271   2.512   1.077
10094TIP3   OH230224   5.822   7.174   5.180
10094TIP3    H130225   5.883   7.225   5.127
10094TIP3    H230226   5.736   7.212   5.161
10095TIP3   OH230227   5.607   6.322   0.050
10095TIP3    H130228   5.598   6.408   0.091
10095TIP3    H230229   5.570   6.262   0.115
10096TIP3   OH230230   3.336   2.509   4.117
10096TIP3    H130231   3.384   2.532   4.037
10096TIP3    H230232   3.290   2.428   4.095
10097TIP3   OH230233   5.170   7.537   3.281
10097TIP3    H130234   5.239   7.484   3.322
10097TIP3    H230235   5.101   7.541   3.348
10098TIP3   OH230236   0.764   7.652   2.029
10098TIP3    H130237   0.818   7.642   1.951
10098TIP3    H230238   0.816   7.612   2.099
10099TIP3   OH230239   4.652   7.260   5.745
10099TIP3    H130240   4.669   7.251   5.651
10099TIP3    H230241   4.557   7.263   5.752
10100TIP3   OH230242   6.068   1.026   3.556
10100TIP3    H130243   6.044   0.975   3.478
10100TIP3    H230244   6.027   1.112   3.542
10101TIP3   OH230245   6.198   6.884   1.710
10101TIP3    H130246   6.244   6.857   1.630
10101TIP3    H230247   6.106   6.891   1.683
10102TIP3   OH230248   5.930   4.691   0.537
10102TIP3    H130249   5.958   4.614   0.487
10102TIP3    H230250   6.011   4.739   0.554
10103TIP3   OH230251   7.095   1.293   4.594
10103TIP3    H130252   7.006   1.326   4.580
10103TIP3    H230253   7.083   1.211   4.643
10104TIP3   OH230254   0.484   5.643   0.696
10104TIP3    H130255   0.444   5.644   0.784
10104TIP3    H230256   0.490   5.550   0.674
10105TIP3   OH230257   7.081   6.415   4.687
10105TIP3    H130258   7.085   6.468   4.608
10105TIP3    H230259   6.991   6.425   4.718
10106TIP3   OH230260   0.518   0.075   0.229
10106TIP3    H130261   0.460   0.143   0.263
10106TIP3    H230262   0.591   0.073   0.290
10107TIP3   OH230263   2.811   4.154   6.238
10107TIP3    H130264   2.775   4.065   6.237
10107TIP3    H230265   2.756   4.203   6.177
10108TIP3   OH230266   0.199   4.120   3.047
10108TIP3    H130267   0.245   4.039   3.024
10108TIP3    H230268   0.134   4.131   2.979
10109TIP3   OH230269   6.296   3.547   1.549
10109TIP3    H130270   6.240   3.575   1.621
10109TIP3    H230271   6.261   3.461   1.523
10110TIP3   OH230272   2.004   6.899   0.701
10110TIP3    H130273   2.098   6.914   0.694
10110TIP3    H230274   1.965   6.986   0.693
10111TIP3   OH230275   8.146   0.248   2.993
10111TIP3    H130276   8.110   0.313   3.054
10111TIP3    H230277   8.152   0.168   3.045
10112TIP3   OH230278   0.303   3.372   1.822
10112TIP3    H130279   0.312   3.277   1.817
10112TIP3    H230280   0.268   3.388   1.910
10113TIP3   OH230281   6.561   5.126   2.171
10113TIP3    H130282   6.585   5.175   2.249
10113TIP3    H230283   6.614   5.164   2.101
10114TIP3   OH230284   7.840   1.481   6.218
10114TIP3    H130285   7.747   1.470   6.237
10114TIP3    H230286   7.862   1.409   6.159
10115TIP3   OH230287   0.334   7.255   1.214
10115TIP3    H130288   0.387   7.264   1.293
10115TIP3    H230289   0.246   7.234   1.246
10116TIP3   OH230290   1.962   1.505   2.796
10116TIP3    H130291   1.949   1.414   2.769
10116TIP3    H230292   2.021   1.500   2.871
10117TIP3   OH230293   0.482   1.639   3.057
10117TIP3    H130294   0.558   1.585   3.081
10117TIP3    H230295   0.446   1.670   3.140
10118TIP3   OH230296   1.533   6.981   6.352
10118TIP3    H130297   1.602   6.970   6.416
10118TIP3    H230298   1.457   7.011   6.402
10119TIP3   OH230299   1.397   1.368   5.793
10119TIP3    H130300   1.373   1.288   5.838
10119TIP3    H230301   1.427   1.427   5.862
10120TIP3   OH230302   3.701   4.384   2.999
10120TIP3    H130303   3.651   4.424   3.069
10120TIP3    H230304   3.779   4.349   3.042
10121TIP3   OH230305   0.911   6.912   5.686
10121TIP3    H130306   0.837   6.962   5.652
10121TIP3    H230307   0.979   6.978   5.702
10122TIP3   OH230308   2.366   2.143   2.702
10122TIP3    H130309   2.338   2.129   2.611
10122TIP3    H230310   2.334   2.230   2.724
10123TIP3   OH230311   5.249   6.604   3.826
10123TIP3    H130312   5.313   6.673   3.843
10123TIP3    H230313   5.180   6.648   3.775
10124TIP3   OH230314   1.806   2.118   4.085
10124TIP3    H130315   1.767   2.152   4.005
10124TIP3    H230316   1.895   2.153   4.086
10125TIP3   OH230317   0.935   1.385   6.436
10125TIP3    H130318   1.025   1.355   6.435
10125TIP3    H230319   0.904   1.372   6.347
10126TIP3   OH230320   4.869   6.697   4.425
10126TIP3    H130321   4.918   6.623   4.460
10126TIP3    H230322   4.847   6.750   4.502
10127TIP3   OH230323   0.042   7.373   2.818
10127TIP3    H130324   0.070   7.365   2.909
10127TIP3    H230325  -0.040   7.422   2.822
10128TIP3   OH230326   6.531   7.116   1.939
10128TIP3    H130327   6.578   7.190   1.975
10128TIP3    H230328   6.591   7.042   1.949
10129TIP3   OH230329   3.805   0.299   5.827
10129TIP3    H130330   3.801   0.327   5.736
10129TIP3    H230331   3.718   0.319   5.862
10130TIP3   OH230332   0.180   2.364   3.058
10130TIP3    H130333   0.206   2.402   3.141
10130TIP3    H230334   0.119   2.427   3.020
10131TIP3   OH230335   4.147   0.861   5.981
10131TIP3    H130336   4.125   0.786   5.926
10131TIP3    H230337   4.181   0.823   6.062
10132TIP3   OH230338   0.190   3.464   4.465
10132TIP3    H130339   0.181   3.378   4.506
10132TIP3    H230340   0.175   3.448   4.371
10133TIP3   OH230341   7.890   1.430   3.431
10133TIP3    H130342   7.878   1.337   3.449
10133TIP3    H230343   7.877   1.439   3.337
10134TIP3   OH230344   8.167   2.521   5.898
10134TIP3    H130345   8.221   2.588   5.856
10134TIP3    H230346   8.214   2.439   5.881
10135TIP3   OH230347   0.562   3.155   4.826
10135TIP3    H130348   0.545   3.079   4.770
10135TIP3    H230349   0.543   3.231   4.770
10136TIP3   OH230350   3.496   3.124   6.002
10136TIP3    H130351   3.494   3.036   6.038
10136TIP3    H230352   3.491   3.182   6.078
10137TIP3   OH230353   7.494   3.996   3.979
10137TIP3    H130354   7.533   4.059   4.039
10137TIP3    H230355   7.546   4.003   3.899
10138TIP3   OH230356   3.120   4.268   4.563
10138TIP3    H130357   3.029   4.262   4.593
10138TIP3    H230358   3.121   4.220   4.480
10139TIP3   OH230359   1.835   2.881   5.625
10139TIP3    H130360   1.857   2.920   5.709
10139TIP3    H230361   1.845   2.787   5.638
10140TIP3   OH230362   6.021   0.625   6.191
10140TIP3    H130363   5.942   0.679   6.194
10140TIP3    H230364   5.988   0.536   6.178
10141TIP3   OH230365   4.992   5.828   3.454
10141TIP3    H130366   4.903   5.801   3.480
10141TIP3    H230367   5.037   5.844   3.537
10142TIP3   OH230368   4.757   2.476   1.207
10142TIP3    H130369   4.842   2.473   1.251
10142TIP3    H230370   4.708   2.541   1.256
10143TIP3   OH230371   7.901   0.110   3.071
10143TIP3    H130372   7.830   0.132   3.131
10143TIP3    H230373   7.866   0.130   2.984
10144TIP3   OH230374   5.489   1.891   4.737
10144TIP3    H130375   5.514   1.799   4.725
10144TIP3    H230376   5.412   1.888   4.793
10145TIP3   OH230377   4.132   0.889   6.330
10145TIP3    H130378   4.118   0.980   6.356
10145TIP3    H230379   4.055   0.866   6.278
10146TIP3   OH230380   0.127   5.956   1.666
10146TIP3    H130381   0.206   5.970   1.614
10146TIP3    H230382   0.061   6.012   1.626
10147TIP3   OH230383   3.261   3.390   2.765
10147TIP3    H130384   3.235   3.356   2.679
10147TIP3    H230385   3.200   3.462   2.781
10148TIP3   OH230386   1.126   3.945   2.404
10148TIP3    H130387   1.123   3.867   2.460
10148TIP3    H230388   1.218   3.954   2.380
10149TIP3   OH230389   0.408   6.575   6.537
10149TIP3    H130390   0.500   6.587   6.512
10149TIP3    H230391   0.407   6.593   6.631
10150TIP3   OH230392   4.522   2.480   0.162
10150TIP3    H130393   4.556   2.404   0.209
10150TIP3    H230394   4.446   2.508   0.213
10151TIP3   OH230395   7.639   4.065   5.642
10151TIP3    H130396   7.587   4.132   5.685
10151TIP3    H230397   7.646   4.094   5.551
10152TIP3   OH230398   5.595   3.932   3.497
10152TIP3    H130399   5.524   3.908   3.437
10152TIP3    H230400   5.662   3.866   3.482
10153TIP3   OH230401   4.763   4.667   0.092
10153TIP3    H130402   4.756   4.759   0.065
10153TIP3    H230403   4.688   4.625   0.049
10154TIP3   OH230404   3.002   2.401   5.140
10154TIP3    H130405   3.001   2.345   5.218
10154TIP3    H230406   3.048   2.480   5.168
10155TIP3   OH230407   6.816   5.697   1.404
10155TIP3    H130408   6.900   5.741   1.393
10155TIP3    H230409   6.753   5.767   1.419
10156TIP3   OH230410   6.750   5.885   3.354
10156TIP3    H130411   6.823   5.865   3.412
10156TIP3    H230412   6.730   5.977   3.371
10157TIP3   OH230413   3.956   7.031   3.557
10157TIP3    H130414   4.039   6.994   3.587
10157TIP3    H230415   3.950   7.116   3.601
10158TIP3   OH230416   7.605   6.812   1.862
10158TIP3    H130417   7.580   6.725   1.831
10158TIP3    H230418   7.523   6.851   1.891
10159TIP3   OH230419   3.179   6.204   2.123
10159TIP3    H130420   3.272   6.226   2.128
10159TIP3    H230421   3.157   6.218   2.031
10160TIP3   OH230422   4.894   7.118   4.452
10160TIP3    H130423   4.886   7.203   4.496
10160TIP3    H230424   4.958   7.071   4.505
10161TIP3   OH230425   3.144   6.421   3.511
10161TIP3    H130426   3.195   6.502   3.502
10161TIP3    H230427   3.203   6.360   3.554
10162TIP3   OH230428   7.222   6.457   5.541
10162TIP3    H130429   7.263   6.408   5.470
10162TIP3    H230430   7.229   6.549   5.515
10163TIP3   OH230431   6.337   1.178   0.934
10163TIP3    H130432   6.268   1.245   0.927
10163TIP3    H230433   6.369   1.169   0.844
10164TIP3   OH230434   2.693   7.740   1.023
10164TIP3    H130435   2.677   7.835   1.025
10164TIP3    H230436   2.614   7.704   0.982
10165TIP3   OH230437   6.665   2.039   1.426
10165TIP3    H130438   6.638   2.060   1.336
10165TIP3    H230439   6.591   1.990   1.462
10166TIP3   OH230440   3.329   4.090   2.607
10166TIP3    H130441   3.368   4.021   2.554
10166TIP3    H230442   3.383   4.167   2.589
10167TIP3   OH230443   2.244   5.833   3.312
10167TIP3    H130444   2.256   5.772   3.239
10167TIP3    H230445   2.229   5.777   3.388
10168TIP3   OH230446   0.700   0.610   6.597
10168TIP3    H130447   0.647   0.686   6.573
10168TIP3    H230448   0.740   0.582   6.514
10169TIP3   OH230449   7.902   7.413   0.106
10169TIP3    H130450   7.991   7.400   0.072
10169TIP3    H230451   7.866   7.482   0.051
10170TIP3   OH230452   4.579   2.905   3.889
10170TIP3    H130453   4.569   2.995   3.920
10170TIP3    H230454   4.499   2.861   3.917
10171TIP3   OH230455   3.060   1.411   0.911
10171TIP3    H130456   2.994   1.471   0.946
10171TIP3    H230457   3.116   1.391   0.986
10172TIP3   OH230458   0.462   6.084   6.570
10172TIP3    H130459   0.383   6.035   6.545
10172TIP3    H230460   0.462   6.160   6.513
10173TIP3   OH230461   2.465   6.749   1.394
10173TIP3    H130462   2.381   6.746   1.440
10173TIP3    H230463   2.530   6.725   1.460
10174TIP3   OH230464   5.106   6.669   2.237
10174TIP3    H130465   5.176   6.660   2.172
10174TIP3    H230466   5.146   6.643   2.320
10175TIP3   OH230467   4.084   5.875   5.600
10175TIP3    H130468   4.139   5.825   5.659
10175TIP3    H230469   4.118   5.964   5.604
10176TIP3   OH230470   2.860   1.656   5.923
10176TIP3    H130471   2.826   1.600   5.853
10176TIP3    H230472   2.871   1.742   5.881
10177TIP3   OH230473   4.259   1.129   4.238
10177TIP3    H130474   4.236   1.164   4.152
10177TIP3    H230475   4.272   1.207   4.292
10178TIP3   OH230476   6.549   5.760   0.057
10178TIP3    H130477   6.608   5.696   0.019
10178TIP3    H230478   6.531   5.726   0.145
10179TIP3   OH230479   6.087   5.184   3.648
10179TIP3    H130480   6.079   5.145   3.561
10179TIP3    H230481   6.000   5.218   3.667
10180TIP3   OH230482   5.765   7.540   4.009
10180TIP3    H130483   5.776   7.544   3.914
10180TIP3    H230484   5.729   7.453   4.025
10181TIP3   OH230485   0.915   0.305   1.416
10181TIP3    H130486   0.963   0.245   1.359
10181TIP3    H230487   0.829   0.313   1.374
10182TIP3   OH230488   5.145   5.756   1.026
10182TIP3    H130489   5.085   5.685   1.045
10182TIP3    H230490   5.100   5.835   1.056
10183TIP3   OH230491   0.586   0.057   1.339
10183TIP3    H130492   0.659   0.010   1.378
10183TIP3    H230493   0.509   0.002   1.356
10184TIP3   OH230494   2.377   0.360   2.909
10184TIP3    H130495   2.471   0.364   2.924
10184TIP3    H230496   2.366   0.289   2.845
10185TIP3   OH230497   5.184   0.632   4.550
10185TIP3    H130498   5.170   0.594   4.636
10185TIP3    H230499   5.107   0.606   4.499
10186TIP3   OH230500   6.903   6.030   1.511
10186TIP3    H130501   6.890   6.125   1.510
10186TIP3    H230502   6.815   5.994   1.498
10187TIP3   OH230503   1.144   6.981   5.133
10187TIP3    H130504   1.185   6.923   5.199
10187TIP3    H230505   1.124   7.061   5.181
10188TIP3   OH230506   0.516   6.075   1.092
10188TIP3    H130507   0.452   6.128   1.044
10188TIP3    H230508   0.598   6.123   1.083
10189TIP3   OH230509   0.760   3.244   2.206
10189TIP3    H130510   0.821   3.171   2.198
10189TIP3    H230511   0.685   3.207   2.253
10190TIP3   OH230512   1.886   3.967   3.060
10190TIP3    H130513   1.842   4.023   2.996
10190TIP3    H230514   1.835   3.977   3.140
10191TIP3   OH230515   0.760   3.965   1.499
10191TIP3    H130516   0.776   3.942   1.408
10191TIP3    H230517   0.665   3.980   1.504
10192TIP3   OH230518   2.394   7.336   3.886
10192TIP3    H130519   2.393   7.387   3.806
10192TIP3    H230520   2.303   7.334   3.915
10193TIP3   OH230521   7.391   2.294   1.012
10193TIP3    H130522   7.301   2.266   1.029
10193TIP3    H230523   7.415   2.344   1.090
10194TIP3   OH230524   5.494   2.429   1.744
10194TIP3    H130525   5.533   2.341   1.744
10194TIP3    H230526   5.429   2.426   1.815
10195TIP3   OH230527   6.502   4.801   2.876
10195TIP3    H130528   6.579   4.830   2.925
10195TIP3    H230529   6.533   4.727   2.824
10196TIP3   OH230530   1.348   5.010   0.531
10196TIP3    H130531   1.285   4.942   0.555
10196TIP3    H230532   1.417   5.002   0.597
10197TIP3   OH230533   5.868   5.009   6.200
10197TIP3    H130534   5.805   5.032   6.268
10197TIP3    H230535   5.818   5.013   6.119
10198TIP3   OH230536   1.615   1.956   2.271
10198TIP3    H130537   1.596   1.863   2.256
10198TIP3    H230538   1.655   1.985   2.189
10199TIP3   OH230539   2.598   2.747   6.764
10199TIP3    H130540   2.661   2.809   6.728
10199TIP3    H230541   2.567   2.788   6.845
10200TIP3   OH230542   5.902   0.568   2.449
10200TIP3    H130543   5.808   0.574   2.468
10200TIP3    H230544   5.909   0.591   2.356
10201TIP3   OH230545   6.856   6.552   6.006
10201TIP3    H130546   6.916   6.575   6.077
10201TIP3    H230547   6.819   6.637   5.978
10202TIP3   OH230548   1.044   0.825   6.691
10202TIP3    H130549   1.051   0.789   6.779
10202TIP3    H230550   0.960   0.870   6.690
10203TIP3   OH230551   1.727   5.655   3.830
10203TIP3    H130552   1.704   5.745   3.853
10203TIP3    H230553   1.688   5.642   3.744
10204TIP3   OH230554   7.093   3.115   5.035
10204TIP3    H130555   7.098   3.050   4.964
10204TIP3    H230556   7.095   3.199   4.990
10205TIP3   OH230557   5.447   7.786   5.087
10205TIP3    H130558   5.358   7.822   5.095
10205TIP3    H230559   5.433   7.692   5.073
10206TIP3   OH230560   2.724   0.561   0.988
10206TIP3    H130561   2.683   0.541   1.071
10206TIP3    H230562   2.816   0.538   1.001
10207TIP3   OH230563   2.919   4.110   3.717
10207TIP3    H130564   2.994   4.130   3.661
10207TIP3    H230565   2.889   4.196   3.748
10208TIP3   OH230566   7.603   3.446   0.909
10208TIP3    H130567   7.513   3.439   0.876
10208TIP3    H230568   7.608   3.535   0.944
10209TIP3   OH230569   6.118   3.465   5.411
10209TIP3    H130570   6.193   3.410   5.435
10209TIP3    H230571   6.136   3.549   5.452
10210TIP3   OH230572   7.945   2.850   2.624
10210TIP3    H130573   7.968   2.942   2.612
10210TIP3    H230574   8.029   2.804   2.624
10211TIP3   OH230575   2.202   1.426   1.977
10211TIP3    H130576   2.232   1.466   2.059
10211TIP3    H230577   2.133   1.366   2.003
10212TIP3   OH230578   2.135   1.971   1.137
10212TIP3    H130579   2.178   2.025   1.203
10212TIP3    H230580   2.147   2.018   1.055
10213TIP3   OH230581   0.997  -0.021   4.823
10213TIP3    H130582   0.986   0.004   4.731
10213TIP3    H230583   0.967   0.054   4.873
10214TIP3   OH230584   4.758   4.011   1.175
10214TIP3    H130585   4.709   3.940   1.216
10214TIP3    H230586   4.834   3.969   1.135
10215TIP3   OH230587   5.104   3.218   4.239
10215TIP3    H130588   5.176   3.282   4.239
10215TIP3    H230589   5.139   3.142   4.194
10216TIP3   OH230590   0.092   1.945   1.730
10216TIP3    H130591   0.089   1.860   1.772
10216TIP3    H230592   0.151   1.997   1.784
10217TIP3   OH230593   2.470   3.813   6.059
10217TIP3    H130594   2.476   3.905   6.086
10217TIP3    H230595   2.509   3.811   5.972
10218TIP3   OH230596   5.034   2.619   3.614
10218TIP3    H130597   5.114   2.579   3.581
10218TIP3    H230598   5.034   2.599   3.708
10219TIP3   OH230599   3.288   0.083   2.449
10219TIP3    H130600   3.346   0.160   2.450
10219TIP3    H230601   3.347   0.008   2.448
10220TIP3   OH230602   7.039   7.555   5.657
10220TIP3    H130603   7.134   7.556   5.673
10220TIP3    H230604   7.028   7.501   5.580
10221TIP3   OH230605   5.655   7.519   5.171
10221TIP3    H130606   5.563   7.534   5.151
10221TIP3    H230607   5.661   7.427   5.194
10222TIP3   OH230608   4.840   5.456   0.363
10222TIP3    H130609   4.798   5.504   0.434
10222TIP3    H230610   4.775   5.390   0.338
10223TIP3   OH230611   0.489   6.381   6.004
10223TIP3    H130612   0.441   6.303   6.032
10223TIP3    H230613   0.535   6.411   6.082
10224TIP3   OH230614   5.995   2.817   0.661
10224TIP3    H130615   6.078   2.842   0.702
10224TIP3    H230616   5.928   2.861   0.714
10225TIP3   OH230617   5.435   3.399   5.841
10225TIP3    H130618   5.397   3.409   5.928
10225TIP3    H230619   5.375   3.446   5.783
10226TIP3   OH230620   2.691   7.353   5.070
10226TIP3    H130621   2.737   7.407   5.134
10226TIP3    H230622   2.624   7.307   5.120
10227TIP3   OH230623   7.401   6.823   2.489
10227TIP3    H130624   7.462   6.859   2.424
10227TIP3    H230625   7.373   6.739   2.452
10228TIP3   OH230626   2.151   0.378   3.966
10228TIP3    H130627   2.067   0.339   3.945
10228TIP3    H230628   2.177   0.336   4.048
10229TIP3   OH230629   0.160   1.427   6.356
10229TIP3    H130630   0.153   1.398   6.447
10229TIP3    H230631   0.167   1.346   6.306
10230TIP3   OH230632   5.002   1.597   4.352
10230TIP3    H130633   4.988   1.539   4.278
10230TIP3    H230634   5.079   1.649   4.328
10231TIP3   OH230635   1.388   5.253   5.410
10231TIP3    H130636   1.466   5.309   5.413
10231TIP3    H230637   1.410   5.178   5.465
10232TIP3   OH230638   0.397   7.444   3.820
10232TIP3    H130639   0.413   7.536   3.801
10232TIP3    H230640   0.461   7.397   3.766
10233TIP3   OH230641   7.313   1.480   0.829
10233TIP3    H130642   7.245   1.534   0.789
10233TIP3    H230643   7.381   1.543   0.855
10234TIP3   OH230644   2.278   0.610   5.167
10234TIP3    H130645   2.360   0.561   5.175
10234TIP3    H230646   2.210   0.546   5.189
10235TIP3   OH230647   2.708   5.178   0.499
10235TIP3    H130648   2.655   5.143   0.571
10235TIP3    H230649   2.645   5.224   0.443
10236TIP3   OH230650   0.817   1.832   1.327
10236TIP3    H130651   0.891   1.775   1.309
10236TIP3    H230652   0.741   1.773   1.330
10237TIP3   OH230653   4.735   3.819   2.819
10237TIP3    H130654   4.735   3.729   2.787
10237TIP3    H230655   4.797   3.819   2.891
10238TIP3   OH230656   2.997   0.470   0.973
10238TIP3    H130657   2.965   0.406   0.910
10238TIP3    H230658   3.081   0.498   0.938
10239TIP3   OH230659   1.180   6.336   4.409
10239TIP3    H130660   1.237   6.349   4.485
10239TIP3    H230661   1.104   6.290   4.443
10240TIP3   OH230662   7.983   3.879   6.202
10240TIP3    H130663   7.942   3.920   6.125
10240TIP3    H230664   7.999   3.788   6.174
10241TIP3   OH230665   3.436   2.596   2.755
10241TIP3    H130666   3.459   2.669   2.697
10241TIP3    H230667   3.518   2.546   2.763
10242TIP3   OH230668   8.178   3.905   3.121
10242TIP3    H130669   8.086   3.887   3.139
10242TIP3    H230670   8.193   3.867   3.034
10243TIP3   OH230671   0.940   7.795   0.459
10243TIP3    H130672   0.974   7.710   0.488
10243TIP3    H230673   0.867   7.772   0.401
10244TIP3   OH230674   1.352   6.645   5.651
10244TIP3    H130675   1.409   6.704   5.602
10244TIP3    H230676   1.379   6.557   5.624
10245TIP3   OH230677   2.973   5.517   0.471
10245TIP3    H130678   2.906   5.508   0.538
10245TIP3    H230679   3.051   5.476   0.508
10246TIP3   OH230680   7.296   0.325   3.279
10246TIP3    H130681   7.313   0.317   3.372
10246TIP3    H230682   7.350   0.398   3.250
10247TIP3   OH230683   3.805   3.110   4.139
10247TIP3    H130684   3.868   3.122   4.068
10247TIP3    H230685   3.741   3.048   4.103
10248TIP3   OH230686   3.549   7.803   1.679
10248TIP3    H130687   3.540   7.710   1.659
10248TIP3    H230688   3.574   7.805   1.772
10249TIP3   OH230689   2.469   0.632   4.774
10249TIP3    H130690   2.508   0.690   4.708
10249TIP3    H230691   2.408   0.688   4.822
10250TIP3   OH230692   5.328   0.472   2.370
10250TIP3    H130693   5.300   0.502   2.284
10250TIP3    H230694   5.323   0.551   2.425
10251TIP3   OH230695   2.800   6.854   4.797
10251TIP3    H130696   2.854   6.781   4.826
10251TIP3    H230697   2.800   6.915   4.870
10252TIP3   OH230698   4.745   1.968   3.657
10252TIP3    H130699   4.840   1.962   3.669
10252TIP3    H230700   4.722   2.054   3.690
10253TIP3   OH230701   0.632   3.581   6.307
10253TIP3    H130702   0.547   3.624   6.301
10253TIP3    H230703   0.664   3.604   6.394
10254TIP3   OH230704   3.420   2.875   0.433
10254TIP3    H130705   3.371   2.956   0.450
10254TIP3    H230706   3.393   2.849   0.345
10255TIP3   OH230707   6.027   5.041   2.439
10255TIP3    H130708   6.037   5.134   2.419
10255TIP3    H230709   5.964   5.009   2.376
10256TIP3   OH230710   3.786   1.294   0.632
10256TIP3    H130711   3.801   1.348   0.554
10256TIP3    H230712   3.768   1.357   0.701
10257TIP3   OH230713   1.784   1.017   1.430
10257TIP3    H130714   1.851   0.960   1.467
10257TIP3    H230715   1.704   0.965   1.434
10258TIP3   OH230716   1.090   7.492   5.846
10258TIP3    H130717   1.111   7.426   5.781
10258TIP3    H230718   1.007   7.529   5.818
10259TIP3   OH230719   8.039   7.557   5.167
10259TIP3    H130720   8.002   7.640   5.198
10259TIP3    H230721   8.045   7.567   5.072
10260TIP3   OH230722   1.615   4.382   4.105
10260TIP3    H130723   1.530   4.352   4.135
10260TIP3    H230724   1.658   4.415   4.184
10261TIP3   OH230725   2.995   7.308   6.161
10261TIP3    H130726   3.017   7.223   6.122
10261TIP3    H230727   2.985   7.367   6.086
10262TIP3   OH230728   3.189   0.160   3.255
10262TIP3    H130729   3.148   0.083   3.293
10262TIP3    H230730   3.238   0.200   3.327
10263TIP3   OH230731   3.299   0.765   0.024
10263TIP3    H130732   3.262   0.790  -0.060
10263TIP3    H230733   3.334   0.847   0.060
10264TIP3   OH230734   0.862   1.482   1.059
10264TIP3    H130735   0.768   1.491   1.076
10264TIP3    H230736   0.893   1.571   1.047
10265TIP3   OH230737   1.168   1.714   1.750
10265TIP3    H130738   1.087   1.690   1.704
10265TIP3    H230739   1.138   1.761   1.828
10266TIP3   OH230740   2.767   2.548   6.334
10266TIP3    H130741   2.766   2.569   6.427
10266TIP3    H230742   2.853   2.509   6.319
10267TIP3   OH230743   2.060   2.957   0.241
10267TIP3    H130744   2.068   3.034   0.298
10267TIP3    H230745   1.969   2.929   0.251
10268TIP3   OH230746   6.169   0.982   3.937
10268TIP3    H130747   6.090   1.025   3.968
10268TIP3    H230748   6.138   0.911   3.882
10269TIP3   OH230749   5.499   7.434   1.821
10269TIP3    H130750   5.577   7.411   1.872
10269TIP3    H230751   5.493   7.529   1.827
10270TIP3   OH230752   4.207   5.847   4.024
10270TIP3    H130753   4.280   5.843   3.964
10270TIP3    H230754   4.246   5.837   4.111
10271TIP3   OH230755   8.155   6.339   4.346
10271TIP3    H130756   8.171   6.428   4.315
10271TIP3    H230757   8.145   6.287   4.266
10272TIP3   OH230758   6.658   1.486   4.205
10272TIP3    H130759   6.608   1.426   4.150
10272TIP3    H230760   6.630   1.573   4.177
10273TIP3   OH230761   4.730   5.142   1.547
10273TIP3    H130762   4.724   5.153   1.642
10273TIP3    H230763   4.820   5.112   1.532
10274TIP3   OH230764   2.004   3.014   4.861
10274TIP3    H130765   2.077   2.971   4.817
10274TIP3    H230766   1.995   2.968   4.944
10275TIP3   OH230767   2.895   0.596   6.074
10275TIP3    H130768   2.961   0.527   6.082
10275TIP3    H230769   2.826   0.571   6.136
10276TIP3   OH230770   0.122   4.800   5.901
10276TIP3    H130771   0.158   4.720   5.939
10276TIP3    H230772   0.194   4.863   5.907
10277TIP3   OH230773   3.906   3.284   4.389
10277TIP3    H130774   3.887   3.370   4.352
10277TIP3    H230775   3.900   3.224   4.315
10278TIP3   OH230776   8.088   6.275   2.562
10278TIP3    H130777   8.083   6.264   2.657
10278TIP3    H230778   8.136   6.357   2.549
10279TIP3   OH230779   1.769   6.313   1.285
10279TIP3    H130780   1.718   6.233   1.286
10279TIP3    H230781   1.709   6.380   1.251
10280TIP3   OH230782   7.359   6.834   0.832
10280TIP3    H130783   7.276   6.805   0.871
10280TIP3    H230784   7.340   6.842   0.738
10281TIP3   OH230785   2.454   2.596   4.895
10281TIP3    H130786   2.404   2.519   4.921
10281TIP3    H230787   2.493   2.628   4.977
10282TIP3   OH230788   3.294   2.911   3.776
10282TIP3    H130789   3.297   2.918   3.872
10282TIP3    H230790   3.219   2.854   3.759
10283TIP3   OH230791   6.788   3.437   3.823
10283TIP3    H130792   6.716   3.408   3.878
10283TIP3    H230793   6.747   3.491   3.756
10284TIP3   OH230794   7.248   2.340   5.903
10284TIP3    H130795   7.248   2.424   5.950
10284TIP3    H230796   7.156   2.315   5.899
10285TIP3   OH230797   4.576   5.306   0.980
10285TIP3    H130798   4.487   5.273   0.970
10285TIP3    H230799   4.606   5.267   1.063
10286TIP3   OH230800   0.348   2.795   6.590
10286TIP3    H130801   0.285   2.862   6.617
10286TIP3    H230802   0.300   2.713   6.601
10287TIP3   OH230803   1.863   1.658   2.114
10287TIP3    H130804   1.871   1.718   2.040
10287TIP3    H230805   1.820   1.581   2.077
10288TIP3   OH230806   7.400   7.603   4.881
10288TIP3    H130807   7.433   7.560   4.960
10288TIP3    H230808   7.451   7.684   4.875
10289TIP3   OH230809   4.230   0.643   0.466
10289TIP3    H130810   4.146   0.660   0.423
10289TIP3    H230811   4.296   0.670   0.402
10290TIP3   OH230812   6.509   5.599   1.659
10290TIP3    H130813   6.555   5.550   1.591
10290TIP3    H230814   6.419   5.568   1.655
10291TIP3   OH230815   2.832   4.971   0.116
10291TIP3    H130816   2.860   5.039   0.178
10291TIP3    H230817   2.819   4.893   0.170
10292TIP3   OH230818   0.348   2.070   5.056
10292TIP3    H130819   0.357   2.135   5.126
10292TIP3    H230820   0.255   2.072   5.033
10293TIP3   OH230821   5.320   5.251   4.898
10293TIP3    H130822   5.331   5.167   4.943
10293TIP3    H230823   5.296   5.312   4.968
10294TIP3   OH230824   8.002   6.087   3.394
10294TIP3    H130825   8.061   6.134   3.453
10294TIP3    H230826   8.004   6.137   3.312
10295TIP3   OH230827   6.733   3.274   3.302
10295TIP3    H130828   6.685   3.344   3.258
10295TIP3    H230829   6.824   3.303   3.302
10296TIP3   OH230830   0.288   2.295   0.260
10296TIP3    H130831   0.312   2.206   0.288
10296TIP3    H230832   0.346   2.314   0.187
10297TIP3   OH230833   0.395   0.317   1.378
10297TIP3    H130834   0.332   0.246   1.389
10297TIP3    H230835   0.361   0.370   1.306
10298TIP3   OH230836   1.065   6.112   3.067
10298TIP3    H130837   1.157   6.129   3.086
10298TIP3    H230838   1.050   6.151   2.981
10299TIP3   OH230839   0.303   2.401   1.800
10299TIP3    H130840   0.261   2.401   1.886
10299TIP3    H230841   0.232   2.422   1.739
10300TIP3   OH230842   3.998   4.167   3.939
10300TIP3    H130843   3.915   4.149   3.984
10300TIP3    H230844   4.065   4.139   4.001
10301TIP3   OH230845   4.226   2.287   1.399
10301TIP3    H130846   4.222   2.244   1.485
10301TIP3    H230847   4.267   2.222   1.342
10302TIP3   OH230848   6.632   4.039   3.564
10302TIP3    H130849   6.612   4.021   3.472
10302TIP3    H230850   6.557   4.090   3.595
10303TIP3   OH230851   0.699   2.165   5.367
10303TIP3    H130852   0.664   2.095   5.422
10303TIP3    H230853   0.731   2.231   5.429
10304TIP3   OH230854   1.342   4.510   3.115
10304TIP3    H130855   1.316   4.548   3.199
10304TIP3    H230856   1.290   4.430   3.108
10305TIP3   OH230857   1.134   5.177   0.029
10305TIP3    H130858   1.154   5.086   0.005
10305TIP3    H230859   1.184   5.192   0.109
10306TIP3   OH230860   4.525   0.545   3.486
10306TIP3    H130861   4.579   0.623   3.493
10306TIP3    H230862   4.483   0.551   3.400
10307TIP3   OH230863   6.696   0.926   1.391
10307TIP3    H130864   6.676   1.019   1.377
10307TIP3    H230865   6.759   0.926   1.462
10308TIP3   OH230866   5.363   6.872   1.806
10308TIP3    H130867   5.342   6.847   1.896
10308TIP3    H230868   5.285   6.846   1.755
10309TIP3   OH230869   2.347   3.449   5.955
10309TIP3    H130870   2.435   3.435   5.920
10309TIP3    H230871   2.298   3.485   5.881
10310TIP3   OH230872   7.290   4.037   5.028
10310TIP3    H130873   7.241   3.977   5.084
10310TIP3    H230874   7.274   4.005   4.939
10311TIP3   OH230875   7.714   1.596   2.891
10311TIP3    H130876   7.636   1.579   2.838
10311TIP3    H230877   7.779   1.534   2.858
10312TIP3   OH230878   3.338   2.245   1.055
10312TIP3    H130879   3.268   2.310   1.053
10312TIP3    H230880   3.419   2.296   1.060
10313TIP3   OH230881   5.958   4.302   4.450
10313TIP3    H130882   5.897   4.290   4.378
10313TIP3    H230883   5.903   4.307   4.528
10314TIP3   OH230884   1.923   1.512   0.725
10314TIP3    H130885   1.875   1.543   0.648
10314TIP3    H230886   1.904   1.419   0.730
10315TIP3   OH230887   2.229   1.901   3.657
10315TIP3    H130888   2.308   1.954   3.662
10315TIP3    H230889   2.205   1.885   3.748
10316TIP3   OH230890   2.629   0.351   3.670
10316TIP3    H130891   2.537   0.364   3.695
10316TIP3    H230892   2.668   0.438   3.678
10317TIP3   OH230893   2.394   5.512   3.537
10317TIP3    H130894   2.453   5.493   3.609
10317TIP3    H230895   2.326   5.445   3.543
10318TIP3   OH230896   6.091   0.711   1.312
10318TIP3    H130897   6.153   0.640   1.329
10318TIP3    H230898   6.138   0.790   1.337
10319TIP3   OH230899   4.331   3.144   1.357
10319TIP3    H130900   4.279   3.064   1.357
10319TIP3    H230901   4.372   3.146   1.270
10320TIP3   OH230902   0.812   0.128   3.398
10320TIP3    H130903   0.783   0.052   3.348
10320TIP3    H230904   0.907   0.124   3.394
10321TIP3   OH230905   4.517   1.597   1.916
10321TIP3    H130906   4.530   1.542   1.839
10321TIP3    H230907   4.425   1.623   1.912
10322TIP3   OH230908   5.743   3.660   5.104
10322TIP3    H130909   5.765   3.622   5.189
10322TIP3    H230910   5.649   3.643   5.095
10323TIP3   OH230911   2.921   5.033   0.872
10323TIP3    H130912   2.938   5.076   0.788
10323TIP3    H230913   2.972   5.082   0.936
10324TIP3   OH230914   0.338   0.135   4.717
10324TIP3    H130915   0.423   0.128   4.673
10324TIP3    H230916   0.276   0.150   4.645
10325TIP3   OH230917   3.476   0.687   4.001
10325TIP3    H130918   3.478   0.758   4.065
10325TIP3    H230919   3.395   0.701   3.953
10326TIP3   OH230920   3.000   2.449   0.097
10326TIP3    H130921   2.959   2.482   0.176
10326TIP3    H230922   2.967   2.359   0.089
10327TIP3   OH230923   6.022   5.266   6.017
10327TIP3    H130924   6.051   5.237   5.931
10327TIP3    H230925   5.927   5.256   6.015
10328TIP3   OH230926   2.430   0.598   3.053
10328TIP3    H130927   2.482   0.618   2.975
10328TIP3    H230928   2.406   0.506   3.043
10329TIP3   OH230929   7.635   7.406   5.313
10329TIP3    H130930   7.730   7.399   5.316
10329TIP3    H230931   7.604   7.316   5.306
10330TIP3   OH230932   0.456   2.670   4.918
10330TIP3    H130933   0.447   2.743   4.979
10330TIP3    H230934   0.400   2.601   4.953
10331TIP3   OH230935   1.406   1.450   1.634
10331TIP3    H130936   1.316   1.424   1.616
10331TIP3    H230937   1.458   1.374   1.609
10332TIP3   OH230938   1.578   0.689   2.884
10332TIP3    H130939   1.579   0.600   2.850
10332TIP3    H230940   1.664   0.700   2.926
10333TIP3   OH230941   2.346   3.462   0.793
10333TIP3    H130942   2.353   3.556   0.781
10333TIP3    H230943   2.385   3.446   0.879
10334TIP3   OH230944   3.856   5.960   5.029
10334TIP3    H130945   3.885   5.965   5.120
10334TIP3    H230946   3.767   5.996   5.030
10335TIP3   OH230947   2.291   5.690   0.911
10335TIP3    H130948   2.232   5.756   0.948
10335TIP3    H230949   2.303   5.627   0.983
10336TIP3   OH230950   3.082   2.719   3.762
10336TIP3    H130951   3.038   2.757   3.686
10336TIP3    H230952   3.055   2.627   3.762
10337TIP3   OH230953   3.666   3.883   2.111
10337TIP3    H130954   3.719   3.867   2.190
10337TIP3    H230955   3.724   3.934   2.054
10338TIP3   OH230956   3.090   0.451   5.776
10338TIP3    H130957   3.148   0.376   5.778
10338TIP3    H230958   3.013   0.421   5.728
10339TIP3   OH230959   5.700   6.670   6.627
10339TIP3    H130960   5.730   6.655   6.538
10339TIP3    H230961   5.765   6.731   6.664
10340TIP3   OH230962   2.490   0.267  -0.004
10340TIP3    H130963   2.406   0.222  -0.002
10340TIP3    H230964   2.480   0.339   0.057
10341TIP3   OH230965   7.314   3.998   5.928
10341TIP3    H130966   7.393   4.006   5.981
10341TIP3    H230967   7.291   3.905   5.931
10342TIP3   OH230968   2.250   2.994   3.481
10342TIP3    H130969   2.261   2.910   3.526
10342TIP3    H230970   2.158   2.994   3.453
10343TIP3   OH230971   3.513   4.853   4.447
10343TIP3    H130972   3.596   4.821   4.410
10343TIP3    H230973   3.521   4.948   4.445
10344TIP3   OH230974   8.152   2.088   0.676
10344TIP3    H130975   8.126   2.047   0.594
10344TIP3    H230976   8.215   2.027   0.714
10345TIP3   OH230977   3.276  -0.004   4.273
10345TIP3    H130978   3.324  -0.020   4.192
10345TIP3    H230979   3.322   0.068   4.315
10346TIP3   OH230980   3.937   3.353   4.721
10346TIP3    H130981   3.853   3.310   4.705
10346TIP3    H230982   3.914   3.444   4.741
10347TIP3   OH230983   7.212   2.409   3.979
10347TIP3    H130984   7.283   2.354   4.015
10347TIP3    H230985   7.144   2.407   4.047
10348TIP3   OH230986   5.163   5.357   1.414
10348TIP3    H130987   5.152   5.452   1.406
10348TIP3    H230988   5.201   5.345   1.500
10349TIP3   OH230989   1.413   2.972   0.333
10349TIP3    H130990   1.336   3.014   0.294
10349TIP3    H230991   1.481   2.979   0.266
10350TIP3   OH230992   7.274   7.453   6.015
10350TIP3    H130993   7.187   7.487   6.032
10350TIP3    H230994   7.322   7.468   6.096
10351TIP3   OH230995   0.530   3.476   2.431
10351TIP3    H130996   0.487   3.525   2.501
10351TIP3    H230997   0.466   3.411   2.404
10352TIP3   OH230998   1.583   3.091   5.716
10352TIP3    H130999   1.536   3.043   5.785
10352TIP3    H231000   1.561   3.045   5.635
10353TIP3   OH231001   4.934   3.601   3.057
10353TIP3    H131002   4.919   3.695   3.067
10353TIP3    H231003   4.994   3.594   2.982
10354TIP3   OH231004   5.139   2.155   0.344
10354TIP3    H131005   5.123   2.211   0.269
10354TIP3    H231006   5.052   2.133   0.377
10355TIP3   OH231007   4.200   0.417   4.494
10355TIP3    H131008   4.174   0.327   4.472
10355TIP3    H231009   4.202   0.463   4.410
10356TIP3   OH231010   2.262   5.544   4.135
10356TIP3    H131011   2.282   5.463   4.183
10356TIP3    H231012   2.171   5.562   4.157
10357TIP3   OH231013   3.423   0.986   5.684
10357TIP3    H131014   3.392   1.036   5.609
10357TIP3    H231015   3.477   0.916   5.647
10358TIP3   OH231016   4.603   5.695   2.119
10358TIP3    H131017   4.592   5.681   2.025
10358TIP3    H231018   4.654   5.775   2.126
10359TIP3   OH231019   7.984   6.500   0.931
10359TIP3    H131020   7.910   6.459   0.885
10359TIP3    H231021   7.991   6.587   0.892
10360TIP3   OH231022   0.150   6.403   2.144
10360TIP3    H131023   0.100   6.484   2.143
10360TIP3    H231024   0.241   6.431   2.134
10361TIP3   OH231025   7.439   1.050   4.507
10361TIP3    H131026   7.489   0.992   4.449
10361TIP3    H231027   7.392   1.108   4.448
10362TIP3   OH231028   7.725   6.089   6.234
10362TIP3    H131029   7.770   6.031   6.296
10362TIP3    H231030   7.662   6.137   6.289
10363TIP3   OH231031   0.863   4.851   5.960
10363TIP3    H131032   0.789   4.804   5.920
10363TIP3    H231033   0.930   4.785   5.972
10364TIP3   OH231034   2.652   1.437   5.789
10364TIP3    H131035   2.692   1.428   5.702
10364TIP3    H231036   2.643   1.348   5.821
10365TIP3   OH231037   6.897   5.663   0.023
10365TIP3    H131038   6.830   5.650   0.090
10365TIP3    H231039   6.901   5.579  -0.023
10366TIP3   OH231040   3.150   0.604   2.803
10366TIP3    H131041   3.207   0.537   2.766
10366TIP3    H231042   3.149   0.673   2.737
10367TIP3   OH231043   3.413   3.600   4.127
10367TIP3    H131044   3.340   3.623   4.185
10367TIP3    H231045   3.486   3.653   4.158
10368TIP3   OH231046   4.992   4.442   3.933
10368TIP3    H131047   5.005   4.476   3.845
10368TIP3    H231048   4.900   4.414   3.936
10369TIP3   OH231049   2.755   6.834   3.084
10369TIP3    H131050   2.717   6.748   3.070
10369TIP3    H231051   2.777   6.866   2.996
10370TIP3   OH231052   2.033   5.131   6.406
10370TIP3    H131053   2.015   5.043   6.438
10370TIP3    H231054   2.006   5.130   6.315
10371TIP3   OH231055   3.445   6.065   6.011
10371TIP3    H131056   3.422   6.066   5.918
10371TIP3    H231057   3.408   6.146   6.046
10372TIP3   OH231058   2.752   7.674   4.054
10372TIP3    H131059   2.717   7.587   4.035
10372TIP3    H231060   2.675   7.729   4.066
10373TIP3   OH231061   0.378   0.931   1.432
10373TIP3    H131062   0.450   0.979   1.472
10373TIP3    H231063   0.350   0.985   1.358
10374TIP3   OH231064   1.393   6.148   0.558
10374TIP3    H131065   1.454   6.078   0.581
10374TIP3    H231066   1.382   6.140   0.463
10375TIP3   OH231067   5.546   6.322   5.882
10375TIP3    H131068   5.619   6.336   5.942
10375TIP3    H231069   5.567   6.378   5.807
10376TIP3   OH231070   5.697   3.417   3.633
10376TIP3    H131071   5.695   3.411   3.538
10376TIP3    H231072   5.765   3.483   3.651
10377TIP3   OH231073   4.787   7.299   6.529
10377TIP3    H131074   4.701   7.337   6.548
10377TIP3    H231075   4.840   7.372   6.499
10378TIP3   OH231076   0.762   2.764   4.569
10378TIP3    H131077   0.810   2.683   4.548
10378TIP3    H231078   0.676   2.752   4.530
10379TIP3   OH231079   3.564   4.780   5.061
10379TIP3    H131080   3.657   4.786   5.082
10379TIP3    H231081   3.556   4.824   4.977
10380TIP3   OH231082   3.337   5.669   1.430
10380TIP3    H131083   3.357   5.720   1.351
10380TIP3    H231084   3.283   5.596   1.398
10381TIP3   OH231085   6.788   6.233   1.766
10381TIP3    H131086   6.766   6.244   1.859
10381TIP3    H231087   6.876   6.271   1.758
10382TIP3   OH231088   1.103   6.102   0.136
10382TIP3    H131089   1.108   6.006   0.134
10382TIP3    H231090   1.189   6.129   0.169
10383TIP3   OH231091   4.292   5.416   2.859
10383TIP3    H131092   4.291   5.394   2.766
10383TIP3    H231093   4.264   5.507   2.863
10384TIP3   OH231094   5.352   5.687   6.724
10384TIP3    H131095   5.294   5.615   6.751
10384TIP3    H231096   5.310   5.766   6.758
10385TIP3   OH231097   4.735   7.783   3.253
10385TIP3    H131098   4.683   7.738   3.319
10385TIP3    H231099   4.808   7.723   3.235
10386TIP3   OH231100   6.007   7.400   3.089
10386TIP3    H131101   6.026   7.417   3.181
10386TIP3    H231102   5.928   7.346   3.090
10387TIP3   OH231103   6.371   7.302   3.251
10387TIP3    H131104   6.351   7.222   3.299
10387TIP3    H231105   6.330   7.290   3.166
10388TIP3   OH231106   4.873   7.700   3.871
10388TIP3    H131107   4.795   7.707   3.926
10388TIP3    H231108   4.865   7.614   3.828
10389TIP3   OH231109   7.524   1.331   4.212
10389TIP3    H131110   7.441   1.325   4.260
10389TIP3    H231111   7.544   1.240   4.187
10390TIP3   OH231112   2.052   7.481   4.553
10390TIP3    H131113   1.981   7.475   4.489
10390TIP3    H231114   2.099   7.398   4.543
10391TIP3   OH231115   1.232   6.750   4.072
10391TIP3    H131116   1.167   6.704   4.125
10391TIP3    H231117   1.247   6.692   3.997
10392TIP3   OH231118   8.007   4.855   1.678
10392TIP3    H131119   7.973   4.766   1.690
10392TIP3    H231120   7.942   4.911   1.720
10393TIP3   OH231121   7.284   6.525   3.987
10393TIP3    H131122   7.358   6.585   3.977
10393TIP3    H231123   7.321   6.439   3.969
10394TIP3   OH231124   2.762   4.688   3.785
10394TIP3    H131125   2.755   4.779   3.756
10394TIP3    H231126   2.673   4.654   3.777
10395TIP3   OH231127   3.335   2.458   2.990
10395TIP3    H131128   3.350   2.506   2.909
10395TIP3    H231129   3.240   2.446   2.994
10396TIP3   OH231130   5.943   2.993   5.506
10396TIP3    H131131   5.891   2.957   5.434
10396TIP3    H231132   5.971   2.916   5.556
10397TIP3   OH231133   4.010   0.209   1.573
10397TIP3    H131134   4.096   0.245   1.595
10397TIP3    H231135   4.005   0.127   1.621
10398TIP3   OH231136   7.948   1.930   4.396
10398TIP3    H131137   8.043   1.917   4.404
10398TIP3    H231138   7.926   1.990   4.467
10399TIP3   OH231139   3.443   2.577   3.865
10399TIP3    H131140   3.411   2.607   3.780
10399TIP3    H231141   3.494   2.499   3.845
10400TIP3   OH231142   1.322   1.231   1.286
10400TIP3    H131143   1.339   1.137   1.284
10400TIP3    H231144   1.227   1.238   1.298
10401TIP3   OH231145   4.218   3.950   4.077
10401TIP3    H131146   4.231   3.872   4.131
10401TIP3    H231147   4.226   3.918   3.987
10402TIP3   OH231148   2.696   2.198   2.534
10402TIP3    H131149   2.674   2.134   2.602
10402TIP3    H231150   2.613   2.210   2.487
10403TIP3   OH231151   0.696   7.409   5.330
10403TIP3    H131152   0.694   7.419   5.235
10403TIP3    H231153   0.604   7.404   5.355
10404TIP3   OH231154   1.661   7.519   1.114
10404TIP3    H131155   1.702   7.605   1.120
10404TIP3    H231156   1.624   7.504   1.201
10405TIP3   OH231157   5.137   5.501   2.863
10405TIP3    H131158   5.069   5.556   2.823
10405TIP3    H231159   5.217   5.524   2.817
10406TIP3   OH231160   7.092   2.841   0.182
10406TIP3    H131161   7.105   2.797   0.265
10406TIP3    H231162   7.176   2.882   0.162
10407TIP3   OH231163   2.259   1.760   6.011
10407TIP3    H131164   2.168   1.762   5.982
10407TIP3    H231165   2.294   1.846   5.987
10408TIP3   OH231166   3.459   5.115   0.734
10408TIP3    H131167   3.431   5.027   0.758
10408TIP3    H231168   3.520   5.102   0.662
10409TIP3   OH231169   6.039   6.833   5.386
10409TIP3    H131170   6.096   6.837   5.462
10409TIP3    H231171   6.095   6.860   5.313
10410TIP3   OH231172   4.654   5.401   2.916
10410TIP3    H131173   4.653   5.318   2.869
10410TIP3    H231174   4.625   5.466   2.852
10411TIP3   OH231175   5.816   5.768   6.340
10411TIP3    H131176   5.849   5.824   6.270
10411TIP3    H231177   5.889   5.711   6.363
10412TIP3   OH231178   5.011   0.173   4.465
10412TIP3    H131179   5.051   0.180   4.378
10412TIP3    H231180   4.987   0.081   4.474
10413TIP3   OH231181   6.729   4.298   4.804
10413TIP3    H131182   6.803   4.239   4.791
10413TIP3    H231183   6.713   4.336   4.718
10414TIP3   OH231184   7.333   5.487   4.282
10414TIP3    H131185   7.247   5.448   4.264
10414TIP3    H231186   7.365   5.516   4.197
10415TIP3   OH231187   4.805   1.877   6.474
10415TIP3    H131188   4.742   1.859   6.404
10415TIP3    H231189   4.878   1.920   6.430
10416TIP3   OH231190   3.840   1.752   2.382
10416TIP3    H131191   3.933   1.751   2.405
10416TIP3    H231192   3.830   1.679   2.321
10417TIP3   OH231193   1.359   2.275   6.403
10417TIP3    H131194   1.385   2.188   6.432
10417TIP3    H231195   1.291   2.302   6.464
10418TIP3   OH231196   6.098   4.225   0.210
10418TIP3    H131197   6.062   4.137   0.199
10418TIP3    H231198   6.164   4.234   0.142
10419TIP3   OH231199   5.369   2.426   1.971
10419TIP3    H131200   5.387   2.379   2.052
10419TIP3    H231201   5.312   2.499   1.997
10420TIP3   OH231202   7.175   2.815   2.535
10420TIP3    H131203   7.093   2.786   2.493
10420TIP3    H231204   7.198   2.743   2.594
10421TIP3   OH231205   6.466   7.277   0.751
10421TIP3    H131206   6.560   7.282   0.766
10421TIP3    H231207   6.454   7.313   0.663
10422TIP3   OH231208   4.630   1.053   2.839
10422TIP3    H131209   4.554   1.095   2.881
10422TIP3    H231210   4.599   0.966   2.815
10423TIP3   OH231211   7.421   3.180   6.615
10423TIP3    H131212   7.414   3.220   6.702
10423TIP3    H231213   7.505   3.212   6.581
10424TIP3   OH231214   4.271   7.788   6.183
10424TIP3    H131215   4.247   7.784   6.276
10424TIP3    H231216   4.294   7.880   6.169
10425TIP3   OH231217   3.933   7.195   6.209
10425TIP3    H131218   3.993   7.121   6.202
10425TIP3    H231219   3.853   7.158   6.246
10426TIP3   OH231220   1.234   2.510   0.342
10426TIP3    H131221   1.191   2.510   0.257
10426TIP3    H231222   1.254   2.602   0.359
10427TIP3   OH231223   7.210   1.832   4.323
10427TIP3    H131224   7.282   1.771   4.305
10427TIP3    H231225   7.144   1.778   4.367
10428TIP3   OH231226   3.763   7.302   4.130
10428TIP3    H131227   3.794   7.263   4.212
10428TIP3    H231228   3.799   7.246   4.062
10429TIP3   OH231229   7.700   0.767   2.629
10429TIP3    H131230   7.683   0.678   2.659
10429TIP3    H231231   7.642   0.822   2.683
10430TIP3   OH231232   2.125   5.877   0.999
10430TIP3    H131233   2.078   5.887   1.082
10430TIP3    H231234   2.144   5.966   0.971
10431TIP3   OH231235   2.765   6.869   1.857
10431TIP3    H131236   2.677   6.837   1.878
10431TIP3    H231237   2.752   6.927   1.782
10432TIP3   OH231238   4.402   1.860   2.931
10432TIP3    H131239   4.362   1.818   3.007
10432TIP3    H231240   4.441   1.788   2.881
10433TIP3   OH231241   3.964   5.888   6.611
10433TIP3    H131242   3.886   5.923   6.567
10433TIP3    H231243   4.028   5.875   6.541
10434TIP3   OH231244   4.147   1.659   2.774
10434TIP3    H131245   4.175   1.697   2.857
10434TIP3    H231246   4.109   1.574   2.798
10435TIP3   OH231247   1.838   2.432   4.864
10435TIP3    H131248   1.867   2.341   4.871
10435TIP3    H231249   1.755   2.434   4.911
10436TIP3   OH231250   5.756   6.982   5.751
10436TIP3    H131251   5.848   6.961   5.766
10436TIP3    H231252   5.728   7.027   5.831
10437TIP3   OH231253   1.295   2.306   3.835
10437TIP3    H131254   1.264   2.279   3.922
10437TIP3    H231255   1.243   2.383   3.814
10438TIP3   OH231256   5.459   4.154   4.621
10438TIP3    H131257   5.435   4.080   4.565
10438TIP3    H231258   5.452   4.231   4.565
10439TIP3   OH231259   1.057   7.257   4.894
10439TIP3    H131260   1.128   7.305   4.852
10439TIP3    H231261   1.005   7.222   4.821
10440TIP3   OH231262   1.551   6.657   5.946
10440TIP3    H131263   1.638   6.622   5.967
10440TIP3    H231264   1.508   6.587   5.896
10441TIP3   OH231265   0.679   4.476   6.617
10441TIP3    H131266   0.734   4.415   6.569
10441TIP3    H231267   0.603   4.425   6.643
10442TIP3   OH231268   1.081   3.910   4.006
10442TIP3    H131269   1.101   3.955   3.924
10442TIP3    H231270   1.167   3.898   4.048
10443TIP3   OH231271   7.130   2.237   5.029
10443TIP3    H131272   7.043   2.276   5.029
10443TIP3    H231273   7.179   2.287   5.094
10444TIP3   OH231274   0.690   4.696   5.563
10444TIP3    H131275   0.783   4.712   5.548
10444TIP3    H231276   0.650   4.708   5.476
10445TIP3   OH231277   3.386   4.959   1.814
10445TIP3    H131278   3.424   4.871   1.818
10445TIP3    H231279   3.462   5.017   1.801
10446TIP3   OH231280   1.684   7.296   2.663
10446TIP3    H131281   1.606   7.343   2.635
10446TIP3    H231282   1.744   7.365   2.693
10447TIP3   OH231283   5.478   2.687   1.164
10447TIP3    H131284   5.562   2.667   1.123
10447TIP3    H231285   5.430   2.605   1.162
10448TIP3   OH231286   2.620   1.317   0.395
10448TIP3    H131287   2.670   1.344   0.472
10448TIP3    H231288   2.608   1.223   0.405
10449TIP3   OH231289   6.434   3.754   4.440
10449TIP3    H131290   6.356   3.797   4.473
10449TIP3    H231291   6.408   3.662   4.429
10450TIP3   OH231292   2.399   0.687   4.373
10450TIP3    H131293   2.461   0.711   4.441
10450TIP3    H231294   2.454   0.672   4.295
10451TIP3   OH231295   0.734   1.486   2.507
10451TIP3    H131296   0.658   1.530   2.545
10451TIP3    H231297   0.723   1.394   2.530
10452TIP3   OH231298   1.709   7.401   5.188
10452TIP3    H131299   1.746   7.317   5.215
10452TIP3    H231300   1.783   7.449   5.150
10453TIP3   OH231301   3.731   7.616   3.375
10453TIP3    H131302   3.762   7.610   3.285
10453TIP3    H231303   3.703   7.528   3.398
10454TIP3   OH231304   0.871   2.144   0.795
10454TIP3    H131305   0.934   2.153   0.867
10454TIP3    H231306   0.787   2.127   0.839
10455TIP3   OH231307   2.862   7.430   0.658
10455TIP3    H131308   2.877   7.413   0.751
10455TIP3    H231309   2.769   7.408   0.645
10456TIP3   OH231310   3.224   5.045   4.362
10456TIP3    H131311   3.282   5.069   4.290
10456TIP3    H231312   3.271   4.976   4.409
10457TIP3   OH231313   6.019   7.553   1.207
10457TIP3    H131314   6.035   7.594   1.122
10457TIP3    H231315   5.938   7.593   1.238
10458TIP3   OH231316   1.991   2.981   3.443
10458TIP3    H131317   1.973   3.046   3.375
10458TIP3    H231318   1.905   2.956   3.476
10459TIP3   OH231319   2.170   7.168   5.271
10459TIP3    H131320   2.157   7.105   5.342
10459TIP3    H231321   2.233   7.231   5.306
10460TIP3   OH231322   8.164   1.105   3.634
10460TIP3    H131323   8.226   1.037   3.662
10460TIP3    H231324   8.079   1.071   3.660
10461TIP3   OH231325   3.828   3.966   0.411
10461TIP3    H131326   3.880   3.969   0.331
10461TIP3    H231327   3.800   4.056   0.425
10462TIP3   OH231328   6.534   1.222   4.678
10462TIP3    H131329   6.530   1.264   4.592
10462TIP3    H231330   6.446   1.186   4.690
10463TIP3   OH231331   5.851   6.905   5.165
10463TIP3    H131332   5.833   6.999   5.160
10463TIP3    H231333   5.767   6.863   5.150
10464TIP3   OH231334   5.312   4.133   0.787
10464TIP3    H131335   5.267   4.179   0.716
10464TIP3    H231336   5.371   4.072   0.742
10465TIP3   OH231337   0.873   2.738   2.618
10465TIP3    H131338   0.935   2.797   2.576
10465TIP3    H231339   0.828   2.695   2.546
10466TIP3   OH231340   4.923   3.464   2.673
10466TIP3    H131341   4.970   3.385   2.697
10466TIP3    H231342   4.977   3.536   2.706
10467TIP3   OH231343   8.255   1.227   0.614
10467TIP3    H131344   8.186   1.292   0.605
10467TIP3    H231345   8.312   1.241   0.539
10468TIP3   OH231346   5.148   2.590   2.319
10468TIP3    H131347   5.229   2.632   2.290
10468TIP3    H231348   5.159   2.580   2.413
10469TIP3   OH231349   5.734   6.381   6.065
10469TIP3    H131350   5.771   6.295   6.086
10469TIP3    H231351   5.811   6.437   6.051
10470TIP3   OH231352   3.818   3.416   0.183
10470TIP3    H131353   3.890   3.362   0.151
10470TIP3    H231354   3.826   3.498   0.135
10471TIP3   OH231355   4.733   4.759   1.514
10471TIP3    H131356   4.743   4.847   1.551
10471TIP3    H231357   4.810   4.748   1.458
10472TIP3   OH231358   1.527   5.755   2.675
10472TIP3    H131359   1.555   5.692   2.609
10472TIP3    H231360   1.446   5.718   2.711
10473TIP3   OH231361   0.640   4.784   4.415
10473TIP3    H131362   0.731   4.777   4.385
10473TIP3    H231363   0.640   4.862   4.471
10474TIP3   OH231364   6.407   4.089   5.446
10474TIP3    H131365   6.468   4.018   5.468
10474TIP3    H231366   6.382   4.126   5.531
10475TIP3   OH231367   3.844   0.780   1.561
10475TIP3    H131368   3.897   0.701   1.569
10475TIP3    H231369   3.807   0.775   1.472
10476TIP3   OH231370   7.191   2.968   0.475
10476TIP3    H131371   7.210   3.062   0.470
10476TIP3    H231372   7.262   2.926   0.426
10477TIP3   OH231373   3.424   2.705   1.344
10477TIP3    H131374   3.446   2.689   1.436
10477TIP3    H231375   3.463   2.790   1.325
10478TIP3   OH231376   6.366   2.354   2.835
10478TIP3    H131377   6.348   2.370   2.742
10478TIP3    H231378   6.350   2.260   2.847
10479TIP3   OH231379   1.484   4.241   2.190
10479TIP3    H131380   1.432   4.184   2.134
10479TIP3    H231381   1.420   4.293   2.237
10480TIP3   OH231382   3.398   5.221   3.237
10480TIP3    H131383   3.453   5.180   3.170
10480TIP3    H231384   3.356   5.148   3.282
10481TIP3   OH231385   0.963   7.273   3.475
10481TIP3    H131386   0.993   7.275   3.383
10481TIP3    H231387   1.044   7.271   3.526
10482TIP3   OH231388   8.092   2.875   0.911
10482TIP3    H131389   8.033   2.802   0.930
10482TIP3    H231390   8.038   2.953   0.921
10483TIP3   OH231391   7.620   3.270   6.369
10483TIP3    H131392   7.669   3.345   6.336
10483TIP3    H231393   7.675   3.235   6.440
10484TIP3   OH231394   0.517   0.552   0.167
10484TIP3    H131395   0.478   0.538   0.081
10484TIP3    H231396   0.569   0.632   0.157
10485TIP3   OH231397   8.074   7.667   0.189
10485TIP3    H131398   8.077   7.579   0.150
10485TIP3    H231399   8.165   7.695   0.191
10486TIP3   OH231400   7.680   5.459   6.209
10486TIP3    H131401   7.607   5.469   6.270
10486TIP3    H231402   7.706   5.548   6.187
10487TIP3   OH231403   0.099   4.076   1.706
10487TIP3    H131404   0.143   4.003   1.751
10487TIP3    H231405   0.137   4.155   1.745
10488TIP3   OH231406   4.448   6.200   4.531
10488TIP3    H131407   4.384   6.269   4.515
10488TIP3    H231408   4.526   6.246   4.564
10489TIP3   OH231409   4.585   7.433   3.792
10489TIP3    H131410   4.546   7.350   3.766
10489TIP3    H231411   4.631   7.414   3.873
10490TIP3   OH231412   5.267   5.027   2.872
10490TIP3    H131413   5.215   5.021   2.792
10490TIP3    H231414   5.328   4.954   2.868
10491TIP3   OH231415   3.664   6.864   5.736
10491TIP3    H131416   3.692   6.833   5.650
10491TIP3    H231417   3.647   6.958   5.724
10492TIP3   OH231418   1.535   2.189   2.658
10492TIP3    H131419   1.555   2.267   2.709
10492TIP3    H231420   1.554   2.116   2.717
10493TIP3   OH231421   4.128   5.411   0.103
10493TIP3    H131422   4.036   5.435   0.116
10493TIP3    H231423   4.137   5.326   0.146
10494TIP3   OH231424   6.846   7.355   2.450
10494TIP3    H131425   6.928   7.305   2.446
10494TIP3    H231426   6.828   7.381   2.360
10495TIP3   OH231427   7.842   6.741   5.184
10495TIP3    H131428   7.824   6.817   5.239
10495TIP3    H231429   7.790   6.670   5.222
10496TIP3   OH231430   6.378   0.281   4.310
10496TIP3    H131431   6.397   0.195   4.348
10496TIP3    H231432   6.444   0.339   4.348
10497TIP3   OH231433   6.768   6.311   5.068
10497TIP3    H131434   6.732   6.226   5.042
10497TIP3    H231435   6.862   6.295   5.079
10498TIP3   OH231436   6.373   5.843   5.742
10498TIP3    H131437   6.452   5.895   5.725
10498TIP3    H231438   6.311   5.905   5.781
10499TIP3   OH231439   3.545   6.927   0.306
10499TIP3    H131440   3.621   6.957   0.356
10499TIP3    H231441   3.539   6.989   0.233
10500TIP3   OH231442   7.593   6.042   1.231
10500TIP3    H131443   7.508   6.055   1.271
10500TIP3    H231444   7.648   6.009   1.302
10501TIP3   OH231445   5.802   2.528   3.295
10501TIP3    H131446   5.871   2.480   3.249
10501TIP3    H231447   5.786   2.477   3.374
10502TIP3   OH231448   0.888   1.065   6.671
10502TIP3    H131449   0.802   1.073   6.630
10502TIP3    H231450   0.950   1.079   6.600
10503TIP3   OH231451   4.878   5.341   4.685
10503TIP3    H131452   4.944   5.273   4.680
10503TIP3    H231453   4.912   5.403   4.750
10504TIP3   OH231454   2.252   1.630   3.708
10504TIP3    H131455   2.233   1.723   3.695
10504TIP3    H231456   2.344   1.628   3.735
10505TIP3   OH231457   0.167   0.280   3.666
10505TIP3    H131458   0.252   0.239   3.685
10505TIP3    H231459   0.102   0.215   3.694
10506TIP3   OH231460   7.099   5.845   4.024
10506TIP3    H131461   7.149   5.765   4.041
10506TIP3    H231462   7.141   5.883   3.946
10507TIP3   OH231463   3.146   1.109   2.543
10507TIP3    H131464   3.082   1.101   2.614
10507TIP3    H231465   3.111   1.051   2.475
10508TIP3   OH231466   3.682   6.647   1.718
10508TIP3    H131467   3.602   6.621   1.764
10508TIP3    H231468   3.732   6.566   1.710
10509TIP3   OH231469   7.098   6.191   2.754
10509TIP3    H131470   7.016   6.152   2.724
10509TIP3    H231471   7.159   6.117   2.759
10510TIP3   OH231472   0.353   7.710   4.468
10510TIP3    H131473   0.404   7.728   4.390
10510TIP3    H231474   0.278   7.659   4.437
10511TIP3   OH231475   3.634   6.029   0.215
10511TIP3    H131476   3.652   6.025   0.121
10511TIP3    H231477   3.716   6.001   0.256
10512TIP3   OH231478   6.785   0.837   3.556
10512TIP3    H131479   6.841   0.766   3.586
10512TIP3    H231480   6.710   0.835   3.616
10513TIP3   OH231481   4.324   3.643   5.861
10513TIP3    H131482   4.240   3.619   5.821
10513TIP3    H231483   4.373   3.685   5.790
10514TIP3   OH231484   2.511   4.490   1.917
10514TIP3    H131485   2.473   4.402   1.928
10514TIP3    H231486   2.605   4.475   1.916
10515TIP3   OH231487   5.430   7.184   5.870
10515TIP3    H131488   5.458   7.203   5.780
10515TIP3    H231489   5.415   7.271   5.908
10516TIP3   OH231490   1.596   6.069   4.513
10516TIP3    H131491   1.518   6.088   4.462
10516TIP3    H231492   1.585   5.978   4.542
10517TIP3   OH231493   6.598   7.031   4.387
10517TIP3    H131494   6.651   7.024   4.308
10517TIP3    H231495   6.517   7.075   4.359
10518TIP3   OH231496   1.062   3.544   1.665
10518TIP3    H131497   0.993   3.606   1.687
10518TIP3    H231498   1.051   3.528   1.571
10519TIP3   OH231499   0.598   7.186   3.942
10519TIP3    H131500   0.665   7.174   3.873
10519TIP3    H231501   0.516   7.164   3.899
10520TIP3   OH231502   2.729   1.711   2.926
10520TIP3    H131503   2.658   1.768   2.896
10520TIP3    H231504   2.807   1.765   2.921
10521TIP3   OH231505   8.162   5.840   3.394
10521TIP3    H131506   8.216   5.902   3.444
10521TIP3    H231507   8.102   5.896   3.344
10522TIP3   OH231508   3.125   0.731   6.099
10522TIP3    H131509   3.112   0.814   6.145
10522TIP3    H231510   3.037   0.698   6.084
10523TIP3   OH231511   6.851   7.628   2.707
10523TIP3    H131512   6.913   7.570   2.751
10523TIP3    H231513   6.882   7.631   2.616
10524TIP3   OH231514   2.216   6.013   5.476
10524TIP3    H131515   2.286   5.964   5.432
10524TIP3    H231516   2.136   5.966   5.452
10525TIP3   OH231517   7.022   2.700   5.317
10525TIP3    H131518   7.051   2.706   5.227
10525TIP3    H231519   7.009   2.791   5.344
10526TIP3   OH231520   0.202   6.805   5.398
10526TIP3    H131521   0.180   6.732   5.456
10526TIP3    H231522   0.119   6.833   5.361
10527TIP3   OH231523   1.758   3.895   4.775
10527TIP3    H131524   1.807   3.935   4.703
10527TIP3    H231525   1.822   3.882   4.844
10528TIP3   OH231526   5.086   1.234   2.472
10528TIP3    H131527   5.015   1.185   2.513
10528TIP3    H231528   5.094   1.314   2.525
10529TIP3   OH231529   7.420   0.949   1.903
10529TIP3    H131530   7.437   0.997   1.823
10529TIP3    H231531   7.472   0.994   1.970
10530TIP3   OH231532   2.796   6.239   2.488
10530TIP3    H131533   2.846   6.320   2.476
10530TIP3    H231534   2.739   6.256   2.563
10531TIP3   OH231535   5.609   7.026   0.037
10531TIP3    H131536   5.578   7.113   0.011
10531TIP3    H231537   5.578   7.016   0.127
10532TIP3   OH231538   5.157   7.051   6.528
10532TIP3    H131539   5.116   7.006   6.601
10532TIP3    H231540   5.087   7.103   6.488
10533TIP3   OH231541   5.820   7.767   2.040
10533TIP3    H131542   5.846   7.742   2.129
10533TIP3    H231543   5.902   7.793   1.998
10534TIP3   OH231544   8.308   4.545   4.795
10534TIP3    H131545   8.286   4.613   4.732
10534TIP3    H231546   8.231   4.539   4.852
10535TIP3   OH231547   6.992   6.660   1.251
10535TIP3    H131548   6.925   6.629   1.190
10535TIP3    H231549   7.075   6.644   1.205
10536TIP3   OH231550   0.653   4.624   1.670
10536TIP3    H131551   0.687   4.541   1.703
10536TIP3    H231552   0.652   4.682   1.747
10537TIP3   OH231553   7.768   7.632   0.587
10537TIP3    H131554   7.701   7.635   0.654
10537TIP3    H231555   7.848   7.608   0.633
10538TIP3   OH231556   4.488   1.600   2.883
10538TIP3    H131557   4.426   1.544   2.930
10538TIP3    H231558   4.463   1.593   2.791
10539TIP3   OH231559   1.116   5.293   1.203
10539TIP3    H131560   1.107   5.248   1.286
10539TIP3    H231561   1.073   5.237   1.139
10540TIP3   OH231562   6.934   6.123   3.518
10540TIP3    H131563   6.890   6.080   3.445
10540TIP3    H231564   6.950   6.212   3.487
10541TIP3   OH231565   6.235   7.302   4.828
10541TIP3    H131566   6.306   7.365   4.843
10541TIP3    H231567   6.268   7.243   4.761
10542TIP3   OH231568   4.357   5.671   2.254
10542TIP3    H131569   4.379   5.752   2.300
10542TIP3    H231570   4.423   5.664   2.185
10543TIP3   OH231571   2.749   3.137   5.689
10543TIP3    H131572   2.708   3.164   5.607
10543TIP3    H231573   2.677   3.108   5.744
10544TIP3   OH231574   6.014   5.064   5.156
10544TIP3    H131575   5.930   5.078   5.111
10544TIP3    H231576   6.044   4.979   5.125
10545TIP3   OH231577   0.892   4.231   1.475
10545TIP3    H131578   0.982   4.240   1.444
10545TIP3    H231579   0.885   4.139   1.502
10546TIP3   OH231580   2.700   1.176   1.369
10546TIP3    H131581   2.645   1.245   1.406
10546TIP3    H231582   2.660   1.095   1.402
10547TIP3   OH231583   6.849   2.019   0.442
10547TIP3    H131584   6.861   2.052   0.353
10547TIP3    H231585   6.803   2.089   0.488
10548TIP3   OH231586   0.879   3.445   0.905
10548TIP3    H131587   0.942   3.378   0.879
10548TIP3    H231588   0.894   3.458   0.999
10549TIP3   OH231589   2.610   1.337   6.120
10549TIP3    H131590   2.644   1.272   6.181
10549TIP3    H231591   2.626   1.300   6.034
10550TIP3   OH231592   8.310   0.079   2.815
10550TIP3    H131593   8.278   0.100   2.727
10550TIP3    H231594   8.262   0.139   2.873
10551TIP3   OH231595   0.866   4.280   0.017
10551TIP3    H131596   0.798   4.311   0.076
10551TIP3    H231597   0.947   4.288   0.067
10552TIP3   OH231598   4.574   4.168   2.291
10552TIP3    H131599   4.569   4.090   2.237
10552TIP3    H231600   4.492   4.170   2.340
10553TIP3   OH231601   5.377   7.698   5.756
10553TIP3    H131602   5.325   7.777   5.745
10553TIP3    H231603   5.460   7.718   5.714
10554TIP3   OH231604   3.490   2.599   0.954
10554TIP3    H131605   3.405   2.594   0.996
10554TIP3    H231606   3.547   2.543   1.006
10555TIP3   OH231607   7.359   5.962   5.223
10555TIP3    H131608   7.412   5.885   5.243
10555TIP3    H231609   7.367   5.973   5.128
10556TIP3   OH231610   2.150   6.225   3.748
10556TIP3    H131611   2.124   6.298   3.693
10556TIP3    H231612   2.097   6.151   3.718
10557TIP3   OH231613   7.921   4.836   3.389
10557TIP3    H131614   7.915   4.749   3.429
10557TIP3    H231615   8.015   4.855   3.388
10558TIP3   OH231616   5.077   1.102   0.025
10558TIP3    H131617   5.065   1.053   0.107
10558TIP3    H231618   5.161   1.071  -0.009
10559TIP3   OH231619   7.408   3.920   2.861
10559TIP3    H131620   7.372   3.832   2.852
10559TIP3    H231621   7.421   3.950   2.770
10560TIP3   OH231622   5.193   6.213   0.528
10560TIP3    H131623   5.170   6.288   0.583
10560TIP3    H231624   5.199   6.139   0.588
10561TIP3   OH231625   5.010   4.864   4.642
10561TIP3    H131626   4.921   4.829   4.648
10561TIP3    H231627   4.999   4.959   4.651
10562TIP3   OH231628   0.377   0.082   4.984
10562TIP3    H131629   0.374   0.071   4.889
10562TIP3    H231630   0.470   0.078   5.005
10563TIP3   OH231631   6.856   7.195   5.335
10563TIP3    H131632   6.827   7.240   5.256
10563TIP3    H231633   6.775   7.164   5.377
10564TIP3   OH231634   7.515   1.861   5.621
10564TIP3    H131635   7.556   1.933   5.670
10564TIP3    H231636   7.539   1.878   5.530
10565TIP3   OH231637   6.950   3.569   3.126
10565TIP3    H131638   6.858   3.594   3.121
10565TIP3    H231639   6.966   3.519   3.045
10566TIP3   OH231640   7.342   7.114   3.178
10566TIP3    H131641   7.396   7.038   3.159
10566TIP3    H231642   7.317   7.104   3.270
10567TIP3   OH231643   8.208   4.832   6.092
10567TIP3    H131644   8.251   4.886   6.158
10567TIP3    H231645   8.278   4.806   6.032
10568TIP3   OH231646   8.226   6.983   5.708
10568TIP3    H131647   8.149   7.018   5.752
10568TIP3    H231648   8.253   6.909   5.762
10569TIP3   OH231649   2.163   4.067   5.882
10569TIP3    H131650   2.229   4.070   5.812
10569TIP3    H231651   2.212   4.083   5.962
10570TIP3   OH231652   6.330   2.318   4.402
10570TIP3    H131653   6.312   2.390   4.463
10570TIP3    H231654   6.252   2.263   4.406
10571TIP3   OH231655   0.477   0.390   4.051
10571TIP3    H131656   0.411   0.438   4.000
10571TIP3    H231657   0.500   0.450   4.122
10572TIP3   OH231658   7.013   4.604   2.812
10572TIP3    H131659   6.961   4.524   2.802
10572TIP3    H231660   6.993   4.655   2.733
10573TIP3   OH231661   7.027   7.788   4.312
10573TIP3    H131662   7.000   7.782   4.403
10573TIP3    H231663   7.013   7.880   4.289
10574TIP3   OH231664   1.728   3.495   0.846
10574TIP3    H131665   1.792   3.473   0.913
10574TIP3    H231666   1.735   3.425   0.781
10575TIP3   OH231667   4.004   3.161   3.698
10575TIP3    H131668   3.914   3.129   3.713
10575TIP3    H231669   3.993   3.255   3.683
10576TIP3   OH231670   5.168   6.465   0.639
10576TIP3    H131671   5.250   6.500   0.603
10576TIP3    H231672   5.101   6.526   0.608
10577TIP3   OH231673   2.408   7.182   6.713
10577TIP3    H131674   2.462   7.261   6.716
10577TIP3    H231675   2.407   7.150   6.804
10578TIP3   OH231676   7.168   3.663   1.524
10578TIP3    H131677   7.208   3.746   1.498
10578TIP3    H231678   7.175   3.608   1.445
10579TIP3   OH231679   0.429   3.544   2.739
10579TIP3    H131680   0.393   3.460   2.713
10579TIP3    H231681   0.383   3.566   2.821
10580TIP3   OH231682   4.669   2.085   5.705
10580TIP3    H131683   4.594   2.043   5.662
10580TIP3    H231684   4.745   2.043   5.665
10581TIP3   OH231685   3.193   2.051   3.854
10581TIP3    H131686   3.233   2.107   3.787
10581TIP3    H231687   3.099   2.060   3.841
10582TIP3   OH231688   6.515   0.743   3.350
10582TIP3    H131689   6.443   0.771   3.293
10582TIP3    H231690   6.554   0.669   3.304
10583TIP3   OH231691   0.469   3.195   2.814
10583TIP3    H131692   0.520   3.126   2.773
10583TIP3    H231693   0.533   3.261   2.840
10584TIP3   OH231694   7.055   7.099   5.492
10584TIP3    H131695   6.985   7.141   5.442
10584TIP3    H231696   7.018   7.015   5.519
10585TIP3   OH231697   6.710   3.858   1.823
10585TIP3    H131698   6.735   3.766   1.824
10585TIP3    H231699   6.690   3.879   1.914
10586TIP3   OH231700   2.595   7.375   0.805
10586TIP3    H131701   2.664   7.356   0.869
10586TIP3    H231702   2.513   7.364   0.854
10587TIP3   OH231703   3.092   6.140   0.713
10587TIP3    H131704   3.146   6.175   0.784
10587TIP3    H231705   3.060   6.057   0.746
10588TIP3   OH231706   6.496   0.206   0.568
10588TIP3    H131707   6.460   0.288   0.603
10588TIP3    H231708   6.550   0.233   0.494
10589TIP3   OH231709   2.594   4.542   0.920
10589TIP3    H131710   2.506   4.523   0.889
10589TIP3    H231711   2.591   4.633   0.949
10590TIP3   OH231712   7.109   3.366   5.689
10590TIP3    H131713   7.034   3.314   5.662
10590TIP3    H231714   7.167   3.304   5.733
10591TIP3   OH231715   1.983   6.667   2.568
10591TIP3    H131716   2.050   6.710   2.515
10591TIP3    H231717   2.015   6.675   2.658
10592TIP3   OH231718   8.281   5.361   0.085
10592TIP3    H131719   8.327   5.314   0.155
10592TIP3    H231720   8.188   5.339   0.098
10593TIP3   OH231721   2.655   0.406   2.906
10593TIP3    H131722   2.693   0.457   2.978
10593TIP3    H231723   2.731   0.380   2.853
10594TIP3   OH231724   6.304   3.173   1.063
10594TIP3    H131725   6.320   3.260   1.100
10594TIP3    H231726   6.210   3.161   1.070
10595TIP3   OH231727   6.709   1.841   2.783
10595TIP3    H131728   6.710   1.830   2.878
10595TIP3    H231729   6.619   1.823   2.757
10596TIP3   OH231730   4.076   7.056   6.539
10596TIP3    H131731   4.145   7.061   6.473
10596TIP3    H231732   4.083   7.138   6.587
10597TIP3   OH231733   1.383   3.878   2.367
10597TIP3    H131734   1.465   3.890   2.320
10597TIP3    H231735   1.409   3.876   2.460
10598TIP3   OH231736   4.940   1.652   3.983
10598TIP3    H131737   4.922   1.577   4.040
10598TIP3    H231738   4.875   1.645   3.913
10599TIP3   OH231739   2.649   3.547   3.411
10599TIP3    H131740   2.620   3.466   3.371
10599TIP3    H231741   2.641   3.532   3.505
10600TIP3   OH231742   4.813   2.557   1.917
10600TIP3    H131743   4.845   2.553   1.827
10600TIP3    H231744   4.762   2.637   1.922
10601TIP3   OH231745   3.094   1.527   5.065
10601TIP3    H131746   3.171   1.515   5.120
10601TIP3    H231747   3.105   1.614   5.027
10602TIP3   OH231748   7.624   2.598   0.364
10602TIP3    H131749   7.617   2.648   0.445
10602TIP3    H231750   7.654   2.511   0.391
10603TIP3   OH231751   4.782   2.884   3.120
10603TIP3    H131752   4.815   2.795   3.109
10603TIP3    H231753   4.741   2.885   3.206
10604TIP3   OH231754   5.518   5.263   4.711
10604TIP3    H131755   5.450   5.235   4.772
10604TIP3    H231756   5.594   5.208   4.732
10605TIP3   OH231757   0.558   5.296   4.870
10605TIP3    H131758   0.644   5.259   4.891
10605TIP3    H231759   0.574   5.390   4.863
10606TIP3   OH231760   4.081   4.502   2.910
10606TIP3    H131761   4.171   4.484   2.883
10606TIP3    H231762   4.080   4.484   3.004
10607TIP3   OH231763   1.599   2.973   5.125
10607TIP3    H131764   1.683   3.018   5.126
10607TIP3    H231765   1.543   3.023   5.184
10608TIP3   OH231766   2.901   6.947   6.243
10608TIP3    H131767   2.873   7.028   6.286
10608TIP3    H231768   2.862   6.878   6.296
10609TIP3   OH231769  -0.033   5.841   0.274
10609TIP3    H131770   0.061   5.857   0.284
10609TIP3    H231771  -0.038   5.764   0.217
10610TIP3   OH231772   2.369   4.443   1.426
10610TIP3    H131773   2.344   4.531   1.457
10610TIP3    H231774   2.342   4.442   1.334
10611TIP3   OH231775   6.882   1.285   6.350
10611TIP3    H131776   6.949   1.216   6.356
10611TIP3    H231777   6.819   1.252   6.286
10612TIP3   OH231778   3.211   0.835   2.656
10612TIP3    H131779   3.116   0.837   2.643
10612TIP3    H231780   3.247   0.875   2.577
10613TIP3   OH231781   4.925   3.445   6.353
10613TIP3    H131782   4.881   3.488   6.281
10613TIP3    H231783   4.962   3.366   6.315
10614TIP3   OH231784   5.396   5.365   5.196
10614TIP3    H131785   5.347   5.445   5.176
10614TIP3    H231786   5.486   5.394   5.207
10615TIP3   OH231787   7.899   1.169   3.479
10615TIP3    H131788   7.847   1.143   3.402
10615TIP3    H231789   7.861   1.120   3.551
10616TIP3   OH231790   7.428   3.450   6.306
10616TIP3    H131791   7.484   3.375   6.324
10616TIP3    H231792   7.455   3.479   6.219
10617TIP3   OH231793   7.044   6.219   4.076
10617TIP3    H131794   7.036   6.264   4.160
10617TIP3    H231795   6.955   6.217   4.041
10618TIP3   OH231796   3.234   6.520   6.709
10618TIP3    H131797   3.222   6.599   6.760
10618TIP3    H231798   3.146   6.499   6.676
10619TIP3   OH231799   1.758   2.880   2.336
10619TIP3    H131800   1.742   2.821   2.262
10619TIP3    H231801   1.763   2.823   2.412
10620TIP3   OH231802   0.793   4.779   4.726
10620TIP3    H131803   0.701   4.768   4.705
10620TIP3    H231804   0.814   4.707   4.785
10621TIP3   OH231805   0.047   2.672   3.327
10621TIP3    H131806  -0.027   2.733   3.322
10621TIP3    H231807   0.116   2.714   3.276
10622TIP3   OH231808   6.678   7.468   5.472
10622TIP3    H131809   6.733   7.528   5.422
10622TIP3    H231810   6.627   7.422   5.405
10623TIP3   OH231811   4.505   5.486   3.374
10623TIP3    H131812   4.514   5.455   3.464
10623TIP3    H231813   4.424   5.537   3.374
10624TIP3   OH231814   4.381   7.443   3.467
10624TIP3    H131815   4.333   7.370   3.505
10624TIP3    H231816   4.316   7.491   3.416
10625TIP3   OH231817   0.162   6.807   2.542
10625TIP3    H131818   0.231   6.742   2.523
10625TIP3    H231819   0.204   6.869   2.601
10626TIP3   OH231820   7.619   0.817   3.767
10626TIP3    H131821   7.692   0.869   3.733
10626TIP3    H231822   7.588   0.867   3.842
10627TIP3   OH231823   2.900   4.933   1.202
10627TIP3    H131824   2.828   4.978   1.157
10627TIP3    H231825   2.893   4.842   1.172
10628TIP3   OH231826   4.932   6.107   4.075
10628TIP3    H131827   4.848   6.081   4.114
10628TIP3    H231828   4.958   6.185   4.125
10629TIP3   OH231829   7.445   6.339   3.883
10629TIP3    H131830   7.401   6.257   3.907
10629TIP3    H231831   7.523   6.310   3.836
10630TIP3   OH231832   3.003   2.565   0.860
10630TIP3    H131833   3.019   2.470   0.866
10630TIP3    H231834   2.961   2.587   0.943
10631TIP3   OH231835   0.292   6.247   1.480
10631TIP3    H131836   0.291   6.152   1.473
10631TIP3    H231837   0.329   6.265   1.566
10632TIP3   OH231838   2.115   4.875   1.374
10632TIP3    H131839   2.056   4.814   1.418
10632TIP3    H231840   2.057   4.940   1.334
10633TIP3   OH231841   3.366   4.394   6.389
10633TIP3    H131842   3.290   4.415   6.444
10633TIP3    H231843   3.377   4.299   6.400
10634TIP3   OH231844   2.938   6.317   6.189
10634TIP3    H131845   2.996   6.255   6.234
10634TIP3    H231846   2.994   6.363   6.127
10635TIP3   OH231847   6.573   6.423   4.173
10635TIP3    H131848   6.537   6.366   4.241
10635TIP3    H231849   6.636   6.368   4.126
10636TIP3   OH231850   2.473   6.977   0.250
10636TIP3    H131851   2.422   6.899   0.271
10636TIP3    H231852   2.549   6.972   0.308
10637TIP3   OH231853   4.773   1.423   3.647
10637TIP3    H131854   4.763   1.517   3.637
10637TIP3    H231855   4.705   1.399   3.711
10638TIP3   OH231856   0.271   1.562   6.717
10638TIP3    H131857   0.270   1.623   6.791
10638TIP3    H231858   0.363   1.537   6.708
10639TIP3   OH231859   3.537   3.870   3.431
10639TIP3    H131860   3.632   3.872   3.419
10639TIP3    H231861   3.518   3.779   3.456
10640TIP3   OH231862   3.231   5.111   0.088
10640TIP3    H131863   3.205   5.172   0.158
10640TIP3    H231864   3.264   5.167   0.019
10641TIP3   OH231865   0.097   3.071   5.560
10641TIP3    H131866   0.069   3.163   5.567
10641TIP3    H231867   0.053   3.039   5.481
10642TIP3   OH231868   2.414   0.957   0.621
10642TIP3    H131869   2.380   0.877   0.661
10642TIP3    H231870   2.345   0.986   0.561
10643TIP3   OH231871   0.459   3.058   0.349
10643TIP3    H131872   0.425   3.025   0.266
10643TIP3    H231873   0.476   3.151   0.333
10644TIP3   OH231874   3.624   2.459   1.153
10644TIP3    H131875   3.671   2.408   1.087
10644TIP3    H231876   3.688   2.523   1.184
10645TIP3   OH231877   6.007   7.679   5.976
10645TIP3    H131878   5.935   7.718   5.926
10645TIP3    H231879   5.969   7.655   6.060
10646TIP3   OH231880   2.463   5.049   0.132
10646TIP3    H131881   2.476   4.961   0.166
10646TIP3    H231882   2.378   5.046   0.088
10647TIP3   OH231883   3.478   0.287   2.468
10647TIP3    H131884   3.524   0.338   2.401
10647TIP3    H231885   3.436   0.353   2.523
10648TIP3   OH231886   6.855   3.129   5.172
10648TIP3    H131887   6.847   3.224   5.168
10648TIP3    H231888   6.933   3.109   5.120
10649TIP3   OH231889   1.606   3.714   3.869
10649TIP3    H131890   1.548   3.644   3.900
10649TIP3    H231891   1.685   3.705   3.923
10650TIP3   OH231892   5.943   6.284   6.482
10650TIP3    H131893   6.024   6.247   6.448
10650TIP3    H231894   5.953   6.280   6.577
10651TIP3   OH231895   7.373   1.236   3.931
10651TIP3    H131896   7.347   1.328   3.931
10651TIP3    H231897   7.301   1.190   3.887
10652TIP3   OH231898   5.600   1.861   1.788
10652TIP3    H131899   5.683   1.879   1.744
10652TIP3    H231900   5.574   1.774   1.758
10653TIP3   OH231901   0.768   0.079   2.010
10653TIP3    H131902   0.689   0.091   2.063
10653TIP3    H231903   0.744   0.113   1.923
10654TIP3   OH231904   5.788   4.604   0.974
10654TIP3    H131905   5.743   4.686   0.959
10654TIP3    H231906   5.724   4.548   1.018
10655TIP3   OH231907   2.307   1.262   3.920
10655TIP3    H131908   2.372   1.221   3.862
10655TIP3    H231909   2.256   1.188   3.953
10656TIP3   OH231910   6.651   3.818   1.284
10656TIP3    H131911   6.630   3.889   1.224
10656TIP3    H231912   6.569   3.800   1.331
10657TIP3   OH231913   7.421   5.696   5.254
10657TIP3    H131914   7.357   5.660   5.193
10657TIP3    H231915   7.374   5.704   5.336
10658TIP3   OH231916   7.306   2.149   6.314
10658TIP3    H131917   7.317   2.144   6.219
10658TIP3    H231918   7.332   2.062   6.345
10659TIP3   OH231919   6.021   1.212   4.412
10659TIP3    H131920   5.981   1.247   4.491
10659TIP3    H231921   5.986   1.123   4.405
10660TIP3   OH231922   3.338   1.786   5.715
10660TIP3    H131923   3.290   1.853   5.764
10660TIP3    H231924   3.410   1.834   5.674
10661TIP3   OH231925   6.931   4.485   3.281
10661TIP3    H131926   6.885   4.562   3.313
10661TIP3    H231927   6.878   4.411   3.310
10662TIP3   OH231928   2.704   4.950   4.487
10662TIP3    H131929   2.743   4.874   4.530
10662TIP3    H231930   2.671   5.004   4.558
10663TIP3   OH231931   8.132   5.038   0.323
10663TIP3    H131932   8.080   5.009   0.248
10663TIP3    H231933   8.073   5.031   0.398
10664TIP3   OH231934   3.259   4.106   6.172
10664TIP3    H131935   3.296   4.087   6.086
10664TIP3    H231936   3.326   4.077   6.234
10665TIP3   OH231937   7.122   6.279   6.684
10665TIP3    H131938   7.167   6.234   6.613
10665TIP3    H231939   7.189   6.291   6.751
10666TIP3   OH231940   0.507   1.839   6.592
10666TIP3    H131941   0.532   1.896   6.665
10666TIP3    H231942   0.510   1.897   6.515
10667TIP3   OH231943   2.868   1.721   1.740
10667TIP3    H131944   2.868   1.814   1.718
10667TIP3    H231945   2.776   1.701   1.762
10668TIP3   OH231946   4.636   6.939   0.899
10668TIP3    H131947   4.631   7.034   0.905
10668TIP3    H231948   4.620   6.908   0.989
10669TIP3   OH231949   6.610   0.800   4.044
10669TIP3    H131950   6.522   0.786   4.010
10669TIP3    H231951   6.629   0.891   4.024
10670TIP3   OH231952   4.475   5.327   5.037
10670TIP3    H131953   4.511   5.372   5.114
10670TIP3    H231954   4.539   5.343   4.968
10671TIP3   OH231955   5.170   6.827   1.012
10671TIP3    H131956   5.155   6.736   0.984
10671TIP3    H231957   5.266   6.835   1.015
10672TIP3   OH231958   6.421   4.793   3.652
10672TIP3    H131959   6.513   4.782   3.676
10672TIP3    H231960   6.419   4.785   3.557
10673TIP3   OH231961   1.992   2.106   2.905
10673TIP3    H131962   1.970   2.130   2.995
10673TIP3    H231963   1.909   2.079   2.866
10674TIP3   OH231964   7.944   4.062   0.383
10674TIP3    H131965   7.892   3.985   0.359
10674TIP3    H231966   7.983   4.039   0.467
10675TIP3   OH231967   2.274   5.239   3.633
10675TIP3    H131968   2.349   5.220   3.575
10675TIP3    H231969   2.282   5.173   3.703
10676TIP3   OH231970   5.042   5.712   3.194
10676TIP3    H131971   5.059   5.621   3.219
10676TIP3    H231972   5.029   5.758   3.277
10677TIP3   OH231973   7.722   2.370   1.403
10677TIP3    H131974   7.674   2.446   1.436
10677TIP3    H231975   7.682   2.352   1.318
10678TIP3   OH231976   0.446   6.677   0.959
10678TIP3    H131977   0.454   6.772   0.955
10678TIP3    H231978   0.432   6.650   0.868
10679TIP3   OH231979   7.149   0.064   0.446
10679TIP3    H131980   7.216  -0.001   0.425
10679TIP3    H231981   7.192   0.148   0.437
10680TIP3   OH231982   6.553   1.890   4.988
10680TIP3    H131983   6.523   1.878   5.078
10680TIP3    H231984   6.501   1.829   4.937
10681TIP3   OH231985   7.998   1.114   5.452
10681TIP3    H131986   7.917   1.151   5.417
10681TIP3    H231987   7.978   1.097   5.544
10682TIP3   OH231988   5.013   1.840   3.425
10682TIP3    H131989   4.947   1.777   3.397
10682TIP3    H231990   4.994   1.920   3.375
10683TIP3   OH231991   1.672   3.992   1.020
10683TIP3    H131992   1.739   3.959   0.961
10683TIP3    H231993   1.671   4.086   1.004
10684TIP3   OH231994   5.014   3.360   1.630
10684TIP3    H131995   5.008   3.288   1.693
10684TIP3    H231996   5.044   3.435   1.683
10685TIP3   OH231997   7.362   3.616   0.446
10685TIP3    H131998   7.410   3.622   0.364
10685TIP3    H231999   7.424   3.579   0.509
10686TIP3   OH232000   5.093   5.788   5.783
10686TIP3    H132001   5.105   5.727   5.710
10686TIP3    H232002   5.179   5.827   5.797
10687TIP3   OH232003   6.866   6.674   2.785
10687TIP3    H132004   6.960   6.656   2.792
10687TIP3    H232005   6.845   6.726   2.862
10688TIP3   OH232006   1.035   7.012   3.995
10688TIP3    H132007   1.083   7.011   3.913
10688TIP3    H232008   1.040   7.103   4.026
10689TIP3   OH232009   7.126   0.940   2.149
10689TIP3    H132010   7.202   0.998   2.151
10689TIP3    H232011   7.051   0.997   2.164
10690TIP3   OH232012   1.719   3.634   6.638
10690TIP3    H132013   1.798   3.580   6.636
10690TIP3    H232014   1.743   3.710   6.692
10691TIP3   OH232015   0.467   3.701   5.707
10691TIP3    H132016   0.499   3.775   5.758
10691TIP3    H232017   0.545   3.650   5.687
10692TIP3   OH232018   2.865   0.283   4.027
10692TIP3    H132019   2.784   0.288   3.975
10692TIP3    H232020   2.933   0.262   3.963
10693TIP3   OH232021   2.741   7.101   2.957
10693TIP3    H132022   2.689   7.104   3.037
10693TIP3    H232023   2.831   7.115   2.986
10694TIP3   OH232024   5.763   2.916   6.570
10694TIP3    H132025   5.675   2.955   6.572
10694TIP3    H232026   5.747   2.823   6.552
10695TIP3   OH232027   5.050   2.536   6.581
10695TIP3    H132028   5.102   2.615   6.588
10695TIP3    H232029   4.988   2.541   6.654
10696TIP3   OH232030   3.617   3.659   4.353
10696TIP3    H132031   3.711   3.665   4.364
10696TIP3    H232032   3.589   3.593   4.417
10697TIP3   OH232033   6.780   6.250   4.000
10697TIP3    H132034   6.780   6.270   3.907
10697TIP3    H232035   6.738   6.164   4.007
10698TIP3   OH232036   0.559   1.068   1.626
10698TIP3    H132037   0.615   1.113   1.563
10698TIP3    H232038   0.620   1.027   1.687
10699TIP3   OH232039   7.725   4.887   4.794
10699TIP3    H132040   7.749   4.815   4.853
10699TIP3    H232041   7.742   4.966   4.845
10700TIP3   OH232042   5.118   2.617   2.877
10700TIP3    H132043   5.052   2.550   2.860
10700TIP3    H232044   5.154   2.593   2.963
10701TIP3   OH232045   6.722   0.427   4.913
10701TIP3    H132046   6.726   0.503   4.971
10701TIP3    H232047   6.810   0.419   4.877
10702TIP3   OH232048   0.821   2.290   6.451
10702TIP3    H132049   0.795   2.290   6.544
10702TIP3    H232050   0.912   2.318   6.453
10703TIP3   OH232051   3.168   6.494   1.282
10703TIP3    H132052   3.262   6.502   1.301
10703TIP3    H232053   3.126   6.504   1.367
10704TIP3   OH232054   1.716   4.198   2.467
10704TIP3    H132055   1.794   4.222   2.517
10704TIP3    H232056   1.736   4.222   2.377
10705TIP3   OH232057   7.045   4.808   4.595
10705TIP3    H132058   7.095   4.764   4.526
10705TIP3    H232059   7.010   4.886   4.552
10706TIP3   OH232060   7.226   2.335   3.079
10706TIP3    H132061   7.264   2.327   3.166
10706TIP3    H232062   7.300   2.321   3.020
10707TIP3   OH232063   7.178   2.034   0.381
10707TIP3    H132064   7.270   2.025   0.358
10707TIP3    H232065   7.144   2.099   0.319
10708TIP3   OH232066   5.931   4.325   3.542
10708TIP3    H132067   5.973   4.337   3.457
10708TIP3    H232068   5.855   4.382   3.540
10709TIP3   OH232069   4.177   3.615   4.427
10709TIP3    H132070   4.192   3.526   4.458
10709TIP3    H232071   4.264   3.650   4.410
10710TIP3   OH232072   4.874   6.184   0.520
10710TIP3    H132073   4.863   6.277   0.542
10710TIP3    H232074   4.809   6.139   0.574
10711TIP3   OH232075   4.358   1.051   3.279
10711TIP3    H132076   4.305   1.131   3.277
10711TIP3    H232077   4.399   1.052   3.365
10712TIP3   OH232078   4.920   6.522   2.804
10712TIP3    H132079   5.005   6.536   2.761
10712TIP3    H232080   4.932   6.442   2.855
10713TIP3   OH232081   5.111   1.576   0.980
10713TIP3    H132082   5.196   1.606   1.012
10713TIP3    H232083   5.078   1.521   1.051
10714TIP3   OH232084   7.093   6.011   1.306
10714TIP3    H132085   7.097   6.093   1.257
10714TIP3    H232086   7.039   6.031   1.382
10715TIP3   OH232087   5.142   5.101   0.223
10715TIP3    H132088   5.225   5.115   0.177
10715TIP3    H232089   5.115   5.189   0.251
10716TIP3   OH232090   2.688   0.147   3.872
10716TIP3    H132091   2.693   0.164   3.778
10716TIP3    H232092   2.703   0.053   3.880
10717TIP3   OH232093   5.956   3.579   0.062
10717TIP3    H132094   5.875   3.607   0.018
10717TIP3    H232095   6.021   3.577  -0.008
10718TIP3   OH232096   0.887   0.972   0.706
10718TIP3    H132097   0.945   0.933   0.771
10718TIP3    H232098   0.945   1.017   0.645
10719TIP3   OH232099   0.553   3.841   4.578
10719TIP3    H132100   0.458   3.845   4.568
10719TIP3    H232101   0.588   3.884   4.500
10720TIP3   OH232102   3.741   5.791   0.706
10720TIP3    H132103   3.777   5.878   0.724
10720TIP3    H232104   3.729   5.789   0.611
10721TIP3   OH232105   3.336   7.608   2.780
10721TIP3    H132106   3.333   7.699   2.752
10721TIP3    H232107   3.401   7.567   2.721
10722TIP3   OH232108   5.445   4.374   4.481
10722TIP3    H132109   5.474   4.418   4.401
10722TIP3    H232110   5.349   4.379   4.477
10723TIP3   OH232111   8.147   2.716   2.362
10723TIP3    H132112   8.179   2.742   2.276
10723TIP3    H232113   8.218   2.738   2.422
10724TIP3   OH232114   4.995   2.424   2.165
10724TIP3    H132115   4.949   2.494   2.119
10724TIP3    H232116   5.049   2.469   2.230
10725TIP3   OH232117   6.529   2.546   1.518
10725TIP3    H132118   6.496   2.634   1.497
10725TIP3    H232119   6.525   2.499   1.434
10726TIP3   OH232120   2.250   5.009   4.174
10726TIP3    H132121   2.330   5.003   4.226
10726TIP3    H232122   2.280   5.028   4.085
10727TIP3   OH232123   5.191   2.833   3.413
10727TIP3    H132124   5.253   2.881   3.358
10727TIP3    H232125   5.129   2.794   3.352
10728TIP3   OH232126   1.655   6.872   6.606
10728TIP3    H132127   1.737   6.864   6.656
10728TIP3    H232128   1.605   6.939   6.653
10729TIP3   OH232129   1.736   2.481   6.482
10729TIP3    H132130   1.769   2.569   6.464
10729TIP3    H232131   1.675   2.464   6.410
10730TIP3   OH232132   3.740   7.151   4.461
10730TIP3    H132133   3.664   7.209   4.469
10730TIP3    H232134   3.703   7.063   4.461
10731TIP3   OH232135   0.250   0.998   3.303
10731TIP3    H132136   0.175   0.943   3.282
10731TIP3    H232137   0.288   1.020   3.218
10732TIP3   OH232138   0.129   4.157   1.418
10732TIP3    H132139   0.214   4.178   1.456
10732TIP3    H232140   0.100   4.079   1.465
10733TIP3   OH232141   2.975   7.161   6.758
10733TIP3    H132142   3.012   7.243   6.790
10733TIP3    H232143   3.038   7.131   6.692
10734TIP3   OH232144   3.744   4.963   6.281
10734TIP3    H132145   3.717   4.874   6.259
10734TIP3    H232146   3.829   4.953   6.324
10735TIP3   OH232147   6.745   4.856   3.079
10735TIP3    H132148   6.801   4.924   3.041
10735TIP3    H232149   6.792   4.774   3.063
10736TIP3   OH232150   1.426   3.579   0.068
10736TIP3    H132151   1.428   3.630  -0.013
10736TIP3    H232152   1.466   3.637   0.133
10737TIP3   OH232153   1.715   3.310   6.619
10737TIP3    H132154   1.802   3.344   6.642
10737TIP3    H232155   1.707   3.327   6.526
10738TIP3   OH232156   6.829   6.826   3.008
10738TIP3    H132157   6.828   6.908   2.959
10738TIP3    H232158   6.900   6.836   3.071
10739TIP3   OH232159   6.907   4.790   2.599
10739TIP3    H132160   6.907   4.883   2.621
10739TIP3    H232161   6.906   4.787   2.504
10740TIP3   OH232162   1.283   5.026   5.075
10740TIP3    H132163   1.261   4.978   4.995
10740TIP3    H232164   1.376   5.047   5.064
10741TIP3   OH232165   0.691   1.408   6.585
10741TIP3    H132166   0.676   1.314   6.573
10741TIP3    H232167   0.773   1.426   6.539
10742TIP3   OH232168   3.652   7.255   0.037
10742TIP3    H132169   3.623   7.235   0.126
10742TIP3    H232170   3.616   7.342   0.019
10743TIP3   OH232171   5.173   1.008   2.865
10743TIP3    H132172   5.251   1.062   2.854
10743TIP3    H232173   5.102   1.060   2.829
10744TIP3   OH232174   2.303   5.110   3.315
10744TIP3    H132175   2.371   5.173   3.337
10744TIP3    H232176   2.251   5.153   3.247
10745TIP3   OH232177   4.545   1.503   4.457
10745TIP3    H132178   4.534   1.591   4.495
10745TIP3    H232179   4.635   1.479   4.478
10746TIP3   OH232180   6.303   7.435   3.886
10746TIP3    H132181   6.260   7.480   3.813
10746TIP3    H232182   6.394   7.425   3.858
10747TIP3   OH232183   8.266   5.841   0.746
10747TIP3    H132184   8.174   5.828   0.767
10747TIP3    H232185   8.282   5.934   0.764
10748TIP3   OH232186   0.446   3.154   3.363
10748TIP3    H132187   0.456   3.214   3.289
10748TIP3    H232188   0.433   3.210   3.439
10749TIP3   OH232189   2.144   4.185   2.497
10749TIP3    H132190   2.093   4.266   2.495
10749TIP3    H232191   2.082   4.116   2.474
10750TIP3   OH232192   5.634   0.702   1.078
10750TIP3    H132193   5.613   0.785   1.035
10750TIP3    H232194   5.716   0.719   1.124
10751TIP3   OH232195   1.747   5.305   0.806
10751TIP3    H132196   1.652   5.290   0.803
10751TIP3    H232197   1.756   5.400   0.803
10752TIP3   OH232198   1.356   1.579   5.445
10752TIP3    H132199   1.293   1.607   5.512
10752TIP3    H232200   1.325   1.621   5.365
10753TIP3   OH232201   0.382   4.138   5.826
10753TIP3    H132202   0.321   4.079   5.870
10753TIP3    H232203   0.326   4.193   5.771
10754TIP3   OH232204   3.899   6.092   1.776
10754TIP3    H132205   3.825   6.032   1.789
10754TIP3    H232206   3.934   6.068   1.690
10755TIP3   OH232207   4.990   6.444   2.027
10755TIP3    H132208   4.960   6.354   2.018
10755TIP3    H232209   5.078   6.436   2.065
10756TIP3   OH232210   1.821   0.493   4.834
10756TIP3    H132211   1.851   0.542   4.757
10756TIP3    H232212   1.799   0.561   4.899
10757TIP3   OH232213   4.253   1.288   3.326
10757TIP3    H132214   4.162   1.294   3.295
10757TIP3    H232215   4.248   1.308   3.419
10758TIP3   OH232216   5.675   6.474   0.823
10758TIP3    H132217   5.588   6.494   0.857
10758TIP3    H232218   5.715   6.559   0.808
10759TIP3   OH232219   5.686   3.164   1.519
10759TIP3    H132220   5.693   3.074   1.552
10759TIP3    H232221   5.776   3.194   1.512
10760TIP3   OH232222   4.388   5.056   2.623
10760TIP3    H132223   4.426   4.987   2.677
10760TIP3    H232224   4.356   5.010   2.545
10761TIP3   OH232225   2.769   4.749   2.415
10761TIP3    H132226   2.756   4.841   2.394
10761TIP3    H232227   2.707   4.731   2.485
10762TIP3   OH232228   5.622   3.904   6.358
10762TIP3    H132229   5.629   3.827   6.302
10762TIP3    H232230   5.709   3.944   6.354
10763TIP3   OH232231   3.072   3.470   4.688
10763TIP3    H132232   3.114   3.544   4.645
10763TIP3    H232233   2.994   3.507   4.729
10764TIP3   OH232234   0.298   6.013   4.961
10764TIP3    H132235   0.282   6.036   4.869
10764TIP3    H232236   0.285   5.918   4.964
10765TIP3   OH232237   1.870   6.006   5.718
10765TIP3    H132238   1.957   6.046   5.718
10765TIP3    H232239   1.833   6.029   5.633
10766TIP3   OH232240   3.493   0.120   1.560
10766TIP3    H132241   3.421   0.173   1.593
10766TIP3    H232242   3.567   0.140   1.618
10767TIP3   OH232243   7.808   2.156   5.114
10767TIP3    H132244   7.737   2.213   5.085
10767TIP3    H232245   7.885   2.185   5.065
10768TIP3   OH232246   1.638   3.886   0.583
10768TIP3    H132247   1.573   3.817   0.570
10768TIP3    H232248   1.673   3.870   0.671
10769TIP3   OH232249   8.217   4.315   5.080
10769TIP3    H132250   8.225   4.303   4.985
10769TIP3    H232251   8.248   4.233   5.117
10770TIP3   OH232252   1.891   5.616   0.747
10770TIP3    H132253   1.941   5.694   0.724
10770TIP3    H232254   1.903   5.558   0.672
10771TIP3   OH232255   2.878   3.357   0.004
10771TIP3    H132256   2.799   3.389  -0.040
10771TIP3    H232257   2.902   3.428   0.063
10772TIP3   OH232258   0.957   0.739   6.300
10772TIP3    H132259   0.989   0.743   6.210
10772TIP3    H232260   0.919   0.825   6.316
10773TIP3   OH232261   2.379   4.040   0.154
10773TIP3    H132262   2.348   4.127   0.128
10773TIP3    H232263   2.299   3.993   0.178
10774TIP3   OH232264   7.895   2.517   6.157
10774TIP3    H132265   7.837   2.443   6.143
10774TIP3    H232266   7.842   2.582   6.203
10775TIP3   OH232267   7.212   4.805   2.189
10775TIP3    H132268   7.220   4.752   2.269
10775TIP3    H232269   7.283   4.868   2.196
10776TIP3   OH232270   2.391   2.301   0.407
10776TIP3    H132271   2.299   2.280   0.387
10776TIP3    H232272   2.425   2.338   0.325
10777TIP3   OH232273   1.125   5.275   5.529
10777TIP3    H132274   1.209   5.274   5.483
10777TIP3    H232275   1.077   5.200   5.494
10778TIP3   OH232276   0.403   4.452   3.510
10778TIP3    H132277   0.447   4.423   3.590
10778TIP3    H232278   0.474   4.468   3.448
10779TIP3   OH232279   0.898   5.318   0.963
10779TIP3    H132280   0.864   5.254   1.025
10779TIP3    H232281   0.955   5.268   0.905
10780TIP3   OH232282   1.380   4.682   1.152
10780TIP3    H132283   1.388   4.762   1.101
10780TIP3    H232284   1.364   4.712   1.241
10781TIP3   OH232285   2.872   4.653   5.640
10781TIP3    H132286   2.797   4.708   5.664
10781TIP3    H232287   2.948   4.708   5.658
10782TIP3   OH232288   6.454   2.008   0.608
10782TIP3    H132289   6.492   2.088   0.573
10782TIP3    H232290   6.520   1.974   0.669
10783TIP3   OH232291   2.724   4.307   1.764
10783TIP3    H132292   2.664   4.233   1.775
10783TIP3    H232293   2.713   4.333   1.672
10784TIP3   OH232294   3.900   6.676   5.320
10784TIP3    H132295   3.852   6.662   5.238
10784TIP3    H232296   3.955   6.599   5.329
10785TIP3   OH232297  -0.022   0.019   4.778
10785TIP3    H132298  -0.034   0.110   4.806
10785TIP3    H232299   0.013  -0.025   4.855
10786TIP3   OH232300   2.085   1.640   5.743
10786TIP3    H132301   2.021   1.595   5.688
10786TIP3    H232302   2.033   1.689   5.806
10787TIP3   OH232303   5.392   1.448   2.605
10787TIP3    H132304   5.433   1.528   2.638
10787TIP3    H232305   5.308   1.478   2.570
10788TIP3   OH232306   1.814   4.505   1.687
10788TIP3    H132307   1.847   4.495   1.598
10788TIP3    H232308   1.843   4.592   1.714
10789TIP3   OH232309   1.322   0.254   2.320
10789TIP3    H132310   1.381   0.253   2.395
10789TIP3    H232311   1.379   0.240   2.244
10790TIP3   OH232312   5.413   1.284   4.231
10790TIP3    H132313   5.349   1.302   4.162
10790TIP3    H232314   5.411   1.189   4.240
10791TIP3   OH232315   6.162   7.729   2.745
10791TIP3    H132316   6.257   7.733   2.741
10791TIP3    H232317   6.143   7.657   2.805
10792TIP3   OH232318   7.426   5.580   3.037
10792TIP3    H132319   7.378   5.653   2.999
10792TIP3    H232320   7.501   5.568   2.979
10793TIP3   OH232321   7.972   1.334   6.601
10793TIP3    H132322   8.032   1.340   6.526
10793TIP3    H232323   8.025   1.356   6.677
10794TIP3   OH232324   7.486   3.576   4.980
10794TIP3    H132325   7.526   3.653   5.020
10794TIP3    H232326   7.395   3.578   5.009
10795TIP3   OH232327   7.625   5.252   3.236
10795TIP3    H132328   7.540   5.208   3.245
10795TIP3    H232329   7.625   5.318   3.305
10796TIP3   OH232330   4.884   5.915   6.155
10796TIP3    H132331   4.791   5.906   6.174
10796TIP3    H232332   4.890   5.904   6.060
10797TIP3   OH232333   5.652   1.963   4.427
10797TIP3    H132334   5.725   1.988   4.371
10797TIP3    H232335   5.693   1.919   4.502
10798TIP3   OH232336   4.638   1.484   6.299
10798TIP3    H132337   4.637   1.408   6.241
10798TIP3    H232338   4.717   1.474   6.351
10799TIP3   OH232339   1.000   0.115   1.242
10799TIP3    H132340   0.950   0.034   1.231
10799TIP3    H232341   1.024   0.140   1.153
10800TIP3   OH232342   3.872   1.584   3.269
10800TIP3    H132343   3.795   1.594   3.212
10800TIP3    H232344   3.855   1.642   3.343
10801TIP3   OH232345   1.298   1.921   3.285
10801TIP3    H132346   1.244   1.844   3.266
10801TIP3    H232347   1.335   1.904   3.371
10802TIP3   OH232348   8.218   5.472   4.758
10802TIP3    H132349   8.171   5.398   4.721
10802TIP3    H232350   8.173   5.490   4.841
10803TIP3   OH232351   4.993   7.123   0.276
10803TIP3    H132352   4.942   7.178   0.217
10803TIP3    H232353   4.929   7.087   0.337
10804TIP3   OH232354   7.733   4.080   2.979
10804TIP3    H132355   7.651   4.116   3.012
10804TIP3    H232356   7.778   4.156   2.941
10805TIP3   OH232357   5.100   5.925   3.706
10805TIP3    H132358   5.096   5.950   3.798
10805TIP3    H232359   5.159   5.989   3.666
10806TIP3   OH232360   2.899   7.120   3.590
10806TIP3    H132361   2.952   7.169   3.528
10806TIP3    H232362   2.937   7.032   3.591
10807TIP3   OH232363   7.422   4.881   6.739
10807TIP3    H132364   7.403   4.837   6.656
10807TIP3    H232365   7.513   4.909   6.731
10808TIP3   OH232366   6.978   2.632   1.647
10808TIP3    H132367   7.062   2.657   1.606
10808TIP3    H232368   6.994   2.545   1.683
10809TIP3   OH232369   6.683   5.826   3.090
10809TIP3    H132370   6.704   5.920   3.094
10809TIP3    H232371   6.641   5.815   3.005
10810TIP3   OH232372   1.846   0.506   5.149
10810TIP3    H132373   1.788   0.579   5.129
10810TIP3    H232374   1.870   0.519   5.241
10811TIP3   OH232375   1.412   4.950   1.121
10811TIP3    H132376   1.478   4.944   1.052
10811TIP3    H232377   1.441   5.024   1.176
10812TIP3   OH232378   6.953   4.686   4.989
10812TIP3    H132379   6.940   4.594   5.014
10812TIP3    H232380   7.003   4.723   5.062
10813TIP3   OH232381   5.284   3.407   2.883
10813TIP3    H132382   5.358   3.353   2.853
10813TIP3    H232383   5.296   3.412   2.978
10814TIP3   OH232384   4.652   6.839   2.214
10814TIP3    H132385   4.638   6.765   2.272
10814TIP3    H232386   4.745   6.861   2.226
10815TIP3   OH232387   3.386   1.995   2.918
10815TIP3    H132388   3.342   2.050   2.853
10815TIP3    H232389   3.436   1.931   2.866
10816TIP3   OH232390   8.255   7.685   3.917
10816TIP3    H132391   8.304   7.608   3.887
10816TIP3    H232392   8.190   7.649   3.978
10817TIP3   OH232393   6.205   0.472   4.680
10817TIP3    H132394   6.289   0.446   4.718
10817TIP3    H232395   6.190   0.407   4.611
10818TIP3   OH232396   5.568   4.765   3.708
10818TIP3    H132397   5.585   4.702   3.778
10818TIP3    H232398   5.490   4.813   3.737
10819TIP3   OH232399   6.008   6.565   3.751
10819TIP3    H132400   6.000   6.489   3.694
10819TIP3    H232401   5.985   6.639   3.696
10820TIP3   OH232402   0.204   2.456   5.287
10820TIP3    H132403   0.255   2.513   5.344
10820TIP3    H232404   0.181   2.381   5.341
10821TIP3   OH232405   7.224   3.130   3.321
10821TIP3    H132406   7.224   3.166   3.232
10821TIP3    H232407   7.175   3.194   3.372
10822TIP3   OH232408   2.691   3.633   2.477
10822TIP3    H132409   2.632   3.667   2.409
10822TIP3    H232410   2.681   3.538   2.471
10823TIP3   OH232411   1.350   1.852   4.125
10823TIP3    H132412   1.394   1.782   4.173
10823TIP3    H232413   1.416   1.921   4.118
10824TIP3   OH232414   1.445   7.793   2.318
10824TIP3    H132415   1.387   7.869   2.312
10824TIP3    H232416   1.460   7.782   2.412
10825TIP3   OH232417   0.184   1.262   2.597
10825TIP3    H132418   0.262   1.275   2.651
10825TIP3    H232419   0.210   1.198   2.531
10826TIP3   OH232420   6.990   2.885   2.091
10826TIP3    H132421   6.937   2.936   2.029
10826TIP3    H232422   7.037   2.823   2.035
10827TIP3   OH232423   6.636   2.404   6.748
10827TIP3    H132424   6.691   2.468   6.794
10827TIP3    H232425   6.603   2.346   6.816
10828TIP3   OH232426   4.568   2.955   2.963
10828TIP3    H132427   4.507   2.932   3.033
10828TIP3    H232428   4.652   2.921   2.993
10829TIP3   OH232429   8.268   2.538   2.987
10829TIP3    H132430   8.184   2.533   3.034
10829TIP3    H232431   8.257   2.612   2.928
10830TIP3   OH232432   0.195   5.486   1.289
10830TIP3    H132433   0.259   5.534   1.342
10830TIP3    H232434   0.117   5.481   1.344
10831TIP3   OH232435   4.989   2.264   2.628
10831TIP3    H132436   5.040   2.290   2.551
10831TIP3    H232437   4.927   2.199   2.595
10832TIP3   OH232438   4.248   7.031   0.514
10832TIP3    H132439   4.197   7.072   0.444
10832TIP3    H232440   4.322   6.990   0.469
10833TIP3   OH232441   5.226   5.734   6.089
10833TIP3    H132442   5.242   5.828   6.100
10833TIP3    H232443   5.134   5.723   6.115
10834TIP3   OH232444   3.126   0.251   0.444
10834TIP3    H132445   3.121   0.157   0.459
10834TIP3    H232446   3.214   0.266   0.410
10835TIP3   OH232447   8.162   4.672   4.348
10835TIP3    H132448   8.244   4.711   4.319
10835TIP3    H232449   8.093   4.724   4.306
10836TIP3   OH232450   5.632   1.833   3.130
10836TIP3    H132451   5.568   1.762   3.127
10836TIP3    H232452   5.700   1.806   3.069
10837TIP3   OH232453   7.827   5.583   5.786
10837TIP3    H132454   7.795   5.662   5.742
10837TIP3    H232455   7.920   5.599   5.798
10838TIP3   OH232456   2.080   4.401   1.349
10838TIP3    H132457   2.109   4.439   1.432
10838TIP3    H232458   2.136   4.442   1.283
10839TIP3   OH232459   0.847   3.132   0.169
10839TIP3    H132460   0.804   3.057   0.129
10839TIP3    H232461   0.849   3.112   0.263
10840TIP3   OH232462   2.245   0.237   0.778
10840TIP3    H132463   2.182   0.186   0.829
10840TIP3    H232464   2.230   0.209   0.687
10841TIP3   OH232465   3.109   7.460   3.259
10841TIP3    H132466   3.143   7.495   3.176
10841TIP3    H232467   3.176   7.483   3.324
10842TIP3   OH232468   1.253   3.389   2.331
10842TIP3    H132469   1.210   3.362   2.249
10842TIP3    H232470   1.215   3.474   2.350
10843TIP3   OH232471   0.080   5.432   5.493
10843TIP3    H132472  -0.013   5.430   5.471
10843TIP3    H232473   0.113   5.345   5.469
10844TIP3   OH232474   0.318   1.625   6.280
10844TIP3    H132475   0.251   1.574   6.325
10844TIP3    H232476   0.400   1.597   6.321
10845TIP3   OH232477   0.847   2.305   6.735
10845TIP3    H132478   0.758   2.312   6.769
10845TIP3    H232479   0.892   2.382   6.771
10846TIP3   OH232480   4.792   1.329   1.124
10846TIP3    H132481   4.857   1.270   1.084
10846TIP3    H232482   4.710   1.306   1.080
10847TIP3   OH232483   4.528   4.027   0.523
10847TIP3    H132484   4.596   4.094   0.518
10847TIP3    H232485   4.523   3.990   0.435
10848TIP3   OH232486   1.056   2.953   3.839
10848TIP3    H132487   1.082   2.973   3.750
10848TIP3    H232488   1.139   2.937   3.885
10849TIP3   OH232489   0.180   1.810   3.537
10849TIP3    H132490   0.213   1.879   3.480
10849TIP3    H232491   0.259   1.765   3.567
10850TIP3   OH232492   0.885   4.152   2.715
10850TIP3    H132493   0.971   4.167   2.675
10850TIP3    H232494   0.878   4.057   2.722
10851TIP3   OH232495   3.908   1.194   0.212
10851TIP3    H132496   3.958   1.147   0.279
10851TIP3    H232497   3.970   1.206   0.140
10852TIP3   OH232498   4.053   1.242   1.002
10852TIP3    H132499   4.040   1.276   0.914
10852TIP3    H232500   4.117   1.171   0.992
10853TIP3   OH232501   3.257   1.656   3.264
10853TIP3    H132502   3.349   1.678   3.245
10853TIP3    H232503   3.213   1.664   3.180
10854TIP3   OH232504   1.619   5.943   0.951
10854TIP3    H132505   1.608   5.879   0.881
10854TIP3    H232506   1.550   6.008   0.936
10855TIP3   OH232507   2.152   4.418   2.219
10855TIP3    H132508   2.066   4.416   2.260
10855TIP3    H232509   2.185   4.328   2.227
10856TIP3   OH232510   4.110   7.154   0.304
10856TIP3    H132511   4.156   7.187   0.227
10856TIP3    H232512   4.030   7.116   0.269
10857TIP3   OH232513   3.418   3.544   4.723
10857TIP3    H132514   3.484   3.562   4.789
10857TIP3    H232515   3.465   3.494   4.656
10858TIP3   OH232516   3.291   5.404   0.004
10858TIP3    H132517   3.338   5.360  -0.067
10858TIP3    H232518   3.353   5.468   0.038
10859TIP3   OH232519   7.148   0.438   0.903
10859TIP3    H132520   7.234   0.404   0.927
10859TIP3    H232521   7.117   0.484   0.981
10860TIP3   OH232522   6.346   0.712   3.585
10860TIP3    H132523   6.397   0.696   3.506
10860TIP3    H232524   6.411   0.719   3.655
10861TIP3   OH232525   6.030   6.556   4.388
10861TIP3    H132526   5.980   6.504   4.450
10861TIP3    H232527   5.968   6.624   4.359
10862TIP3   OH232528   4.393   6.882   2.412
10862TIP3    H132529   4.465   6.824   2.435
10862TIP3    H232530   4.429   6.970   2.420
10863TIP3   OH232531   8.281   5.635   0.077
10863TIP3    H132532   8.195   5.645   0.037
10863TIP3    H232533   8.289   5.540   0.092
10864TIP3   OH232534   1.891   6.997   5.819
10864TIP3    H132535   1.852   6.974   5.904
10864TIP3    H232536   1.939   7.078   5.837
10865TIP3   OH232537   5.690   2.552   1.102
10865TIP3    H132538   5.656   2.497   1.030
10865TIP3    H232539   5.678   2.498   1.180
10866TIP3   OH232540   0.357   0.542   2.084
10866TIP3    H132541   0.383   0.500   2.165
10866TIP3    H232542   0.280   0.493   2.055
10867TIP3   OH232543   1.158   0.275   5.109
10867TIP3    H132544   1.107   0.294   5.030
10867TIP3    H232545   1.236   0.330   5.101
10868TIP3   OH232546   0.482   2.774   0.165
10868TIP3    H132547   0.443   2.713   0.227
10868TIP3    H232548   0.412   2.837   0.146
10869TIP3   OH232549   2.381   7.625   1.873
10869TIP3    H132550   2.418   7.627   1.785
10869TIP3    H232551   2.371   7.532   1.893
10870TIP3   OH232552   5.920   3.142   1.760
10870TIP3    H132553   5.949   3.157   1.850
10870TIP3    H232554   5.988   3.087   1.722
10871TIP3   OH232555   2.460   5.672   5.998
10871TIP3    H132556   2.450   5.652   6.091
10871TIP3    H232557   2.548   5.710   5.991
10872TIP3   OH232558   3.861   1.725   3.536
10872TIP3    H132559   3.946   1.768   3.533
10872TIP3    H232560   3.859   1.679   3.620
10873TIP3   OH232561   2.710   4.638   4.373
10873TIP3    H132562   2.629   4.622   4.422
10873TIP3    H232563   2.778   4.644   4.441
10874TIP3   OH232564   3.844   2.392   0.551
10874TIP3    H132565   3.871   2.326   0.486
10874TIP3    H232566   3.781   2.447   0.504
10875TIP3   OH232567   7.023   5.070   3.144
10875TIP3    H132568   7.022   5.026   3.059
10875TIP3    H232569   6.952   5.134   3.138
10876TIP3   OH232570   5.478   6.141   5.054
10876TIP3    H132571   5.390   6.114   5.079
10876TIP3    H232572   5.474   6.237   5.049
10877TIP3   OH232573   6.078   6.638   6.257
10877TIP3    H132574   6.064   6.697   6.182
10877TIP3    H232575   6.173   6.632   6.265
10878TIP3   OH232576   5.879   7.357   3.482
10878TIP3    H132577   5.809   7.418   3.458
10878TIP3    H232578   5.958   7.397   3.446
10879TIP3   OH232579   4.263   7.741   4.746
10879TIP3    H132580   4.304   7.791   4.674
10879TIP3    H232581   4.273   7.649   4.720
10880TIP3   OH232582   7.075   0.950   1.374
10880TIP3    H132583   7.017   0.877   1.352
10880TIP3    H232584   7.098   0.989   1.290
10881TIP3   OH232585   7.412   3.409   3.003
10881TIP3    H132586   7.385   3.439   3.089
10881TIP3    H232587   7.343   3.348   2.976
10882TIP3   OH232588   4.698   0.115   3.219
10882TIP3    H132589   4.643   0.062   3.277
10882TIP3    H232590   4.650   0.197   3.209
10883TIP3   OH232591   6.014   1.847   6.463
10883TIP3    H132592   6.032   1.766   6.415
10883TIP3    H232593   6.051   1.833   6.550
10884TIP3   OH232594   5.921   5.880   3.055
10884TIP3    H132595   5.826   5.887   3.049
10884TIP3    H232596   5.938   5.788   3.072
10885TIP3   OH232597   7.541   0.555   3.768
10885TIP3    H132598   7.602   0.525   3.835
10885TIP3    H232599   7.567   0.645   3.750
10886TIP3   OH232600   1.998   5.229   4.491
10886TIP3    H132601   2.050   5.238   4.411
10886TIP3    H232602   1.915   5.191   4.462
10887TIP3   OH232603   4.737   3.065   6.360
10887TIP3    H132604   4.741   2.980   6.405
10887TIP3    H232605   4.780   3.050   6.276
10888TIP3   OH232606   5.362   3.545   4.469
10888TIP3    H132607   5.411   3.599   4.530
10888TIP3    H232608   5.311   3.607   4.417
10889TIP3   OH232609   0.589   6.699   3.236
10889TIP3    H132610   0.556   6.609   3.240
10889TIP3    H232611   0.541   6.746   3.304
10890TIP3   OH232612   5.569   6.020   3.689
10890TIP3    H132613   5.628   5.948   3.708
10890TIP3    H232614   5.525   5.994   3.608
10891TIP3   OH232615   1.009   2.591   4.768
10891TIP3    H132616   1.036   2.681   4.785
10891TIP3    H232617   0.996   2.587   4.673
10892TIP3   OH232618   0.017   2.781   3.721
10892TIP3    H132619   0.009   2.825   3.636
10892TIP3    H232620   0.048   2.849   3.781
10893TIP3   OH232621   2.580   7.605   5.854
10893TIP3    H132622   2.489   7.578   5.870
10893TIP3    H232623   2.608   7.645   5.936
10894TIP3   OH232624   0.020   0.459   1.419
10894TIP3    H132625  -0.005   0.440   1.328
10894TIP3    H232626   0.115   0.466   1.417
10895TIP3   OH232627   3.615   6.488   0.147
10895TIP3    H132628   3.705   6.514   0.166
10895TIP3    H232629   3.599   6.413   0.205
10896TIP3   OH232630   6.631   0.524   0.450
10896TIP3    H132631   6.639   0.607   0.404
10896TIP3    H232632   6.660   0.458   0.386
10897TIP3   OH232633   7.720   3.017   3.435
10897TIP3    H132634   7.808   2.983   3.454
10897TIP3    H232635   7.672   2.941   3.403
10898TIP3   OH232636   6.791   7.402   1.039
10898TIP3    H132637   6.726   7.334   1.021
10898TIP3    H232638   6.772   7.470   0.976
10899TIP3   OH232639   7.773   0.280   2.044
10899TIP3    H132640   7.741   0.315   2.127
10899TIP3    H232641   7.803   0.357   1.996
10900TIP3   OH232642   2.409   7.442   5.111
10900TIP3    H132643   2.493   7.455   5.067
10900TIP3    H232644   2.411   7.501   5.186
10901TIP3   OH232645   2.650   1.413   0.890
10901TIP3    H132646   2.670   1.320   0.900
10901TIP3    H232647   2.588   1.433   0.960
10902TIP3   OH232648   7.567   1.083   2.295
10902TIP3    H132649   7.635   1.144   2.266
10902TIP3    H232650   7.579   1.006   2.241
10903TIP3   OH232651   3.488   0.225   1.281
10903TIP3    H132652   3.490   0.171   1.360
10903TIP3    H232653   3.563   0.284   1.290
10904TIP3   OH232654   5.914   7.274   2.775
10904TIP3    H132655   5.867   7.193   2.754
10904TIP3    H232656   5.862   7.316   2.843
10905TIP3   OH232657   7.577   6.943   3.613
10905TIP3    H132658   7.571   7.032   3.648
10905TIP3    H232659   7.642   6.949   3.542
10906TIP3   OH232660   7.036   0.693   5.848
10906TIP3    H132661   6.970   0.761   5.832
10906TIP3    H232662   6.996   0.612   5.816
10907TIP3   OH232663   3.554   3.642   2.372
10907TIP3    H132664   3.571   3.569   2.431
10907TIP3    H232665   3.641   3.678   2.351
10908TIP3   OH232666   0.294   3.529   3.515
10908TIP3    H132667   0.329   3.540   3.603
10908TIP3    H232668   0.219   3.470   3.527
10909TIP3   OH232669   2.596   6.875   0.664
10909TIP3    H132670   2.622   6.958   0.704
10909TIP3    H232671   2.616   6.885   0.571
10910TIP3   OH232672   2.478   6.510   2.199
10910TIP3    H132673   2.571   6.517   2.182
10910TIP3    H232674   2.465   6.556   2.282
10911TIP3   OH232675   4.942   6.299   2.983
10911TIP3    H132676   4.947   6.289   3.078
10911TIP3    H232677   4.998   6.229   2.948
10912TIP3   OH232678   4.763   1.559   5.475
10912TIP3    H132679   4.693   1.619   5.447
10912TIP3    H232680   4.748   1.546   5.568
10913TIP3   OH232681   7.236   4.841   2.671
10913TIP3    H132682   7.332   4.846   2.667
10913TIP3    H232683   7.217   4.800   2.755
10914TIP3   OH232684   3.469   6.877   3.259
10914TIP3    H132685   3.381   6.846   3.240
10914TIP3    H232686   3.482   6.858   3.352
10915TIP3   OH232687   7.449   5.242   4.630
10915TIP3    H132688   7.523   5.207   4.580
10915TIP3    H232689   7.447   5.190   4.710
10916TIP3   OH232690   5.759   3.905   0.516
10916TIP3    H132691   5.750   3.972   0.448
10916TIP3    H232692   5.715   3.828   0.480
10917TIP3   OH232693   6.839   4.441   5.399
10917TIP3    H132694   6.768   4.381   5.373
10917TIP3    H232695   6.901   4.385   5.445
10918TIP3   OH232696   4.330   1.873   6.172
10918TIP3    H132697   4.263   1.887   6.106
10918TIP3    H232698   4.333   1.778   6.184
10919TIP3   OH232699   3.528   5.872   2.579
10919TIP3    H132700   3.508   5.897   2.669
10919TIP3    H232701   3.602   5.928   2.555
10920TIP3   OH232702   1.676   5.279   3.818
10920TIP3    H132703   1.622   5.270   3.897
10920TIP3    H232704   1.761   5.243   3.844
10921TIP3   OH232705   0.562   4.182   6.118
10921TIP3    H132706   0.475   4.149   6.138
10921TIP3    H232707   0.546   4.266   6.076
10922TIP3   OH232708   0.524   2.423   3.105
10922TIP3    H132709   0.606   2.470   3.122
10922TIP3    H232710   0.461   2.492   3.083
10923TIP3   OH232711   3.539   4.119   0.475
10923TIP3    H132712   3.504   4.145   0.389
10923TIP3    H232713   3.518   4.194   0.532
10924TIP3   OH232714   6.778   3.208   4.720
10924TIP3    H132715   6.866   3.242   4.705
10924TIP3    H232716   6.791   3.118   4.750
10925TIP3   OH232717   5.564   0.024   5.147
10925TIP3    H132718   5.601  -0.064   5.147
10925TIP3    H232719   5.640   0.082   5.161
10926TIP3   OH232720   3.676   5.763   3.032
10926TIP3    H132721   3.712   5.696   3.091
10926TIP3    H232722   3.678   5.722   2.945
10927TIP3   OH232723   7.852   3.277   4.975
10927TIP3    H132724   7.777   3.292   5.033
10927TIP3    H232725   7.870   3.184   4.982
10928TIP3   OH232726   7.018   3.996   5.332
10928TIP3    H132727   7.048   3.961   5.248
10928TIP3    H232728   7.087   3.975   5.394
10929TIP3   OH232729   3.901   7.248   0.457
10929TIP3    H132730   3.987   7.236   0.416
10929TIP3    H232731   3.890   7.343   0.463
10930TIP3   OH232732   0.096   6.139   3.068
10930TIP3    H132733   0.067   6.120   2.979
10930TIP3    H232734   0.188   6.164   3.059
10931TIP3   OH232735   3.625   3.607   4.905
10931TIP3    H132736   3.607   3.699   4.923
10931TIP3    H232737   3.712   3.607   4.865
10932TIP3   OH232738   1.916   1.925   6.650
10932TIP3    H132739   1.968   1.904   6.572
10932TIP3    H232740   1.848   1.858   6.652
10933TIP3   OH232741   0.959   5.744   5.639
10933TIP3    H132742   0.996   5.737   5.727
10933TIP3    H232743   0.953   5.654   5.608
10934TIP3   OH232744   5.648   6.135   5.334
10934TIP3    H132745   5.570   6.129   5.278
10934TIP3    H232746   5.718   6.096   5.281
10935TIP3   OH232747   1.792   1.313   3.713
10935TIP3    H132748   1.762   1.296   3.803
10935TIP3    H232749   1.783   1.408   3.703
10936TIP3   OH232750   6.226   3.833   2.491
10936TIP3    H132751   6.223   3.740   2.512
10936TIP3    H232752   6.181   3.839   2.406
10937TIP3   OH232753   8.068   6.885   4.687
10937TIP3    H132754   8.143   6.887   4.627
10937TIP3    H232755   8.025   6.802   4.669
10938TIP3   OH232756   1.070   4.954   0.253
10938TIP3    H132757   1.018   4.957   0.173
10938TIP3    H232758   1.128   4.879   0.242
10939TIP3   OH232759   4.475   5.597   1.609
10939TIP3    H132760   4.538   5.575   1.677
10939TIP3    H232761   4.478   5.692   1.602
10940TIP3   OH232762   7.314   6.123   0.948
10940TIP3    H132763   7.345   6.032   0.947
10940TIP3    H232764   7.308   6.148   0.856
10941TIP3   OH232765   2.507   0.968   5.853
10941TIP3    H132766   2.437   1.018   5.810
10941TIP3    H232767   2.466   0.934   5.932
10942TIP3   OH232768   6.651   0.166   4.759
10942TIP3    H132769   6.690   0.233   4.816
10942TIP3    H232770   6.713   0.157   4.688
10943TIP3   OH232771   3.986   2.831   5.900
10943TIP3    H132772   3.934   2.791   5.830
10943TIP3    H232773   3.921   2.871   5.958
10944TIP3   OH232774   5.805   3.189   2.773
10944TIP3    H132775   5.883   3.237   2.800
10944TIP3    H232776   5.763   3.163   2.855
10945TIP3   OH232777   7.377   1.891   2.207
10945TIP3    H132778   7.370   1.936   2.292
10945TIP3    H232779   7.299   1.835   2.203
10946TIP3   OH232780   0.409   1.407   5.374
10946TIP3    H132781   0.421   1.368   5.460
10946TIP3    H232782   0.483   1.467   5.364
10947TIP3   OH232783   7.287   5.759   2.180
10947TIP3    H132784   7.200   5.784   2.149
10947TIP3    H232785   7.338   5.746   2.101
10948TIP3   OH232786   3.148   4.680   3.132
10948TIP3    H132787   3.153   4.665   3.227
10948TIP3    H232788   3.060   4.716   3.118
10949TIP3   OH232789   6.334   1.574   4.448
10949TIP3    H132790   6.247   1.550   4.480
10949TIP3    H232791   6.331   1.554   4.354
10950TIP3   OH232792   6.743   2.830   2.968
10950TIP3    H132793   6.706   2.799   2.885
10950TIP3    H232794   6.803   2.761   2.995
10951TIP3   OH232795   5.992   6.560   0.197
10951TIP3    H132796   5.929   6.510   0.249
10951TIP3    H232797   6.009   6.638   0.249
10952TIP3   OH232798   0.923   3.686   2.556
10952TIP3    H132799   1.009   3.726   2.548
10952TIP3    H232800   0.915   3.663   2.648
10953TIP3   OH232801   3.455   2.500   6.088
10953TIP3    H132802   3.529   2.551   6.056
10953TIP3    H232803   3.485   2.464   6.172
10954TIP3   OH232804   1.485   5.131   6.151
10954TIP3    H132805   1.413   5.069   6.141
10954TIP3    H232806   1.564   5.076   6.153
10955TIP3   OH232807   5.384   7.035   4.310
10955TIP3    H132808   5.366   7.102   4.245
10955TIP3    H232809   5.407   7.084   4.389
10956TIP3   OH232810   4.131   7.020   6.123
10956TIP3    H132811   4.145   6.944   6.067
10956TIP3    H232812   4.216   7.036   6.164
10957TIP3   OH232813   1.503   7.502   5.029
10957TIP3    H132814   1.524   7.482   4.938
10957TIP3    H232815   1.581   7.475   5.078
10958TIP3   OH232816   7.267   1.724   4.640
10958TIP3    H132817   7.342   1.665   4.646
10958TIP3    H232818   7.201   1.673   4.592
10959TIP3   OH232819   5.751   7.657   4.641
10959TIP3    H132820   5.820   7.720   4.664
10959TIP3    H232821   5.670   7.706   4.652
10960TIP3   OH232822   7.001   4.931   4.837
10960TIP3    H132823   6.938   4.864   4.861
10960TIP3    H232824   7.010   4.922   4.742
10961TIP3   OH232825   6.889   6.336   4.311
10961TIP3    H132826   6.914   6.296   4.394
10961TIP3    H232827   6.797   6.312   4.299
10962TIP3   OH232828   5.554   3.078   0.621
10962TIP3    H132829   5.461   3.068   0.640
10962TIP3    H232830   5.582   3.153   0.673
10963TIP3   OH232831   7.425   0.894   5.603
10963TIP3    H132832   7.454   0.887   5.694
10963TIP3    H232833   7.339   0.852   5.602
10964TIP3   OH232834   6.323   3.403   3.119
10964TIP3    H132835   6.348   3.341   3.187
10964TIP3    H232836   6.350   3.361   3.037
10965TIP3   OH232837   3.537   4.458   3.939
10965TIP3    H132838   3.618   4.449   3.887
10965TIP3    H232839   3.483   4.384   3.911
10966TIP3   OH232840   6.932   0.768   0.395
10966TIP3    H132841   6.965   0.739   0.480
10966TIP3    H232842   6.837   0.773   0.406
10967TIP3   OH232843   6.589   7.501   2.717
10967TIP3    H132844   6.683   7.520   2.718
10967TIP3    H232845   6.572   7.469   2.629
10968TIP3   OH232846   6.343   5.780   5.465
10968TIP3    H132847   6.347   5.685   5.472
10968TIP3    H232848   6.335   5.810   5.556
10969TIP3   OH232849   7.784   1.788   5.403
10969TIP3    H132850   7.720   1.852   5.436
10969TIP3    H232851   7.743   1.752   5.324
10970TIP3   OH232852   4.714   3.756   1.777
10970TIP3    H132853   4.627   3.755   1.737
10970TIP3    H232854   4.773   3.782   1.706
10971TIP3   OH232855   3.862   0.726   4.284
10971TIP3    H132856   3.844   0.751   4.193
10971TIP3    H232857   3.872   0.809   4.330
10972TIP3   OH232858   0.440   2.222   2.628
10972TIP3    H132859   0.457   2.305   2.583
10972TIP3    H232860   0.358   2.237   2.676
10973TIP3   OH232861   1.220   6.480   3.443
10973TIP3    H132862   1.127   6.491   3.420
10973TIP3    H232863   1.242   6.393   3.410
10974TIP3   OH232864   7.175   2.737   0.639
10974TIP3    H132865   7.138   2.778   0.717
10974TIP3    H232866   7.171   2.805   0.572
10975TIP3   OH232867   4.752   6.540   4.867
10975TIP3    H132868   4.734   6.531   4.960
10975TIP3    H232869   4.846   6.557   4.862
10976TIP3   OH232870   4.371   7.357   6.138
10976TIP3    H132871   4.366   7.262   6.150
10976TIP3    H232872   4.446   7.370   6.080
10977TIP3   OH232873   5.620   5.685   6.678
10977TIP3    H132874   5.624   5.684   6.774
10977TIP3    H232875   5.527   5.694   6.658
10978TIP3   OH232876   3.179   5.020   6.301
10978TIP3    H132877   3.214   4.936   6.331
10978TIP3    H232878   3.092   4.998   6.266
10979TIP3   OH232879   0.865   6.027   0.544
10979TIP3    H132880   0.914   5.950   0.514
10979TIP3    H232881   0.800   6.040   0.475
10980TIP3   OH232882   7.387   2.793   6.263
10980TIP3    H132883   7.445   2.777   6.189
10980TIP3    H232884   7.393   2.887   6.278
10981TIP3   OH232885   6.100   1.475   0.481
10981TIP3    H132886   6.182   1.503   0.521
10981TIP3    H232887   6.035   1.538   0.510
10982TIP3   OH232888   7.054   2.556   3.813
10982TIP3    H132889   7.106   2.634   3.833
10982TIP3    H232890   7.087   2.489   3.872
10983TIP3   OH232891   7.683   6.181   5.973
10983TIP3    H132892   7.589   6.168   5.964
10983TIP3    H232893   7.706   6.139   6.056
10984TIP3   OH232894   6.438   7.346   4.512
10984TIP3    H132895   6.519   7.389   4.539
10984TIP3    H232896   6.411   7.295   4.589
10985TIP3   OH232897   4.873   3.869   3.189
10985TIP3    H132898   4.904   3.861   3.099
10985TIP3    H232899   4.910   3.952   3.220
10986TIP3   OH232900   7.690   3.603   1.842
10986TIP3    H132901   7.729   3.636   1.760
10986TIP3    H232902   7.720   3.512   1.847
10987TIP3   OH232903   5.985   4.424   6.505
10987TIP3    H132904   5.935   4.504   6.490
10987TIP3    H232905   6.045   4.419   6.430
10988TIP3   OH232906   6.036   5.997   0.784
10988TIP3    H132907   5.948   5.970   0.757
10988TIP3    H232908   6.091   5.974   0.709
10989TIP3   OH232909   7.543   7.228   4.170
10989TIP3    H132910   7.604   7.190   4.233
10989TIP3    H232911   7.594   7.298   4.127
10990TIP3   OH232912   6.051   0.361   3.156
10990TIP3    H132913   6.109   0.294   3.121
10990TIP3    H232914   5.964   0.338   3.124
10991TIP3   OH232915   2.687   2.653   0.255
10991TIP3    H132916   2.603   2.611   0.238
10991TIP3    H232917   2.671   2.746   0.238
10992TIP3   OH232918   3.834   4.789   2.818
10992TIP3    H132919   3.768   4.852   2.792
10992TIP3    H232920   3.834   4.723   2.748
10993TIP3   OH232921   3.876   6.762   5.868
10993TIP3    H132922   3.933   6.836   5.891
10993TIP3    H232923   3.788   6.800   5.862
10994TIP3   OH232924   5.986   1.255   4.081
10994TIP3    H132925   5.953   1.216   4.162
10994TIP3    H232926   5.947   1.201   4.012
10995TIP3   OH232927   4.635   0.773   1.596
10995TIP3    H132928   4.668   0.698   1.547
10995TIP3    H232929   4.541   0.756   1.605
10996TIP3   OH232930   5.446   2.691   3.413
10996TIP3    H132931   5.420   2.611   3.368
10996TIP3    H232932   5.363   2.737   3.429
10997TIP3   OH232933   6.435   2.887   0.278
10997TIP3    H132934   6.498   2.911   0.209
10997TIP3    H232935   6.356   2.863   0.230
10998TIP3   OH232936   1.247   0.190   1.595
10998TIP3    H132937   1.307   0.245   1.545
10998TIP3    H232938   1.198   0.251   1.650
10999TIP3   OH232939   7.237   5.032   3.650
10999TIP3    H132940   7.299   5.105   3.644
10999TIP3    H232941   7.239   4.991   3.563
11000TIP3   OH232942   7.215   0.847   6.013
11000TIP3    H132943   7.141   0.787   6.002
11000TIP3    H232944   7.185   0.930   5.975
11001TIP3   OH232945   0.170   6.472   1.706
11001TIP3    H132946   0.177   6.384   1.742
11001TIP3    H232947   0.249   6.516   1.737
11002TIP3   OH232948   3.308   5.797   0.915
11002TIP3    H132949   3.396   5.827   0.940
11002TIP3    H232950   3.289   5.727   0.977
11003TIP3   OH232951   6.297   0.781   0.382
11003TIP3    H132952   6.262   0.754   0.296
11003TIP3    H232953   6.368   0.841   0.361
11004TIP3   OH232954   0.135   3.556   5.752
11004TIP3    H132955   0.212   3.536   5.805
11004TIP3    H232956   0.156   3.640   5.709
11005TIP3   OH232957   3.285   6.899   4.752
11005TIP3    H132958   3.299   6.962   4.681
11005TIP3    H232959   3.204   6.928   4.794
11006TIP3   OH232960   1.682   4.630   6.664
11006TIP3    H132961   1.649   4.551   6.707
11006TIP3    H232962   1.691   4.606   6.572
11007TIP3   OH232963   1.105   2.335   6.555
11007TIP3    H132964   1.112   2.318   6.649
11007TIP3    H232965   1.091   2.430   6.549
11008TIP3   OH232966   7.229   0.843   1.583
11008TIP3    H132967   7.252   0.915   1.641
11008TIP3    H232968   7.177   0.883   1.513
11009TIP3   OH232969   5.135   2.321   5.077
11009TIP3    H132970   5.126   2.380   5.151
11009TIP3    H232971   5.229   2.320   5.058
11010TIP3   OH232972   2.062   3.274   3.816
11010TIP3    H132973   2.099   3.256   3.903
11010TIP3    H232974   1.976   3.312   3.835
11011TIP3   OH232975   2.306   4.296   3.639
11011TIP3    H132976   2.296   4.369   3.700
11011TIP3    H232977   2.230   4.240   3.655
11012TIP3   OH232978   0.815   2.862   4.826
11012TIP3    H132979   0.797   2.837   4.736
11012TIP3    H232980   0.772   2.796   4.880
11013TIP3   OH232981   6.433   6.175   0.792
11013TIP3    H132982   6.373   6.152   0.863
11013TIP3    H232983   6.439   6.270   0.796
11014TIP3   OH232984   8.146   3.083   4.506
11014TIP3    H132985   8.153   3.172   4.472
11014TIP3    H232986   8.150   3.093   4.601
11015TIP3   OH232987   6.762   3.173   6.060
11015TIP3    H132988   6.779   3.164   6.154
11015TIP3    H232989   6.734   3.086   6.032
11016TIP3   OH232990   5.652   1.695   0.547
11016TIP3    H132991   5.679   1.699   0.455
11016TIP3    H232992   5.558   1.679   0.544
11017TIP3   OH232993   4.365   1.645   5.936
11017TIP3    H132994   4.413   1.686   5.864
11017TIP3    H232995   4.275   1.638   5.904
11018TIP3   OH232996   6.881   0.998   0.062
11018TIP3    H132997   6.955   0.970   0.117
11018TIP3    H232998   6.914   0.992  -0.027
11019TIP3   OH232999   4.445   4.860   2.826
11019TIP3    H133000   4.483   4.783   2.868
11019TIP3    H233001   4.351   4.850   2.839
11020TIP3   OH233002   4.362   6.632   4.901
11020TIP3    H133003   4.336   6.723   4.915
11020TIP3    H233004   4.343   6.589   4.985
11021TIP3   OH233005   8.313   4.782   1.755
11021TIP3    H133006   8.344   4.696   1.726
11021TIP3    H233007   8.228   4.792   1.713
11022TIP3   OH233008   4.820   1.309   5.417
11022TIP3    H133009   4.816   1.402   5.439
11022TIP3    H233010   4.894   1.276   5.468
11023TIP3   OH233011   1.165   4.666   0.907
11023TIP3    H133012   1.151   4.579   0.944
11023TIP3    H233013   1.243   4.699   0.952
11024TIP3   OH233014   3.229   7.119   3.185
11024TIP3    H133015   3.321   7.145   3.188
11024TIP3    H233016   3.231   7.023   3.184
11025TIP3   OH233017   3.523   0.706   1.969
11025TIP3    H133018   3.428   0.693   1.964
11025TIP3    H233019   3.548   0.739   1.883
11026TIP3   OH233020   5.044   1.614   6.390
11026TIP3    H133021   4.975   1.562   6.431
11026TIP3    H233022   5.107   1.632   6.460
11027TIP3   OH233023   1.751   5.911   3.129
11027TIP3    H133024   1.701   5.901   3.048
11027TIP3    H233025   1.746   5.826   3.172
11028TIP3   OH233026   6.115   0.954   2.297
11028TIP3    H133027   6.118   0.959   2.201
11028TIP3    H233028   6.192   1.003   2.326
11029TIP3   OH233029   2.541   5.559   4.431
11029TIP3    H133030   2.464   5.616   4.432
11029TIP3    H233031   2.614   5.617   4.410
11030TIP3   OH233032   0.648   6.981   6.747
11030TIP3    H133033   0.678   6.898   6.784
11030TIP3    H233034   0.726   7.037   6.748
11031TIP3   OH233035   4.278   4.953   4.328
11031TIP3    H133036   4.273   5.017   4.257
11031TIP3    H233037   4.188   4.945   4.360
11032TIP3   OH233038   3.518   3.317   2.772
11032TIP3    H133039   3.425   3.341   2.779
11032TIP3    H233040   3.558   3.353   2.852
11033TIP3   OH233041   7.122   5.652   0.190
11033TIP3    H133042   7.070   5.692   0.120
11033TIP3    H233043   7.074   5.674   0.271
11034TIP3   OH233044   3.586   1.925   2.062
11034TIP3    H133045   3.562   1.841   2.100
11034TIP3    H233046   3.583   1.986   2.136
11035TIP3   OH233047   2.938   7.562   4.779
11035TIP3    H133048   2.865   7.541   4.720
11035TIP3    H233049   2.998   7.613   4.725
11036TIP3   OH233050   3.048   3.786   4.021
11036TIP3    H133051   2.991   3.849   3.977
11036TIP3    H233052   3.134   3.828   4.024
11037TIP3   OH233053   2.925   4.944   1.685
11037TIP3    H133054   2.924   5.021   1.628
11037TIP3    H233055   2.926   4.980   1.774
11038TIP3   OH233056   3.356   0.577   6.195
11038TIP3    H133057   3.279   0.634   6.189
11038TIP3    H233058   3.387   0.570   6.105
11039TIP3   OH233059   5.323   1.026   0.904
11039TIP3    H133060   5.237   1.043   0.864
11039TIP3    H233061   5.307   1.032   0.998
11040TIP3   OH233062   7.574   1.958   4.114
11040TIP3    H133063   7.559   1.883   4.056
11040TIP3    H233064   7.631   2.017   4.064
11041TIP3   OH233065   0.841   5.885   2.329
11041TIP3    H133066   0.863   5.944   2.401
11041TIP3    H233067   0.924   5.844   2.304
11042TIP3   OH233068   7.417   7.650   3.658
11042TIP3    H133069   7.446   7.704   3.731
11042TIP3    H233070   7.377   7.573   3.699
11043TIP3   OH233071   8.291   6.496   4.954
11043TIP3    H133072   8.204   6.499   4.995
11043TIP3    H233073   8.352   6.483   5.027
11044TIP3   OH233074   6.147   6.125   5.594
11044TIP3    H133075   6.151   6.084   5.680
11044TIP3    H233076   6.229   6.175   5.587
11045TIP3   OH233077   6.391   4.398   4.342
11045TIP3    H133078   6.327   4.342   4.298
11045TIP3    H233079   6.375   4.384   4.435
11046TIP3   OH233080   3.355   4.104   6.445
11046TIP3    H133081   3.380   4.017   6.414
11046TIP3    H233082   3.404   4.116   6.526
11047TIP3   OH233083   3.358   5.266   5.749
11047TIP3    H133084   3.339   5.241   5.839
11047TIP3    H233085   3.290   5.222   5.697
11048TIP3   OH233086   4.741   3.026   1.839
11048TIP3    H133087   4.671   3.061   1.895
11048TIP3    H233088   4.812   3.089   1.847
11049TIP3   OH233089   7.775   3.472   0.167
11049TIP3    H133090   7.756   3.490   0.075
11049TIP3    H233091   7.853   3.525   0.186
11050TIP3   OH233092   5.088   5.249   0.808
11050TIP3    H133093   5.090   5.196   0.888
11050TIP3    H233094   5.118   5.189   0.740
11051TIP3   OH233095   4.835   7.226   4.917
11051TIP3    H133096   4.926   7.242   4.894
11051TIP3    H233097   4.837   7.203   5.010
11052TIP3   OH233098   2.699   2.134   1.622
11052TIP3    H133099   2.721   2.228   1.618
11052TIP3    H233100   2.779   2.092   1.652
11053TIP3   OH233101   1.449   3.248   1.264
11053TIP3    H133102   1.472   3.178   1.325
11053TIP3    H233103   1.416   3.202   1.186
11054TIP3   OH233104   0.123   2.992   0.671
11054TIP3    H133105   0.218   2.988   0.661
11054TIP3    H233106   0.104   2.930   0.742
11055TIP3   OH233107   2.933   0.464   1.565
11055TIP3    H133108   3.023   0.474   1.536
11055TIP3    H233109   2.926   0.518   1.643
11056TIP3   OH233110   2.680   7.005   0.444
11056TIP3    H133111   2.633   7.088   0.450
11056TIP3    H233112   2.771   7.030   0.425
11057TIP3   OH233113   6.021   7.711   4.044
11057TIP3    H133114   5.936   7.675   4.018
11057TIP3    H233115   6.011   7.806   4.035
11058TIP3   OH233116   8.114   6.634   5.380
11058TIP3    H133117   8.070   6.649   5.464
11058TIP3    H233118   8.172   6.560   5.397
11059TIP3   OH233119   2.155   7.033   1.902
11059TIP3    H133120   2.247   7.052   1.918
11059TIP3    H233121   2.152   7.000   1.813
11060TIP3   OH233122   0.766   1.365   0.821
11060TIP3    H133123   0.822   1.290   0.802
11060TIP3    H233124   0.797   1.398   0.905
11061TIP3   OH233125   8.152   2.075   3.566
11061TIP3    H133126   8.183   1.999   3.518
11061TIP3    H233127   8.163   2.148   3.505
11062TIP3   OH233128   6.447   6.450   3.280
11062TIP3    H133129   6.410   6.501   3.208
11062TIP3    H233130   6.503   6.385   3.237
11063TIP3   OH233131   2.921   4.427   1.906
11063TIP3    H133132   2.899   4.514   1.874
11063TIP3    H233133   2.870   4.367   1.851
11064TIP3   OH233134   5.302   1.679   1.787
11064TIP3    H133135   5.378   1.621   1.785
11064TIP3    H233136   5.301   1.721   1.700
11065TIP3   OH233137   4.950   3.283   2.102
11065TIP3    H133138   4.907   3.218   2.157
11065TIP3    H233139   5.024   3.314   2.155
11066TIP3   OH233140   4.907   7.608   3.142
11066TIP3    H133141   4.833   7.566   3.098
11066TIP3    H233142   4.982   7.590   3.086
11067TIP3   OH233143   3.118   4.786   4.669
11067TIP3    H133144   3.179   4.715   4.689
11067TIP3    H233145   3.167   4.866   4.690
11068TIP3   OH233146   1.267   5.024   5.853
11068TIP3    H133147   1.319   5.005   5.931
11068TIP3    H233148   1.197   5.081   5.884
11069TIP3   OH233149   0.470   5.890   3.319
11069TIP3    H133150   0.389   5.852   3.354
11069TIP3    H233151   0.446   5.981   3.297
11070TIP3   OH233152   4.842   5.477   1.406
11070TIP3    H133153   4.812   5.566   1.394
11070TIP3    H233154   4.837   5.462   1.501
11071TIP3   OH233155   6.502   6.813   5.515
11071TIP3    H133156   6.548   6.850   5.440
11071TIP3    H233157   6.545   6.729   5.530
11072TIP3   OH233158   4.026   2.654   5.645
11072TIP3    H133159   4.121   2.663   5.634
11072TIP3    H233160   3.989   2.697   5.568
11073TIP3   OH233161   0.405   2.601   2.034
11073TIP3    H133162   0.319   2.571   2.004
11073TIP3    H233163   0.467   2.559   1.974
11074TIP3   OH233164   3.992   1.166   2.988
11074TIP3    H133165   3.899   1.190   2.979
11074TIP3    H233166   3.996   1.077   2.954
11075TIP3   OH233167   0.440   7.784   1.464
11075TIP3    H133168   0.350   7.785   1.497
11075TIP3    H233169   0.468   7.875   1.466
11076TIP3   OH233170   5.986   4.475   4.183
11076TIP3    H133171   6.042   4.522   4.121
11076TIP3    H233172   6.046   4.415   4.229
11077TIP3   OH233173   1.158   7.476   5.483
11077TIP3    H133174   1.229   7.418   5.509
11077TIP3    H233175   1.202   7.549   5.439
11078TIP3   OH233176   6.890   6.782   5.129
11078TIP3    H133177   6.813   6.768   5.183
11078TIP3    H233178   6.945   6.705   5.143
11079TIP3   OH233179   3.201   2.568   0.244
11079TIP3    H133180   3.155   2.624   0.307
11079TIP3    H233181   3.132   2.541   0.182
11080TIP3   OH233182   0.530   3.435   0.796
11080TIP3    H133183   0.560   3.524   0.814
11080TIP3    H233184   0.515   3.397   0.883
11081TIP3   OH233185   3.815   1.507   0.393
11081TIP3    H133186   3.857   1.433   0.348
11081TIP3    H233187   3.878   1.578   0.385
11082TIP3   OH233188   1.356   1.326   0.456
11082TIP3    H133189   1.421   1.293   0.395
11082TIP3    H233190   1.272   1.314   0.410
11083TIP3   OH233191   0.315   4.035   6.134
11083TIP3    H133192   0.322   4.028   6.229
11083TIP3    H233193   0.281   3.951   6.105
11084TIP3   OH233194   2.374   3.946   4.879
11084TIP3    H133195   2.291   3.984   4.907
11084TIP3    H233196   2.390   3.874   4.940
11085TIP3   OH233197   3.192   2.876   5.936
11085TIP3    H133198   3.100   2.896   5.918
11085TIP3    H233199   3.206   2.904   6.026
11086TIP3   OH233200   3.499   0.088   1.950
11086TIP3    H133201   3.565   0.114   1.885
11086TIP3    H233202   3.525   0.000   1.976
11087TIP3   OH233203   5.793   2.953   0.773
11087TIP3    H133204   5.797   3.035   0.724
11087TIP3    H233205   5.735   2.972   0.846
11088TIP3   OH233206   6.934   6.126   2.079
11088TIP3    H133207   6.873   6.067   2.033
11088TIP3    H233208   6.887   6.209   2.084
11089TIP3   OH233209   0.304   2.906   3.794
11089TIP3    H133210   0.317   2.966   3.721
11089TIP3    H233211   0.230   2.942   3.842
11090TIP3   OH233212   7.592   4.960   0.650
11090TIP3    H133213   7.567   5.036   0.702
11090TIP3    H233214   7.578   4.987   0.560
11091TIP3   OH233215   8.242   6.964   1.494
11091TIP3    H133216   8.242   6.868   1.496
11091TIP3    H233217   8.170   6.987   1.435
11092TIP3   OH233218   4.549   5.498   0.745
11092TIP3    H133219   4.599   5.423   0.778
11092TIP3    H233220   4.464   5.461   0.721
11093TIP3   OH233221   7.556   7.187   3.757
11093TIP3    H133222   7.557   7.270   3.709
11093TIP3    H233223   7.645   7.179   3.792
11094TIP3   OH233224   0.687   4.396   0.188
11094TIP3    H133225   0.647   4.341   0.256
11094TIP3    H233226   0.613   4.433   0.141
11095TIP3   OH233227   8.082   1.068   3.275
11095TIP3    H133228   8.050   1.065   3.365
11095TIP3    H233229   8.105   1.160   3.261
11096TIP3   OH233230   6.248   6.394   5.286
11096TIP3    H133231   6.199   6.473   5.265
11096TIP3    H233232   6.199   6.323   5.245
11097TIP3   OH233233   7.716   0.518   1.902
11097TIP3    H133234   7.661   0.453   1.859
11097TIP3    H233235   7.657   0.591   1.919
11098TIP3   OH233236   2.899   7.017   3.945
11098TIP3    H133237   2.942   6.996   3.862
11098TIP3    H233238   2.970   7.020   4.009
11099TIP3   OH233239   0.838   3.025   4.422
11099TIP3    H133240   0.744   3.014   4.409
11099TIP3    H233241   0.863   2.954   4.480
11100TIP3   OH233242   4.345   3.780   3.257
11100TIP3    H133243   4.411   3.717   3.228
11100TIP3    H233244   4.262   3.735   3.243
11101TIP3   OH233245   6.338   1.855   4.804
11101TIP3    H133246   6.341   1.904   4.722
11101TIP3    H233247   6.359   1.765   4.780
11102TIP3   OH233248   4.442   2.713   4.326
11102TIP3    H133249   4.521   2.764   4.345
11102TIP3    H233250   4.372   2.778   4.322
11103TIP3   OH233251   4.285   5.102   6.755
11103TIP3    H133252   4.295   5.021   6.706
11103TIP3    H233253   4.340   5.165   6.709
11104TIP3   OH233254   1.198   5.181   4.503
11104TIP3    H133255   1.256   5.231   4.445
11104TIP3    H233256   1.129   5.149   4.445
11105TIP3   OH233257   6.081   3.746   2.239
11105TIP3    H133258   6.088   3.651   2.225
11105TIP3    H233259   6.141   3.784   2.175
11106TIP3   OH233260   3.392   2.577   6.522
11106TIP3    H133261   3.378   2.507   6.586
11106TIP3    H233262   3.360   2.540   6.439
11107TIP3   OH233263   7.084   7.526   3.707
11107TIP3    H133264   7.042   7.568   3.631
11107TIP3    H233265   7.046   7.438   3.710
11108TIP3   OH233266   0.933   6.923   1.651
11108TIP3    H133267   0.989   6.895   1.724
11108TIP3    H233268   0.844   6.910   1.683
11109TIP3   OH233269   4.165   6.763   1.801
11109TIP3    H133270   4.075   6.776   1.772
11109TIP3    H233271   4.168   6.805   1.887
11110TIP3   OH233272   4.768   6.501   0.067
11110TIP3    H133273   4.846   6.507   0.012
11110TIP3    H233274   4.752   6.407   0.075
11111TIP3   OH233275   5.224   2.941   5.671
11111TIP3    H133276   5.193   3.002   5.738
11111TIP3    H233277   5.178   2.859   5.689
11112TIP3   OH233278   7.169   7.108   2.919
11112TIP3    H133279   7.188   7.015   2.928
11112TIP3    H233280   7.226   7.150   2.983
11113TIP3   OH233281   4.345   7.490   4.581
11113TIP3    H133282   4.363   7.443   4.662
11113TIP3    H233283   4.249   7.490   4.575
11114TIP3   OH233284   8.248   7.503   4.858
11114TIP3    H133285   8.154   7.485   4.851
11114TIP3    H233286   8.267   7.558   4.782
11115TIP3   OH233287   5.922   3.970   6.253
11115TIP3    H133288   5.998   4.027   6.257
11115TIP3    H233289   5.958   3.881   6.254
11116TIP3   OH233290   7.786   5.716   0.236
11116TIP3    H133291   7.752   5.640   0.188
11116TIP3    H233292   7.828   5.679   0.313
11117TIP3   OH233293   5.252   6.822   6.285
11117TIP3    H133294   5.287   6.737   6.310
11117TIP3    H233295   5.159   6.816   6.306
11118TIP3   OH233296   2.696   4.451   2.514
11118TIP3    H133297   2.629   4.398   2.556
11118TIP3    H233298   2.650   4.497   2.443
11119TIP3   OH233299   2.120   0.546   5.852
11119TIP3    H133300   2.133   0.546   5.947
11119TIP3    H233301   2.028   0.566   5.840
11120TIP3   OH233302   3.472   1.520   1.748
11120TIP3    H133303   3.437   1.608   1.765
11120TIP3    H233304   3.397   1.462   1.762
11121TIP3   OH233305   0.979   0.079   0.047
11121TIP3    H133306   0.891   0.043   0.051
11121TIP3    H233307   1.036   0.004   0.029
11122TIP3   OH233308   2.967   2.085   3.473
11122TIP3    H133309   3.038   2.147   3.459
11122TIP3    H233310   3.004   2.000   3.447
11123TIP3   OH233311   3.594   0.201   2.877
11123TIP3    H133312   3.531   0.204   2.949
11123TIP3    H233313   3.573   0.278   2.823
11124TIP3   OH233314   5.472   3.296   1.101
11124TIP3    H133315   5.478   3.230   1.170
11124TIP3    H233316   5.528   3.368   1.132
11125TIP3   OH233317   3.607   5.034   0.502
11125TIP3    H133318   3.637   5.097   0.436
11125TIP3    H233319   3.641   4.950   0.471
11126TIP3   OH233320   6.004   5.065   6.658
11126TIP3    H133321   5.926   5.019   6.629
11126TIP3    H233322   6.000   5.150   6.614
11127TIP3   OH233323   1.446   0.825   3.211
11127TIP3    H133324   1.408   0.857   3.293
11127TIP3    H233325   1.533   0.865   3.209
11128TIP3   OH233326   0.897   0.974   1.257
11128TIP3    H133327   0.839   1.034   1.209
11128TIP3    H233328   0.978   0.976   1.207
11129TIP3   OH233329   4.709   2.206   3.786
11129TIP3    H133330   4.805   2.211   3.790
11129TIP3    H233331   4.679   2.296   3.797
11130TIP3   OH233332   4.472   0.976   1.763
11130TIP3    H133333   4.484   0.906   1.699
11130TIP3    H233334   4.443   1.051   1.712
11131TIP3   OH233335   1.731   0.260   0.391
11131TIP3    H133336   1.745   0.351   0.363
11131TIP3    H233337   1.817   0.220   0.386
11132TIP3   OH233338   0.786   3.208   2.524
11132TIP3    H133339   0.881   3.192   2.521
11132TIP3    H233340   0.758   3.205   2.433
11133TIP3   OH233341   8.039   1.977   2.918
11133TIP3    H133342   7.969   1.917   2.947
11133TIP3    H233343   7.998   2.063   2.920
11134TIP3   OH233344   6.533   5.318   6.685
11134TIP3    H133345   6.487   5.236   6.670
11134TIP3    H233346   6.496   5.351   6.767
11135TIP3   OH233347   3.371   6.319   2.381
11135TIP3    H133348   3.329   6.404   2.396
11135TIP3    H233349   3.388   6.317   2.287
11136TIP3   OH233350   2.573   4.890   3.705
11136TIP3    H133351   2.599   4.964   3.760
11136TIP3    H233352   2.490   4.860   3.743
11137TIP3   OH233353   1.551   6.260   4.723
11137TIP3    H133354   1.634   6.261   4.770
11137TIP3    H233355   1.542   6.170   4.692
11138TIP3   OH233356   6.187   4.808   3.085
11138TIP3    H133357   6.232   4.731   3.119
11138TIP3    H233358   6.257   4.862   3.048
11139TIP3   OH233359   3.006   2.068   1.965
11139TIP3    H133360   2.952   2.133   2.011
11139TIP3    H233361   3.096   2.096   1.981
11140TIP3   OH233362   0.731   3.648   5.686
11140TIP3    H133363   0.761   3.661   5.596
11140TIP3    H233364   0.760   3.726   5.733
11141TIP3   OH233365   0.351   3.636   3.774
11141TIP3    H133366   0.314   3.724   3.787
11141TIP3    H233367   0.412   3.625   3.848
11142TIP3   OH233368   8.026   4.363   1.065
11142TIP3    H133369   8.004   4.421   1.139
11142TIP3    H233370   7.941   4.335   1.031
11143TIP3   OH233371   6.769   4.448   2.086
11143TIP3    H133372   6.740   4.425   2.175
11143TIP3    H233373   6.864   4.461   2.095
11144TIP3   OH233374   2.336   2.035   3.381
11144TIP3    H133375   2.323   1.996   3.467
11144TIP3    H233376   2.418   2.084   3.390
11145TIP3   OH233377   0.159   3.259   3.292
11145TIP3    H133378   0.203   3.201   3.229
11145TIP3    H233379   0.118   3.326   3.238
11146TIP3   OH233380   3.260   6.265   5.824
11146TIP3    H133381   3.347   6.304   5.820
11146TIP3    H233382   3.229   6.267   5.733
11147TIP3   OH233383   5.168   4.079   5.708
11147TIP3    H133384   5.168   4.001   5.764
11147TIP3    H233385   5.261   4.098   5.695
11148TIP3   OH233386   2.986   2.847   2.337
11148TIP3    H133387   3.002   2.885   2.423
11148TIP3    H233388   3.059   2.787   2.323
11149TIP3   OH233389   7.411   1.612   4.214
11149TIP3    H133390   7.499   1.637   4.243
11149TIP3    H233391   7.416   1.518   4.199
11150TIP3   OH233392   1.675   3.805   2.295
11150TIP3    H133393   1.726   3.781   2.217
11150TIP3    H233394   1.658   3.721   2.339
11151TIP3   OH233395   6.667   7.267   3.966
11151TIP3    H133396   6.752   7.225   3.977
11151TIP3    H233397   6.651   7.313   4.048
11152TIP3   OH233398   5.547   6.417   5.082
11152TIP3    H133399   5.531   6.415   5.176
11152TIP3    H233400   5.623   6.474   5.072
11153TIP3   OH233401   7.650   1.846   4.365
11153TIP3    H133402   7.741   1.871   4.382
11153TIP3    H233403   7.623   1.903   4.293
11154TIP3   OH233404   0.463   6.607   3.586
11154TIP3    H133405   0.447   6.687   3.535
11154TIP3    H233406   0.558   6.598   3.587
11155TIP3   OH233407   6.862   5.578   2.921
11155TIP3    H133408   6.884   5.485   2.919
11155TIP3    H233409   6.877   5.608   2.831
11156TIP3   OH233410   5.268   4.861   0.239
11156TIP3    H133411   5.237   4.916   0.311
11156TIP3    H233412   5.190   4.814   0.210
11157TIP3   OH233413   2.096   7.393   1.195
11157TIP3    H133414   2.038   7.340   1.139
11157TIP3    H233415   2.170   7.415   1.138
11158TIP3   OH233416   0.606   5.385   1.714
11158TIP3    H133417   0.578   5.476   1.703
11158TIP3    H233418   0.552   5.336   1.653
11159TIP3   OH233419   3.494   6.111   3.224
11159TIP3    H133420   3.465   6.189   3.177
11159TIP3    H233421   3.519   6.143   3.311
11160TIP3   OH233422   0.112   4.898   4.265
11160TIP3    H133423   0.058   4.958   4.316
11160TIP3    H233424   0.189   4.950   4.240
11161TIP3   OH233425   2.588   3.006   4.468
11161TIP3    H133426   2.570   3.092   4.430
11161TIP3    H233427   2.593   3.022   4.562
11162TIP3   OH233428   7.161   7.393   1.243
11162TIP3    H133429   7.072   7.427   1.242
11162TIP3    H233430   7.217   7.470   1.246
11163TIP3   OH233431   0.579   2.650   1.206
11163TIP3    H133432   0.559   2.692   1.290
11163TIP3    H233433   0.606   2.561   1.230
11164TIP3   OH233434   3.062   3.468   0.950
11164TIP3    H133435   3.144   3.435   0.987
11164TIP3    H233436   3.054   3.557   0.984
11165TIP3   OH233437   0.840   6.555   1.548
11165TIP3    H133438   0.757   6.567   1.503
11165TIP3    H233439   0.901   6.613   1.502
11166TIP3   OH233440   4.739   4.905   4.111
11166TIP3    H133441   4.692   4.987   4.126
11166TIP3    H233442   4.819   4.930   4.065
11167TIP3   OH233443   3.214   1.342   0.121
11167TIP3    H133444   3.269   1.263   0.128
11167TIP3    H233445   3.256   1.394   0.052
11168TIP3   OH233446   8.240   7.756   6.450
11168TIP3    H133447   8.171   7.717   6.504
11168TIP3    H233448   8.320   7.711   6.477
11169TIP3   OH233449   0.240   6.839   6.339
11169TIP3    H133450   0.321   6.863   6.385
11169TIP3    H233451   0.241   6.891   6.260
11170TIP3   OH233452   7.294   6.154   4.008
11170TIP3    H133453   7.200   6.145   4.020
11170TIP3    H233454   7.323   6.206   4.083
11171TIP3   OH233455   0.345   3.604   5.451
11171TIP3    H133456   0.347   3.687   5.403
11171TIP3    H233457   0.374   3.627   5.539
11172TIP3   OH233458   3.948   6.283   3.406
11172TIP3    H133459   3.960   6.194   3.440
11172TIP3    H233460   3.877   6.275   3.343
11173TIP3   OH233461   4.679   0.450   5.578
11173TIP3    H133462   4.768   0.430   5.549
11173TIP3    H233463   4.665   0.541   5.551
11174TIP3   OH233464   6.387   1.581   4.709
11174TIP3    H133465   6.305   1.535   4.729
11174TIP3    H233466   6.394   1.576   4.614
11175TIP3   OH233467   7.740   0.839   1.103
11175TIP3    H133468   7.820   0.891   1.095
11175TIP3    H233469   7.769   0.749   1.107
11176TIP3   OH233470   6.553   5.233   1.903
11176TIP3    H133471   6.486   5.300   1.918
11176TIP3    H233472   6.570   5.238   1.809
11177TIP3   OH233473   2.505   3.274   1.505
11177TIP3    H133474   2.552   3.353   1.479
11177TIP3    H233475   2.488   3.227   1.423
11178TIP3   OH233476   2.291   4.607   2.367
11178TIP3    H133477   2.254   4.581   2.282
11178TIP3    H233478   2.250   4.548   2.430
11179TIP3   OH233479   0.814   3.523   1.475
11179TIP3    H133480   0.737   3.548   1.424
11179TIP3    H233481   0.792   3.546   1.565
11180TIP3   OH233482   8.222   4.626   2.571
11180TIP3    H133483   8.272   4.553   2.607
11180TIP3    H233484   8.176   4.588   2.496
11181TIP3   OH233485   2.639   6.198   2.949
11181TIP3    H133486   2.732   6.178   2.958
11181TIP3    H233487   2.625   6.206   2.854
11182TIP3   OH233488   4.533   6.635   5.312
11182TIP3    H133489   4.508   6.582   5.387
11182TIP3    H233490   4.457   6.691   5.296
11183TIP3   OH233491   2.402   0.189   4.409
11183TIP3    H133492   2.323   0.154   4.449
11183TIP3    H233493   2.462   0.204   4.482
11184TIP3   OH233494   3.155   6.573   0.475
11184TIP3    H133495   3.155   6.623   0.556
11184TIP3    H233496   3.113   6.631   0.411
11185TIP3   OH233497   3.140   5.555   2.901
11185TIP3    H133498   3.057   5.561   2.949
11185TIP3    H233499   3.200   5.611   2.951
11186TIP3   OH233500   4.624   4.503   2.698
11186TIP3    H133501   4.560   4.499   2.627
11186TIP3    H233502   4.705   4.471   2.659
11187TIP3   OH233503   2.024   3.156   1.224
11187TIP3    H133504   1.939   3.112   1.226
11187TIP3    H233505   2.023   3.215   1.299
11188TIP3   OH233506   2.704   6.794   2.488
11188TIP3    H133507   2.710   6.823   2.397
11188TIP3    H233508   2.676   6.873   2.536
11189TIP3   OH233509   7.925   5.381   4.378
11189TIP3    H133510   7.849   5.365   4.323
11189TIP3    H233511   7.940   5.298   4.423
11190TIP3   OH233512   5.136   6.883   0.428
11190TIP3    H133513   5.073   6.818   0.459
11190TIP3    H233514   5.085   6.941   0.372
11191TIP3   OH233515   3.891   5.620   3.620
11191TIP3    H133516   3.816   5.563   3.640
11191TIP3    H233517   3.957   5.594   3.684
11192TIP3   OH233518   2.077   3.699   5.580
11192TIP3    H133519   2.039   3.768   5.634
11192TIP3    H233520   2.002   3.661   5.534
11193TIP3   OH233521   5.373   0.171   2.081
11193TIP3    H133522   5.396   0.213   2.164
11193TIP3    H233523   5.428   0.093   2.078
11194TIP3   OH233524   0.520   2.856   2.951
11194TIP3    H133525   0.520   2.899   3.036
11194TIP3    H233526   0.609   2.869   2.918
11195TIP3   OH233527   0.441   3.615   0.261
11195TIP3    H133528   0.448   3.603   0.356
11195TIP3    H233529   0.463   3.707   0.247
11196TIP3   OH233530   6.741   4.230   3.191
11196TIP3    H133531   6.653   4.260   3.213
11196TIP3    H233532   6.761   4.274   3.108
11197TIP3   OH233533   5.994   3.904   1.861
11197TIP3    H133534   6.033   3.992   1.853
11197TIP3    H233535   6.064   3.851   1.900
11198TIP3   OH233536   6.634   4.145   1.523
11198TIP3    H133537   6.548   4.115   1.493
11198TIP3    H233538   6.696   4.089   1.477
11199TIP3   OH233539   4.337   7.623   3.938
11199TIP3    H133540   4.349   7.679   3.861
11199TIP3    H233541   4.301   7.542   3.903
11200TIP3   OH233542   1.087   7.587   0.532
11200TIP3    H133543   1.103   7.493   0.543
11200TIP3    H233544   1.167   7.629   0.563
11201TIP3   OH233545   2.215   3.506   4.967
11201TIP3    H133546   2.156   3.437   4.937
11201TIP3    H233547   2.302   3.465   4.965
11202TIP3   OH233548   0.197   7.803   5.366
11202TIP3    H133549   0.136   7.732   5.386
11202TIP3    H233550   0.194   7.811   5.271
11203TIP3   OH233551   2.850   0.715   6.692
11203TIP3    H133552   2.875   0.799   6.730
11203TIP3    H233553   2.875   0.651   6.759
11204TIP3   OH233554   6.808   2.585   3.043
11204TIP3    H133555   6.835   2.553   3.129
11204TIP3    H233556   6.879   2.561   2.984
11205TIP3   OH233557   6.189   6.190   6.458
11205TIP3    H133558   6.197   6.095   6.452
11205TIP3    H233559   6.258   6.224   6.401
11206TIP3   OH233560   1.291   6.832   5.342
11206TIP3    H133561   1.214   6.785   5.375
11206TIP3    H233562   1.361   6.767   5.341
11207TIP3   OH233563   7.866   4.032   6.000
11207TIP3    H133564   7.771   4.035   6.011
11207TIP3    H233565   7.888   4.111   5.951
11208TIP3   OH233566   1.050   4.572   0.432
11208TIP3    H133567   0.972   4.626   0.440
11208TIP3    H233568   1.091   4.577   0.519
11209TIP3   OH233569   2.687   4.298   3.776
11209TIP3    H133570   2.650   4.379   3.740
11209TIP3    H233571   2.648   4.228   3.724
11210TIP3   OH233572   4.212   2.079   0.110
11210TIP3    H133573   4.150   2.039   0.170
11210TIP3    H233574   4.162   2.097   0.031
11211TIP3   OH233575   0.083   4.388   1.890
11211TIP3    H133576   0.136   4.340   1.953
11211TIP3    H233577   0.147   4.434   1.835
11212TIP3   OH233578   4.557   6.573   1.291
11212TIP3    H133579   4.466   6.543   1.289
11212TIP3    H233580   4.591   6.543   1.375
11213TIP3   OH233581   2.393   5.850   5.688
11213TIP3    H133582   2.327   5.901   5.640
11213TIP3    H233583   2.376   5.870   5.780
11214TIP3   OH233584   6.180   0.181   4.659
11214TIP3    H133585   6.258   0.235   4.670
11214TIP3    H233586   6.148   0.204   4.572
11215TIP3   OH233587   4.980   7.105   1.380
11215TIP3    H133588   5.072   7.104   1.354
11215TIP3    H233589   4.934   7.063   1.308
11216TIP3   OH233590   7.394   1.158   2.932
11216TIP3    H133591   7.361   1.078   2.891
11216TIP3    H233592   7.486   1.163   2.905
11217TIP3   OH233593   6.022   1.974   4.869
11217TIP3    H133594   6.050   1.882   4.862
11217TIP3    H233595   5.929   1.972   4.848
11218TIP3   OH233596   6.635   7.405   2.026
11218TIP3    H133597   6.556   7.457   2.036
11218TIP3    H233598   6.678   7.440   1.949
11219TIP3   OH233599   7.256   7.625   1.016
11219TIP3    H133600   7.257   7.613   1.111
11219TIP3    H233601   7.173   7.669   0.998
11220TIP3   OH233602   3.549   4.733   5.648
11220TIP3    H133603   3.486   4.676   5.692
11220TIP3    H233604   3.537   4.819   5.689
11221TIP3   OH233605   2.610   3.320   5.446
11221TIP3    H133606   2.515   3.335   5.448
11221TIP3    H233607   2.621   3.252   5.379
11222TIP3   OH233608   0.874   3.344   3.830
11222TIP3    H133609   0.896   3.437   3.824
11222TIP3    H233610   0.888   3.310   3.742
11223TIP3   OH233611   2.405   7.118   1.009
11223TIP3    H133612   2.491   7.091   0.978
11223TIP3    H233613   2.392   7.206   0.973
11224TIP3   OH233614   3.609   6.824   6.285
11224TIP3    H133615   3.602   6.737   6.245
11224TIP3    H233616   3.563   6.882   6.224
11225TIP3   OH233617   6.309   7.824   0.307
11225TIP3    H133618   6.401   7.807   0.328
11225TIP3    H233619   6.261   7.795   0.385
11226TIP3   OH233620   4.428   0.538   4.238
11226TIP3    H133621   4.404   0.628   4.260
11226TIP3    H233622   4.384   0.522   4.154
11227TIP3   OH233623   5.576   5.829   4.410
11227TIP3    H133624   5.591   5.818   4.316
11227TIP3    H233625   5.488   5.795   4.425
11228TIP3   OH233626   6.984   4.476   0.782
11228TIP3    H133627   7.068   4.519   0.766
11228TIP3    H233628   6.995   4.433   0.866
11229TIP3   OH233629   5.513   1.480   3.362
11229TIP3    H133630   5.452   1.438   3.422
11229TIP3    H233631   5.552   1.551   3.412
11230TIP3   OH233632   4.296   6.240   3.209
11230TIP3    H133633   4.375   6.238   3.155
11230TIP3    H233634   4.225   6.258   3.147
11231TIP3   OH233635   4.128   6.513   1.997
11231TIP3    H133636   4.187   6.570   2.047
11231TIP3    H233637   4.186   6.464   1.940
11232TIP3   OH233638   1.841   7.166   6.721
11232TIP3    H133639   1.883   7.113   6.653
11232TIP3    H233640   1.807   7.243   6.674
11233TIP3   OH233641   2.323   4.236   4.198
11233TIP3    H133642   2.378   4.287   4.139
11233TIP3    H233643   2.326   4.284   4.281
11234TIP3   OH233644   0.169   6.817   1.936
11234TIP3    H133645   0.208   6.816   2.024
11234TIP3    H233646   0.184   6.906   1.904
11235TIP3   OH233647   0.546   6.079   5.868
11235TIP3    H133648   0.612   6.020   5.833
11235TIP3    H233649   0.575   6.166   5.842
11236TIP3   OH233650   2.332   4.554   5.710
11236TIP3    H133651   2.336   4.546   5.806
11236TIP3    H233652   2.345   4.465   5.678
11237TIP3   OH233653   3.327   6.253   3.630
11237TIP3    H133654   3.294   6.163   3.637
11237TIP3    H233655   3.418   6.243   3.602
11238TIP3   OH233656   4.243   1.599   1.075
11238TIP3    H133657   4.219   1.577   1.165
11238TIP3    H233658   4.320   1.655   1.083
11239TIP3   OH233659   5.506   7.746   0.526
11239TIP3    H133660   5.497   7.742   0.621
11239TIP3    H233661   5.445   7.680   0.493
11240TIP3   OH233662   2.390   0.221   2.048
11240TIP3    H133663   2.412   0.262   2.131
11240TIP3    H233664   2.446   0.144   2.044
11241TIP3   OH233665   7.815   1.232   1.119
11241TIP3    H133666   7.902   1.198   1.141
11241TIP3    H233667   7.755   1.169   1.158
11242TIP3   OH233668   7.618   6.849   0.813
11242TIP3    H133669   7.656   6.913   0.873
11242TIP3    H233670   7.525   6.849   0.834
11243TIP3   OH233671   2.991   3.075   4.074
11243TIP3    H133672   3.066   3.131   4.053
11243TIP3    H233673   3.008   2.993   4.026
11244TIP3   OH233674   8.244   7.161   1.678
11244TIP3    H133675   8.151   7.184   1.684
11244TIP3    H233676   8.251   7.109   1.599
11245TIP3   OH233677   3.235   3.398   0.498
11245TIP3    H133678   3.249   3.480   0.545
11245TIP3    H233679   3.175   3.348   0.553
11246TIP3   OH233680   4.650   1.416   2.211
11246TIP3    H133681   4.640   1.345   2.274
11246TIP3    H233682   4.607   1.491   2.253
11247TIP3   OH233683   3.617   0.545   2.338
11247TIP3    H133684   3.636   0.538   2.431
11247TIP3    H233685   3.523   0.560   2.333
11248TIP3   OH233686   2.990   5.530   5.604
11248TIP3    H133687   2.964   5.466   5.537
11248TIP3    H233688   3.076   5.500   5.633
11249TIP3   OH233689   3.834   4.733   4.606
11249TIP3    H133690   3.907   4.673   4.592
11249TIP3    H233691   3.798   4.747   4.519
11250TIP3   OH233692   3.073   7.677   4.548
11250TIP3    H133693   2.988   7.662   4.507
11250TIP3    H233694   3.134   7.623   4.498
11251TIP3   OH233695   2.896   7.727   5.830
11251TIP3    H133696   2.844   7.806   5.845
11251TIP3    H233697   2.986   7.758   5.825
11252TIP3   OH233698   4.847   3.481   1.389
11252TIP3    H133699   4.902   3.440   1.456
11252TIP3    H233700   4.774   3.420   1.377
11253TIP3   OH233701   4.848   1.901   0.160
11253TIP3    H133702   4.876   1.811   0.143
11253TIP3    H233703   4.836   1.939   0.074
11254TIP3   OH233704   4.201   5.686   2.891
11254TIP3    H133705   4.146   5.753   2.849
11254TIP3    H233706   4.278   5.735   2.920
11255TIP3   OH233707   7.105   6.873   4.746
11255TIP3    H133708   7.184   6.871   4.693
11255TIP3    H233709   7.137   6.870   4.837
11256TIP3   OH233710   2.902   1.760   3.835
11256TIP3    H133711   2.937   1.732   3.750
11256TIP3    H233712   2.909   1.855   3.833
11257TIP3   OH233713   0.232   7.621   2.710
11257TIP3    H133714   0.161   7.611   2.773
11257TIP3    H233715   0.310   7.590   2.757
11258TIP3   OH233716   2.621   2.346   2.019
11258TIP3    H133717   2.629   2.376   1.929
11258TIP3    H233718   2.536   2.379   2.048
11259TIP3   OH233719   0.351   3.015   2.487
11259TIP3    H133720   0.385   3.030   2.575
11259TIP3    H233721   0.280   2.952   2.498
11260TIP3   OH233722   5.706   2.976   4.627
11260TIP3    H133723   5.774   3.001   4.689
11260TIP3    H233724   5.736   2.893   4.590
11261TIP3   OH233725   3.748   1.405   5.182
11261TIP3    H133726   3.767   1.355   5.103
11261TIP3    H233727   3.673   1.459   5.159
11262TIP3   OH233728   0.680   3.080   6.375
11262TIP3    H133729   0.718   3.092   6.462
11262TIP3    H233730   0.684   3.166   6.335
11263TIP3   OH233731   5.283   5.252   1.846
11263TIP3    H133732   5.245   5.269   1.932
11263TIP3    H233733   5.377   5.241   1.864
11264TIP3   OH233734   6.232   1.383   3.983
11264TIP3    H133735   6.210   1.380   3.890
11264TIP3    H233736   6.154   1.349   4.027
11265TIP3   OH233737   4.835   6.812   3.218
11265TIP3    H133738   4.782   6.891   3.225
11265TIP3    H233739   4.919   6.842   3.185
11266TIP3   OH233740   0.211   0.881   1.864
11266TIP3    H133741   0.236   0.954   1.808
11266TIP3    H233742   0.124   0.904   1.896
11267TIP3   OH233743   4.073   7.581   0.351
11267TIP3    H133744   4.124   7.514   0.306
11267TIP3    H233745   4.115   7.664   0.327
11268TIP3   OH233746   7.466   4.825   4.155
11268TIP3    H133747   7.552   4.854   4.123
11268TIP3    H233748   7.450   4.742   4.109
11269TIP3   OH233749   0.687   5.554   6.567
11269TIP3    H133750   0.692   5.507   6.650
11269TIP3    H233751   0.779   5.569   6.542
11270TIP3   OH233752   8.133   3.759   1.204
11270TIP3    H133753   8.196   3.800   1.145
11270TIP3    H233754   8.125   3.821   1.277
11271TIP3   OH233755   1.550   5.729   0.773
11271TIP3    H133756   1.609   5.668   0.817
11271TIP3    H233757   1.462   5.697   0.793
11272TIP3   OH233758   3.252   5.024   3.327
11272TIP3    H133759   3.295   4.946   3.361
11272TIP3    H233760   3.159   5.008   3.342
11273TIP3   OH233761   7.394   1.375   3.434
11273TIP3    H133762   7.409   1.312   3.364
11273TIP3    H233763   7.428   1.458   3.400
11274TIP3   OH233764   6.204   5.509   3.109
11274TIP3    H133765   6.297   5.530   3.103
11274TIP3    H233766   6.177   5.490   3.019
11275TIP3   OH233767   7.419   7.459   5.120
11275TIP3    H133768   7.486   7.445   5.188
11275TIP3    H233769   7.336   7.462   5.168
11276TIP3   OH233770   1.233   5.855   3.016
11276TIP3    H133771   1.195   5.878   3.101
11276TIP3    H233772   1.292   5.927   2.995
11277TIP3   OH233773   1.589   0.055   3.199
11277TIP3    H133774   1.496   0.039   3.214
11277TIP3    H233775   1.630  -0.030   3.214
11278TIP3   OH233776   1.964   0.299   1.437
11278TIP3    H133777   1.919   0.243   1.375
11278TIP3    H233778   1.894   0.347   1.482
11279TIP3   OH233779   7.247  -0.036   2.306
11279TIP3    H133780   7.255  -0.020   2.212
11279TIP3    H233781   7.304   0.030   2.346
11280TIP3   OH233782   2.873   5.850   4.112
11280TIP3    H133783   2.883   5.891   4.026
11280TIP3    H233784   2.930   5.900   4.170
11281TIP3   OH233785   1.206   2.195   4.491
11281TIP3    H133786   1.183   2.102   4.483
11281TIP3    H233787   1.229   2.206   4.583
11282TIP3   OH233788   1.175   4.777   5.789
11282TIP3    H133789   1.131   4.749   5.869
11282TIP3    H233790   1.210   4.864   5.809
11283TIP3   OH233791   6.417   3.754   5.889
11283TIP3    H133792   6.493   3.697   5.895
11283TIP3    H233793   6.373   3.745   5.974
11284TIP3   OH233794   5.474   0.071   4.658
11284TIP3    H133795   5.523   0.108   4.731
11284TIP3    H233796   5.477  -0.024   4.673
11285TIP3   OH233797   0.273   1.410   0.545
11285TIP3    H133798   0.363   1.431   0.566
11285TIP3    H233799   0.233   1.387   0.628
11286TIP3   OH233800   4.155   4.239   0.314
11286TIP3    H133801   4.111   4.321   0.335
11286TIP3    H233802   4.145   4.230   0.219
11287TIP3   OH233803   5.645   3.247   4.125
11287TIP3    H133804   5.664   3.272   4.035
11287TIP3    H233805   5.578   3.179   4.117
11288TIP3   OH233806   8.040   3.768   4.775
11288TIP3    H133807   7.972   3.716   4.817
11288TIP3    H233808   7.999   3.803   4.696
11289TIP3   OH233809   7.837   4.534   6.101
11289TIP3    H133810   7.930   4.525   6.082
11289TIP3    H233811   7.826   4.495   6.188
11290TIP3   OH233812   7.969   0.468   2.918
11290TIP3    H133813   7.889   0.458   2.969
11290TIP3    H233814   7.994   0.378   2.894
11291TIP3   OH233815   4.992   4.301   4.579
11291TIP3    H133816   5.037   4.371   4.627
11291TIP3    H233817   4.919   4.277   4.636
11292TIP3   OH233818   0.402   2.177   3.072
11292TIP3    H133819   0.311   2.189   3.047
11292TIP3    H233820   0.436   2.266   3.083
11293TIP3   OH233821   5.052   0.378   2.342
11293TIP3    H133822   5.129   0.407   2.393
11293TIP3    H233823   5.071   0.287   2.320
11294TIP3   OH233824   4.333   3.341   0.457
11294TIP3    H133825   4.397   3.271   0.467
11294TIP3    H233826   4.256   3.299   0.419
11295TIP3   OH233827   6.859   1.660   0.800
11295TIP3    H133828   6.947   1.696   0.789
11295TIP3    H233829   6.873   1.575   0.841
11296TIP3   OH233830   4.871   2.353   4.152
11296TIP3    H133831   4.816   2.276   4.167
11296TIP3    H233832   4.820   2.407   4.092
11297TIP3   OH233833   6.084   6.890   6.058
11297TIP3    H133834   6.033   6.907   5.979
11297TIP3    H233835   6.159   6.948   6.051
11298TIP3   OH233836   6.786   3.553   6.238
11298TIP3    H133837   6.858   3.615   6.229
11298TIP3    H233838   6.825   3.478   6.284
11299TIP3   OH233839   0.735   0.063   5.413
11299TIP3    H133840   0.711   0.061   5.320
11299TIP3    H233841   0.777  -0.021   5.429
11300TIP3   OH233842   4.172   3.888   0.087
11300TIP3    H133843   4.225   3.907   0.164
11300TIP3    H233844   4.214   3.937   0.016
11301TIP3   OH233845   0.599   0.654   1.551
11301TIP3    H133846   0.525   0.712   1.569
11301TIP3    H233847   0.673   0.695   1.595
11302TIP3   OH233848   0.144   2.692   5.853
11302TIP3    H133849   0.118   2.772   5.899
11302TIP3    H233850   0.212   2.721   5.792
11303TIP3   OH233851   0.962   3.767   6.689
11303TIP3    H133852   1.027   3.728   6.747
11303TIP3    H233853   0.989   3.858   6.679
11304TIP3   OH233854   3.545   5.863   4.703
11304TIP3    H133855   3.471   5.909   4.742
11304TIP3    H233856   3.611   5.930   4.687
11305TIP3   OH233857   4.675   3.137   5.406
11305TIP3    H133858   4.769   3.147   5.398
11305TIP3    H233859   4.652   3.183   5.487
11306TIP3   OH233860   3.956   4.351   3.164
11306TIP3    H133861   4.034   4.295   3.158
11306TIP3    H233862   3.956   4.382   3.254
11307TIP3   OH233863   4.219   7.811   1.967
11307TIP3    H133864   4.198   7.810   1.873
11307TIP3    H233865   4.141   7.848   2.008
11308TIP3   OH233866   8.201   2.520   5.527
11308TIP3    H133867   8.223   2.613   5.522
11308TIP3    H233868   8.277   2.479   5.567
11309TIP3   OH233869   0.304   6.313   3.493
11309TIP3    H133870   0.238   6.375   3.526
11309TIP3    H233871   0.253   6.238   3.463
11310TIP3   OH233872   7.664   3.464   1.287
11310TIP3    H133873   7.700   3.391   1.236
11310TIP3    H233874   7.737   3.525   1.297
11311TIP3   OH233875   5.240   5.778   4.184
11311TIP3    H133876   5.219   5.823   4.102
11311TIP3    H233877   5.281   5.696   4.156
11312TIP3   OH233878   6.771   6.009   5.033
11312TIP3    H133879   6.710   5.940   5.006
11312TIP3    H233880   6.853   5.963   5.051
11313TIP3   OH233881   6.561   5.533   6.098
11313TIP3    H133882   6.632   5.586   6.135
11313TIP3    H233883   6.536   5.579   6.018
11314TIP3   OH233884   0.002   0.046   6.519
11314TIP3    H133885   0.036   0.134   6.507
11314TIP3    H233886   0.026  -0.001   6.439
11315TIP3   OH233887   6.253   3.678   5.505
11315TIP3    H133888   6.337   3.667   5.460
11315TIP3    H233889   6.244   3.773   5.515
11316TIP3   OH233890   0.995   7.014   1.373
11316TIP3    H133891   0.907   6.982   1.352
11316TIP3    H233892   0.998   7.013   1.469
11317TIP3   OH233893   4.677   2.496   4.013
11317TIP3    H133894   4.654   2.524   3.925
11317TIP3    H233895   4.603   2.525   4.067
11318TIP3   OH233896   4.935   4.754   1.343
11318TIP3    H133897   4.998   4.786   1.278
11318TIP3    H233898   4.955   4.661   1.352
11319TIP3   OH233899   3.950   5.144   4.161
11319TIP3    H133900   3.998   5.221   4.190
11319TIP3    H233901   3.956   5.147   4.065
11320TIP3   OH233902   2.702   0.130   2.908
11320TIP3    H133903   2.728   0.155   2.997
11320TIP3    H233904   2.733   0.202   2.853
11321TIP3   OH233905   6.413   6.274   6.263
11321TIP3    H133906   6.386   6.362   6.237
11321TIP3    H233907   6.426   6.227   6.181
11322TIP3   OH233908   4.967   1.738   0.693
11322TIP3    H133909   4.912   1.693   0.756
11322TIP3    H233910   5.056   1.708   0.712
11323TIP3   OH233911   8.244   5.953   3.897
11323TIP3    H133912   8.290   5.902   3.830
11323TIP3    H233913   8.310   6.013   3.931
11324TIP3   OH233914   2.033   6.551   6.415
11324TIP3    H133915   2.066   6.510   6.496
11324TIP3    H233916   1.986   6.480   6.371
11325TIP3   OH233917   6.674   6.200   0.518
11325TIP3    H133918   6.685   6.290   0.547
11325TIP3    H233919   6.673   6.149   0.599
11326TIP3   OH233920   4.981   2.171   3.838
11326TIP3    H133921   4.995   2.131   3.923
11326TIP3    H233922   5.013   2.106   3.775
11327TIP3   OH233923   0.155   1.329   5.325
11327TIP3    H133924   0.098   1.337   5.401
11327TIP3    H233925   0.243   1.344   5.360
11328TIP3   OH233926   3.013   7.311   2.729
11328TIP3    H133927   3.091   7.262   2.757
11328TIP3    H233928   3.022   7.396   2.773
11329TIP3   OH233929   7.641   1.440   4.566
11329TIP3    H133930   7.615   1.523   4.607
11329TIP3    H233931   7.574   1.378   4.593
11330TIP3   OH233932   3.907   6.532   1.519
11330TIP3    H133933   3.975   6.487   1.470
11330TIP3    H233934   3.908   6.491   1.606
11331TIP3   OH233935   6.015   7.007   3.249
11331TIP3    H133936   5.957   7.084   3.253
11331TIP3    H233937   5.976   6.951   3.183
11332TIP3   OH233938   2.362   1.111   6.579
11332TIP3    H133939   2.450   1.072   6.578
11332TIP3    H233940   2.315   1.065   6.510
11333TIP3   OH233941   5.363   1.935   0.420
11333TIP3    H133942   5.408   1.906   0.341
11333TIP3    H233943   5.290   1.987   0.388
11334TIP3   OH233944   3.977   2.777   6.411
11334TIP3    H133945   4.009   2.861   6.442
11334TIP3    H233946   4.047   2.715   6.431
11335TIP3   OH233947   0.879   5.999   6.752
11335TIP3    H133948   0.819   5.936   6.711
11335TIP3    H233949   0.927   6.038   6.679
11336TIP3   OH233950   7.306   2.666   0.962
11336TIP3    H133951   7.395   2.660   0.996
11336TIP3    H233952   7.250   2.656   1.040
11337TIP3   OH233953   3.346   0.309   4.156
11337TIP3    H133954   3.410   0.293   4.225
11337TIP3    H233955   3.399   0.342   4.082
11338TIP3   OH233956   4.413   2.532   5.637
11338TIP3    H133957   4.391   2.625   5.625
11338TIP3    H233958   4.500   2.524   5.599
11339TIP3   OH233959   0.101   3.508   0.532
11339TIP3    H133960   0.052   3.426   0.540
11339TIP3    H233961   0.058   3.568   0.593
11340TIP3   OH233962   6.526   3.395   1.480
11340TIP3    H133963   6.473   3.474   1.473
11340TIP3    H233964   6.599   3.409   1.419
11341TIP3   OH233965   4.262   1.892   3.203
11341TIP3    H133966   4.180   1.909   3.249
11341TIP3    H233967   4.288   1.977   3.169
11342TIP3   OH233968   4.625   4.780   1.783
11342TIP3    H133969   4.617   4.765   1.689
11342TIP3    H233970   4.708   4.828   1.793
11343TIP3   OH233971   8.027   7.488   0.962
11343TIP3    H133972   8.077   7.566   0.986
11343TIP3    H233973   8.005   7.446   1.046
11344TIP3   OH233974   7.809   0.612   3.590
11344TIP3    H133975   7.834   0.544   3.527
11344TIP3    H233976   7.716   0.627   3.572
11345TIP3   OH233977   6.356   4.455   5.468
11345TIP3    H133978   6.372   4.381   5.526
11345TIP3    H233979   6.262   4.471   5.474
11346TIP3   OH233980   5.640   7.341   1.028
11346TIP3    H133981   5.711   7.363   0.968
11346TIP3    H233982   5.682   7.291   1.098
11347TIP3   OH233983   5.933   4.849   1.179
11347TIP3    H133984   5.897   4.766   1.209
11347TIP3    H233985   5.888   4.866   1.096
11348TIP3   OH233986   7.338   6.679   0.163
11348TIP3    H133987   7.258   6.708   0.209
11348TIP3    H233988   7.313   6.598   0.119
11349TIP3   OH233989   2.894   3.937   1.148
11349TIP3    H133990   2.859   3.976   1.068
11349TIP3    H233991   2.940   4.008   1.191
11350TIP3   OH233992   1.821   4.715   5.732
11350TIP3    H133993   1.789   4.636   5.689
11350TIP3    H233994   1.912   4.723   5.703
11351TIP3   OH233995   3.752   3.888   1.171
11351TIP3    H133996   3.673   3.866   1.220
11351TIP3    H233997   3.815   3.917   1.237
11352TIP3   OH233998   5.339   6.214   5.578
11352TIP3    H133999   5.297   6.131   5.556
11352TIP3    H234000   5.270   6.267   5.617
11353TIP3   OH234001   7.807   4.403   1.486
11353TIP3    H134002   7.870   4.333   1.506
11353TIP3    H234003   7.724   4.372   1.523
11354TIP3   OH234004   2.942   2.968   3.267
11354TIP3    H134005   2.850   2.987   3.247
11354TIP3    H234006   2.981   3.054   3.280
11355TIP3   OH234007   5.526   1.518   0.009
11355TIP3    H134008   5.593   1.506   0.076
11355TIP3    H234009   5.500   1.429  -0.015
11356TIP3   OH234010   4.687   6.732   1.124
11356TIP3    H134011   4.628   6.677   1.175
11356TIP3    H234012   4.775   6.700   1.148
11357TIP3   OH234013   1.929   0.809   4.833
11357TIP3    H134014   1.880   0.816   4.751
11357TIP3    H234015   1.862   0.804   4.901
11358TIP3   OH234016   6.465   4.958   0.263
11358TIP3    H134017   6.441   5.026   0.326
11358TIP3    H234018   6.433   4.991   0.179
11359TIP3   OH234019   3.506   0.797   0.900
11359TIP3    H134020   3.451   0.874   0.906
11359TIP3    H234021   3.585   0.827   0.855
11360TIP3   OH234022   6.975   5.207   6.123
11360TIP3    H134023   6.993   5.294   6.159
11360TIP3    H234024   6.944   5.156   6.198
11361TIP3   OH234025   4.879   6.496   5.653
11361TIP3    H134026   4.897   6.414   5.699
11361TIP3    H234027   4.823   6.471   5.580
11362TIP3   OH234028   5.219   4.496   4.388
11362TIP3    H134029   5.241   4.584   4.418
11362TIP3    H234030   5.123   4.494   4.389
11363TIP3   OH234031   2.821   3.820   5.230
11363TIP3    H134032   2.892   3.761   5.256
11363TIP3    H234033   2.786   3.781   5.150
11364TIP3   OH234034   5.099   1.519   2.484
11364TIP3    H134035   5.005   1.519   2.467
11364TIP3    H234036   5.114   1.598   2.537
11365TIP3   OH234037   0.295   7.004   6.113
11365TIP3    H134038   0.372   7.047   6.151
11365TIP3    H234039   0.270   7.060   6.040
11366TIP3   OH234040   2.331   1.133   1.810
11366TIP3    H134041   2.402   1.078   1.776
11366TIP3    H234042   2.374   1.207   1.852
11367TIP3   OH234043   8.259   7.363   3.583
11367TIP3    H134044   8.212   7.360   3.499
11367TIP3    H234045   8.309   7.445   3.579
11368TIP3   OH234046   7.334   3.340   0.242
11368TIP3    H134047   7.319   3.354   0.148
11368TIP3    H234048   7.379   3.420   0.271
11369TIP3   OH234049   3.166   0.980   5.761
11369TIP3    H134050   3.256   1.012   5.751
11369TIP3    H234051   3.175   0.885   5.762
11370TIP3   OH234052   1.256   7.463   1.260
11370TIP3    H134053   1.160   7.466   1.255
11370TIP3    H234054   1.275   7.404   1.332
11371TIP3   OH234055   8.005   5.606   5.275
11371TIP3    H134056   7.919   5.571   5.296
11371TIP3    H234057   8.032   5.653   5.354
11372TIP3   OH234058   7.254   7.651   1.787
11372TIP3    H134059   7.231   7.731   1.835
11372TIP3    H234060   7.173   7.625   1.744
11373TIP3   OH234061   6.817   3.753   5.433
11373TIP3    H134062   6.835   3.830   5.379
11373TIP3    H234063   6.896   3.699   5.423
11374TIP3   OH234064   6.596   0.903   5.761
11374TIP3    H134065   6.581   0.809   5.762
11374TIP3    H234066   6.510   0.942   5.775
11375TIP3   OH234067   1.268   6.138   6.388
11375TIP3    H134068   1.288   6.045   6.376
11375TIP3    H234069   1.304   6.180   6.310
11376TIP3   OH234070   0.908   1.055   5.465
11376TIP3    H134071   0.912   1.131   5.524
11376TIP3    H234072   0.985   1.064   5.409
11377TIP3   OH234073   6.004   6.001   1.324
11377TIP3    H134074   6.078   5.945   1.348
11377TIP3    H234075   5.930   5.967   1.375
11378TIP3   OH234076   1.687   2.214   1.887
11378TIP3    H134077   1.629   2.156   1.836
11378TIP3    H234078   1.635   2.239   1.963
11379TIP3   OH234079  -0.021   2.163   2.197
11379TIP3    H134080   0.032   2.160   2.277
11379TIP3    H234081  -0.037   2.257   2.182
11380TIP3   OH234082   4.207   6.893   3.673
11380TIP3    H134083   4.223   6.913   3.765
11380TIP3    H234084   4.287   6.849   3.644
11381TIP3   OH234085   4.382   2.960   0.587
11381TIP3    H134086   4.300   3.001   0.560
11381TIP3    H234087   4.434   2.955   0.507
11382TIP3   OH234088   7.390   7.536   6.266
11382TIP3    H134089   7.463   7.585   6.229
11382TIP3    H234090   7.337   7.601   6.311
11383TIP3   OH234091   7.463   1.513   5.967
11383TIP3    H134092   7.485   1.522   5.874
11383TIP3    H234093   7.391   1.575   5.980
11384TIP3   OH234094   5.309   7.423   0.003
11384TIP3    H134095   5.402   7.421  -0.017
11384TIP3    H234096   5.303   7.390   0.093
11385TIP3   OH234097   0.425   2.188   4.389
11385TIP3    H134098   0.463   2.100   4.391
11385TIP3    H234099   0.354   2.182   4.326
11386TIP3   OH234100   5.313   5.535   2.617
11386TIP3    H134101   5.244   5.601   2.606
11386TIP3    H234102   5.394   5.586   2.622
11387TIP3   OH234103   7.964   3.306   3.715
11387TIP3    H134104   7.906   3.310   3.791
11387TIP3    H234105   7.906   3.314   3.640
11388TIP3   OH234106   3.016   6.524   4.364
11388TIP3    H134107   3.019   6.468   4.287
11388TIP3    H234108   3.058   6.605   4.336
11389TIP3   OH234109   4.897   0.869   0.178
11389TIP3    H134110   4.866   0.789   0.221
11389TIP3    H234111   4.908   0.844   0.086
11390TIP3   OH234112   2.261   7.673   4.134
11390TIP3    H134113   2.272   7.606   4.201
11390TIP3    H234114   2.188   7.727   4.166
11391TIP3   OH234115   6.395   5.985   4.826
11391TIP3    H134116   6.459   6.057   4.828
11391TIP3    H234117   6.403   5.945   4.913
11392TIP3   OH234118   2.866   5.362   6.249
11392TIP3    H134119   2.953   5.343   6.284
11392TIP3    H234120   2.874   5.452   6.216
11393TIP3   OH234121   7.953   1.045   0.630
11393TIP3    H134122   7.899   1.084   0.698
11393TIP3    H234123   7.896   1.041   0.553
11394TIP3   OH234124   5.688   0.863   3.944
11394TIP3    H134125   5.621   0.879   3.878
11394TIP3    H234126   5.639   0.860   4.027
11395TIP3   OH234127   5.989   4.188   2.106
11395TIP3    H134128   6.072   4.167   2.150
11395TIP3    H234129   6.007   4.176   2.013
11396TIP3   OH234130   5.758   3.887   5.431
11396TIP3    H134131   5.791   3.892   5.342
11396TIP3    H234132   5.830   3.849   5.482
11397TIP3   OH234133   3.313   0.949   4.606
11397TIP3    H134134   3.330   0.858   4.628
11397TIP3    H234135   3.285   0.989   4.688
11398TIP3   OH234136   3.115   6.671   0.726
11398TIP3    H134137   3.065   6.737   0.774
11398TIP3    H234138   3.073   6.588   0.749
11399TIP3   OH234139   0.930   5.739   0.485
11399TIP3    H134140   0.970   5.661   0.523
11399TIP3    H234141   0.855   5.757   0.541
11400TIP3   OH234142   2.216   1.367   3.635
11400TIP3    H134143   2.188   1.456   3.655
11400TIP3    H234144   2.205   1.318   3.717
11401TIP3   OH234145   5.125   4.127   0.031
11401TIP3    H134146   5.208   4.160   0.064
11401TIP3    H234147   5.077   4.099   0.109
11402TIP3   OH234148   5.950   7.298   3.800
11402TIP3    H134149   6.007   7.247   3.742
11402TIP3    H234150   5.927   7.375   3.748
11403TIP3   OH234151   6.180   0.095   6.741
11403TIP3    H134152   6.171   0.072   6.649
11403TIP3    H234153   6.249   0.162   6.742
11404TIP3   OH234154   0.781   0.661   2.183
11404TIP3    H134155   0.796   0.621   2.268
11404TIP3    H234156   0.857   0.717   2.169
11405TIP3   OH234157   0.109   0.938   3.619
11405TIP3    H134158   0.073   0.855   3.651
11405TIP3    H234159   0.190   0.913   3.573
11406TIP3   OH234160   4.324   0.318   3.844
11406TIP3    H134161   4.366   0.242   3.804
11406TIP3    H234162   4.269   0.281   3.914
11407TIP3   OH234163   0.525   1.606   5.536
11407TIP3    H134164   0.457   1.644   5.480
11407TIP3    H234165   0.532   1.668   5.609
11408TIP3   OH234166   7.484   0.632   0.905
11408TIP3    H134167   7.573   0.666   0.892
11408TIP3    H234168   7.448   0.685   0.976
11409TIP3   OH234169   2.393   6.411   0.088
11409TIP3    H134170   2.378   6.458   0.006
11409TIP3    H234171   2.308   6.411   0.132
11410TIP3   OH234172   2.162   6.919   2.567
11410TIP3    H134173   2.150   6.872   2.485
11410TIP3    H234174   2.074   6.928   2.603
11411TIP3   OH234175   7.258   5.001   1.168
11411TIP3    H134176   7.289   4.995   1.078
11411TIP3    H234177   7.315   4.942   1.217
11412TIP3   OH234178   6.269   0.956   5.719
11412TIP3    H134179   6.215   0.881   5.697
11412TIP3    H234180   6.254   0.971   5.812
11413TIP3   OH234181   7.210   2.499   0.755
11413TIP3    H134182   7.233   2.549   0.834
11413TIP3    H234183   7.208   2.564   0.685
11414TIP3   OH234184   7.954   7.385   3.034
11414TIP3    H134185   8.032   7.426   2.998
11414TIP3    H234186   7.885   7.449   3.023
11415TIP3   OH234187   2.620   5.270   6.180
11415TIP3    H134188   2.700   5.322   6.194
11415TIP3    H234189   2.647   5.180   6.198
11416TIP3   OH234190   1.832   1.462   1.007
11416TIP3    H134191   1.916   1.447   1.051
11416TIP3    H234192   1.857   1.493   0.920
11417TIP3   OH234193   3.053   1.771   1.008
11417TIP3    H134194   3.096   1.759   1.093
11417TIP3    H234195   3.007   1.689   0.993
11418TIP3   OH234196   7.192   2.807   5.604
11418TIP3    H134197   7.101   2.790   5.626
11418TIP3    H234198   7.235   2.722   5.613
11419TIP3   OH234199   2.768   2.586   6.590
11419TIP3    H134200   2.746   2.500   6.624
11419TIP3    H234201   2.712   2.647   6.638
11420TIP3   OH234202   4.647   1.957   2.429
11420TIP3    H134203   4.576   2.009   2.392
11420TIP3    H234204   4.694   1.924   2.353
11421TIP3   OH234205   7.480   0.321   0.059
11421TIP3    H134206   7.464   0.247   0.117
11421TIP3    H234207   7.566   0.305   0.021
11422TIP3   OH234208   4.393   2.732   0.975
11422TIP3    H134209   4.366   2.695   0.891
11422TIP3    H234210   4.487   2.714   0.980
11423TIP3   OH234211   3.779   0.954   4.389
11423TIP3    H134212   3.695   0.935   4.431
11423TIP3    H234213   3.837   0.980   4.461
11424TIP3   OH234214   1.241   1.943   1.248
11424TIP3    H134215   1.287   2.020   1.217
11424TIP3    H234216   1.269   1.932   1.338
11425TIP3   OH234217   2.662   4.876   5.519
11425TIP3    H134218   2.651   4.865   5.425
11425TIP3    H234219   2.574   4.902   5.550
11426TIP3   OH234220   4.230   6.323   6.133
11426TIP3    H134221   4.184   6.264   6.074
11426TIP3    H234222   4.321   6.319   6.106
11427TIP3   OH234223   5.623   1.077   2.184
11427TIP3    H134224   5.586   1.156   2.146
11427TIP3    H234225   5.655   1.105   2.270
11428TIP3   OH234226   4.511   5.289   1.896
11428TIP3    H134227   4.577   5.221   1.908
11428TIP3    H234228   4.471   5.299   1.982
11429TIP3   OH234229   0.280   0.184   0.521
11429TIP3    H134230   0.204   0.236   0.546
11429TIP3    H234231   0.326   0.238   0.457
11430TIP3   OH234232   7.567   4.359   5.082
11430TIP3    H134233   7.475   4.379   5.094
11430TIP3    H234234   7.569   4.265   5.063
11431TIP3   OH234235   0.999   4.156   5.851
11431TIP3    H134236   1.070   4.108   5.894
11431TIP3    H234237   0.937   4.174   5.922
11432TIP3   OH234238   2.262   5.254   2.397
11432TIP3    H134239   2.293   5.249   2.306
11432TIP3    H234240   2.266   5.164   2.429
11433TIP3   OH234241   2.032   0.456   2.126
11433TIP3    H134242   2.124   0.475   2.141
11433TIP3    H234243   2.027   0.360   2.128
11434TIP3   OH234244   5.517   4.702   1.782
11434TIP3    H134245   5.449   4.737   1.839
11434TIP3    H234246   5.548   4.623   1.827
11435TIP3   OH234247   7.324   7.602   0.490
11435TIP3    H134248   7.294   7.556   0.411
11435TIP3    H234249   7.383   7.540   0.532
11436TIP3   OH234250   6.737   1.672   6.298
11436TIP3    H134251   6.704   1.759   6.324
11436TIP3    H234252   6.664   1.613   6.317
11437TIP3   OH234253   0.674   1.583   4.327
11437TIP3    H134254   0.598   1.621   4.284
11437TIP3    H234255   0.637   1.517   4.386
11438TIP3   OH234256   5.563   4.427   1.898
11438TIP3    H134257   5.635   4.436   1.961
11438TIP3    H234258   5.570   4.336   1.868
11439TIP3   OH234259   3.764   3.882   6.395
11439TIP3    H134260   3.678   3.867   6.355
11439TIP3    H234261   3.750   3.954   6.456
11440TIP3   OH234262   7.718   6.736   2.459
11440TIP3    H134263   7.692   6.658   2.410
11440TIP3    H234264   7.769   6.789   2.397
11441TIP3   OH234265   0.682   0.746   2.519
11441TIP3    H134266   0.589   0.746   2.543
11441TIP3    H234267   0.714   0.660   2.547
11442TIP3   OH234268   4.428   1.285   0.786
11442TIP3    H134269   4.336   1.308   0.778
11442TIP3    H234270   4.452   1.253   0.700
11443TIP3   OH234271   4.555   1.394   5.420
11443TIP3    H134272   4.526   1.470   5.369
11443TIP3    H234273   4.651   1.403   5.423
11444TIP3   OH234274   2.487   3.925   3.090
11444TIP3    H134275   2.415   3.878   3.049
11444TIP3    H234276   2.477   4.015   3.061
11445TIP3   OH234277   5.368   2.305   4.189
11445TIP3    H134278   5.443   2.321   4.132
11445TIP3    H234279   5.396   2.235   4.247
11446TIP3   OH234280   5.010   2.434   5.560
11446TIP3    H134281   5.004   2.525   5.590
11446TIP3    H234282   4.923   2.398   5.578
11447TIP3   OH234283   2.353   1.391   1.319
11447TIP3    H134284   2.343   1.483   1.345
11447TIP3    H234285   2.405   1.352   1.389
11448TIP3   OH234286   7.658   4.011   4.213
11448TIP3    H134287   7.574   3.984   4.248
11448TIP3    H234288   7.702   4.055   4.287
11449TIP3   OH234289   8.018   1.961   3.264
11449TIP3    H134290   8.111   1.944   3.274
11449TIP3    H234291   8.011   2.057   3.262
11450TIP3   OH234292   1.489   7.321   6.663
11450TIP3    H134293   1.559   7.371   6.620
11450TIP3    H234294   1.497   7.346   6.756
11451TIP3   OH234295   7.623   0.413   4.173
11451TIP3    H134296   7.688   0.415   4.103
11451TIP3    H234297   7.579   0.498   4.168
11452TIP3   OH234298   0.627   3.795   1.792
11452TIP3    H134299   0.634   3.709   1.835
11452TIP3    H234300   0.704   3.800   1.736
11453TIP3   OH234301   5.346   6.449   1.806
11453TIP3    H134302   5.433   6.481   1.828
11453TIP3    H234303   5.360   6.389   1.733
11454TIP3   OH234304   3.628   5.969   6.241
11454TIP3    H134305   3.566   5.935   6.305
11454TIP3    H234306   3.577   5.980   6.161
11455TIP3   OH234307   1.490   3.135   6.212
11455TIP3    H134308   1.477   3.052   6.257
11455TIP3    H234309   1.420   3.192   6.246
11456TIP3   OH234310   3.692   1.243   3.009
11456TIP3    H134311   3.683   1.186   3.085
11456TIP3    H234312   3.676   1.331   3.043
11457TIP3   OH234313   2.124   5.226   0.298
11457TIP3    H134314   2.187   5.292   0.327
11457TIP3    H234315   2.072   5.270   0.231
11458TIP3   OH234316   0.509   4.349   2.043
11458TIP3    H134317   0.564   4.284   2.085
11458TIP3    H234318   0.558   4.431   2.050
11459TIP3   OH234319   7.460   1.539   2.006
11459TIP3    H134320   7.549   1.566   1.981
11459TIP3    H234321   7.446   1.579   2.092
11460TIP3   OH234322   1.072   7.079   1.083
11460TIP3    H134323   1.083   7.053   1.175
11460TIP3    H234324   1.045   6.998   1.039
11461TIP3   OH234325   5.430   0.202   1.052
11461TIP3    H134326   5.501   0.264   1.067
11461TIP3    H234327   5.408   0.169   1.138
11462TIP3   OH234328   6.809   3.591   0.589
11462TIP3    H134329   6.767   3.670   0.623
11462TIP3    H234330   6.892   3.622   0.552
11463TIP3   OH234331   0.493   1.815   2.845
11463TIP3    H134332   0.515   1.761   2.921
11463TIP3    H234333   0.412   1.860   2.871
11464TIP3   OH234334   0.218   6.688   4.025
11464TIP3    H134335   0.265   6.770   4.038
11464TIP3    H234336   0.192   6.661   4.114
11465TIP3   OH234337   4.762   3.250   0.616
11465TIP3    H134338   4.803   3.266   0.701
11465TIP3    H234339   4.670   3.273   0.628
11466TIP3   OH234340   3.515   5.143   4.505
11466TIP3    H134341   3.519   5.186   4.420
11466TIP3    H234342   3.508   5.214   4.568
11467TIP3   OH234343   5.353   4.753   2.290
11467TIP3    H134344   5.284   4.687   2.288
11467TIP3    H234345   5.348   4.789   2.379
11468TIP3   OH234346   0.934   3.290   4.985
11468TIP3    H134347   0.966   3.229   5.052
11468TIP3    H234348   0.843   3.305   5.008
11469TIP3   OH234349   1.742   5.089   5.487
11469TIP3    H134350   1.692   5.019   5.445
11469TIP3    H234351   1.690   5.168   5.471
11470TIP3   OH234352   4.330   3.814   3.527
11470TIP3    H134353   4.255   3.843   3.476
11470TIP3    H234354   4.391   3.779   3.462
11471TIP3   OH234355   3.594   4.725   5.379
11471TIP3    H134356   3.631   4.638   5.361
11471TIP3    H234357   3.570   4.721   5.472
11472TIP3   OH234358   2.254   1.104   0.791
11472TIP3    H134359   2.162   1.100   0.766
11472TIP3    H234360   2.300   1.056   0.723
11473TIP3   OH234361   6.692   5.306   6.463
11473TIP3    H134362   6.627   5.344   6.522
11473TIP3    H234363   6.647   5.300   6.379
11474TIP3   OH234364   3.523   6.866   3.589
11474TIP3    H134365   3.579   6.943   3.594
11474TIP3    H234366   3.528   6.827   3.676
11475TIP3   OH234367   7.386   5.704   0.213
11475TIP3    H134368   7.403   5.736   0.124
11475TIP3    H234369   7.291   5.693   0.216
11476TIP3   OH234370   3.567   0.531   6.371
11476TIP3    H134371   3.495   0.550   6.312
11476TIP3    H234372   3.566   0.436   6.381
11477TIP3   OH234373   7.007   1.142   2.484
11477TIP3    H134374   6.927   1.098   2.509
11477TIP3    H234375   7.014   1.215   2.545
11478TIP3   OH234376   2.899   2.171   2.358
11478TIP3    H134377   2.884   2.200   2.268
11478TIP3    H234378   2.831   2.215   2.409
11479TIP3   OH234379   5.842   4.035   4.932
11479TIP3    H134380   5.862   3.942   4.939
11479TIP3    H234381   5.847   4.067   5.022
11480TIP3   OH234382   1.294   4.397   4.030
11480TIP3    H134383   1.305   4.386   4.124
11480TIP3    H234384   1.215   4.346   4.010
11481TIP3   OH234385   1.968   1.501   1.781
11481TIP3    H134386   1.917   1.484   1.860
11481TIP3    H234387   2.059   1.494   1.809
11482TIP3   OH234388   7.261   6.606   4.270
11482TIP3    H134389   7.178   6.588   4.225
11482TIP3    H234390   7.299   6.679   4.222
11483TIP3   OH234391   6.086   2.208   4.636
11483TIP3    H134392   6.162   2.206   4.693
11483TIP3    H234393   6.094   2.129   4.582
11484TIP3   OH234394   7.903   3.717   3.923
11484TIP3    H134395   7.927   3.809   3.929
11484TIP3    H234396   7.826   3.708   3.980
11485TIP3   OH234397   0.404   0.376   4.868
11485TIP3    H134398   0.453   0.405   4.792
11485TIP3    H234399   0.372   0.289   4.845
11486TIP3   OH234400   4.016   7.283   2.402
11486TIP3    H134401   3.938   7.298   2.348
11486TIP3    H234402   3.985   7.295   2.492
11487TIP3   OH234403   4.318   3.191   2.591
11487TIP3    H134404   4.395   3.185   2.534
11487TIP3    H234405   4.274   3.271   2.562
11488TIP3   OH234406   5.212   1.088   6.389
11488TIP3    H134407   5.240   1.164   6.440
11488TIP3    H234408   5.294   1.040   6.371
11489TIP3   OH234409   6.669   2.375   1.740
11489TIP3    H134410   6.688   2.324   1.661
11489TIP3    H234411   6.737   2.349   1.803
11490TIP3   OH234412   2.718   6.558   3.136
11490TIP3    H134413   2.644   6.582   3.080
11490TIP3    H234414   2.677   6.521   3.215
11491TIP3   OH234415   6.129   0.554   5.895
11491TIP3    H134416   6.079   0.571   5.976
11491TIP3    H234417   6.093   0.471   5.863
11492TIP3   OH234418   7.516   4.700   3.385
11492TIP3    H134419   7.577   4.643   3.339
11492TIP3    H234420   7.464   4.640   3.440
11493TIP3   OH234421   7.019   6.275   1.450
11493TIP3    H134422   7.108   6.271   1.414
11493TIP3    H234423   7.031   6.322   1.533
11494TIP3   OH234424   1.247   1.297   2.413
11494TIP3    H134425   1.315   1.283   2.347
11494TIP3    H234426   1.165   1.285   2.365
11495TIP3   OH234427   2.165   2.552   3.298
11495TIP3    H134428   2.139   2.599   3.378
11495TIP3    H234429   2.085   2.511   3.267
11496TIP3   OH234430   4.322   5.654   0.942
11496TIP3    H134431   4.356   5.593   0.876
11496TIP3    H234432   4.229   5.664   0.919
11497TIP3   OH234433   5.980   2.475   2.438
11497TIP3    H134434   5.908   2.474   2.501
11497TIP3    H234435   5.994   2.383   2.416
11498TIP3   OH234436   7.666   7.589   1.907
11498TIP3    H134437   7.741   7.531   1.895
11498TIP3    H234438   7.704   7.675   1.926
11499TIP3   OH234439   7.920   1.418   2.818
11499TIP3    H134440   7.955   1.431   2.730
11499TIP3    H234441   7.953   1.332   2.844
11500TIP3   OH234442   7.964   6.182   3.827
11500TIP3    H134443   7.946   6.088   3.824
11500TIP3    H234444   7.975   6.207   3.735
11501TIP3   OH234445   4.551   6.104   3.727
11501TIP3    H134446   4.629   6.076   3.680
11501TIP3    H234447   4.514   6.174   3.673
11502TIP3   OH234448   1.034   4.618   5.988
11502TIP3    H134449   1.117   4.589   6.026
11502TIP3    H234450   1.016   4.553   5.919
11503TIP3   OH234451   1.250   4.234   3.149
11503TIP3    H134452   1.163   4.274   3.144
11503TIP3    H234453   1.241   4.163   3.211
11504TIP3   OH234454   7.290   3.860   1.087
11504TIP3    H134455   7.333   3.933   1.042
11504TIP3    H234456   7.249   3.901   1.163
11505TIP3   OH234457   6.429   5.225   4.275
11505TIP3    H134458   6.415   5.145   4.225
11505TIP3    H234459   6.346   5.241   4.320
11506TIP3   OH234460   3.790   4.306   3.447
11506TIP3    H134461   3.716   4.277   3.394
11506TIP3    H234462   3.818   4.388   3.407
11507TIP3   OH234463   4.865   6.763   6.008
11507TIP3    H134464   4.837   6.726   6.091
11507TIP3    H234465   4.957   6.787   6.022
11508TIP3   OH234466   7.076   6.993   4.046
11508TIP3    H134467   7.156   7.037   4.075
11508TIP3    H234468   7.037   6.958   4.126
11509TIP3   OH234469   1.641   5.020   1.994
11509TIP3    H134470   1.583   4.995   2.066
11509TIP3    H234471   1.707   5.076   2.035
11510TIP3   OH234472   3.498   1.135   6.433
11510TIP3    H134473   3.507   1.225   6.401
11510TIP3    H234474   3.567   1.086   6.388
11511TIP3   OH234475   5.608   4.528   6.676
11511TIP3    H134476   5.538   4.487   6.626
11511TIP3    H234477   5.627   4.466   6.746
11512TIP3   OH234478   2.336   4.279   0.977
11512TIP3    H134479   2.335   4.342   0.904
11512TIP3    H234480   2.400   4.213   0.950
11513TIP3   OH234481   7.773   6.345   4.702
11513TIP3    H134482   7.777   6.360   4.797
11513TIP3    H234483   7.683   6.363   4.678
11514TIP3   OH234484   0.876   0.556   2.441
11514TIP3    H134485   0.950   0.566   2.500
11514TIP3    H234486   0.898   0.481   2.386
11515TIP3   OH234487   1.829   6.905   3.243
11515TIP3    H134488   1.888   6.848   3.194
11515TIP3    H234489   1.780   6.953   3.176
11516TIP3   OH234490   3.650   5.475   3.679
11516TIP3    H134491   3.602   5.400   3.643
11516TIP3    H234492   3.606   5.551   3.641
11517TIP3   OH234493   1.795   7.534   2.764
11517TIP3    H134494   1.777   7.586   2.842
11517TIP3    H234495   1.746   7.577   2.694
11518TIP3   OH234496   8.049   7.441   1.674
11518TIP3    H134497   8.028   7.468   1.763
11518TIP3    H234498   8.109   7.508   1.642
11519TIP3   OH234499   3.651   3.450   0.752
11519TIP3    H134500   3.593   3.526   0.752
11519TIP3    H234501   3.624   3.399   0.675
11520TIP3   OH234502   3.781   0.428   5.604
11520TIP3    H134503   3.750   0.517   5.592
11520TIP3    H234504   3.863   0.424   5.553
11521TIP3   OH234505   1.095   5.930   4.590
11521TIP3    H134506   1.147   5.962   4.664
11521TIP3    H234507   1.077   5.838   4.611
11522TIP3   OH234508   4.902   4.511   4.993
11522TIP3    H134509   4.846   4.509   4.916
11522TIP3    H234510   4.990   4.489   4.960
11523TIP3   OH234511   0.208   4.726   4.465
11523TIP3    H134512   0.191   4.767   4.550
11523TIP3    H234513   0.163   4.783   4.402
11524TIP3   OH234514   3.590   7.178   1.036
11524TIP3    H134515   3.606   7.245   0.969
11524TIP3    H234516   3.668   7.123   1.034
11525TIP3   OH234517   1.014   6.784   6.175
11525TIP3    H134518   1.102   6.763   6.208
11525TIP3    H234519   0.966   6.702   6.185
11526TIP3   OH234520   8.205   7.025   0.667
11526TIP3    H134521   8.247   6.947   0.632
11526TIP3    H234522   8.277   7.085   0.684
11527TIP3   OH234523   8.163   7.572   1.174
11527TIP3    H134524   8.252   7.548   1.146
11527TIP3    H234525   8.177   7.643   1.237
11528TIP3   OH234526   4.530   7.716   0.253
11528TIP3    H134527   4.511   7.721   0.159
11528TIP3    H234528   4.570   7.630   0.265
11529TIP3   OH234529   8.255   1.036   4.360
11529TIP3    H134530   8.349   1.053   4.351
11529TIP3    H234531   8.236   0.971   4.293
11530TIP3   OH234532   3.208   6.546   3.934
11530TIP3    H134533   3.174   6.569   3.847
11530TIP3    H234534   3.298   6.520   3.919
11531TIP3   OH234535   6.307   5.615   3.563
11531TIP3    H134536   6.224   5.588   3.523
11531TIP3    H234537   6.318   5.555   3.637
11532TIP3   OH234538   0.936   1.478   6.120
11532TIP3    H134539   1.015   1.427   6.139
11532TIP3    H234540   0.951   1.562   6.163
11533TIP3   OH234541   0.676   5.112   0.254
11533TIP3    H134542   0.658   5.023   0.285
11533TIP3    H234543   0.709   5.158   0.330
11534TIP3   OH234544   0.665   3.575   2.000
11534TIP3    H134545   0.752   3.561   2.039
11534TIP3    H234546   0.671   3.536   1.913
11535TIP3   OH234547   5.596   6.413   6.623
11535TIP3    H134548   5.648   6.338   6.651
11535TIP3    H234549   5.637   6.488   6.666
11536TIP3   OH234550   5.344   3.749   0.206
11536TIP3    H134551   5.305   3.693   0.140
11536TIP3    H234552   5.283   3.821   0.216
11537TIP3   OH234553   0.475   6.048   4.476
11537TIP3    H134554   0.406   5.993   4.439
11537TIP3    H234555   0.431   6.101   4.542
11538TIP3   OH234556   1.996   1.249   1.987
11538TIP3    H134557   2.012   1.227   1.895
11538TIP3    H234558   1.980   1.165   2.030
11539TIP3   OH234559   5.618   1.398   3.772
11539TIP3    H134560   5.667   1.320   3.745
11539TIP3    H234561   5.533   1.365   3.800
11540TIP3   OH234562   7.736   0.178   3.927
11540TIP3    H134563   7.661   0.214   3.973
11540TIP3    H234564   7.718   0.084   3.919
11541TIP3   OH234565   5.480   6.727   3.957
11541TIP3    H134566   5.453   6.682   4.037
11541TIP3    H234567   5.573   6.705   3.947
11542TIP3   OH234568   1.265   1.065   0.058
11542TIP3    H134569   1.297   0.982   0.093
11542TIP3    H234570   1.340   1.124   0.061
11543TIP3   OH234571   5.693   4.900   4.403
11543TIP3    H134572   5.673   4.858   4.487
11543TIP3    H234573   5.767   4.850   4.369
11544TIP3   OH234574   2.416   4.679   3.505
11544TIP3    H134575   2.401   4.591   3.471
11544TIP3    H234576   2.491   4.711   3.456
11545TIP3   OH234577   4.839   2.261   1.051
11545TIP3    H134578   4.785   2.317   1.107
11545TIP3    H234579   4.928   2.273   1.086
11546TIP3   OH234580   7.818   2.159   1.596
11546TIP3    H134581   7.886   2.197   1.541
11546TIP3    H234582   7.865   2.107   1.661
11547TIP3   OH234583   4.004   7.172   5.115
11547TIP3    H134584   3.990   7.228   5.039
11547TIP3    H234585   4.006   7.233   5.190
11548TIP3   OH234586   5.577   0.092   2.622
11548TIP3    H134587   5.601   0.168   2.570
11548TIP3    H234588   5.660   0.047   2.639
11549TIP3   OH234589   0.106   7.423   2.547
11549TIP3    H134590   0.147   7.503   2.581
11549TIP3    H234591   0.032   7.408   2.605
11550TIP3   OH234592   7.808   7.609   6.201
11550TIP3    H134593   7.803   7.686   6.257
11550TIP3    H234594   7.721   7.601   6.163
11551TIP3   OH234595   7.898   5.662   6.492
11551TIP3    H134596   7.970   5.600   6.482
11551TIP3    H234597   7.844   5.624   6.562
11552TIP3   OH234598   6.804   6.348   2.222
11552TIP3    H134599   6.828   6.390   2.304
11552TIP3    H234600   6.711   6.369   2.211
11553TIP3   OH234601   8.037   1.396   0.611
11553TIP3    H134602   7.979   1.333   0.568
11553TIP3    H234603   8.028   1.476   0.559
11554TIP3   OH234604   2.308   7.362   5.399
11554TIP3    H134605   2.340   7.343   5.488
11554TIP3    H234606   2.319   7.457   5.389
11555TIP3   OH234607   0.904   7.341   0.259
11555TIP3    H134608   0.859   7.262   0.290
11555TIP3    H234609   0.931   7.320   0.170
11556TIP3   OH234610   3.633   7.206   1.590
11556TIP3    H134611   3.696   7.277   1.602
11556TIP3    H234612   3.633   7.189   1.496
11557TIP3   OH234613   0.048   2.399   5.050
11557TIP3    H134614   0.106   2.401   5.126
11557TIP3    H234615   0.027   2.490   5.033
11558TIP3   OH234616   3.487   1.379   4.962
11558TIP3    H134617   3.458   1.411   5.048
11558TIP3    H234618   3.503   1.285   4.976
11559TIP3   OH234619   6.986   1.324   2.719
11559TIP3    H134620   6.949   1.412   2.714
11559TIP3    H234621   7.064   1.335   2.774
11560TIP3   OH234622   4.496   5.017   1.555
11560TIP3    H134623   4.572   5.074   1.552
11560TIP3    H234624   4.457   5.023   1.468
11561TIP3   OH234625   2.075   7.307   4.033
11561TIP3    H134626   2.060   7.217   4.062
11561TIP3    H234627   2.044   7.309   3.943
11562TIP3   OH234628   6.625   6.163   2.338
11562TIP3    H134629   6.599   6.095   2.276
11562TIP3    H234630   6.711   6.191   2.309
11563TIP3   OH234631   0.931   2.349   3.990
11563TIP3    H134632   0.880   2.275   4.024
11563TIP3    H234633   0.901   2.424   4.040
11564TIP3   OH234634   3.541   7.086   4.726
11564TIP3    H134635   3.449   7.077   4.702
11564TIP3    H234636   3.540   7.119   4.816
11565TIP3   OH234637   0.067   3.932   1.156
11565TIP3    H134638   0.044   3.940   1.249
11565TIP3    H234639   0.149   3.981   1.148
11566TIP3   OH234640   3.095   6.707   5.417
11566TIP3    H134641   3.149   6.664   5.351
11566TIP3    H234642   3.156   6.733   5.486
11567TIP3   OH234643   3.266   7.277   5.422
11567TIP3    H134644   3.227   7.294   5.508
11567TIP3    H234645   3.250   7.185   5.406
11568TIP3   OH234646   2.691   1.403   4.693
11568TIP3    H134647   2.734   1.488   4.701
11568TIP3    H234648   2.625   1.415   4.626
11569TIP3   OH234649   4.748   6.230   2.781
11569TIP3    H134650   4.685   6.297   2.807
11569TIP3    H234651   4.821   6.240   2.842
11570TIP3   OH234652   6.295   3.318   5.816
11570TIP3    H134653   6.362   3.305   5.883
11570TIP3    H234654   6.278   3.412   5.817
11571TIP3   OH234655   2.747   2.147   3.265
11571TIP3    H134656   2.706   2.106   3.341
11571TIP3    H234657   2.824   2.093   3.246
11572TIP3   OH234658   1.249   2.836   1.875
11572TIP3    H134659   1.232   2.923   1.838
11572TIP3    H234660   1.341   2.841   1.903
11573TIP3   OH234661   2.702   5.798   3.073
11573TIP3    H134662   2.704   5.849   2.992
11573TIP3    H234663   2.610   5.778   3.087
11574TIP3   OH234664   1.025   1.126   0.552
11574TIP3    H134665   0.956   1.160   0.495
11574TIP3    H234666   1.059   1.204   0.596
11575TIP3   OH234667   0.138   6.522   6.139
11575TIP3    H134668   0.069   6.470   6.181
11575TIP3    H234669   0.206   6.531   6.206
11576TIP3   OH234670   1.701   2.384   0.786
11576TIP3    H134671   1.737   2.344   0.865
11576TIP3    H234672   1.606   2.384   0.800
11577TIP3   OH234673   0.465   0.167   1.104
11577TIP3    H134674   0.498   0.152   1.193
11577TIP3    H234675   0.544   0.182   1.051
11578TIP3   OH234676   2.927   0.180   6.070
11578TIP3    H134677   2.930   0.275   6.056
11578TIP3    H234678   2.923   0.171   6.165
11579TIP3   OH234679   6.389   1.922   3.997
11579TIP3    H134680   6.451   1.995   4.002
11579TIP3    H234681   6.350   1.931   3.910
11580TIP3   OH234682   2.001   3.687   2.959
11580TIP3    H134683   2.096   3.680   2.949
11580TIP3    H234684   1.978   3.770   2.917
11581TIP3   OH234685   1.593   3.794   3.138
11581TIP3    H134686   1.679   3.772   3.174
11581TIP3    H234687   1.540   3.819   3.213
11582TIP3   OH234688   3.526   1.816   6.608
11582TIP3    H134689   3.460   1.886   6.605
11582TIP3    H234690   3.600   1.854   6.655
11583TIP3   OH234691   2.498   3.639   4.477
11583TIP3    H134692   2.479   3.566   4.418
11583TIP3    H234693   2.527   3.597   4.558
11584TIP3   OH234694   7.505   3.321   1.833
11584TIP3    H134695   7.484   3.412   1.811
11584TIP3    H234696   7.601   3.319   1.839
11585TIP3   OH234697   7.453   4.701   6.536
11585TIP3    H134698   7.388   4.637   6.506
11585TIP3    H234699   7.508   4.652   6.597
11586TIP3   OH234700   5.129   4.711   5.466
11586TIP3    H134701   5.220   4.699   5.493
11586TIP3    H234702   5.134   4.771   5.392
11587TIP3   OH234703   4.800   2.334   2.997
11587TIP3    H134704   4.746   2.322   2.919
11587TIP3    H234705   4.886   2.356   2.962
11588TIP3   OH234706   5.361   5.773   3.538
11588TIP3    H134707   5.346   5.691   3.491
11588TIP3    H234708   5.389   5.747   3.625
11589TIP3   OH234709   2.239   4.150   2.222
11589TIP3    H134710   2.215   4.119   2.310
11589TIP3    H234711   2.325   4.112   2.205
11590TIP3   OH234712   0.006   6.518   2.539
11590TIP3    H134713   0.070   6.589   2.532
11590TIP3    H234714  -0.077   6.558   2.514
11591TIP3   OH234715   5.884   1.179   6.572
11591TIP3    H134716   5.971   1.187   6.610
11591TIP3    H234717   5.830   1.241   6.620
11592TIP3   OH234718   5.915   5.873   4.284
11592TIP3    H134719   5.909   5.894   4.377
11592TIP3    H234720   5.978   5.802   4.279
11593TIP3   OH234721   0.785   7.598   0.263
11593TIP3    H134722   0.798   7.504   0.251
11593TIP3    H234723   0.762   7.607   0.355
11594TIP3   OH234724   7.891   6.317   4.059
11594TIP3    H134725   7.873   6.292   3.969
11594TIP3    H234726   7.825   6.383   4.079
11595TIP3   OH234727   0.577   6.828   2.774
11595TIP3    H134728   0.542   6.784   2.852
11595TIP3    H234729   0.505   6.828   2.712
11596TIP3   OH234730   6.401   3.204   0.076
11596TIP3    H134731   6.454   3.125   0.092
11596TIP3    H234732   6.428   3.233  -0.011
11597TIP3   OH234733   5.025   7.456   6.680
11597TIP3    H134734   5.004   7.540   6.638
11597TIP3    H234735   5.114   7.437   6.650
11598TIP3   OH234736   8.059   2.561   1.760
11598TIP3    H134737   8.107   2.535   1.839
11598TIP3    H234738   7.968   2.570   1.789
11599TIP3   OH234739   7.796   0.018   4.195
11599TIP3    H134740   7.830   0.079   4.128
11599TIP3    H234741   7.701   0.031   4.193
11600TIP3   OH234742   5.128   3.944   0.881
11600TIP3    H134743   5.193   3.875   0.872
11600TIP3    H234744   5.175   4.025   0.862
11601TIP3   OH234745   7.374   4.691   4.611
11601TIP3    H134746   7.369   4.761   4.546
11601TIP3    H234747   7.373   4.736   4.695
11602TIP3   OH234748   4.833   0.652   4.679
11602TIP3    H134749   4.759   0.594   4.697
11602TIP3    H234750   4.864   0.624   4.592
11603TIP3   OH234751   1.655   0.320   5.053
11603TIP3    H134752   1.710   0.338   5.130
11603TIP3    H234753   1.706   0.353   4.979
11604TIP3   OH234754   3.164   0.816   0.553
11604TIP3    H134755   3.130   0.861   0.476
11604TIP3    H234756   3.259   0.818   0.542
11605TIP3   OH234757   4.687   1.021   4.573
11605TIP3    H134758   4.703   1.073   4.495
11605TIP3    H234759   4.593   1.033   4.591
11606TIP3   OH234760   0.202   4.711   6.578
11606TIP3    H134761   0.150   4.663   6.642
11606TIP3    H234762   0.143   4.778   6.544
11607TIP3   OH234763   3.424   1.411   3.135
11607TIP3    H134764   3.332   1.404   3.112
11607TIP3    H234765   3.427   1.400   3.230
11608TIP3   OH234766   4.559   5.585   1.107
11608TIP3    H134767   4.473   5.624   1.092
11608TIP3    H234768   4.548   5.494   1.080
11609TIP3   OH234769   6.490   7.202   0.042
11609TIP3    H134770   6.510   7.232  -0.047
11609TIP3    H234771   6.574   7.171   0.076
11610TIP3   OH234772   1.808   1.314   4.929
11610TIP3    H134773   1.763   1.231   4.919
11610TIP3    H234774   1.868   1.301   5.002
11611TIP3   OH234775   3.684   2.509   5.234
11611TIP3    H134776   3.716   2.575   5.173
11611TIP3    H234777   3.691   2.550   5.320
11612TIP3   OH234778   1.827   0.587   5.557
11612TIP3    H134779   1.866   0.583   5.644
11612TIP3    H234780   1.895   0.552   5.499
11613TIP3   OH234781   1.180   7.264   5.157
11613TIP3    H134782   1.191   7.360   5.160
11613TIP3    H234783   1.136   7.248   5.074
11614TIP3   OH234784   5.696   3.680   6.813
11614TIP3    H134785   5.669   3.713   6.728
11614TIP3    H234786   5.734   3.594   6.795
11615TIP3   OH234787   4.681   6.261   0.219
11615TIP3    H134788   4.626   6.242   0.142
11615TIP3    H234789   4.691   6.176   0.262
11616TIP3   OH234790   2.957   5.919   3.044
11616TIP3    H134791   3.032   5.859   3.049
11616TIP3    H234792   2.888   5.873   3.092
11617TIP3   OH234793   0.958   2.958   5.457
11617TIP3    H134794   1.037   2.941   5.509
11617TIP3    H234795   0.899   2.885   5.477
11618TIP3   OH234796   5.250   4.215   1.027
11618TIP3    H134797   5.233   4.196   0.934
11618TIP3    H234798   5.169   4.257   1.058
11619TIP3   OH234799   0.900   1.818   5.903
11619TIP3    H134800   0.983   1.821   5.855
11619TIP3    H234801   0.892   1.905   5.943
11620TIP3   OH234802   7.785   7.005   3.402
11620TIP3    H134803   7.792   6.956   3.320
11620TIP3    H234804   7.874   7.038   3.418
11621TIP3   OH234805   2.405   3.725   0.722
11621TIP3    H134806   2.495   3.716   0.691
11621TIP3    H234807   2.363   3.781   0.658
11622TIP3   OH234808   1.017   4.420   3.185
11622TIP3    H134809   1.003   4.514   3.176
11622TIP3    H234810   1.004   4.402   3.278
11623TIP3   OH234811   2.216   6.160   6.215
11623TIP3    H134812   2.137   6.206   6.186
11623TIP3    H234813   2.248   6.211   6.289
11624TIP3   OH234814   0.088   2.797   1.429
11624TIP3    H134815   0.012   2.794   1.487
11624TIP3    H234816   0.101   2.706   1.401
11625TIP3   OH234817   2.316   0.275   5.604
11625TIP3    H134818   2.411   0.288   5.612
11625TIP3    H234819   2.279   0.363   5.614
11626TIP3   OH234820   2.190   4.893   6.220
11626TIP3    H134821   2.214   4.846   6.140
11626TIP3    H234822   2.112   4.942   6.196
11627TIP3   OH234823   2.145   6.467   6.647
11627TIP3    H134824   2.137   6.401   6.716
11627TIP3    H234825   2.173   6.546   6.693
11628TIP3   OH234826   7.950   0.140   4.824
11628TIP3    H134827   7.966   0.115   4.733
11628TIP3    H234828   7.891   0.072   4.857
11629TIP3   OH234829   8.091   4.958   3.685
11629TIP3    H134830   8.102   4.871   3.722
11629TIP3    H234831   8.115   4.948   3.593
11630TIP3   OH234832   3.774   1.246   2.231
11630TIP3    H134833   3.751   1.155   2.243
11630TIP3    H234834   3.827   1.247   2.151
11631TIP3   OH234835   7.152   5.122   2.203
11631TIP3    H134836   7.108   5.105   2.120
11631TIP3    H234837   7.163   5.217   2.205
11632TIP3   OH234838   0.301   7.731   1.043
11632TIP3    H134839   0.356   7.654   1.027
11632TIP3    H234840   0.360   7.796   1.081
11633TIP3   OH234841   1.001   6.021   2.500
11633TIP3    H134842   0.988   6.109   2.537
11633TIP3    H234843   1.093   6.019   2.475
11634TIP3   OH234844   4.916   7.730   2.330
11634TIP3    H134845   5.003   7.768   2.320
11634TIP3    H234846   4.859   7.805   2.348
11635TIP3   OH234847   2.601   5.000   6.250
11635TIP3    H134848   2.632   4.912   6.274
11635TIP3    H234849   2.563   5.035   6.330
11636TIP3   OH234850   2.470   2.610   3.003
11636TIP3    H134851   2.468   2.519   3.032
11636TIP3    H234852   2.402   2.654   3.054
11637TIP3   OH234853   2.464   7.144   0.605
11637TIP3    H134854   2.468   7.192   0.522
11637TIP3    H234855   2.504   7.204   0.668
11638TIP3   OH234856   4.515   1.606   3.484
11638TIP3    H134857   4.508   1.695   3.449
11638TIP3    H234858   4.601   1.576   3.454
11639TIP3   OH234859   0.349   4.796   2.855
11639TIP3    H134860   0.293   4.871   2.872
11639TIP3    H234861   0.370   4.801   2.762
11640TIP3   OH234862   4.858   0.664   3.010
11640TIP3    H134863   4.840   0.574   2.980
11640TIP3    H234864   4.884   0.711   2.930
11641TIP3   OH234865   6.957   1.877   1.679
11641TIP3    H134866   7.001   1.838   1.754
11641TIP3    H234867   7.028   1.918   1.628
11642TIP3   OH234868   3.227   3.655   4.323
11642TIP3    H134869   3.230   3.750   4.313
11642TIP3    H234870   3.215   3.641   4.416
11643TIP3   OH234871   0.457   6.658   1.228
11643TIP3    H134872   0.389   6.726   1.228
11643TIP3    H234873   0.482   6.650   1.136
11644TIP3   OH234874   1.908   6.800   0.461
11644TIP3    H134875   1.948   6.816   0.547
11644TIP3    H234876   1.840   6.735   0.479
11645TIP3   OH234877   8.187   2.821   2.903
11645TIP3    H134878   8.273   2.858   2.922
11645TIP3    H234879   8.194   2.788   2.813
11646TIP3   OH234880   2.602   6.509   2.628
11646TIP3    H134881   2.549   6.533   2.551
11646TIP3    H234882   2.681   6.470   2.591
11647TIP3   OH234883   6.300   5.113   3.829
11647TIP3    H134884   6.232   5.123   3.762
11647TIP3    H234885   6.381   5.100   3.780
11648TIP3   OH234886   3.383   2.136   0.782
11648TIP3    H134887   3.354   2.052   0.817
11648TIP3    H234888   3.392   2.192   0.858
11649TIP3   OH234889   0.242   1.665   5.884
11649TIP3    H134890   0.184   1.600   5.925
11649TIP3    H234891   0.182   1.735   5.856
11650TIP3   OH234892   5.316   4.805   0.673
11650TIP3    H134893   5.259   4.813   0.749
11650TIP3    H234894   5.266   4.843   0.601
11651TIP3   OH234895   7.963   3.030   4.958
11651TIP3    H134896   8.009   3.068   4.884
11651TIP3    H234897   7.961   2.936   4.939
11652TIP3   OH234898   1.025   4.690   3.163
11652TIP3    H134899   0.984   4.740   3.234
11652TIP3    H234900   1.118   4.686   3.188
11653TIP3   OH234901   2.452   6.592   3.076
11653TIP3    H134902   2.437   6.529   3.147
11653TIP3    H234903   2.367   6.605   3.036
11654TIP3   OH234904   8.197   0.084   3.974
11654TIP3    H134905   8.156   0.026   4.038
11654TIP3    H234906   8.131   0.151   3.956
11655TIP3   OH234907   7.375   6.847   2.002
11655TIP3    H134908   7.334   6.930   1.978
11655TIP3    H234909   7.321   6.780   1.958
11656TIP3   OH234910   6.850   3.924   2.442
11656TIP3    H134911   6.866   3.836   2.409
11656TIP3    H234912   6.785   3.960   2.381
11657TIP3   OH234913   2.092   7.671   3.709
11657TIP3    H134914   2.062   7.662   3.800
11657TIP3    H234915   2.017   7.647   3.656
11658TIP3   OH234916   4.867   6.652   2.485
11658TIP3    H134917   4.916   6.729   2.457
11658TIP3    H234918   4.916   6.617   2.559
11659TIP3   OH234919   2.093   4.226   0.479
11659TIP3    H134920   2.086   4.319   0.458
11659TIP3    H234921   2.176   4.198   0.439
11660TIP3   OH234922   4.312   1.335   5.281
11660TIP3    H134923   4.332   1.325   5.188
11660TIP3    H234924   4.388   1.299   5.326
11661TIP3   OH234925   6.859   7.452   2.201
11661TIP3    H134926   6.788   7.453   2.136
11661TIP3    H234927   6.929   7.503   2.160
11662TIP3   OH234928   2.427   1.271   6.350
11662TIP3    H134929   2.392   1.276   6.439
11662TIP3    H234930   2.415   1.180   6.324
11663TIP3   OH234931   1.419   0.431   6.188
11663TIP3    H134932   1.398   0.338   6.177
11663TIP3    H234933   1.346   0.465   6.240
11664TIP3   OH234934   6.251   4.797   6.285
11664TIP3    H134935   6.238   4.723   6.227
11664TIP3    H234936   6.344   4.792   6.310
11665TIP3   OH234937   4.827   6.976   0.480
11665TIP3    H134938   4.848   6.956   0.571
11665TIP3    H234939   4.732   6.964   0.474
11666TIP3   OH234940   3.460   6.792   2.371
11666TIP3    H134941   3.368   6.789   2.344
11666TIP3    H234942   3.463   6.743   2.453
11667TIP3   OH234943   6.369   1.686   5.480
11667TIP3    H134944   6.311   1.763   5.484
11667TIP3    H234945   6.349   1.645   5.396
11668TIP3   OH234946   2.533   0.682   0.418
11668TIP3    H134947   2.442   0.698   0.393
11668TIP3    H234948   2.526   0.634   0.501
11669TIP3   OH234949   8.252   4.224   2.897
11669TIP3    H134950   8.202   4.274   2.961
11669TIP3    H234951   8.204   4.142   2.888
11670TIP3   OH234952   0.286   7.620   1.609
11670TIP3    H134953   0.337   7.539   1.604
11670TIP3    H234954   0.304   7.655   1.696
11671TIP3   OH234955   4.080   7.525   4.573
11671TIP3    H134956   4.053   7.607   4.531
11671TIP3    H234957   4.009   7.505   4.634
11672TIP3   OH234958   1.546   5.344   2.234
11672TIP3    H134959   1.476   5.393   2.190
11672TIP3    H234960   1.507   5.315   2.317
11673TIP3   OH234961   4.003   6.761   6.755
11673TIP3    H134962   3.945   6.806   6.817
11673TIP3    H234963   3.983   6.801   6.670
11674TIP3   OH234964   4.834   3.040   2.173
11674TIP3    H134965   4.807   3.037   2.265
11674TIP3    H234966   4.898   2.970   2.165
11675TIP3   OH234967   2.325   0.967   1.493
11675TIP3    H134968   2.404   0.993   1.445
11675TIP3    H234969   2.253   1.003   1.442
11676TIP3   OH234970   2.806   2.655   2.267
11676TIP3    H134971   2.849   2.740   2.278
11676TIP3    H234972   2.712   2.676   2.267
11677TIP3   OH234973   5.737   3.390   4.532
11677TIP3    H134974   5.679   3.336   4.478
11677TIP3    H234975   5.825   3.363   4.507
11678TIP3   OH234976   0.279   1.886   6.316
11678TIP3    H134977   0.361   1.936   6.325
11678TIP3    H234978   0.307   1.801   6.283
11679TIP3   OH234979   7.051   3.146   4.705
11679TIP3    H134980   7.117   3.192   4.757
11679TIP3    H234981   7.102   3.097   4.640
11680TIP3   OH234982   4.300   6.477   5.138
11680TIP3    H134983   4.377   6.421   5.152
11680TIP3    H234984   4.225   6.420   5.154
11681TIP3   OH234985   6.288   1.601   5.732
11681TIP3    H134986   6.330   1.607   5.646
11681TIP3    H234987   6.348   1.647   5.791
11682TIP3   OH234988   6.985   1.224   6.024
11682TIP3    H134989   6.930   1.199   6.098
11682TIP3    H234990   6.924   1.229   5.950
11683TIP3   OH234991   3.931   5.848   2.902
11683TIP3    H134992   3.872   5.855   2.978
11683TIP3    H234993   3.878   5.805   2.835
11684TIP3   OH234994   2.280   6.801   3.317
11684TIP3    H134995   2.244   6.724   3.362
11684TIP3    H234996   2.373   6.781   3.306
11685TIP3   OH234997   1.295   6.481   0.066
11685TIP3    H134998   1.320   6.537  -0.007
11685TIP3    H234999   1.379   6.457   0.106
11686TIP3   OH235000   4.069   3.963   3.488
11686TIP3    H135001   4.089   3.888   3.544
11686TIP3    H235002   4.045   4.033   3.549
11687TIP3   OH235003   5.706   2.377   2.750
11687TIP3    H135004   5.710   2.344   2.840
11687TIP3    H235005   5.768   2.450   2.749
11688TIP3   OH235006   8.033   5.401   2.391
11688TIP3    H135007   8.127   5.383   2.382
11688TIP3    H235008   8.028   5.496   2.401
11689TIP3   OH235009   8.145   1.928   5.691
11689TIP3    H135010   8.122   2.013   5.727
11689TIP3    H235011   8.161   1.944   5.599
11690TIP3   OH235012   3.199   6.420   4.911
11690TIP3    H135013   3.274   6.363   4.927
11690TIP3    H235014   3.236   6.508   4.907
11691TIP3   OH235015   3.473   0.252   0.919
11691TIP3    H135016   3.380   0.249   0.937
11691TIP3    H235017   3.479   0.284   0.829
11692TIP3   OH235018   1.958   6.080   5.027
11692TIP3    H135019   2.028   6.135   5.062
11692TIP3    H235020   2.004   6.010   4.981
11693TIP3   OH235021   7.026   3.223   1.313
11693TIP3    H135022   6.982   3.138   1.311
11693TIP3    H235023   7.067   3.230   1.227
11694TIP3   OH235024   3.416   5.862   0.232
11694TIP3    H135025   3.489   5.924   0.238
11694TIP3    H235026   3.381   5.875   0.144
11695TIP3   OH235027   7.753   0.722   4.738
11695TIP3    H135028   7.738   0.689   4.827
11695TIP3    H235029   7.835   0.770   4.744
11696TIP3   OH235030   2.657   1.196   5.897
11696TIP3    H135031   2.738   1.156   5.928
11696TIP3    H235032   2.601   1.122   5.874
11697TIP3   OH235033   6.538   4.470   5.723
11697TIP3    H135034   6.549   4.503   5.634
11697TIP3    H235035   6.624   4.481   5.763
11698TIP3   OH235036   2.206   2.217   2.171
11698TIP3    H135037   2.251   2.277   2.110
11698TIP3    H235038   2.119   2.256   2.181
11699TIP3   OH235039   4.023   0.124   0.707
11699TIP3    H135040   3.938   0.132   0.663
11699TIP3    H235041   4.003   0.086   0.792
11700TIP3   OH235042   8.317   5.134   6.673
11700TIP3    H135043   8.244   5.137   6.611
11700TIP3    H235044   8.281   5.088   6.749
11701TIP3   OH235045   7.889   7.744   3.218
11701TIP3    H135046   7.832   7.685   3.169
11701TIP3    H235047   7.849   7.830   3.207
11702TIP3   OH235048   3.951   6.654   2.299
11702TIP3    H135049   3.928   6.665   2.207
11702TIP3    H235050   4.001   6.573   2.302
11703TIP3   OH235051   6.356   6.783   3.402
11703TIP3    H135052   6.370   6.727   3.325
11703TIP3    H235053   6.282   6.743   3.448
11704TIP3   OH235054   5.849   0.367   0.512
11704TIP3    H135055   5.791   0.294   0.493
11704TIP3    H235056   5.805   0.417   0.581
11705TIP3   OH235057   5.572   6.895   5.069
11705TIP3    H135058   5.522   6.922   5.146
11705TIP3    H235059   5.527   6.939   4.996
11706TIP3   OH235060   5.279   3.016   6.745
11706TIP3    H135061   5.195   2.983   6.777
11706TIP3    H235062   5.262   3.107   6.721
11707TIP3   OH235063   4.695   2.247   0.693
11707TIP3    H135064   4.761   2.190   0.732
11707TIP3    H235065   4.706   2.331   0.739
11708TIP3   OH235066   7.827   3.289   3.486
11708TIP3    H135067   7.793   3.212   3.440
11708TIP3    H235068   7.748   3.333   3.519
11709TIP3   OH235069   2.234   1.971   4.678
11709TIP3    H135070   2.196   1.917   4.748
11709TIP3    H235071   2.279   2.042   4.724
11710TIP3   OH235072   6.309   5.006   5.241
11710TIP3    H135073   6.340   5.001   5.150
11710TIP3    H235074   6.268   4.921   5.257
11711TIP3   OH235075   2.955   1.026   4.666
11711TIP3    H135076   3.014   0.964   4.624
11711TIP3    H235077   2.893   1.051   4.598
11712TIP3   OH235078   6.149   5.739   3.241
11712TIP3    H135079   6.136   5.817   3.186
11712TIP3    H235080   6.168   5.669   3.178
11713TIP3   OH235081   0.905   5.895   4.064
11713TIP3    H135082   0.824   5.901   4.013
11713TIP3    H235083   0.908   5.977   4.114
11714TIP3   OH235084   5.778   1.807   5.080
11714TIP3    H135085   5.728   1.726   5.069
11714TIP3    H235086   5.711   1.876   5.078
11715TIP3   OH235087   6.372   1.535   2.360
11715TIP3    H135088   6.407   1.451   2.389
11715TIP3    H235089   6.329   1.572   2.437
11716TIP3   OH235090   0.853   3.892   5.722
11716TIP3    H135091   0.810   3.975   5.705
11716TIP3    H235092   0.886   3.864   5.636
11717TIP3   OH235093   0.441   4.361   6.361
11717TIP3    H135094   0.441   4.439   6.418
11717TIP3    H235095   0.437   4.397   6.272
11718TIP3   OH235096   3.983   3.060   6.518
11718TIP3    H135097   3.935   3.088   6.439
11718TIP3    H235098   4.075   3.073   6.495
11719TIP3   OH235099   4.024   3.943   1.731
11719TIP3    H135100   4.015   4.011   1.663
11719TIP3    H235101   3.944   3.951   1.783
11720TIP3   OH235102   4.298   4.598   6.159
11720TIP3    H135103   4.250   4.667   6.205
11720TIP3    H235104   4.264   4.599   6.070
11721TIP3   OH235105   2.596   6.162   5.689
11721TIP3    H135106   2.654   6.196   5.621
11721TIP3    H235107   2.628   6.074   5.706
11722TIP3   OH235108   5.795   5.926   6.575
11722TIP3    H135109   5.711   5.888   6.598
11722TIP3    H235110   5.810   5.900   6.485
11723TIP3   OH235111   4.475   4.445   5.838
11723TIP3    H135112   4.545   4.458   5.902
11723TIP3    H235113   4.421   4.375   5.876
11724TIP3   OH235114   4.403   1.328   5.011
11724TIP3    H135115   4.495   1.314   5.032
11724TIP3    H235116   4.404   1.394   4.941
11725TIP3   OH235117   6.405   0.471   6.079
11725TIP3    H135118   6.375   0.416   6.151
11725TIP3    H235119   6.342   0.456   6.009
11726TIP3   OH235120   0.849   5.415   6.292
11726TIP3    H135121   0.938   5.437   6.319
11726TIP3    H235122   0.816   5.495   6.250
11727TIP3   OH235123   5.348   1.081   5.700
11727TIP3    H135124   5.355   1.117   5.789
11727TIP3    H235125   5.337   1.157   5.644
11728TIP3   OH235126   6.710   7.717   4.189
11728TIP3    H135127   6.698   7.762   4.106
11728TIP3    H235128   6.707   7.787   4.255
11729TIP3   OH235129   8.029   5.310   6.329
11729TIP3    H135130   8.101   5.261   6.289
11729TIP3    H235131   7.953   5.290   6.275
11730TIP3   OH235132   2.474   5.633   6.279
11730TIP3    H135133   2.563   5.660   6.300
11730TIP3    H235134   2.454   5.564   6.342
11731TIP3   OH235135   0.187   5.529   3.345
11731TIP3    H135136   0.097   5.530   3.376
11731TIP3    H235137   0.218   5.441   3.364
11732TIP3   OH235138   7.439   2.009   2.472
11732TIP3    H135139   7.509   2.074   2.466
11732TIP3    H235140   7.359   2.058   2.452
11733TIP3   OH235141   5.644   3.795   1.167
11733TIP3    H135142   5.614   3.872   1.215
11733TIP3    H235143   5.715   3.759   1.220
11734TIP3   OH235144   0.217   2.857   6.349
11734TIP3    H135145   0.287   2.856   6.283
11734TIP3    H235146   0.262   2.841   6.432
11735TIP3   OH235147   3.198   4.595   3.753
11735TIP3    H135148   3.156   4.660   3.809
11735TIP3    H235149   3.161   4.511   3.782
11736TIP3   OH235150   4.539   2.843   5.590
11736TIP3    H135151   4.591   2.825   5.511
11736TIP3    H235152   4.536   2.938   5.595
11737TIP3   OH235153   7.481   4.620   0.480
11737TIP3    H135154   7.420   4.656   0.416
11737TIP3    H235155   7.482   4.684   0.551
11738TIP3   OH235156   4.810   5.160   2.736
11738TIP3    H135157   4.856   5.224   2.682
11738TIP3    H235158   4.718   5.169   2.711
11739TIP3   OH235159   1.361   2.508   2.811
11739TIP3    H135160   1.329   2.544   2.893
11739TIP3    H235161   1.291   2.451   2.780
11740TIP3   OH235162   2.204   5.177   2.784
11740TIP3    H135163   2.210   5.272   2.791
11740TIP3    H235164   2.128   5.162   2.728
11741TIP3   OH235165   6.537   4.936   3.247
11741TIP3    H135166   6.625   4.911   3.220
11741TIP3    H235167   6.499   4.978   3.169
11742TIP3   OH235168   4.855   4.547   0.381
11742TIP3    H135169   4.771   4.515   0.347
11742TIP3    H235170   4.831   4.620   0.439
11743TIP3   OH235171   5.345   5.083   3.304
11743TIP3    H135172   5.362   4.991   3.325
11743TIP3    H235173   5.263   5.081   3.254
11744TIP3   OH235174   5.471   2.128   1.792
11744TIP3    H135175   5.483   2.033   1.787
11744TIP3    H235176   5.537   2.158   1.854
11745TIP3   OH235177   4.184   2.488   5.986
11745TIP3    H135178   4.187   2.394   6.006
11745TIP3    H235179   4.251   2.501   5.919
11746TIP3   OH235180   2.858   1.544   1.057
11746TIP3    H135181   2.820   1.596   1.127
11746TIP3    H235182   2.782   1.505   1.013
11747TIP3   OH235183   3.106   5.273   4.194
11747TIP3    H135184   3.012   5.265   4.178
11747TIP3    H235185   3.136   5.183   4.207
11748TIP3   OH235186   1.048   0.544   1.148
11748TIP3    H135187   1.058   0.581   1.060
11748TIP3    H235188   0.982   0.601   1.190
11749TIP3   OH235189   7.783   3.545   3.187
11749TIP3    H135190   7.811   3.578   3.272
11749TIP3    H235191   7.753   3.456   3.205
11750TIP3   OH235192   7.597   4.255   0.402
11750TIP3    H135193   7.514   4.209   0.400
11750TIP3    H235194   7.603   4.299   0.317
11751TIP3   OH235195   1.513   0.068   3.893
11751TIP3    H135196   1.436   0.027   3.856
11751TIP3    H235197   1.479   0.124   3.963
11752TIP3   OH235198   7.522   1.488   0.512
11752TIP3    H135199   7.440   1.538   0.505
11752TIP3    H235200   7.498   1.411   0.563
11753TIP3   OH235201   4.057   2.207   0.605
11753TIP3    H135202   4.095   2.190   0.691
11753TIP3    H235203   3.966   2.230   0.624
11754TIP3   OH235204   1.826   0.570   2.781
11754TIP3    H135205   1.876   0.650   2.794
11754TIP3    H235206   1.885   0.511   2.734
11755TIP3   OH235207   8.297   0.724   5.066
11755TIP3    H135208   8.365   0.770   5.115
11755TIP3    H235209   8.244   0.794   5.027
11756TIP3   OH235210   3.542   0.811   6.739
11756TIP3    H135211   3.495   0.890   6.713
11756TIP3    H235212   3.546   0.759   6.658
11757TIP3   OH235213   6.481   6.467   4.671
11757TIP3    H135214   6.499   6.555   4.639
11757TIP3    H235215   6.406   6.437   4.619
11758TIP3   OH235216   6.641   5.177   4.472
11758TIP3    H135217   6.608   5.149   4.558
11758TIP3    H235218   6.562   5.197   4.421
11759TIP3   OH235219   1.622   6.676   3.382
11759TIP3    H135220   1.556   6.744   3.396
11759TIP3    H235221   1.583   6.619   3.315
11760TIP3   OH235222   1.012   7.008   5.968
11760TIP3    H135223   0.987   6.936   6.026
11760TIP3    H235224   1.055   6.966   5.894
11761TIP3   OH235225   1.836   5.985   2.100
11761TIP3    H135226   1.854   6.064   2.150
11761TIP3    H235227   1.748   5.959   2.126
11762TIP3   OH235228   3.629   4.681   5.993
11762TIP3    H135229   3.568   4.634   6.049
11762TIP3    H235230   3.572   4.734   5.936
11763TIP3   OH235231   2.197   7.024   4.414
11763TIP3    H135232   2.271   7.083   4.403
11763TIP3    H235233   2.235   6.944   4.449
11764TIP3   OH235234   5.579   7.718   1.920
11764TIP3    H135235   5.533   7.711   2.003
11764TIP3    H235236   5.671   7.725   1.945
11765TIP3   OH235237   5.830   7.233   4.468
11765TIP3    H135238   5.802   7.152   4.510
11765TIP3    H235239   5.889   7.204   4.398
11766TIP3   OH235240   0.800   5.813   0.900
11766TIP3    H135241   0.763   5.812   0.812
11766TIP3    H235242   0.735   5.858   0.953
11767TIP3   OH235243   6.686   6.207   2.760
11767TIP3    H135244   6.711   6.281   2.816
11767TIP3    H235245   6.709   6.130   2.812
11768TIP3   OH235246   4.123   3.993   5.735
11768TIP3    H135247   4.194   3.930   5.750
11768TIP3    H235248   4.140   4.064   5.796
11769TIP3   OH235249   2.136   3.236   1.776
11769TIP3    H135250   2.150   3.251   1.870
11769TIP3    H235251   2.182   3.307   1.733
11770TIP3   OH235252   2.950   1.952   2.619
11770TIP3    H135253   3.033   1.946   2.573
11770TIP3    H235254   2.886   1.917   2.557
11771TIP3   OH235255   7.164   0.959   0.578
11771TIP3    H135256   7.245   0.909   0.575
11771TIP3    H235257   7.151   0.990   0.488
11772TIP3   OH235258   3.857   7.448   4.738
11772TIP3    H135259   3.855   7.474   4.830
11772TIP3    H235260   3.862   7.352   4.740
11773TIP3   OH235261   5.433   4.447   5.603
11773TIP3    H135262   5.416   4.425   5.512
11773TIP3    H235263   5.499   4.384   5.631
11774TIP3   OH235264   2.921   6.380   4.918
11774TIP3    H135265   2.917   6.312   4.985
11774TIP3    H235266   3.013   6.405   4.915
11775TIP3   OH235267   1.413   5.044   4.044
11775TIP3    H135268   1.479   5.108   4.067
11775TIP3    H235269   1.330   5.091   4.054
11776TIP3   OH235270   4.162   4.155   6.306
11776TIP3    H135271   4.219   4.223   6.271
11776TIP3    H235272   4.175   4.159   6.401
11777TIP3   OH235273   2.231   1.966   0.164
11777TIP3    H135274   2.215   2.046   0.114
11777TIP3    H235275   2.191   1.983   0.250
11778TIP3   OH235276   7.320   1.652   4.917
11778TIP3    H135277   7.296   1.713   4.848
11778TIP3    H235278   7.398   1.691   4.957
11779TIP3   OH235279   2.357   3.133   3.931
11779TIP3    H135280   2.445   3.096   3.937
11779TIP3    H235281   2.303   3.075   3.984
11780TIP3   OH235282   6.790   2.941   4.747
11780TIP3    H135283   6.867   2.898   4.710
11780TIP3    H235284   6.721   2.926   4.682
11781TIP3   OH235285   6.155   7.012   1.374
11781TIP3    H135286   6.137   7.106   1.385
11781TIP3    H235287   6.250   7.004   1.388
11782TIP3   OH235288   5.388   2.224   4.707
11782TIP3    H135289   5.384   2.257   4.797
11782TIP3    H235290   5.388   2.128   4.717
11783TIP3   OH235291   3.006   1.461   2.684
11783TIP3    H135292   2.948   1.514   2.630
11783TIP3    H235293   2.951   1.391   2.718
11784TIP3   OH235294   7.172   6.414   5.833
11784TIP3    H135295   7.196   6.506   5.826
11784TIP3    H235296   7.119   6.396   5.756
11785TIP3   OH235297   6.074   3.735   6.270
11785TIP3    H135298   6.022   3.659   6.298
11785TIP3    H235299   6.163   3.715   6.299
11786TIP3   OH235300   2.441   4.668   4.429
11786TIP3    H135301   2.441   4.696   4.337
11786TIP3    H235302   2.401   4.741   4.476
11787TIP3   OH235303   1.539   2.052   4.119
11787TIP3    H135304   1.632   2.075   4.113
11787TIP3    H235305   1.510   2.096   4.199
11788TIP3   OH235306   3.759   7.777   1.009
11788TIP3    H135307   3.843   7.750   0.973
11788TIP3    H235308   3.707   7.803   0.932
11789TIP3   OH235309   6.506   0.975   1.677
11789TIP3    H135310   6.559   0.969   1.597
11789TIP3    H235311   6.566   1.010   1.743
11790TIP3   OH235312   0.499   6.252   2.113
11790TIP3    H135313   0.551   6.174   2.132
11790TIP3    H235314   0.473   6.285   2.199
11791TIP3   OH235315   3.515   5.307   0.229
11791TIP3    H135316   3.477   5.320   0.316
11791TIP3    H235317   3.517   5.394   0.190
11792TIP3   OH235318   1.986   6.862   0.021
11792TIP3    H135319   1.933   6.896  -0.051
11792TIP3    H235320   1.945   6.898   0.100
11793TIP3   OH235321   8.080   4.704   5.233
11793TIP3    H135322   8.112   4.618   5.206
11793TIP3    H235323   8.148   4.737   5.292
11794TIP3   OH235324   4.866   5.551   6.012
11794TIP3    H135325   4.905   5.464   6.017
11794TIP3    H235326   4.891   5.593   6.094
11795TIP3   OH235327   3.092   2.971   6.486
11795TIP3    H135328   3.054   2.888   6.513
11795TIP3    H235329   3.179   2.949   6.452
11796TIP3   OH235330   7.439   1.947   1.002
11796TIP3    H135331   7.379   1.992   1.061
11796TIP3    H235332   7.516   1.927   1.055
11797TIP3   OH235333   5.208   3.654   5.992
11797TIP3    H135334   5.276   3.599   6.032
11797TIP3    H235335   5.137   3.593   5.971
11798TIP3   OH235336   1.783   3.421   3.870
11798TIP3    H135337   1.697   3.431   3.911
11798TIP3    H235338   1.822   3.508   3.876
11799TIP3   OH235339   0.604   2.793   2.482
11799TIP3    H135340   0.577   2.764   2.569
11799TIP3    H235341   0.548   2.742   2.422
11800TIP3   OH235342   2.479   1.111   5.141
11800TIP3    H135343   2.386   1.134   5.142
11800TIP3    H235344   2.522   1.179   5.192
11801TIP3   OH235345   8.237   4.660   0.319
11801TIP3    H135346   8.290   4.692   0.393
11801TIP3    H235347   8.169   4.607   0.360
11802TIP3   OH235348   2.732   4.473   1.154
11802TIP3    H135349   2.700   4.497   1.067
11802TIP3    H235350   2.717   4.379   1.161
11803TIP3   OH235351   4.458   7.178   1.803
11803TIP3    H135352   4.364   7.197   1.814
11803TIP3    H235353   4.494   7.188   1.892
11804TIP3   OH235354   8.125   0.831   5.633
11804TIP3    H135355   8.134   0.814   5.727
11804TIP3    H235356   8.032   0.818   5.616
11805TIP3   OH235357   6.369   0.760   3.927
11805TIP3    H135358   6.277   0.786   3.924
11805TIP3    H235359   6.367   0.665   3.929
11806TIP3   OH235360   6.746   4.476   1.713
11806TIP3    H135361   6.825   4.426   1.733
11806TIP3    H235362   6.756   4.558   1.760
11807TIP3   OH235363   3.076   6.722   1.692
11807TIP3    H135364   3.079   6.641   1.640
11807TIP3    H235365   3.006   6.774   1.652
11808TIP3   OH235366   7.292   1.449   6.685
11808TIP3    H135367   7.206   1.473   6.652
11808TIP3    H235368   7.353   1.485   6.621
11809TIP3   OH235369   3.930   0.680   3.234
11809TIP3    H135370   3.946   0.699   3.327
11809TIP3    H235371   3.944   0.586   3.225
11810TIP3   OH235372   1.209   5.952   0.649
11810TIP3    H135373   1.205   5.868   0.694
11810TIP3    H235374   1.236   5.930   0.559
11811TIP3   OH235375   6.199   5.919   0.570
11811TIP3    H135376   6.192   5.827   0.598
11811TIP3    H235377   6.172   5.917   0.478
11812TIP3   OH235378   1.076   5.715   4.749
11812TIP3    H135379   1.108   5.637   4.704
11812TIP3    H235380   1.081   5.693   4.842
11813TIP3   OH235381   8.186   5.130   5.103
11813TIP3    H135382   8.260   5.082   5.141
11813TIP3    H235383   8.223   5.213   5.073
11814TIP3   OH235384   0.383   6.908   4.002
11814TIP3    H135385   0.322   6.958   4.056
11814TIP3    H235386   0.461   6.897   4.056
11815TIP3   OH235387   6.438   4.495   5.115
11815TIP3    H135388   6.525   4.519   5.148
11815TIP3    H235389   6.403   4.436   5.181
11816TIP3   OH235390   0.054   4.337   1.213
11816TIP3    H135391   0.011   4.411   1.257
11816TIP3    H235392   0.088   4.284   1.285
11817TIP3   OH235393   2.866   0.329   2.731
11817TIP3    H135394   2.917   0.255   2.697
11817TIP3    H235395   2.844   0.380   2.653
11818TIP3   OH235396   8.254   1.024   5.335
11818TIP3    H135397   8.167   1.046   5.367
11818TIP3    H235398   8.250   1.041   5.241
11819TIP3   OH235399   1.974   4.715   1.118
11819TIP3    H135400   1.951   4.720   1.211
11819TIP3    H235401   2.028   4.792   1.102
11820TIP3   OH235402   6.095   6.180   5.157
11820TIP3    H135403   6.128   6.118   5.222
11820TIP3    H235404   6.076   6.126   5.081
11821TIP3   OH235405   0.751   6.639   2.412
11821TIP3    H135406   0.840   6.602   2.415
11821TIP3    H235407   0.716   6.623   2.499
11822TIP3   OH235408   3.498   3.358   0.531
11822TIP3    H135409   3.409   3.354   0.495
11822TIP3    H235410   3.541   3.426   0.480
11823TIP3   OH235411   5.815   7.748   1.257
11823TIP3    H135412   5.754   7.716   1.323
11823TIP3    H235413   5.761   7.798   1.196
11824TIP3   OH235414   4.407   2.070   3.525
11824TIP3    H135415   4.402   2.067   3.620
11824TIP3    H235416   4.463   2.146   3.506
11825TIP3   OH235417   5.214   3.715   6.342
11825TIP3    H135418   5.163   3.634   6.335
11825TIP3    H235419   5.305   3.686   6.335
11826TIP3   OH235420   1.712   4.469   4.345
11826TIP3    H135421   1.798   4.475   4.302
11826TIP3    H235422   1.730   4.423   4.427
11827TIP3   OH235423   6.677   5.869   6.003
11827TIP3    H135424   6.731   5.805   6.049
11827TIP3    H235425   6.725   5.888   5.922
11828TIP3   OH235426   4.878   1.212   6.149
11828TIP3    H135427   4.790   1.228   6.115
11828TIP3    H235428   4.936   1.235   6.076
11829TIP3   OH235429   2.316   4.871   0.422
11829TIP3    H135430   2.255   4.939   0.450
11829TIP3    H235431   2.352   4.837   0.504
11830TIP3   OH235432   3.193   1.190   0.452
11830TIP3    H135433   3.148   1.193   0.536
11830TIP3    H235434   3.129   1.149   0.393
11831TIP3   OH235435   1.839   2.535   0.279
11831TIP3    H135436   1.781   2.459   0.288
11831TIP3    H235437   1.859   2.561   0.369
11832TIP3   OH235438   8.102   5.538   6.596
11832TIP3    H135439   8.079   5.604   6.662
11832TIP3    H235440   8.169   5.485   6.639
11833TIP3   OH235441   7.048   6.744   1.512
11833TIP3    H135442   7.042   6.710   1.423
11833TIP3    H235443   7.115   6.689   1.554
11834TIP3   OH235444   6.685   2.993   4.007
11834TIP3    H135445   6.778   3.009   4.024
11834TIP3    H235446   6.679   2.899   3.994
11835TIP3   OH235447   1.352   1.987   0.851
11835TIP3    H135448   1.261   1.962   0.868
11835TIP3    H235449   1.367   2.063   0.906
11836TIP3   OH235450   6.437   7.765   2.780
11836TIP3    H135451   6.434   7.831   2.849
11836TIP3    H235452   6.470   7.686   2.823
11837TIP3   OH235453   6.862   2.313   5.011
11837TIP3    H135454   6.797   2.363   5.060
11837TIP3    H235455   6.820   2.228   4.995
11838TIP3   OH235456   5.815   5.854   0.713
11838TIP3    H135457   5.842   5.764   0.734
11838TIP3    H235458   5.730   5.864   0.757
11839TIP3   OH235459   3.222   4.511   0.403
11839TIP3    H135460   3.132   4.531   0.429
11839TIP3    H235461   3.238   4.565   0.325
11840TIP3   OH235462   6.132   0.315   5.098
11840TIP3    H135463   6.096   0.382   5.040
11840TIP3    H235464   6.071   0.241   5.091
11841TIP3   OH235465   1.461   0.378   5.531
11841TIP3    H135466   1.457   0.316   5.458
11841TIP3    H235467   1.488   0.460   5.491
11842TIP3   OH235468   2.225   6.145   2.234
11842TIP3    H135469   2.181   6.130   2.150
11842TIP3    H235470   2.284   6.070   2.243
11843TIP3   OH235471   5.864   0.407   6.122
11843TIP3    H135472   5.780   0.413   6.167
11843TIP3    H235473   5.850   0.453   6.039
11844TIP3   OH235474   4.934   6.337   4.230
11844TIP3    H135475   4.872   6.337   4.303
11844TIP3    H235476   5.011   6.382   4.264
11845TIP3   OH235477   3.127   4.539   2.031
11845TIP3    H135478   3.081   4.618   2.057
11845TIP3    H235479   3.061   4.470   2.034
11846TIP3   OH235480   0.988   6.571   1.910
11846TIP3    H135481   0.905   6.600   1.948
11846TIP3    H235482   1.033   6.653   1.887
11847TIP3   OH235483   8.150   2.559   0.161
11847TIP3    H135484   8.227   2.616   0.156
11847TIP3    H235485   8.120   2.552   0.071
11848TIP3   OH235486   5.435   3.953   2.778
11848TIP3    H135487   5.452   3.921   2.689
11848TIP3    H235488   5.481   3.892   2.835
11849TIP3   OH235489   5.191   4.219   5.336
11849TIP3    H135490   5.158   4.160   5.403
11849TIP3    H235491   5.115   4.242   5.284
11850TIP3   OH235492   6.982   5.069   1.122
11850TIP3    H135493   6.956   5.101   1.208
11850TIP3    H235494   7.061   5.018   1.138
11851TIP3   OH235495   1.130   1.929   5.794
11851TIP3    H135496   1.080   1.975   5.727
11851TIP3    H235497   1.159   1.998   5.855
11852TIP3   OH235498   2.804   4.112   2.901
11852TIP3    H135499   2.818   4.132   2.808
11852TIP3    H235500   2.874   4.049   2.922
11853TIP3   OH235501   7.633   3.845   5.828
11853TIP3    H135502   7.628   3.913   5.761
11853TIP3    H235503   7.630   3.893   5.911
11854TIP3   OH235504   1.400   0.609   2.586
11854TIP3    H135505   1.388   0.593   2.680
11854TIP3    H235506   1.448   0.532   2.555
11855TIP3   OH235507   7.296   6.658   1.588
11855TIP3    H135508   7.323   6.626   1.674
11855TIP3    H235509   7.304   6.753   1.594
11856TIP3   OH235510   3.840   5.658   1.961
11856TIP3    H135511   3.873   5.586   1.908
11856TIP3    H235512   3.747   5.640   1.971
11857TIP3   OH235513   2.681   4.020   1.435
11857TIP3    H135514   2.716   3.940   1.396
11857TIP3    H235515   2.730   4.091   1.392
11858TIP3   OH235516   3.199   2.681   2.271
11858TIP3    H135517   3.222   2.593   2.301
11858TIP3    H235518   3.262   2.700   2.202
11859TIP3   OH235519   6.103   6.563   4.022
11859TIP3    H135520   6.061   6.566   3.936
11859TIP3    H235521   6.097   6.653   4.054
11860TIP3   OH235522   6.747   3.214   0.208
11860TIP3    H135523   6.701   3.249   0.132
11860TIP3    H235524   6.798   3.288   0.241
11861TIP3   OH235525   3.731   4.694   0.835
11861TIP3    H135526   3.712   4.604   0.862
11861TIP3    H235527   3.818   4.689   0.795
11862TIP3   OH235528   7.449   4.837   3.144
11862TIP3    H135529   7.417   4.778   3.212
11862TIP3    H235530   7.537   4.862   3.173
11863TIP3   OH235531   1.700   1.233   1.119
11863TIP3    H135532   1.748   1.284   1.055
11863TIP3    H235533   1.763   1.215   1.189
11864TIP3   OH235534   0.508   7.765   5.543
11864TIP3    H135535   0.426   7.767   5.592
11864TIP3    H235536   0.576   7.770   5.610
11865TIP3   OH235537   7.143   4.290   4.274
11865TIP3    H135538   7.130   4.385   4.275
11865TIP3    H235539   7.226   4.278   4.227
11866TIP3   OH235540   3.601   7.039   3.965
11866TIP3    H135541   3.652   6.971   4.010
11866TIP3    H235542   3.605   7.014   3.872
11867TIP3   OH235543   7.051   0.127   2.426
11867TIP3    H135544   7.046   0.180   2.346
11867TIP3    H235545   7.121   0.064   2.408
11868TIP3   OH235546   0.344   0.472   1.612
11868TIP3    H135547   0.383   0.559   1.609
11868TIP3    H235548   0.382   0.426   1.537
11869TIP3   OH235549   4.143   0.258   3.017
11869TIP3    H135550   4.141   0.354   3.014
11869TIP3    H235551   4.140   0.231   2.925
11870TIP3   OH235552   5.894   3.946   0.754
11870TIP3    H135553   5.843   3.915   0.679
11870TIP3    H235554   5.980   3.968   0.717
11871TIP3   OH235555   4.144   6.661   3.551
11871TIP3    H135556   4.148   6.721   3.477
11871TIP3    H235557   4.139   6.719   3.628
11872TIP3   OH235558   7.243   3.910   4.788
11872TIP3    H135559   7.200   3.976   4.733
11872TIP3    H235560   7.178   3.840   4.797
11873TIP3   OH235561   0.186   6.388   3.166
11873TIP3    H135562   0.260   6.336   3.135
11873TIP3    H235563   0.164   6.445   3.093
11874TIP3   OH235564   2.982   3.525   4.349
11874TIP3    H135565   3.065   3.565   4.321
11874TIP3    H235566   2.993   3.432   4.329
11875TIP3   OH235567   0.794   3.174   3.563
11875TIP3    H135568   0.707   3.169   3.603
11875TIP3    H235569   0.777   3.190   3.470
11876TIP3   OH235570   4.796   2.896   1.300
11876TIP3    H135571   4.879   2.863   1.264
11876TIP3    H235572   4.743   2.817   1.314
11877TIP3   OH235573   6.156   5.483   0.457
11877TIP3    H135574   6.249   5.491   0.437
11877TIP3    H235575   6.112   5.517   0.379
11878TIP3   OH235576   7.145   5.422   3.835
11878TIP3    H135577   7.145   5.513   3.806
11878TIP3    H235578   7.215   5.417   3.900
11879TIP3   OH235579   5.839   3.442   1.776
11879TIP3    H135580   5.881   3.360   1.800
11879TIP3    H235581   5.910   3.498   1.745
11880TIP3   OH235582   0.799   3.476   6.011
11880TIP3    H135583   0.845   3.539   6.067
11880TIP3    H235584   0.767   3.409   6.071
11881TIP3   OH235585   6.737   3.231   1.805
11881TIP3    H135586   6.793   3.280   1.746
11881TIP3    H235587   6.648   3.261   1.784
11882TIP3   OH235588   7.720  -0.021   0.963
11882TIP3    H135589   7.692   0.010   0.876
11882TIP3    H235590   7.811   0.006   0.970
11883TIP3   OH235591   5.486   5.622   0.182
11883TIP3    H135592   5.509   5.686   0.249
11883TIP3    H235593   5.458   5.674   0.107
11884TIP3   OH235594   6.827   2.146   5.590
11884TIP3    H135595   6.815   2.218   5.527
11884TIP3    H235596   6.852   2.190   5.671
11885TIP3   OH235597   3.929   6.489   3.580
11885TIP3    H135598   3.927   6.410   3.526
11885TIP3    H235599   3.967   6.555   3.522
11886TIP3   OH235600   0.713   2.206   4.940
11886TIP3    H135601   0.680   2.116   4.938
11886TIP3    H235602   0.743   2.222   4.851
11887TIP3   OH235603   0.012   2.245   0.434
11887TIP3    H135604   0.021   2.164   0.485
11887TIP3    H235605   0.077   2.304   0.471
11888TIP3   OH235606   4.384   0.160   2.744
11888TIP3    H135607   4.435   0.080   2.737
11888TIP3    H235608   4.293   0.130   2.745
11889TIP3   OH235609   2.915   7.702   0.156
11889TIP3    H135610   2.826   7.723   0.182
11889TIP3    H235611   2.956   7.668   0.236
11890TIP3   OH235612   4.337   4.187   2.048
11890TIP3    H135613   4.371   4.124   1.985
11890TIP3    H235614   4.399   4.186   2.121
11891TIP3   OH235615   2.529   0.553   5.805
11891TIP3    H135616   2.518   0.458   5.807
11891TIP3    H235617   2.521   0.575   5.712
11892TIP3   OH235618   6.092   6.256   2.981
11892TIP3    H135619   6.006   6.240   2.942
11892TIP3    H235620   6.149   6.276   2.907
11893TIP3   OH235621   3.145   5.793   4.751
11893TIP3    H135622   3.054   5.822   4.743
11893TIP3    H235623   3.172   5.775   4.661
11894TIP3   OH235624   1.069   5.963   3.739
11894TIP3    H135625   1.038   5.880   3.776
11894TIP3    H235626   0.990   6.015   3.729
11895TIP3   OH235627   1.836   2.209   3.594
11895TIP3    H135628   1.793   2.217   3.509
11895TIP3    H235629   1.906   2.274   3.592
11896TIP3   OH235630   3.844   2.166   2.638
11896TIP3    H135631   3.870   2.233   2.701
11896TIP3    H235632   3.846   2.211   2.553
11897TIP3   OH235633   2.207   3.486   3.374
11897TIP3    H135634   2.215   3.574   3.410
11897TIP3    H235635   2.211   3.428   3.450
11898TIP3   OH235636   4.894   3.408   3.998
11898TIP3    H135637   4.980   3.449   4.005
11898TIP3    H235638   4.885   3.359   4.080
11899TIP3   OH235639   6.111   4.082   1.554
11899TIP3    H135640   6.100   4.176   1.572
11899TIP3    H235641   6.037   4.040   1.597
11900TIP3   OH235642   3.331   4.810   6.390
11900TIP3    H135643   3.362   4.740   6.332
11900TIP3    H235644   3.322   4.768   6.475
11901TIP3   OH235645   0.773   6.720   3.855
11901TIP3    H135646   0.707   6.787   3.835
11901TIP3    H235647   0.808   6.746   3.940
11902TIP3   OH235648   5.781   0.378   5.410
11902TIP3    H135649   5.866   0.417   5.387
11902TIP3    H235650   5.798   0.330   5.491
11903TIP3   OH235651   0.349   2.638   3.831
11903TIP3    H135652   0.374   2.589   3.753
11903TIP3    H235653   0.347   2.730   3.802
11904TIP3   OH235654   0.492   1.442   5.999
11904TIP3    H135655   0.497   1.466   5.907
11904TIP3    H235656   0.463   1.522   6.043
11905TIP3   OH235657   1.112   6.208   0.516
11905TIP3    H135658   1.073   6.121   0.524
11905TIP3    H235659   1.204   6.194   0.538
11906TIP3   OH235660   8.129   1.314   6.147
11906TIP3    H135661   8.113   1.395   6.194
11906TIP3    H235662   8.139   1.248   6.216
11907TIP3   OH235663   7.383   1.242   3.186
11907TIP3    H135664   7.355   1.261   3.097
11907TIP3    H235665   7.440   1.165   3.177
11908TIP3   OH235666   0.189   0.474   0.399
11908TIP3    H135667   0.126   0.440   0.462
11908TIP3    H235668   0.136   0.515   0.331
11909TIP3   OH235669   6.105   0.326   3.729
11909TIP3    H135670   6.181   0.286   3.771
11909TIP3    H235671   6.038   0.257   3.731
11910TIP3   OH235672   3.392   0.893   4.313
11910TIP3    H135673   3.444   0.816   4.338
11910TIP3    H235674   3.430   0.921   4.229
11911TIP3   OH235675   3.607   5.083   3.879
11911TIP3    H135676   3.665   5.149   3.841
11911TIP3    H235677   3.642   5.068   3.967
11912TIP3   OH235678   1.196   7.330   6.733
11912TIP3    H135679   1.281   7.288   6.720
11912TIP3    H235680   1.158   7.336   6.646
11913TIP3   OH235681   7.693   5.826   5.319
11913TIP3    H135682   7.615   5.772   5.322
11913TIP3    H235683   7.745   5.791   5.247
11914TIP3   OH235684   0.282   3.014   4.496
11914TIP3    H135685   0.272   2.945   4.430
11914TIP3    H235686   0.321   2.969   4.571
11915TIP3   OH235687   4.354   4.907   0.187
11915TIP3    H135688   4.445   4.902   0.158
11915TIP3    H235689   4.339   5.000   0.203
11916TIP3   OH235690   1.830   1.077   3.609
11916TIP3    H135691   1.763   1.021   3.650
11916TIP3    H235692   1.813   1.164   3.644
11917TIP3   OH235693   6.677   3.088   2.087
11917TIP3    H135694   6.606   3.124   2.140
11917TIP3    H235695   6.743   3.157   2.086
11918TIP3   OH235696   2.196   2.407   4.739
11918TIP3    H135697   2.243   2.337   4.784
11918TIP3    H235698   2.145   2.450   4.808
11919TIP3   OH235699   3.081   6.772   5.877
11919TIP3    H135700   3.149   6.786   5.944
11919TIP3    H235701   3.010   6.831   5.902
11920TIP3   OH235702   1.017   1.548   2.148
11920TIP3    H135703   0.949   1.609   2.121
11920TIP3    H235704   1.030   1.565   2.241
11921TIP3   OH235705   2.048   5.832   2.093
11921TIP3    H135706   2.079   5.823   2.003
11921TIP3    H235707   1.960   5.868   2.085
11922TIP3   OH235708   4.205   6.118   0.061
11922TIP3    H135709   4.254   6.173   0.000
11922TIP3    H235710   4.267   6.048   0.084
11923TIP3   OH235711   0.990   2.642   2.158
11923TIP3    H135712   0.992   2.693   2.078
11923TIP3    H235713   0.900   2.609   2.164
11924TIP3   OH235714   1.958   1.760   0.988
11924TIP3    H135715   2.039   1.744   0.940
11924TIP3    H235716   1.986   1.774   1.079
11925TIP3   OH235717   3.674   3.849   5.211
11925TIP3    H135718   3.584   3.859   5.240
11925TIP3    H235719   3.694   3.756   5.224
11926TIP3   OH235720   4.210   2.455   0.537
11926TIP3    H135721   4.139   2.506   0.497
11926TIP3    H235722   4.167   2.407   0.608
11927TIP3   OH235723   1.062   5.518   6.642
11927TIP3    H135724   1.106   5.527   6.726
11927TIP3    H235725   1.009   5.438   6.652
11928TIP3   OH235726   0.762   4.264   2.953
11928TIP3    H135727   0.814   4.344   2.961
11928TIP3    H235728   0.792   4.223   2.872
11929TIP3   OH235729   2.886   5.426   2.840
11929TIP3    H135730   2.933   5.346   2.859
11929TIP3    H235731   2.852   5.455   2.924
11930TIP3   OH235732   2.911   7.347   3.749
11930TIP3    H135733   2.855   7.329   3.825
11930TIP3    H235734   2.890   7.278   3.687
11931TIP3   OH235735   6.839   1.516   4.641
11931TIP3    H135736   6.756   1.562   4.629
11931TIP3    H235737   6.888   1.570   4.703
11932TIP3   OH235738   4.700   4.386   3.520
11932TIP3    H135739   4.777   4.329   3.516
11932TIP3    H235740   4.647   4.359   3.444
11933TIP3   OH235741   0.393   6.138   6.073
11933TIP3    H135742   0.335   6.067   6.101
11933TIP3    H235743   0.458   6.094   6.018
11934TIP3   OH235744   5.901   4.492   3.797
11934TIP3    H135745   5.949   4.477   3.716
11934TIP3    H235746   5.809   4.500   3.770
11935TIP3   OH235747   6.600   2.213   0.483
11935TIP3    H135748   6.553   2.295   0.500
11935TIP3    H235749   6.622   2.217   0.390
11936TIP3   OH235750   3.333   4.883   0.619
11936TIP3    H135751   3.398   4.826   0.580
11936TIP3    H235752   3.306   4.837   0.699
11937TIP3   OH235753   6.560   7.865   2.523
11937TIP3    H135754   6.526   7.809   2.593
11937TIP3    H235755   6.618   7.807   2.473
11938TIP3   OH235756   1.645   1.091   4.391
11938TIP3    H135757   1.713   1.154   4.367
11938TIP3    H235758   1.651   1.083   4.486
11939TIP3   OH235759   2.395   3.650   1.620
11939TIP3    H135760   2.383   3.715   1.690
11939TIP3    H235761   2.474   3.603   1.645
11940TIP3   OH235762   0.285   5.549   2.991
11940TIP3    H135763   0.249   5.508   3.069
11940TIP3    H235764   0.305   5.475   2.933
11941TIP3   OH235765   7.025   0.408   5.360
11941TIP3    H135766   7.108   0.455   5.349
11941TIP3    H235767   6.988   0.403   5.272
11942TIP3   OH235768   6.584   4.405   0.638
11942TIP3    H135769   6.519   4.372   0.576
11942TIP3    H235770   6.601   4.331   0.696
11943TIP3   OH235771   0.591   0.828   4.262
11943TIP3    H135772   0.650   0.797   4.193
11943TIP3    H235773   0.650   0.853   4.334
11944TIP3   OH235774   1.946   3.081   6.646
11944TIP3    H135775   2.020   3.141   6.652
11944TIP3    H235776   1.938   3.044   6.734
11945TIP3   OH235777   7.817   1.452   3.828
11945TIP3    H135778   7.841   1.496   3.746
11945TIP3    H235779   7.793   1.524   3.886
11946TIP3   OH235780   7.054   1.719   2.466
11946TIP3    H135781   7.086   1.651   2.407
11946TIP3    H235782   7.057   1.800   2.415
11947TIP3   OH235783   2.611   1.476   1.700
11947TIP3    H135784   2.605   1.557   1.650
11947TIP3    H235785   2.637   1.503   1.788
11948TIP3   OH235786   4.521   1.579   3.946
11948TIP3    H135787   4.541   1.651   3.887
11948TIP3    H235788   4.542   1.613   4.033
11949TIP3   OH235789   0.126   7.355   4.627
11949TIP3    H135790   0.151   7.271   4.588
11949TIP3    H235791   0.064   7.331   4.696
11950TIP3   OH235792   3.301   2.246   0.086
11950TIP3    H135793   3.276   2.165   0.041
11950TIP3    H235794   3.386   2.269   0.049
11951TIP3   OH235795   3.823   3.187   2.280
11951TIP3    H135796   3.846   3.178   2.373
11951TIP3    H235797   3.765   3.263   2.277
11952TIP3   OH235798   2.419   3.810   2.078
11952TIP3    H135799   2.487   3.743   2.088
11952TIP3    H235800   2.343   3.775   2.124
11953TIP3   OH235801   5.523   5.171   1.062
11953TIP3    H135802   5.527   5.229   0.986
11953TIP3    H235803   5.473   5.220   1.127
11954TIP3   OH235804   3.964   1.383   1.231
11954TIP3    H135805   4.007   1.337   1.159
11954TIP3    H235806   3.986   1.475   1.216
11955TIP3   OH235807   0.222   4.786   0.049
11955TIP3    H135808   0.314   4.811   0.050
11955TIP3    H235809   0.222   4.693   0.071
11956TIP3   OH235810   5.578   1.593   1.697
11956TIP3    H135811   5.657   1.584   1.644
11956TIP3    H235812   5.520   1.523   1.665
11957TIP3   OH235813   5.722   7.318   3.015
11957TIP3    H135814   5.642   7.350   3.056
11957TIP3    H235815   5.739   7.234   3.059
11958TIP3   OH235816   8.159   6.463   1.746
11958TIP3    H135817   8.254   6.478   1.739
11958TIP3    H235818   8.132   6.442   1.656
11959TIP3   OH235819   0.654   5.146   6.081
11959TIP3    H135820   0.683   5.128   5.992
11959TIP3    H235821   0.608   5.067   6.109
11960TIP3   OH235822   0.967   2.083   6.303
11960TIP3    H135823   0.911   2.051   6.233
11960TIP3    H235824   0.919   2.158   6.339
11961TIP3   OH235825   4.495   7.590   2.565
11961TIP3    H135826   4.515   7.634   2.482
11961TIP3    H235827   4.447   7.511   2.540
11962TIP3   OH235828   2.939   4.949   5.497
11962TIP3    H135829   2.908   5.033   5.463
11962TIP3    H235830   2.860   4.900   5.516
11963TIP3   OH235831   0.837   6.916   2.570
11963TIP3    H135832   0.904   6.926   2.503
11963TIP3    H235833   0.870   6.846   2.627
11964TIP3   OH235834   0.018   3.943   6.342
11964TIP3    H135835   0.009   4.038   6.347
11964TIP3    H235836   0.049   3.926   6.253
11965TIP3   OH235837   3.267   6.028   2.968
11965TIP3    H135838   3.216   6.009   3.047
11965TIP3    H235839   3.212   5.998   2.896
11966TIP3   OH235840   4.593   4.293   3.285
11966TIP3    H135841   4.504   4.261   3.297
11966TIP3    H235842   4.636   4.227   3.231
11967TIP3   OH235843   2.121   6.712   5.607
11967TIP3    H135844   2.081   6.790   5.646
11967TIP3    H235845   2.051   6.676   5.552
11968TIP3   OH235846   4.992   1.619   5.668
11968TIP3    H135847   4.935   1.552   5.630
11968TIP3    H235848   5.080   1.594   5.641
11969TIP3   OH235849   3.009   6.530   1.999
11969TIP3    H135850   3.080   6.591   1.978
11969TIP3    H235851   2.970   6.509   1.914
11970TIP3   OH235852   7.039   3.663   6.189
11970TIP3    H135853   7.070   3.574   6.170
11970TIP3    H235854   7.117   3.708   6.222
11971TIP3   OH235855   5.768   1.049   1.331
11971TIP3    H135856   5.794   0.984   1.266
11971TIP3    H235857   5.843   1.108   1.338
11972TIP3   OH235858   7.370   7.754   0.227
11972TIP3    H135859   7.368   7.814   0.152
11972TIP3    H235860   7.295   7.696   0.214
11973TIP3   OH235861   5.028   6.771   1.273
11973TIP3    H135862   5.050   6.820   1.194
11973TIP3    H235863   5.083   6.811   1.341
11974TIP3   OH235864   1.429   3.932   1.653
11974TIP3    H135865   1.429   3.928   1.558
11974TIP3    H235866   1.356   3.877   1.680
11975TIP3   OH235867   2.405   3.503   0.523
11975TIP3    H135868   2.348   3.577   0.501
11975TIP3    H235869   2.383   3.483   0.614
11976TIP3   OH235870   1.773   1.534   0.488
11976TIP3    H135871   1.686   1.529   0.449
11976TIP3    H235872   1.821   1.595   0.431
11977TIP3   OH235873   5.557   3.201   4.437
11977TIP3    H135874   5.503   3.147   4.494
11977TIP3    H235875   5.568   3.149   4.358
11978TIP3   OH235876   5.653   5.883   1.043
11978TIP3    H135877   5.669   5.977   1.034
11978TIP3    H235878   5.572   5.877   1.095
11979TIP3   OH235879   2.129   5.823   5.903
11979TIP3    H135880   2.117   5.807   5.810
11979TIP3    H235881   2.063   5.769   5.946
11980TIP3   OH235882   1.324   0.851   5.434
11980TIP3    H135883   1.378   0.876   5.509
11980TIP3    H235884   1.351   0.911   5.365
11981TIP3   OH235885   5.034   0.221   6.718
11981TIP3    H135886   5.030   0.182   6.805
11981TIP3    H235887   5.077   0.155   6.663
11982TIP3   OH235888   0.265   1.088   6.721
11982TIP3    H135889   0.331   1.112   6.787
11982TIP3    H235890   0.185   1.072   6.771
11983TIP3   OH235891   2.953   7.788   3.052
11983TIP3    H135892   2.918   7.756   3.136
11983TIP3    H235893   2.877   7.825   3.008
11984TIP3   OH235894   1.455   4.076   2.853
11984TIP3    H135895   1.476   3.982   2.861
11984TIP3    H235896   1.483   4.113   2.937
11985TIP3   OH235897   4.271   4.194   1.625
11985TIP3    H135898   4.282   4.181   1.530
11985TIP3    H235899   4.182   4.227   1.634
11986TIP3   OH235900   8.212   1.607   3.190
11986TIP3    H135901   8.218   1.640   3.280
11986TIP3    H235902   8.118   1.596   3.175
11987TIP3   OH235903   6.297   1.545   1.941
11987TIP3    H135904   6.367   1.602   1.973
11987TIP3    H235905   6.319   1.528   1.850
11988TIP3   OH235906   3.973   0.429   2.112
11988TIP3    H135907   3.890   0.471   2.090
11988TIP3    H235908   4.028   0.500   2.145
11989TIP3   OH235909   5.689   1.907   2.292
11989TIP3    H135910   5.758   1.938   2.234
11989TIP3    H235911   5.700   1.812   2.294
11990TIP3   OH235912   6.336   4.588   3.128
11990TIP3    H135913   6.307   4.504   3.091
11990TIP3    H235914   6.416   4.608   3.080
11991TIP3   OH235915   3.258   0.624   3.076
11991TIP3    H135916   3.237   0.705   3.121
11991TIP3    H235917   3.220   0.635   2.989
11992TIP3   OH235918   7.759   4.619   2.520
11992TIP3    H135919   7.836   4.624   2.577
11992TIP3    H235920   7.689   4.660   2.571
11993TIP3   OH235921   5.334   2.187   1.551
11993TIP3    H135922   5.394   2.162   1.620
11993TIP3    H235923   5.259   2.128   1.561
11994TIP3   OH235924   3.017   5.563   2.623
11994TIP3    H135925   2.978   5.505   2.688
11994TIP3    H235926   3.003   5.651   2.659
11995TIP3   OH235927   3.072   0.225   3.866
11995TIP3    H135928   3.054   0.132   3.885
11995TIP3    H235929   3.147   0.223   3.807
11996TIP3   OH235930   3.155   5.289   6.323
11996TIP3    H135931   3.160   5.194   6.317
11996TIP3    H235932   3.134   5.306   6.415
11997TIP3   OH235933   5.895   4.578   5.819
11997TIP3    H135934   5.833   4.649   5.834
11997TIP3    H235935   5.851   4.500   5.853
11998TIP3   OH235936   1.336   6.976   6.076
11998TIP3    H135937   1.401   6.966   6.006
11998TIP3    H235938   1.286   6.894   6.074
11999TIP3   OH235939   6.925   7.015   0.267
11999TIP3    H135940   6.883   7.039   0.185
11999TIP3    H235941   6.915   7.092   0.323
12000TIP3   OH235942   0.692   5.165   0.777
12000TIP3    H135943   0.637   5.103   0.824
12000TIP3    H235944   0.654   5.251   0.798
12001TIP3   OH235945   0.773   7.759   1.154
12001TIP3    H135946   0.740   7.735   1.240
12001TIP3    H235947   0.728   7.841   1.133
12002TIP3   OH235948   7.137   2.094   1.371
12002TIP3    H135949   7.061   2.151   1.378
12002TIP3    H235950   7.151   2.084   1.277
12003TIP3   OH235951   7.357   0.271   5.848
12003TIP3    H135952   7.286   0.210   5.828
12003TIP3    H235953   7.319   0.331   5.912
12004TIP3   OH235954   3.253   7.755   0.212
12004TIP3    H135955   3.348   7.747   0.203
12004TIP3    H235956   3.225   7.669   0.245
12005TIP3   OH235957   3.954   4.068   4.348
12005TIP3    H135958   3.917   4.020   4.274
12005TIP3    H235959   3.996   4.145   4.308
12006TIP3   OH235960   3.830   0.973   0.059
12006TIP3    H135961   3.844   1.048   0.117
12006TIP3    H235962   3.832   0.897   0.117
12007TIP3   OH235963   1.611   4.464   2.285
12007TIP3    H135964   1.553   4.394   2.254
12007TIP3    H235965   1.574   4.544   2.250
12008TIP3   OH235966   7.651   6.219   4.205
12008TIP3    H135967   7.696   6.304   4.208
12008TIP3    H235968   7.559   6.240   4.219
12009TIP3   OH235969   2.735   0.633   5.120
12009TIP3    H135970   2.710   0.550   5.081
12009TIP3    H235971   2.717   0.698   5.053
12010TIP3   OH235972   7.744   5.526   3.313
12010TIP3    H135973   7.793   5.511   3.233
12010TIP3    H235974   7.791   5.597   3.358
12011TIP3   OH235975   6.136   4.737   5.311
12011TIP3    H135976   6.161   4.696   5.228
12011TIP3    H235977   6.118   4.664   5.370
12012TIP3   OH235978   7.361   7.563   2.916
12012TIP3    H135979   7.365   7.501   2.989
12012TIP3    H235980   7.270   7.561   2.887
12013TIP3   OH235981   6.864   1.556   2.635
12013TIP3    H135982   6.832   1.605   2.711
12013TIP3    H235983   6.898   1.623   2.576
12014TIP3   OH235984   7.579   7.285   2.720
12014TIP3    H135985   7.597   7.305   2.628
12014TIP3    H235986   7.553   7.370   2.757
12015TIP3   OH235987   4.540   6.313   3.038
12015TIP3    H135988   4.589   6.251   3.092
12015TIP3    H235989   4.562   6.399   3.074
12016TIP3   OH235990   3.950   3.303   2.034
12016TIP3    H135991   3.857   3.305   2.058
12016TIP3    H235992   3.976   3.212   2.047
12017TIP3   OH235993   3.228   4.142   3.916
12017TIP3    H135994   3.314   4.122   3.880
12017TIP3    H235995   3.218   4.079   3.988
12018TIP3   OH235996   3.209   4.534   4.652
12018TIP3    H135997   3.170   4.566   4.570
12018TIP3    H235998   3.198   4.439   4.647
12019TIP3   OH235999   7.206   0.325   0.470
12019TIP3    H136000   7.238   0.375   0.395
12019TIP3    H236001   7.120   0.362   0.489
12020TIP3   OH236002   1.198   6.827   1.199
12020TIP3    H136003   1.222   6.745   1.243
12020TIP3    H236004   1.267   6.888   1.223
12021TIP3   OH236005   3.448   2.641   3.451
12021TIP3    H136006   3.409   2.599   3.527
12021TIP3    H236007   3.389   2.619   3.378
12022TIP3   OH236008   6.669   6.573   6.645
12022TIP3    H136009   6.744   6.514   6.652
12022TIP3    H236010   6.612   6.532   6.580
12023TIP3   OH236011   7.488   6.565   1.190
12023TIP3    H136012   7.487   6.497   1.256
12023TIP3    H236013   7.468   6.520   1.108
12024TIP3   OH236014   6.187   5.145   4.418
12024TIP3    H136015   6.201   5.051   4.409
12024TIP3    H236016   6.092   5.156   4.421
12025TIP3   OH236017   3.669   5.325   0.790
12025TIP3    H136018   3.646   5.320   0.882
12025TIP3    H236019   3.594   5.288   0.744
12026TIP3   OH236020   2.959   2.227   2.960
12026TIP3    H136021   2.879   2.279   2.967
12026TIP3    H236022   2.989   2.242   2.870
12027TIP3   OH236023   7.269   0.553   5.419
12027TIP3    H136024   7.351   0.577   5.375
12027TIP3    H236025   7.252   0.625   5.479
12028TIP3   OH236026   0.613   6.370   0.369
12028TIP3    H136027   0.700   6.344   0.396
12028TIP3    H236028   0.603   6.333   0.281
12029TIP3   OH236029   5.845   6.133   0.344
12029TIP3    H136030   5.796   6.119   0.425
12029TIP3    H236031   5.842   6.228   0.330
12030TIP3   OH236032   2.520   1.569   6.292
12030TIP3    H136033   2.556   1.646   6.248
12030TIP3    H236034   2.496   1.600   6.379
12031TIP3   OH236035   6.142   3.880   1.281
12031TIP3    H136036   6.171   3.804   1.231
12031TIP3    H236037   6.167   3.955   1.227
12032TIP3   OH236038   0.764   3.740   5.432
12032TIP3    H136039   0.813   3.810   5.389
12032TIP3    H236040   0.673   3.770   5.430
12033TIP3   OH236041   7.028   7.498   6.277
12033TIP3    H136042   6.979   7.478   6.197
12033TIP3    H236043   7.039   7.414   6.321
12034TIP3   OH236044   6.036   2.518   5.969
12034TIP3    H136045   5.988   2.555   5.895
12034TIP3    H236046   6.008   2.426   5.973
12035TIP3   OH236047   7.372   2.761   1.818
12035TIP3    H136048   7.297   2.820   1.828
12035TIP3    H236049   7.334   2.673   1.815
12036TIP3   OH236050   4.868   7.425   4.551
12036TIP3    H136051   4.962   7.434   4.537
12036TIP3    H236052   4.829   7.459   4.470
12037TIP3   OH236053   4.512   5.610   0.416
12037TIP3    H136054   4.565   5.661   0.356
12037TIP3    H236055   4.568   5.599   0.494
12038TIP3   OH236056   0.756   1.205   4.648
12038TIP3    H136057   0.843   1.221   4.612
12038TIP3    H236058   0.767   1.127   4.702
12039TIP3   OH236059   1.508   2.572   2.005
12039TIP3    H136060   1.544   2.660   2.015
12039TIP3    H236061   1.581   2.520   1.971
12040TIP3   OH236062   5.518   6.536   2.429
12040TIP3    H136063   5.561   6.485   2.496
12040TIP3    H236064   5.429   6.548   2.461
12041TIP3   OH236065   7.469   2.629   6.489
12041TIP3    H136066   7.425   2.677   6.419
12041TIP3    H236067   7.441   2.539   6.477
12042TIP3   OH236068   2.630   7.097   2.114
12042TIP3    H136069   2.619   7.128   2.204
12042TIP3    H236070   2.716   7.129   2.088
12043TIP3   OH236071   2.306   1.892   6.291
12043TIP3    H136072   2.398   1.885   6.318
12043TIP3    H236073   2.278   1.802   6.277
12044TIP3   OH236074   4.095   4.712   4.122
12044TIP3    H136075   4.007   4.717   4.083
12044TIP3    H236076   4.084   4.749   4.210
12045TIP3   OH236077   6.104   0.779   1.855
12045TIP3    H136078   6.112   0.847   1.922
12045TIP3    H236079   6.166   0.804   1.787
12046TIP3   OH236080   4.395  -0.006   1.724
12046TIP3    H136081   4.435  -0.078   1.772
12046TIP3    H236082   4.461   0.021   1.660
12047TIP3   OH236083   8.160   4.565   0.811
12047TIP3    H136084   8.091   4.571   0.745
12047TIP3    H236085   8.149   4.478   0.849
12048TIP3   OH236086   1.827   0.090   2.819
12048TIP3    H136087   1.768   0.147   2.769
12048TIP3    H236088   1.776   0.010   2.832
12049TIP3   OH236089   2.239   6.359   4.227
12049TIP3    H136090   2.233   6.378   4.133
12049TIP3    H236091   2.217   6.267   4.235
12050TIP3   OH236092   0.624   2.944   3.682
12050TIP3    H136093   0.550   2.936   3.622
12050TIP3    H236094   0.585   2.940   3.769
12051TIP3   OH236095   5.753   7.259   4.055
12051TIP3    H136096   5.818   7.296   3.995
12051TIP3    H236097   5.765   7.164   4.047
12052TIP3   OH236098   5.074   0.823   2.534
12052TIP3    H136099   5.062   0.811   2.439
12052TIP3    H236100   5.146   0.885   2.542
12053TIP3   OH236101   6.336   1.920   1.433
12053TIP3    H136102   6.376   1.871   1.362
12053TIP3    H236103   6.251   1.879   1.446
12054TIP3   OH236104   8.128   3.582   4.356
12054TIP3    H136105   8.108   3.565   4.263
12054TIP3    H236106   8.158   3.673   4.357
12055TIP3   OH236107   3.437   4.388   4.856
12055TIP3    H136108   3.525   4.421   4.839
12055TIP3    H236109   3.411   4.431   4.937
12056TIP3   OH236110   6.773   3.949   0.085
12056TIP3    H136111   6.811   3.864   0.061
12056TIP3    H236112   6.714   3.928   0.157
12057TIP3   OH236113   6.520   4.438   3.727
12057TIP3    H136114   6.449   4.495   3.698
12057TIP3    H236115   6.485   4.349   3.717
12058TIP3   OH236116   7.263   2.656   4.283
12058TIP3    H136117   7.222   2.570   4.296
12058TIP3    H236118   7.199   2.718   4.319
12059TIP3   OH236119   1.592   6.069   3.432
12059TIP3    H136120   1.670   6.015   3.444
12059TIP3    H236121   1.617   6.133   3.365
12060TIP3   OH236122   4.053   6.196   6.366
12060TIP3    H136123   4.028   6.280   6.407
12060TIP3    H236124   4.091   6.221   6.282
12061TIP3   OH236125   5.578   1.990   5.804
12061TIP3    H136126   5.657   2.035   5.775
12061TIP3    H236127   5.525   1.980   5.725
12062TIP3   OH236128   7.313   3.084   4.282
12062TIP3    H136129   7.312   3.153   4.349
12062TIP3    H236130   7.259   3.014   4.320
12063TIP3   OH236131   1.786   2.305   0.114
12063TIP3    H136132   1.809   2.398   0.126
12063TIP3    H236133   1.726   2.305   0.039
12064TIP3   OH236134   2.758   0.782   5.871
12064TIP3    H136135   2.670   0.749   5.852
12064TIP3    H236136   2.798   0.713   5.923
12065TIP3   OH236137   1.492   4.999   1.484
12065TIP3    H136138   1.501   5.094   1.479
12065TIP3    H236139   1.579   4.965   1.465
12066TIP3   OH236140   0.915   2.516   4.476
12066TIP3    H136141   0.994   2.473   4.443
12066TIP3    H236142   0.856   2.517   4.401
12067TIP3   OH236143   3.336   6.515   0.904
12067TIP3    H136144   3.247   6.528   0.936
12067TIP3    H236145   3.390   6.509   0.984
12068TIP3   OH236146   3.358   1.690   4.534
12068TIP3    H136147   3.396   1.631   4.599
12068TIP3    H236148   3.434   1.731   4.492
12069TIP3   OH236149   2.752   3.903   6.170
12069TIP3    H136150   2.818   3.865   6.113
12069TIP3    H236151   2.708   3.828   6.209
12070TIP3   OH236152   5.565   1.161   1.495
12070TIP3    H136153   5.631   1.122   1.438
12070TIP3    H236154   5.495   1.096   1.499
12071TIP3   OH236155   8.050   5.248   3.987
12071TIP3    H136156   7.993   5.271   3.914
12071TIP3    H236157   8.134   5.229   3.946
12072TIP3   OH236158   7.900   2.494   5.293
12072TIP3    H136159   7.914   2.411   5.338
12072TIP3    H236160   7.975   2.502   5.233
12073TIP3   OH236161   1.652   1.937   2.554
12073TIP3    H136162   1.630   1.862   2.498
12073TIP3    H236163   1.703   1.995   2.498
12074TIP3   OH236164   8.137   6.772   5.901
12074TIP3    H136165   8.056   6.728   5.926
12074TIP3    H236166   8.198   6.702   5.880
12075TIP3   OH236167   7.084   0.318   1.775
12075TIP3    H136168   7.130   0.400   1.758
12075TIP3    H236169   7.152   0.251   1.771
12076TIP3   OH236170   1.669   5.172   5.845
12076TIP3    H136171   1.590   5.216   5.876
12076TIP3    H236172   1.740   5.214   5.893
12077TIP3   OH236173   4.802   0.390   2.963
12077TIP3    H136174   4.861   0.315   2.969
12077TIP3    H236175   4.752   0.387   3.045
12078TIP3   OH236176   2.947   1.874   2.878
12078TIP3    H136177   2.946   1.903   2.787
12078TIP3    H236178   2.998   1.940   2.924
12079TIP3   OH236179   5.549   0.525   5.458
12079TIP3    H136180   5.627   0.476   5.431
12079TIP3    H236181   5.480   0.494   5.399
12080TIP3   OH236182   0.039   1.638   0.803
12080TIP3    H136183   0.066   1.723   0.767
12080TIP3    H236184  -0.053   1.652   0.828
12081TIP3   OH236185   8.093   5.834   4.932
12081TIP3    H136186   8.181   5.805   4.909
12081TIP3    H236187   8.057   5.870   4.850
12082TIP3   OH236188   3.271   7.456   3.462
12082TIP3    H136189   3.225   7.477   3.543
12082TIP3    H236190   3.341   7.521   3.456
12083TIP3   OH236191   3.677   5.047   4.151
12083TIP3    H136192   3.690   4.979   4.217
12083TIP3    H236193   3.764   5.082   4.135
12084TIP3   OH236194   0.746   5.086   5.034
12084TIP3    H136195   0.710   5.110   5.120
12084TIP3    H236196   0.837   5.061   5.053
12085TIP3   OH236197   6.573   2.590   6.509
12085TIP3    H136198   6.511   2.527   6.471
12085TIP3    H236199   6.599   2.550   6.592
12086TIP3   OH236200   7.303   1.290   4.383
12086TIP3    H136201   7.304   1.306   4.477
12086TIP3    H236202   7.215   1.256   4.366
12087TIP3   OH236203   1.663   4.122   1.908
12087TIP3    H136204   1.597   4.149   1.844
12087TIP3    H236205   1.704   4.045   1.870
12088TIP3   OH236206   7.444   3.666   4.413
12088TIP3    H136207   7.375   3.730   4.430
12088TIP3    H236208   7.514   3.689   4.474
12089TIP3   OH236209   2.002   7.275   3.298
12089TIP3    H136210   2.037   7.189   3.319
12089TIP3    H236211   1.929   7.257   3.239
12090TIP3   OH236212   4.228   3.538   0.274
12090TIP3    H136213   4.312   3.501   0.247
12090TIP3    H236214   4.195   3.477   0.340
12091TIP3   OH236215   5.150   4.053   3.216
12091TIP3    H136216   5.162   4.147   3.232
12091TIP3    H236217   5.199   4.036   3.137
12092TIP3   OH236218   0.845   2.932   6.199
12092TIP3    H136219   0.818   2.954   6.110
12092TIP3    H236220   0.816   3.006   6.252
12093TIP3   OH236221   2.432   3.743   5.066
12093TIP3    H136222   2.506   3.738   5.127
12093TIP3    H236223   2.358   3.710   5.116
12094TIP3   OH236224   7.172   5.011   4.349
12094TIP3    H136225   7.227   5.089   4.346
12094TIP3    H236226   7.103   5.029   4.285
12095TIP3   OH236227   0.455   3.022   0.997
12095TIP3    H136228   0.420   3.093   0.943
12095TIP3    H236229   0.496   3.067   1.071
12096TIP3   OH236230   2.786   7.549   1.765
12096TIP3    H136231   2.874   7.581   1.741
12096TIP3    H236232   2.766   7.594   1.847
12097TIP3   OH236233   2.198   5.539   2.190
12097TIP3    H136234   2.143   5.598   2.138
12097TIP3    H236235   2.273   5.593   2.217
12098TIP3   OH236236   2.267   0.215   5.891
12098TIP3    H136237   2.268   0.311   5.891
12098TIP3    H236238   2.251   0.192   5.799
12099TIP3   OH236239   3.052   0.212   3.008
12099TIP3    H136240   3.124   0.171   2.961
12099TIP3    H236241   3.084   0.221   3.098
12100TIP3   OH236242   8.105   4.514   3.290
12100TIP3    H136243   8.045   4.542   3.360
12100TIP3    H236244   8.191   4.515   3.330
12101TIP3   OH236245   5.826   6.355   0.603
12101TIP3    H136246   5.797   6.266   0.622
12101TIP3    H236247   5.777   6.409   0.665
12102TIP3   OH236248   7.076   2.801   1.150
12102TIP3    H136249   7.113   2.884   1.179
12102TIP3    H236250   7.076   2.806   1.055
12103TIP3   OH236251   4.460   4.381   0.545
12103TIP3    H136252   4.466   4.331   0.626
12103TIP3    H236253   4.527   4.343   0.488
12104TIP3   OH236254   5.105   4.864   0.504
12104TIP3    H136255   5.028   4.880   0.558
12104TIP3    H236256   5.089   4.779   0.464
12105TIP3   OH236257   1.779   1.014   0.642
12105TIP3    H136258   1.694   1.050   0.667
12105TIP3    H236259   1.764   0.920   0.632
12106TIP3   OH236260   0.483   6.960   2.039
12106TIP3    H136261   0.420   6.990   2.105
12106TIP3    H236262   0.429   6.918   1.972
12107TIP3   OH236263   1.310   2.731   0.477
12107TIP3    H136264   1.384   2.785   0.450
12107TIP3    H236265   1.237   2.793   0.483
12108TIP3   OH236266   7.784   4.437   0.768
12108TIP3    H136267   7.754   4.514   0.720
12108TIP3    H236268   7.707   4.381   0.773
12109TIP3   OH236269   5.103   3.560   5.064
12109TIP3    H136270   5.088   3.466   5.070
12109TIP3    H236271   5.109   3.590   5.155
12110TIP3   OH236272   7.504   7.609   2.662
12110TIP3    H136273   7.464   7.625   2.747
12110TIP3    H236274   7.456   7.534   2.626
12111TIP3   OH236275   2.876   0.065   5.790
12111TIP3    H136276   2.901   0.109   5.871
12111TIP3    H236277   2.785   0.038   5.805
12112TIP3   OH236278   5.276   0.604   6.150
12112TIP3    H136279   5.247   0.601   6.241
12112TIP3    H236280   5.198   0.584   6.099
12113TIP3   OH236281   0.042   3.456   3.127
12113TIP3    H136282   0.060   3.547   3.150
12113TIP3    H236283   0.070   3.449   3.035
12114TIP3   OH236284   5.061   6.434   1.702
12114TIP3    H136285   5.130   6.476   1.754
12114TIP3    H236286   5.092   6.438   1.612
12115TIP3   OH236287   4.327   2.925   1.155
12115TIP3    H136288   4.381   2.998   1.124
12115TIP3    H236289   4.343   2.854   1.092
12116TIP3   OH236290   5.866   1.430   4.937
12116TIP3    H136291   5.778   1.467   4.948
12116TIP3    H236292   5.859   1.341   4.970
12117TIP3   OH236293   4.737   1.728   2.921
12117TIP3    H136294   4.654   1.684   2.902
12117TIP3    H236295   4.713   1.820   2.933
12118TIP3   OH236296   6.063   2.659   1.924
12118TIP3    H136297   6.040   2.677   1.832
12118TIP3    H236298   6.134   2.595   1.918
12119TIP3   OH236299   4.704   4.095   6.046
12119TIP3    H136300   4.706   4.153   5.969
12119TIP3    H236301   4.684   4.154   6.119
12120TIP3   OH236302   2.131   2.889   5.907
12120TIP3    H136303   2.139   2.918   5.816
12120TIP3    H236304   2.037   2.877   5.921
12121TIP3   OH236305   3.089   4.356   3.834
12121TIP3    H136306   3.153   4.285   3.842
12121TIP3    H236307   3.026   4.339   3.904
12122TIP3   OH236308   7.161   5.861   6.424
12122TIP3    H136309   7.079   5.895   6.390
12122TIP3    H236310   7.222   5.862   6.350
12123TIP3   OH236311   5.910   2.743   0.044
12123TIP3    H136312   5.943   2.722   0.131
12123TIP3    H236313   5.838   2.804   0.060
12124TIP3   OH236314   7.292   5.286   1.175
12124TIP3    H136315   7.376   5.296   1.220
12124TIP3    H236316   7.272   5.192   1.184
12125TIP3   OH236317   4.007   7.732   1.395
12125TIP3    H136318   3.919   7.770   1.406
12125TIP3    H236319   3.994   7.638   1.404
12126TIP3   OH236320   7.404   1.888   2.974
12126TIP3    H136321   7.361   1.940   2.907
12126TIP3    H236322   7.376   1.798   2.957
12127TIP3   OH236323   1.460   6.140   0.818
12127TIP3    H136324   1.372   6.112   0.843
12127TIP3    H236325   1.451   6.171   0.728
12128TIP3   OH236326   3.894   1.839   0.721
12128TIP3    H136327   3.904   1.799   0.635
12128TIP3    H236328   3.924   1.772   0.782
12129TIP3   OH236329   7.537   1.029   1.076
12129TIP3    H136330   7.585   0.948   1.098
12129TIP3    H236331   7.526   1.025   0.981
12130TIP3   OH236332   2.640   5.833   0.243
12130TIP3    H136333   2.690   5.834   0.161
12130TIP3    H236334   2.550   5.814   0.216
12131TIP3   OH236335   8.144   5.979   5.845
12131TIP3    H136336   8.221   5.924   5.830
12131TIP3    H236337   8.113   5.955   5.932
12132TIP3   OH236338   6.209   5.817   1.390
12132TIP3    H136339   6.301   5.809   1.367
12132TIP3    H236340   6.193   5.746   1.451
12133TIP3   OH236341   7.022   1.698   1.896
12133TIP3    H136342   7.076   1.632   1.938
12133TIP3    H236343   6.936   1.689   1.936
12134TIP3   OH236344   2.617   7.733   5.594
12134TIP3    H136345   2.702   7.701   5.563
12134TIP3    H236346   2.601   7.682   5.674
12135TIP3   OH236347   7.931   4.235   5.840
12135TIP3    H136348   7.963   4.317   5.876
12135TIP3    H236349   7.857   4.260   5.784
12136TIP3   OH236350   0.960   5.511   0.681
12136TIP3    H136351   0.989   5.467   0.761
12136TIP3    H236352   0.864   5.505   0.684
12137TIP3   OH236353   4.814   5.668   0.986
12137TIP3    H136354   4.735   5.622   1.014
12137TIP3    H236355   4.885   5.604   0.998
12138TIP3   OH236356   4.080   4.676   5.427
12138TIP3    H136357   4.017   4.668   5.356
12138TIP3    H236358   4.164   4.688   5.384
12139TIP3   OH236359   1.476   7.706   1.458
12139TIP3    H136360   1.559   7.737   1.423
12139TIP3    H236361   1.475   7.739   1.548
12140TIP3   OH236362   1.695   6.763   6.278
12140TIP3    H136363   1.664   6.675   6.299
12140TIP3    H236364   1.617   6.818   6.283
12141TIP3   OH236365   1.433   7.162   0.657
12141TIP3    H136366   1.400   7.163   0.567
12141TIP3    H236367   1.360   7.130   0.709
12142TIP3   OH236368   1.059   7.335   1.993
12142TIP3    H136369   1.150   7.357   1.972
12142TIP3    H236370   1.010   7.362   1.916
12143TIP3   OH236371   0.293   2.442   3.315
12143TIP3    H136372   0.294   2.520   3.371
12143TIP3    H236373   0.372   2.450   3.262
12144TIP3   OH236374   3.086   3.267   5.301
12144TIP3    H136375   3.071   3.362   5.301
12144TIP3    H236376   3.050   3.237   5.384
12145TIP3   OH236377   5.231   2.455   2.549
12145TIP3    H136378   5.213   2.397   2.475
12145TIP3    H236379   5.283   2.401   2.609
12146TIP3   OH236380   1.377   5.078   2.414
12146TIP3    H136381   1.310   5.108   2.353
12146TIP3    H236382   1.449   5.049   2.358
12147TIP3   OH236383   7.100   6.376   0.249
12147TIP3    H136384   7.080   6.331   0.331
12147TIP3    H236385   7.195   6.369   0.239
12148TIP3   OH236386   5.169   1.671   3.226
12148TIP3    H136387   5.148   1.592   3.274
12148TIP3    H236388   5.086   1.697   3.184
12149TIP3   OH236389   4.974   3.277   1.130
12149TIP3    H136390   5.043   3.339   1.153
12149TIP3    H236391   5.011   3.191   1.153
12150TIP3   OH236392   7.051   7.800   1.011
12150TIP3    H136393   7.017   7.881   1.047
12150TIP3    H236394   6.974   7.745   0.996
12151TIP3   OH236395   7.193   4.125   2.442
12151TIP3    H136396   7.278   4.084   2.460
12151TIP3    H236397   7.190   4.132   2.347
12152TIP3   OH236398   1.744   3.923   1.565
12152TIP3    H136399   1.657   3.889   1.543
12152TIP3    H236400   1.741   4.015   1.539
12153TIP3   OH236401   7.769   5.493   5.332
12153TIP3    H136402   7.696   5.533   5.379
12153TIP3    H236403   7.735   5.473   5.245
12154TIP3   OH236404   0.939   7.789   4.991
12154TIP3    H136405   0.938   7.693   4.989
12154TIP3    H236406   0.873   7.812   5.056
12155TIP3   OH236407   5.099   6.732   2.632
12155TIP3    H136408   5.176   6.788   2.646
12155TIP3    H236409   5.034   6.765   2.695
12156TIP3   OH236410   4.340   3.688   2.258
12156TIP3    H136411   4.261   3.661   2.211
12156TIP3    H236412   4.329   3.782   2.270
12157TIP3   OH236413   6.811   6.190   5.347
12157TIP3    H136414   6.739   6.127   5.341
12157TIP3    H236415   6.845   6.197   5.257
12158TIP3   OH236416   2.640   3.883   4.465
12158TIP3    H136417   2.601   3.959   4.509
12158TIP3    H236418   2.579   3.812   4.482
12159TIP3   OH236419   5.571   4.871   5.924
12159TIP3    H136420   5.492   4.819   5.938
12159TIP3    H236421   5.548   4.959   5.953
12160TIP3   OH236422   5.162   7.470   4.088
12160TIP3    H136423   5.151   7.400   4.024
12160TIP3    H236424   5.076   7.476   4.131
12161TIP3   OH236425   5.836   1.738   6.222
12161TIP3    H136426   5.792   1.711   6.141
12161TIP3    H236427   5.861   1.829   6.206
12162TIP3   OH236428   7.837   0.746   2.403
12162TIP3    H136429   7.778   0.754   2.478
12162TIP3    H236430   7.923   0.772   2.438
12163TIP3   OH236431   7.416   3.131   2.371
12163TIP3    H136432   7.446   3.083   2.294
12163TIP3    H236433   7.496   3.143   2.423
12164TIP3   OH236434   0.163   7.058   2.925
12164TIP3    H136435   0.201   7.142   2.950
12164TIP3    H236436   0.069   7.069   2.940
12165TIP3   OH236437   4.059   3.411   3.379
12165TIP3    H136438   4.115   3.333   3.380
12165TIP3    H236439   4.077   3.455   3.462
12166TIP3   OH236440   7.135   2.282   0.587
12166TIP3    H136441   7.165   2.307   0.500
12166TIP3    H236442   7.147   2.361   0.640
12167TIP3   OH236443   2.584   7.312   2.715
12167TIP3    H136444   2.514   7.354   2.666
12167TIP3    H236445   2.648   7.382   2.730
12168TIP3   OH236446   7.815   1.828   1.837
12168TIP3    H136447   7.853   1.912   1.863
12168TIP3    H236448   7.734   1.852   1.792
12169TIP3   OH236449   6.056   0.042   3.622
12169TIP3    H136450   6.045   0.105   3.551
12169TIP3    H236451   5.969   0.002   3.633
12170TIP3   OH236452   2.662   4.207   3.097
12170TIP3    H136453   2.713   4.194   3.177
12170TIP3    H236454   2.706   4.152   3.032
12171TIP3   OH236455   1.132   2.879   4.796
12171TIP3    H136456   1.157   2.921   4.714
12171TIP3    H236457   1.058   2.931   4.828
12172TIP3   OH236458   7.400   3.017   2.110
12172TIP3    H136459   7.329   3.076   2.085
12172TIP3    H236460   7.442   2.993   2.027
12173TIP3   OH236461   7.239   5.375   3.027
12173TIP3    H136462   7.257   5.338   2.941
12173TIP3    H236463   7.294   5.453   3.032
12174TIP3   OH236464   2.447   4.592   6.450
12174TIP3    H136465   2.406   4.538   6.383
12174TIP3    H236466   2.483   4.529   6.512
12175TIP3   OH236467   4.034   6.821   5.537
12175TIP3    H136468   3.995   6.746   5.581
12175TIP3    H236469   3.993   6.823   5.450
12176TIP3   OH236470   2.250   5.927   4.983
12176TIP3    H136471   2.321   5.864   4.977
12176TIP3    H236472   2.189   5.888   5.045
12177TIP3   OH236473   1.546   4.341   6.700
12177TIP3    H136474   1.495   4.272   6.743
12177TIP3    H236475   1.622   4.294   6.664
12178TIP3   OH236476   5.004   3.709   2.485
12178TIP3    H136477   5.050   3.740   2.406
12178TIP3    H236478   4.999   3.787   2.540
12179TIP3   OH236479   5.102   2.654   1.447
12179TIP3    H136480   5.153   2.735   1.447
12179TIP3    H236481   5.168   2.585   1.438
12180TIP3   OH236482   5.570   5.188   0.772
12180TIP3    H136483   5.535   5.099   0.774
12180TIP3    H236484   5.543   5.222   0.687
12181TIP3   OH236485   5.782   6.418   1.095
12181TIP3    H136486   5.772   6.414   1.000
12181TIP3    H236487   5.718   6.356   1.129
12182TIP3   OH236488   7.367   7.142   6.536
12182TIP3    H136489   7.404   7.180   6.456
12182TIP3    H236490   7.355   7.216   6.595
12183TIP3   OH236491   5.584   3.314   5.157
12183TIP3    H136492   5.536   3.242   5.197
12183TIP3    H236493   5.644   3.272   5.095
12184TIP3   OH236494   7.355   0.581   1.265
12184TIP3    H136495   7.279   0.532   1.298
12184TIP3    H236496   7.327   0.613   1.179
12185TIP3   OH236497   2.243   1.164   5.315
12185TIP3    H136498   2.162   1.181   5.363
12185TIP3    H236499   2.311   1.210   5.364
12186TIP3   OH236500   4.686   1.679   0.085
12186TIP3    H136501   4.667   1.636   0.168
12186TIP3    H236502   4.751   1.624   0.042
12187TIP3   OH236503   3.229   2.383   2.247
12187TIP3    H136504   3.263   2.307   2.199
12187TIP3    H236505   3.158   2.416   2.192
12188TIP3   OH236506   3.979   7.176   5.523
12188TIP3    H136507   3.974   7.155   5.616
12188TIP3    H236508   4.035   7.107   5.486
12189TIP3   OH236509   8.168   0.480   2.340
12189TIP3    H136510   8.138   0.490   2.430
12189TIP3    H236511   8.233   0.410   2.344
12190TIP3   OH236512   4.007   6.205   1.988
12190TIP3    H136513   3.983   6.153   1.911
12190TIP3    H236514   3.924   6.226   2.030
12191TIP3   OH236515   4.696   4.260   5.220
12191TIP3    H136516   4.671   4.350   5.238
12191TIP3    H236517   4.712   4.221   5.306
12192TIP3   OH236518   0.967   6.988   5.383
12192TIP3    H136519   1.014   7.057   5.430
12192TIP3    H236520   0.880   7.023   5.369
12193TIP3   OH236521   4.856   7.099   5.853
12193TIP3    H136522   4.775   7.136   5.818
12193TIP3    H236523   4.846   7.105   5.948
12194TIP3   OH236524   0.389   5.181   2.577
12194TIP3    H136525   0.466   5.124   2.582
12194TIP3    H236526   0.351   5.162   2.491
12195TIP3   OH236527   7.407   2.548   2.320
12195TIP3    H136528   7.363   2.534   2.404
12195TIP3    H236529   7.423   2.642   2.317
12196TIP3   OH236530   7.101   4.380   3.861
12196TIP3    H136531   7.196   4.384   3.846
12196TIP3    H236532   7.093   4.333   3.944
12197TIP3   OH236533   7.109   7.520   6.679
12197TIP3    H136534   7.022   7.509   6.719
12197TIP3    H236535   7.124   7.437   6.633
12198TIP3   OH236536   7.223   3.284   6.399
12198TIP3    H136537   7.253   3.359   6.348
12198TIP3    H236538   7.285   3.278   6.472
12199TIP3   OH236539   5.538   2.044   5.381
12199TIP3    H136540   5.546   2.120   5.439
12199TIP3    H236541   5.609   1.985   5.408
12200TIP3   OH236542   4.243   7.057   0.777
12200TIP3    H136543   4.248   7.053   0.682
12200TIP3    H236544   4.277   6.972   0.806
12201TIP3   OH236545   0.983   4.305   3.461
12201TIP3    H136546   0.917   4.239   3.440
12201TIP3    H236547   0.962   4.332   3.551
12202TIP3   OH236548   2.802   0.493   2.533
12202TIP3    H136549   2.783   0.465   2.444
12202TIP3    H236550   2.740   0.564   2.550
12203TIP3   OH236551   7.256   3.690   3.550
12203TIP3    H136552   7.284   3.777   3.579
12203TIP3    H236553   7.166   3.703   3.521
12204TIP3   OH236554   6.574   4.182   2.544
12204TIP3    H136555   6.550   4.255   2.487
12204TIP3    H236556   6.500   4.121   2.538
12205TIP3   OH236557   1.285   5.641   2.727
12205TIP3    H136558   1.276   5.560   2.677
12205TIP3    H236559   1.198   5.654   2.766
12206TIP3   OH236560   0.475   2.505   5.679
12206TIP3    H136561   0.555   2.548   5.707
12206TIP3    H236562   0.438   2.563   5.613
12207TIP3   OH236563   3.884   0.433   6.734
12207TIP3    H136564   3.893   0.525   6.758
12207TIP3    H236565   3.856   0.434   6.643
12208TIP3   OH236566   6.675   5.092   1.387
12208TIP3    H136567   6.698   5.156   1.320
12208TIP3    H236568   6.596   5.050   1.354
12209TIP3   OH236569   2.144   4.528   5.361
12209TIP3    H136570   2.207   4.457   5.347
12209TIP3    H236571   2.177   4.600   5.308
12210TIP3   OH236572   1.717   1.747   0.871
12210TIP3    H136573   1.813   1.747   0.868
12210TIP3    H236574   1.696   1.703   0.954
12211TIP3   OH236575   7.023   3.561   5.381
12211TIP3    H136576   7.091   3.564   5.449
12211TIP3    H236577   7.070   3.536   5.301
12212TIP3   OH236578   1.844   0.414   3.839
12212TIP3    H136579   1.814   0.443   3.752
12212TIP3    H236580   1.918   0.472   3.859
12213TIP3   OH236581   1.361   2.161   1.085
12213TIP3    H136582   1.323   2.225   1.144
12213TIP3    H236583   1.426   2.114   1.138
12214TIP3   OH236584   5.130   6.144   2.823
12214TIP3    H136585   5.205   6.088   2.843
12214TIP3    H236586   5.054   6.090   2.845
12215TIP3   OH236587   4.214   7.401   3.821
12215TIP3    H136588   4.208   7.334   3.890
12215TIP3    H236589   4.254   7.355   3.747
12216TIP3   OH236590   6.662   5.920   1.401
12216TIP3    H136591   6.589   5.932   1.340
12216TIP3    H236592   6.621   5.912   1.487
12217TIP3   OH236593   2.641   6.315   3.795
12217TIP3    H136594   2.645   6.236   3.742
12217TIP3    H236595   2.703   6.375   3.754
12218TIP3   OH236596   0.696   1.708   6.221
12218TIP3    H136597   0.628   1.674   6.280
12218TIP3    H236598   0.657   1.702   6.134
12219TIP3   OH236599   0.249   5.355   3.666
12219TIP3    H136600   0.324   5.394   3.621
12219TIP3    H236601   0.183   5.343   3.597
12220TIP3   OH236602   6.777   7.416   1.745
12220TIP3    H136603   6.845   7.479   1.769
12220TIP3    H236604   6.801   7.386   1.657
12221TIP3   OH236605   5.766   0.279   1.365
12221TIP3    H136606   5.824   0.289   1.441
12221TIP3    H236607   5.695   0.224   1.396
12222TIP3   OH236608   5.339   3.946   4.481
12222TIP3    H136609   5.245   3.930   4.477
12222TIP3    H236610   5.377   3.862   4.509
12223TIP3   OH236611   0.343   5.326   5.795
12223TIP3    H136612   0.357   5.293   5.884
12223TIP3    H236613   0.369   5.253   5.738
12224TIP3   OH236614  -0.007   6.765   3.852
12224TIP3    H136615  -0.001   6.778   3.758
12224TIP3    H236616   0.083   6.763   3.883
12225TIP3   OH236617   1.086   3.741   0.190
12225TIP3    H136618   1.009   3.687   0.173
12225TIP3    H236619   1.078   3.814   0.129
12226TIP3   OH236620   1.360   5.724   1.890
12226TIP3    H136621   1.413   5.651   1.859
12226TIP3    H236622   1.286   5.728   1.829
12227TIP3   OH236623   6.487   1.554   6.315
12227TIP3    H136624   6.444   1.628   6.358
12227TIP3    H236625   6.450   1.476   6.357
12228TIP3   OH236626   5.966   0.588   0.388
12228TIP3    H136627   5.943   0.503   0.425
12228TIP3    H236628   5.944   0.651   0.457
12229TIP3   OH236629   3.612   5.283   3.404
12229TIP3    H136630   3.542   5.306   3.343
12229TIP3    H236631   3.569   5.280   3.490
12230TIP3   OH236632   7.853   6.606   2.177
12230TIP3    H136633   7.813   6.691   2.195
12230TIP3    H236634   7.792   6.542   2.213
12231TIP3   OH236635   1.313   3.395   3.300
12231TIP3    H136636   1.298   3.304   3.276
12231TIP3    H236637   1.276   3.445   3.227
12232TIP3   OH236638   5.439   0.540   0.309
12232TIP3    H136639   5.453   0.571   0.398
12232TIP3    H236640   5.523   0.502   0.283
12233TIP3   OH236641   0.196   3.236   2.757
12233TIP3    H136642   0.290   3.222   2.769
12233TIP3    H236643   0.170   3.171   2.692
12234TIP3   OH236644   2.776   2.959   4.154
12234TIP3    H136645   2.792   2.912   4.236
12234TIP3    H236646   2.860   3.002   4.134
12235TIP3   OH236647   5.724   4.655   6.030
12235TIP3    H136648   5.719   4.665   6.125
12235TIP3    H236649   5.652   4.709   5.996
12236TIP3   OH236650   6.154   4.760   1.315
12236TIP3    H136651   6.220   4.733   1.252
12236TIP3    H236652   6.081   4.791   1.262
12237TIP3   OH236653   7.688   3.115   1.399
12237TIP3    H136654   7.646   3.184   1.450
12237TIP3    H236655   7.658   3.130   1.309
12238TIP3   OH236656   7.576   1.727   3.943
12238TIP3    H136657   7.500   1.677   3.971
12238TIP3    H236658   7.601   1.688   3.860
12239TIP3   OH236659   2.263   3.075   6.042
12239TIP3    H136660   2.225   3.002   5.993
12239TIP3    H236661   2.194   3.141   6.045
12240TIP3   OH236662   3.923   2.365   5.471
12240TIP3    H136663   4.016   2.383   5.486
12240TIP3    H236664   3.877   2.435   5.518
12241TIP3   OH236665   6.709   3.534   5.217
12241TIP3    H136666   6.719   3.485   5.135
12241TIP3    H236667   6.757   3.481   5.282
12242TIP3   OH236668   1.126   2.625   0.097
12242TIP3    H136669   1.173   2.694   0.048
12242TIP3    H236670   1.088   2.570   0.029
12243TIP3   OH236671   6.342   0.504   6.546
12243TIP3    H136672   6.425   0.548   6.527
12243TIP3    H236673   6.358   0.457   6.628
12244TIP3   OH236674   6.811   5.187   4.706
12244TIP3    H136675   6.794   5.281   4.711
12244TIP3    H236676   6.897   5.181   4.664
12245TIP3   OH236677   1.887   5.765   6.449
12245TIP3    H136678   1.913   5.781   6.540
12245TIP3    H236679   1.794   5.742   6.454
12246TIP3   OH236680   6.593   2.638   2.448
12246TIP3    H136681   6.613   2.720   2.402
12246TIP3    H236682   6.547   2.665   2.527
12247TIP3   OH236683   2.209   4.770   5.964
12247TIP3    H136684   2.146   4.832   5.926
12247TIP3    H236685   2.168   4.684   5.952
12248TIP3   OH236686   1.246   2.149   5.933
12248TIP3    H136687   1.329   2.129   5.889
12248TIP3    H236688   1.270   2.161   6.025
12249TIP3   OH236689   1.078   1.008   5.224
12249TIP3    H136690   1.085   1.035   5.133
12249TIP3    H236691   1.028   0.927   5.222
12250TIP3   OH236692   5.130   4.479   4.849
12250TIP3    H136693   5.168   4.528   4.922
12250TIP3    H236694   5.198   4.418   4.823
12251TIP3   OH236695   2.376   3.481   4.306
12251TIP3    H136696   2.295   3.528   4.288
12251TIP3    H236697   2.420   3.476   4.221
12252TIP3   OH236698   5.119   0.161   6.298
12252TIP3    H136699   5.133   0.189   6.207
12252TIP3    H236700   5.024   0.150   6.305
12253TIP3   OH236701   0.303   1.055   1.696
12253TIP3    H136702   0.276   1.144   1.672
12253TIP3    H236703   0.399   1.059   1.698
12254TIP3   OH236704   4.245   5.489   5.917
12254TIP3    H136705   4.221   5.491   6.009
12254TIP3    H236706   4.182   5.429   5.877
12255TIP3   OH236707   3.333   2.214   5.492
12255TIP3    H136708   3.374   2.256   5.416
12255TIP3    H236709   3.401   2.216   5.560
12256TIP3   OH236710   2.310  -0.036   6.635
12256TIP3    H136711   2.339   0.054   6.654
12256TIP3    H236712   2.237  -0.025   6.575
12257TIP3   OH236713   0.149   7.460   1.132
12257TIP3    H136714   0.219   7.400   1.159
12257TIP3    H236715   0.138   7.519   1.206
12258TIP3   OH236716   0.042   5.384   5.092
12258TIP3    H136717   0.028   5.478   5.102
12258TIP3    H236718   0.123   5.377   5.040
12259TIP3   OH236719   4.540   6.208   1.051
12259TIP3    H136720   4.496   6.257   1.121
12259TIP3    H236721   4.470   6.191   0.988
12260TIP3   OH236722   0.207   3.495   2.082
12260TIP3    H136723   0.288   3.543   2.068
12260TIP3    H236724   0.203   3.482   2.177
12261TIP3   OH236725   5.730   2.012   4.829
12261TIP3    H136726   5.671   1.980   4.761
12261TIP3    H236727   5.675   2.020   4.907
12262TIP3   OH236728   0.648   1.413   3.433
12262TIP3    H136729   0.732   1.455   3.417
12262TIP3    H236730   0.595   1.436   3.357
12263TIP3   OH236731   4.557   6.915   1.789
12263TIP3    H136732   4.523   7.002   1.770
12263TIP3    H236733   4.527   6.896   1.878
12264TIP3   OH236734   3.089   6.202   6.385
12264TIP3    H136735   3.116   6.124   6.435
12264TIP3    H236736   3.172   6.244   6.362
12265TIP3   OH236737   7.646   6.739   2.721
12265TIP3    H136738   7.671   6.745   2.628
12265TIP3    H236739   7.616   6.827   2.743
12266TIP3   OH236740   7.253   6.810   6.280
12266TIP3    H136741   7.234   6.902   6.299
12266TIP3    H236742   7.317   6.785   6.347
12267TIP3   OH236743   6.235   7.710   3.234
12267TIP3    H136744   6.171   7.732   3.167
12267TIP3    H236745   6.318   7.702   3.186
12268TIP3   OH236746   1.062   3.244   0.857
12268TIP3    H136747   1.033   3.156   0.879
12268TIP3    H236748   1.134   3.230   0.795
12269TIP3   OH236749   0.433   5.094   5.665
12269TIP3    H136750   0.523   5.121   5.646
12269TIP3    H236751   0.416   5.022   5.605
12270TIP3   OH236752   0.887   0.835   5.110
12270TIP3    H136753   0.823   0.777   5.069
12270TIP3    H236754   0.972   0.797   5.088
12271TIP3   OH236755   0.872   2.037   6.673
12271TIP3    H136756   0.878   2.131   6.693
12271TIP3    H236757   0.825   2.034   6.589
12272TIP3   OH236758   2.194   1.701   0.851
12272TIP3    H136759   2.279   1.722   0.813
12272TIP3    H236760   2.212   1.628   0.910
12273TIP3   OH236761   7.524   6.112   3.650
12273TIP3    H136762   7.599   6.171   3.659
12273TIP3    H236763   7.449   6.171   3.636
12274TIP3   OH236764   1.789   2.198   6.479
12274TIP3    H136765   1.856   2.142   6.519
12274TIP3    H236766   1.817   2.287   6.501
12275TIP3   OH236767   2.542   7.272   0.388
12275TIP3    H136768   2.605   7.282   0.317
12275TIP3    H236769   2.463   7.317   0.357
12276TIP3   OH236770   2.606   3.778   0.545
12276TIP3    H136771   2.653   3.861   0.535
12276TIP3    H236772   2.575   3.757   0.458
12277TIP3   OH236773   4.358   0.967   4.887
12277TIP3    H136774   4.380   0.889   4.836
12277TIP3    H236775   4.403   0.955   4.971
12278TIP3   OH236776   4.902   6.269   5.826
12278TIP3    H136777   4.891   6.204   5.757
12278TIP3    H236778   4.990   6.253   5.860
12279TIP3   OH236779   4.268   1.540   2.297
12279TIP3    H136780   4.193   1.529   2.356
12279TIP3    H236781   4.305   1.452   2.289
12280TIP3   OH236782   1.651   5.651   2.946
12280TIP3    H136783   1.654   5.731   2.893
12280TIP3    H236784   1.560   5.643   2.973
12281TIP3   OH236785   6.906   7.005   6.469
12281TIP3    H136786   6.977   6.974   6.525
12281TIP3    H236787   6.839   6.937   6.475
12282TIP3   OH236788   6.803   3.587   4.274
12282TIP3    H136789   6.745   3.612   4.202
12282TIP3    H236790   6.778   3.497   4.295
12283TIP3   OH236791   6.092   7.021   1.088
12283TIP3    H136792   6.080   7.006   1.182
12283TIP3    H236793   6.103   6.933   1.051
12284TIP3   OH236794   3.521   0.275   5.939
12284TIP3    H136795   3.436   0.273   5.984
12284TIP3    H236796   3.502   0.244   5.851
12285TIP3   OH236797   4.379   0.513   2.404
12285TIP3    H136798   4.392   0.579   2.337
12285TIP3    H236799   4.393   0.430   2.360
12286TIP3   OH236800   2.087   2.122   5.768
12286TIP3    H136801   2.038   2.163   5.697
12286TIP3    H236802   2.130   2.047   5.727
12287TIP3   OH236803   4.208   4.747   1.316
12287TIP3    H136804   4.204   4.818   1.380
12287TIP3    H236805   4.133   4.763   1.258
12288TIP3   OH236806   8.183   0.391   2.615
12288TIP3    H136807   8.248   0.461   2.603
12288TIP3    H236808   8.220   0.316   2.568
12289TIP3   OH236809   2.253   1.206   2.250
12289TIP3    H136810   2.315   1.147   2.292
12289TIP3    H236811   2.226   1.159   2.171
12290TIP3   OH236812   7.608   6.004   4.435
12290TIP3    H136813   7.628   5.938   4.502
12290TIP3    H236814   7.522   5.979   4.402
12291TIP3   OH236815   6.113   5.343   1.826
12291TIP3    H136816   6.203   5.366   1.848
12291TIP3    H236817   6.062   5.368   1.903
12292TIP3   OH236818   7.472   7.176   5.357
12292TIP3    H136819   7.418   7.128   5.420
12292TIP3    H236820   7.419   7.178   5.277
12293TIP3   OH236821   5.437   2.363   6.598
12293TIP3    H136822   5.380   2.307   6.649
12293TIP3    H236823   5.405   2.354   6.508
12294TIP3   OH236824   6.079   1.075   2.583
12294TIP3    H136825   6.064   1.017   2.507
12294TIP3    H236826   5.999   1.069   2.634
12295TIP3   OH236827   2.174   1.271   0.392
12295TIP3    H136828   2.180   1.292   0.485
12295TIP3    H236829   2.083   1.288   0.369
12296TIP3   OH236830   2.685   2.741   1.084
12296TIP3    H136831   2.675   2.745   1.179
12296TIP3    H236832   2.692   2.832   1.056
12297TIP3   OH236833   6.790   2.708   2.093
12297TIP3    H136834   6.709   2.661   2.075
12297TIP3    H236835   6.773   2.797   2.060
12298TIP3   OH236836   8.060   4.476   1.363
12298TIP3    H136837   7.971   4.486   1.399
12298TIP3    H236838   8.095   4.399   1.407
12299TIP3   OH236839   6.987   2.936   1.614
12299TIP3    H136840   7.038   2.925   1.694
12299TIP3    H236841   6.899   2.958   1.644
12300TIP3   OH236842   7.829   0.209   2.824
12300TIP3    H136843   7.733   0.212   2.825
12300TIP3    H236844   7.853   0.258   2.745
12301TIP3   OH236845   0.687   5.526   2.855
12301TIP3    H136846   0.708   5.454   2.915
12301TIP3    H236847   0.760   5.526   2.793
12302TIP3   OH236848   0.499   3.943   5.358
12302TIP3    H136849   0.419   3.996   5.361
12302TIP3    H236850   0.502   3.910   5.268
12303TIP3   OH236851   4.629   4.377   2.058
12303TIP3    H136852   4.671   4.303   2.101
12303TIP3    H236853   4.621   4.350   1.967
12304TIP3   OH236854   7.629   7.128   0.860
12304TIP3    H136855   7.627   7.218   0.891
12304TIP3    H236856   7.720   7.101   0.872
12305TIP3   OH236857   8.011   1.799   3.548
12305TIP3    H136858   7.940   1.735   3.552
12305TIP3    H236859   7.967   1.883   3.563
12306TIP3   OH236860   3.089   2.264   1.604
12306TIP3    H136861   3.035   2.229   1.534
12306TIP3    H236862   3.130   2.342   1.566
12307TIP3   OH236863   7.253   6.965   5.341
12307TIP3    H136864   7.186   7.010   5.392
12307TIP3    H236865   7.270   7.022   5.267
12308TIP3   OH236866   0.955   3.658   4.696
12308TIP3    H136867   0.983   3.595   4.630
12308TIP3    H236868   1.000   3.630   4.776
12309TIP3   OH236869   6.889   7.126   2.222
12309TIP3    H136870   6.941   7.204   2.242
12309TIP3    H236871   6.925   7.059   2.280
12310TIP3   OH236872   6.159   3.116   2.540
12310TIP3    H136873   6.171   3.021   2.540
12310TIP3    H236874   6.209   3.146   2.616
12311TIP3   OH236875   3.204   3.669   6.356
12311TIP3    H136876   3.170   3.596   6.305
12311TIP3    H236877   3.241   3.629   6.434
12312TIP3   OH236878   2.169   0.774   0.052
12312TIP3    H136879   2.237   0.819   0.003
12312TIP3    H236880   2.093   0.775  -0.006
12313TIP3   OH236881   4.808   3.474   2.400
12313TIP3    H136882   4.829   3.421   2.477
12313TIP3    H236883   4.816   3.564   2.431
12314TIP3   OH236884   2.222   3.708   4.738
12314TIP3    H136885   2.301   3.762   4.741
12314TIP3    H236886   2.226   3.656   4.819
12315TIP3   OH236887   0.833   4.186   6.094
12315TIP3    H136888   0.892   4.143   6.155
12315TIP3    H236889   0.745   4.160   6.123
12316TIP3   OH236890   6.681   7.436   4.576
12316TIP3    H136891   6.730   7.413   4.655
12316TIP3    H236892   6.711   7.525   4.555
12317TIP3   OH236893   4.434   6.730   3.603
12317TIP3    H136894   4.526   6.706   3.612
12317TIP3    H236895   4.387   6.648   3.618
12318TIP3   OH236896   0.237   4.334   0.551
12318TIP3    H136897   0.319   4.289   0.570
12318TIP3    H236898   0.173   4.292   0.609
12319TIP3   OH236899   0.799   4.976   2.240
12319TIP3    H136900   0.777   5.068   2.223
12319TIP3    H236901   0.733   4.947   2.303
12320TIP3   OH236902   1.349   0.178   6.145
12320TIP3    H136903   1.384   0.090   6.133
12320TIP3    H236904   1.309   0.200   6.060
12321TIP3   OH236905   7.830   7.475   2.238
12321TIP3    H136906   7.887   7.418   2.187
12321TIP3    H236907   7.891   7.533   2.285
12322TIP3   OH236908   0.718   1.117   1.095
12322TIP3    H136909   0.771   1.154   1.025
12322TIP3    H236910   0.673   1.192   1.133
12323TIP3   OH236911   3.509   1.868   0.032
12323TIP3    H136912   3.445   1.825  -0.025
12323TIP3    H236913   3.473   1.956   0.047
12324TIP3   OH236914   3.087   0.928   0.331
12324TIP3    H136915   3.058   0.871   0.260
12324TIP3    H236916   3.012   0.984   0.348
12325TIP3   OH236917   5.336   7.759   0.124
12325TIP3    H136918   5.409   7.720   0.075
12325TIP3    H236919   5.322   7.844   0.082
12326TIP3   OH236920   5.927   4.120   5.220
12326TIP3    H136921   5.927   4.024   5.217
12326TIP3    H236922   6.002   4.142   5.276
12327TIP3   OH236923   3.119   2.944   0.260
12327TIP3    H136924   3.189   2.948   0.325
12327TIP3    H236925   3.123   3.028   0.214
12328TIP3   OH236926   6.454   4.281   0.158
12328TIP3    H136927   6.378   4.293   0.100
12328TIP3    H236928   6.530   4.292   0.101
12329TIP3   OH236929   6.377   2.588   3.008
12329TIP3    H136930   6.324   2.524   2.961
12329TIP3    H236931   6.316   2.658   3.031
12330TIP3   OH236932   2.643   7.439   3.968
12330TIP3    H136933   2.655   7.463   3.876
12330TIP3    H236934   2.566   7.382   3.968
12331TIP3   OH236935   7.169   1.423   1.467
12331TIP3    H136936   7.190   1.502   1.517
12331TIP3    H236937   7.079   1.436   1.439
12332TIP3   OH236938   4.437   1.829   5.114
12332TIP3    H136939   4.356   1.878   5.102
12332TIP3    H236940   4.464   1.805   5.025
12333TIP3   OH236941   3.265   2.777   6.728
12333TIP3    H136942   3.214   2.742   6.655
12333TIP3    H236943   3.301   2.699   6.771
12334TIP3   OH236944   7.620   2.513   3.086
12334TIP3    H136945   7.630   2.423   3.116
12334TIP3    H236946   7.653   2.567   3.158
12335TIP3   OH236947   2.030   6.414   3.616
12335TIP3    H136948   2.002   6.504   3.600
12335TIP3    H236949   1.968   6.360   3.568
12336TIP3   OH236950   3.423   7.581   1.594
12336TIP3    H136951   3.339   7.542   1.620
12336TIP3    H236952   3.412   7.601   1.501
12337TIP3   OH236953   0.042   5.586   1.918
12337TIP3    H136954   0.020   5.581   2.011
12337TIP3    H236955  -0.035   5.627   1.877
12338TIP3   OH236956   3.134   5.548   4.092
12338TIP3    H136957   3.208   5.552   4.032
12338TIP3    H236958   3.154   5.474   4.149
12339TIP3   OH236959   1.570   3.932   4.103
12339TIP3    H136960   1.587   3.843   4.071
12339TIP3    H236961   1.643   3.950   4.163
12340TIP3   OH236962   6.258   0.236   5.860
12340TIP3    H136963   6.263   0.175   5.787
12340TIP3    H236964   6.178   0.211   5.906
12341TIP3   OH236965   4.520   0.228   4.127
12341TIP3    H136966   4.539   0.262   4.040
12341TIP3    H236967   4.489   0.305   4.176
12342TIP3   OH236968   7.422   7.097   2.543
12342TIP3    H136969   7.432   7.002   2.544
12342TIP3    H236970   7.399   7.120   2.633
12343TIP3   OH236971   0.651   2.986   1.794
12343TIP3    H136972   0.740   3.014   1.775
12343TIP3    H236973   0.642   2.995   1.889
12344TIP3   OH236974   0.545   4.894   6.097
12344TIP3    H136975   0.553   4.837   6.173
12344TIP3    H236976   0.540   4.835   6.022
12345TIP3   OH236977   1.238   4.203   2.034
12345TIP3    H136978   1.263   4.134   1.974
12345TIP3    H236979   1.144   4.189   2.049
12346TIP3   OH236980   6.092   3.912   3.034
12346TIP3    H136981   6.185   3.928   3.016
12346TIP3    H236982   6.049   3.933   2.951
12347TIP3   OH236983   6.839   7.627   5.825
12347TIP3    H136984   6.897   7.598   5.754
12347TIP3    H236985   6.868   7.715   5.846
12348TIP3   OH236986   4.621   0.544   6.758
12348TIP3    H136987   4.574   0.463   6.776
12348TIP3    H236988   4.553   0.611   6.752
12349TIP3   OH236989   4.853   1.112   3.142
12349TIP3    H136990   4.779   1.154   3.097
12349TIP3    H236991   4.928   1.128   3.086
12350TIP3   OH236992   0.527   5.746   1.944
12350TIP3    H136993   0.612   5.753   1.988
12350TIP3    H236994   0.466   5.720   2.014
12351TIP3   OH236995   0.803   2.262   2.184
12351TIP3    H136996   0.804   2.225   2.272
12351TIP3    H236997   0.802   2.186   2.126
12352TIP3   OH236998   6.390   4.743   2.027
12352TIP3    H136999   6.455   4.772   2.091
12352TIP3    H237000   6.339   4.822   2.008
12353TIP3   OH237001   5.787   4.880   0.947
12353TIP3    H137002   5.854   4.931   0.902
12353TIP3    H237003   5.706   4.929   0.935
12354TIP3   OH237004   6.583   2.563   3.567
12354TIP3    H137005   6.564   2.585   3.658
12354TIP3    H237006   6.653   2.623   3.541
12355TIP3   OH237007   5.505   7.604   3.934
12355TIP3    H137008   5.435   7.646   3.984
12355TIP3    H237009   5.585   7.623   3.985
12356TIP3   OH237010   1.477   3.873   1.369
12356TIP3    H137011   1.451   3.957   1.333
12356TIP3    H237012   1.547   3.842   1.311
12357TIP3   OH237013   3.596   7.237   0.309
12357TIP3    H137014   3.634   7.313   0.354
12357TIP3    H237015   3.511   7.224   0.351
12358TIP3   OH237016   4.497   2.486   4.671
12358TIP3    H137017   4.505   2.432   4.592
12358TIP3    H237018   4.474   2.424   4.740
12359TIP3   OH237019   1.341   7.282   3.958
12359TIP3    H137020   1.432   7.268   3.933
12359TIP3    H237021   1.345   7.306   4.050
12360TIP3   OH237022   0.259   2.660   0.769
12360TIP3    H137023   0.327   2.667   0.836
12360TIP3    H237024   0.185   2.709   0.804
12361TIP3   OH237025   2.642   0.378   0.496
12361TIP3    H137026   2.708   0.448   0.493
12361TIP3    H237027   2.692   0.298   0.482
12362TIP3   OH237028   6.987   4.090   2.621
12362TIP3    H137029   6.915   4.057   2.568
12362TIP3    H237030   7.061   4.096   2.561
12363TIP3   OH237031   4.848   5.237   3.997
12363TIP3    H137032   4.924   5.232   3.940
12363TIP3    H237033   4.788   5.297   3.951
12364TIP3   OH237034   2.936   4.238   1.015
12364TIP3    H137035   2.871   4.174   0.985
12364TIP3    H237036   2.987   4.259   0.937
12365TIP3   OH237037   3.512   2.807   6.111
12365TIP3    H137038   3.546   2.747   6.045
12365TIP3    H237039   3.560   2.786   6.190
12366TIP3   OH237040   6.502   1.282   0.254
12366TIP3    H137041   6.586   1.272   0.208
12366TIP3    H237042   6.502   1.372   0.285
12367TIP3   OH237043   6.421   4.668   4.610
12367TIP3    H137044   6.494   4.607   4.604
12367TIP3    H237045   6.368   4.651   4.532
12368TIP3   OH237046   5.090   3.628   2.850
12368TIP3    H137047   5.145   3.699   2.817
12368TIP3    H237048   5.150   3.554   2.862
12369TIP3   OH237049   0.378   4.866   5.234
12369TIP3    H137050   0.367   4.959   5.253
12369TIP3    H237051   0.438   4.863   5.159
12370TIP3   OH237052   4.078   5.061  -0.024
12370TIP3    H137053   4.084   4.987   0.037
12370TIP3    H237054   3.995   5.104  -0.001
12371TIP3   OH237055   0.357   2.188   2.123
12371TIP3    H137056   0.369   2.159   2.214
12371TIP3    H237057   0.438   2.163   2.079
12372TIP3   OH237058   3.722   6.640   4.556
12372TIP3    H137059   3.781   6.594   4.496
12372TIP3    H237060   3.780   6.688   4.615
12373TIP3   OH237061   4.185   1.413   0.502
12373TIP3    H137062   4.207   1.506   0.508
12373TIP3    H237063   4.238   1.380   0.429
12374TIP3   OH237064   4.718   7.262   2.858
12374TIP3    H137065   4.700   7.353   2.834
12374TIP3    H237066   4.790   7.236   2.801
12375TIP3   OH237067   4.633   2.480   3.736
12375TIP3    H137068   4.651   2.573   3.723
12375TIP3    H237069   4.586   2.453   3.657
12376TIP3   OH237070   4.089   6.154   6.641
12376TIP3    H137071   4.073   6.137   6.548
12376TIP3    H237072   4.022   6.104   6.687
12377TIP3   OH237073   0.550   7.399   6.100
12377TIP3    H137074   0.505   7.375   6.019
12377TIP3    H237075   0.625   7.451   6.072
12378TIP3   OH237076   8.245   3.453   1.998
12378TIP3    H137077   8.313   3.474   2.062
12378TIP3    H237078   8.284   3.477   1.914
12379TIP3   OH237079   3.845   0.805   4.043
12379TIP3    H137080   3.940   0.813   4.058
12379TIP3    H237081   3.828   0.864   3.970
12380TIP3   OH237082   0.786   2.798   1.447
12380TIP3    H137083   0.712   2.820   1.390
12380TIP3    H237084   0.844   2.875   1.443
12381TIP3   OH237085   0.133   6.898   5.016
12381TIP3    H137086   0.094   6.830   4.960
12381TIP3    H237087   0.227   6.884   5.008
12382TIP3   OH237088   3.753   6.155   2.121
12382TIP3    H137089   3.745   6.095   2.195
12382TIP3    H237090   3.711   6.109   2.048
12383TIP3   OH237091   6.823   1.121   2.806
12383TIP3    H137092   6.831   1.108   2.900
12383TIP3    H237093   6.888   1.188   2.786
12384TIP3   OH237094   2.824   3.823   6.512
12384TIP3    H137095   2.763   3.755   6.480
12384TIP3    H237096   2.769   3.882   6.563
12385TIP3   OH237097   2.689   5.195   4.330
12385TIP3    H137098   2.706   5.260   4.399
12385TIP3    H237099   2.672   5.114   4.378
12386TIP3   OH237100   2.581   1.847   2.697
12386TIP3    H137101   2.602   1.797   2.618
12386TIP3    H237102   2.488   1.829   2.713
12387TIP3   OH237103   5.791   0.138   5.592
12387TIP3    H137104   5.810   0.044   5.596
12387TIP3    H237105   5.785   0.164   5.684
12388TIP3   OH237106   6.778   6.437   0.604
12388TIP3    H137107   6.767   6.402   0.692
12388TIP3    H237108   6.842   6.508   0.613
12389TIP3   OH237109   7.130   2.146   0.823
12389TIP3    H137110   7.110   2.204   0.751
12389TIP3    H237111   7.193   2.083   0.787
12390TIP3   OH237112   7.792   3.730   3.450
12390TIP3    H137113   7.798   3.687   3.535
12390TIP3    H237114   7.873   3.779   3.442
12391TIP3   OH237115   4.061   3.717   2.693
12391TIP3    H137116   4.026   3.710   2.604
12391TIP3    H237117   4.147   3.676   2.688
12392TIP3   OH237118   8.226   6.269   0.667
12392TIP3    H137119   8.254   6.200   0.725
12392TIP3    H237120   8.149   6.233   0.621
12393TIP3   OH237121   3.488   6.526   1.143
12393TIP3    H137122   3.504   6.505   1.235
12393TIP3    H237123   3.567   6.573   1.115
12394TIP3   OH237124   1.656   4.329   3.262
12394TIP3    H137125   1.646   4.381   3.341
12394TIP3    H237126   1.749   4.335   3.241
12395TIP3   OH237127   3.672   7.577   4.606
12395TIP3    H137128   3.755   7.536   4.633
12395TIP3    H237129   3.611   7.557   4.677
12396TIP3   OH237130   7.799   1.036   4.464
12396TIP3    H137131   7.748   1.077   4.394
12396TIP3    H237132   7.833   0.955   4.426
12397TIP3   OH237133   0.684   2.283   3.531
12397TIP3    H137134   0.630   2.361   3.543
12397TIP3    H237135   0.654   2.223   3.600
12398TIP3   OH237136   1.227   0.497   5.602
12398TIP3    H137137   1.297   0.544   5.648
12398TIP3    H237138   1.270   0.420   5.565
12399TIP3   OH237139   0.790   6.091   1.689
12399TIP3    H137140   0.823   6.179   1.711
12399TIP3    H237141   0.791   6.044   1.772
12400TIP3   OH237142   4.850   1.856   5.574
12400TIP3    H137143   4.929   1.898   5.540
12400TIP3    H237144   4.881   1.775   5.614
12401TIP3   OH237145   1.520   7.689   2.073
12401TIP3    H137146   1.512   7.731   2.158
12401TIP3    H237147   1.583   7.743   2.025
12402TIP3   OH237148   0.272   2.410   1.178
12402TIP3    H137149   0.328   2.445   1.109
12402TIP3    H237150   0.223   2.339   1.135
12403TIP3   OH237151   3.612   6.870   6.577
12403TIP3    H137152   3.706   6.878   6.593
12403TIP3    H237153   3.605   6.859   6.482
12404TIP3   OH237154   2.748   3.901   3.600
12404TIP3    H137155   2.687   3.873   3.668
12404TIP3    H237156   2.819   3.943   3.648
12405TIP3   OH237157   2.938   4.134   2.180
12405TIP3    H137158   2.911   4.095   2.097
12405TIP3    H237159   2.913   4.226   2.172
12406TIP3   OH237160   3.936   2.535   5.848
12406TIP3    H137161   3.964   2.592   5.777
12406TIP3    H237162   4.018   2.508   5.890
12407TIP3   OH237163   3.474   0.179   4.367
12407TIP3    H137164   3.516   0.098   4.394
12407TIP3    H237165   3.513   0.246   4.423
12408TIP3   OH237166   0.217   7.286   0.575
12408TIP3    H137167   0.228   7.302   0.481
12408TIP3    H237168   0.264   7.357   0.618
12409TIP3   OH237169   6.872   4.689   1.019
12409TIP3    H137170   6.852   4.713   0.928
12409TIP3    H237171   6.945   4.746   1.043
12410TIP3   OH237172   7.005   7.036   1.516
12410TIP3    H137173   7.020   6.963   1.575
12410TIP3    H237174   7.059   7.017   1.439
12411TIP3   OH237175   5.461   1.508   0.376
12411TIP3    H137176   5.367   1.519   0.367
12411TIP3    H237177   5.483   1.441   0.311
12412TIP3   OH237178   1.218   7.017   3.273
12412TIP3    H137179   1.161   7.002   3.198
12412TIP3    H237180   1.158   7.032   3.346
12413TIP3   OH237181   0.919   1.933   4.197
12413TIP3    H137182   0.913   1.896   4.285
12413TIP3    H237183   0.855   2.004   4.196
12414TIP3   OH237184   1.406   7.797   2.620
12414TIP3    H137185   1.378   7.884   2.649
12414TIP3    H237186   1.334   7.739   2.645
12415TIP3   OH237187   0.146   3.854   3.903
12415TIP3    H137188   0.194   3.801   3.967
12415TIP3    H237189   0.101   3.920   3.957
12416TIP3   OH237190   6.045   6.036   4.110
12416TIP3    H137191   5.990   5.973   4.156
12416TIP3    H237192   6.007   6.121   4.132
12417TIP3   OH237193   4.270   3.549   0.919
12417TIP3    H137194   4.197   3.491   0.896
12417TIP3    H237195   4.259   3.624   0.860
12418TIP3   OH237196   6.043   5.641   4.349
12418TIP3    H137197   6.101   5.597   4.287
12418TIP3    H237198   6.030   5.578   4.419
12419TIP3   OH237199   4.136   3.222   6.180
12419TIP3    H137200   4.129   3.317   6.193
12419TIP3    H237201   4.056   3.186   6.217
12420TIP3   OH237202   7.398   3.943   3.601
12420TIP3    H137203   7.452   3.947   3.522
12420TIP3    H237204   7.361   4.031   3.610
12421TIP3   OH237205   6.605   4.797   4.255
12421TIP3    H137206   6.526   4.850   4.258
12421TIP3    H237207   6.619   4.779   4.162
12422TIP3   OH237208   3.992   7.689   4.885
12422TIP3    H137209   3.967   7.708   4.795
12422TIP3    H237210   4.072   7.740   4.898
12423TIP3   OH237211   3.460   6.553   1.860
12423TIP3    H137212   3.371   6.533   1.832
12423TIP3    H237213   3.454   6.566   1.954
12424TIP3   OH237214   1.973   7.328   3.787
12424TIP3    H137215   1.890   7.300   3.748
12424TIP3    H237216   2.013   7.383   3.720
12425TIP3   OH237217   3.782   7.693   5.812
12425TIP3    H137218   3.857   7.746   5.837
12425TIP3    H237219   3.819   7.617   5.769
12426TIP3   OH237220   3.893   2.347   4.413
12426TIP3    H137221   3.834   2.274   4.436
12426TIP3    H237222   3.972   2.304   4.381
12427TIP3   OH237223   3.562   1.676   2.172
12427TIP3    H137224   3.536   1.609   2.235
12427TIP3    H237225   3.601   1.627   2.099
12428TIP3   OH237226   3.612   2.178   6.126
12428TIP3    H137227   3.681   2.184   6.060
12428TIP3    H237228   3.531   2.165   6.075
12429TIP3   OH237229   4.406   7.376   5.604
12429TIP3    H137230   4.477   7.403   5.545
12429TIP3    H237231   4.357   7.311   5.553
12430TIP3   OH237232   1.513   3.876   4.627
12430TIP3    H137233   1.441   3.825   4.664
12430TIP3    H237234   1.578   3.880   4.698
12431TIP3   OH237235   7.098   1.966   5.048
12431TIP3    H137236   7.116   2.058   5.030
12431TIP3    H237237   7.005   1.964   5.072
12432TIP3   OH237238   4.098   7.392   1.664
12432TIP3    H137239   4.183   7.436   1.666
12432TIP3    H237240   4.106   7.328   1.593
12433TIP3   OH237241   7.367   2.047   4.299
12433TIP3    H137242   7.301   1.983   4.325
12433TIP3    H237243   7.427   1.999   4.242
12434TIP3   OH237244   3.679   3.689   0.019
12434TIP3    H137245   3.641   3.772   0.047
12434TIP3    H237246   3.678   3.694  -0.077
12435TIP3   OH237247   5.881   4.704   5.123
12435TIP3    H137248   5.974   4.686   5.135
12435TIP3    H237249   5.867   4.698   5.028
12436TIP3   OH237250   7.628   3.739   5.139
12436TIP3    H137251   7.637   3.834   5.133
12436TIP3    H237252   7.586   3.724   5.223
12437TIP3   OH237253   4.966   4.278   1.564
12437TIP3    H137254   4.902   4.318   1.623
12437TIP3    H237255   4.934   4.189   1.550
12438TIP3   OH237256   5.080   1.341   5.194
12438TIP3    H137257   5.022   1.290   5.251
12438TIP3    H237258   5.101   1.419   5.246
12439TIP3   OH237259   5.270   4.958   4.058
12439TIP3    H137260   5.362   4.944   4.080
12439TIP3    H237261   5.264   5.052   4.041
12440TIP3   OH237262   6.159   0.744   4.606
12440TIP3    H137263   6.158   0.789   4.690
12440TIP3    H237264   6.151   0.651   4.627
12441TIP3   OH237265   0.809   0.183   4.177
12441TIP3    H137266   0.801   0.088   4.172
12441TIP3    H237267   0.745   0.217   4.114
12442TIP3   OH237268   7.187   1.660   2.923
12442TIP3    H137269   7.201   1.731   2.860
12442TIP3    H237270   7.092   1.654   2.932
12443TIP3   OH237271   6.304   6.285   6.724
12443TIP3    H137272   6.347   6.278   6.639
12443TIP3    H237273   6.255   6.367   6.720
12444TIP3   OH237274   3.737   5.868   1.728
12444TIP3    H137275   3.680   5.900   1.658
12444TIP3    H237276   3.791   5.801   1.686
12445TIP3   OH237277   1.554   3.711   1.808
12445TIP3    H137278   1.542   3.700   1.714
12445TIP3    H237279   1.531   3.802   1.825
12446TIP3   OH237280   3.834   2.010   2.230
12446TIP3    H137281   3.841   1.937   2.292
12446TIP3    H237282   3.773   2.071   2.271
12447TIP3   OH237283   0.712   0.758   1.909
12447TIP3    H137284   0.687   0.668   1.887
12447TIP3    H237285   0.758   0.789   1.831
12448TIP3   OH237286   8.025   6.331   1.962
12448TIP3    H137287   7.946   6.381   1.983
12448TIP3    H237288   8.060   6.374   1.884
12449TIP3   OH237289   7.720   3.540   6.299
12449TIP3    H137290   7.800   3.531   6.351
12449TIP3    H237291   7.743   3.506   6.213
12450TIP3   OH237292   5.239   4.661   5.033
12450TIP3    H137293   5.248   4.668   5.128
12450TIP3    H237294   5.323   4.628   5.003
12451TIP3   OH237295   3.051   2.034   0.937
12451TIP3    H137296   3.144   2.051   0.954
12451TIP3    H237297   3.045   1.938   0.929
12452TIP3   OH237298   1.646   1.582   4.605
12452TIP3    H137299   1.699   1.622   4.674
12452TIP3    H237300   1.697   1.506   4.577
12453TIP3   OH237301   2.194   7.653   6.349
12453TIP3    H137302   2.145   7.729   6.319
12453TIP3    H237303   2.129   7.583   6.355
12454TIP3   OH237304   7.386   6.539   2.425
12454TIP3    H137305   7.413   6.540   2.517
12454TIP3    H237306   7.404   6.450   2.395
12455TIP3   OH237307   3.818   1.480   6.281
12455TIP3    H137308   3.869   1.555   6.252
12455TIP3    H237309   3.738   1.484   6.229
12456TIP3   OH237310   5.780   4.398   0.779
12456TIP3    H137311   5.782   4.467   0.844
12456TIP3    H237312   5.688   4.390   0.754
12457TIP3   OH237313   3.978   3.657   5.098
12457TIP3    H137314   3.892   3.641   5.137
12457TIP3    H237315   4.027   3.702   5.167
12458TIP3   OH237316   5.904   5.126   4.383
12458TIP3    H137317   5.822   5.077   4.382
12458TIP3    H237318   5.921   5.146   4.291
12459TIP3   OH237319   2.231   0.870   2.686
12459TIP3    H137320   2.244   0.872   2.591
12459TIP3    H237321   2.246   0.778   2.710
12460TIP3   OH237322   7.558   5.620   5.501
12460TIP3    H137323   7.533   5.530   5.521
12460TIP3    H237324   7.477   5.671   5.510
12461TIP3   OH237325   2.077   2.190   4.067
12461TIP3    H137326   2.075   2.247   4.144
12461TIP3    H237327   2.150   2.130   4.083
12462TIP3   OH237328   3.012   0.583   2.197
12462TIP3    H137329   2.927   0.616   2.170
12462TIP3    H237330   3.023   0.615   2.287
12463TIP3   OH237331   2.047   5.070   0.513
12463TIP3    H137332   2.021   5.131   0.582
12463TIP3    H237333   2.045   5.123   0.433
12464TIP3   OH237334   6.403   0.446   1.721
12464TIP3    H137335   6.481   0.500   1.706
12464TIP3    H237336   6.354   0.493   1.789
12465TIP3   OH237337   5.561   2.118   3.456
12465TIP3    H137338   5.485   2.082   3.500
12465TIP3    H237339   5.635   2.068   3.489
12466TIP3   OH237340   7.285   7.158   3.465
12466TIP3    H137341   7.380   7.152   3.463
12466TIP3    H237342   7.259   7.096   3.533
12467TIP3   OH237343   7.681   6.342   3.672
12467TIP3    H137344   7.722   6.422   3.705
12467TIP3    H237345   7.609   6.373   3.617
12468TIP3   OH237346   2.804   5.912   1.300
12468TIP3    H137347   2.882   5.968   1.303
12468TIP3    H237348   2.794   5.890   1.208
12469TIP3   OH237349   2.634   6.219   3.238
12469TIP3    H137350   2.635   6.205   3.143
12469TIP3    H237351   2.568   6.287   3.252
12470TIP3   OH237352   6.584   2.038   4.611
12470TIP3    H137353   6.523   2.066   4.680
12470TIP3    H237354   6.551   1.951   4.585
12471TIP3   OH237355   2.918   0.757   5.540
12471TIP3    H137356   2.833   0.784   5.506
12471TIP3    H237357   2.912   0.774   5.634
12472TIP3   OH237358   4.389   4.694   5.673
12472TIP3    H137359   4.330   4.633   5.628
12472TIP3    H237360   4.386   4.666   5.765
12473TIP3   OH237361   0.188   2.806   4.663
12473TIP3    H137362   0.197   2.788   4.570
12473TIP3    H237363   0.208   2.722   4.706
12474TIP3   OH237364   4.740   4.333   4.232
12474TIP3    H137365   4.798   4.404   4.259
12474TIP3    H237366   4.729   4.347   4.138
12475TIP3   OH237367   5.417   3.845   3.072
12475TIP3    H137368   5.437   3.782   3.003
12475TIP3    H237369   5.437   3.799   3.153
12476TIP3   OH237370   5.881   0.831   1.181
12476TIP3    H137371   5.917   0.860   1.097
12476TIP3    H237372   5.955   0.790   1.226
12477TIP3   OH237373   4.082   0.342   5.884
12477TIP3    H137374   3.992   0.323   5.858
12477TIP3    H237375   4.102   0.279   5.953
12478TIP3   OH237376   0.469   7.721   3.868
12478TIP3    H137377   0.527   7.786   3.908
12478TIP3    H237378   0.384   7.735   3.911
12479TIP3   OH237379   3.790   5.858   0.333
12479TIP3    H137380   3.870   5.808   0.313
12479TIP3    H237381   3.729   5.794   0.368
12480TIP3   OH237382   1.521   1.590   1.834
12480TIP3    H137383   1.462   1.551   1.770
12480TIP3    H237384   1.603   1.543   1.824
12481TIP3   OH237385   6.439   5.649   4.357
12481TIP3    H137386   6.450   5.588   4.430
12481TIP3    H237387   6.401   5.595   4.287
12482TIP3   OH237388   7.268   0.975   2.793
12482TIP3    H137389   7.274   0.979   2.697
12482TIP3    H237390   7.192   0.918   2.809
12483TIP3   OH237391   5.012   3.405   5.495
12483TIP3    H137392   5.038   3.314   5.482
12483TIP3    H237393   4.928   3.413   5.450
12484TIP3   OH237394   1.725   2.588   2.263
12484TIP3    H137395   1.787   2.604   2.334
12484TIP3    H237396   1.699   2.497   2.275
12485TIP3   OH237397   0.413   3.795   1.467
12485TIP3    H137398   0.364   3.827   1.391
12485TIP3    H237399   0.374   3.841   1.542
12486TIP3   OH237400   3.868   0.360   4.065
12486TIP3    H137401   3.809   0.422   4.023
12486TIP3    H237402   3.913   0.411   4.132
12487TIP3   OH237403   6.505   5.629   5.852
12487TIP3    H137404   6.425   5.587   5.822
12487TIP3    H237405   6.499   5.719   5.822
12488TIP3   OH237406   1.420   5.537   6.575
12488TIP3    H137407   1.461   5.541   6.661
12488TIP3    H237408   1.395   5.446   6.564
12489TIP3   OH237409   6.556   3.666   4.976
12489TIP3    H137410   6.559   3.672   4.881
12489TIP3    H237411   6.472   3.625   4.995
12490TIP3   OH237412   7.421   6.901   4.454
12490TIP3    H137413   7.354   6.846   4.494
12490TIP3    H237414   7.398   6.903   4.361
12491TIP3   OH237415   4.086   1.280   6.708
12491TIP3    H137416   4.064   1.373   6.699
12491TIP3    H237417   4.011   1.242   6.752
12492TIP3   OH237418   2.777   3.242   2.315
12492TIP3    H137419   2.777   3.162   2.263
12492TIP3    H237420   2.769   3.312   2.251
12493TIP3   OH237421   7.487   1.548   1.476
12493TIP3    H137422   7.476   1.490   1.400
12493TIP3    H237423   7.574   1.586   1.464
12494TIP3   OH237424   0.669   1.972   1.116
12494TIP3    H137425   0.730   1.899   1.118
12494TIP3    H237426   0.588   1.937   1.151
12495TIP3   OH237427   4.150   1.130   1.327
12495TIP3    H137428   4.086   1.173   1.385
12495TIP3    H237429   4.119   1.040   1.321
12496TIP3   OH237430   1.750   5.357   4.299
12496TIP3    H137431   1.717   5.395   4.381
12496TIP3    H237432   1.813   5.421   4.267
12497TIP3   OH237433   6.615   0.579   6.474
12497TIP3    H137434   6.673   0.519   6.427
12497TIP3    H237435   6.623   0.662   6.427
12498TIP3   OH237436   3.937   1.653   0.927
12498TIP3    H137437   4.000   1.672   0.995
12498TIP3    H237438   3.972   1.575   0.883
12499TIP3   OH237439   8.224   7.654   5.399
12499TIP3    H137440   8.133   7.677   5.383
12499TIP3    H237441   8.255   7.621   5.314
12500TIP3   OH237442   2.797   4.231   1.331
12500TIP3    H137443   2.785   4.302   1.393
12500TIP3    H237444   2.879   4.252   1.286
12501TIP3   OH237445   1.583   5.848   4.705
12501TIP3    H137446   1.622   5.921   4.754
12501TIP3    H237447   1.656   5.789   4.688
12502TIP3   OH237448   2.161   2.357   0.241
12502TIP3    H137449   2.072   2.340   0.272
12502TIP3    H237450   2.163   2.322   0.152
12503TIP3   OH237451   6.884   0.094   0.377
12503TIP3    H137452   6.966   0.083   0.424
12503TIP3    H237453   6.896   0.175   0.327
12504TIP3   OH237454   6.923   6.813   3.407
12504TIP3    H137455   6.912   6.908   3.416
12504TIP3    H237456   6.836   6.781   3.385
12505TIP3   OH237457   0.032   6.038   4.732
12505TIP3    H137458   0.016   6.106   4.666
12505TIP3    H237459  -0.022   5.964   4.703
12506TIP3   OH237460   5.907   2.180   0.301
12506TIP3    H137461   5.983   2.211   0.350
12506TIP3    H237462   5.943   2.149   0.218
12507TIP3   OH237463   5.400   6.648   6.440
12507TIP3    H137464   5.329   6.584   6.453
12507TIP3    H237465   5.469   6.598   6.396
12508TIP3   OH237466   4.462   0.688   5.641
12508TIP3    H137467   4.392   0.672   5.703
12508TIP3    H237468   4.427   0.660   5.557
12509TIP3   OH237469   4.147   2.606   6.306
12509TIP3    H137470   4.237   2.573   6.314
12509TIP3    H237471   4.157   2.698   6.284
12510TIP3   OH237472   1.417   0.360   1.871
12510TIP3    H137473   1.430   0.431   1.808
12510TIP3    H237474   1.336   0.317   1.843
12511TIP3   OH237475   5.276   7.083   2.074
12511TIP3    H137476   5.354   7.118   2.031
12511TIP3    H237477   5.208   7.148   2.057
12512TIP3   OH237478   8.146   2.201   5.538
12512TIP3    H137479   8.159   2.263   5.466
12512TIP3    H237480   8.054   2.210   5.560
12513TIP3   OH237481   2.830   6.986   5.273
12513TIP3    H137482   2.746   7.008   5.313
12513TIP3    H237483   2.890   6.974   5.347
12514TIP3   OH237484   2.936   4.065   3.385
12514TIP3    H137485   2.869   4.128   3.414
12514TIP3    H237486   3.016   4.094   3.430
12515TIP3   OH237487   5.629   1.343   0.205
12515TIP3    H137488   5.543   1.307   0.181
12515TIP3    H237489   5.667   1.277   0.263
12516TIP3   OH237490   2.444   6.684   5.730
12516TIP3    H137491   2.437   6.611   5.669
12516TIP3    H237492   2.380   6.665   5.798
12517TIP3   OH237493   6.315   7.035   3.715
12517TIP3    H137494   6.269   6.953   3.732
12517TIP3    H237495   6.331   7.072   3.802
12518TIP3   OH237496   4.103   0.675   1.723
12518TIP3    H137497   4.047   0.637   1.655
12518TIP3    H237498   4.047   0.680   1.800
12519TIP3   OH237499   7.416   3.849   1.977
12519TIP3    H137500   7.481   3.848   2.047
12519TIP3    H237501   7.347   3.906   2.011
12520TIP3   OH237502   6.878   5.182   0.909
12520TIP3    H137503   6.921   5.145   0.987
12520TIP3    H237504   6.950   5.196   0.847
12521TIP3   OH237505   1.205   3.483   5.554
12521TIP3    H137506   1.186   3.576   5.539
12521TIP3    H237507   1.300   3.477   5.550
12522TIP3   OH237508   2.844   5.205   5.396
12522TIP3    H137509   2.794   5.211   5.314
12522TIP3    H237510   2.784   5.238   5.463
12523TIP3   OH237511   7.225   1.856   6.565
12523TIP3    H137512   7.175   1.823   6.490
12523TIP3    H237513   7.167   1.920   6.607
12524TIP3   OH237514   2.755   2.910   0.786
12524TIP3    H137515   2.761   2.999   0.752
12524TIP3    H237516   2.762   2.920   0.881
12525TIP3   OH237517   0.878   1.510   3.735
12525TIP3    H137518   0.966   1.516   3.772
12525TIP3    H237519   0.830   1.454   3.796
12526TIP3   OH237520   5.607   7.374   0.024
12526TIP3    H137521   5.697   7.352   0.002
12526TIP3    H237522   5.613   7.459   0.067
12527TIP3   OH237523   6.782   1.186   0.870
12527TIP3    H137524   6.740   1.254   0.818
12527TIP3    H237525   6.829   1.132   0.806
12528TIP3   OH237526   3.653   0.154   4.072
12528TIP3    H137527   3.696   0.071   4.088
12528TIP3    H237528   3.720   0.220   4.089
12529TIP3   OH237529   5.122   2.695   0.932
12529TIP3    H137530   5.198   2.688   0.875
12529TIP3    H237531   5.074   2.771   0.900
12530TIP3   OH237532   2.920   7.524   5.998
12530TIP3    H137533   2.886   7.562   6.080
12530TIP3    H237534   2.885   7.581   5.930
12531TIP3   OH237535   2.340   5.507   1.169
12531TIP3    H137536   2.417   5.561   1.184
12531TIP3    H237537   2.318   5.471   1.255
12532TIP3   OH237538   4.016   5.674   0.290
12532TIP3    H137539   3.947   5.609   0.303
12532TIP3    H237540   4.083   5.652   0.355
12533TIP3   OH237541   0.589   5.432   2.459
12533TIP3    H137542   0.525   5.406   2.392
12533TIP3    H237543   0.584   5.361   2.524
12534TIP3   OH237544   5.857   3.585   6.462
12534TIP3    H137545   5.764   3.591   6.445
12534TIP3    H237546   5.895   3.552   6.381
12535TIP3   OH237547   5.703   5.916   3.302
12535TIP3    H137548   5.655   5.833   3.313
12535TIP3    H237549   5.759   5.922   3.379
12536TIP3   OH237550   2.562   3.180   2.121
12536TIP3    H137551   2.508   3.148   2.193
12536TIP3    H237552   2.588   3.102   2.073
12537TIP3   OH237553   0.697   4.972   4.022
12537TIP3    H137554   0.699   5.040   4.089
12537TIP3    H237555   0.633   5.002   3.958
12538TIP3   OH237556   4.244   7.633   5.295
12538TIP3    H137557   4.297   7.711   5.312
12538TIP3    H237558   4.155   7.660   5.316
12539TIP3   OH237559   0.516   5.860   4.159
12539TIP3    H137560   0.496   5.790   4.097
12539TIP3    H237561   0.598   5.833   4.199
12540TIP3   OH237562   8.045   3.771   5.178
12540TIP3    H137563   8.022   3.819   5.258
12540TIP3    H237564   7.991   3.692   5.182
12541TIP3   OH237565   5.027   3.203   6.269
12541TIP3    H137566   5.112   3.184   6.228
12541TIP3    H237567   5.029   3.155   6.352
12542TIP3   OH237568   2.821   4.000   0.899
12542TIP3    H137569   2.839   3.918   0.854
12542TIP3    H237570   2.748   4.038   0.851
12543TIP3   OH237571   4.040   3.655   2.393
12543TIP3    H137572   4.000   3.609   2.320
12543TIP3    H237573   4.091   3.589   2.439
12544TIP3   OH237574   1.453   3.036   0.604
12544TIP3    H137575   1.545   3.059   0.589
12544TIP3    H237576   1.415   3.028   0.516
12545TIP3   OH237577   0.432   0.869   2.569
12545TIP3    H137578   0.437   0.919   2.488
12545TIP3    H237579   0.391   0.927   2.632
12546TIP3   OH237580   3.780   4.903   6.641
12546TIP3    H137581   3.819   4.937   6.721
12546TIP3    H237582   3.689   4.882   6.665
12547TIP3   OH237583   2.701   4.953   3.460
12547TIP3    H137584   2.649   4.939   3.539
12547TIP3    H237585   2.653   4.908   3.391
12548TIP3   OH237586   5.718   5.109   4.807
12548TIP3    H137587   5.798   5.131   4.760
12548TIP3    H237588   5.734   5.138   4.896
12549TIP3   OH237589   6.496   1.397   5.355
12549TIP3    H137590   6.500   1.368   5.263
12549TIP3    H237591   6.403   1.400   5.375
12550TIP3   OH237592   7.486   5.366   5.569
12550TIP3    H137593   7.558   5.323   5.616
12550TIP3    H237594   7.414   5.303   5.573
12551TIP3   OH237595   7.097   4.740   5.238
12551TIP3    H137596   7.056   4.733   5.324
12551TIP3    H237597   7.148   4.659   5.229
12552TIP3   OH237598   0.931   5.276   4.711
12552TIP3    H137599   0.935   5.180   4.708
12552TIP3    H237600   1.022   5.304   4.716
12553TIP3   OH237601   3.677   4.425   0.020
12553TIP3    H137602   3.632   4.344  -0.006
12553TIP3    H237603   3.669   4.483  -0.056
12554TIP3   OH237604   0.624   5.116   1.844
12554TIP3    H137605   0.635   5.207   1.817
12554TIP3    H237606   0.592   5.122   1.935
12555TIP3   OH237607   6.827   6.410   3.771
12555TIP3    H137608   6.873   6.483   3.813
12555TIP3    H237609   6.880   6.389   3.695
12556TIP3   OH237610   7.268   6.000   1.822
12556TIP3    H137611   7.200   6.035   1.763
12556TIP3    H237612   7.339   6.063   1.816
12557TIP3   OH237613   2.128   4.103   5.550
12557TIP3    H137614   2.108   4.070   5.463
12557TIP3    H237615   2.047   4.091   5.599
12558TIP3   OH237616   4.124   2.663   3.418
12558TIP3    H137617   4.182   2.618   3.357
12558TIP3    H237618   4.077   2.727   3.364
12559TIP3   OH237619   6.001   2.030   5.981
12559TIP3    H137620   6.070   2.073   6.032
12559TIP3    H237621   6.045   2.000   5.902
12560TIP3   OH237622   0.155   1.328   5.883
12560TIP3    H137623   0.075   1.377   5.897
12560TIP3    H237624   0.225   1.391   5.896
12561TIP3   OH237625   5.426   4.894   0.014
12561TIP3    H137626   5.515   4.908   0.045
12561TIP3    H237627   5.374   4.884   0.094
12562TIP3   OH237628   7.164   7.238   0.158
12562TIP3    H137629   7.096   7.246   0.225
12562TIP3    H237630   7.129   7.286   0.082
12563TIP3   OH237631   4.919   6.240   1.849
12563TIP3    H137632   4.837   6.279   1.819
12563TIP3    H237633   4.985   6.273   1.787
12564TIP3   OH237634   5.695   4.422   2.655
12564TIP3    H137635   5.713   4.330   2.640
12564TIP3    H237636   5.613   4.439   2.608
12565TIP3   OH237637   4.540   6.263   1.828
12565TIP3    H137638   4.449   6.235   1.818
12565TIP3    H237639   4.535   6.358   1.832
12566TIP3   OH237640   7.646   5.175   5.964
12566TIP3    H137641   7.619   5.267   5.963
12566TIP3    H237642   7.696   5.164   5.883
12567TIP3   OH237643   5.712   4.753   5.716
12567TIP3    H137644   5.663   4.792   5.789
12567TIP3    H237645   5.646   4.739   5.649
12568TIP3   OH237646   0.696   6.130   0.765
12568TIP3    H137647   0.757   6.089   0.702
12568TIP3    H237648   0.611   6.094   0.743
12569TIP3   OH237649   7.330   5.458   0.626
12569TIP3    H137650   7.362   5.514   0.554
12569TIP3    H237651   7.263   5.403   0.585
12570TIP3   OH237652   6.389   3.211   3.313
12570TIP3    H137653   6.431   3.249   3.390
12570TIP3    H237654   6.313   3.164   3.348
12571TIP3   OH237655   8.085   6.258   2.825
12571TIP3    H137656   8.005   6.227   2.867
12571TIP3    H237657   8.129   6.310   2.892
12572TIP3   OH237658   7.175   5.011   6.243
12572TIP3    H137659   7.101   4.953   6.224
12572TIP3    H237660   7.188   5.061   6.162
12573TIP3   OH237661   5.798   6.412   5.400
12573TIP3    H137662   5.776   6.331   5.447
12573TIP3    H237663   5.720   6.431   5.348
12574TIP3   OH237664   1.514   3.967   2.082
12574TIP3    H137665   1.549   4.028   2.147
12574TIP3    H237666   1.564   3.985   2.002
12575TIP3   OH237667   3.550   4.829   1.486
12575TIP3    H137668   3.561   4.786   1.401
12575TIP3    H237669   3.606   4.779   1.545
12576TIP3   OH237670   7.865   5.976   4.319
12576TIP3    H137671   7.865   5.886   4.351
12576TIP3    H237672   7.918   5.972   4.239
12577TIP3   OH237673   5.883   3.763   1.307
12577TIP3    H137674   5.926   3.843   1.277
12577TIP3    H237675   5.900   3.760   1.401
12578TIP3   OH237676   5.817   0.114   1.758
12578TIP3    H137677   5.781   0.201   1.740
12578TIP3    H237678   5.878   0.098   1.687
12579TIP3   OH237679   8.239   0.085   1.396
12579TIP3    H137680   8.304   0.107   1.329
12579TIP3    H237681   8.248   0.155   1.461
12580TIP3   OH237682   7.261   3.186   6.077
12580TIP3    H137683   7.331   3.194   6.013
12580TIP3    H237684   7.280   3.105   6.125
12581TIP3   OH237685   1.861   1.758   1.820
12581TIP3    H137686   1.788   1.786   1.763
12581TIP3    H237687   1.888   1.674   1.785
12582TIP3   OH237688   2.856   3.020   5.393
12582TIP3    H137689   2.768   2.992   5.418
12582TIP3    H237690   2.843   3.076   5.316
12583TIP3   OH237691   4.885   7.416   4.205
12583TIP3    H137692   4.928   7.490   4.249
12583TIP3    H237693   4.791   7.437   4.211
12584TIP3   OH237694   4.234   5.566   0.431
12584TIP3    H137695   4.322   5.605   0.428
12584TIP3    H237696   4.248   5.478   0.464
12585TIP3   OH237697   3.452   7.421   2.122
12585TIP3    H137698   3.449   7.413   2.218
12585TIP3    H237699   3.438   7.332   2.091
12586TIP3   OH237700   1.920   3.475   1.191
12586TIP3    H137701   1.947   3.406   1.251
12586TIP3    H237702   1.844   3.438   1.145
12587TIP3   OH237703   4.402   7.513   4.184
12587TIP3    H137704   4.317   7.475   4.206
12587TIP3    H237705   4.389   7.554   4.099
12588TIP3   OH237706   6.779   0.139   2.455
12588TIP3    H137707   6.871   0.114   2.449
12588TIP3    H237708   6.749   0.099   2.537
12589TIP3   OH237709   5.963   2.401   5.007
12589TIP3    H137710   6.010   2.483   5.020
12589TIP3    H237711   5.899   2.420   4.939
12590TIP3   OH237712   5.543   4.769   0.838
12590TIP3    H137713   5.459   4.777   0.793
12590TIP3    H237714   5.521   4.742   0.926
12591TIP3   OH237715   3.036   2.695   6.551
12591TIP3    H137716   2.947   2.667   6.532
12591TIP3    H237717   3.080   2.697   6.465
12592TIP3   OH237718   3.960   5.277   1.837
12592TIP3    H137719   3.913   5.224   1.901
12592TIP3    H237720   4.033   5.222   1.808
12593TIP3   OH237721   1.348   7.718   6.193
12593TIP3    H137722   1.354   7.794   6.136
12593TIP3    H237723   1.341   7.644   6.134
12594TIP3   OH237724   5.230   5.532   0.213
12594TIP3    H137725   5.200   5.563   0.128
12594TIP3    H237726   5.323   5.555   0.216
12595TIP3   OH237727   8.121   7.339   5.710
12595TIP3    H137728   8.190   7.342   5.777
12595TIP3    H237729   8.074   7.257   5.727
12596TIP3   OH237730   5.340   3.377   4.713
12596TIP3    H137731   5.373   3.402   4.626
12596TIP3    H237732   5.413   3.396   4.772
12597TIP3   OH237733   6.954   1.337   4.055
12597TIP3    H137734   6.915   1.399   3.993
12597TIP3    H237735   7.022   1.387   4.099
12598TIP3   OH237736   1.652   7.173   4.511
12598TIP3    H137737   1.595   7.099   4.532
12598TIP3    H237738   1.741   7.140   4.522
12599TIP3   OH237739   6.103   3.894   5.540
12599TIP3    H137740   6.140   3.942   5.614
12599TIP3    H237741   6.080   3.962   5.477
12600TIP3   OH237742   1.017   3.468   6.296
12600TIP3    H137743   1.021   3.535   6.229
12600TIP3    H237744   1.054   3.390   6.255
12601TIP3   OH237745   6.264   5.860   0.923
12601TIP3    H137746   6.228   5.835   1.009
12601TIP3    H237747   6.205   5.929   0.892
12602TIP3   OH237748   3.183   6.435   0.216
12602TIP3    H137749   3.088   6.424   0.217
12602TIP3    H237750   3.210   6.422   0.307
12603TIP3   OH237751   1.990   3.866   6.092
12603TIP3    H137752   2.013   3.905   6.177
12603TIP3    H237753   2.072   3.867   6.043
12604TIP3   OH237754   3.898   1.196   6.178
12604TIP3    H137755   3.858   1.280   6.199
12604TIP3    H237756   3.872   1.138   6.249
12605TIP3   OH237757   8.055   0.862   4.968
12605TIP3    H137758   8.001   0.794   5.007
12605TIP3    H237759   8.042   0.853   4.874
12606TIP3   OH237760   7.292   0.415   4.678
12606TIP3    H137761   7.210   0.424   4.725
12606TIP3    H237762   7.301   0.320   4.663
12607TIP3   OH237763   0.580   2.652   0.568
12607TIP3    H137764   0.593   2.712   0.642
12607TIP3    H237765   0.488   2.662   0.545
12608TIP3   OH237766   2.358   1.362   2.693
12608TIP3    H137767   2.288   1.297   2.703
12608TIP3    H237768   2.358   1.409   2.776
12609TIP3   OH237769   3.682   4.578   4.772
12609TIP3    H137770   3.744   4.630   4.721
12609TIP3    H237771   3.733   4.547   4.847
12610TIP3   OH237772   0.224   1.912   2.822
12610TIP3    H137773   0.155   1.970   2.789
12610TIP3    H237774   0.223   1.837   2.763
12611TIP3   OH237775   7.144   0.987   3.605
12611TIP3    H137776   7.077   1.015   3.544
12611TIP3    H237777   7.159   1.062   3.662
12612TIP3   OH237778   3.521   6.098   1.523
12612TIP3    H137779   3.601   6.048   1.508
12612TIP3    H237780   3.466   6.078   1.447
12613TIP3   OH237781   7.986   7.107   4.861
12613TIP3    H137782   7.996   7.093   4.955
12613TIP3    H237783   8.006   7.021   4.822
12614TIP3   OH237784   2.702   4.490   5.871
12614TIP3    H137785   2.784   4.460   5.911
12614TIP3    H237786   2.730   4.547   5.800
12615TIP3   OH237787   0.123   4.064   2.404
12615TIP3    H137788   0.172   4.141   2.377
12615TIP3    H237789   0.047   4.099   2.450
12616TIP3   OH237790   6.004   1.905   0.591
12616TIP3    H137791   5.943   1.975   0.568
12616TIP3    H237792   6.080   1.919   0.534
12617TIP3   OH237793   1.676   0.997   2.798
12617TIP3    H137794   1.648   1.085   2.823
12617TIP3    H237795   1.722   0.964   2.875
12618TIP3   OH237796   5.012   4.296   5.733
12618TIP3    H137797   5.085   4.234   5.738
12618TIP3    H237798   5.028   4.345   5.652
12619TIP3   OH237799   1.442   1.852   3.061
12619TIP3    H137800   1.424   1.840   3.154
12619TIP3    H237801   1.468   1.944   3.053
12620TIP3   OH237802   6.257   1.436   0.837
12620TIP3    H137803   6.168   1.426   0.804
12620TIP3    H237804   6.306   1.475   0.765
12621TIP3   OH237805   4.640   6.956   3.797
12621TIP3    H137806   4.732   6.982   3.792
12621TIP3    H237807   4.635   6.875   3.747
12622TIP3   OH237808   1.927   1.935   0.188
12622TIP3    H137809   1.978   1.996   0.134
12622TIP3    H237810   1.867   1.992   0.237
12623TIP3   OH237811   2.732   5.348   5.200
12623TIP3    H137812   2.700   5.413   5.263
12623TIP3    H237813   2.808   5.390   5.160
12624TIP3   OH237814   0.080   0.946   6.382
12624TIP3    H137815   0.030   0.864   6.388
12624TIP3    H237816   0.162   0.928   6.427
12625TIP3   OH237817   7.450   2.161   1.342
12625TIP3    H137818   7.363   2.127   1.364
12625TIP3    H237819   7.433   2.249   1.307
12626TIP3   OH237820   1.629   2.740   5.272
12626TIP3    H137821   1.546   2.704   5.242
12626TIP3    H237822   1.642   2.818   5.219
12627TIP3   OH237823   6.011   2.481   1.197
12627TIP3    H137824   5.926   2.512   1.230
12627TIP3    H237825   6.005   2.493   1.102
12628TIP3   OH237826   8.263   6.831   6.557
12628TIP3    H137827   8.323   6.813   6.485
12628TIP3    H237828   8.192   6.882   6.518
12629TIP3   OH237829   6.330   4.980   4.167
12629TIP3    H137830   6.334   5.005   4.075
12629TIP3    H237831   6.237   4.963   4.183
12630TIP3   OH237832   4.564   2.676   5.921
12630TIP3    H137833   4.531   2.741   5.858
12630TIP3    H237834   4.561   2.720   6.005
12631TIP3   OH237835   3.249   3.477   5.022
12631TIP3    H137836   3.254   3.438   5.109
12631TIP3    H237837   3.243   3.571   5.039
12632TIP3   OH237838   2.760   0.866   2.282
12632TIP3    H137839   2.733   0.780   2.250
12632TIP3    H237840   2.710   0.928   2.230
12633TIP3   OH237841   0.317   2.165   0.640
12633TIP3    H137842   0.373   2.096   0.604
12633TIP3    H237843   0.301   2.138   0.730
12634TIP3   OH237844   2.265   6.646   0.573
12634TIP3    H137845   2.333   6.621   0.510
12634TIP3    H237846   2.186   6.602   0.542
12635TIP3   OH237847   5.374   0.385   5.724
12635TIP3    H137848   5.449   0.443   5.710
12635TIP3    H237849   5.315   0.435   5.781
12636TIP3   OH237850   2.495   0.092   2.431
12636TIP3    H137851   2.432   0.122   2.497
12636TIP3    H237852   2.499   0.163   2.367
12637TIP3   OH237853   6.823   0.868   2.553
12637TIP3    H137854   6.876   0.845   2.477
12637TIP3    H237855   6.742   0.818   2.541
12638TIP3   OH237856   1.105   3.152   2.772
12638TIP3    H137857   1.197   3.126   2.780
12638TIP3    H237858   1.075   3.109   2.691
12639TIP3   OH237859   7.870   2.196   0.126
12639TIP3    H137860   7.932   2.202   0.053
12639TIP3    H237861   7.923   2.161   0.198
12640TIP3   OH237862   3.608   1.863   2.455
12640TIP3    H137863   3.691   1.832   2.421
12640TIP3    H237864   3.543   1.833   2.391
12641TIP3   OH237865   4.904   2.034   0.400
12641TIP3    H137866   4.831   2.006   0.455
12641TIP3    H237867   4.879   2.006   0.312
12642TIP3   OH237868   0.563   2.874   6.731
12642TIP3    H137869   0.509   2.828   6.666
12642TIP3    H237870   0.558   2.820   6.809
12643TIP3   OH237871   7.015   3.505   6.561
12643TIP3    H137872   7.079   3.569   6.533
12643TIP3    H237873   7.055   3.461   6.636
12644TIP3   OH237874   4.567   2.841   6.152
12644TIP3    H137875   4.580   2.843   6.247
12644TIP3    H237876   4.633   2.901   6.118
12645TIP3   OH237877   5.248   4.037   1.293
12645TIP3    H137878   5.244   4.068   1.202
12645TIP3    H237879   5.261   3.943   1.286
12646TIP3   OH237880   6.223   6.608   1.783
12646TIP3    H137881   6.289   6.573   1.723
12646TIP3    H237882   6.211   6.699   1.756
12647TIP3   OH237883   6.575   5.730   2.600
12647TIP3    H137884   6.483   5.702   2.604
12647TIP3    H237885   6.577   5.792   2.527
12648TIP3   OH237886   5.258   1.944   4.880
12648TIP3    H137887   5.270   1.926   4.973
12648TIP3    H237888   5.208   2.026   4.878
12649TIP3   OH237889   1.676   7.664   4.585
12649TIP3    H137890   1.694   7.642   4.493
12649TIP3    H237891   1.695   7.583   4.632
12650TIP3   OH237892   4.861   6.304   2.335
12650TIP3    H137893   4.868   6.342   2.422
12650TIP3    H237894   4.817   6.371   2.283
12651TIP3   OH237895   2.167   6.471   0.945
12651TIP3    H137896   2.247   6.496   0.899
12651TIP3    H237897   2.106   6.542   0.927
12652TIP3   OH237898   8.141   6.445   3.059
12652TIP3    H137899   8.145   6.386   3.134
12652TIP3    H237900   8.086   6.518   3.089
12653TIP3   OH237901   4.168   3.293   5.696
12653TIP3    H137902   4.185   3.290   5.790
12653TIP3    H237903   4.136   3.381   5.680
12654TIP3   OH237904   4.500   1.162   6.287
12654TIP3    H137905   4.440   1.237   6.288
12654TIP3    H237906   4.535   1.162   6.197
12655TIP3   OH237907   5.965   5.094   3.085
12655TIP3    H137908   5.990   5.067   2.997
12655TIP3    H237909   5.917   5.020   3.121
12656TIP3   OH237910   3.690   7.487   1.603
12656TIP3    H137911   3.603   7.519   1.579
12656TIP3    H237912   3.735   7.476   1.519
12657TIP3   OH237913   1.055   4.424   0.941
12657TIP3    H137914   0.994   4.372   0.993
12657TIP3    H237915   1.078   4.367   0.867
12658TIP3   OH237916   5.736   3.775   3.180
12658TIP3    H137917   5.812   3.800   3.232
12658TIP3    H237918   5.724   3.848   3.119
12659TIP3   OH237919   5.933   0.207   3.392
12659TIP3    H137920   5.972   0.214   3.305
12659TIP3    H237921   5.893   0.292   3.408
12660TIP3   OH237922   5.063   1.221   5.528
12660TIP3    H137923   5.097   1.251   5.612
12660TIP3    H237924   5.017   1.139   5.549
12661TIP3   OH237925   2.945   2.587   3.085
12661TIP3    H137926   2.991   2.602   3.003
12661TIP3    H237927   2.856   2.618   3.069
12662TIP3   OH237928   6.234   3.233   4.365
12662TIP3    H137929   6.156   3.189   4.399
12662TIP3    H237930   6.278   3.268   4.443
12663TIP3   OH237931   5.008   2.937   4.265
12663TIP3    H137932   5.040   2.848   4.280
12663TIP3    H237933   5.023   2.983   4.348
12664TIP3   OH237934   6.174   2.036   1.139
12664TIP3    H137935   6.195   2.036   1.232
12664TIP3    H237936   6.197   1.949   1.108
12665TIP3   OH237937   3.438   0.133   3.096
12665TIP3    H137938   3.367   0.105   3.153
12665TIP3    H237939   3.518   0.107   3.143
12666TIP3   OH237940   1.445   6.899   5.826
12666TIP3    H137941   1.518   6.940   5.779
12666TIP3    H237942   1.475   6.809   5.841
12667TIP3   OH237943   7.342   1.441   0.173
12667TIP3    H137944   7.251   1.424   0.152
12667TIP3    H237945   7.339   1.500   0.248
12668TIP3   OH237946   7.715   7.569   3.657
12668TIP3    H137947   7.729   7.637   3.590
12668TIP3    H237948   7.677   7.617   3.731
12669TIP3   OH237949   4.484   2.235   6.527
12669TIP3    H137950   4.470   2.142   6.513
12669TIP3    H237951   4.430   2.256   6.603
12670TIP3   OH237952   6.322   1.407   3.140
12670TIP3    H137953   6.385   1.336   3.152
12670TIP3    H237954   6.237   1.365   3.146
12671TIP3   OH237955   2.523   2.735   4.104
12671TIP3    H137956   2.550   2.827   4.114
12671TIP3    H237957   2.605   2.686   4.111
12672TIP3   OH237958   7.417   6.535   2.716
12672TIP3    H137959   7.433   6.443   2.737
12672TIP3    H237960   7.498   6.580   2.739
12673TIP3   OH237961   3.611   3.218   0.959
12673TIP3    H137962   3.608   3.309   0.932
12673TIP3    H237963   3.613   3.168   0.878
12674TIP3   OH237964   7.438   1.499   1.204
12674TIP3    H137965   7.525   1.517   1.169
12674TIP3    H237966   7.405   1.427   1.149
12675TIP3   OH237967   1.016   1.880   5.145
12675TIP3    H137968   0.990   1.971   5.129
12675TIP3    H237969   1.008   1.838   5.060
12676TIP3   OH237970   4.542   4.382   5.528
12676TIP3    H137971   4.490   4.320   5.477
12676TIP3    H237972   4.479   4.427   5.584
12677TIP3   OH237973   6.699   6.148   3.380
12677TIP3    H137974   6.673   6.209   3.450
12677TIP3    H237975   6.697   6.202   3.300
12678TIP3   OH237976   7.853   5.193   5.472
12678TIP3    H137977   7.897   5.119   5.514
12678TIP3    H237978   7.895   5.201   5.387
12679TIP3   OH237979   5.970   1.130   4.955
12679TIP3    H137980   6.032   1.071   4.913
12679TIP3    H237981   5.884   1.099   4.926
12680TIP3   OH237982   7.384   5.644   4.049
12680TIP3    H137983   7.358   5.651   3.958
12680TIP3    H237984   7.439   5.721   4.064
12681TIP3   OH237985   4.491   7.152   2.395
12681TIP3    H137986   4.571   7.151   2.343
12681TIP3    H237987   4.440   7.225   2.359
12682TIP3   OH237988   3.030   7.181   2.137
12682TIP3    H137989   3.010   7.092   2.107
12682TIP3    H237990   2.952   7.232   2.115
12683TIP3   OH237991   3.548   6.103   3.961
12683TIP3    H137992   3.612   6.109   3.889
12683TIP3    H237993   3.476   6.051   3.925
12684TIP3   OH237994   6.942   4.198   2.185
12684TIP3    H137995   6.899   4.261   2.242
12684TIP3    H237996   6.999   4.251   2.129
12685TIP3   OH237997   5.905   4.581   3.079
12685TIP3    H137998   5.871   4.667   3.052
12685TIP3    H237999   5.829   4.523   3.075
12686TIP3   OH238000   5.881   2.442   5.480
12686TIP3    H138001   5.879   2.349   5.459
12686TIP3    H238002   5.806   2.478   5.433
12687TIP3   OH238003   1.555   1.797   1.325
12687TIP3    H138004   1.580   1.726   1.265
12687TIP3    H238005   1.535   1.753   1.407
12688TIP3   OH238006   4.052   5.285   3.693
12688TIP3    H138007   4.097   5.367   3.714
12688TIP3    H238008   4.102   5.218   3.740
12689TIP3   OH238009   8.095   5.893   6.462
12689TIP3    H138010   8.046   5.827   6.511
12689TIP3    H238011   8.162   5.843   6.415
12690TIP3   OH238012   7.695   6.451   6.038
12690TIP3    H138013   7.662   6.481   5.953
12690TIP3    H238014   7.677   6.357   6.040
12691TIP3   OH238015   1.138   3.846   0.804
12691TIP3    H138016   1.183   3.761   0.809
12691TIP3    H238017   1.191   3.897   0.741
12692TIP3   OH238018   3.289   4.068   0.045
12692TIP3    H138019   3.305   4.112  -0.039
12692TIP3    H238020   3.250   4.136   0.100
12693TIP3   OH238021   3.406   5.594   4.811
12693TIP3    H138022   3.448   5.672   4.775
12693TIP3    H238023   3.318   5.622   4.834
12694TIP3   OH238024   3.495   6.169   1.791
12694TIP3    H138025   3.565   6.117   1.830
12694TIP3    H238026   3.467   6.118   1.715
12695TIP3   OH238027   2.986   1.357   5.678
12695TIP3    H138028   2.912   1.379   5.623
12695TIP3    H238029   3.046   1.431   5.669
12696TIP3   OH238030   6.526   1.052   6.438
12696TIP3    H138031   6.472   0.979   6.469
12696TIP3    H238032   6.464   1.114   6.401
12697TIP3   OH238033   7.489   7.753   1.683
12697TIP3    H138034   7.534   7.668   1.680
12697TIP3    H238035   7.400   7.732   1.711
12698TIP3   OH238036   1.892   1.011   2.991
12698TIP3    H138037   1.943   1.022   2.910
12698TIP3    H238038   1.899   1.095   3.036
12699TIP3   OH238039   4.824   4.362   0.827
12699TIP3    H138040   4.774   4.285   0.853
12699TIP3    H238041   4.761   4.433   0.825
12700TIP3   OH238042   7.112   1.951   2.307
12700TIP3    H138043   7.144   2.022   2.361
12700TIP3    H238044   7.102   1.989   2.220
12701TIP3   OH238045   0.144   1.520   4.004
12701TIP3    H138046   0.055   1.544   3.977
12701TIP3    H238047   0.168   1.450   3.944
12702TIP3   OH238048   3.214   1.713   6.092
12702TIP3    H138049   3.203   1.783   6.028
12702TIP3    H238050   3.294   1.736   6.139
12703TIP3   OH238051   4.368   7.750   3.171
12703TIP3    H138052   4.431   7.814   3.141
12703TIP3    H238053   4.375   7.752   3.267
12704TIP3   OH238054   6.101   5.080   1.115
12704TIP3    H138055   6.104   5.062   1.021
12704TIP3    H238056   6.011   5.058   1.141
12705TIP3   OH238057   1.111   0.390   1.722
12705TIP3    H138058   1.126   0.468   1.669
12705TIP3    H238059   1.021   0.364   1.702
12706TIP3   OH238060   7.183   1.985   4.704
12706TIP3    H138061   7.119   1.952   4.767
12706TIP3    H238062   7.222   1.906   4.666
12707TIP3   OH238063   0.878   1.143   3.723
12707TIP3    H138064   0.801   1.187   3.686
12707TIP3    H238065   0.910   1.203   3.790
12708TIP3   OH238066   1.805   4.191   1.474
12708TIP3    H138067   1.879   4.160   1.422
12708TIP3    H238068   1.844   4.218   1.557
12709TIP3   OH238069   7.070   7.191   2.436
12709TIP3    H138070   7.142   7.165   2.379
12709TIP3    H238071   7.111   7.204   2.522
12710TIP3   OH238072   6.375   5.431   1.904
12710TIP3    H138073   6.421   5.502   1.859
12710TIP3    H238074   6.357   5.467   1.991
12711TIP3   OH238075   7.714   3.239   5.494
12711TIP3    H138076   7.750   3.192   5.419
12711TIP3    H238077   7.621   3.250   5.473
12712TIP3   OH238078   2.625   1.955   3.426
12712TIP3    H138079   2.684   1.903   3.481
12712TIP3    H238080   2.608   1.899   3.350
12713TIP3   OH238081   7.563   3.297   1.549
12713TIP3    H138082   7.625   3.368   1.536
12713TIP3    H238083   7.496   3.334   1.607
12714TIP3   OH238084   3.491   5.623   2.765
12714TIP3    H138085   3.448   5.603   2.682
12714TIP3    H238086   3.443   5.698   2.800
12715TIP3   OH238087   5.488   7.101   5.541
12715TIP3    H138088   5.403   7.128   5.577
12715TIP3    H238089   5.489   7.006   5.553
12716TIP3   OH238090   4.667   7.570   5.607
12716TIP3    H138091   4.611   7.550   5.532
12716TIP3    H238092   4.749   7.525   5.589
12717TIP3   OH238093   4.105   2.049   5.498
12717TIP3    H138094   4.106   2.075   5.406
12717TIP3    H238095   4.123   1.955   5.497
12718TIP3   OH238096   1.500   7.667   3.796
12718TIP3    H138097   1.533   7.646   3.884
12718TIP3    H238098   1.412   7.702   3.812
12719TIP3   OH238099   0.236   7.124   5.476
12719TIP3    H138100   0.171   7.147   5.410
12719TIP3    H238101   0.251   7.031   5.463
12720TIP3   OH238102   2.999   4.403   5.663
12720TIP3    H138103   2.986   4.498   5.668
12720TIP3    H238104   2.937   4.374   5.597
12721TIP3   OH238105   1.172   3.612   4.895
12721TIP3    H138106   1.260   3.586   4.921
12721TIP3    H238107   1.163   3.702   4.928
12722TIP3   OH238108   1.758   4.677   3.410
12722TIP3    H138109   1.749   4.739   3.482
12722TIP3    H238110   1.728   4.593   3.446
12723TIP3   OH238111   2.552   7.578   1.620
12723TIP3    H138112   2.638   7.569   1.662
12723TIP3    H238113   2.561   7.655   1.564
12724TIP3   OH238114   6.469   3.337   6.055
12724TIP3    H138115   6.512   3.421   6.039
12724TIP3    H238116   6.404   3.356   6.123
12725TIP3   OH238117   2.169   5.457   2.822
12725TIP3    H138118   2.096   5.498   2.869
12725TIP3    H238119   2.146   5.467   2.730
12726TIP3   OH238120   6.773   2.475   3.801
12726TIP3    H138121   6.729   2.470   3.885
12726TIP3    H238122   6.860   2.511   3.821
12727TIP3   OH238123   2.472   1.390   3.190
12727TIP3    H138124   2.505   1.301   3.203
12727TIP3    H238125   2.435   1.414   3.275
12728TIP3   OH238126   7.431   7.351   4.391
12728TIP3    H138127   7.493   7.406   4.439
12728TIP3    H238128   7.481   7.318   4.316
12729TIP3   OH238129   2.283   5.043   3.918
12729TIP3    H138130   2.335   5.018   3.842
12729TIP3    H238131   2.215   4.976   3.923
12730TIP3   OH238132   2.993   4.429   4.280
12730TIP3    H138133   2.989   4.490   4.206
12730TIP3    H238134   3.020   4.483   4.354
12731TIP3   OH238135   4.013   3.126   2.826
12731TIP3    H138136   3.983   3.174   2.902
12731TIP3    H238137   4.084   3.070   2.859
12732TIP3   OH238138   1.642   6.674   0.511
12732TIP3    H138139   1.608   6.719   0.588
12732TIP3    H238140   1.602   6.719   0.437
12733TIP3   OH238141   1.883   6.744   1.667
12733TIP3    H138142   1.836   6.673   1.624
12733TIP3    H238143   1.939   6.700   1.731
12734TIP3   OH238144   0.895   6.338   0.415
12734TIP3    H138145   0.926   6.365   0.328
12734TIP3    H238146   0.968   6.290   0.453
12735TIP3   OH238147   4.242   7.215   3.603
12735TIP3    H138148   4.301   7.176   3.667
12735TIP3    H238149   4.226   7.145   3.540
12736TIP3   OH238150   1.228   7.540   5.129
12736TIP3    H138151   1.308   7.560   5.081
12736TIP3    H238152   1.228   7.602   5.202
12737TIP3   OH238153   0.298   4.328   5.314
12737TIP3    H138154   0.289   4.384   5.391
12737TIP3    H238155   0.310   4.389   5.242
12738TIP3   OH238156   1.765   6.367   3.910
12738TIP3    H138157   1.736   6.327   3.992
12738TIP3    H238158   1.740   6.459   3.917
12739TIP3   OH238159   2.259   6.085   4.248
12739TIP3    H138160   2.341   6.036   4.247
12739TIP3    H238161   2.191   6.018   4.231
12740TIP3   OH238162   2.873   2.420   6.022
12740TIP3    H138163   2.831   2.503   6.047
12740TIP3    H238164   2.857   2.362   6.096
12741TIP3   OH238165   0.074   7.621   2.146
12741TIP3    H138166   0.000   7.675   2.173
12741TIP3    H238167   0.140   7.683   2.116
12742TIP3   OH238168   2.434   7.306   1.607
12742TIP3    H138169   2.391   7.299   1.521
12742TIP3    H238170   2.480   7.390   1.604
12743TIP3   OH238171   5.371   7.431   5.989
12743TIP3    H138172   5.343   7.430   6.080
12743TIP3    H238173   5.439   7.498   5.985
12744TIP3   OH238174   8.301   6.965   0.972
12744TIP3    H138175   8.214   6.978   1.010
12744TIP3    H238176   8.311   7.035   0.908
12745TIP3   OH238177   2.051   4.883   0.229
12745TIP3    H138178   2.118   4.834   0.277
12745TIP3    H238179   2.065   4.974   0.253
12746TIP3   OH238180   8.130   7.326   5.438
12746TIP3    H138181   8.118   7.345   5.531
12746TIP3    H238182   8.182   7.245   5.437
12747TIP3   OH238183   3.872   2.898   0.671
12747TIP3    H138184   3.838   2.940   0.592
12747TIP3    H238185   3.808   2.829   0.690
12748TIP3   OH238186   6.857   2.284   1.932
12748TIP3    H138187   6.907   2.341   1.990
12748TIP3    H238188   6.906   2.202   1.931
12749TIP3   OH238189   6.866   5.982   2.668
12749TIP3    H138190   6.837   6.060   2.620
12749TIP3    H238191   6.825   5.909   2.622
12750TIP3   OH238192   7.869   5.337   0.402
12750TIP3    H138193   7.840   5.299   0.485
12750TIP3    H238194   7.894   5.427   0.425
12751TIP3   OH238195   0.832   2.012   2.046
12751TIP3    H138196   0.750   2.003   2.094
12751TIP3    H238197   0.806   2.017   1.954
12752TIP3   OH238198   0.861   4.845   4.252
12752TIP3    H138199   0.939   4.864   4.200
12752TIP3    H238200   0.790   4.842   4.188
12753TIP3   OH238201   3.773   6.061   2.431
12753TIP3    H138202   3.813   6.047   2.517
12753TIP3    H238203   3.845   6.050   2.369
12754TIP3   OH238204   1.250   7.193   0.388
12754TIP3    H138205   1.226   7.128   0.322
12754TIP3    H238206   1.318   7.246   0.346
12755TIP3   OH238207   0.507   0.128   6.212
12755TIP3    H138208   0.481   0.116   6.120
12755TIP3    H238209   0.425   0.119   6.261
12756TIP3   OH238210   1.545   3.544   1.245
12756TIP3    H138211   1.472   3.599   1.273
12756TIP3    H238212   1.615   3.607   1.223
12757TIP3   OH238213   1.562   7.449   0.810
12757TIP3    H138214   1.478   7.423   0.773
12757TIP3    H238215   1.584   7.531   0.766
12758TIP3   OH238216   4.612   3.050   3.611
12758TIP3    H138217   4.620   2.996   3.689
12758TIP3    H238218   4.638   3.138   3.640
12759TIP3   OH238219   5.131   7.066   6.239
12759TIP3    H138220   5.173   6.984   6.267
12759TIP3    H238221   5.063   7.081   6.305
12760TIP3   OH238222   1.743   3.466   0.213
12760TIP3    H138223   1.678   3.400   0.188
12760TIP3    H238224   1.745   3.527   0.139
12761TIP3   OH238225   2.258   5.226   5.433
12761TIP3    H138226   2.213   5.143   5.446
12761TIP3    H238227   2.283   5.227   5.341
12762TIP3   OH238228   1.565   3.616   1.552
12762TIP3    H138229   1.512   3.587   1.478
12762TIP3    H238230   1.650   3.638   1.513
12763TIP3   OH238231   7.388   4.872   4.414
12763TIP3    H138232   7.304   4.912   4.394
12763TIP3    H238233   7.421   4.841   4.329
12764TIP3   OH238234   6.694   7.007   0.735
12764TIP3    H138235   6.653   6.989   0.650
12764TIP3    H238236   6.625   6.989   0.799
12765TIP3   OH238237   6.080   2.892   1.697
12765TIP3    H138238   6.163   2.889   1.744
12765TIP3    H238239   6.102   2.865   1.608
12766TIP3   OH238240   6.737   7.028   3.827
12766TIP3    H138241   6.678   6.962   3.791
12766TIP3    H238242   6.681   7.082   3.883
12767TIP3   OH238243   1.241   1.093   4.976
12767TIP3    H138244   1.326   1.137   4.971
12767TIP3    H238245   1.254   1.010   4.930
12768TIP3   OH238246   0.624   1.978   0.139
12768TIP3    H138247   0.677   1.898   0.146
12768TIP3    H238248   0.670   2.042   0.193
12769TIP3   OH238249   3.282   5.675   5.448
12769TIP3    H138250   3.250   5.646   5.533
12769TIP3    H238251   3.376   5.658   5.450
12770TIP3   OH238252   7.508   3.852   4.756
12770TIP3    H138253   7.554   3.859   4.840
12770TIP3    H238254   7.420   3.883   4.774
12771TIP3   OH238255   3.766   2.096   5.857
12771TIP3    H138256   3.776   2.191   5.865
12771TIP3    H238257   3.823   2.072   5.784
12772TIP3   OH238258   0.686   3.277   1.413
12772TIP3    H138259   0.618   3.291   1.480
12772TIP3    H238260   0.767   3.302   1.456
12773TIP3   OH238261   7.669   2.358   6.099
12773TIP3    H138262   7.646   2.346   6.007
12773TIP3    H238263   7.657   2.271   6.138
12774TIP3   OH238264   1.963   3.251   3.317
12774TIP3    H138265   1.880   3.299   3.310
12774TIP3    H238266   2.014   3.300   3.382
12775TIP3   OH238267   4.755   5.173   4.500
12775TIP3    H138268   4.810   5.242   4.536
12775TIP3    H238269   4.800   5.146   4.420
12776TIP3   OH238270   5.019   4.228   2.984
12776TIP3    H138271   5.052   4.230   2.894
12776TIP3    H238272   4.956   4.299   2.988
12777TIP3   OH238273   5.904   5.302   2.848
12777TIP3    H138274   5.866   5.359   2.781
12777TIP3    H238275   5.983   5.348   2.877
12778TIP3   OH238276   2.787   3.958   5.683
12778TIP3    H138277   2.880   3.938   5.683
12778TIP3    H238278   2.772   4.004   5.601
12779TIP3   OH238279   7.263   3.043   1.073
12779TIP3    H138280   7.324   2.999   1.014
12779TIP3    H238281   7.227   3.115   1.022
12780TIP3   OH238282   1.221   7.478   2.957
12780TIP3    H138283   1.291   7.536   2.924
12780TIP3    H238284   1.218   7.495   3.051
12781TIP3   OH238285   4.837   2.068   5.174
12781TIP3    H138286   4.883   1.984   5.182
12781TIP3    H238287   4.750   2.051   5.210
12782TIP3   OH238288   0.973   6.589   4.078
12782TIP3    H138289   0.980   6.535   3.999
12782TIP3    H238290   0.949   6.527   4.147
12783TIP3   OH238291   7.074   1.637   0.043
12783TIP3    H138292   7.161   1.625   0.005
12783TIP3    H238293   7.088   1.691   0.121
12784TIP3   OH238294   6.535   3.901   0.232
12784TIP3    H138295   6.559   3.815   0.266
12784TIP3    H238296   6.508   3.885   0.141
12785TIP3   OH238297   1.369   5.366   0.781
12785TIP3    H138298   1.421   5.315   0.843
12785TIP3    H238299   1.292   5.392   0.831
12786TIP3   OH238300   1.839   5.758   1.786
12786TIP3    H138301   1.838   5.707   1.867
12786TIP3    H238302   1.770   5.823   1.798
12787TIP3   OH238303   8.007   1.300   0.319
12787TIP3    H138304   7.986   1.389   0.290
12787TIP3    H238305   7.961   1.243   0.258
12788TIP3   OH238306   0.971   3.380   0.012
12788TIP3    H138307   1.054   3.419   0.039
12788TIP3    H238308   0.965   3.298   0.063
12789TIP3   OH238309   3.942   1.885   2.793
12789TIP3    H138310   4.031   1.868   2.762
12789TIP3    H238311   3.911   1.957   2.737
12790TIP3   OH238312   4.492   5.364   3.992
12790TIP3    H138313   4.577   5.402   3.968
12790TIP3    H238314   4.484   5.379   4.086
12791TIP3   OH238315   6.977   3.564   4.006
12791TIP3    H138316   7.059   3.560   3.957
12791TIP3    H238317   6.916   3.510   3.956
12792TIP3   OH238318   3.291   3.704   2.234
12792TIP3    H138319   3.374   3.667   2.265
12792TIP3    H238320   3.227   3.681   2.302
12793TIP3   OH238321   4.130   5.186   0.274
12793TIP3    H138322   4.076   5.109   0.255
12793TIP3    H238323   4.097   5.219   0.358
12794TIP3   OH238324   1.793   6.016   0.513
12794TIP3    H138325   1.819   6.039   0.602
12794TIP3    H238326   1.698   6.010   0.516
12795TIP3   OH238327   7.018   7.512   1.627
12795TIP3    H138328   6.984   7.447   1.566
12795TIP3    H238329   6.968   7.592   1.607
12796TIP3   OH238330   6.528   2.376   1.290
12796TIP3    H138331   6.467   2.313   1.330
12796TIP3    H238332   6.483   2.405   1.211
12797TIP3   OH238333   6.720   0.134   5.143
12797TIP3    H138334   6.778   0.149   5.069
12797TIP3    H238335   6.657   0.069   5.111
12798TIP3   OH238336   5.410   2.244   5.097
12798TIP3    H138337   5.461   2.308   5.047
12798TIP3    H238338   5.412   2.276   5.187
12799TIP3   OH238339   6.473   1.390   6.551
12799TIP3    H138340   6.566   1.385   6.528
12799TIP3    H238341   6.470   1.370   6.644
12800TIP3   OH238342   5.437   6.620   5.571
12800TIP3    H138343   5.477   6.707   5.584
12800TIP3    H238344   5.374   6.612   5.643
12801TIP3   OH238345   6.217   1.208   0.452
12801TIP3    H138346   6.166   1.287   0.470
12801TIP3    H238347   6.223   1.204   0.357
12802TIP3   OH238348   0.182   5.696   3.984
12802TIP3    H138349   0.194   5.729   3.895
12802TIP3    H238350   0.167   5.775   4.037
12803TIP3   OH238351   0.949   4.686   5.600
12803TIP3    H138352   0.949   4.593   5.622
12803TIP3    H238353   1.022   4.723   5.651
12804TIP3   OH238354   5.886   5.934   3.521
12804TIP3    H138355   5.929   5.850   3.507
12804TIP3    H238356   5.840   5.925   3.604
12805TIP3   OH238357   0.781   4.909   6.380
12805TIP3    H138358   0.738   4.857   6.312
12805TIP3    H238359   0.830   4.976   6.331
12806TIP3   OH238360   3.677   4.402   4.555
12806TIP3    H138361   3.668   4.398   4.650
12806TIP3    H238362   3.603   4.455   4.525
12807TIP3   OH238363   5.311   7.236   4.132
12807TIP3    H138364   5.348   7.226   4.045
12807TIP3    H238365   5.229   7.186   4.129
12808TIP3   OH238366   5.805   3.329   0.055
12808TIP3    H138367   5.751   3.314   0.132
12808TIP3    H238368   5.848   3.413   0.072
12809TIP3   OH238369   6.355   2.421   6.639
12809TIP3    H138370   6.342   2.511   6.668
12809TIP3    H238371   6.331   2.422   6.546
12810TIP3   OH238372   2.387   4.382   4.422
12810TIP3    H138373   2.413   4.474   4.413
12810TIP3    H238374   2.367   4.372   4.515
12811TIP3   OH238375   4.158   4.620   6.692
12811TIP3    H138376   4.163   4.540   6.640
12811TIP3    H238377   4.067   4.648   6.683
12812TIP3   OH238378   0.551   0.444   6.057
12812TIP3    H138379   0.483   0.381   6.034
12812TIP3    H238380   0.520   0.527   6.020
12813TIP3   OH238381   0.791   2.364   5.559
12813TIP3    H138382   0.856   2.402   5.500
12813TIP3    H238383   0.817   2.393   5.646
12814TIP3   OH238384   6.733   3.873   3.934
12814TIP3    H138385   6.820   3.897   3.902
12814TIP3    H238386   6.747   3.796   3.988
12815TIP3   OH238387   5.131   5.370   6.692
12815TIP3    H138388   5.141   5.375   6.787
12815TIP3    H238389   5.086   5.451   6.668
12816TIP3   OH238390   7.987   2.239   4.743
12816TIP3    H138391   7.941   2.304   4.688
12816TIP3    H238392   7.940   2.157   4.727
12817TIP3   OH238393   7.438   4.443   4.533
12817TIP3    H138394   7.498   4.448   4.459
12817TIP3    H238395   7.413   4.534   4.548
12818TIP3   OH238396   5.788   0.541   3.640
12818TIP3    H138397   5.721   0.606   3.657
12818TIP3    H238398   5.753   0.488   3.568
12819TIP3   OH238399   5.065   0.400   5.119
12819TIP3    H138400   5.004   0.334   5.083
12819TIP3    H238401   5.041   0.407   5.211
12820TIP3   OH238402   6.358   7.398   5.569
12820TIP3    H138403   6.397   7.432   5.649
12820TIP3    H238404   6.269   7.432   5.569
12821TIP3   OH238405   5.795   1.067   4.613
12821TIP3    H138406   5.860   1.011   4.570
12821TIP3    H238407   5.712   1.043   4.572
12822TIP3   OH238408   0.054   3.008   3.555
12822TIP3    H138409   0.025   3.034   3.467
12822TIP3    H238410  -0.008   3.051   3.614
12823TIP3   OH238411   1.525   3.501   3.434
12823TIP3    H138412   1.581   3.549   3.373
12823TIP3    H238413   1.456   3.464   3.379
12824TIP3   OH238414   5.847   6.018   3.811
12824TIP3    H138415   5.811   6.024   3.899
12824TIP3    H238416   5.928   6.070   3.814
12825TIP3   OH238417   0.640   1.238   4.131
12825TIP3    H138418   0.600   1.279   4.208
12825TIP3    H238419   0.702   1.175   4.166
12826TIP3   OH238420   7.840   6.615   1.194
12826TIP3    H138421   7.762   6.669   1.176
12826TIP3    H238422   7.834   6.543   1.131
12827TIP3   OH238423   1.556   3.154   3.996
12827TIP3    H138424   1.635   3.165   4.049
12827TIP3    H238425   1.498   3.224   4.026
12828TIP3   OH238426   3.878   1.933   4.644
12828TIP3    H138427   3.859   1.839   4.648
12828TIP3    H238428   3.908   1.947   4.554
12829TIP3   OH238429   3.656   2.617   5.949
12829TIP3    H138430   3.618   2.632   5.863
12829TIP3    H238431   3.746   2.591   5.931
12830TIP3   OH238432   2.679   7.356   5.716
12830TIP3    H138433   2.697   7.447   5.740
12830TIP3    H238434   2.674   7.309   5.799
12831TIP3   OH238435   6.079   2.405   0.097
12831TIP3    H138436   6.014   2.344   0.062
12831TIP3    H238437   6.159   2.383   0.049
12832TIP3   OH238438   6.010   6.968   2.848
12832TIP3    H138439   6.100   7.000   2.850
12832TIP3    H238440   6.008   6.908   2.773
12833TIP3   OH238441   7.961   0.132   5.950
12833TIP3    H138442   7.977   0.143   5.856
12833TIP3    H238443   7.869   0.158   5.962
12834TIP3   OH238444   8.155   6.388   4.742
12834TIP3    H138445   8.203   6.332   4.681
12834TIP3    H238446   8.222   6.417   4.805
12835TIP3   OH238447   7.235   2.243   4.599
12835TIP3    H138448   7.193   2.161   4.625
12835TIP3    H238449   7.326   2.219   4.583
12836TIP3   OH238450   2.583   4.260   0.864
12836TIP3    H138451   2.584   4.355   0.876
12836TIP3    H238452   2.663   4.241   0.816
12837TIP3   OH238453   6.516   5.595   2.150
12837TIP3    H138454   6.561   5.517   2.183
12837TIP3    H238455   6.565   5.620   2.071
12838TIP3   OH238456   2.343   3.029   5.012
12838TIP3    H138457   2.372   2.985   4.932
12838TIP3    H238458   2.270   2.976   5.043
12839TIP3   OH238459   3.430   0.945   2.489
12839TIP3    H138460   3.407   0.897   2.409
12839TIP3    H238461   3.508   0.901   2.522
12840TIP3   OH238462   7.859   5.151   2.283
12840TIP3    H138463   7.796   5.205   2.330
12840TIP3    H238464   7.927   5.131   2.348
12841TIP3   OH238465   6.518   2.839   0.895
12841TIP3    H138466   6.577   2.808   0.825
12841TIP3    H238467   6.567   2.908   0.939
12842TIP3   OH238468   0.495   4.046   4.094
12842TIP3    H138469   0.404   4.021   4.111
12842TIP3    H238470   0.491   4.139   4.073
12843TIP3   OH238471   0.281   6.502   3.784
12843TIP3    H138472   0.338   6.544   3.720
12843TIP3    H238473   0.271   6.567   3.854
12844TIP3   OH238474   0.278   7.455   2.229
12844TIP3    H138475   0.249   7.370   2.262
12844TIP3    H238476   0.197   7.507   2.222
12845TIP3   OH238477   0.910   5.076   5.482
12845TIP3    H138478   1.003   5.059   5.499
12845TIP3    H238479   0.878   4.998   5.438
12846TIP3   OH238480   6.472   4.904   1.307
12846TIP3    H138481   6.534   4.903   1.235
12846TIP3    H238482   6.411   4.832   1.288
12847TIP3   OH238483   1.858   4.688   1.376
12847TIP3    H138484   1.818   4.601   1.370
12847TIP3    H238485   1.845   4.714   1.467
12848TIP3   OH238486   6.517   5.560   6.553
12848TIP3    H138487   6.521   5.631   6.617
12848TIP3    H238488   6.489   5.484   6.603
12849TIP3   OH238489   5.204   3.708   3.535
12849TIP3    H138490   5.161   3.671   3.458
12849TIP3    H238491   5.205   3.637   3.599
12850TIP3   OH238492   3.306   5.150   1.075
12850TIP3    H138493   3.251   5.071   1.082
12850TIP3    H238494   3.378   5.134   1.136
12851TIP3   OH238495   7.265   2.547   5.638
12851TIP3    H138496   7.213   2.518   5.713
12851TIP3    H238497   7.206   2.538   5.563
12852TIP3   OH238498  -0.003   0.707   1.255
12852TIP3    H138499   0.056   0.633   1.271
12852TIP3    H238500   0.021   0.737   1.167
12853TIP3   OH238501   7.327   3.885   0.529
12853TIP3    H138502   7.335   3.799   0.488
12853TIP3    H238503   7.286   3.868   0.613
12854TIP3   OH238504   5.658   0.800   2.215
12854TIP3    H138505   5.658   0.785   2.310
12854TIP3    H238506   5.648   0.895   2.206
12855TIP3   OH238507   0.186   1.162   3.774
12855TIP3    H138508   0.277   1.153   3.745
12855TIP3    H238509   0.136   1.109   3.712
12856TIP3   OH238510   6.752   1.887   5.778
12856TIP3    H138511   6.786   1.876   5.689
12856TIP3    H238512   6.804   1.959   5.814
12857TIP3   OH238513   5.214   6.878   5.051
12857TIP3    H138514   5.266   6.824   4.991
12857TIP3    H238515   5.130   6.832   5.057
12858TIP3   OH238516   6.141   2.111   4.292
12858TIP3    H138517   6.197   2.034   4.281
12858TIP3    H238518   6.167   2.169   4.220
12859TIP3   OH238519   6.217   4.680   4.805
12859TIP3    H138520   6.147   4.681   4.740
12859TIP3    H238521   6.291   4.641   4.760
12860TIP3   OH238522   7.089   5.396   2.554
12860TIP3    H138523   7.173   5.385   2.511
12860TIP3    H238524   7.066   5.488   2.539
12861TIP3   OH238525   6.085   7.499   3.344
12861TIP3    H138526   6.044   7.543   3.418
12861TIP3    H238527   6.167   7.547   3.330
12862TIP3   OH238528   5.136   0.534   2.596
12862TIP3    H138529   5.115   0.625   2.573
12862TIP3    H238530   5.074   0.511   2.664
12863TIP3   OH238531   2.824   2.044   0.223
12863TIP3    H138532   2.892   2.105   0.253
12863TIP3    H238533   2.753   2.055   0.286
12864TIP3   OH238534   1.255   7.493   6.076
12864TIP3    H138535   1.267   7.403   6.045
12864TIP3    H238536   1.178   7.525   6.030
12865TIP3   OH238537   0.553   2.304   0.622
12865TIP3    H138538   0.603   2.252   0.685
12865TIP3    H238539   0.462   2.282   0.641
12866TIP3   OH238540   5.829   2.800   2.838
12866TIP3    H138541   5.897   2.863   2.862
12866TIP3    H238542   5.873   2.715   2.841
12867TIP3   OH238543   1.327   4.328   1.426
12867TIP3    H138544   1.353   4.307   1.516
12867TIP3    H238545   1.358   4.417   1.412
12868TIP3   OH238546   2.932   3.142   2.540
12868TIP3    H138547   3.002   3.203   2.560
12868TIP3    H238548   2.891   3.177   2.460
12869TIP3   OH238549   7.201   3.577   2.595
12869TIP3    H138550   7.212   3.525   2.515
12869TIP3    H238551   7.151   3.654   2.567
12870TIP3   OH238552   4.273   3.029   3.700
12870TIP3    H138553   4.325   3.015   3.620
12870TIP3    H238554   4.240   3.119   3.692
12871TIP3   OH238555   1.482   1.274   2.243
12871TIP3    H138556   1.528   1.200   2.203
12871TIP3    H238557   1.542   1.307   2.309
12872TIP3   OH238558   2.215   7.735   3.023
12872TIP3    H138559   2.203   7.684   3.103
12872TIP3    H238560   2.259   7.675   2.963
12873TIP3   OH238561   4.749   1.701   1.497
12873TIP3    H138562   4.792   1.781   1.527
12873TIP3    H238563   4.813   1.632   1.511
12874TIP3   OH238564   7.900   4.505   0.247
12874TIP3    H138565   7.842   4.500   0.323
12874TIP3    H238566   7.920   4.414   0.226
12875TIP3   OH238567   7.510   7.233   2.336
12875TIP3    H138568   7.476   7.176   2.405
12875TIP3    H238569   7.583   7.280   2.378
12876TIP3   OH238570   1.660   0.684   5.010
12876TIP3    H138571   1.616   0.727   5.084
12876TIP3    H238572   1.589   0.665   4.948
12877TIP3   OH238573   0.968   0.337   2.713
12877TIP3    H138574   0.910   0.338   2.789
12877TIP3    H238575   0.908   0.343   2.638
12878TIP3   OH238576   7.883   3.162   0.193
12878TIP3    H138577   7.841   3.210   0.265
12878TIP3    H238578   7.917   3.083   0.235
12879TIP3   OH238579   1.772   1.416   2.000
12879TIP3    H138580   1.826   1.362   2.058
12879TIP3    H238581   1.692   1.365   1.987
12880TIP3   OH238582   6.464   2.040   3.632
12880TIP3    H138583   6.393   1.998   3.681
12880TIP3    H238584   6.439   2.132   3.626
12881TIP3   OH238585   5.536   2.745   2.404
12881TIP3    H138586   5.594   2.738   2.479
12881TIP3    H238587   5.503   2.835   2.407
12882TIP3   OH238588   4.852   7.666   0.492
12882TIP3    H138589   4.880   7.638   0.579
12882TIP3    H238590   4.864   7.588   0.437
12883TIP3   OH238591   7.905   1.077   5.740
12883TIP3    H138592   7.850   1.137   5.791
12883TIP3    H238593   7.994   1.094   5.772
12884TIP3   OH238594   4.275   0.392   5.188
12884TIP3    H138595   4.225   0.470   5.164
12884TIP3    H238596   4.350   0.393   5.130
12885TIP3   OH238597   0.852   4.079   3.660
12885TIP3    H138598   0.827   4.120   3.577
12885TIP3    H238599   0.948   4.075   3.656
12886TIP3   OH238600   3.982   1.748   3.027
12886TIP3    H138601   3.913   1.778   3.087
12886TIP3    H238602   3.970   1.800   2.948
12887TIP3   OH238603   2.957   1.366   1.382
12887TIP3    H138604   2.872   1.322   1.376
12887TIP3    H238605   3.014   1.315   1.325
12888TIP3   OH238606   0.952   3.706   4.145
12888TIP3    H138607   0.967   3.777   4.082
12888TIP3    H238608   1.039   3.686   4.179
12889TIP3   OH238609   6.915   0.402   0.640
12889TIP3    H138610   6.825   0.403   0.674
12889TIP3    H238611   6.965   0.358   0.708
12890TIP3   OH238612   4.795   1.045   3.428
12890TIP3    H138613   4.815   1.056   3.335
12890TIP3    H238614   4.720   1.104   3.443
12891TIP3   OH238615   2.336   3.738   6.742
12891TIP3    H138616   2.431   3.728   6.744
12891TIP3    H238617   2.302   3.663   6.791
12892TIP3   OH238618   4.920   1.044   4.984
12892TIP3    H138619   4.964   0.991   5.050
12892TIP3    H238620   4.885   0.980   4.922
12893TIP3   OH238621   7.454   2.290   4.134
12893TIP3    H138622   7.461   2.197   4.154
12893TIP3    H238623   7.431   2.331   4.218
12894TIP3   OH238624   7.791   3.802   6.567
12894TIP3    H138625   7.822   3.849   6.645
12894TIP3    H238626   7.808   3.861   6.494
12895TIP3   OH238627   6.218   4.106   1.129
12895TIP3    H138628   6.311   4.091   1.145
12895TIP3    H238629   6.215   4.145   1.042
12896TIP3   OH238630   3.110   4.331   6.189
12896TIP3    H138631   3.147   4.244   6.207
12896TIP3    H238632   3.018   4.323   6.214
12897TIP3   OH238633   5.726   2.881   1.692
12897TIP3    H138634   5.787   2.917   1.756
12897TIP3    H238635   5.780   2.863   1.615
12898TIP3   OH238636   5.297   0.541   5.210
12898TIP3    H138637   5.274   0.532   5.302
12898TIP3    H238638   5.223   0.503   5.162
12899TIP3   OH238639   0.692   4.448   4.799
12899TIP3    H138640   0.763   4.483   4.854
12899TIP3    H238641   0.632   4.407   4.861
12900TIP3   OH238642   7.233   3.023   3.772
12900TIP3    H138643   7.310   2.982   3.812
12900TIP3    H238644   7.193   2.953   3.720
12901TIP3   OH238645   3.596   6.983   0.648
12901TIP3    H138646   3.634   6.968   0.735
12901TIP3    H238647   3.516   6.930   0.648
12902TIP3   OH238648   0.131   6.472   6.712
12902TIP3    H138649   0.128   6.512   6.798
12902TIP3    H238650   0.113   6.544   6.651
12903TIP3   OH238651   4.853   5.831   3.859
12903TIP3    H138652   4.812   5.843   3.944
12903TIP3    H238653   4.947   5.827   3.877
12904TIP3   OH238654   3.307   4.827   5.242
12904TIP3    H138655   3.401   4.843   5.247
12904TIP3    H238656   3.289   4.822   5.148
12905TIP3   OH238657   0.773   0.358   2.159
12905TIP3    H138658   0.777   0.453   2.142
12905TIP3    H238659   0.689   0.331   2.122
12906TIP3   OH238660   2.453   0.747   0.967
12906TIP3    H138661   2.460   0.660   1.007
12906TIP3    H238662   2.467   0.731   0.874
12907TIP3   OH238663   6.071   3.986   3.528
12907TIP3    H138664   6.149   3.936   3.503
12907TIP3    H238665   6.029   4.008   3.445
12908TIP3   OH238666   2.418   5.254   5.669
12908TIP3    H138667   2.357   5.246   5.596
12908TIP3    H238668   2.383   5.326   5.722
12909TIP3   OH238669   7.888   6.780   3.867
12909TIP3    H138670   7.797   6.809   3.872
12909TIP3    H238671   7.935   6.855   3.831
12910TIP3   OH238672   3.601   5.178   1.910
12910TIP3    H138673   3.629   5.105   1.965
12910TIP3    H238674   3.553   5.236   1.969
12911TIP3   OH238675   0.805   1.066   6.039
12911TIP3    H138676   0.855   1.129   5.987
12911TIP3    H238677   0.714   1.094   6.030
12912TIP3   OH238678   7.098   6.312   1.801
12912TIP3    H138679   7.064   6.401   1.802
12912TIP3    H238680   7.128   6.296   1.891
12913TIP3   OH238681   2.414   2.792   0.809
12913TIP3    H138682   2.390   2.703   0.781
12913TIP3    H238683   2.509   2.788   0.824
12914TIP3   OH238684   0.837   0.612   4.772
12914TIP3    H138685   0.767   0.671   4.799
12914TIP3    H238686   0.801   0.524   4.787
12915TIP3   OH238687   1.001   4.591   2.630
12915TIP3    H138688   1.057   4.514   2.643
12915TIP3    H238689   0.973   4.615   2.718
12916TIP3   OH238690   0.131   6.010   3.631
12916TIP3    H138691   0.200   6.050   3.684
12916TIP3    H238692   0.139   6.053   3.546
12917TIP3   OH238693   0.179   5.563   1.032
12917TIP3    H138694   0.190   5.533   1.122
12917TIP3    H238695   0.167   5.658   1.039
12918TIP3   OH238696   7.119   4.016   1.827
12918TIP3    H138697   7.175   3.977   1.895
12918TIP3    H238698   7.031   4.015   1.866
12919TIP3   OH238699   4.130   3.538   4.043
12919TIP3    H138700   4.169   3.610   4.094
12919TIP3    H238701   4.205   3.494   4.002
12920TIP3   OH238702   7.011   6.547   4.177
12920TIP3    H138703   7.023   6.541   4.082
12920TIP3    H238704   6.951   6.476   4.198
12921TIP3   OH238705   5.190   7.079   1.132
12921TIP3    H138706   5.146   7.109   1.052
12921TIP3    H238707   5.234   6.998   1.107
12922TIP3   OH238708   0.928   6.874   2.108
12922TIP3    H138709   0.842   6.904   2.136
12922TIP3    H238710   0.959   6.942   2.048
12923TIP3   OH238711   5.415   4.701   6.108
12923TIP3    H138712   5.345   4.637   6.120
12923TIP3    H238713   5.462   4.702   6.192
12924TIP3   OH238714   7.021   5.807   4.447
12924TIP3    H138715   7.109   5.801   4.412
12924TIP3    H238716   6.969   5.843   4.375
12925TIP3   OH238717   1.295   6.539   3.896
12925TIP3    H138718   1.272   6.514   3.806
12925TIP3    H238719   1.264   6.467   3.950
12926TIP3   OH238720   5.087   3.045   1.248
12926TIP3    H138721   5.143   3.088   1.313
12926TIP3    H238722   5.135   2.967   1.223
12927TIP3   OH238723   6.217   1.013   5.963
12927TIP3    H138724   6.152   1.083   5.957
12927TIP3    H238725   6.179   0.951   6.025
12928TIP3   OH238726   7.335   4.243   2.793
12928TIP3    H138727   7.377   4.185   2.857
12928TIP3    H238728   7.307   4.318   2.845
12929TIP3   OH238729   8.011   3.573   0.277
12929TIP3    H138730   7.979   3.538   0.361
12929TIP3    H238731   8.075   3.639   0.302
12930TIP3   OH238732   3.182   0.716   5.839
12930TIP3    H138733   3.128   0.649   5.797
12930TIP3    H238734   3.148   0.724   5.927
12931TIP3   OH238735   2.482   1.706   6.522
12931TIP3    H138736   2.461   1.742   6.608
12931TIP3    H238737   2.567   1.664   6.533
12932TIP3   OH238738   7.754   1.044   3.270
12932TIP3    H138739   7.661   1.031   3.250
12932TIP3    H238740   7.797   1.041   3.185
12933TIP3   OH238741   6.784   2.413   6.117
12933TIP3    H138742   6.876   2.420   6.089
12933TIP3    H238743   6.773   2.483   6.181
12934TIP3   OH238744   7.018   2.137   3.505
12934TIP3    H138745   6.960   2.210   3.525
12934TIP3    H238746   7.061   2.162   3.423
12935TIP3   OH238747   1.842   0.132   1.227
12935TIP3    H138748   1.819   0.128   1.134
12935TIP3    H238749   1.937   0.116   1.229
12936TIP3   OH238750   3.696   4.084   6.076
12936TIP3    H138751   3.662   4.166   6.041
12936TIP3    H238752   3.791   4.096   6.078
12937TIP3   OH238753   0.607   2.903   4.337
12937TIP3    H138754   0.550   2.830   4.360
12937TIP3    H238755   0.553   2.960   4.283
12938TIP3   OH238756   5.776   2.071   2.486
12938TIP3    H138757   5.707   2.137   2.484
12938TIP3    H238758   5.746   2.002   2.427
12939TIP3   OH238759   4.028   4.402   6.013
12939TIP3    H138760   3.958   4.438   5.958
12939TIP3    H238761   4.059   4.477   6.063
12940TIP3   OH238762   0.668   4.567   2.938
12940TIP3    H138763   0.604   4.502   2.966
12940TIP3    H238764   0.638   4.596   2.853
12941TIP3   OH238765   6.570   0.154   6.296
12941TIP3    H138766   6.555   0.060   6.310
12941TIP3    H238767   6.484   0.194   6.310
12942TIP3   OH238768   2.657   5.013   0.742
12942TIP3    H138769   2.667   4.933   0.691
12942TIP3    H238770   2.722   5.006   0.812
12943TIP3   OH238771   3.341   0.385   3.005
12943TIP3    H138772   3.357   0.319   3.072
12943TIP3    H238773   3.294   0.455   3.051
12944TIP3   OH238774   6.932   0.414   5.973
12944TIP3    H138775   6.867   0.469   6.015
12944TIP3    H238776   6.916   0.326   6.009
12945TIP3   OH238777   1.559   1.223   2.881
12945TIP3    H138778   1.490   1.191   2.940
12945TIP3    H238779   1.512   1.257   2.805
12946TIP3   OH238780   3.904   6.818   1.729
12946TIP3    H138781   3.868   6.855   1.647
12946TIP3    H238782   3.832   6.766   1.765
12947TIP3   OH238783   0.865   2.003   3.837
12947TIP3    H138784   0.956   1.997   3.807
12947TIP3    H238785   0.831   1.914   3.830
12948TIP3   OH238786   1.870   1.413   4.549
12948TIP3    H138787   1.855   1.364   4.468
12948TIP3    H238788   1.960   1.393   4.573
12949TIP3   OH238789   2.898   7.612   5.053
12949TIP3    H138790   2.883   7.599   4.959
12949TIP3    H238791   2.992   7.598   5.064
12950TIP3   OH238792   4.915   2.117   6.689
12950TIP3    H138793   4.894   2.037   6.641
12950TIP3    H238794   5.010   2.123   6.686
12951TIP3   OH238795   2.027   0.600   2.395
12951TIP3    H138796   2.104   0.592   2.339
12951TIP3    H238797   1.992   0.511   2.402
12952TIP3   OH238798   5.157   6.202   3.722
12952TIP3    H138799   5.078   6.229   3.768
12952TIP3    H238800   5.161   6.260   3.645
12953TIP3   OH238801   7.121   2.720   3.094
12953TIP3    H138802   7.114   2.737   3.188
12953TIP3    H238803   7.108   2.806   3.054
12954TIP3   OH238804   5.604   1.247   1.751
12954TIP3    H138805   5.566   1.230   1.664
12954TIP3    H238806   5.641   1.163   1.777
12955TIP3   OH238807   4.307   4.725   3.075
12955TIP3    H138808   4.387   4.684   3.041
12955TIP3    H238809   4.263   4.654   3.122
12956TIP3   OH238810   6.302   1.207   4.370
12956TIP3    H138811   6.208   1.209   4.383
12956TIP3    H238812   6.318   1.126   4.321
12957TIP3   OH238813   1.017   1.625   1.328
12957TIP3    H138814   1.066   1.638   1.246
12957TIP3    H238815   1.086   1.613   1.394
12958TIP3   OH238816   0.682   0.117   0.676
12958TIP3    H138817   0.662   0.053   0.607
12958TIP3    H238818   0.634   0.085   0.752
12959TIP3   OH238819   0.801   6.794   0.141
12959TIP3    H138820   0.764   6.775   0.227
12959TIP3    H238821   0.794   6.889   0.132
12960TIP3   OH238822   7.462   4.652   1.659
12960TIP3    H138823   7.492   4.666   1.570
12960TIP3    H238824   7.478   4.736   1.703
12961TIP3   OH238825   7.263   7.396   1.515
12961TIP3    H138826   7.242   7.402   1.422
12961TIP3    H238827   7.228   7.477   1.552
12962TIP3   OH238828   6.349   0.737   5.988
12962TIP3    H138829   6.385   0.710   5.903
12962TIP3    H238830   6.272   0.681   6.000
12963TIP3   OH238831   4.443   0.023   0.314
12963TIP3    H138832   4.357  -0.012   0.290
12963TIP3    H238833   4.425   0.090   0.379
12964TIP3   OH238834   3.484   2.556   2.115
12964TIP3    H138835   3.496   2.650   2.103
12964TIP3    H238836   3.405   2.535   2.064
12965TIP3   OH238837   4.302   6.804   4.659
12965TIP3    H138838   4.342   6.743   4.597
12965TIP3    H238839   4.372   6.865   4.682
12966TIP3   OH238840   6.826   6.347  -0.010
12966TIP3    H138841   6.769   6.392   0.052
12966TIP3    H238842   6.842   6.261   0.031
12967TIP3   OH238843   8.241   2.401   2.578
12967TIP3    H138844   8.328   2.398   2.537
12967TIP3    H238845   8.245   2.333   2.646
12968TIP3   OH238846   3.963   6.111   2.796
12968TIP3    H138847   3.877   6.135   2.760
12968TIP3    H238848   3.950   6.026   2.836
12969TIP3   OH238849   0.517   0.369   5.604
12969TIP3    H138850   0.589   0.310   5.582
12969TIP3    H238851   0.557   0.456   5.603
12970TIP3   OH238852   0.366   7.769   0.359
12970TIP3    H138853   0.360   7.828   0.283
12970TIP3    H238854   0.397   7.686   0.323
12971TIP3   OH238855   3.002   7.671   6.403
12971TIP3    H138856   3.075   7.661   6.341
12971TIP3    H238857   2.941   7.602   6.379
12972TIP3   OH238858   2.358   0.898   3.889
12972TIP3    H138859   2.317   0.953   3.955
12972TIP3    H238860   2.286   0.875   3.829
12973TIP3   OH238861   1.238   0.270   5.894
12973TIP3    H138862   1.205   0.360   5.897
12973TIP3    H238863   1.180   0.225   5.833
12974TIP3   OH238864   4.975   4.018   1.392
12974TIP3    H138865   4.926   4.020   1.310
12974TIP3    H238866   5.067   4.012   1.365
12975TIP3   OH238867   5.048   0.856   5.136
12975TIP3    H138868   5.077   0.822   5.221
12975TIP3    H238869   5.023   0.778   5.086
12976TIP3   OH238870   3.872   2.304   2.384
12976TIP3    H138871   3.946   2.353   2.348
12976TIP3    H238872   3.804   2.369   2.398
12977TIP3   OH238873   2.199   4.720   4.248
12977TIP3    H138874   2.218   4.807   4.211
12977TIP3    H238875   2.175   4.738   4.339
12978TIP3   OH238876   7.615   6.255   6.454
12978TIP3    H138877   7.661   6.219   6.530
12978TIP3    H238878   7.655   6.340   6.440
12979TIP3   OH238879   3.725   4.316   2.069
12979TIP3    H138880   3.682   4.253   2.126
12979TIP3    H238881   3.814   4.283   2.058
12980TIP3   OH238882   7.373   4.762   0.239
12980TIP3    H138883   7.353   4.854   0.220
12980TIP3    H238884   7.464   4.752   0.210
12981TIP3   OH238885   1.495   0.913   0.395
12981TIP3    H138886   1.544   0.835   0.369
12981TIP3    H238887   1.425   0.921   0.330
12982TIP3   OH238888   2.324   2.079   5.487
12982TIP3    H138889   2.293   2.011   5.426
12982TIP3    H238890   2.417   2.087   5.467
12983TIP3   OH238891   5.722   4.381   1.388
12983TIP3    H138892   5.766   4.297   1.373
12983TIP3    H238893   5.666   4.392   1.311
12984TIP3   OH238894   4.606   5.143   3.843
12984TIP3    H138895   4.534   5.087   3.869
12984TIP3    H238896   4.575   5.232   3.862
12985TIP3   OH238897   7.200   4.247   6.021
12985TIP3    H138898   7.235   4.200   6.096
12985TIP3    H238899   7.224   4.193   5.945
12986TIP3   OH238900   6.421   5.471   1.257
12986TIP3    H138901   6.353   5.415   1.220
12986TIP3    H238902   6.440   5.534   1.187
12987TIP3   OH238903   7.886   0.158   1.429
12987TIP3    H138904   7.881   0.111   1.346
12987TIP3    H238905   7.882   0.251   1.404
12988TIP3   OH238906   2.540   6.505   1.910
12988TIP3    H138907   2.550   6.410   1.903
12988TIP3    H238908   2.484   6.518   1.986
12989TIP3   OH238909   7.258   1.586   0.468
12989TIP3    H138910   7.280   1.658   0.527
12989TIP3    H238911   7.169   1.606   0.438
12990TIP3   OH238912   5.739   3.393   5.620
12990TIP3    H138913   5.729   3.321   5.682
12990TIP3    H238914   5.811   3.366   5.564
12991TIP3   OH238915   3.163   2.224   6.305
12991TIP3    H138916   3.091   2.165   6.328
12991TIP3    H238917   3.226   2.214   6.375
12992TIP3   OH238918   4.191   6.491   5.596
12992TIP3    H138919   4.103   6.518   5.621
12992TIP3    H238920   4.230   6.459   5.677
12993TIP3   OH238921   7.277   4.214   2.200
12993TIP3    H138922   7.345   4.254   2.254
12993TIP3    H238923   7.271   4.270   2.122
12994TIP3   OH238924   5.009   0.797   2.231
12994TIP3    H138925   4.922   0.758   2.237
12994TIP3    H238926   5.060   0.735   2.180
12995TIP3   OH238927   7.682   5.895   3.921
12995TIP3    H138928   7.756   5.914   3.864
12995TIP3    H238929   7.712   5.824   3.978
12996TIP3   OH238930   7.421   2.328   0.717
12996TIP3    H138931   7.343   2.381   0.732
12996TIP3    H238932   7.442   2.291   0.802
12997TIP3   OH238933   4.422   2.463   2.105
12997TIP3    H138934   4.425   2.460   2.201
12997TIP3    H238935   4.443   2.554   2.084
12998TIP3   OH238936   1.135   3.888   0.465
12998TIP3    H138937   1.202   3.848   0.521
12998TIP3    H238938   1.140   3.839   0.383
12999TIP3   OH238939   0.737   2.836   0.448
12999TIP3    H138940   0.688   2.905   0.404
12999TIP3    H238941   0.677   2.762   0.451
13000TIP3   OH238942   5.310   3.488   1.468
13000TIP3    H138943   5.320   3.554   1.536
13000TIP3    H238944   5.383   3.428   1.482
13001TIP3   OH238945   7.479   7.064   1.086
13001TIP3    H138946   7.386   7.085   1.080
13001TIP3    H238947   7.513   7.080   0.998
13002TIP3   OH238948   3.984   5.849   4.824
13002TIP3    H138949   4.028   5.802   4.896
13002TIP3    H238950   3.917   5.902   4.867
13003TIP3   OH238951   7.149   6.555   2.701
13003TIP3    H138952   7.097   6.509   2.635
13003TIP3    H238953   7.234   6.511   2.700
13004TIP3   OH238954   3.854   1.081   4.863
13004TIP3    H138955   3.863   1.169   4.899
13004TIP3    H238956   3.784   1.040   4.914
13005TIP3   OH238957   0.169   7.041   4.096
13005TIP3    H138958   0.218   7.122   4.087
13005TIP3    H238959   0.095   7.063   4.153
13006TIP3   OH238960   7.604   3.267   6.002
13006TIP3    H138961   7.618   3.266   5.907
13006TIP3    H238962   7.548   3.343   6.017
13007TIP3   OH238963   6.162   0.668   5.213
13007TIP3    H138964   6.215   0.688   5.135
13007TIP3    H238965   6.182   0.738   5.274
13008TIP3   OH238966   1.423   2.508   2.365
13008TIP3    H138967   1.446   2.415   2.360
13008TIP3    H238968   1.381   2.527   2.281
13009TIP3   OH238969   3.432   0.433   0.618
13009TIP3    H138970   3.459   0.501   0.555
13009TIP3    H238971   3.415   0.481   0.699
13010TIP3   OH238972   1.446   2.963   1.497
13010TIP3    H138973   1.496   3.039   1.526
13010TIP3    H238974   1.505   2.889   1.513
13011TIP3   OH238975   6.898   2.262   1.355
13011TIP3    H138976   6.906   2.349   1.394
13011TIP3    H238977   6.847   2.277   1.275
13012TIP3   OH238978   2.903   1.130   1.580
13012TIP3    H138979   2.816   1.133   1.619
13012TIP3    H238980   2.887   1.133   1.486
13013TIP3   OH238981   3.336   5.069   2.070
13013TIP3    H138982   3.353   5.001   2.136
13013TIP3    H238983   3.351   5.025   1.986
13014TIP3   OH238984   4.983   6.526   6.640
13014TIP3    H138985   4.930   6.567   6.708
13014TIP3    H238986   5.070   6.564   6.650
13015TIP3   OH238987   5.859   6.949   6.670
13015TIP3    H138988   5.816   6.949   6.585
13015TIP3    H238989   5.904   7.034   6.674
13016TIP3   OH238990   6.792   1.048   3.100
13016TIP3    H138991   6.827   0.965   3.130
13016TIP3    H238992   6.767   1.095   3.180
13017TIP3   OH238993   8.063   3.230   5.241
13017TIP3    H138994   8.089   3.262   5.155
13017TIP3    H238995   7.987   3.283   5.265
13018TIP3   OH238996   3.945   7.715   5.299
13018TIP3    H138997   3.856   7.728   5.332
13018TIP3    H238998   3.979   7.803   5.286
13019TIP3   OH238999   1.080   0.118   0.977
13019TIP3    H139000   1.109   0.030   0.954
13019TIP3    H239001   1.020   0.143   0.907
13020TIP3   OH239002   5.887   1.066   3.927
13020TIP3    H139003   5.842   1.114   3.858
13020TIP3    H239004   5.845   0.980   3.928
13021TIP3   OH239005   0.719   2.996   5.979
13021TIP3    H139006   0.625   2.981   5.968
13021TIP3    H239007   0.729   3.090   5.970
13022TIP3   OH239008   2.789   7.044   1.646
13022TIP3    H139009   2.757   7.122   1.691
13022TIP3    H239010   2.786   7.066   1.553
13023TIP3   OH239011   2.222   2.665   6.024
13023TIP3    H139012   2.316   2.684   6.034
13023TIP3    H239013   2.181   2.751   6.018
13024TIP3   OH239014   7.759   2.315   2.256
13024TIP3    H139015   7.744   2.395   2.207
13024TIP3    H239016   7.845   2.326   2.297
13025TIP3   OH239017   2.576   7.108   3.191
13025TIP3    H139018   2.493   7.074   3.159
13025TIP3    H239019   2.602   7.047   3.260
13026TIP3   OH239020   3.761   1.078   1.381
13026TIP3    H139021   3.707   1.009   1.345
13026TIP3    H239022   3.738   1.156   1.331
13027TIP3   OH239023   4.335   1.649   0.550
13027TIP3    H139024   4.308   1.735   0.517
13027TIP3    H239025   4.299   1.645   0.638
13028TIP3   OH239026   5.264   6.428   2.071
13028TIP3    H139027   5.292   6.454   1.983
13028TIP3    H239028   5.345   6.415   2.119
13029TIP3   OH239029   3.924   3.844   3.082
13029TIP3    H139030   3.951   3.934   3.061
13029TIP3    H239031   3.881   3.813   3.003
13030TIP3   OH239032   3.836   2.856   4.884
13030TIP3    H139033   3.836   2.932   4.942
13030TIP3    H239034   3.875   2.786   4.937
13031TIP3   OH239035   1.593   3.204   3.381
13031TIP3    H139036   1.631   3.272   3.324
13031TIP3    H239037   1.665   3.142   3.394
13032TIP3   OH239038   1.159   1.237   0.241
13032TIP3    H139039   1.150   1.311   0.181
13032TIP3    H239040   1.191   1.165   0.186
13033TIP3   OH239041   6.889   5.311   4.996
13033TIP3    H139042   6.873   5.367   5.072
13033TIP3    H239043   6.925   5.231   5.032
13034TIP3   OH239044   7.916   4.963   1.292
13034TIP3    H139045   7.895   5.046   1.336
13034TIP3    H239046   7.884   4.896   1.351
13035TIP3   OH239047   3.973   2.848   2.243
13035TIP3    H139048   4.033   2.922   2.237
13035TIP3    H239049   3.908   2.875   2.307
13036TIP3   OH239050   2.229   6.494   3.952
13036TIP3    H139051   2.191   6.507   3.865
13036TIP3    H239052   2.196   6.568   4.003
13037TIP3   OH239053   0.739   7.560   5.972
13037TIP3    H139054   0.789   7.537   5.894
13037TIP3    H239055   0.800   7.612   6.025
13038TIP3   OH239056   7.330   3.900   1.403
13038TIP3    H139057   7.401   3.836   1.400
13038TIP3    H239058   7.350   3.954   1.480
13039TIP3   OH239059   5.450   1.032   0.426
13039TIP3    H139060   5.406   1.096   0.483
13039TIP3    H239061   5.403   1.039   0.342
13040TIP3   OH239062   1.227   1.712   4.820
13040TIP3    H139063   1.184   1.647   4.876
13040TIP3    H239064   1.318   1.683   4.815
13041TIP3   OH239065   0.991   7.287   4.147
13041TIP3    H139066   0.927   7.262   4.214
13041TIP3    H239067   1.055   7.340   4.194
13042TIP3   OH239068   1.446   0.756   6.374
13042TIP3    H139069   1.442   0.690   6.304
13042TIP3    H239070   1.367   0.740   6.425
13043TIP3   OH239071   0.748   5.542   3.947
13043TIP3    H139072   0.701   5.474   3.899
13043TIP3    H239073   0.811   5.494   4.000
13044TIP3   OH239074   7.891   2.015   5.602
13044TIP3    H139075   7.957   1.946   5.605
13044TIP3    H239076   7.884   2.039   5.510
13045TIP3   OH239077   1.734   1.624   4.124
13045TIP3    H139078   1.797   1.690   4.095
13045TIP3    H239079   1.786   1.562   4.175
13046TIP3   OH239080   7.958   0.837   0.215
13046TIP3    H139081   7.938   0.928   0.235
13046TIP3    H239082   7.894   0.811   0.149
13047TIP3   OH239083   1.653   3.173   3.017
13047TIP3    H139084   1.652   3.259   3.060
13047TIP3    H239085   1.578   3.176   2.958
13048TIP3   OH239086   5.863   1.505   5.988
13048TIP3    H139087   5.923   1.540   5.922
13048TIP3    H239088   5.803   1.577   6.007
13049TIP3   OH239089   3.473   3.872   6.769
13049TIP3    H139090   3.494   3.780   6.757
13049TIP3    H239091   3.396   3.872   6.826
13050TIP3   OH239092   6.668   4.571   1.151
13050TIP3    H139093   6.741   4.583   1.090
13050TIP3    H239094   6.603   4.523   1.100
13051TIP3   OH239095   5.406   7.015   4.797
13051TIP3    H139096   5.484   7.068   4.808
13051TIP3    H239097   5.357   7.058   4.727
13052TIP3   OH239098   5.916   3.256   6.345
13052TIP3    H139099   5.935   3.167   6.374
13052TIP3    H239100   5.989   3.308   6.379
13053TIP3   OH239101   4.324   1.243   2.241
13053TIP3    H139102   4.397   1.252   2.303
13053TIP3    H239103   4.352   1.291   2.163
13054TIP3   OH239104   2.857   1.451   4.979
13054TIP3    H139105   2.937   1.491   5.011
13054TIP3    H239106   2.885   1.366   4.943
13055TIP3   OH239107   0.282   0.712   2.962
13055TIP3    H139108   0.371   0.732   2.931
13055TIP3    H239109   0.259   0.631   2.918
13056TIP3   OH239110   7.051   5.547   5.249
13056TIP3    H139111   7.021   5.456   5.251
13056TIP3    H239112   7.137   5.542   5.207
13057TIP3   OH239113   1.742   6.849   2.148
13057TIP3    H139114   1.710   6.936   2.172
13057TIP3    H239115   1.837   6.859   2.144
13058TIP3   OH239116   0.085   4.971   6.311
13058TIP3    H139117   0.172   4.955   6.347
13058TIP3    H239118   0.089   5.059   6.274
13059TIP3   OH239119   1.277   2.894   1.311
13059TIP3    H139120   1.343   2.887   1.380
13059TIP3    H239121   1.326   2.924   1.234
13060TIP3   OH239122   3.838   2.954   2.724
13060TIP3    H139123   3.834   2.884   2.790
13060TIP3    H239124   3.890   3.023   2.765
13061TIP3   OH239125   5.153   4.690   6.298
13061TIP3    H139126   5.100   4.673   6.376
13061TIP3    H239127   5.119   4.629   6.232
13062TIP3   OH239128   5.817   5.509   5.644
13062TIP3    H139129   5.758   5.552   5.581
13062TIP3    H239130   5.813   5.416   5.621
13063TIP3   OH239131   4.735   2.987   0.157
13063TIP3    H139132   4.775   3.014   0.075
13063TIP3    H239133   4.641   2.997   0.142
13064TIP3   OH239134   4.614   3.724   2.140
13064TIP3    H139135   4.552   3.654   2.159
13064TIP3    H239136   4.693   3.679   2.111
13065TIP3   OH239137   6.850   3.616   1.825
13065TIP3    H139138   6.861   3.530   1.784
13065TIP3    H239139   6.939   3.647   1.842
13066TIP3   OH239140  -0.003   5.246   4.343
13066TIP3    H139141   0.091   5.230   4.338
13066TIP3    H239142  -0.039   5.167   4.382
13067TIP3   OH239143   0.888   7.055   0.594
13067TIP3    H139144   0.835   7.067   0.673
13067TIP3    H239145   0.945   6.981   0.615
13068TIP3   OH239146   6.309   7.416   6.262
13068TIP3    H139147   6.307   7.440   6.355
13068TIP3    H239148   6.389   7.456   6.229
13069TIP3   OH239149   1.184   5.774   3.525
13069TIP3    H139150   1.112   5.756   3.586
13069TIP3    H239151   1.263   5.749   3.573
13070TIP3   OH239152   6.380   5.887   6.097
13070TIP3    H139153   6.318   5.824   6.059
13070TIP3    H239154   6.466   5.857   6.065
13071TIP3   OH239155   4.230   5.587   1.327
13071TIP3    H139156   4.280   5.506   1.314
13071TIP3    H239157   4.226   5.597   1.423
13072TIP3   OH239158   2.564   0.936   1.374
13072TIP3    H139159   2.578   0.938   1.280
13072TIP3    H239160   2.573   0.844   1.398
13073TIP3   OH239161   2.629   3.005   3.315
13073TIP3    H139162   2.540   3.036   3.329
13073TIP3    H239163   2.624   2.911   3.330
13074TIP3   OH239164   3.841   5.687   5.106
13074TIP3    H139165   3.860   5.750   5.037
13074TIP3    H239166   3.814   5.608   5.059
13075TIP3   OH239167   7.381   4.276   4.126
13075TIP3    H139168   7.445   4.322   4.181
13075TIP3    H239169   7.413   4.289   4.037
13076TIP3   OH239170   7.741   7.565   3.021
13076TIP3    H139171   7.701   7.635   2.968
13076TIP3    H239172   7.693   7.566   3.103
13077TIP3   OH239173   6.621   4.567   6.157
13077TIP3    H139174   6.582   4.617   6.227
13077TIP3    H239175   6.667   4.495   6.201
13078TIP3   OH239176   2.362   6.123   0.225
13078TIP3    H139177   2.353   6.056   0.292
13078TIP3    H239178   2.341   6.205   0.269
13079TIP3   OH239179   3.993   7.325   3.369
13079TIP3    H139180   3.998   7.322   3.465
13079TIP3    H239181   4.054   7.395   3.344
13080TIP3   OH239182   1.971   3.597   1.830
13080TIP3    H139183   2.048   3.543   1.848
13080TIP3    H239184   2.003   3.665   1.770
13081TIP3   OH239185   0.975   6.066   1.454
13081TIP3    H139186   0.913   6.069   1.527
13081TIP3    H239187   0.952   6.142   1.400
13082TIP3   OH239188   3.923   7.608   1.787
13082TIP3    H139189   3.924   7.703   1.790
13082TIP3    H239190   4.015   7.582   1.786
13083TIP3   OH239191   4.191   3.111   2.106
13083TIP3    H139192   4.148   3.097   2.021
13083TIP3    H239193   4.272   3.060   2.101
13084TIP3   OH239194   6.740   0.292   1.302
13084TIP3    H139195   6.828   0.277   1.268
13084TIP3    H239196   6.746   0.270   1.395
13085TIP3   OH239197   5.847   6.538   6.431
13085TIP3    H139198   5.918   6.588   6.391
13085TIP3    H239199   5.889   6.456   6.459
13086TIP3   OH239200   2.356   4.558   5.171
13086TIP3    H139201   2.396   4.534   5.088
13086TIP3    H239202   2.429   4.570   5.232
13087TIP3   OH239203   0.370   6.504   0.248
13087TIP3    H139204   0.310   6.532   0.317
13087TIP3    H239205   0.428   6.441   0.290
13088TIP3   OH239206   7.660   7.162   2.100
13088TIP3    H139207   7.606   7.191   2.173
13088TIP3    H239208   7.617   7.198   2.023
13089TIP3   OH239209   6.011   1.700   4.794
13089TIP3    H139210   5.949   1.648   4.844
13089TIP3    H239211   6.073   1.636   4.759
13090TIP3   OH239212   7.849   4.304   2.919
13090TIP3    H139213   7.786   4.366   2.956
13090TIP3    H239214   7.924   4.308   2.979
13091TIP3   OH239215   3.792   2.176   3.003
13091TIP3    H139216   3.749   2.240   3.061
13091TIP3    H239217   3.829   2.229   2.933
13092TIP3   OH239218   5.655   7.430   3.793
13092TIP3    H139219   5.711   7.492   3.747
13092TIP3    H239220   5.579   7.481   3.820
13093TIP3   OH239221   4.744   5.989   0.330
13093TIP3    H139222   4.715   6.011   0.419
13093TIP3    H239223   4.663   5.971   0.283
13094TIP3   OH239224   6.817   0.546   1.393
13094TIP3    H139225   6.763   0.476   1.355
13094TIP3    H239226   6.874   0.501   1.456
13095TIP3   OH239227   6.192   0.947   4.833
13095TIP3    H139228   6.232   0.987   4.756
13095TIP3    H239229   6.246   0.977   4.906
13096TIP3   OH239230   3.192   5.770   3.094
13096TIP3    H139231   3.282   5.795   3.117
13096TIP3    H239232   3.163   5.717   3.169
13097TIP3   OH239233   6.492   6.103   2.559
13097TIP3    H139234   6.538   6.161   2.620
13097TIP3    H239235   6.549   6.101   2.482
13098TIP3   OH239236   7.007   4.745   2.022
13098TIP3    H139237   7.066   4.784   2.087
13098TIP3    H239238   7.057   4.744   1.941
13099TIP3   OH239239   4.237   0.193   1.290
13099TIP3    H139240   4.206   0.218   1.203
13099TIP3    H239241   4.210   0.101   1.299
13100TIP3   OH239242   0.893   4.447   3.678
13100TIP3    H139243   0.889   4.533   3.636
13100TIP3    H239244   0.871   4.463   3.770
13101TIP3   OH239245   0.789   7.307   4.371
13101TIP3    H139246   0.737   7.249   4.316
13101TIP3    H239247   0.775   7.394   4.335
13102TIP3   OH239248   3.979   0.576   2.478
13102TIP3    H139249   4.002   0.621   2.559
13102TIP3    H239250   3.924   0.638   2.431
13103TIP3   OH239251   6.431   2.805   1.478
13103TIP3    H139252   6.470   2.885   1.513
13103TIP3    H239253   6.423   2.821   1.384
13104TIP3   OH239254   1.040   5.071   2.366
13104TIP3    H139255   0.991   5.013   2.308
13104TIP3    H239256   1.067   5.015   2.439
13105TIP3   OH239257   3.227   7.406   0.228
13105TIP3    H139258   3.236   7.327   0.281
13105TIP3    H239259   3.316   7.427   0.200
13106TIP3   OH239260   3.807   1.736   5.249
13106TIP3    H139261   3.811   1.691   5.164
13106TIP3    H239262   3.764   1.819   5.231
13107TIP3   OH239263   1.259   5.410   2.959
13107TIP3    H139264   1.263   5.318   2.936
13107TIP3    H239265   1.172   5.421   2.998
13108TIP3   OH239266   1.250   6.219   5.853
13108TIP3    H139267   1.194   6.237   5.777
13108TIP3    H239268   1.239   6.125   5.868
13109TIP3   OH239269   5.800   1.537   4.433
13109TIP3    H139270   5.748   1.457   4.440
13109TIP3    H239271   5.818   1.545   4.339
13110TIP3   OH239272   0.635   1.599   1.118
13110TIP3    H139273   0.627   1.606   1.213
13110TIP3    H239274   0.545   1.596   1.085
13111TIP3   OH239275   5.679   6.860   1.873
13111TIP3    H139276   5.689   6.940   1.822
13111TIP3    H239277   5.586   6.857   1.895
13112TIP3   OH239278   0.653   5.148   4.226
13112TIP3    H139279   0.605   5.226   4.201
13112TIP3    H239280   0.622   5.127   4.314
13113TIP3   OH239281   0.624   2.152   0.922
13113TIP3    H139282   0.655   2.085   0.982
13113TIP3    H239283   0.538   2.177   0.956
13114TIP3   OH239284   2.043   3.472   5.204
13114TIP3    H139285   2.113   3.529   5.236
13114TIP3    H239286   2.026   3.502   5.114
13115TIP3   OH239287   3.063   2.412   6.676
13115TIP3    H139288   2.983   2.426   6.727
13115TIP3    H239289   3.066   2.487   6.616
13116TIP3   OH239290   1.125   0.833   3.419
13116TIP3    H139291   1.086   0.833   3.332
13116TIP3    H239292   1.130   0.740   3.443
13117TIP3   OH239293   5.331   1.651   1.146
13117TIP3    H139294   5.312   1.598   1.223
13117TIP3    H239295   5.422   1.678   1.158
13118TIP3   OH239296   4.663   5.134   4.799
13118TIP3    H139297   4.693   5.186   4.725
13118TIP3    H239298   4.738   5.080   4.823
13119TIP3   OH239299   6.880   3.421   5.044
13119TIP3    H139300   6.968   3.447   5.071
13119TIP3    H239301   6.864   3.470   4.963
13120TIP3   OH239302   7.635   2.212   2.502
13120TIP3    H139303   7.670   2.255   2.580
13120TIP3    H239304   7.644   2.277   2.433
13121TIP3   OH239305   4.143   2.235   4.634
13121TIP3    H139306   4.160   2.144   4.658
13121TIP3    H239307   4.075   2.264   4.695
13122TIP3   OH239308   3.562   2.372   1.779
13122TIP3    H139309   3.575   2.293   1.831
13122TIP3    H239310   3.622   2.437   1.816
13123TIP3   OH239311   7.510   4.484   5.862
13123TIP3    H139312   7.586   4.523   5.818
13123TIP3    H239313   7.503   4.532   5.945
13124TIP3   OH239314   3.595   1.589   6.093
13124TIP3    H139315   3.565   1.614   6.180
13124TIP3    H239316   3.605   1.672   6.046
13125TIP3   OH239317   5.973   5.263   4.815
13125TIP3    H139318   6.057   5.268   4.861
13125TIP3    H239319   5.994   5.219   4.733
13126TIP3   OH239320   6.520   2.913   4.669
13126TIP3    H139321   6.439   2.963   4.675
13126TIP3    H239322   6.515   2.851   4.742
13127TIP3   OH239323   1.085   5.493   3.591
13127TIP3    H139324   1.048   5.455   3.511
13127TIP3    H239325   1.172   5.522   3.565
13128TIP3   OH239326   0.539   3.885   5.900
13128TIP3    H139327   0.576   3.942   5.833
13128TIP3    H239328   0.610   3.874   5.964
13129TIP3   OH239329   1.043   5.093   3.579
13129TIP3    H139330   1.064   5.122   3.490
13129TIP3    H239331   1.127   5.095   3.626
13130TIP3   OH239332   8.042   3.175   0.870
13130TIP3    H139333   7.953   3.190   0.838
13130TIP3    H239334   8.050   3.228   0.949
13131TIP3   OH239335   2.039   7.578   3.986
13131TIP3    H139336   2.121   7.599   4.030
13131TIP3    H239337   2.034   7.483   3.989
13132TIP3   OH239338   4.476   3.933   5.295
13132TIP3    H139339   4.425   3.888   5.362
13132TIP3    H239340   4.493   3.867   5.228
13133TIP3   OH239341   2.489   2.545   5.610
13133TIP3    H139342   2.403   2.575   5.639
13133TIP3    H239343   2.549   2.612   5.641
13134TIP3   OH239344   0.034   0.712   2.278
13134TIP3    H139345  -0.010   0.630   2.299
13134TIP3    H239346   0.051   0.706   2.183
13135TIP3   OH239347   7.927   4.892   2.470
13135TIP3    H139348   7.926   4.909   2.565
13135TIP3    H239349   7.997   4.947   2.437
13136TIP3   OH239350   4.306   4.743   5.299
13136TIP3    H139351   4.360   4.821   5.286
13136TIP3    H239352   4.298   4.705   5.211
13137TIP3   OH239353   7.048   5.107   4.150
13137TIP3    H139354   7.056   5.148   4.064
13137TIP3    H239355   6.955   5.084   4.157
13138TIP3   OH239356   3.696   5.445   1.820
13138TIP3    H139357   3.783   5.406   1.836
13138TIP3    H239358   3.635   5.380   1.855
13139TIP3   OH239359   0.653   0.082   4.919
13139TIP3    H139360   0.683   0.000   4.957
13139TIP3    H239361   0.680   0.150   4.982
13140TIP3   OH239362   5.113   5.703   5.025
13140TIP3    H139363   5.169   5.744   4.959
13140TIP3    H239364   5.172   5.683   5.098
13141TIP3   OH239365   1.459   4.935   3.805
13141TIP3    H139366   1.404   4.972   3.735
13141TIP3    H239367   1.417   4.966   3.886
13142TIP3   OH239368   1.148   4.819   0.592
13142TIP3    H139369   1.065   4.791   0.552
13142TIP3    H239370   1.158   4.761   0.668
13143TIP3   OH239371   4.762   4.923   2.385
13143TIP3    H139372   4.709   5.001   2.369
13143TIP3    H239373   4.727   4.886   2.466
13144TIP3   OH239374   8.103   5.637   5.831
13144TIP3    H139375   8.179   5.687   5.803
13144TIP3    H239376   8.139   5.555   5.866
13145TIP3   OH239377   2.162   5.036   4.599
13145TIP3    H139378   2.107   4.994   4.665
13145TIP3    H239379   2.112   5.112   4.572
13146TIP3   OH239380   4.896   0.433   5.811
13146TIP3    H139381   4.911   0.457   5.720
13146TIP3    H239382   4.816   0.478   5.836
13147TIP3   OH239383   7.535   0.072   2.014
13147TIP3    H139384   7.500   0.134   2.077
13147TIP3    H239385   7.619   0.110   1.986
13148TIP3   OH239386   3.583   5.483   1.398
13148TIP3    H139387   3.630   5.537   1.334
13148TIP3    H239388   3.527   5.545   1.445
13149TIP3   OH239389   5.833   0.156   3.801
13149TIP3    H139390   5.892   0.092   3.840
13149TIP3    H239391   5.764   0.104   3.759
13150TIP3   OH239392   1.808   4.713   0.917
13150TIP3    H139393   1.789   4.625   0.885
13150TIP3    H239394   1.872   4.700   0.987
13151TIP3   OH239395   2.750   1.419   4.329
13151TIP3    H139396   2.768   1.396   4.237
13151TIP3    H239397   2.804   1.496   4.345
13152TIP3   OH239398   0.754   5.232   2.770
13152TIP3    H139399   0.817   5.206   2.837
13152TIP3    H239400   0.796   5.306   2.726
13153TIP3   OH239401   3.870   2.912   1.651
13153TIP3    H139402   3.840   2.928   1.562
13153TIP3    H239403   3.930   2.837   1.643
13154TIP3   OH239404   0.562   0.105   3.041
13154TIP3    H139405   0.652   0.117   3.011
13154TIP3    H239406   0.532   0.026   2.996
13155TIP3   OH239407   1.980   0.996   3.391
13155TIP3    H139408   1.944   1.041   3.467
13155TIP3    H239409   2.072   1.020   3.390
13156TIP3   OH239410   7.773   1.280   4.937
13156TIP3    H139411   7.789   1.257   4.845
13156TIP3    H239412   7.824   1.359   4.951
13157TIP3   OH239413   0.843   4.674   0.091
13157TIP3    H139414   0.807   4.622   0.163
13157TIP3    H239415   0.773   4.677   0.026
13158TIP3   OH239416   0.441   4.519   0.124
13158TIP3    H139417   0.457   4.573   0.200
13158TIP3    H239418   0.361   4.471   0.145
13159TIP3   OH239419   3.489   7.232   0.590
13159TIP3    H139420   3.532   7.280   0.661
13159TIP3    H239421   3.538   7.151   0.583
13160TIP3   OH239422   3.947   1.247   1.459
13160TIP3    H139423   3.880   1.185   1.431
13160TIP3    H239424   3.926   1.328   1.411
13161TIP3   OH239425   3.167   5.271   0.306
13161TIP3    H139426   3.224   5.235   0.374
13161TIP3    H239427   3.167   5.365   0.321
13162TIP3   OH239428   2.556   7.114   5.183
13162TIP3    H139429   2.539   7.160   5.266
13162TIP3    H239430   2.502   7.036   5.187
13163TIP3   OH239431   7.276   5.616   1.891
13163TIP3    H139432   7.199   5.673   1.897
13163TIP3    H239433   7.271   5.579   1.802
13164TIP3   OH239434   4.419   4.343   0.184
13164TIP3    H139435   4.490   4.387   0.231
13164TIP3    H239436   4.340   4.368   0.231
13165TIP3   OH239437   5.263   1.570   2.957
13165TIP3    H139438   5.343   1.595   3.003
13165TIP3    H239439   5.213   1.652   2.950
13166TIP3   OH239440   3.094   0.397   6.083
13166TIP3    H139441   3.126   0.453   6.012
13166TIP3    H239442   3.156   0.324   6.085
13167TIP3   OH239443   3.153   1.584   5.667
13167TIP3    H139444   3.201   1.530   5.729
13167TIP3    H239445   3.204   1.665   5.661
13168TIP3   OH239446   3.911   6.275   4.806
13168TIP3    H139447   3.969   6.206   4.835
13168TIP3    H239448   3.867   6.305   4.885
13169TIP3   OH239449   3.505   0.289   6.711
13169TIP3    H139450   3.565   0.248   6.649
13169TIP3    H239451   3.424   0.303   6.662
13170TIP3   OH239452   4.925   5.889   0.636
13170TIP3    H139453   4.968   5.973   0.618
13170TIP3    H239454   4.976   5.825   0.586
13171TIP3   OH239455   0.618   6.029   2.218
13171TIP3    H139456   0.694   6.043   2.274
13171TIP3    H239457   0.551   5.993   2.277
13172TIP3   OH239458   0.594   6.680   4.663
13172TIP3    H139459   0.637   6.705   4.581
13172TIP3    H239460   0.645   6.605   4.695
13173TIP3   OH239461   6.501   5.140   0.617
13173TIP3    H139462   6.497   5.179   0.704
13173TIP3    H239463   6.543   5.056   0.629
13174TIP3   OH239464   5.772   2.676   6.095
13174TIP3    H139465   5.716   2.618   6.146
13174TIP3    H239466   5.855   2.679   6.142
13175TIP3   OH239467   4.138   5.848   3.196
13175TIP3    H139468   4.059   5.876   3.242
13175TIP3    H239469   4.158   5.763   3.233
13176TIP3   OH239470   6.594   7.110   6.069
13176TIP3    H139471   6.649   7.148   6.137
13176TIP3    H239472   6.628   7.146   5.987
13177TIP3   OH239473   6.917   1.971   2.902
13177TIP3    H139474   6.866   1.907   2.852
13177TIP3    H239475   6.862   2.049   2.905
13178TIP3   OH239476   4.393   3.529   1.961
13178TIP3    H139477   4.446   3.455   1.931
13178TIP3    H239478   4.451   3.605   1.952
13179TIP3   OH239479   8.300   6.339   6.306
13179TIP3    H139480   8.234   6.289   6.353
13179TIP3    H239481   8.368   6.276   6.284
13180TIP3   OH239482   5.147   3.991   4.176
13180TIP3    H139483   5.098   4.036   4.107
13180TIP3    H239484   5.159   4.058   4.244
13181TIP3   OH239485   7.507   6.930   5.123
13181TIP3    H139486   7.581   6.929   5.183
13181TIP3    H239487   7.508   7.017   5.084
13182TIP3   OH239488   5.692   6.767   2.465
13182TIP3    H139489   5.627   6.699   2.448
13182TIP3    H239490   5.694   6.774   2.561
13183TIP3   OH239491   4.441   1.258   2.956
13183TIP3    H139492   4.386   1.187   2.990
13183TIP3    H239493   4.397   1.286   2.876
13184TIP3   OH239494   7.041   7.552   0.701
13184TIP3    H139495   7.034   7.464   0.737
13184TIP3    H239496   6.960   7.596   0.727
13185TIP3   OH239497   0.759   0.396   5.396
13185TIP3    H139498   0.838   0.344   5.407
13185TIP3    H239499   0.789   0.486   5.394
13186TIP3   OH239500   7.904   4.630  -0.001
13186TIP3    H139501   7.918   4.565   0.069
13186TIP3    H239502   7.974   4.693   0.011
13187TIP3   OH239503   2.285   1.714   5.362
13187TIP3    H139504   2.286   1.640   5.302
13187TIP3    H239505   2.326   1.682   5.442
13188TIP3   OH239506   2.178   0.647   4.896
13188TIP3    H139507   2.102   0.704   4.908
13188TIP3    H239508   2.227   0.656   4.978
13189TIP3   OH239509   5.341   0.476   2.976
13189TIP3    H139510   5.291   0.556   2.986
13189TIP3    H239511   5.385   0.485   2.891
13190TIP3   OH239512   2.259   4.948   2.924
13190TIP3    H139513   2.222   5.015   2.866
13190TIP3    H239514   2.188   4.927   2.984
13191TIP3   OH239515   7.057   5.819   1.948
13191TIP3    H139516   7.125   5.875   1.910
13191TIP3    H239517   6.985   5.821   1.885
13192TIP3   OH239518   1.407   5.772   3.716
13192TIP3    H139519   1.391   5.756   3.809
13192TIP3    H239520   1.394   5.867   3.706
13193TIP3   OH239521   3.826   2.392   3.691
13193TIP3    H139522   3.784   2.430   3.614
13193TIP3    H239523   3.754   2.354   3.742
13194TIP3   OH239524   6.955   5.873   2.967
13194TIP3    H139525   6.908   5.789   2.970
13194TIP3    H239526   6.929   5.911   2.883
13195TIP3   OH239527   0.179   1.720   1.053
13195TIP3    H139528   0.244   1.654   1.076
13195TIP3    H239529   0.118   1.674   0.995
13196TIP3   OH239530   6.433   5.099   3.084
13196TIP3    H139531   6.375   5.167   3.118
13196TIP3    H239532   6.407   5.089   2.993
13197TIP3   OH239533   1.929   7.585   3.316
13197TIP3    H139534   1.956   7.668   3.355
13197TIP3    H239535   1.978   7.581   3.234
13198TIP3   OH239536   6.692   7.343   4.946
13198TIP3    H139537   6.642   7.267   4.915
13198TIP3    H239538   6.626   7.413   4.951
13199TIP3   OH239539   1.134   3.309   2.088
13199TIP3    H139540   1.052   3.357   2.101
13199TIP3    H239541   1.192   3.370   2.043
13200TIP3   OH239542   5.940   4.206   1.088
13200TIP3    H139543   5.934   4.301   1.078
13200TIP3    H239544   5.919   4.172   1.001
13201TIP3   OH239545   1.969   6.814   6.350
13201TIP3    H139546   2.006   6.730   6.376
13201TIP3    H239547   1.878   6.795   6.331
13202TIP3   OH239548   4.061   1.917   6.317
13202TIP3    H139549   4.124   1.982   6.347
13202TIP3    H239550   3.986   1.969   6.287
13203TIP3   OH239551   6.529   3.633   5.412
13203TIP3    H139552   6.588   3.701   5.445
13203TIP3    H239553   6.571   3.601   5.332
13204TIP3   OH239554   2.022   4.539   4.807
13204TIP3    H139555   2.046   4.548   4.899
13204TIP3    H239556   1.933   4.503   4.808
13205TIP3   OH239557   2.144   4.624   2.928
13205TIP3    H139558   2.061   4.656   2.963
13205TIP3    H239559   2.143   4.650   2.836
13206TIP3   OH239560   2.632   4.982   2.683
13206TIP3    H139561   2.583   4.900   2.689
13206TIP3    H239562   2.570   5.045   2.647
13207TIP3   OH239563   4.992   2.535   3.334
13207TIP3    H139564   4.954   2.452   3.362
13207TIP3    H239565   5.017   2.579   3.416
13208TIP3   OH239566   3.053   2.528   3.529
13208TIP3    H139567   3.060   2.438   3.499
13208TIP3    H239568   2.959   2.546   3.529
13209TIP3   OH239569   5.370   2.232   0.172
13209TIP3    H139570   5.284   2.248   0.211
13209TIP3    H239571   5.432   2.244   0.244
13210TIP3   OH239572   1.750   3.751   5.540
13210TIP3    H139573   1.707   3.724   5.621
13210TIP3    H239574   1.769   3.669   5.495
13211TIP3   OH239575   0.178   6.084   1.100
13211TIP3    H139576   0.267   6.117   1.092
13211TIP3    H239577   0.143   6.125   1.180
13212TIP3   OH239578   7.147   6.547   2.287
13212TIP3    H139579   7.223   6.569   2.342
13212TIP3    H239580   7.113   6.631   2.258
13213TIP3   OH239581   3.458   0.499   2.798
13213TIP3    H139582   3.453   0.589   2.832
13213TIP3    H239583   3.410   0.447   2.863
13214TIP3   OH239584   4.224   5.920   1.388
13214TIP3    H139585   4.309   5.951   1.357
13214TIP3    H239586   4.207   5.841   1.338
13215TIP3   OH239587   7.441   6.714   6.455
13215TIP3    H139588   7.392   6.729   6.536
13215TIP3    H239589   7.530   6.692   6.485
13216TIP3   OH239590   3.625   3.737   5.798
13216TIP3    H139591   3.593   3.765   5.712
13216TIP3    H239592   3.670   3.813   5.834
13217TIP3   OH239593   1.070   6.623   2.477
13217TIP3    H139594   1.142   6.560   2.484
13217TIP3    H239595   1.051   6.649   2.567
13218TIP3   OH239596   6.593   3.346   4.565
13218TIP3    H139597   6.652   3.378   4.497
13218TIP3    H239598   6.650   3.299   4.626
13219TIP3   OH239599   5.929   3.431   0.948
13219TIP3    H139600   5.967   3.427   0.861
13219TIP3    H239601   5.925   3.525   0.968
13220TIP3   OH239602   6.964   4.220   6.636
13220TIP3    H139603   6.977   4.216   6.542
13220TIP3    H239604   7.032   4.279   6.667
13221TIP3   OH239605   1.675   3.052   1.065
13221TIP3    H139606   1.583   3.028   1.063
13221TIP3    H239607   1.683   3.123   1.000
13222TIP3   OH239608   4.181   5.889   2.560
13222TIP3    H139609   4.254   5.888   2.621
13222TIP3    H239610   4.221   5.907   2.475
13223TIP3   OH239611   0.726   0.736   3.988
13223TIP3    H139612   0.769   0.821   3.973
13223TIP3    H239613   0.685   0.716   3.904
13224TIP3   OH239614   1.116   7.102   6.269
13224TIP3    H139615   1.041   7.044   6.255
13224TIP3    H239616   1.183   7.070   6.209
13225TIP3   OH239617   3.817   2.419   0.841
13225TIP3    H139618   3.797   2.504   0.881
13225TIP3    H239619   3.841   2.439   0.751
13226TIP3   OH239620   5.008   6.583   4.820
13226TIP3    H139621   5.092   6.624   4.801
13226TIP3    H239622   4.997   6.517   4.752
13227TIP3   OH239623   1.358   6.571   1.175
13227TIP3    H139624   1.289   6.552   1.111
13227TIP3    H239625   1.336   6.518   1.251
13228TIP3   OH239626   1.298   7.428   0.775
13228TIP3    H139627   1.267   7.397   0.860
13228TIP3    H239628   1.250   7.375   0.711
13229TIP3   OH239629   5.212   0.489   0.486
13229TIP3    H139630   5.167   0.573   0.493
13229TIP3    H239631   5.300   0.506   0.521
13230TIP3   OH239632   4.494   5.952   3.361
13230TIP3    H139633   4.525   5.884   3.301
13230TIP3    H239634   4.498   5.912   3.447
13231TIP3   OH239635   1.859   1.281   4.307
13231TIP3    H139636   1.859   1.204   4.249
13231TIP3    H239637   1.911   1.346   4.260
13232TIP3   OH239638   1.608   0.057   6.667
13232TIP3    H139639   1.547   0.121   6.632
13232TIP3    H239640   1.674   0.109   6.714
13233TIP3   OH239641   7.165   7.183   0.512
13233TIP3    H139642   7.210   7.149   0.435
13233TIP3    H239643   7.148   7.106   0.566
13234TIP3   OH239644   1.654   6.504   6.356
13234TIP3    H139645   1.618   6.419   6.332
13234TIP3    H239646   1.594   6.536   6.424
13235TIP3   OH239647   5.768   0.094   6.167
13235TIP3    H139648   5.692   0.101   6.225
13235TIP3    H239649   5.738   0.127   6.082
13236TIP3   OH239650   4.193   7.770   1.669
13236TIP3    H139651   4.247   7.719   1.609
13236TIP3    H239652   4.120   7.801   1.615
13237TIP3   OH239653   2.960   4.725   5.994
13237TIP3    H139654   2.890   4.661   6.008
13237TIP3    H239655   3.041   4.674   6.003
13238TIP3   OH239656   5.802   6.321   3.944
13238TIP3    H139657   5.757   6.309   3.861
13238TIP3    H239658   5.889   6.284   3.930
13239TIP3   OH239659   5.667   1.315   4.331
13239TIP3    H139660   5.587   1.315   4.278
13239TIP3    H239661   5.720   1.245   4.294
13240TIP3   OH239662   1.213   5.134   3.338
13240TIP3    H139663   1.239   5.227   3.344
13240TIP3    H239664   1.294   5.089   3.314
13241TIP3   OH239665   1.354   7.827   1.743
13241TIP3    H139666   1.341   7.877   1.824
13241TIP3    H239667   1.445   7.844   1.719
13242TIP3   OH239668   1.542   6.591   6.592
13242TIP3    H139669   1.499   6.676   6.581
13242TIP3    H239670   1.627   6.613   6.631
13243TIP3   OH239671   1.601   0.435   2.803
13243TIP3    H139672   1.637   0.347   2.809
13243TIP3    H239673   1.675   0.491   2.780
13244TIP3   OH239674   4.587   0.415   1.555
13244TIP3    H139675   4.597   0.328   1.595
13244TIP3    H239676   4.513   0.406   1.496
13245TIP3   OH239677   1.628   5.717   3.563
13245TIP3    H139678   1.611   5.645   3.503
13245TIP3    H239679   1.544   5.760   3.574
13246TIP3   OH239680   7.658   7.779   2.844
13246TIP3    H139681   7.632   7.730   2.766
13246TIP3    H239682   7.719   7.845   2.812
13247TIP3   OH239683   3.070   5.641   0.179
13247TIP3    H139684   3.024   5.725   0.176
13247TIP3    H239685   3.002   5.578   0.201
13248TIP3   OH239686   0.804   4.146   0.736
13248TIP3    H139687   0.855   4.139   0.655
13248TIP3    H239688   0.854   4.095   0.799
13249TIP3   OH239689   3.175   1.602   0.243
13249TIP3    H139690   3.142   1.513   0.229
13249TIP3    H239691   3.266   1.590   0.269
13250TIP3   OH239692   1.329   7.438   6.348
13250TIP3    H139693   1.249   7.469   6.390
13250TIP3    H239694   1.323   7.469   6.257
13251TIP3   OH239695   6.267   6.586   1.414
13251TIP3    H139696   6.332   6.656   1.424
13251TIP3    H239697   6.184   6.633   1.398
13252TIP3   OH239698   7.627   0.307   5.862
13252TIP3    H139699   7.635   0.384   5.806
13252TIP3    H239700   7.536   0.280   5.852
13253TIP3   OH239701   3.782   5.274   3.813
13253TIP3    H139702   3.872   5.265   3.780
13253TIP3    H239703   3.744   5.343   3.759
13254TIP3   OH239704   5.867   5.687   5.110
13254TIP3    H139705   5.939   5.725   5.161
13254TIP3    H239706   5.900   5.601   5.084
13255TIP3   OH239707   5.780   5.955   5.114
13255TIP3    H139708   5.812   5.876   5.070
13255TIP3    H239709   5.752   5.924   5.200
13256TIP3   OH239710   0.255   2.114   1.856
13256TIP3    H139711   0.257   2.118   1.952
13256TIP3    H239712   0.287   2.200   1.828
13257TIP3   OH239713   4.548   3.400   1.358
13257TIP3    H139714   4.496   3.356   1.425
13257TIP3    H239715   4.562   3.488   1.392
13258TIP3   OH239716   2.129   0.097   4.548
13258TIP3    H139717   2.063   0.088   4.479
13258TIP3    H239718   2.107   0.179   4.592
13259TIP3   OH239719   1.782   5.199   6.501
13259TIP3    H139720   1.869   5.177   6.468
13259TIP3    H239721   1.744   5.115   6.526
13260TIP3   OH239722   3.188   1.918   4.543
13260TIP3    H139723   3.252   1.888   4.479
13260TIP3    H239724   3.192   1.852   4.613
13261TIP3   OH239725   1.043   2.242   1.017
13261TIP3    H139726   1.124   2.288   1.039
13261TIP3    H239727   1.028   2.183   1.091
13262TIP3   OH239728   0.786   6.196   5.312
13262TIP3    H139729   0.866   6.245   5.293
13262TIP3    H239730   0.728   6.259   5.353
13263TIP3   OH239731   5.529   4.785   4.937
13263TIP3    H139732   5.529   4.828   4.852
13263TIP3    H239733   5.516   4.692   4.917
13264TIP3   OH239734   5.908   1.656   0.671
13264TIP3    H139735   5.823   1.677   0.631
13264TIP3    H239736   5.960   1.736   0.661
13265TIP3   OH239737   5.898   2.174   5.380
13265TIP3    H139738   5.909   2.082   5.360
13265TIP3    H239739   5.830   2.204   5.320
13266TIP3   OH239740   1.943   6.347   1.515
13266TIP3    H139741   1.907   6.341   1.427
13266TIP3    H239742   1.876   6.393   1.566
13267TIP3   OH239743   7.115   3.417   6.140
13267TIP3    H139744   7.070   3.401   6.056
13267TIP3    H239745   7.183   3.350   6.143
13268TIP3   OH239746   4.369   3.509   2.957
13268TIP3    H139747   4.419   3.589   2.939
13268TIP3    H239748   4.403   3.445   2.894
13269TIP3   OH239749   3.080   6.698   4.739
13269TIP3    H139750   3.034   6.623   4.702
13269TIP3    H239751   3.152   6.714   4.679
13270TIP3   OH239752   6.047   2.152   3.254
13270TIP3    H139753   6.119   2.164   3.315
13270TIP3    H239754   6.021   2.060   3.265
13271TIP3   OH239755   1.248   1.082   6.029
13271TIP3    H139756   1.211   1.067   6.116
13271TIP3    H239757   1.172   1.082   5.970
13272TIP3   OH239758   1.863   5.707   2.621
13272TIP3    H139759   1.870   5.613   2.635
13272TIP3    H239760   1.825   5.741   2.701
13273TIP3   OH239761   8.081   5.428   5.566
13273TIP3    H139762   7.995   5.406   5.531
13273TIP3    H239763   8.126   5.344   5.574
13274TIP3   OH239764   2.023   7.298   0.345
13274TIP3    H139765   1.953   7.308   0.280
13274TIP3    H239766   2.050   7.207   0.338
13275TIP3   OH239767   2.649   6.071   0.396
13275TIP3    H139768   2.644   5.989   0.346
13275TIP3    H239769   2.739   6.102   0.383
13276TIP3   OH239770   0.740   2.625   4.910
13276TIP3    H139771   0.645   2.617   4.898
13276TIP3    H239772   0.777   2.598   4.826
13277TIP3   OH239773   3.372   1.257   5.219
13277TIP3    H139774   3.364   1.310   5.298
13277TIP3    H239775   3.291   1.275   5.171
13278TIP3   OH239776   0.319   4.181   1.842
13278TIP3    H139777   0.373   4.259   1.832
13278TIP3    H239778   0.295   4.180   1.935
13279TIP3   OH239779   0.517   0.051   1.821
13279TIP3    H139780   0.598   0.075   1.778
13279TIP3    H239781   0.451   0.052   1.752
13280TIP3   OH239782   4.833   7.472   3.682
13280TIP3    H139783   4.745   7.458   3.715
13280TIP3    H239784   4.823   7.477   3.587
13281TIP3   OH239785   3.799   2.271   2.100
13281TIP3    H139786   3.788   2.363   2.124
13281TIP3    H239787   3.862   2.236   2.163
13282TIP3   OH239788   6.670   3.676   2.932
13282TIP3    H139789   6.609   3.747   2.951
13282TIP3    H239790   6.733   3.714   2.870
13283TIP3   OH239791   0.744   5.478   1.984
13283TIP3    H139792   0.654   5.475   2.014
13283TIP3    H239793   0.751   5.407   1.920
13284TIP3   OH239794   0.121   5.797   4.478
13284TIP3    H139795   0.149   5.713   4.442
13284TIP3    H239796   0.056   5.829   4.416
13285TIP3   OH239797   6.375   4.652   1.217
13285TIP3    H139798   6.407   4.606   1.295
13285TIP3    H239799   6.400   4.596   1.144
13286TIP3   OH239800   6.715   1.023   4.792
13286TIP3    H139801   6.729   1.059   4.880
13286TIP3    H239802   6.651   1.082   4.752
13287TIP3   OH239803   0.727   3.574   0.360
13287TIP3    H139804   0.766   3.567   0.272
13287TIP3    H239805   0.780   3.639   0.404
13288TIP3   OH239806   6.062   1.873   3.279
13288TIP3    H139807   6.130   1.827   3.328
13288TIP3    H239808   6.060   1.829   3.194
13289TIP3   OH239809   8.190   7.070   3.001
13289TIP3    H139810   8.143   7.069   2.918
13289TIP3    H239811   8.154   7.144   3.049
13290TIP3   OH239812   7.962   6.712   3.150
13290TIP3    H139813   8.023   6.767   3.200
13290TIP3    H239814   7.999   6.708   3.063
13291TIP3   OH239815   5.322   6.363   6.499
13291TIP3    H139816   5.396   6.390   6.553
13291TIP3    H239817   5.362   6.318   6.424
13292TIP3   OH239818   0.241   4.146   2.714
13292TIP3    H139819   0.242   4.235   2.748
13292TIP3    H239820   0.167   4.144   2.654
13293TIP3   OH239821   7.444   3.222   0.773
13293TIP3    H139822   7.481   3.203   0.687
13293TIP3    H239823   7.478   3.153   0.830
13294TIP3   OH239824   8.230   6.952   4.445
13294TIP3    H139825   8.278   7.035   4.442
13294TIP3    H239826   8.214   6.930   4.353
13295TIP3   OH239827   4.674   7.652   1.811
13295TIP3    H139828   4.722   7.613   1.884
13295TIP3    H239829   4.739   7.666   1.743
13296TIP3   OH239830   2.454   7.046   1.612
13296TIP3    H139831   2.449   7.033   1.517
13296TIP3    H239832   2.451   7.140   1.624
13297TIP3   OH239833   4.978   6.955   5.674
13297TIP3    H139834   4.993   6.873   5.722
13297TIP3    H239835   4.924   7.007   5.734
13298TIP3   OH239836   3.251   6.993   4.170
13298TIP3    H139837   3.288   7.073   4.132
13298TIP3    H239838   3.316   6.966   4.236
13299TIP3   OH239839   2.167   0.684   4.222
13299TIP3    H139840   2.115   0.611   4.255
13299TIP3    H239841   2.253   0.673   4.263
13300TIP3   OH239842   4.017   4.995   5.457
13300TIP3    H139843   3.926   4.988   5.429
13300TIP3    H239844   4.052   4.907   5.447
13301TIP3   OH239845   7.445   7.161   4.991
13301TIP3    H139846   7.483   7.203   4.914
13301TIP3    H239847   7.392   7.229   5.032
13302TIP3   OH239848   0.321   4.823   6.360
13302TIP3    H139849   0.299   4.742   6.407
13302TIP3    H239850   0.294   4.806   6.270
13303TIP3   OH239851   7.089   2.877   4.299
13303TIP3    H139852   7.033   2.904   4.372
13303TIP3    H239853   7.046   2.913   4.221
13304TIP3   OH239854   6.801   5.193   2.889
13304TIP3    H139855   6.895   5.201   2.870
13304TIP3    H239856   6.762   5.164   2.807
13305TIP3   OH239857   4.123   1.758   2.496
13305TIP3    H139858   4.148   1.815   2.569
13305TIP3    H239859   4.184   1.782   2.426
13306TIP3   OH239860   2.473   3.759   2.373
13306TIP3    H139861   2.460   3.800   2.458
13306TIP3    H239862   2.384   3.736   2.344
13307TIP3   OH239863   0.425   2.646   2.305
13307TIP3    H139864   0.346   2.697   2.318
13307TIP3    H239865   0.418   2.612   2.216
13308TIP3   OH239866   4.047   2.050   0.374
13308TIP3    H139867   3.980   2.112   0.344
13308TIP3    H239868   4.066   2.077   0.464
13309TIP3   OH239869   6.657   0.155   3.859
13309TIP3    H139870   6.709   0.164   3.938
13309TIP3    H239871   6.607   0.074   3.872
13310TIP3   OH239872   3.131   3.558   1.750
13310TIP3    H139873   3.210   3.546   1.697
13310TIP3    H239874   3.155   3.627   1.812
13311TIP3   OH239875   7.193   6.663   5.809
13311TIP3    H139876   7.207   6.714   5.730
13311TIP3    H239877   7.208   6.724   5.881
13312TIP3   OH239878   7.581   2.545   4.614
13312TIP3    H139879   7.492   2.568   4.642
13312TIP3    H239880   7.631   2.625   4.626
13313TIP3   OH239881   7.374   5.359   3.982
13313TIP3    H139882   7.425   5.354   3.902
13313TIP3    H239883   7.416   5.296   4.041
13314TIP3   OH239884   2.101   7.230   0.896
13314TIP3    H139885   2.178   7.285   0.908
13314TIP3    H239886   2.093   7.220   0.801
13315TIP3   OH239887   5.887   7.664   5.603
13315TIP3    H139888   5.803   7.636   5.568
13315TIP3    H239889   5.881   7.760   5.606
13316TIP3   OH239890   5.671   6.963   0.868
13316TIP3    H139891   5.692   7.032   0.932
13316TIP3    H239892   5.630   7.010   0.796
13317TIP3   OH239893   5.451   4.499   2.532
13317TIP3    H139894   5.466   4.486   2.439
13317TIP3    H239895   5.363   4.535   2.537
13318TIP3   OH239896   8.089   3.063   3.732
13318TIP3    H139897   8.007   3.032   3.772
13318TIP3    H239898   8.069   3.152   3.703
13319TIP3   OH239899   5.786   5.428   0.339
13319TIP3    H139900   5.806   5.515   0.373
13319TIP3    H239901   5.858   5.373   0.371
13320TIP3   OH239902   5.820   5.633   3.135
13320TIP3    H139903   5.847   5.548   3.170
13320TIP3    H239904   5.744   5.613   3.081
13321TIP3   OH239905   5.213   6.054   1.611
13321TIP3    H139906   5.185   5.992   1.678
13321TIP3    H239907   5.132   6.095   1.581
13322TIP3   OH239908   3.749   5.717   2.726
13322TIP3    H139909   3.664   5.719   2.682
13322TIP3    H239910   3.806   5.771   2.670
13323TIP3   OH239911   6.349   0.341   2.488
13323TIP3    H139912   6.278   0.335   2.424
13323TIP3    H239913   6.396   0.421   2.464
13324TIP3   OH239914   3.063   6.994   4.897
13324TIP3    H139915   3.063   6.988   4.992
13324TIP3    H239916   2.999   7.063   4.878
13325TIP3   OH239917   2.992   6.493   5.799
13325TIP3    H139918   2.924   6.430   5.821
13325TIP3    H239919   2.969   6.571   5.850
13326TIP3   OH239920   3.009   0.945   2.387
13326TIP3    H139921   2.917   0.925   2.369
13326TIP3    H239922   3.053   0.934   2.303
13327TIP3   OH239923   2.700   4.887   6.594
13327TIP3    H139924   2.626   4.947   6.582
13327TIP3    H239925   2.763   4.938   6.645
13328TIP3   OH239926   7.570   0.410   0.752
13328TIP3    H139927   7.570   0.493   0.799
13328TIP3    H239928   7.477   0.388   0.743
13329TIP3   OH239929   1.238   5.880   6.245
13329TIP3    H139930   1.216   5.859   6.336
13329TIP3    H239931   1.332   5.864   6.238
13330TIP3   OH239932   7.983   7.419   4.876
13330TIP3    H139933   7.893   7.429   4.845
13330TIP3    H239934   7.989   7.328   4.903
13331TIP3   OH239935   2.020   4.248   3.000
13331TIP3    H139936   2.084   4.219   2.934
13331TIP3    H239937   1.935   4.232   2.960
13332TIP3   OH239938   6.397   6.958   5.107
13332TIP3    H139939   6.304   6.940   5.112
13332TIP3    H239940   6.439   6.872   5.118
13333TIP3   OH239941   4.125   6.685   4.436
13333TIP3    H139942   4.072   6.701   4.358
13333TIP3    H239943   4.070   6.714   4.508
13334TIP3   OH239944   2.803   4.298   3.326
13334TIP3    H139945   2.768   4.338   3.406
13334TIP3    H239946   2.819   4.371   3.267
13335TIP3   OH239947   2.112   3.243   0.238
13335TIP3    H139948   2.190   3.258   0.290
13335TIP3    H239949   2.143   3.239   0.147
13336TIP3   OH239950   3.021   3.900   0.004
13336TIP3    H139951   2.953   3.952   0.046
13336TIP3    H239952   3.071   3.862   0.077
13337TIP3   OH239953   7.008   4.730   3.827
13337TIP3    H139954   6.974   4.693   3.746
13337TIP3    H239955   7.098   4.757   3.805
13338TIP3   OH239956   5.226   3.426   1.210
13338TIP3    H139957   5.247   3.454   1.299
13338TIP3    H239958   5.309   3.436   1.162
13339TIP3   OH239959   4.847   4.751   5.603
13339TIP3    H139960   4.922   4.784   5.553
13339TIP3    H239961   4.869   4.770   5.694
13340TIP3   OH239962   3.724   6.678   1.101
13340TIP3    H139963   3.781   6.618   1.149
13340TIP3    H239964   3.765   6.688   1.015
13341TIP3   OH239965   1.092   0.524   1.441
13341TIP3    H139966   1.139   0.512   1.359
13341TIP3    H239967   1.027   0.453   1.442
13342TIP3   OH239968   5.249   5.678   3.803
13342TIP3    H139969   5.200   5.757   3.778
13342TIP3    H239970   5.204   5.607   3.758
13343TIP3   OH239971   7.805   0.349   0.648
13343TIP3    H139972   7.728   0.386   0.692
13343TIP3    H239973   7.776   0.334   0.558
13344TIP3   OH239974   4.944   0.034   1.857
13344TIP3    H139975   4.950   0.074   1.944
13344TIP3    H239976   4.986  -0.051   1.867
13345TIP3   OH239977   0.530   0.388   2.630
13345TIP3    H139978   0.569   0.460   2.680
13345TIP3    H239979   0.598   0.321   2.630
13346TIP3   OH239980   2.852   5.313   1.477
13346TIP3    H139981   2.887   5.224   1.467
13346TIP3    H239982   2.853   5.328   1.572
13347TIP3   OH239983   7.704   3.000   2.258
13347TIP3    H139984   7.735   3.069   2.199
13347TIP3    H239985   7.668   2.933   2.200
13348TIP3   OH239986   8.072   1.461   1.556
13348TIP3    H139987   8.155   1.505   1.537
13348TIP3    H239988   8.015   1.530   1.588
13349TIP3   OH239989   4.585   1.493   0.875
13349TIP3    H139990   4.541   1.412   0.852
13349TIP3    H239991   4.564   1.554   0.804
13350TIP3   OH239992   3.278   5.723   6.133
13350TIP3    H139993   3.317   5.664   6.198
13350TIP3    H239994   3.261   5.804   6.181
13351TIP3   OH239995   2.572   4.767   0.632
13351TIP3    H139996   2.535   4.702   0.573
13351TIP3    H239997   2.498   4.795   0.687
13352TIP3   OH239998   0.953   6.482   2.193
13352TIP3    H139999   0.992   6.467   2.107
13352TIP3    H240000   0.943   6.394   2.230
13353TIP3   OH240001   7.515   0.152   0.492
13353TIP3    H140002   7.550   0.063   0.500
13353TIP3    H240003   7.556   0.186   0.412
13354TIP3   OH240004   4.765   4.717   6.609
13354TIP3    H140005   4.754   4.810   6.626
13354TIP3    H240006   4.677   4.684   6.592
13355TIP3   OH240007   7.641   2.602   4.931
13355TIP3    H140008   7.578   2.645   4.874
13355TIP3    H240009   7.621   2.636   5.018
13356TIP3   OH240010   2.793   6.732   0.448
13356TIP3    H140011   2.752   6.649   0.425
13356TIP3    H240012   2.832   6.764   0.366
13357TIP3   OH240013   4.472   7.347   4.827
13357TIP3    H140014   4.551   7.400   4.835
13357TIP3    H240015   4.501   7.257   4.847
13358TIP3   OH240016   3.707   6.876   0.058
13358TIP3    H140017   3.648   6.865  -0.017
13358TIP3    H240018   3.656   6.846   0.133
13359TIP3   OH240019   3.405   6.191   4.519
13359TIP3    H140020   3.454   6.118   4.482
13359TIP3    H240021   3.469   6.262   4.526
13360TIP3   OH240022   2.865   6.675   0.863
13360TIP3    H140023   2.786   6.645   0.819
13360TIP3    H240024   2.855   6.644   0.953
13361TIP3   OH240025   0.690   7.188   1.630
13361TIP3    H140026   0.660   7.267   1.676
13361TIP3    H240027   0.672   7.116   1.690
13362TIP3   OH240028   1.766   6.086   2.368
13362TIP3    H140029   1.721   6.155   2.417
13362TIP3    H240030   1.854   6.082   2.406
13363TIP3   OH240031   0.332   1.079   4.093
13363TIP3    H140032   0.418   1.118   4.078
13363TIP3    H240033   0.329   1.002   4.037
13364TIP3   OH240034   5.875   4.504   2.371
13364TIP3    H140035   5.908   4.477   2.457
13364TIP3    H240036   5.926   4.582   2.349
13365TIP3   OH240037   5.277   1.103   3.236
13365TIP3    H140038   5.254   1.011   3.250
13365TIP3    H240039   5.193   1.148   3.229
13366TIP3   OH240040   7.083   7.403   5.055
13366TIP3    H140041   7.143   7.351   5.002
13366TIP3    H240042   7.108   7.494   5.037
13367TIP3   OH240043   1.256   4.593   2.341
13367TIP3    H140044   1.336   4.626   2.300
13367TIP3    H240045   1.283   4.513   2.387
13368TIP3   OH240046   2.975   5.920   2.063
13368TIP3    H140047   2.929   6.000   2.087
13368TIP3    H240048   3.007   5.937   1.975
13369TIP3   OH240049   4.603   1.935   6.713
13369TIP3    H140050   4.513   1.942   6.681
13369TIP3    H240051   4.655   1.921   6.634
13370TIP3   OH240052   5.316   6.377   3.559
13370TIP3    H140053   5.324   6.391   3.654
13370TIP3    H240054   5.349   6.457   3.520
13371TIP3   OH240055   4.705   3.576   6.698
13371TIP3    H140056   4.655   3.532   6.630
13371TIP3    H240057   4.685   3.669   6.687
13372TIP3   OH240058   2.548   3.788   3.784
13372TIP3    H140059   2.540   3.787   3.879
13372TIP3    H240060   2.595   3.708   3.763
13373TIP3   OH240061   2.701   7.200   6.584
13373TIP3    H140062   2.655   7.200   6.669
13373TIP3    H240063   2.654   7.135   6.532
13374TIP3   OH240064   4.703   0.333   6.100
13374TIP3    H140065   4.698   0.281   6.019
13374TIP3    H240066   4.716   0.423   6.070
13375TIP3   OH240067   4.679   5.745   0.218
13375TIP3    H140068   4.715   5.833   0.224
13375TIP3    H240069   4.731   5.702   0.149
13376TIP3   OH240070   0.389   3.847   1.195
13376TIP3    H140071   0.480   3.852   1.224
13376TIP3    H240072   0.368   3.936   1.168
13377TIP3   OH240073   6.270   5.034   2.216
13377TIP3    H140074   6.365   5.041   2.203
13377TIP3    H240075   6.232   5.075   2.139
13378TIP3   OH240076   7.053   3.921   1.292
13378TIP3    H140077   7.139   3.906   1.333
13378TIP3    H240078   6.997   3.949   1.365
13379TIP3   OH240079   7.355   0.492   2.084
13379TIP3    H140080   7.330   0.482   1.992
13379TIP3    H240081   7.406   0.573   2.087
13380TIP3   OH240082   0.818   6.613   4.886
13380TIP3    H140083   0.753   6.545   4.866
13380TIP3    H240084   0.895   6.564   4.916
13381TIP3   OH240085   1.986   1.852   5.905
13381TIP3    H140086   1.917   1.855   5.972
13381TIP3    H240087   1.975   1.933   5.856
13382TIP3   OH240088   6.513   6.734   2.139
13382TIP3    H140089   6.438   6.766   2.088
13382TIP3    H240090   6.498   6.639   2.147
13383TIP3   OH240091   6.335   2.832   2.115
13383TIP3    H140092   6.343   2.917   2.158
13383TIP3    H240093   6.253   2.796   2.149
13384TIP3   OH240094   3.357   5.883   5.147
13384TIP3    H140095   3.439   5.859   5.188
13384TIP3    H240096   3.290   5.840   5.200
13385TIP3   OH240097   7.727   2.621   5.625
13385TIP3    H140098   7.801   2.570   5.659
13385TIP3    H240099   7.757   2.651   5.539
13386TIP3   OH240100   2.947   0.452   0.093
13386TIP3    H140101   3.042   0.464   0.103
13386TIP3    H240102   2.917   0.423   0.179
13387TIP3   OH240103   5.528   3.138   5.870
13387TIP3    H140104   5.493   3.225   5.848
13387TIP3    H240105   5.589   3.118   5.799
13388TIP3   OH240106   3.984   3.089   4.536
13388TIP3    H140107   3.957   3.167   4.487
13388TIP3    H240108   3.964   3.016   4.478
13389TIP3   OH240109   5.236   0.329   0.238
13389TIP3    H140110   5.326   0.327   0.208
13389TIP3    H240111   5.234   0.396   0.306
13390TIP3   OH240112   6.083   4.194   6.257
13390TIP3    H140113   6.050   4.283   6.242
13390TIP3    H240114   6.168   4.192   6.213
13391TIP3   OH240115   4.502   7.241   4.529
13391TIP3    H140116   4.421   7.292   4.533
13391TIP3    H240117   4.571   7.306   4.519
13392TIP3   OH240118   1.872   3.723   5.041
13392TIP3    H140119   1.848   3.792   5.103
13392TIP3    H240120   1.789   3.682   5.018
13393TIP3   OH240121   0.500   1.035   5.062
13393TIP3    H140122   0.530   0.958   5.111
13393TIP3    H240123   0.428   1.002   5.008
13394TIP3   OH240124   7.189   5.382   4.848
13394TIP3    H140125   7.093   5.388   4.839
13394TIP3    H240126   7.205   5.294   4.881
13395TIP3   OH240127   1.899   4.447   1.145
13395TIP3    H140128   1.963   4.402   1.200
13395TIP3    H240129   1.938   4.533   1.128
13396TIP3   OH240130   2.656   7.548   6.586
13396TIP3    H140131   2.562   7.533   6.585
13396TIP3    H240132   2.680   7.556   6.493
13397TIP3   OH240133   7.385   6.039   0.123
13397TIP3    H140134   7.481   6.041   0.129
13397TIP3    H240135   7.367   5.982   0.048
13398TIP3   OH240136   8.306   0.268   0.575
13398TIP3    H140137   8.298   0.363   0.583
13398TIP3    H240138   8.216   0.237   0.566
13399TIP3   OH240139   0.056   2.478   0.951
13399TIP3    H140140   0.063   2.382   0.948
13399TIP3    H240141   0.065   2.505   0.860
13400TIP3   OH240142   0.798   3.982   5.272
13400TIP3    H140143   0.790   3.988   5.177
13400TIP3    H240144   0.709   3.997   5.305
13401TIP3   OH240145   0.755   2.891   1.120
13401TIP3    H140146   0.798   2.835   1.056
13401TIP3    H240147   0.680   2.841   1.150
13402TIP3   OH240148   4.263   4.479   2.608
13402TIP3    H140149   4.279   4.422   2.683
13402TIP3    H240150   4.167   4.488   2.605
13403TIP3   OH240151   1.814   5.027   1.773
13403TIP3    H140152   1.786   5.113   1.743
13403TIP3    H240153   1.760   5.010   1.850
13404TIP3   OH240154   1.326   0.470   2.824
13404TIP3    H140155   1.278   0.413   2.884
13404TIP3    H240156   1.418   0.450   2.840
13405TIP3   OH240157   7.706   7.483   1.627
13405TIP3    H140158   7.736   7.479   1.718
13405TIP3    H240159   7.766   7.544   1.585
13406TIP3   OH240160   0.604   4.607   0.650
13406TIP3    H140161   0.611   4.700   0.669
13406TIP3    H240162   0.646   4.564   0.725
13407TIP3   OH240163   2.561   7.430   0.123
13407TIP3    H140164   2.561   7.470   0.036
13407TIP3    H240165   2.490   7.365   0.119
13408TIP3   OH240166   3.423   7.314   3.091
13408TIP3    H140167   3.439   7.303   3.185
13408TIP3    H240168   3.493   7.264   3.049
13409TIP3   OH240169   6.646   4.886   1.763
13409TIP3    H140170   6.688   4.805   1.792
13409TIP3    H240171   6.575   4.900   1.826
13410TIP3   OH240172   2.757   1.837   5.212
13410TIP3    H140173   2.810   1.903   5.257
13410TIP3    H240174   2.766   1.859   5.119
13411TIP3   OH240175   0.301   7.275   4.055
13411TIP3    H140176   0.341   7.267   3.969
13411TIP3    H240177   0.329   7.362   4.086
13412TIP3   OH240178   2.877   3.744   0.776
13412TIP3    H140179   2.829   3.686   0.717
13412TIP3    H240180   2.952   3.773   0.724
13413TIP3   OH240181   1.503   1.447   5.147
13413TIP3    H140182   1.525   1.513   5.213
13413TIP3    H240183   1.493   1.497   5.066
13414TIP3   OH240184   6.872   4.360   2.726
13414TIP3    H140185   6.925   4.287   2.758
13414TIP3    H240186   6.781   4.333   2.744
13415TIP3   OH240187   3.762   6.914   1.429
13415TIP3    H140188   3.717   6.902   1.346
13415TIP3    H240189   3.849   6.877   1.415
13416TIP3   OH240190   1.821   1.894   5.327
13416TIP3    H140191   1.910   1.874   5.358
13416TIP3    H240192   1.823   1.870   5.234
13417TIP3   OH240193   7.942   0.976   6.607
13417TIP3    H140194   7.867   1.020   6.648
13417TIP3    H240195   8.019   1.015   6.648
13418TIP3   OH240196   3.076   3.040   2.810
13418TIP3    H140197   3.040   3.069   2.727
13418TIP3    H240198   3.003   2.997   2.855
13419TIP3   OH240199   8.092   1.236   2.983
13419TIP3    H140200   8.151   1.267   3.053
13419TIP3    H240201   8.143   1.246   2.903
13420TIP3   OH240202   6.441   3.925   2.610
13420TIP3    H140203   6.447   3.934   2.705
13420TIP3    H240204   6.360   3.875   2.596
13421TIP3   OH240205   1.297   0.868   3.805
13421TIP3    H140206   1.214   0.885   3.759
13421TIP3    H240207   1.363   0.913   3.752
13422TIP3   OH240208   8.099   5.715   5.526
13422TIP3    H140209   8.109   5.622   5.549
13422TIP3    H240210   8.188   5.750   5.531
13423TIP3   OH240211   6.342   0.488   5.692
13423TIP3    H140212   6.264   0.448   5.731
13423TIP3    H240213   6.382   0.418   5.642
13424TIP3   OH240214   2.083   4.957   2.527
13424TIP3    H140215   2.042   4.897   2.465
13424TIP3    H240216   2.009   5.006   2.565
13425TIP3   OH240217   8.139   4.381   6.403
13425TIP3    H140218   8.154   4.369   6.497
13425TIP3    H240219   8.112   4.295   6.372
13426TIP3   OH240220   3.365   3.398   3.677
13426TIP3    H140221   3.292   3.384   3.618
13426TIP3    H240222   3.407   3.312   3.684
13427TIP3   OH240223   2.668   5.948   0.712
13427TIP3    H140224   2.655   5.969   0.620
13427TIP3    H240225   2.617   6.014   0.759
13428TIP3   OH240226   3.332   2.717   3.185
13428TIP3    H140227   3.280   2.735   3.263
13428TIP3    H240228   3.275   2.740   3.112
13429TIP3   OH240229   0.318   6.232   4.613
13429TIP3    H140230   0.366   6.309   4.582
13429TIP3    H240231   0.294   6.253   4.703
13430TIP3   OH240232   7.419   0.349   5.002
13430TIP3    H140233   7.386   0.415   4.940
13430TIP3    H240234   7.501   0.385   5.035
13431TIP3   OH240235   4.406   7.097   5.478
13431TIP3    H140236   4.446   7.011   5.482
13431TIP3    H240237   4.335   7.088   5.414
13432TIP3   OH240238   7.613   3.216   2.576
13432TIP3    H140239   7.692   3.248   2.618
13432TIP3    H240240   7.619   3.121   2.581
13433TIP3   OH240241  -0.014   3.526   5.980
13433TIP3    H140242   0.003   3.575   5.900
13433TIP3    H240243   0.071   3.490   6.005
13434TIP3   OH240244   7.573   0.676   4.160
13434TIP3    H140245   7.511   0.688   4.232
13434TIP3    H240246   7.647   0.732   4.182
13435TIP3   OH240247   1.203   1.737   5.282
13435TIP3    H140248   1.158   1.660   5.246
13435TIP3    H240249   1.177   1.809   5.225
13436TIP3   OH240250   0.819   3.379   4.401
13436TIP3    H140251   0.773   3.399   4.319
13436TIP3    H240252   0.823   3.463   4.446
13437TIP3   OH240253   7.014   0.272   1.233
13437TIP3    H140254   7.026   0.197   1.291
13437TIP3    H240255   7.046   0.242   1.148
13438TIP3   OH240256   5.527   5.911   6.417
13438TIP3    H140257   5.597   5.867   6.369
13438TIP3    H240258   5.455   5.847   6.417
13439TIP3   OH240259   2.188   4.147   2.778
13439TIP3    H140260   2.129   4.159   2.704
13439TIP3    H240261   2.275   4.137   2.739
13440TIP3   OH240262   8.313   0.454   2.885
13440TIP3    H140263   8.262   0.372   2.884
13440TIP3    H240264   8.265   0.512   2.826
13441TIP3   OH240265   4.571   3.619   3.201
13441TIP3    H140266   4.609   3.532   3.196
13441TIP3    H240267   4.544   3.639   3.112
13442TIP3   OH240268   7.498   2.924   1.548
13442TIP3    H140269   7.407   2.929   1.520
13442TIP3    H240270   7.547   2.970   1.480
13443TIP3   OH240271   4.146   2.790   4.067
13443TIP3    H140272   4.107   2.704   4.085
13443TIP3    H240273   4.147   2.833   4.153
13444TIP3   OH240274   7.105   6.784   0.256
13444TIP3    H140275   7.024   6.734   0.245
13444TIP3    H240276   7.080   6.875   0.241
13445TIP3   OH240277   6.892   6.789   0.465
13445TIP3    H140278   6.860   6.716   0.412
13445TIP3    H240279   6.888   6.864   0.406
13446TIP3   OH240280   5.778   1.250   5.377
13446TIP3    H140281   5.713   1.196   5.423
13446TIP3    H240282   5.772   1.336   5.419
13447TIP3   OH240283   5.927   3.989   2.342
13447TIP3    H140284   5.937   4.074   2.298
13447TIP3    H240285   5.914   4.011   2.434
13448TIP3   OH240286   0.129   1.857   0.155
13448TIP3    H140287   0.090   1.945   0.157
13448TIP3    H240288   0.220   1.871   0.182
13449TIP3   OH240289   6.426   3.697   1.127
13449TIP3    H140290   6.423   3.606   1.099
13449TIP3    H240291   6.478   3.742   1.060
13450TIP3   OH240292   8.217   5.534   3.455
13450TIP3    H140293   8.148   5.511   3.518
13450TIP3    H240294   8.209   5.628   3.444
13451TIP3   OH240295   7.667   6.485   0.066
13451TIP3    H140296   7.579   6.522   0.059
13451TIP3    H240297   7.691   6.497   0.158
13452TIP3   OH240298   1.634   3.318   2.631
13452TIP3    H140299   1.706   3.256   2.638
13452TIP3    H240300   1.636   3.348   2.540
13453TIP3   OH240301   4.700   6.703   3.634
13453TIP3    H140302   4.761   6.664   3.697
13453TIP3    H240303   4.753   6.716   3.555
13454TIP3   OH240304   0.496   2.833   1.397
13454TIP3    H140305   0.466   2.844   1.488
13454TIP3    H240306   0.501   2.921   1.362
13455TIP3   OH240307   8.213   2.370   3.634
13455TIP3    H140308   8.287   2.357   3.694
13455TIP3    H240309   8.200   2.465   3.633
13456TIP3   OH240310   8.104   5.133   1.947
13456TIP3    H140311   8.197   5.149   1.933
13456TIP3    H240312   8.070   5.217   1.977
13457TIP3   OH240313   6.277   7.733   6.520
13457TIP3    H140314   6.191   7.691   6.526
13457TIP3    H240315   6.258   7.824   6.497
13458TIP3   OH240316   5.902   6.401   3.558
13458TIP3    H140317   5.965   6.354   3.505
13458TIP3    H240318   5.849   6.333   3.600
13459TIP3   OH240319   7.966   4.821   5.755
13459TIP3    H140320   7.912   4.820   5.676
13459TIP3    H240321   8.006   4.908   5.755
13460TIP3   OH240322   4.145   5.142   6.331
13460TIP3    H140323   4.087   5.169   6.402
13460TIP3    H240324   4.189   5.222   6.303
13461TIP3   OH240325   0.712   2.653   3.676
13461TIP3    H140326   0.786   2.657   3.737
13461TIP3    H240327   0.739   2.708   3.603
13462TIP3   OH240328   8.072   4.025   2.831
13462TIP3    H140329   8.016   4.017   2.754
13462TIP3    H240330   8.063   3.942   2.877
13463TIP3   OH240331   5.352   6.099   3.869
13463TIP3    H140332   5.432   6.082   3.819
13463TIP3    H240333   5.293   6.140   3.806
13464TIP3   OH240334   8.243   3.535   4.779
13464TIP3    H140335   8.158   3.573   4.800
13464TIP3    H240336   8.248   3.536   4.684
13465TIP3   OH240337   1.549   7.164   0.310
13465TIP3    H140338   1.596   7.119   0.380
13465TIP3    H240339   1.488   7.099   0.276
13466TIP3   OH240340   0.958   6.447   6.448
13466TIP3    H140341   0.978   6.363   6.406
13466TIP3    H240342   0.908   6.495   6.382
13467TIP3   OH240343   4.486   7.475   1.679
13467TIP3    H140344   4.476   7.407   1.746
13467TIP3    H240345   4.497   7.556   1.730
13468TIP3   OH240346   1.134   5.177   6.739
13468TIP3    H140347   1.050   5.216   6.717
13468TIP3    H240348   1.127   5.086   6.711
13469TIP3   OH240349   3.657   5.659   6.673
13469TIP3    H140350   3.725   5.695   6.730
13469TIP3    H240351   3.706   5.628   6.596
13470TIP3   OH240352   1.476   0.258   4.099
13470TIP3    H140353   1.386   0.281   4.124
13470TIP3    H240354   1.499   0.322   4.032
13471TIP3   OH240355   2.853   6.695   5.260
13471TIP3    H140356   2.926   6.699   5.321
13471TIP3    H240357   2.805   6.776   5.276
13472TIP3   OH240358   7.341   1.869   0.170
13472TIP3    H140359   7.392   1.872   0.089
13472TIP3    H240360   7.407   1.854   0.238
13473TIP3   OH240361   3.443   7.667   3.429
13473TIP3    H140362   3.414   7.720   3.504
13473TIP3    H240363   3.537   7.654   3.444
13474TIP3   OH240364   6.895   3.943   6.282
13474TIP3    H140365   6.957   4.011   6.304
13474TIP3    H240366   6.940   3.861   6.303
13475TIP3   OH240367   5.351   5.990   2.874
13475TIP3    H140368   5.350   5.918   2.811
13475TIP3    H240369   5.344   5.948   2.960
13476TIP3   OH240370   8.086   2.277   4.341
13476TIP3    H140371   8.021   2.321   4.286
13476TIP3    H240372   8.039   2.202   4.377
13477TIP3   OH240373   7.234   7.702   3.931
13477TIP3    H140374   7.186   7.782   3.912
13477TIP3    H240375   7.184   7.633   3.887
13478TIP3   OH240376   3.771   3.582   5.249
13478TIP3    H140377   3.730   3.504   5.213
13478TIP3    H240378   3.788   3.560   5.341
13479TIP3   OH240379   6.748   3.648   1.082
13479TIP3    H140380   6.718   3.709   1.150
13479TIP3    H240381   6.704   3.679   1.002
13480TIP3   OH240382   0.184   2.071   5.328
13480TIP3    H140383   0.274   2.040   5.339
13480TIP3    H240384   0.151   2.080   5.418
13481TIP3   OH240385   4.432   6.512   2.581
13481TIP3    H140386   4.415   6.420   2.596
13481TIP3    H240387   4.437   6.551   2.668
13482TIP3   OH240388   1.378   1.102   5.692
13482TIP3    H140389   1.301   1.143   5.653
13482TIP3    H240390   1.366   1.009   5.678
13483TIP3   OH240391   2.700   3.533   0.907
13483TIP3    H140392   2.775   3.580   0.871
13483TIP3    H240393   2.713   3.535   1.002
13484TIP3   OH240394   3.678   3.758   5.498
13484TIP3    H140395   3.689   3.848   5.531
13484TIP3    H240396   3.606   3.764   5.436
13485TIP3   OH240397   5.813   1.093   0.737
13485TIP3    H140398   5.753   1.044   0.682
13485TIP3    H240399   5.866   1.026   0.780
13486TIP3   OH240400   1.794   3.392   5.874
13486TIP3    H140401   1.856   3.453   5.915
13486TIP3    H240402   1.770   3.331   5.944
13487TIP3   OH240403   3.330   4.940   0.306
13487TIP3    H140404   3.330   4.986   0.390
13487TIP3    H240405   3.289   5.001   0.245
13488TIP3   OH240406   4.315   3.501   5.479
13488TIP3    H140407   4.340   3.593   5.478
13488TIP3    H240408   4.227   3.500   5.517
13489TIP3   OH240409   8.090   1.051   0.386
13489TIP3    H140410   8.075   1.043   0.480
13489TIP3    H240411   8.071   1.143   0.366
13490TIP3   OH240412   2.529   0.785   3.229
13490TIP3    H140413   2.474   0.731   3.173
13490TIP3    H240414   2.546   0.730   3.306
13491TIP3   OH240415   5.047   2.319   0.695
13491TIP3    H140416   5.066   2.225   0.706
13491TIP3    H240417   5.050   2.333   0.601
13492TIP3   OH240418   5.559   3.805   5.937
13492TIP3    H140419   5.563   3.841   5.848
13492TIP3    H240420   5.584   3.713   5.927
13493TIP3   OH240421   3.786   6.113   3.216
13493TIP3    H140422   3.772   6.141   3.126
13493TIP3    H240423   3.700   6.120   3.257
13494TIP3   OH240424   1.820   6.170   3.049
13494TIP3    H140425   1.809   6.075   3.050
13494TIP3    H240426   1.911   6.184   3.078
13495TIP3   OH240427   2.272   2.986   1.702
13495TIP3    H140428   2.229   2.954   1.622
13495TIP3    H240429   2.213   3.055   1.734
13496TIP3   OH240430   4.467   2.135   2.338
13496TIP3    H140431   4.377   2.167   2.348
13496TIP3    H240432   4.520   2.215   2.329
13497TIP3   OH240433   3.241   5.837   0.452
13497TIP3    H140434   3.290   5.876   0.379
13497TIP3    H240435   3.295   5.853   0.529
13498TIP3   OH240436   6.293   6.327   2.789
13498TIP3    H140437   6.277   6.319   2.695
13498TIP3    H240438   6.371   6.382   2.795
13499TIP3   OH240439   1.759   6.491   4.417
13499TIP3    H140440   1.764   6.407   4.464
13499TIP3    H240441   1.829   6.486   4.352
13500TIP3   OH240442   3.312   1.323   1.861
13500TIP3    H140443   3.278   1.348   1.947
13500TIP3    H240444   3.360   1.242   1.877
13501TIP3   OH240445   3.788   1.334   4.559
13501TIP3    H140446   3.790   1.418   4.605
13501TIP3    H240447   3.713   1.288   4.596
13502TIP3   OH240448   6.418   2.489   3.960
13502TIP3    H140449   6.447   2.563   3.908
13502TIP3    H240450   6.332   2.467   3.926
13503TIP3   OH240451   3.763   4.432   3.771
13503TIP3    H140452   3.758   4.437   3.676
13503TIP3    H240453   3.810   4.511   3.797
13504TIP3   OH240454   7.963   5.032   0.083
13504TIP3    H140455   7.995   4.942   0.080
13504TIP3    H240456   7.996   5.072   0.002
13505TIP3   OH240457   1.373   3.034   3.426
13505TIP3    H140458   1.431   3.109   3.425
13505TIP3    H240459   1.428   2.960   3.401
13506TIP3   OH240460   4.170   3.803   1.413
13506TIP3    H140461   4.164   3.757   1.496
13506TIP3    H240462   4.225   3.747   1.358
13507TIP3   OH240463   3.053   0.212   1.256
13507TIP3    H140464   3.136   0.183   1.219
13507TIP3    H240465   3.049   0.306   1.235
13508TIP3   OH240466   2.959   1.989   4.408
13508TIP3    H140467   2.888   1.959   4.465
13508TIP3    H240468   3.038   1.974   4.458
13509TIP3   OH240469   1.643   2.037   5.738
13509TIP3    H140470   1.699   2.074   5.668
13509TIP3    H240471   1.589   2.110   5.766
13510TIP3   OH240472   2.255   2.017   2.917
13510TIP3    H140473   2.165   2.044   2.897
13510TIP3    H240474   2.308   2.059   2.849
13511TIP3   OH240475   7.753   1.920   3.799
13511TIP3    H140476   7.817   1.850   3.814
13511TIP3    H240477   7.765   1.944   3.707
13512TIP3   OH240478   2.960   2.181   4.176
13512TIP3    H140479   2.941   2.107   4.233
13512TIP3    H240480   2.894   2.247   4.198
13513TIP3   OH240481   2.921   2.198   1.399
13513TIP3    H140482   2.961   2.123   1.355
13513TIP3    H240483   2.887   2.252   1.328
13514TIP3   OH240484   3.273   7.027   0.571
13514TIP3    H140485   3.286   6.951   0.515
13514TIP3    H240486   3.332   7.093   0.536
13515TIP3   OH240487   6.150   7.559   1.936
13515TIP3    H140488   6.156   7.569   1.841
13515TIP3    H240489   6.168   7.466   1.951
13516TIP3   OH240490   2.383   1.756   0.305
13516TIP3    H140491   2.354   1.831   0.254
13516TIP3    H240492   2.307   1.696   0.305
13517TIP3   OH240493   4.842   3.221   4.192
13517TIP3    H140494   4.938   3.221   4.200
13517TIP3    H240495   4.814   3.146   4.246
13518TIP3   OH240496   2.009   6.060   2.480
13518TIP3    H140497   2.070   5.993   2.448
13518TIP3    H240498   2.031   6.139   2.430
13519TIP3   OH240499   6.745   3.937   4.695
13519TIP3    H140500   6.650   3.935   4.710
13519TIP3    H240501   6.756   3.897   4.609
13520TIP3   OH240502   0.374   6.411   1.252
13520TIP3    H140503   0.427   6.489   1.266
13520TIP3    H240504   0.377   6.365   1.336
13521TIP3   OH240505   5.382   2.917   5.042
13521TIP3    H140506   5.451   2.872   4.993
13521TIP3    H240507   5.358   2.991   4.987
13522TIP3   OH240508   1.379   5.558   2.096
13522TIP3    H140509   1.407   5.511   2.018
13522TIP3    H240510   1.340   5.639   2.062
13523TIP3   OH240511   4.392   2.128   6.264
13523TIP3    H140512   4.341   2.130   6.345
13523TIP3    H240513   4.388   2.036   6.236
13524TIP3   OH240514   3.290   1.232   6.044
13524TIP3    H140515   3.218   1.169   6.035
13524TIP3    H240516   3.368   1.183   6.019
13525TIP3   OH240517   2.585   3.807   5.790
13525TIP3    H140518   2.661   3.845   5.746
13525TIP3    H240519   2.523   3.788   5.719
13526TIP3   OH240520   0.691   5.994   1.941
13526TIP3    H140521   0.658   6.013   2.029
13526TIP3    H240522   0.632   5.928   1.906
13527TIP3   OH240523   3.006   5.627   1.914
13527TIP3    H140524   2.972   5.716   1.922
13527TIP3    H240525   2.934   5.571   1.944
13528TIP3   OH240526   1.517   4.343   5.610
13528TIP3    H140527   1.486   4.334   5.520
13528TIP3    H240528   1.439   4.328   5.664
13529TIP3   OH240529   8.240   4.269   0.242
13529TIP3    H140530   8.265   4.186   0.203
13529TIP3    H240531   8.153   4.288   0.205
13530TIP3   OH240532   1.158   1.295   1.658
13530TIP3    H140533   1.101   1.369   1.681
13530TIP3    H240534   1.101   1.235   1.610
13531TIP3   OH240535   0.411   6.306   2.370
13531TIP3    H140536   0.489   6.302   2.426
13531TIP3    H240537   0.349   6.246   2.411
13532TIP3   OH240538   6.610   5.177   2.665
13532TIP3    H140539   6.642   5.157   2.577
13532TIP3    H240540   6.561   5.099   2.691
13533TIP3   OH240541   1.228   1.187   4.451
13533TIP3    H140542   1.295   1.134   4.407
13533TIP3    H240543   1.215   1.143   4.535
13534TIP3   OH240544   1.031   4.452   5.749
13534TIP3    H140545   0.939   4.428   5.758
13534TIP3    H240546   1.080   4.377   5.782
13535TIP3   OH240547   6.212   3.878   4.510
13535TIP3    H140548   6.165   3.889   4.427
13535TIP3    H240549   6.144   3.885   4.577
13536TIP3   OH240550   7.783   2.877   1.532
13536TIP3    H140551   7.750   2.959   1.496
13536TIP3    H240552   7.861   2.858   1.480
13537TIP3   OH240553   5.641   6.367   2.623
13537TIP3    H140554   5.696   6.405   2.691
13537TIP3    H240555   5.566   6.331   2.670
13538TIP3   OH240556   5.384   3.526  -0.010
13538TIP3    H140557   5.393   3.451  -0.069
13538TIP3    H240558   5.294   3.520   0.023
13539TIP3   OH240559   6.907   6.511   1.848
13539TIP3    H140560   6.944   6.589   1.890
13539TIP3    H240561   6.815   6.511   1.877
13540TIP3   OH240562   3.944   1.698   6.206
13540TIP3    H140563   3.969   1.775   6.257
13540TIP3    H240564   3.938   1.730   6.116
13541TIP3   OH240565   3.173   0.342   2.677
13541TIP3    H140566   3.089   0.376   2.710
13541TIP3    H240567   3.178   0.253   2.712
13542TIP3   OH240568   2.408   2.893   2.938
13542TIP3    H140569   2.479   2.836   2.910
13542TIP3    H240570   2.365   2.844   3.008
13543TIP3   OH240571   5.780   6.103   1.911
13543TIP3    H140572   5.820   6.029   1.865
13543TIP3    H240573   5.688   6.080   1.917
13544TIP3   OH240574   2.343   1.542   2.498
13544TIP3    H140575   2.366   1.478   2.565
13544TIP3    H240576   2.250   1.560   2.513
13545TIP3   OH240577   4.105   1.767   5.090
13545TIP3    H140578   4.093   1.724   5.005
13545TIP3    H240579   4.041   1.838   5.090
13546TIP3   OH240580   3.094   2.081   0.632
13546TIP3    H140581   3.106   1.988   0.613
13546TIP3    H240582   3.139   2.126   0.561
13547TIP3   OH240583   3.947   0.502   1.533
13547TIP3    H140584   3.899   0.532   1.456
13547TIP3    H240585   3.954   0.408   1.522
13548TIP3   OH240586   4.388   2.291   0.862
13548TIP3    H140587   4.433   2.208   0.877
13548TIP3    H240588   4.443   2.338   0.800
13549TIP3   OH240589   8.254   7.768   3.609
13549TIP3    H140590   8.192   7.715   3.658
13549TIP3    H240591   8.209   7.789   3.527
13550TIP3   OH240592   6.830   5.088   6.737
13550TIP3    H140593   6.897   5.150   6.709
13550TIP3    H240594   6.753   5.110   6.684
13551TIP3   OH240595   6.588   7.775   0.324
13551TIP3    H140596   6.625   7.765   0.412
13551TIP3    H240597   6.663   7.794   0.268
13552TIP3   OH240598   8.010   5.689   6.111
13552TIP3    H140599   8.054   5.626   6.167
13552TIP3    H240600   8.025   5.657   6.022
13553TIP3   OH240601   7.057   7.196   6.736
13553TIP3    H140602   6.971   7.168   6.768
13553TIP3    H240603   7.092   7.119   6.691
13554TIP3   OH240604   1.816   0.416   1.655
13554TIP3    H140605   1.738   0.397   1.706
13554TIP3    H240606   1.889   0.400   1.715
13555TIP3   OH240607   1.495   5.277   1.029
13555TIP3    H140608   1.457   5.248   1.112
13555TIP3    H240609   1.588   5.289   1.049
13556TIP3   OH240610   3.161   0.558   0.435
13556TIP3    H140611   3.168   0.485   0.496
13556TIP3    H240612   3.151   0.635   0.491
13557TIP3   OH240613   2.488   4.219   6.327
13557TIP3    H140614   2.505   4.127   6.346
13557TIP3    H240615   2.394   4.229   6.339
13558TIP3   OH240616   6.156   4.864   0.549
13558TIP3    H140617   6.170   4.948   0.506
13558TIP3    H240618   6.196   4.800   0.490
13559TIP3   OH240619   3.726   7.759   2.042
13559TIP3    H140620   3.676   7.724   2.116
13559TIP3    H240621   3.817   7.761   2.074
13560TIP3   OH240622   7.189   4.299   1.945
13560TIP3    H140623   7.158   4.236   1.880
13560TIP3    H240624   7.250   4.354   1.897
13561TIP3   OH240625   3.551   2.102   2.297
13561TIP3    H140626   3.496   2.091   2.375
13561TIP3    H240627   3.569   2.195   2.293
13562TIP3   OH240628   7.660   7.547   3.283
13562TIP3    H140629   7.720   7.582   3.349
13562TIP3    H240630   7.574   7.580   3.309
13563TIP3   OH240631   0.434   0.430   4.563
13563TIP3    H140632   0.518   0.475   4.566
13563TIP3    H240633   0.403   0.442   4.473
13564TIP3   OH240634   3.082   4.625   3.407
13564TIP3    H140635   3.140   4.691   3.446
13564TIP3    H240636   3.028   4.594   3.479
13565TIP3   OH240637   3.511   7.814   3.213
13565TIP3    H140638   3.547   7.877   3.274
13565TIP3    H240639   3.458   7.755   3.267
13566TIP3   OH240640   0.615   5.336   3.803
13566TIP3    H140641   0.672   5.304   3.733
13566TIP3    H240642   0.569   5.410   3.763
13567TIP3   OH240643   7.792   1.862   2.888
13567TIP3    H140644   7.788   1.885   2.795
13567TIP3    H240645   7.778   1.767   2.890
13568TIP3   OH240646   6.136   3.327   2.360
13568TIP3    H140647   6.066   3.291   2.306
13568TIP3    H240648   6.158   3.257   2.421
13569TIP3   OH240649   1.235   0.109   4.360
13569TIP3    H140650   1.158   0.166   4.360
13569TIP3    H240651   1.302   0.159   4.408
13570TIP3   OH240652   1.190   3.576   4.225
13570TIP3    H140653   1.265   3.622   4.188
13570TIP3    H240654   1.174   3.503   4.165
13571TIP3   OH240655   3.043   7.560   0.350
13571TIP3    H140656   3.054   7.580   0.443
13571TIP3    H240657   3.096   7.481   0.336
13572TIP3   OH240658   2.235   6.721   0.036
13572TIP3    H140659   2.172   6.791   0.017
13572TIP3    H240660   2.188   6.640   0.015
13573TIP3   OH240661   7.328   4.026   6.529
13573TIP3    H140662   7.357   3.949   6.579
13573TIP3    H240663   7.384   4.097   6.559
13574TIP3   OH240664   2.202   2.700   4.695
13574TIP3    H140665   2.227   2.614   4.729
13574TIP3    H240666   2.108   2.707   4.712
13575TIP3   OH240667   3.180   0.066   4.998
13575TIP3    H140668   3.197   0.003   5.068
13575TIP3    H240669   3.206   0.019   4.918
13576TIP3   OH240670   6.252   1.455   2.846
13576TIP3    H140671   6.284   1.442   2.935
13576TIP3    H240672   6.244   1.367   2.809
13577TIP3   OH240673   0.739   3.256   2.948
13577TIP3    H140674   0.768   3.271   2.858
13577TIP3    H240675   0.815   3.218   2.992
13578TIP3   OH240676   2.532   3.562   4.820
13578TIP3    H140677   2.571   3.504   4.754
13578TIP3    H240678   2.505   3.503   4.890
13579TIP3   OH240679   2.347   2.946   2.065
13579TIP3    H140680   2.412   2.916   2.002
13579TIP3    H240681   2.309   2.866   2.101
13580TIP3   OH240682   7.936   2.028   6.334
13580TIP3    H140683   7.994   2.093   6.374
13580TIP3    H240684   7.879   1.998   6.405
13581TIP3   OH240685   5.150   0.023   6.539
13581TIP3    H140686   5.131   0.076   6.462
13581TIP3    H240687   5.177  -0.062   6.504
13582TIP3   OH240688   3.792   0.387   0.430
13582TIP3    H140689   3.751   0.371   0.345
13582TIP3    H240690   3.884   0.404   0.410
13583TIP3   OH240691   7.744   0.181   1.182
13583TIP3    H140692   7.699   0.105   1.146
13583TIP3    H240693   7.677   0.248   1.191
13584TIP3   OH240694   0.738   1.911   6.450
13584TIP3    H140695   0.739   1.840   6.387
13584TIP3    H240696   0.694   1.874   6.527
13585TIP3   OH240697   1.361   5.605   3.300
13585TIP3    H140698   1.377   5.699   3.299
13585TIP3    H240699   1.346   5.582   3.209
13586TIP3   OH240700   5.517   5.889   6.022
13586TIP3    H140701   5.514   5.805   6.067
13586TIP3    H240702   5.601   5.889   5.977
13587TIP3   OH240703   4.438   0.332   5.934
13587TIP3    H140704   4.444   0.361   6.025
13587TIP3    H240705   4.346   0.311   5.921
13588TIP3   OH240706   5.311   2.756   4.429
13588TIP3    H140707   5.399   2.748   4.393
13588TIP3    H240708   5.257   2.699   4.374
13589TIP3   OH240709   5.756   7.458   1.944
13589TIP3    H140710   5.826   7.407   1.903
13589TIP3    H240711   5.785   7.549   1.938
13590TIP3   OH240712   6.191   6.672   2.503
13590TIP3    H140713   6.182   6.713   2.417
13590TIP3    H240714   6.285   6.670   2.519
13591TIP3   OH240715   2.499   5.444   5.066
13591TIP3    H140716   2.579   5.390   5.069
13591TIP3    H240717   2.514   5.504   4.993
13592TIP3   OH240718   7.310   1.135   2.182
13592TIP3    H140719   7.340   1.199   2.247
13592TIP3    H240720   7.297   1.186   2.103
13593TIP3   OH240721   8.209   6.831   1.791
13593TIP3    H140722   8.253   6.770   1.731
13593TIP3    H240723   8.273   6.901   1.804
13594TIP3   OH240724   7.977   5.891   3.805
13594TIP3    H140725   8.066   5.903   3.837
13594TIP3    H240726   7.946   5.813   3.851
13595TIP3   OH240727   7.037   3.073   0.691
13595TIP3    H140728   7.038   2.993   0.745
13595TIP3    H240729   7.054   3.042   0.602
13596TIP3   OH240730   2.061   3.311   2.324
13596TIP3    H140731   2.012   3.377   2.275
13596TIP3    H240732   2.152   3.338   2.317
13597TIP3   OH240733   3.527   3.366   6.175
13597TIP3    H140734   3.533   3.355   6.270
13597TIP3    H240735   3.434   3.380   6.158
13598TIP3   OH240736   8.286   7.301   4.126
13598TIP3    H140737   8.330   7.382   4.100
13598TIP3    H240738   8.243   7.322   4.209
13599TIP3   OH240739   5.589   4.441   6.125
13599TIP3    H140740   5.638   4.496   6.064
13599TIP3    H240741   5.588   4.490   6.207
13600TIP3   OH240742   5.949   3.109   1.374
13600TIP3    H140743   6.029   3.162   1.381
13600TIP3    H240744   5.918   3.124   1.285
13601TIP3   OH240745   3.191   6.194   3.249
13601TIP3    H140746   3.160   6.273   3.291
13601TIP3    H240747   3.214   6.221   3.160
13602TIP3   OH240748   2.462   1.883   5.711
13602TIP3    H140749   2.472   1.973   5.740
13602TIP3    H240750   2.469   1.831   5.791
13603TIP3   OH240751   1.013   6.757   1.461
13603TIP3    H140752   0.991   6.800   1.544
13603TIP3    H240753   0.948   6.789   1.399
13604TIP3   OH240754   7.636   4.191   3.769
13604TIP3    H140755   7.677   4.108   3.743
13604TIP3    H240756   7.705   4.256   3.759
13605TIP3   OH240757   3.036   0.616   3.772
13605TIP3    H140758   3.021   0.546   3.708
13605TIP3    H240759   3.045   0.571   3.856
13606TIP3   OH240760   6.679   1.739   4.712
13606TIP3    H140761   6.755   1.793   4.735
13606TIP3    H240762   6.635   1.723   4.795
13607TIP3   OH240763   6.019   5.381   1.388
13607TIP3    H140764   5.990   5.342   1.471
13607TIP3    H240765   6.097   5.331   1.364
13608TIP3   OH240766   0.605   1.286   5.153
13608TIP3    H140767   0.567   1.202   5.126
13608TIP3    H240768   0.551   1.314   5.228
13609TIP3   OH240769   7.608   5.892   1.480
13609TIP3    H140770   7.633   5.826   1.416
13609TIP3    H240771   7.513   5.898   1.472
13610TIP3   OH240772   5.332   2.581   4.995
13610TIP3    H140773   5.346   2.634   5.073
13610TIP3    H240774   5.237   2.585   4.981
13611TIP3   OH240775   6.889   2.975   5.798
13611TIP3    H140776   6.917   2.886   5.776
13611TIP3    H240777   6.822   2.962   5.866
13612TIP3   OH240778   8.134   3.444   0.026
13612TIP3    H140779   8.124   3.484   0.112
13612TIP3    H240780   8.175   3.513  -0.027
13613TIP3   OH240781   2.157   3.934   2.964
13613TIP3    H140782   2.084   3.963   3.018
13613TIP3    H240783   2.152   3.989   2.886
13614TIP3   OH240784   6.269   5.251   2.672
13614TIP3    H140785   6.294   5.214   2.587
13614TIP3    H240786   6.306   5.190   2.736
13615TIP3   OH240787   4.918   2.020   3.238
13615TIP3    H140788   4.845   1.957   3.233
13615TIP3    H240789   4.935   2.044   3.147
13616TIP3   OH240790   1.558   7.478   1.748
13616TIP3    H140791   1.634   7.516   1.792
13616TIP3    H240792   1.593   7.403   1.700
13617TIP3   OH240793   6.761   1.084   5.042
13617TIP3    H140794   6.801   1.165   5.077
13617TIP3    H240795   6.800   1.014   5.095
13618TIP3   OH240796   5.744   7.236   6.514
13618TIP3    H140797   5.703   7.222   6.599
13618TIP3    H240798   5.738   7.152   6.470
13619TIP3   OH240799   8.062   3.524   3.481
13619TIP3    H140800   7.996   3.565   3.537
13619TIP3    H240801   8.063   3.432   3.508
13620TIP3   OH240802   1.057   4.341   0.218
13620TIP3    H140803   1.045   4.377   0.305
13620TIP3    H240804   1.113   4.265   0.230
13621TIP3   OH240805   7.587   2.250   5.853
13621TIP3    H140806   7.659   2.289   5.804
13621TIP3    H240807   7.508   2.287   5.814
13622TIP3   OH240808   5.345   2.174   2.987
13622TIP3    H140809   5.413   2.181   3.054
13622TIP3    H240810   5.284   2.108   3.022
13623TIP3   OH240811   3.559   0.924   0.029
13623TIP3    H140812   3.552   0.833   0.000
13623TIP3    H240813   3.649   0.949   0.008
13624TIP3   OH240814   3.052   7.126   5.834
13624TIP3    H140815   3.102   7.102   5.757
13624TIP3    H240816   3.114   7.120   5.907
13625TIP3   OH240817   2.121   7.762   3.297
13625TIP3    H140818   2.217   7.765   3.294
13625TIP3    H240819   2.093   7.826   3.233
13626TIP3   OH240820   6.623   5.396   5.819
13626TIP3    H140821   6.556   5.460   5.842
13626TIP3    H240822   6.638   5.347   5.900
13627TIP3   OH240823   3.945   5.127   5.197
13627TIP3    H140824   3.932   5.035   5.173
13627TIP3    H240825   3.989   5.124   5.282
13628TIP3   OH240826   8.035   5.775   0.896
13628TIP3    H140827   7.991   5.817   0.969
13628TIP3    H240828   8.095   5.713   0.936
13629TIP3   OH240829   1.788   4.240   6.579
13629TIP3    H140830   1.792   4.146   6.560
13629TIP3    H240831   1.849   4.252   6.652
13630TIP3   OH240832   0.525   5.705   5.843
13630TIP3    H140833   0.542   5.679   5.934
13630TIP3    H240834   0.583   5.779   5.828
13631TIP3   OH240835   1.021   3.358   5.885
13631TIP3    H140836   1.097   3.413   5.902
13631TIP3    H240837   0.946   3.414   5.905
13632TIP3   OH240838   6.328   2.012   5.433
13632TIP3    H140839   6.268   2.065   5.484
13632TIP3    H240840   6.412   2.018   5.479
13633TIP3   OH240841   6.582   7.234   1.095
13633TIP3    H140842   6.493   7.259   1.069
13633TIP3    H240843   6.583   7.245   1.190
13634TIP3   OH240844   6.979   4.144   4.102
13634TIP3    H140845   6.921   4.084   4.148
13634TIP3    H240846   7.033   4.183   4.171
13635TIP3   OH240847   1.139   3.697   3.181
13635TIP3    H140848   1.205   3.757   3.145
13635TIP3    H240849   1.145   3.708   3.276
13636TIP3   OH240850   6.093   3.153   5.994
13636TIP3    H140851   6.047   3.192   6.068
13636TIP3    H240852   6.160   3.217   5.970
13637TIP3   OH240853   1.716   2.653   3.297
13637TIP3    H140854   1.642   2.714   3.293
13637TIP3    H240855   1.679   2.569   3.272
13638TIP3   OH240856   0.433   6.641   4.307
13638TIP3    H140857   0.339   6.624   4.314
13638TIP3    H240858   0.466   6.571   4.251
13639TIP3   OH240859   5.862   2.150   1.403
13639TIP3    H140860   5.882   2.065   1.441
13639TIP3    H240861   5.815   2.197   1.471
13640TIP3   OH240862   3.913   0.903   2.991
13640TIP3    H140863   3.868   0.848   3.055
13640TIP3    H240864   3.865   0.889   2.909
13641TIP3   OH240865   0.535   3.279   4.165
13641TIP3    H140866   0.545   3.215   4.094
13641TIP3    H240867   0.520   3.226   4.243
13642TIP3   OH240868   1.910   0.222   3.088
13642TIP3    H140869   1.945   0.311   3.080
13642TIP3    H240870   1.899   0.209   3.182
13643TIP3   OH240871   0.502   2.940   3.217
13643TIP3    H140872   0.484   3.007   3.283
13643TIP3    H240873   0.598   2.938   3.212
13644TIP3   OH240874   6.337   3.300   5.546
13644TIP3    H140875   6.423   3.342   5.548
13644TIP3    H240876   6.309   3.297   5.637
13645TIP3   OH240877   6.749   3.505   1.342
13645TIP3    H140878   6.830   3.546   1.314
13645TIP3    H240879   6.692   3.577   1.367
13646TIP3   OH240880   1.018   4.934   6.619
13646TIP3    H140881   0.977   4.848   6.626
13646TIP3    H240882   0.946   4.996   6.633
13647TIP3   OH240883   2.503   7.051   6.170
13647TIP3    H140884   2.479   7.133   6.125
13647TIP3    H240885   2.494   6.984   6.103
13648TIP3   OH240886   0.097   6.239   1.306
13648TIP3    H140887   0.093   6.325   1.265
13648TIP3    H240888   0.160   6.250   1.377
13649TIP3   OH240889   6.331   6.320   1.658
13649TIP3    H140890   6.278   6.341   1.581
13649TIP3    H240891   6.419   6.352   1.637
13650TIP3   OH240892   1.644   7.037   0.789
13650TIP3    H140893   1.567   7.087   0.762
13650TIP3    H240894   1.614   6.947   0.796
13651TIP3   OH240895   3.223   3.987   4.162
13651TIP3    H140896   3.306   4.010   4.203
13651TIP3    H240897   3.161   4.051   4.195
13652TIP3   OH240898   8.200   0.528   5.488
13652TIP3    H140899   8.137   0.503   5.422
13652TIP3    H240900   8.284   0.533   5.441
13653TIP3   OH240901   5.397   7.418   3.377
13653TIP3    H140902   5.481   7.375   3.390
13653TIP3    H240903   5.340   7.382   3.445
13654TIP3   OH240904   2.595   4.314   2.731
13654TIP3    H140905   2.551   4.229   2.724
13654TIP3    H240906   2.524   4.377   2.744
13655TIP3   OH240907   4.193   7.582   6.583
13655TIP3    H140908   4.134   7.633   6.528
13655TIP3    H240909   4.265   7.557   6.525
13656TIP3   OH240910   2.744   0.559   6.304
13656TIP3    H140911   2.830   0.535   6.336
13656TIP3    H240912   2.726   0.644   6.345
13657TIP3   OH240913   6.580   4.806   5.635
13657TIP3    H140914   6.624   4.881   5.592
13657TIP3    H240915   6.581   4.737   5.569
13658TIP3   OH240916   4.324   2.817   3.864
13658TIP3    H140917   4.248   2.822   3.922
13658TIP3    H240918   4.308   2.886   3.799
13659TIP3   OH240919   2.510   2.336   3.888
13659TIP3    H140920   2.431   2.385   3.912
13659TIP3    H240921   2.538   2.375   3.805
13660TIP3   OH240922   4.982   1.803   2.215
13660TIP3    H140923   4.943   1.729   2.169
13660TIP3    H240924   5.072   1.808   2.181
13661TIP3   OH240925   0.235   7.775   3.978
13661TIP3    H140926   0.151   7.756   3.936
13661TIP3    H240927   0.234   7.724   4.059
13662TIP3   OH240928   3.958   0.357   0.159
13662TIP3    H140929   4.043   0.395   0.180
13662TIP3    H240930   3.979   0.273   0.117
13663TIP3   OH240931   5.402   6.740   2.613
13663TIP3    H140932   5.399   6.829   2.648
13663TIP3    H240933   5.364   6.686   2.682
13664TIP3   OH240934   0.565   3.324   6.679
13664TIP3    H140935   0.574   3.377   6.758
13664TIP3    H240936   0.490   3.361   6.633
13665TIP3   OH240937   2.314   1.918   4.403
13665TIP3    H140938   2.345   2.007   4.385
13665TIP3    H240939   2.285   1.920   4.494
13666TIP3   OH240940   6.908   7.330   4.740
13666TIP3    H140941   6.929   7.237   4.731
13666TIP3    H240942   6.888   7.341   4.833
13667TIP3   OH240943   6.826   3.027   0.934
13667TIP3    H140944   6.739   3.053   0.966
13667TIP3    H240945   6.886   3.085   0.980
13668TIP3   OH240946   2.051   0.944   0.679
13668TIP3    H140947   1.956   0.950   0.681
13668TIP3    H240948   2.073   0.943   0.586
13669TIP3   OH240949   1.124   2.516   2.466
13669TIP3    H140950   1.150   2.490   2.555
13669TIP3    H240951   1.181   2.466   2.409
13670TIP3   OH240952   6.836   7.236   4.472
13670TIP3    H140953   6.798   7.159   4.514
13670TIP3    H240954   6.822   7.307   4.535
13671TIP3   OH240955   0.297   5.107   1.835
13671TIP3    H140956   0.216   5.081   1.791
13671TIP3    H240957   0.357   5.130   1.764
13672TIP3   OH240958   1.843   3.953   0.097
13672TIP3    H140959   1.792   3.995   0.167
13672TIP3    H240960   1.888   3.881   0.140
13673TIP3   OH240961   2.976   0.489   1.244
13673TIP3    H140962   2.924   0.568   1.258
13673TIP3    H240963   2.977   0.478   1.149
13674TIP3   OH240964   2.669   4.532   5.246
13674TIP3    H140965   2.723   4.581   5.184
13674TIP3    H240966   2.731   4.492   5.307
13675TIP3   OH240967   1.201   1.067   1.858
13675TIP3    H140968   1.282   1.024   1.832
13675TIP3    H240969   1.208   1.155   1.820
13676TIP3   OH240970   1.580   5.891   2.144
13676TIP3    H140971   1.508   5.954   2.144
13676TIP3    H240972   1.572   5.846   2.228
13677TIP3   OH240973   7.681   1.981   5.812
13677TIP3    H140974   7.647   2.070   5.813
13677TIP3    H240975   7.762   1.986   5.762
13678TIP3   OH240976   6.793   7.253   5.617
13678TIP3    H140977   6.881   7.264   5.654
13678TIP3    H240978   6.769   7.340   5.585
13679TIP3   OH240979   7.421   6.112   4.925
13679TIP3    H140980   7.505   6.072   4.902
13679TIP3    H240981   7.444   6.189   4.977
13680TIP3   OH240982   3.229   3.263   4.629
13680TIP3    H140983   3.297   3.331   4.634
13680TIP3    H240984   3.147   3.313   4.624
13681TIP3   OH240985   3.085   2.631   0.514
13681TIP3    H140986   3.052   2.717   0.539
13681TIP3    H240987   3.147   2.607   0.582
13682TIP3   OH240988   3.642   1.890   1.754
13682TIP3    H140989   3.550   1.911   1.772
13682TIP3    H240990   3.686   1.898   1.839
13683TIP3   OH240991   6.706   2.863   4.465
13683TIP3    H140992   6.675   2.793   4.408
13683TIP3    H240993   6.634   2.878   4.527
13684TIP3   OH240994   3.086   0.986   1.024
13684TIP3    H140995   3.005   1.037   1.027
13684TIP3    H240996   3.083   0.931   1.102
13685TIP3   OH240997   1.806   7.598   1.780
13685TIP3    H140998   1.837   7.687   1.802
13685TIP3    H240999   1.875   7.540   1.814
13686TIP3   OH241000   0.423   1.729   3.293
13686TIP3    H141001   0.423   1.825   3.297
13686TIP3    H241002   0.347   1.703   3.346
13687TIP3   OH241003   2.058   1.779   2.796
13687TIP3    H141004   2.018   1.833   2.728
13687TIP3    H241005   2.026   1.690   2.778
13688TIP3   OH241006   3.654   5.295   2.668
13688TIP3    H141007   3.601   5.303   2.748
13688TIP3    H241008   3.730   5.352   2.684
13689TIP3   OH241009   3.453   5.594   0.110
13689TIP3    H141010   3.525   5.631   0.060
13689TIP3    H241011   3.418   5.667   0.160
13690TIP3   OH241012   7.872   4.734   2.218
13690TIP3    H141013   7.945   4.793   2.197
13690TIP3    H241014   7.882   4.715   2.311
13691TIP3   OH241015   6.986   0.225   0.848
13691TIP3    H141016   6.904   0.230   0.897
13691TIP3    H241017   7.031   0.308   0.868
13692TIP3   OH241018   7.817   3.134   0.617
13692TIP3    H141019   7.823   3.158   0.525
13692TIP3    H241020   7.833   3.040   0.619
13693TIP3   OH241021   6.920   4.460   3.612
13693TIP3    H141022   6.961   4.449   3.698
13693TIP3    H241023   6.913   4.371   3.577
13694TIP3   OH241024   3.196  -0.041   6.592
13694TIP3    H141025   3.289  -0.048   6.570
13694TIP3    H241026   3.176   0.052   6.583
13695TIP3   OH241027   4.042   1.333   0.740
13695TIP3    H141028   4.079   1.378   0.664
13695TIP3    H241029   3.952   1.314   0.714
13696TIP3   OH241030   1.553   6.952   1.862
13696TIP3    H141031   1.644   6.974   1.846
13696TIP3    H241032   1.521   6.918   1.779
13697TIP3   OH241033   4.634   5.123   0.788
13697TIP3    H141034   4.595   5.036   0.802
13697TIP3    H241035   4.633   5.164   0.874
13698TIP3   OH241036   5.376   7.528   5.102
13698TIP3    H141037   5.286   7.519   5.132
13698TIP3    H241038   5.398   7.442   5.065
13699TIP3   OH241039   5.087   7.127   5.080
13699TIP3    H141040   5.146   7.058   5.049
13699TIP3    H241041   5.101   7.129   5.175
13700TIP3   OH241042   0.399   3.077   1.802
13700TIP3    H141043   0.446   3.041   1.727
13700TIP3    H241044   0.413   3.014   1.873
13701TIP3   OH241045   2.193   1.006   4.057
13701TIP3    H141046   2.101   1.002   4.030
13701TIP3    H241047   2.196   0.953   4.137
13702TIP3   OH241048   1.353   4.122   0.394
13702TIP3    H141049   1.319   4.054   0.336
13702TIP3    H241050   1.446   4.127   0.372
13703TIP3   OH241051   3.776   3.564   6.346
13703TIP3    H141052   3.756   3.656   6.363
13703TIP3    H241053   3.776   3.558   6.250
13704TIP3   OH241054   1.967   2.341   2.197
13704TIP3    H141055   1.893   2.299   2.242
13704TIP3    H241056   1.934   2.427   2.171
13705TIP3   OH241057   1.161   1.685   6.027
13705TIP3    H141058   1.102   1.743   6.076
13705TIP3    H241059   1.233   1.668   6.087
13706TIP3   OH241060   7.232   7.180   1.056
13706TIP3    H141061   7.210   7.217   1.142
13706TIP3    H241062   7.154   7.129   1.032
13707TIP3   OH241063   3.637   5.173   3.122
13707TIP3    H141064   3.684   5.257   3.123
13707TIP3    H241065   3.704   5.108   3.144
13708TIP3   OH241066   2.310   5.998   6.015
13708TIP3    H141067   2.232   5.957   5.977
13708TIP3    H241068   2.275   6.063   6.077
13709TIP3   OH241069   0.090   4.683   5.641
13709TIP3    H141070   0.102   4.738   5.719
13709TIP3    H241071   0.022   4.621   5.666
13710TIP3   OH241072   3.603   3.839   0.557
13710TIP3    H141073   3.558   3.919   0.529
13710TIP3    H241074   3.694   3.851   0.531
13711TIP3   OH241075   2.819   1.140   4.415
13711TIP3    H141076   2.791   1.077   4.349
13711TIP3    H241077   2.779   1.223   4.388
13712TIP3   OH241078   8.304   4.853   2.341
13712TIP3    H141079   8.223   4.859   2.290
13712TIP3    H241080   8.374   4.875   2.279
13713TIP3   OH241081   6.031   4.491   1.079
13713TIP3    H141082   5.967   4.560   1.096
13713TIP3    H241083   6.106   4.537   1.042
13714TIP3   OH241084   3.484   7.605   0.994
13714TIP3    H141085   3.408   7.656   0.966
13714TIP3    H241086   3.515   7.649   1.073
13715TIP3   OH241087   5.071   2.731   0.490
13715TIP3    H141088   4.994   2.676   0.505
13715TIP3    H241089   5.036   2.820   0.484
13716TIP3   OH241090   2.336   5.311   6.200
13716TIP3    H141091   2.304   5.261   6.125
13716TIP3    H241092   2.427   5.281   6.211
13717TIP3   OH241093   5.501   3.028   6.552
13717TIP3    H141094   5.466   2.996   6.469
13717TIP3    H241095   5.424   3.038   6.607
13718TIP3   OH241096   4.485   3.809   2.955
13718TIP3    H141097   4.540   3.833   2.880
13718TIP3    H241098   4.498   3.881   3.018
13719TIP3   OH241099   2.023   4.417   6.283
13719TIP3    H141100   2.059   4.328   6.281
13719TIP3    H241101   2.053   4.453   6.366
13720TIP3   OH241102   4.547   3.179   0.385
13720TIP3    H141103   4.540   3.090   0.352
13720TIP3    H241104   4.641   3.193   0.398
13721TIP3   OH241105   3.103   4.728   4.145
13721TIP3    H141106   3.043   4.792   4.183
13721TIP3    H241107   3.055   4.693   4.070
13722TIP3   OH241108   5.863   7.614   3.734
13722TIP3    H141109   5.804   7.687   3.751
13722TIP3    H241110   5.931   7.651   3.677
13723TIP3   OH241111   8.247   0.951   5.873
13723TIP3    H141112   8.248   0.864   5.912
13723TIP3    H241113   8.315   0.999   5.921
13724TIP3   OH241114   1.865   3.208   5.691
13724TIP3    H141115   1.865   3.285   5.748
13724TIP3    H241116   1.775   3.174   5.697
13725TIP3   OH241117   1.144   5.288   4.971
13725TIP3    H141118   1.228   5.261   4.936
13725TIP3    H241119   1.095   5.207   4.984
13726TIP3   OH241120   1.988   3.180   2.596
13726TIP3    H141121   1.972   3.122   2.522
13726TIP3    H241122   2.066   3.229   2.572
13727TIP3   OH241123   3.015   5.981   4.327
13727TIP3    H141124   3.089   5.965   4.385
13727TIP3    H241125   2.963   6.047   4.372
13728TIP3   OH241126   0.578   5.181   2.089
13728TIP3    H141127   0.544   5.270   2.083
13728TIP3    H241128   0.605   5.171   2.180
13729TIP3   OH241129   3.086   4.732   2.756
13729TIP3    H141130   3.049   4.719   2.669
13729TIP3    H241131   3.013   4.721   2.816
13730TIP3   OH241132   1.420   1.194   3.583
13730TIP3    H141133   1.474   1.263   3.544
13730TIP3    H241134   1.395   1.228   3.668
13731TIP3   OH241135   3.089   2.026   1.265
13731TIP3    H141136   3.154   2.009   1.334
13731TIP3    H241137   3.094   1.949   1.208
13732TIP3   OH241138   2.792   5.370   1.832
13732TIP3    H141139   2.789   5.334   1.921
13732TIP3    H241140   2.702   5.397   1.815
13733TIP3   OH241141   2.651   5.520   1.054
13733TIP3    H141142   2.652   5.591   0.990
13733TIP3    H241143   2.671   5.442   1.002
13734TIP3   OH241144   2.642   3.103   2.868
13734TIP3    H141145   2.557   3.067   2.890
13734TIP3    H241146   2.678   3.132   2.952
13735TIP3   OH241147   2.764   2.189   3.631
13735TIP3    H141148   2.723   2.274   3.614
13735TIP3    H241149   2.821   2.175   3.555
13736TIP3   OH241150   7.776   5.811   0.808
13736TIP3    H141151   7.870   5.808   0.827
13736TIP3    H241152   7.735   5.837   0.890
13737TIP3   OH241153   7.264   1.419   6.193
13737TIP3    H141154   7.178   1.461   6.201
13737TIP3    H241155   7.255   1.364   6.115
13738TIP3   OH241156   7.295   1.782   1.868
13738TIP3    H141157   7.217   1.744   1.826
13738TIP3    H241158   7.350   1.707   1.889
13739TIP3   OH241159   2.927   3.333   5.898
13739TIP3    H141160   2.925   3.421   5.862
13739TIP3    H241161   2.844   3.325   5.945
13740TIP3   OH241162   3.099   2.335   1.194
13740TIP3    H141163   3.008   2.325   1.167
13740TIP3    H241164   3.132   2.246   1.201
13741TIP3   OH241165   5.284   4.272   4.785
13741TIP3    H141166   5.358   4.254   4.727
13741TIP3    H241167   5.258   4.186   4.819
13742TIP3   OH241168   4.570   7.432   6.621
13742TIP3    H141169   4.621   7.510   6.646
13742TIP3    H241170   4.494   7.467   6.574
13743TIP3   OH241171   0.650   2.101   3.100
13743TIP3    H141172   0.567   2.149   3.094
13743TIP3    H241173   0.657   2.078   3.193
13744TIP3   OH241174   1.799   0.581   4.277
13744TIP3    H141175   1.795   0.494   4.237
13744TIP3    H241176   1.825   0.639   4.205
13745TIP3   OH241177   3.282   3.100   0.465
13745TIP3    H141178   3.255   3.104   0.556
13745TIP3    H241179   3.273   3.190   0.433
13746TIP3   OH241180   6.436   6.789   6.719
13746TIP3    H141181   6.408   6.745   6.638
13746TIP3    H241182   6.431   6.721   6.786
13747TIP3   OH241183   7.203   5.451   6.449
13747TIP3    H141184   7.292   5.470   6.420
13747TIP3    H241185   7.202   5.476   6.541
13748TIP3   OH241186   3.249   6.622   4.207
13748TIP3    H141187   3.302   6.567   4.264
13748TIP3    H241188   3.287   6.610   4.120
13749TIP3   OH241189   3.670   3.887   2.668
13749TIP3    H141190   3.681   3.969   2.618
13749TIP3    H241191   3.668   3.915   2.759
13750TIP3   OH241192   3.856   5.725   5.525
13750TIP3    H141193   3.948   5.744   5.541
13750TIP3    H241194   3.854   5.632   5.504
13751TIP3   OH241195   1.438   0.932   3.516
13751TIP3    H141196   1.521   0.935   3.469
13751TIP3    H241197   1.431   1.017   3.558
13752TIP3   OH241198   6.220   1.473   0.015
13752TIP3    H141199   6.210   1.531   0.091
13752TIP3    H241200   6.175   1.392   0.040
13753TIP3   OH241201   2.387   3.371   2.888
13753TIP3    H141202   2.408   3.310   2.817
13753TIP3    H241203   2.351   3.317   2.957
13754TIP3   OH241204   1.024   1.216   4.873
13754TIP3    H141205   0.965   1.223   4.949
13754TIP3    H241206   1.109   1.197   4.911
13755TIP3   OH241207   1.424   6.102   2.089
13755TIP3    H141208   1.439   6.190   2.056
13755TIP3    H241209   1.343   6.073   2.047
13756TIP3   OH241210   3.112   5.163   5.659
13756TIP3    H141211   3.049   5.101   5.622
13756TIP3    H241212   3.075   5.185   5.745
13757TIP3   OH241213   0.511   1.897   5.243
13757TIP3    H141214   0.447   1.886   5.312
13757TIP3    H241215   0.469   1.956   5.180
13758TIP3   OH241216   6.654   3.490   2.317
13758TIP3    H141217   6.564   3.523   2.328
13758TIP3    H241218   6.685   3.532   2.237
13759TIP3   OH241219   7.050   3.684   2.092
13759TIP3    H141220   7.105   3.746   2.045
13759TIP3    H241221   6.973   3.734   2.118
13760TIP3   OH241222   8.234   4.572   3.590
13760TIP3    H141223   8.328   4.556   3.578
13760TIP3    H241224   8.221   4.567   3.684
13761TIP3   OH241225   3.383   4.481   0.093
13761TIP3    H141226   3.379   4.484  -0.003
13761TIP3    H241227   3.433   4.559   0.117
13762TIP3   OH241228   4.856   4.352   2.601
13762TIP3    H141229   4.799   4.278   2.619
13762TIP3    H241230   4.937   4.334   2.649
13763TIP3   OH241231   7.830   2.300   5.762
13763TIP3    H141232   7.882   2.223   5.784
13763TIP3    H241233   7.893   2.372   5.758
13764TIP3   OH241234   1.555   7.672   5.967
13764TIP3    H141235   1.536   7.580   5.949
13764TIP3    H241236   1.552   7.714   5.881
13765TIP3   OH241237   2.001   2.229   0.454
13765TIP3    H141238   2.062   2.162   0.483
13765TIP3    H241239   1.916   2.200   0.486
13766TIP3   OH241240   7.981   5.615   1.286
13766TIP3    H141241   8.068   5.616   1.245
13766TIP3    H241242   7.999   5.616   1.380
13767TIP3   OH241243   5.844   5.586   0.705
13767TIP3    H141244   5.794   5.588   0.623
13767TIP3    H241245   5.829   5.498   0.740
13768TIP3   OH241246   2.636   3.637   2.749
13768TIP3    H141247   2.651   3.546   2.776
13768TIP3    H241248   2.658   3.638   2.656
13769TIP3   OH241249   6.769   4.885   5.432
13769TIP3    H141250   6.817   4.803   5.430
13769TIP3    H241251   6.745   4.902   5.340
13770TIP3   OH241252   2.588   5.392   5.942
13770TIP3    H141253   2.607   5.343   6.022
13770TIP3    H241254   2.524   5.458   5.968
13771TIP3   OH241255   0.880   3.136   1.169
13771TIP3    H141256   0.850   3.062   1.116
13771TIP3    H241257   0.914   3.095   1.249
13772TIP3   OH241258   5.565   6.399   1.518
13772TIP3    H141259   5.566   6.316   1.566
13772TIP3    H241260   5.648   6.441   1.540
13773TIP3   OH241261   8.053   4.125   6.330
13773TIP3    H141262   8.093   4.039   6.319
13773TIP3    H241263   7.959   4.110   6.322
13774TIP3   OH241264   7.636   6.639   5.360
13774TIP3    H141265   7.624   6.694   5.438
13774TIP3    H241266   7.695   6.569   5.389
13775TIP3   OH241267   3.822   3.152   1.123
13775TIP3    H141268   3.805   3.058   1.130
13775TIP3    H241269   3.744   3.186   1.078
13776TIP3   OH241270   5.314   2.599   5.584
13776TIP3    H141271   5.259   2.673   5.610
13776TIP3    H241272   5.314   2.541   5.661
13777TIP3   OH241273   2.962   7.404   0.907
13777TIP3    H141274   3.052   7.370   0.906
13777TIP3    H241275   2.936   7.401   0.999
13778TIP3   OH241276   1.184   0.145   5.506
13778TIP3    H141277   1.265   0.119   5.550
13778TIP3    H241278   1.167   0.075   5.443
13779TIP3   OH241279   6.726   2.166   2.860
13779TIP3    H141280   6.648   2.167   2.805
13779TIP3    H241281   6.693   2.172   2.950
13780TIP3   OH241282   4.963   1.676   2.693
13780TIP3    H141283   5.003   1.753   2.653
13780TIP3    H241284   4.870   1.684   2.674
13781TIP3   OH241285   4.453   6.922   2.058
13781TIP3    H141286   4.435   7.015   2.074
13781TIP3    H241287   4.522   6.900   2.120
13782TIP3   OH241288   7.391   5.117   3.313
13782TIP3    H141289   7.312   5.154   3.353
13782TIP3    H241290   7.359   5.069   3.237
13783TIP3   OH241291   0.681   7.439   6.357
13783TIP3    H141292   0.753   7.378   6.338
13783TIP3    H241293   0.616   7.421   6.289
13784TIP3   OH241294   1.244   2.434   0.790
13784TIP3    H141295   1.192   2.395   0.720
13784TIP3    H241296   1.194   2.511   0.817
13785TIP3   OH241297   5.931   6.983   2.172
13785TIP3    H141298   5.880   7.038   2.113
13785TIP3    H241299   5.905   7.012   2.260
13786TIP3   OH241300   5.586   5.042   0.313
13786TIP3    H141301   5.671   5.074   0.342
13786TIP3    H241302   5.590   4.947   0.323
13787TIP3   OH241303   6.706   0.417   5.690
13787TIP3    H141304   6.682   0.334   5.649
13787TIP3    H241305   6.797   0.432   5.664
13788TIP3   OH241306   7.948   1.725   3.903
13788TIP3    H141307   8.019   1.661   3.897
13788TIP3    H241308   7.921   1.723   3.995
13789TIP3   OH241309   4.489   4.315   1.813
13789TIP3    H141310   4.451   4.391   1.858
13789TIP3    H241311   4.423   4.290   1.748
13790TIP3   OH241312   5.658   6.502   2.891
13790TIP3    H141313   5.674   6.557   2.968
13790TIP3    H241314   5.562   6.501   2.882
13791TIP3   OH241315   0.234   0.735   6.638
13791TIP3    H141316   0.261   0.826   6.633
13791TIP3    H241317   0.270   0.695   6.559
13792TIP3   OH241318   1.039   0.578   5.853
13792TIP3    H141319   0.946   0.576   5.875
13792TIP3    H241320   1.049   0.511   5.785
13793TIP3   OH241321   2.145   1.747   4.914
13793TIP3    H141322   2.240   1.738   4.918
13793TIP3    H241323   2.113   1.657   4.907
13794TIP3   OH241324   0.561   7.381   0.331
13794TIP3    H141325   0.622   7.440   0.376
13794TIP3    H241326   0.599   7.294   0.343
13795TIP3   OH241327   4.309   6.622   3.897
13795TIP3    H141328   4.338   6.567   3.970
13795TIP3    H241329   4.220   6.593   3.880
13796TIP3   OH241330   0.220   1.419   4.258
13796TIP3    H141331   0.176   1.336   4.237
13796TIP3    H241332   0.193   1.479   4.189
13797TIP3   OH241333   2.066   6.331   4.690
13797TIP3    H141334   2.119   6.309   4.766
13797TIP3    H241335   2.082   6.260   4.628
13798TIP3   OH241336   1.421   0.626   0.648
13798TIP3    H141337   1.345   0.685   0.648
13798TIP3    H241338   1.414   0.577   0.566
13799TIP3   OH241339   4.215   1.328   2.817
13799TIP3    H141340   4.195   1.338   2.724
13799TIP3    H241341   4.129   1.329   2.859
13800TIP3   OH241342   0.274   7.549   4.729
13800TIP3    H141343   0.224   7.627   4.704
13800TIP3    H241344   0.227   7.476   4.689
13801TIP3   OH241345   6.636   0.546   3.166
13801TIP3    H141346   6.591   0.522   3.085
13801TIP3    H241347   6.713   0.595   3.137
13802TIP3   OH241348   8.263   0.387   4.403
13802TIP3    H141349   8.266   0.359   4.495
13802TIP3    H241350   8.200   0.459   4.402
13803TIP3   OH241351   1.834   3.707   2.079
13803TIP3    H141352   1.870   3.793   2.101
13803TIP3    H241353   1.825   3.708   1.983
13804TIP3   OH241354   5.068   3.668   5.324
13804TIP3    H141355   5.127   3.594   5.339
13804TIP3    H241356   5.055   3.706   5.411
13805TIP3   OH241357   1.522   2.809   4.931
13805TIP3    H141358   1.596   2.808   4.870
13805TIP3    H241359   1.552   2.865   5.003
13806TIP3   OH241360   4.660   7.237   5.467
13806TIP3    H141361   4.728   7.170   5.460
13806TIP3    H241362   4.582   7.196   5.429
13807TIP3   OH241363   3.405   2.936   4.363
13807TIP3    H141364   3.478   2.897   4.411
13807TIP3    H241365   3.337   2.868   4.363
13808TIP3   OH241366   5.447   3.766   4.649
13808TIP3    H141367   5.526   3.821   4.652
13808TIP3    H241368   5.431   3.743   4.741
13809TIP3   OH241369   7.731   3.048   6.125
13809TIP3    H141370   7.768   3.043   6.213
13809TIP3    H241371   7.732   3.142   6.103
13810TIP3   OH241372   4.922   1.316   3.458
13810TIP3    H141373   4.856   1.362   3.510
13810TIP3    H241374   4.876   1.293   3.377
13811TIP3   OH241375   7.218   4.176   1.623
13811TIP3    H141376   7.175   4.127   1.693
13811TIP3    H241377   7.309   4.149   1.627
13812TIP3   OH241378   1.127   6.534   1.005
13812TIP3    H141379   1.147   6.471   0.936
13812TIP3    H241380   1.077   6.484   1.069
13813TIP3   OH241381   2.397   6.005   1.473
13813TIP3    H141382   2.362   6.024   1.560
13813TIP3    H241383   2.490   5.984   1.488
13814TIP3   OH241384   8.069   0.448   6.159
13814TIP3    H141385   8.045   0.531   6.199
13814TIP3    H241386   7.997   0.427   6.100
13815TIP3   OH241387   2.847   5.461   4.877
13815TIP3    H141388   2.764   5.495   4.844
13815TIP3    H241389   2.911   5.527   4.854
13816TIP3   OH241390   0.967   3.141   5.202
13816TIP3    H141391   0.975   3.183   5.287
13816TIP3    H241392   1.022   3.063   5.209
13817TIP3   OH241393   2.138   4.685   5.067
13817TIP3    H141394   2.166   4.771   5.096
13817TIP3    H241395   2.215   4.629   5.080
13818TIP3   OH241396   6.891   7.071   2.861
13818TIP3    H141397   6.863   7.134   2.794
13818TIP3    H241398   6.985   7.085   2.871
13819TIP3   OH241399   4.131   1.693   3.403
13819TIP3    H141400   4.058   1.642   3.368
13819TIP3    H241401   4.206   1.634   3.398
13820TIP3   OH241402   6.960   0.127   3.891
13820TIP3    H141403   6.935   0.165   3.806
13820TIP3    H241404   6.952   0.200   3.953
13821TIP3   OH241405   2.205   2.790   4.971
13821TIP3    H141406   2.246   2.764   5.054
13821TIP3    H241407   2.272   2.773   4.905
13822TIP3   OH241408   0.453   6.833   3.432
13822TIP3    H141409   0.482   6.920   3.460
13822TIP3    H241410   0.373   6.850   3.381
13823TIP3   OH241411   1.445   6.101   5.666
13823TIP3    H141412   1.496   6.024   5.691
13823TIP3    H241413   1.356   6.068   5.654
13824TIP3   OH241414   1.794   7.289   0.865
13824TIP3    H141415   1.864   7.223   0.864
13824TIP3    H241416   1.790   7.321   0.775
13825TIP3   OH241417   2.205   0.551   5.594
13825TIP3    H141418   2.167   0.548   5.682
13825TIP3    H241419   2.287   0.600   5.605
13826TIP3   OH241420   7.466   3.065   6.250
13826TIP3    H141421   7.544   3.035   6.206
13826TIP3    H241422   7.492   3.148   6.292
13827TIP3   OH241423   6.701   3.453   2.787
13827TIP3    H141424   6.680   3.527   2.843
13827TIP3    H241425   6.788   3.474   2.752
13828TIP3   OH241426   7.157   2.188   1.125
13828TIP3    H141427   7.138   2.154   1.037
13828TIP3    H241428   7.120   2.277   1.125
13829TIP3   OH241429   4.409   2.503   1.365
13829TIP3    H141430   4.344   2.447   1.406
13829TIP3    H241431   4.417   2.469   1.276
13830TIP3   OH241432   0.215   5.747   3.725
13830TIP3    H141433   0.181   5.835   3.706
13830TIP3    H241434   0.293   5.739   3.671
13831TIP3   OH241435   3.028   0.047   2.366
13831TIP3    H141436   2.973   0.108   2.415
13831TIP3    H241437   3.117   0.069   2.392
13832TIP3   OH241438   0.804   3.284   3.322
13832TIP3    H141439   0.752   3.355   3.360
13832TIP3    H241440   0.875   3.328   3.276
13833TIP3   OH241441   2.429   6.089   3.628
13833TIP3    H141442   2.383   6.067   3.547
13833TIP3    H241443   2.371   6.151   3.673
13834TIP3   OH241444   5.545   0.691   3.248
13834TIP3    H141445   5.500   0.635   3.311
13834TIP3    H241446   5.550   0.637   3.168
13835TIP3   OH241447   7.376   0.176   5.274
13835TIP3    H141448   7.349   0.244   5.335
13835TIP3    H241449   7.399   0.224   5.194
13836TIP3   OH241450   6.709   3.120   2.756
13836TIP3    H141451   6.712   3.111   2.851
13836TIP3    H241452   6.705   3.214   2.741
13837TIP3   OH241453   7.425   0.231   6.554
13837TIP3    H141454   7.409   0.304   6.613
13837TIP3    H241455   7.518   0.212   6.564
13838TIP3   OH241456   6.977   1.313   3.104
13838TIP3    H141457   6.913   1.272   3.161
13838TIP3    H241458   7.036   1.242   3.078
13839TIP3   OH241459   4.825   2.407   4.716
13839TIP3    H141460   4.755   2.343   4.703
13839TIP3    H241461   4.893   2.360   4.763
13840TIP3   OH241462   2.636   2.104   0.439
13840TIP3    H141463   2.551   2.136   0.407
13840TIP3    H241464   2.680   2.183   0.470
13841TIP3   OH241465   4.967   0.977   5.654
13841TIP3    H141466   4.927   0.891   5.637
13841TIP3    H241467   5.046   0.957   5.704
13842TIP3   OH241468   0.708   4.865   0.711
13842TIP3    H141469   0.658   4.936   0.671
13842TIP3    H241470   0.713   4.888   0.804
13843TIP3   OH241471   8.242   6.272   0.309
13843TIP3    H141472   8.169   6.318   0.268
13843TIP3    H241473   8.204   6.231   0.387
13844TIP3   OH241474   6.512   5.874   0.521
13844TIP3    H141475   6.486   5.961   0.490
13844TIP3    H241476   6.489   5.874   0.614
13845TIP3   OH241477   1.405   4.294   3.803
13845TIP3    H141478   1.369   4.360   3.861
13845TIP3    H241479   1.428   4.221   3.860
13846TIP3   OH241480   1.130   5.483   0.927
13846TIP3    H141481   1.097   5.562   0.969
13846TIP3    H241482   1.077   5.412   0.964
13847TIP3   OH241483   0.970   3.607   3.769
13847TIP3    H141484   1.035   3.676   3.775
13847TIP3    H241485   0.887   3.654   3.760
13848TIP3   OH241486   3.335   0.575   0.835
13848TIP3    H141487   3.250   0.617   0.824
13848TIP3    H241488   3.394   0.647   0.856
13849TIP3   OH241489   3.915   3.455   1.361
13849TIP3    H141490   3.970   3.402   1.303
13849TIP3    H241491   3.884   3.527   1.306
13850TIP3   OH241492   7.832   5.738   4.425
13850TIP3    H141493   7.741   5.717   4.446
13850TIP3    H241494   7.884   5.682   4.481
13851TIP3   OH241495   7.558   5.717   4.398
13851TIP3    H141496   7.564   5.629   4.436
13851TIP3    H241497   7.474   5.718   4.352
13852TIP3   OH241498   7.371   6.338   0.292
13852TIP3    H141499   7.384   6.345   0.198
13852TIP3    H241500   7.449   6.294   0.324
13853TIP3   OH241501   5.149   0.707   3.487
13853TIP3    H141502   5.097   0.771   3.534
13853TIP3    H241503   5.102   0.692   3.405
13854TIP3   OH241504   6.944   0.649   6.291
13854TIP3    H141505   7.022   0.609   6.331
13854TIP3    H241506   6.876   0.582   6.300
13855TIP3   OH241507   5.792   0.620   1.436
13855TIP3    H141508   5.865   0.660   1.483
13855TIP3    H241509   5.817   0.528   1.426
13856TIP3   OH241510   6.609   5.233   1.637
13856TIP3    H141511   6.645   5.176   1.568
13856TIP3    H241512   6.653   5.317   1.623
13857TIP3   OH241513   7.248   4.416   5.821
13857TIP3    H141514   7.232   4.376   5.906
13857TIP3    H241515   7.337   4.451   5.827
13858TIP3   OH241516   7.353   5.164   6.633
13858TIP3    H141517   7.429   5.108   6.619
13858TIP3    H241518   7.282   5.120   6.586
13859TIP3   OH241519   4.206   3.116   4.680
13859TIP3    H141520   4.125   3.098   4.631
13859TIP3    H241521   4.254   3.033   4.677
13860TIP3   OH241522   8.233   5.937   4.289
13860TIP3    H141523   8.156   5.939   4.232
13860TIP3    H241524   8.294   6.000   4.250
13861TIP3   OH241525   5.901   5.933   1.736
13861TIP3    H141526   5.970   5.996   1.713
13861TIP3    H241527   5.872   5.897   1.653
13862TIP3   OH241528   2.955   0.216   5.159
13862TIP3    H141529   3.006   0.257   5.229
13862TIP3    H241530   3.003   0.238   5.079
13863TIP3   OH241531   7.281   1.837   2.690
13863TIP3    H141532   7.239   1.833   2.604
13863TIP3    H241533   7.306   1.929   2.700
13864TIP3   OH241534   1.909   0.868   4.532
13864TIP3    H141535   1.814   0.869   4.526
13864TIP3    H241536   1.931   0.777   4.551
13865TIP3   OH241537   0.814   0.522   6.378
13865TIP3    H141538   0.856   0.597   6.335
13865TIP3    H241539   0.887   0.470   6.412
13866TIP3   OH241540   1.877   6.918   5.499
13866TIP3    H141541   1.956   6.972   5.507
13866TIP3    H241542   1.805   6.980   5.512
13867TIP3   OH241543   5.675   6.444   4.655
13867TIP3    H141544   5.583   6.421   4.640
13867TIP3    H241545   5.702   6.388   4.728
13868TIP3   OH241546   0.526   2.274   1.640
13868TIP3    H141547   0.496   2.355   1.680
13868TIP3    H241548   0.458   2.251   1.577
13869TIP3   OH241549   2.026   2.994   1.861
13869TIP3    H141550   2.006   3.063   1.799
13869TIP3    H241551   2.059   3.040   1.938
13870TIP3   OH241552   4.265   4.728   0.741
13870TIP3    H141553   4.344   4.780   0.727
13870TIP3    H241554   4.255   4.677   0.661
13871TIP3   OH241555   8.165   7.622   3.216
13871TIP3    H141556   8.125   7.537   3.235
13871TIP3    H241557   8.102   7.686   3.248
13872TIP3   OH241558   5.191   3.803   2.267
13872TIP3    H141559   5.106   3.821   2.227
13872TIP3    H241560   5.251   3.865   2.226
13873TIP3   OH241561   1.273   3.834   1.994
13873TIP3    H141562   1.346   3.881   2.034
13873TIP3    H241563   1.292   3.742   2.008
13874TIP3   OH241564   8.180   6.934   4.124
13874TIP3    H141565   8.089   6.913   4.141
13874TIP3    H241566   8.217   6.854   4.087
13875TIP3   OH241567   0.730   4.347   2.314
13875TIP3    H141568   0.638   4.374   2.306
13875TIP3    H241569   0.734   4.261   2.272
13876TIP3   OH241570   3.950   0.104   4.985
13876TIP3    H141571   3.863   0.075   5.012
13876TIP3    H241572   4.005   0.026   4.990
13877TIP3   OH241573   5.947   1.089   0.153
13877TIP3    H141574   6.024   1.082   0.095
13877TIP3    H241575   5.949   1.179   0.184
13878TIP3   OH241576   7.100   0.329   5.086
13878TIP3    H141577   7.056   0.352   5.004
13878TIP3    H241578   7.187   0.299   5.060
13879TIP3   OH241579   4.923   6.277   3.849
13879TIP3    H141580   4.914   6.234   3.934
13879TIP3    H241581   4.860   6.232   3.793
13880TIP3   OH241582   2.024   4.986   3.082
13880TIP3    H141583   2.015   4.940   3.165
13880TIP3    H241584   1.935   4.998   3.051
13881TIP3   OH241585   4.372   5.329   4.244
13881TIP3    H141586   4.301   5.347   4.305
13881TIP3    H241587   4.331   5.277   4.175
13882TIP3   OH241588   8.249   2.013   6.026
13882TIP3    H141589   8.165   2.035   5.985
13882TIP3    H241590   8.228   1.945   6.090
13883TIP3   OH241591   2.665   7.065   0.918
13883TIP3    H141592   2.749   7.033   0.887
13883TIP3    H241593   2.686   7.148   0.961
13884TIP3   OH241594   4.560   2.274   3.418
13884TIP3    H141595   4.550   2.369   3.408
13884TIP3    H241596   4.653   2.258   3.403
13885TIP3   OH241597   0.215   6.937   3.275
13885TIP3    H141598   0.216   6.860   3.219
13885TIP3    H241599   0.272   7.000   3.232
13886TIP3   OH241600   8.276   0.739   1.737
13886TIP3    H141601   8.296   0.730   1.644
13886TIP3    H241602   8.234   0.825   1.744
13887TIP3   OH241603   2.879   6.813   2.837
13887TIP3    H141604   2.801   6.763   2.814
13887TIP3    H241605   2.872   6.893   2.785
13888TIP3   OH241606   7.683   1.083   1.566
13888TIP3    H141607   7.773   1.115   1.579
13888TIP3    H241608   7.663   1.106   1.475
13889TIP3   OH241609   1.739   4.937   4.697
13889TIP3    H141610   1.654   4.927   4.655
13889TIP3    H241611   1.801   4.942   4.625
13890TIP3   OH241612   2.618   6.016   2.438
13890TIP3    H141613   2.636   6.107   2.461
13890TIP3    H241614   2.569   5.981   2.513
13891TIP3   OH241615   1.947   3.453   2.134
13891TIP3    H141616   1.884   3.520   2.161
13891TIP3    H241617   1.998   3.496   2.065
13892TIP3   OH241618   6.237   2.388   2.594
13892TIP3    H141619   6.193   2.447   2.534
13892TIP3    H241620   6.167   2.350   2.647
13893TIP3   OH241621   2.631   7.707   0.204
13893TIP3    H141622   2.581   7.626   0.197
13893TIP3    H241623   2.584   7.759   0.269
13894TIP3   OH241624   4.821   0.895   4.774
13894TIP3    H141625   4.815   0.809   4.732
13894TIP3    H241626   4.777   0.955   4.713
13895TIP3   OH241627   3.263   0.274   6.580
13895TIP3    H141628   3.279   0.238   6.493
13895TIP3    H241629   3.168   0.272   6.589
13896TIP3   OH241630   6.496   6.375   5.425
13896TIP3    H141631   6.423   6.374   5.364
13896TIP3    H241632   6.530   6.286   5.424
13897TIP3   OH241633   8.024   4.180   5.397
13897TIP3    H141634   7.964   4.207   5.328
13897TIP3    H241635   8.020   4.250   5.461
13898TIP3   OH241636   8.085   4.950   2.715
13898TIP3    H141637   8.111   4.954   2.807
13898TIP3    H241638   8.168   4.947   2.667
13899TIP3   OH241639   2.956   3.131   4.923
13899TIP3    H141640   2.917   3.082   4.850
13899TIP3    H241641   3.003   3.065   4.973
13900TIP3   OH241642   4.469   6.449   0.837
13900TIP3    H141643   4.559   6.436   0.869
13900TIP3    H241644   4.418   6.460   0.917
13901TIP3   OH241645   2.342   2.052   4.933
13901TIP3    H141646   2.257   2.078   4.969
13901TIP3    H241647   2.372   2.129   4.884
13902TIP3   OH241648   1.178   0.733   2.837
13902TIP3    H141649   1.242   0.788   2.882
13902TIP3    H241650   1.216   0.645   2.839
13903TIP3   OH241651   8.269   2.130   2.660
13903TIP3    H141652   8.186   2.092   2.631
13903TIP3    H241653   8.270   2.117   2.755
13904TIP3   OH241654   3.111   0.724   0.856
13904TIP3    H141655   3.068   0.704   0.772
13904TIP3    H241656   3.080   0.811   0.879
13905TIP3   OH241657   3.904   2.344   3.332
13905TIP3    H141658   3.897   2.435   3.360
13905TIP3    H241659   3.821   2.305   3.358
13906TIP3   OH241660   5.678   3.052   1.011
13906TIP3    H141661   5.639   3.136   0.988
13906TIP3    H241662   5.648   3.035   1.100
13907TIP3   OH241663   1.356   2.887   2.878
13907TIP3    H141664   1.375   2.795   2.861
13907TIP3    H241665   1.369   2.931   2.794
13908TIP3   OH241666   7.666   0.100   0.739
13908TIP3    H141667   7.622   0.181   0.717
13908TIP3    H241668   7.724   0.083   0.664
13909TIP3   OH241669   2.236   3.773   3.457
13909TIP3    H141670   2.143   3.794   3.463
13909TIP3    H241671   2.275   3.820   3.531
13910TIP3   OH241672   0.565   7.218   5.784
13910TIP3    H141673   0.523   7.282   5.727
13910TIP3    H241674   0.526   7.134   5.759
13911TIP3   OH241675   0.303   7.009   1.800
13911TIP3    H141676   0.361   6.982   1.729
13911TIP3    H241677   0.289   7.103   1.784
13912TIP3   OH241678   2.070   4.513   3.401
13912TIP3    H141679   2.053   4.429   3.445
13912TIP3    H241680   2.078   4.576   3.472
13913TIP3   OH241681   0.801   1.805   0.244
13913TIP3    H141682   0.846   1.833   0.323
13913TIP3    H241683   0.855   1.838   0.172
13914TIP3   OH241684   3.113   5.550   1.290
13914TIP3    H141685   3.148   5.472   1.333
13914TIP3    H241686   3.023   5.527   1.268
13915TIP3   OH241687   6.540   7.652   3.125
13915TIP3    H141688   6.635   7.646   3.119
13915TIP3    H241689   6.508   7.566   3.100
13916TIP3   OH241690   6.022   5.075   3.381
13916TIP3    H141691   6.086   5.134   3.342
13916TIP3    H241692   6.019   5.001   3.321
13917TIP3   OH241693   2.381   0.064   1.710
13917TIP3    H141694   2.302   0.090   1.663
13917TIP3    H241695   2.426   0.146   1.730
13918TIP3   OH241696   6.961   1.431   0.940
13918TIP3    H141697   6.884   1.450   0.994
13918TIP3    H241698   7.035   1.456   0.994
13919TIP3   OH241699   2.716   6.568   5.655
13919TIP3    H141700   2.793   6.622   5.677
13919TIP3    H241701   2.642   6.620   5.686
13920TIP3   OH241702   1.941   7.047   6.499
13920TIP3    H141703   1.924   7.108   6.427
13920TIP3    H241704   1.956   6.963   6.455
13921TIP3   OH241705   4.564   5.318   3.173
13921TIP3    H141706   4.545   5.399   3.222
13921TIP3    H241707   4.595   5.349   3.088
13922TIP3   OH241708   8.043   7.269   1.194
13922TIP3    H141709   8.112   7.283   1.128
13922TIP3    H241710   8.078   7.309   1.274
13923TIP3   OH241711   0.180   6.251   0.179
13923TIP3    H141712   0.150   6.341   0.179
13923TIP3    H241713   0.114   6.203   0.229
13924TIP3   OH241714   6.517   1.117   5.250
13924TIP3    H141715   6.606   1.147   5.232
13924TIP3    H241716   6.464   1.157   5.180
13925TIP3   OH241717   0.240   6.557   0.475
13925TIP3    H141718   0.211   6.487   0.533
13925TIP3    H241719   0.280   6.621   0.533
13926TIP3   OH241720   2.243   7.517   0.667
13926TIP3    H141721   2.206   7.602   0.692
13926TIP3    H241722   2.275   7.480   0.749
13927TIP3   OH241723   5.070   5.654   1.331
13927TIP3    H141724   5.025   5.736   1.314
13927TIP3    H241725   5.001   5.594   1.359
13928TIP3   OH241726   5.980   5.540   2.464
13928TIP3    H141727   5.991   5.461   2.411
13928TIP3    H241728   5.982   5.508   2.555
13929TIP3   OH241729   3.107   1.986   3.073
13929TIP3    H141730   3.093   2.080   3.067
13929TIP3    H241731   3.202   1.976   3.079
13930TIP3   OH241732   7.002   2.672   2.716
13930TIP3    H141733   7.014   2.750   2.770
13930TIP3    H241734   7.016   2.598   2.776
13931TIP3   OH241735   3.621   1.021   2.179
13931TIP3    H141736   3.573   0.952   2.225
13931TIP3    H241737   3.589   1.017   2.089
13932TIP3   OH241738   2.194   6.743   1.465
13932TIP3    H141739   2.190   6.773   1.374
13932TIP3    H241740   2.126   6.676   1.472
13933TIP3   OH241741   2.742   2.717   1.422
13933TIP3    H141742   2.825   2.670   1.424
13933TIP3    H241743   2.762   2.802   1.460
13934TIP3   OH241744   0.332   4.794   2.255
13934TIP3    H141745   0.344   4.729   2.186
13934TIP3    H241746   0.340   4.878   2.211
13935TIP3   OH241747   5.507   0.129   6.030
13935TIP3    H141748   5.501   0.155   5.938
13935TIP3    H241749   5.468   0.202   6.079
13936TIP3   OH241750   3.790   7.480   2.630
13936TIP3    H141751   3.868   7.426   2.645
13936TIP3    H241752   3.722   7.418   2.604
13937TIP3   OH241753   1.876   1.259   2.755
13937TIP3    H141754   1.808   1.211   2.802
13937TIP3    H241755   1.926   1.192   2.708
13938TIP3   OH241756   6.415   3.067   6.642
13938TIP3    H141757   6.491   3.122   6.627
13938TIP3    H241758   6.430   2.990   6.586
13939TIP3   OH241759   5.077   0.853   6.327
13939TIP3    H141760   5.013   0.876   6.260
13939TIP3    H241761   5.134   0.930   6.333
13940TIP3   OH241762   5.106   1.084   2.216
13940TIP3    H141763   5.100   0.992   2.244
13940TIP3    H241764   5.111   1.134   2.298
13941TIP3   OH241765   1.501   6.863   4.172
13941TIP3    H141766   1.530   6.817   4.251
13941TIP3    H241767   1.564   6.836   4.105
13942TIP3   OH241768   6.229   5.366   4.781
13942TIP3    H141769   6.280   5.315   4.719
13942TIP3    H241770   6.282   5.368   4.861
13943TIP3   OH241771   8.003   1.616   1.303
13943TIP3    H141772   7.942   1.569   1.246
13943TIP3    H241773   7.988   1.709   1.282
13944TIP3   OH241774   7.747   7.139   3.002
13944TIP3    H141775   7.810   7.202   2.970
13944TIP3    H241776   7.687   7.190   3.057
13945TIP3   OH241777   1.705   3.337   1.155
13945TIP3    H141778   1.633   3.391   1.187
13945TIP3    H241779   1.670   3.248   1.154
13946TIP3   OH241780   7.894   4.419   4.216
13946TIP3    H141781   7.835   4.454   4.149
13946TIP3    H241782   7.902   4.326   4.195
13947TIP3   OH241783   1.567   1.426   5.557
13947TIP3    H141784   1.531   1.489   5.495
13947TIP3    H241785   1.509   1.430   5.633
13948TIP3   OH241786   7.403   0.935   0.736
13948TIP3    H141787   7.359   0.851   0.751
13948TIP3    H241788   7.496   0.915   0.745
13949TIP3   OH241789   4.651   6.037   5.912
13949TIP3    H141790   4.718   5.969   5.909
13949TIP3    H241791   4.699   6.119   5.915
13950TIP3   OH241792   6.254   3.658   4.718
13950TIP3    H141793   6.186   3.646   4.785
13950TIP3    H241794   6.207   3.688   4.641
13951TIP3   OH241795   7.695   7.037   1.630
13951TIP3    H141796   7.762   6.993   1.682
13951TIP3    H241797   7.660   6.970   1.573
13952TIP3   OH241798   4.247   6.770   5.169
13952TIP3    H141799   4.268   6.679   5.189
13952TIP3    H241800   4.222   6.768   5.076
13953TIP3   OH241801   2.381   4.415   2.533
13953TIP3    H141802   2.354   4.417   2.625
13953TIP3    H241803   2.332   4.341   2.496
13954TIP3   OH241804   6.324   0.314   6.294
13954TIP3    H141805   6.247   0.262   6.316
13954TIP3    H241806   6.319   0.390   6.353
13955TIP3   OH241807   1.501   2.897   0.844
13955TIP3    H141808   1.488   2.968   0.781
13955TIP3    H241809   1.449   2.825   0.810
13956TIP3   OH241810   3.045   5.304   1.825
13956TIP3    H141811   2.962   5.350   1.809
13956TIP3    H241812   3.019   5.223   1.868
13957TIP3   OH241813   7.292   3.204   5.781
13957TIP3    H141814   7.372   3.165   5.748
13957TIP3    H241815   7.240   3.130   5.813
13958TIP3   OH241816   6.584   2.264   6.042
13958TIP3    H141817   6.540   2.296   5.963
13958TIP3    H241818   6.658   2.324   6.054
13959TIP3   OH241819   3.844   4.382   0.791
13959TIP3    H141820   3.753   4.398   0.766
13959TIP3    H241821   3.895   4.444   0.740
13960TIP3   OH241822   7.560   4.823   6.294
13960TIP3    H141823   7.547   4.794   6.384
13960TIP3    H241824   7.488   4.884   6.278
13961TIP3   OH241825   0.876   5.253   1.854
13961TIP3    H141826   0.848   5.166   1.825
13961TIP3    H241827   0.890   5.302   1.773
13962TIP3   OH241828   0.856   1.649   4.704
13962TIP3    H141829   0.767   1.685   4.705
13962TIP3    H241830   0.850   1.571   4.759
13963TIP3   OH241831   7.533   4.900   5.975
13963TIP3    H141832   7.545   4.995   5.979
13963TIP3    H241833   7.610   4.864   6.020
13964TIP3   OH241834   3.129   6.249   1.856
13964TIP3    H141835   3.047   6.289   1.826
13964TIP3    H241836   3.197   6.302   1.815
13965TIP3   OH241837   8.217   3.541   0.739
13965TIP3    H141838   8.226   3.631   0.772
13965TIP3    H241839   8.151   3.501   0.795
13966TIP3   OH241840   3.497   1.698   3.697
13966TIP3    H141841   3.502   1.788   3.729
13966TIP3    H241842   3.581   1.659   3.722
13967TIP3   OH241843   5.755   6.835   3.988
13967TIP3    H141844   5.807   6.866   3.914
13967TIP3    H241845   5.793   6.751   4.011
13968TIP3   OH241846   3.889   3.863   5.882
13968TIP3    H141847   3.963   3.805   5.903
13968TIP3    H241848   3.890   3.869   5.787
13969TIP3   OH241849   4.613   7.469   3.081
13969TIP3    H141850   4.520   7.483   3.102
13969TIP3    H241851   4.615   7.461   2.986
13970TIP3   OH241852   0.620   3.062   2.347
13970TIP3    H141853   0.637   2.969   2.356
13970TIP3    H241854   0.533   3.075   2.385
13971TIP3   OH241855   7.960   0.300   4.417
13971TIP3    H141856   8.025   0.247   4.463
13971TIP3    H241857   7.931   0.365   4.481
13972TIP3   OH241858   3.992   0.761   4.975
13972TIP3    H141859   3.925   0.808   5.025
13972TIP3    H241860   4.059   0.826   4.957
13973TIP3   OH241861   7.578   5.670   1.030
13973TIP3    H141862   7.521   5.631   1.096
13973TIP3    H241863   7.605   5.597   0.974
13974TIP3   OH241864   7.772   4.382   2.374
13974TIP3    H141865   7.744   4.470   2.397
13974TIP3    H241866   7.834   4.394   2.302
13975TIP3   OH241867   3.882   6.478   4.409
13975TIP3    H141868   3.899   6.528   4.329
13975TIP3    H241869   3.954   6.415   4.413
13976TIP3   OH241870   7.817   3.820   0.285
13976TIP3    H141871   7.723   3.833   0.295
13976TIP3    H241872   7.831   3.825   0.190
13977TIP3   OH241873   7.520   0.471   3.051
13977TIP3    H141874   7.454   0.504   2.990
13977TIP3    H241875   7.497   0.511   3.135
13978TIP3   OH241876   0.320   2.611   2.747
13978TIP3    H141877   0.281   2.663   2.677
13978TIP3    H241878   0.414   2.623   2.736
13979TIP3   OH241879   0.315   2.866   1.612
13979TIP3    H141880   0.325   2.808   1.687
13979TIP3    H241881   0.241   2.830   1.563
13980TIP3   OH241882   3.149   1.800   4.999
13980TIP3    H141883   3.238   1.793   4.966
13980TIP3    H241884   3.133   1.894   5.006
13981TIP3   OH241885   4.040   5.697   5.282
13981TIP3    H141886   3.970   5.718   5.221
13981TIP3    H241887   4.098   5.639   5.232
13982TIP3   OH241888   6.491   2.745   3.836
13982TIP3    H141889   6.510   2.827   3.791
13982TIP3    H241890   6.572   2.723   3.882
13983TIP3   OH241891   0.441   0.809   2.034
13983TIP3    H141892   0.405   0.722   2.050
13983TIP3    H241893   0.382   0.847   1.968
13984TIP3   OH241894   2.080   2.947   5.207
13984TIP3    H141895   2.026   2.901   5.143
13984TIP3    H241896   2.065   3.040   5.190
13985TIP3   OH241897   0.927   5.105   4.369
13985TIP3    H141898   0.924   5.011   4.353
13985TIP3    H241899   0.844   5.138   4.335
13986TIP3   OH241900   2.023   4.054   3.709
13986TIP3    H141901   1.988   4.057   3.799
13986TIP3    H241902   2.099   3.997   3.715
13987TIP3   OH241903   7.366   0.613   3.968
13987TIP3    H141904   7.434   0.669   4.005
13987TIP3    H241905   7.405   0.579   3.887
13988TIP3   OH241906   1.389   7.057   2.550
13988TIP3    H141907   1.409   7.113   2.625
13988TIP3    H241908   1.343   6.982   2.588
13989TIP3   OH241909   5.506   0.159   2.994
13989TIP3    H141910   5.508   0.223   2.924
13989TIP3    H241911   5.423   0.112   2.982
13990TIP3   OH241912   6.240   4.274   0.880
13990TIP3    H141913   6.165   4.289   0.823
13990TIP3    H241914   6.284   4.198   0.843
13991TIP3   OH241915   3.197   7.148   6.065
13991TIP3    H141916   3.216   7.240   6.084
13991TIP3    H241917   3.275   7.115   6.021
13992TIP3   OH241918   3.175   7.657   6.170
13992TIP3    H141919   3.260   7.697   6.193
13992TIP3    H241920   3.127   7.727   6.126
13993TIP3   OH241921   7.661   5.355   3.513
13993TIP3    H141922   7.738   5.302   3.493
13993TIP3    H241923   7.683   5.443   3.481
13994TIP3   OH241924   1.034   2.264   3.752
13994TIP3    H141925   1.006   2.313   3.830
13994TIP3    H241926   0.993   2.311   3.680
13995TIP3   OH241927   7.765   2.309   6.597
13995TIP3    H141928   7.728   2.245   6.658
13995TIP3    H241929   7.728   2.286   6.512
13996TIP3   OH241930   6.583   1.462   2.595
13996TIP3    H141931   6.676   1.485   2.595
13996TIP3    H241932   6.581   1.368   2.611
13997TIP3   OH241933   0.584   0.260   3.290
13997TIP3    H141934   0.640   0.208   3.349
13997TIP3    H241935   0.560   0.199   3.221
13998TIP3   OH241936   1.795   4.786   1.632
13998TIP3    H141937   1.840   4.869   1.647
13998TIP3    H241938   1.718   4.789   1.688
13999TIP3   OH241939   8.105   5.961   6.121
13999TIP3    H141940   8.018   5.953   6.161
13999TIP3    H241941   8.147   5.877   6.138
14000TIP3   OH241942   2.903   1.651   1.423
14000TIP3    H141943   2.937   1.562   1.411
14000TIP3    H241944   2.888   1.659   1.517
14001TIP3   OH241945   6.297   0.739   3.191
14001TIP3    H141946   6.300   0.715   3.098
14001TIP3    H241947   6.233   0.680   3.229
14002TIP3   OH241948   4.910   5.179   4.282
14002TIP3    H141949   4.899   5.176   4.187
14002TIP3    H241950   5.005   5.178   4.295
14003TIP3   OH241951   4.739   4.211   0.515
14003TIP3    H141952   4.814   4.176   0.467
14003TIP3    H241953   4.779   4.262   0.587
14004TIP3   OH241954   4.850   5.473   1.693
14004TIP3    H141955   4.889   5.387   1.680
14004TIP3    H241956   4.921   5.535   1.671
14005TIP3   OH241957   3.151   6.214   4.177
14005TIP3    H141958   3.102   6.151   4.125
14005TIP3    H241959   3.172   6.167   4.258
14006TIP3   OH241960   0.565   4.406   3.756
14006TIP3    H141961   0.613   4.339   3.803
14006TIP3    H241962   0.631   4.469   3.728
14007TIP3   OH241963   5.201   1.763   4.276
14007TIP3    H141964   5.192   1.847   4.231
14007TIP3    H241965   5.272   1.776   4.338
14008TIP3   OH241966   2.397   6.104   3.076
14008TIP3    H141967   2.470   6.124   3.016
14008TIP3    H241968   2.413   6.014   3.104
14009TIP3   OH241969   3.098   6.993   5.173
14009TIP3    H141970   3.050   6.914   5.199
14009TIP3    H241971   3.067   7.061   5.233
14010TIP3   OH241972   1.096   7.243   2.925
14010TIP3    H141973   1.063   7.260   2.837
14010TIP3    H241974   1.098   7.328   2.968
14011TIP3   OH241975   3.871   4.500   2.739
14011TIP3    H141976   3.794   4.462   2.783
14011TIP3    H241977   3.938   4.503   2.807
14012TIP3   OH241978   5.085   1.091   0.793
14012TIP3    H141979   5.041   1.166   0.753
14012TIP3    H241980   5.060   1.017   0.738
14013TIP3   OH241981   2.546   4.565   0.451
14013TIP3    H141982   2.589   4.542   0.368
14013TIP3    H241983   2.462   4.519   0.448
14014TIP3   OH241984   3.463   1.171   4.452
14014TIP3    H141985   3.537   1.203   4.401
14014TIP3    H241986   3.478   1.206   4.540
14015TIP3   OH241987   3.025   4.775   6.585
14015TIP3    H141988   2.946   4.722   6.598
14015TIP3    H241989   2.991   4.864   6.574
14016TIP3   OH241990   4.018   3.089   1.423
14016TIP3    H141991   4.060   3.161   1.376
14016TIP3    H241992   4.076   3.070   1.496
14017TIP3   OH241993   1.911   4.096   5.277
14017TIP3    H141994   2.000   4.070   5.255
14017TIP3    H241995   1.860   4.016   5.272
14018TIP3   OH241996   3.997   2.041   1.469
14018TIP3    H141997   3.985   2.011   1.559
14018TIP3    H241998   4.089   2.024   1.450
14019TIP3   OH241999   3.583   3.194   4.345
14019TIP3    H142000   3.516   3.127   4.334
14019TIP3    H242001   3.644   3.179   4.273
14020TIP3   OH242002   7.235   7.217   5.204
14020TIP3    H142003   7.211   7.309   5.217
14020TIP3    H242004   7.156   7.177   5.167
14021TIP3   OH242005   0.536   3.411   1.105
14021TIP3    H142006   0.515   3.335   1.159
14021TIP3    H242007   0.632   3.414   1.104
14022TIP3   OH242008   4.834   7.016   5.419
14022TIP3    H142009   4.863   6.991   5.506
14022TIP3    H242010   4.810   6.933   5.377
14023TIP3   OH242011   1.657   3.347   6.361
14023TIP3    H142012   1.588   3.382   6.304
14023TIP3    H242013   1.739   3.377   6.321
14024TIP3   OH242014   4.523   2.819   2.532
14024TIP3    H142015   4.433   2.851   2.527
14024TIP3    H242016   4.565   2.876   2.596
14025TIP3   OH242017   3.556   1.248   0.245
14025TIP3    H142018   3.601   1.215   0.322
14025TIP3    H242019   3.477   1.195   0.238
14026TIP3   OH242020   7.899   7.626   4.563
14026TIP3    H142021   7.844   7.685   4.614
14026TIP3    H242022   7.930   7.560   4.626
14027TIP3   OH242023   0.922   0.403   0.886
14027TIP3    H142024   0.985   0.385   0.956
14027TIP3    H242025   0.886   0.489   0.908
14028TIP3   OH242026   7.258   4.365   2.547
14028TIP3    H142027   7.220   4.292   2.498
14028TIP3    H242028   7.270   4.331   2.636
14029TIP3   OH242029   7.518   5.116   2.688
14029TIP3    H142030   7.570   5.082   2.616
14029TIP3    H242031   7.527   5.050   2.757
14030TIP3   OH242032   0.424   0.553   3.532
14030TIP3    H142033   0.497   0.527   3.476
14030TIP3    H242034   0.346   0.540   3.479
14031TIP3   OH242035   2.953   1.323   3.634
14031TIP3    H142036   2.980   1.333   3.543
14031TIP3    H242037   2.958   1.229   3.651
14032TIP3   OH242038   6.599   2.267   0.223
14032TIP3    H142039   6.599   2.358   0.193
14032TIP3    H242040   6.509   2.250   0.250
14033TIP3   OH242041   7.989   2.930   1.852
14033TIP3    H142042   7.903   2.967   1.831
14033TIP3    H242043   8.037   2.933   1.769
14034TIP3   OH242044   7.998   7.099   5.845
14034TIP3    H142045   7.909   7.063   5.842
14034TIP3    H242046   8.022   7.095   5.938
14035TIP3   OH242047   5.253   6.419   2.495
14035TIP3    H142048   5.191   6.346   2.485
14035TIP3    H242049   5.219   6.467   2.571
14036TIP3   OH242050   0.431   0.926   4.488
14036TIP3    H142051   0.469   0.988   4.549
14036TIP3    H242052   0.455   0.958   4.401
14037TIP3   OH242053   3.978   3.983   1.316
14037TIP3    H142054   4.045   3.923   1.350
14037TIP3    H242055   3.966   4.047   1.385
14038TIP3   OH242056   1.213   6.635   4.753
14038TIP3    H142057   1.187   6.549   4.787
14038TIP3    H242058   1.309   6.633   4.756
14039TIP3   OH242059   3.559   7.483   4.827
14039TIP3    H142060   3.572   7.392   4.856
14039TIP3    H242061   3.564   7.535   4.907
14040TIP3   OH242062   5.759   6.974   2.967
14040TIP3    H142063   5.703   6.989   2.891
14040TIP3    H242064   5.845   6.956   2.931
14041TIP3   OH242065   1.484   4.855   4.559
14041TIP3    H142066   1.491   4.910   4.480
14041TIP3    H242067   1.469   4.767   4.525
14042TIP3   OH242068   5.221   4.904   5.253
14042TIP3    H142069   5.304   4.860   5.276
14042TIP3    H242070   5.227   4.989   5.295
14043TIP3   OH242071   3.941   5.808   2.521
14043TIP3    H142072   3.939   5.808   2.425
14043TIP3    H242073   4.035   5.807   2.542
14044TIP3   OH242074   2.574   5.690   6.598
14044TIP3    H142075   2.610   5.772   6.562
14044TIP3    H242076   2.554   5.711   6.689
14045TIP3   OH242077   4.301   6.012   4.670
14045TIP3    H142078   4.361   6.061   4.613
14045TIP3    H242079   4.245   5.964   4.609
14046TIP3   OH242080   4.702   3.522   2.815
14046TIP3    H142081   4.717   3.476   2.898
14046TIP3    H242082   4.783   3.511   2.766
14047TIP3   OH242083   5.419   3.732   4.942
14047TIP3    H142084   5.458   3.645   4.939
14047TIP3    H242085   5.361   3.730   5.018
14048TIP3   OH242086   7.579   5.996   2.664
14048TIP3    H142087   7.487   6.020   2.671
14048TIP3    H242088   7.616   6.021   2.748
14049TIP3   OH242089   7.009   3.908   4.642
14049TIP3    H142090   6.963   3.989   4.619
14049TIP3    H242091   6.974   3.885   4.728
14050TIP3   OH242092   6.633   2.532   0.177
14050TIP3    H142093   6.664   2.572   0.095
14050TIP3    H242094   6.625   2.605   0.238
14051TIP3   OH242095   6.939   6.195   0.435
14051TIP3    H142096   6.844   6.201   0.442
14051TIP3    H242097   6.955   6.108   0.399
14052TIP3   OH242098   0.261   3.123   5.813
14052TIP3    H142099   0.195   3.061   5.782
14052TIP3    H242100   0.300   3.158   5.733
14053TIP3   OH242101   3.670   1.291   1.237
14053TIP3    H142102   3.601   1.349   1.269
14053TIP3    H242103   3.746   1.348   1.223
14054TIP3   OH242104   2.276   2.754   3.147
14054TIP3    H142105   2.235   2.675   3.182
14054TIP3    H242106   2.219   2.826   3.177
14055TIP3   OH242107   5.231   2.057   6.374
14055TIP3    H142108   5.135   2.057   6.383
14055TIP3    H242109   5.252   1.967   6.347
14056TIP3   OH242110   5.870   4.097   4.280
14056TIP3    H142111   5.808   4.101   4.207
14056TIP3    H242112   5.815   4.097   4.358
14057TIP3   OH242113   4.830   6.909   1.744
14057TIP3    H142114   4.738   6.910   1.769
14057TIP3    H242115   4.873   6.855   1.811
14058TIP3   OH242116   0.759   1.015   4.829
14058TIP3    H142117   0.835   1.030   4.885
14058TIP3    H242118   0.747   0.920   4.830
14059TIP3   OH242119   6.088   3.256   0.151
14059TIP3    H142120   6.143   3.189   0.112
14059TIP3    H242121   6.037   3.291   0.078
14060TIP3   OH242122   5.758   2.089   6.045
14060TIP3    H142123   5.844   2.046   6.046
14060TIP3    H242124   5.702   2.028   5.997
14061TIP3   OH242125   3.788   7.472   1.087
14061TIP3    H142126   3.739   7.548   1.117
14061TIP3    H242127   3.783   7.476   0.991
14062TIP3   OH242128   1.478   4.652   2.158
14062TIP3    H142129   1.424   4.729   2.136
14062TIP3    H242130   1.454   4.587   2.092
14063TIP3   OH242131   2.109   0.490   0.252
14063TIP3    H142132   2.020   0.454   0.244
14063TIP3    H242133   2.157   0.452   0.178
14064TIP3   OH242134   3.948   4.225   2.656
14064TIP3    H142135   3.961   4.293   2.589
14064TIP3    H242136   3.859   4.195   2.642
14065TIP3   OH242137   5.253   3.013   2.652
14065TIP3    H142138   5.161   3.031   2.673
14065TIP3    H242139   5.267   2.923   2.682
14066TIP3   OH242140   5.591   2.239   6.207
14066TIP3    H142141   5.659   2.199   6.153
14066TIP3    H242142   5.627   2.239   6.295
14067TIP3   OH242143   0.261   1.696   5.603
14067TIP3    H142144   0.176   1.652   5.603
14067TIP3    H242145   0.289   1.694   5.695
14068TIP3   OH242146   4.838   0.085   6.310
14068TIP3    H142147   4.802   0.099   6.398
14068TIP3    H242148   4.762   0.066   6.256
14069TIP3   OH242149   3.858   6.399   1.763
14069TIP3    H142150   3.774   6.358   1.743
14069TIP3    H242151   3.912   6.330   1.800
14070TIP3   OH242152   1.874   7.510   4.319
14070TIP3    H142153   1.843   7.598   4.297
14070TIP3    H242154   1.860   7.459   4.240
14071TIP3   OH242155   3.671   6.927   2.259
14071TIP3    H142156   3.593   6.892   2.300
14071TIP3    H242157   3.676   6.883   2.174
14072TIP3   OH242158   4.440   7.159   3.784
14072TIP3    H142159   4.517   7.146   3.729
14072TIP3    H242160   4.431   7.077   3.832
14073TIP3   OH242161   5.279   4.589   1.452
14073TIP3    H142162   5.261   4.516   1.392
14073TIP3    H242163   5.325   4.549   1.525
14074TIP3   OH242164   7.889   7.515   5.723
14074TIP3    H142165   7.959   7.452   5.707
14074TIP3    H242166   7.917   7.563   5.801
14075TIP3   OH242167   2.117   5.754   3.581
14075TIP3    H142168   2.036   5.805   3.581
14075TIP3    H242169   2.090   5.666   3.554
14076TIP3   OH242170   4.630   4.870   2.615
14076TIP3    H142171   4.602   4.856   2.705
14076TIP3    H242172   4.565   4.824   2.562
14077TIP3   OH242173   0.665   6.334   6.252
14077TIP3    H142174   0.578   6.320   6.288
14077TIP3    H242175   0.699   6.246   6.235
14078TIP3   OH242176   0.086   2.656   2.210
14078TIP3    H142177   0.097   2.693   2.298
14078TIP3    H242178   0.074   2.732   2.153
14079TIP3   OH242179   6.009   1.279   5.898
14079TIP3    H142180   6.082   1.309   5.844
14079TIP3    H242181   5.978   1.358   5.943
14080TIP3   OH242182   2.617   2.104   2.792
14080TIP3    H142183   2.521   2.111   2.790
14080TIP3    H242184   2.634   2.010   2.788
14081TIP3   OH242185   4.360   4.889   1.040
14081TIP3    H142186   4.285   4.934   1.001
14081TIP3    H242187   4.330   4.799   1.054
14082TIP3   OH242188   1.269   7.417   2.522
14082TIP3    H142189   1.195   7.464   2.484
14082TIP3    H242190   1.302   7.362   2.451
14083TIP3   OH242191   2.985   5.493   4.424
14083TIP3    H142192   2.958   5.533   4.342
14083TIP3    H242193   3.028   5.412   4.399
14084TIP3   OH242194   0.730   1.843   2.492
14084TIP3    H142195   0.768   1.875   2.411
14084TIP3    H242196   0.667   1.910   2.517
14085TIP3   OH242197   2.121   5.705   5.631
14085TIP3    H142198   2.080   5.624   5.662
14085TIP3    H242199   2.206   5.678   5.598
14086TIP3   OH242200   1.353   7.303   1.495
14086TIP3    H142201   1.288   7.236   1.473
14086TIP3    H242202   1.379   7.283   1.585
14087TIP3   OH242203   0.177   6.586   1.447
14087TIP3    H142204   0.185   6.556   1.357
14087TIP3    H242205   0.181   6.507   1.500
14088TIP3   OH242206   5.744   5.019   6.584
14088TIP3    H142207   5.708   4.930   6.580
14088TIP3    H242208   5.709   5.055   6.665
14089TIP3   OH242209   5.336   6.665   5.250
14089TIP3    H142210   5.396   6.624   5.312
14089TIP3    H242211   5.342   6.759   5.269
14090TIP3   OH242212   3.072   4.841   3.856
14090TIP3    H142213   2.998   4.818   3.800
14090TIP3    H242214   3.079   4.936   3.849
14091TIP3   OH242215   2.265   7.151   5.878
14091TIP3    H142216   2.181   7.130   5.837
14091TIP3    H242217   2.325   7.085   5.844
14092TIP3   OH242218   0.036   0.837   0.987
14092TIP3    H142219   0.130   0.833   0.968
14092TIP3    H242220  -0.001   0.889   0.916
14093TIP3   OH242221   0.324   7.747   3.387
14093TIP3    H142222   0.410   7.704   3.391
14093TIP3    H242223   0.273   7.693   3.326
14094TIP3   OH242224   7.313   1.847   6.041
14094TIP3    H142225   7.310   1.941   6.060
14094TIP3    H242226   7.403   1.830   6.014
14095TIP3   OH242227   0.268   0.692   4.445
14095TIP3    H142228   0.259   0.642   4.525
14095TIP3    H242229   0.309   0.775   4.472
14096TIP3   OH242230   0.310   0.963   6.497
14096TIP3    H142231   0.263   1.015   6.562
14096TIP3    H242232   0.402   0.983   6.511
14097TIP3   OH242233   3.646   6.588   1.423
14097TIP3    H142234   3.716   6.556   1.480
14097TIP3    H242235   3.654   6.683   1.427
14098TIP3   OH242236   2.296   4.868   3.651
14098TIP3    H142237   2.321   4.788   3.606
14098TIP3    H242238   2.209   4.849   3.688
14099TIP3   OH242239   4.610   1.962   5.942
14099TIP3    H142240   4.627   1.879   5.897
14099TIP3    H242241   4.630   2.029   5.877
14100TIP3   OH242242   2.575   7.007   6.449
14100TIP3    H142243   2.570   7.028   6.356
14100TIP3    H242244   2.499   6.950   6.465
14101TIP3   OH242245   2.142   3.525   6.492
14101TIP3    H142246   2.159   3.438   6.456
14101TIP3    H242247   2.189   3.585   6.434
14102TIP3   OH242248   3.048   1.287   1.759
14102TIP3    H142249   3.020   1.247   1.676
14102TIP3    H242250   3.144   1.281   1.756
14103TIP3   OH242251   6.132   0.192   0.723
14103TIP3    H142252   6.174   0.106   0.718
14103TIP3    H242253   6.039   0.174   0.711
14104TIP3   OH242254   1.871   3.320   2.787
14104TIP3    H142255   1.805   3.363   2.734
14104TIP3    H242256   1.909   3.254   2.729
14105TIP3   OH242257   0.175   6.286   0.528
14105TIP3    H142258   0.123   6.260   0.604
14105TIP3    H242259   0.112   6.288   0.456
14106TIP3   OH242260   2.360   2.605   1.304
14106TIP3    H142261   2.301   2.577   1.374
14106TIP3    H242262   2.321   2.569   1.224
14107TIP3   OH242263   0.701   7.677   2.421
14107TIP3    H142264   0.744   7.729   2.353
14107TIP3    H242265   0.665   7.602   2.374
14108TIP3   OH242266   7.638   4.954   6.604
14108TIP3    H142267   7.716   4.992   6.644
14108TIP3    H242268   7.629   4.999   6.520
14109TIP3   OH242269   3.081   6.329   5.609
14109TIP3    H142270   3.002   6.337   5.556
14109TIP3    H242271   3.075   6.400   5.673
14110TIP3   OH242272   7.544   6.239   0.812
14110TIP3    H142273   7.488   6.183   0.758
14110TIP3    H242274   7.579   6.180   0.879
14111TIP3   OH242275   4.741   1.571   0.330
14111TIP3    H142276   4.705   1.563   0.418
14111TIP3    H242277   4.806   1.502   0.324
14112TIP3   OH242278   3.750   2.218   4.758
14112TIP3    H142279   3.753   2.194   4.666
14112TIP3    H242280   3.836   2.190   4.792
14113TIP3   OH242281   7.032   2.480   1.016
14113TIP3    H142282   7.023   2.511   0.926
14113TIP3    H242283   6.946   2.444   1.037
14114TIP3   OH242284   8.009  -0.018   6.540
14114TIP3    H142285   8.072  -0.013   6.468
14114TIP3    H242286   8.042   0.046   6.604
14115TIP3   OH242287   0.562   2.822   0.779
14115TIP3    H142288   0.639   2.782   0.819
14115TIP3    H242289   0.514   2.861   0.853
14116TIP3   OH242290   3.091   3.237   0.234
14116TIP3    H142291   2.999   3.219   0.213
14116TIP3    H242292   3.089   3.322   0.280
14117TIP3   OH242293   0.363   2.290   5.521
14117TIP3    H142294   0.416   2.347   5.576
14117TIP3    H242295   0.287   2.269   5.575
14118TIP3   OH242296   4.173   5.173   4.828
14118TIP3    H142297   4.212   5.213   4.750
14118TIP3    H242298   4.093   5.223   4.843
14119TIP3   OH242299   4.907   1.848   5.925
14119TIP3    H142300   4.910   1.787   5.999
14119TIP3    H242301   4.838   1.813   5.868
14120TIP3   OH242302   8.256   6.853   5.291
14120TIP3    H142303   8.237   6.851   5.197
14120TIP3    H242304   8.198   6.788   5.329
14121TIP3   OH242305   4.931   5.881   1.266
14121TIP3    H142306   4.909   5.894   1.173
14121TIP3    H242307   4.856   5.834   1.302
14122TIP3   OH242308   1.142   6.875   0.118
14122TIP3    H142309   1.155   6.783   0.139
14122TIP3    H242310   1.048   6.884   0.102
14123TIP3   OH242311   0.970   2.419   5.826
14123TIP3    H142312   0.907   2.376   5.885
14123TIP3    H242313   1.013   2.484   5.881
14124TIP3   OH242314   7.603   5.076   1.286
14124TIP3    H142315   7.688   5.108   1.316
14124TIP3    H242316   7.615   4.982   1.275
14125TIP3   OH242317   2.766   0.418   2.239
14125TIP3    H142318   2.761   0.488   2.173
14125TIP3    H242319   2.852   0.379   2.226
14126TIP3   OH242320   7.802   1.165   0.203
14126TIP3    H142321   7.766   1.109   0.134
14126TIP3    H242322   7.731   1.226   0.223
14127TIP3   OH242323   3.425   4.687   4.806
14127TIP3    H142324   3.518   4.674   4.784
14127TIP3    H242325   3.383   4.606   4.781
14128TIP3   OH242326   0.408   4.544   2.971
14128TIP3    H142327   0.435   4.628   2.934
14128TIP3    H242328   0.369   4.565   3.055
14129TIP3   OH242329   6.538   7.708   6.456
14129TIP3    H142330   6.568   7.796   6.432
14129TIP3    H242331   6.444   7.716   6.466
14130TIP3   OH242332   4.513   3.431   0.968
14130TIP3    H142333   4.519   3.373   0.892
14130TIP3    H242334   4.423   3.463   0.967
14131TIP3   OH242335   2.339   4.633   6.740
14131TIP3    H142336   2.318   4.673   6.655
14131TIP3    H242337   2.255   4.632   6.787
14132TIP3   OH242338   2.919   6.948   0.843
14132TIP3    H142339   2.890   6.934   0.753
14132TIP3    H242340   2.901   6.865   0.887
14133TIP3   OH242341   6.441   1.658   3.118
14133TIP3    H142342   6.522   1.683   3.162
14133TIP3    H242343   6.434   1.563   3.131
14134TIP3   OH242344   4.969   6.157   1.525
14134TIP3    H142345   4.894   6.190   1.476
14134TIP3    H242346   4.938   6.074   1.562
14135TIP3   OH242347   5.509   3.035   3.576
14135TIP3    H142348   5.508   2.975   3.501
14135TIP3    H242349   5.466   3.114   3.544
14136TIP3   OH242350   4.063   4.411   3.399
14136TIP3    H142351   4.102   4.333   3.439
14136TIP3    H242352   4.108   4.484   3.441
14137TIP3   OH242353   0.227   3.655   4.073
14137TIP3    H142354   0.163   3.586   4.052
14137TIP3    H242355   0.312   3.614   4.056
14138TIP3   OH242356   5.265   7.383   1.077
14138TIP3    H142357   5.182   7.418   1.108
14138TIP3    H242358   5.262   7.290   1.101
14139TIP3   OH242359   7.403   7.844   2.487
14139TIP3    H142360   7.435   7.793   2.561
14139TIP3    H242361   7.482   7.884   2.450
14140TIP3   OH242362   3.230   6.748   5.653
14140TIP3    H142363   3.315   6.703   5.651
14140TIP3    H242364   3.194   6.726   5.739
14141TIP3   OH242365   6.558   5.979   2.122
14141TIP3    H142366   6.491   5.955   2.058
14141TIP3    H242367   6.563   5.904   2.181
14142TIP3   OH242368   0.649   7.077   2.479
14142TIP3    H142369   0.705   7.021   2.532
14142TIP3    H242370   0.694   7.082   2.394
14143TIP3   OH242371   4.825   7.387   0.374
14143TIP3    H142372   4.781   7.319   0.323
14143TIP3    H242373   4.835   7.350   0.461
14144TIP3   OH242374   6.756   0.224   6.102
14144TIP3    H142375   6.696   0.204   6.173
14144TIP3    H242376   6.701   0.236   6.025
14145TIP3   OH242377   4.552   7.059   1.350
14145TIP3    H142378   4.575   7.144   1.389
14145TIP3    H242379   4.523   7.006   1.424
14146TIP3   OH242380   0.878   6.720   5.371
14146TIP3    H142381   0.895   6.814   5.368
14146TIP3    H242382   0.957   6.683   5.411
14147TIP3   OH242383   4.473   7.684   3.696
14147TIP3    H142384   4.424   7.685   3.613
14147TIP3    H242385   4.513   7.598   3.699
14148TIP3   OH242386   7.998   5.105   0.549
14148TIP3    H142387   8.087   5.137   0.562
14148TIP3    H242388   7.943   5.182   0.566
14149TIP3   OH242389   1.797   2.938   1.269
14149TIP3    H142390   1.753   2.984   1.197
14149TIP3    H242391   1.863   2.884   1.225
14150TIP3   OH242392   0.301   5.746   4.960
14150TIP3    H142393   0.327   5.760   5.051
14150TIP3    H242394   0.370   5.690   4.924
14151TIP3   OH242395   2.154   4.189   4.676
14151TIP3    H142396   2.060   4.197   4.659
14151TIP3    H242397   2.159   4.143   4.760
14152TIP3   OH242398   4.934   5.989   1.916
14152TIP3    H142399   4.922   6.081   1.889
14152TIP3    H242400   4.887   5.983   2.000
14153TIP3   OH242401   1.089   5.776   2.237
14153TIP3    H142402   1.072   5.715   2.166
14153TIP3    H242403   1.176   5.752   2.270
14154TIP3   OH242404   0.669   7.134   6.034
14154TIP3    H142405   0.610   7.158   5.962
14154TIP3    H242406   0.748   7.186   6.019
14155TIP3   OH242407   4.955   4.813   2.217
14155TIP3    H142408   5.012   4.766   2.278
14155TIP3    H242409   4.895   4.862   2.272
14156TIP3   OH242410   1.344   1.291   5.332
14156TIP3    H142411   1.389   1.207   5.332
14156TIP3    H242412   1.384   1.340   5.260
14157TIP3   OH242413   1.081   0.787   1.483
14157TIP3    H142414   1.083   0.691   1.480
14157TIP3    H242415   1.016   0.812   1.418
14158TIP3   OH242416   5.809   4.374   4.030
14158TIP3    H142417   5.855   4.441   4.080
14158TIP3    H242418   5.840   4.385   3.940
14159TIP3   OH242419   7.597   5.203   5.084
14159TIP3    H142420   7.598   5.155   5.167
14159TIP3    H242421   7.584   5.295   5.109
14160TIP3   OH242422   6.064   2.340   1.996
14160TIP3    H142423   5.979   2.329   2.039
14160TIP3    H242424   6.109   2.257   2.012
14161TIP3   OH242425   5.121   5.078   3.100
14161TIP3    H142426   5.155   5.022   3.029
14161TIP3    H242427   5.084   5.153   3.055
14162TIP3   OH242428   5.680   1.634   2.196
14162TIP3    H142429   5.601   1.668   2.154
14162TIP3    H242430   5.679   1.540   2.176
14163TIP3   OH242431   2.690   5.503   4.003
14163TIP3    H142432   2.612   5.559   4.008
14163TIP3    H242433   2.735   5.519   4.086
14164TIP3   OH242434   1.881   2.806   5.062
14164TIP3    H142435   1.836   2.775   4.984
14164TIP3    H242436   1.874   2.734   5.124
14165TIP3   OH242437   4.795   5.856   5.560
14165TIP3    H142438   4.806   5.796   5.634
14165TIP3    H242439   4.700   5.862   5.549
14166TIP3   OH242440   2.256   2.595   1.060
14166TIP3    H142441   2.166   2.570   1.038
14166TIP3    H242442   2.310   2.525   1.025
14167TIP3   OH242443   1.119   7.698   2.470
14167TIP3    H142444   1.052   7.739   2.415
14167TIP3    H242445   1.181   7.660   2.408
14168TIP3   OH242446   3.016   0.213   1.720
14168TIP3    H142447   3.083   0.209   1.788
14168TIP3    H242448   2.957   0.283   1.748
14169TIP3   OH242449   2.477   6.218   2.169
14169TIP3    H142450   2.385   6.200   2.189
14169TIP3    H242451   2.488   6.311   2.187
14170TIP3   OH242452   4.886   2.957   4.031
14170TIP3    H142453   4.912   2.964   4.123
14170TIP3    H242454   4.900   2.865   4.009
14171TIP3   OH242455   1.365   2.184   1.356
14171TIP3    H142456   1.348   2.111   1.414
14171TIP3    H242457   1.355   2.262   1.411
14172TIP3   OH242458   1.820   5.285   1.377
14172TIP3    H142459   1.758   5.280   1.304
14172TIP3    H242460   1.796   5.364   1.424
14173TIP3   OH242461   1.629   7.583   4.030
14173TIP3    H142462   1.646   7.510   4.091
14173TIP3    H242463   1.574   7.643   4.080
14174TIP3   OH242464   6.159   6.266   2.536
14174TIP3    H142465   6.093   6.296   2.473
14174TIP3    H242466   6.114   6.199   2.588
14175TIP3   OH242467   1.538   6.783   5.094
14175TIP3    H142468   1.458   6.809   5.049
14175TIP3    H242469   1.597   6.858   5.084
14176TIP3   OH242470   7.298   6.129   6.505
14176TIP3    H142471   7.382   6.095   6.535
14176TIP3    H242472   7.296   6.109   6.411
14177TIP3   OH242473   0.399   6.937   4.981
14177TIP3    H142474   0.478   6.888   5.006
14177TIP3    H242475   0.386   6.917   4.889
14178TIP3   OH242476   2.847   7.478   5.297
14178TIP3    H142477   2.830   7.571   5.285
14178TIP3    H242478   2.941   7.468   5.282
14179TIP3   OH242479   4.762   4.756   0.528
14179TIP3    H142480   4.797   4.828   0.580
14179TIP3    H242481   4.693   4.795   0.475
14180TIP3   OH242482   3.510   1.532   0.965
14180TIP3    H142483   3.488   1.569   1.050
14180TIP3    H242484   3.426   1.525   0.920
14181TIP3   OH242485   5.251   0.610   2.128
14181TIP3    H142486   5.163   0.583   2.103
14181TIP3    H242487   5.305   0.592   2.051
14182TIP3   OH242488   3.137   2.753   6.297
14182TIP3    H142489   3.160   2.683   6.236
14182TIP3    H242490   3.169   2.833   6.256
14183TIP3   OH242491   5.924   7.449   6.695
14183TIP3    H142492   5.870   7.441   6.773
14183TIP3    H242493   5.952   7.359   6.676
14184TIP3   OH242494   3.237   0.231   1.497
14184TIP3    H142495   3.236   0.323   1.470
14184TIP3    H242496   3.203   0.231   1.586
14185TIP3   OH242497   8.031   0.181   0.633
14185TIP3    H142498   7.971   0.126   0.583
14185TIP3    H242499   7.980   0.260   0.652
14186TIP3   OH242500   3.112   2.788   1.284
14186TIP3    H142501   3.113   2.829   1.370
14186TIP3    H242502   3.138   2.857   1.224
14187TIP3   OH242503   4.367   2.239   5.285
14187TIP3    H142504   4.412   2.318   5.253
14187TIP3    H242505   4.334   2.264   5.371
14188TIP3   OH242506   5.558   0.965   4.524
14188TIP3    H142507   5.541   0.894   4.587
14188TIP3    H242508   5.511   0.938   4.445
14189TIP3   OH242509   2.814   7.155   4.347
14189TIP3    H142510   2.739   7.128   4.401
14189TIP3    H242511   2.791   7.242   4.315
14190TIP3   OH242512   5.136   4.858   1.211
14190TIP3    H142513   5.157   4.880   1.302
14190TIP3    H242514   5.220   4.861   1.166
14191TIP3   OH242515   5.601   0.557   5.724
14191TIP3    H142516   5.608   0.558   5.628
14191TIP3    H242517   5.636   0.642   5.751
14192TIP3   OH242518   7.344   4.468   6.390
14192TIP3    H142519   7.272   4.523   6.357
14192TIP3    H242520   7.411   4.473   6.321
14193TIP3   OH242521   5.147   0.946   0.278
14193TIP3    H142522   5.196   0.866   0.260
14193TIP3    H242523   5.058   0.927   0.250
14194TIP3   OH242524   3.960   1.402   2.754
14194TIP3    H142525   3.893   1.333   2.751
14194TIP3    H242526   3.943   1.454   2.675
14195TIP3   OH242527   6.481   3.426   2.612
14195TIP3    H142528   6.516   3.357   2.555
14195TIP3    H242529   6.550   3.442   2.675
14196TIP3   OH242530   4.487   3.436   2.656
14196TIP3    H142531   4.479   3.346   2.689
14196TIP3    H242532   4.566   3.469   2.698
14197TIP3   OH242533   1.305   7.217   5.709
14197TIP3    H142534   1.211   7.210   5.695
14197TIP3    H242535   1.343   7.145   5.659
14198TIP3   OH242536   4.030   5.292   0.817
14198TIP3    H142537   4.024   5.386   0.832
14198TIP3    H242538   4.113   5.280   0.771
14199TIP3   OH242539   2.548   3.076   4.736
14199TIP3    H142540   2.555   2.982   4.750
14199TIP3    H242541   2.620   3.113   4.787
14200TIP3   OH242542   0.565   7.603   3.366
14200TIP3    H142543   0.601   7.614   3.454
14200TIP3    H242544   0.641   7.581   3.312
14201TIP3   OH242545   0.215   7.226   2.353
14201TIP3    H142546   0.168   7.295   2.399
14201TIP3    H242547   0.279   7.194   2.417
14202TIP3   OH242548   3.331   6.045   4.740
14202TIP3    H142549   3.348   6.114   4.675
14202TIP3    H242550   3.272   5.984   4.695
14203TIP3   OH242551   2.279   6.869   1.694
14203TIP3    H142552   2.254   6.817   1.617
14203TIP3    H242553   2.345   6.930   1.661
14204TIP3   OH242554   7.082   6.012   2.290
14204TIP3    H142555   7.024   6.044   2.221
14204TIP3    H242556   7.167   6.052   2.270
14205TIP3   OH242557   7.278   4.468   0.279
14205TIP3    H142558   7.344   4.537   0.278
14205TIP3    H242559   7.296   4.419   0.360
14206TIP3   OH242560   2.405   5.795   3.585
14206TIP3    H142561   2.310   5.787   3.597
14206TIP3    H242562   2.432   5.709   3.553
14207TIP3   OH242563   4.505   4.804   2.185
14207TIP3    H142564   4.589   4.842   2.207
14207TIP3    H242565   4.520   4.709   2.185
14208TIP3   OH242566   4.180   3.907   3.084
14208TIP3    H142567   4.253   3.862   3.127
14208TIP3    H242568   4.103   3.856   3.108
14209TIP3   OH242569   1.388   0.840   0.169
14209TIP3    H142570   1.325   0.780   0.208
14209TIP3    H242571   1.408   0.801   0.083
14210TIP3   OH242572   1.442   7.231   5.204
14210TIP3    H142573   1.353   7.254   5.178
14210TIP3    H242574   1.497   7.258   5.130
14211TIP3   OH242575   7.778   3.978   6.341
14211TIP3    H142576   7.840   3.909   6.314
14211TIP3    H242577   7.725   3.994   6.263
14212TIP3   OH242578   1.179   1.272   6.452
14212TIP3    H142579   1.179   1.189   6.499
14212TIP3    H242580   1.217   1.335   6.513
14213TIP3   OH242581   4.660   4.449   6.045
14213TIP3    H142582   4.670   4.404   6.129
14213TIP3    H242583   4.640   4.539   6.069
14214TIP3   OH242584   1.850   1.194   1.699
14214TIP3    H142585   1.939   1.164   1.678
14214TIP3    H242586   1.854   1.289   1.689
14215TIP3   OH242587   1.557   1.398   3.421
14215TIP3    H142588   1.509   1.458   3.364
14215TIP3    H242589   1.646   1.432   3.423
14216TIP3   OH242590   3.468   1.788   5.177
14216TIP3    H142591   3.456   1.772   5.084
14216TIP3    H242592   3.496   1.879   5.183
14217TIP3   OH242593   3.310   7.167   0.313
14217TIP3    H142594   3.268   7.094   0.359
14217TIP3    H242595   3.340   7.130   0.231
14218TIP3   OH242596   1.763   3.732   4.103
14218TIP3    H142597   1.858   3.730   4.098
14218TIP3    H242598   1.743   3.687   4.186
14219TIP3   OH242599   3.062   5.805   3.886
14219TIP3    H142600   3.024   5.741   3.947
14219TIP3    H242601   3.067   5.758   3.803
14220TIP3   OH242602   3.580   3.015   1.740
14220TIP3    H142603   3.642   3.036   1.669
14220TIP3    H242604   3.591   2.921   1.754
14221TIP3   OH242605   0.157   2.185   2.421
14221TIP3    H142606   0.115   2.154   2.501
14221TIP3    H242607   0.177   2.277   2.439
14222TIP3   OH242608   2.585   6.707   4.977
14222TIP3    H142609   2.679   6.695   4.959
14222TIP3    H242610   2.554   6.760   4.904
14223TIP3   OH242611   5.393   1.295   3.086
14223TIP3    H142612   5.378   1.214   3.135
14223TIP3    H242613   5.321   1.352   3.111
14224TIP3   OH242614   3.148   3.730   1.977
14224TIP3    H142615   3.206   3.705   2.050
14224TIP3    H242616   3.145   3.825   1.980
14225TIP3   OH242617   3.200   5.926   1.346
14225TIP3    H142618   3.263   5.923   1.274
14225TIP3    H242619   3.140   5.997   1.323
14226TIP3   OH242620   8.218   2.409   6.629
14226TIP3    H142621   8.146   2.464   6.597
14226TIP3    H242622   8.178   2.353   6.696
14227TIP3   OH242623   2.463   3.829   2.822
14227TIP3    H142624   2.420   3.752   2.859
14227TIP3    H242625   2.538   3.794   2.774
14228TIP3   OH242626   5.498   5.556   3.732
14228TIP3    H142627   5.418   5.590   3.771
14228TIP3    H242628   5.504   5.466   3.763
14229TIP3   OH242629   3.453   7.319   6.366
14229TIP3    H142630   3.375   7.331   6.420
14229TIP3    H242631   3.518   7.282   6.427
14230TIP3   OH242632   0.447   3.976   2.732
14230TIP3    H142633   0.373   4.037   2.729
14230TIP3    H242634   0.516   4.024   2.776
14231TIP3   OH242635   6.552   2.484   0.669
14231TIP3    H142636   6.460   2.483   0.698
14231TIP3    H242637   6.572   2.577   0.657
14232TIP3   OH242638  -0.004   4.983   4.492
14232TIP3    H142639  -0.070   4.935   4.542
14232TIP3    H242640   0.046   5.031   4.559
14233TIP3   OH242641   4.281   4.221   2.377
14233TIP3    H142642   4.229   4.289   2.333
14233TIP3    H242643   4.228   4.196   2.453
14234TIP3   OH242644   0.900   0.888   0.348
14234TIP3    H142645   0.985   0.918   0.380
14234TIP3    H242646   0.895   0.796   0.375
14235TIP3   OH242647   5.953   4.458   6.212
14235TIP3    H142648   6.036   4.494   6.181
14235TIP3    H242649   5.896   4.459   6.134
14236TIP3   OH242650   0.119   1.888   3.107
14236TIP3    H142651   0.097   1.798   3.086
14236TIP3    H242652   0.159   1.923   3.027
14237TIP3   OH242653   6.695   6.894   5.325
14237TIP3    H142654   6.658   6.980   5.343
14237TIP3    H242655   6.640   6.857   5.256
14238TIP3   OH242656   7.748   3.311   0.381
14238TIP3    H142657   7.717   3.352   0.462
14238TIP3    H242658   7.752   3.383   0.317
14239TIP3   OH242659   2.813   7.287   2.025
14239TIP3    H142660   2.750   7.356   2.046
14239TIP3    H242661   2.829   7.297   1.931
14240TIP3   OH242662   1.813   1.263   0.754
14240TIP3    H142663   1.731   1.222   0.783
14240TIP3    H242664   1.860   1.194   0.708
14241TIP3   OH242665   0.386   6.505   4.556
14241TIP3    H142666   0.452   6.534   4.619
14241TIP3    H242667   0.404   6.557   4.478
14242TIP3   OH242668   0.227   2.460   6.137
14242TIP3    H142669   0.262   2.449   6.049
14242TIP3    H242670   0.211   2.371   6.168
14243TIP3   OH242671   6.324   3.098   2.208
14243TIP3    H142672   6.408   3.135   2.178
14243TIP3    H242673   6.317   3.126   2.299
14244TIP3   OH242674   8.011   3.627   2.077
14244TIP3    H142675   7.948   3.569   2.119
14244TIP3    H242676   8.091   3.575   2.071
14245TIP3   OH242677   5.765   6.247   4.886
14245TIP3    H142678   5.841   6.190   4.894
14245TIP3    H242679   5.692   6.196   4.923
14246TIP3   OH242680   5.292   4.050   1.905
14246TIP3    H142681   5.235   4.042   1.982
14246TIP3    H242682   5.241   4.102   1.843
14247TIP3   OH242683   5.639   1.592   2.477
14247TIP3    H142684   5.726   1.592   2.517
14247TIP3    H242685   5.655   1.605   2.384
14248TIP3   OH242686   0.689   2.502   0.071
14248TIP3    H142687   0.602   2.540   0.058
14248TIP3    H242688   0.701   2.499   0.166
14249TIP3   OH242689   4.706   5.234   2.361
14249TIP3    H142690   4.658   5.297   2.307
14249TIP3    H242691   4.677   5.252   2.450
14250TIP3   OH242692   1.277   1.543   1.373
14250TIP3    H142693   1.346   1.557   1.438
14250TIP3    H242694   1.324   1.518   1.293
14251TIP3   OH242695   0.242   2.339   2.789
14251TIP3    H142696   0.206   2.326   2.877
14251TIP3    H242697   0.264   2.432   2.785
14252TIP3   OH242698   3.874   6.930   3.799
14252TIP3    H142699   3.885   7.001   3.862
14252TIP3    H242700   3.875   6.973   3.713
14253TIP3   OH242701   6.734   1.356   4.864
14253TIP3    H142702   6.677   1.304   4.806
14253TIP3    H242703   6.793   1.403   4.804
14254TIP3   OH242704   6.564   2.072   6.616
14254TIP3    H142705   6.477   2.096   6.646
14254TIP3    H242706   6.622   2.136   6.656
14255TIP3   OH242707   3.370   1.880   4.248
14255TIP3    H142708   3.394   1.839   4.165
14255TIP3    H242709   3.332   1.965   4.222
14256TIP3   OH242710   7.320   1.233   1.325
14256TIP3    H142711   7.278   1.216   1.241
14256TIP3    H242712   7.263   1.298   1.367
14257TIP3   OH242713   2.877   4.669   1.758
14257TIP3    H142714   2.871   4.667   1.662
14257TIP3    H242715   2.915   4.754   1.778
14258TIP3   OH242716   4.995   0.670   4.917
14258TIP3    H142717   5.064   0.617   4.878
14258TIP3    H242718   4.959   0.721   4.843
14259TIP3   OH242719   0.084   0.984   5.587
14259TIP3    H142720   0.044   0.993   5.501
14259TIP3    H242721   0.011   0.969   5.647
14260TIP3   OH242722   2.935   2.616   5.547
14260TIP3    H142723   2.913   2.632   5.456
14260TIP3    H242724   2.996   2.687   5.570
14261TIP3   OH242725   3.408   5.500   2.537
14261TIP3    H142726   3.327   5.526   2.493
14261TIP3    H242727   3.398   5.406   2.552
14262TIP3   OH242728   6.198   0.801   0.825
14262TIP3    H142729   6.224   0.863   0.757
14262TIP3    H242730   6.201   0.715   0.782
14263TIP3   OH242731   4.050   2.612   0.965
14263TIP3    H142732   3.955   2.624   0.966
14263TIP3    H242733   4.069   2.562   1.045
14264TIP3   OH242734   6.870   5.001   2.128
14264TIP3    H142735   6.829   5.083   2.100
14264TIP3    H242736   6.915   4.969   2.050
14265TIP3   OH242737   5.660   4.150   0.826
14265TIP3    H142738   5.728   4.208   0.792
14265TIP3    H242739   5.684   4.064   0.793
14266TIP3   OH242740   0.356   6.467   5.373
14266TIP3    H142741   0.305   6.490   5.451
14266TIP3    H242742   0.440   6.435   5.408
14267TIP3   OH242743   8.279   1.642   5.634
14267TIP3    H142744   8.251   1.733   5.643
14267TIP3    H242745   8.200   1.590   5.651
14268TIP3   OH242746   8.109   3.566   5.461
14268TIP3    H142747   8.026   3.610   5.481
14268TIP3    H242748   8.135   3.525   5.543
14269TIP3   OH242749   1.240   6.771   0.893
14269TIP3    H142750   1.288   6.794   0.972
14269TIP3    H242751   1.192   6.692   0.915
14270TIP3   OH242752   4.937   7.197   6.737
14270TIP3    H142753   4.887   7.201   6.656
14270TIP3    H242754   4.973   7.285   6.748
14271TIP3   OH242755   5.413   0.967   6.248
14271TIP3    H142756   5.429   0.900   6.182
14271TIP3    H242757   5.491   0.966   6.303
14272TIP3   OH242758   7.654   2.368   3.948
14272TIP3    H142759   7.612   2.419   3.878
14272TIP3    H242760   7.580   2.335   4.000
14273TIP3   OH242761   7.506   2.585   0.105
14273TIP3    H142762   7.504   2.489   0.110
14273TIP3    H242763   7.537   2.613   0.191
14274TIP3   OH242764   6.815   3.396   5.467
14274TIP3    H142765   6.883   3.453   5.432
14274TIP3    H242766   6.862   3.318   5.497
14275TIP3   OH242767   5.229   4.376   1.296
14275TIP3    H142768   5.153   4.347   1.248
14275TIP3    H242769   5.259   4.299   1.344
14276TIP3   OH242770   0.862   4.483   5.004
14276TIP3    H142771   0.953   4.488   5.031
14276TIP3    H242772   0.824   4.415   5.061
14277TIP3   OH242773   5.467   7.219   2.589
14277TIP3    H142774   5.467   7.173   2.504
14277TIP3    H242775   5.409   7.293   2.576
14278TIP3   OH242776   5.894   4.727   4.286
14278TIP3    H142777   5.886   4.636   4.256
14278TIP3    H242778   5.945   4.722   4.367
14279TIP3   OH242779   7.177   3.292   0.811
14279TIP3    H142780   7.270   3.272   0.822
14279TIP3    H242781   7.143   3.221   0.757
14280TIP3   OH242782   6.407   4.948   4.658
14280TIP3    H142783   6.431   4.934   4.750
14280TIP3    H242784   6.412   4.861   4.618
14281TIP3   OH242785   5.839   5.341   3.215
14281TIP3    H142786   5.903   5.296   3.160
14281TIP3    H242787   5.761   5.285   3.211
14282TIP3   OH242788   6.972   4.690   5.470
14282TIP3    H142789   7.010   4.651   5.548
14282TIP3    H242790   6.920   4.620   5.431
14283TIP3   OH242791   0.755   5.065   6.597
14283TIP3    H142792   0.762   5.000   6.526
14283TIP3    H242793   0.671   5.045   6.639
14284TIP3   OH242794   3.818   6.693   3.297
14284TIP3    H142795   3.747   6.668   3.239
14284TIP3    H242796   3.809   6.788   3.308
14285TIP3   OH242797   1.207   7.760   4.313
14285TIP3    H142798   1.173   7.748   4.402
14285TIP3    H242799   1.139   7.724   4.256
14286TIP3   OH242800   3.309   2.498   3.632
14286TIP3    H142801   3.221   2.518   3.599
14286TIP3    H242802   3.294   2.439   3.706
14287TIP3   OH242803   0.912   6.342   0.713
14287TIP3    H142804   0.865   6.301   0.641
14287TIP3    H242805   0.997   6.366   0.676
14288TIP3   OH242806   7.858   6.121   0.908
14288TIP3    H142807   7.789   6.055   0.922
14288TIP3    H242808   7.826   6.173   0.834
14289TIP3   OH242809   6.946   6.871   5.581
14289TIP3    H142810   6.874   6.830   5.533
14289TIP3    H242811   6.905   6.902   5.662
14290TIP3   OH242812   4.467   1.614   5.275
14290TIP3    H142813   4.373   1.596   5.280
14290TIP3    H242814   4.473   1.693   5.220
14291TIP3   OH242815   3.365   0.157   0.300
14291TIP3    H142816   3.454   0.178   0.271
14291TIP3    H242817   3.331   0.100   0.231
14292TIP3   OH242818   7.656   7.350   6.755
14292TIP3    H142819   7.721   7.412   6.719
14292TIP3    H242820   7.703   7.267   6.759
14293TIP3   OH242821   0.450   2.694   4.085
14293TIP3    H142822   0.446   2.599   4.091
14293TIP3    H242823   0.434   2.713   3.992
14294TIP3   OH242824   6.179   1.503   6.655
14294TIP3    H142825   6.239   1.440   6.693
14294TIP3    H242826   6.096   1.488   6.700
14295TIP3   OH242827   6.587   2.984   0.067
14295TIP3    H142828   6.615   2.964  -0.022
14295TIP3    H242829   6.662   2.956   0.121
14296TIP3   OH242830   1.658   4.815   0.272
14296TIP3    H142831   1.591   4.874   0.238
14296TIP3    H242832   1.614   4.763   0.339
14297TIP3   OH242833   6.164   5.489   0.992
14297TIP3    H142834   6.090   5.435   1.021
14297TIP3    H242835   6.132   5.579   0.999
14298TIP3   OH242836   3.465   5.314   4.795
14298TIP3    H142837   3.555   5.298   4.767
14298TIP3    H242838   3.452   5.408   4.784
14299TIP3   OH242839   0.250   1.109   4.918
14299TIP3    H142840   0.267   1.058   4.839
14299TIP3    H242841   0.157   1.098   4.935
14300TIP3   OH242842   1.335   7.741   2.986
14300TIP3    H142843   1.291   7.762   2.904
14300TIP3    H242844   1.293   7.796   3.051
14301TIP3   OH242845   6.829   0.670   0.905
14301TIP3    H142846   6.766   0.737   0.931
14301TIP3    H242847   6.800   0.591   0.952
14302TIP3   OH242848   0.403   6.666   1.793
14302TIP3    H142849   0.320   6.704   1.823
14302TIP3    H242850   0.426   6.603   1.861
14303TIP3   OH242851   7.162   7.247   2.679
14303TIP3    H142852   7.170   7.184   2.750
14303TIP3    H242853   7.113   7.320   2.717
14304TIP3   OH242854   3.797   0.228   1.416
14304TIP3    H142855   3.789   0.166   1.343
14304TIP3    H242856   3.880   0.205   1.457
14305TIP3   OH242857   3.393   3.726   5.120
14305TIP3    H142858   3.416   3.635   5.103
14305TIP3    H242859   3.378   3.730   5.214
14306TIP3   OH242860   1.790   6.253   4.537
14306TIP3    H142861   1.718   6.189   4.539
14306TIP3    H242862   1.860   6.212   4.589
14307TIP3   OH242863   1.065   2.589   0.930
14307TIP3    H142864   1.062   2.498   0.958
14307TIP3    H242865   1.043   2.639   1.009
14308TIP3   OH242866   1.932   5.048   6.164
14308TIP3    H142867   1.949   5.073   6.073
14308TIP3    H242868   1.843   5.012   6.163
14309TIP3   OH242869   2.970   3.423   4.940
14309TIP3    H142870   3.063   3.444   4.945
14309TIP3    H242871   2.967   3.331   4.913
14310TIP3   OH242872   4.181   5.816   3.591
14310TIP3    H142873   4.274   5.837   3.596
14310TIP3    H242874   4.137   5.900   3.594
14311TIP3   OH242875   7.175   6.036   5.930
14311TIP3    H142876   7.154   5.991   6.012
14311TIP3    H242877   7.108   6.104   5.923
14312TIP3   OH242878   4.430   1.581   0.283
14312TIP3    H142879   4.519   1.548   0.286
14312TIP3    H242880   4.412   1.612   0.372
14313TIP3   OH242881   2.265   0.938   4.349
14313TIP3    H142882   2.275   0.847   4.321
14313TIP3    H242883   2.246   0.932   4.443
14314TIP3   OH242884   2.259   0.445   4.731
14314TIP3    H142885   2.229   0.512   4.792
14314TIP3    H242886   2.191   0.378   4.733
14315TIP3   OH242887   5.502   7.176   4.522
14315TIP3    H142888   5.416   7.187   4.564
14315TIP3    H242889   5.521   7.263   4.485
14316TIP3   OH242890   1.486   5.381   5.999
14316TIP3    H142891   1.513   5.318   6.066
14316TIP3    H242892   1.396   5.402   6.021
14317TIP3   OH242893   4.699   5.417   6.315
14317TIP3    H142894   4.664   5.384   6.232
14317TIP3    H242895   4.790   5.387   6.316
14318TIP3   OH242896   5.952   6.550   2.918
14318TIP3    H142897   5.969   6.506   2.834
14318TIP3    H242898   5.890   6.493   2.963
14319TIP3   OH242899   2.272   1.365   6.680
14319TIP3    H142900   2.194   1.378   6.734
14319TIP3    H242901   2.274   1.271   6.662
14320TIP3   OH242902   6.461   5.855   1.192
14320TIP3    H142903   6.438   5.948   1.184
14320TIP3    H242904   6.438   5.817   1.108
14321TIP3   OH242905   5.121   3.113   3.792
14321TIP3    H142906   5.059   3.044   3.769
14321TIP3    H242907   5.138   3.101   3.885
14322TIP3   OH242908   0.537   3.842   5.075
14322TIP3    H142909   0.589   3.768   5.046
14322TIP3    H242910   0.448   3.807   5.083
14323TIP3   OH242911   3.232   7.474   5.769
14323TIP3    H142912   3.321   7.497   5.741
14323TIP3    H242913   3.240   7.457   5.863
14324TIP3   OH242914   0.067   0.848   1.476
14324TIP3    H142915   0.159   0.830   1.499
14324TIP3    H242916   0.044   0.777   1.416
14325TIP3   OH242917   8.123   2.745   3.924
14325TIP3    H142918   8.172   2.763   3.844
14325TIP3    H242919   8.072   2.666   3.903
14326TIP3   OH242920   7.317   4.767   5.777
14326TIP3    H142921   7.402   4.789   5.816
14326TIP3    H242922   7.297   4.842   5.721
14327TIP3   OH242923   1.356   6.414   0.423
14327TIP3    H142924   1.366   6.324   0.455
14327TIP3    H242925   1.306   6.459   0.491
14328TIP3   OH242926   3.263   2.911   1.077
14328TIP3    H142927   3.305   2.889   0.994
14328TIP3    H242928   3.333   2.950   1.130
14329TIP3   OH242929   1.125   7.515   3.227
14329TIP3    H142930   1.063   7.574   3.186
14329TIP3    H242931   1.075   7.435   3.244
14330TIP3   OH242932   2.870   5.754   0.720
14330TIP3    H142933   2.900   5.753   0.629
14330TIP3    H242934   2.807   5.825   0.724
14331TIP3   OH242935   5.453   7.647   3.602
14331TIP3    H142936   5.399   7.680   3.530
14331TIP3    H242937   5.396   7.648   3.678
14332TIP3   OH242938   3.037   5.396   6.538
14332TIP3    H142939   2.951   5.437   6.533
14332TIP3    H242940   3.044   5.366   6.629
14333TIP3   OH242941  -0.004   1.977   3.329
14333TIP3    H142942   0.039   2.062   3.333
14333TIP3    H242943   0.037   1.933   3.254
14334TIP3   OH242944   6.879   0.245   1.960
14334TIP3    H142945   6.808   0.305   1.937
14334TIP3    H242946   6.938   0.247   1.884
14335TIP3   OH242947   6.395   6.233   3.846
14335TIP3    H142948   6.400   6.179   3.766
14335TIP3    H242949   6.377   6.170   3.916
14336TIP3   OH242950   3.929   2.289   1.046
14336TIP3    H142951   3.898   2.353   0.982
14336TIP3    H242952   3.962   2.341   1.119
14337TIP3   OH242953   6.085   5.162   5.386
14337TIP3    H142954   6.071   5.136   5.295
14337TIP3    H242955   6.146   5.097   5.421
14338TIP3   OH242956   4.374   3.034   5.133
14338TIP3    H142957   4.322   3.004   5.207
14338TIP3    H242958   4.315   3.090   5.083
14339TIP3   OH242959   0.412   7.504   3.127
14339TIP3    H142960   0.442   7.421   3.091
14339TIP3    H242961   0.464   7.516   3.206
14340TIP3   OH242962   6.399   0.000   5.606
14340TIP3    H142963   6.449  -0.050   5.671
14340TIP3    H242964   6.453   0.078   5.590
14341TIP3   OH242965   1.983   5.966   3.307
14341TIP3    H142966   2.052   5.921   3.257
14341TIP3    H242967   1.903   5.922   3.281
14342TIP3   OH242968   0.936   1.569   0.509
14342TIP3    H142969   0.866   1.626   0.476
14342TIP3    H242970   0.997   1.629   0.552
14343TIP3   OH242971   1.370   0.552   2.135
14343TIP3    H142972   1.420   0.495   2.077
14343TIP3    H242973   1.280   0.520   2.128
14344TIP3   OH242974   7.041   2.472   5.458
14344TIP3    H142975   7.006   2.555   5.426
14344TIP3    H242976   6.964   2.418   5.475
14345TIP3   OH242977   5.304   5.822   3.104
14345TIP3    H142978   5.211   5.801   3.116
14345TIP3    H242979   5.346   5.738   3.087
14346TIP3   OH242980   8.068   5.782   1.890
14346TIP3    H142981   8.135   5.827   1.940
14346TIP3    H242982   7.991   5.839   1.894
14347TIP3   OH242983   7.976   6.978   3.713
14347TIP3    H142984   8.016   6.981   3.626
14347TIP3    H242985   8.017   7.050   3.761
14348TIP3   OH242986   1.714   2.249   2.281
14348TIP3    H142987   1.656   2.285   2.214
14348TIP3    H242988   1.686   2.158   2.291
14349TIP3   OH242989   6.622   1.191   1.482
14349TIP3    H142990   6.672   1.267   1.509
14349TIP3    H242991   6.538   1.226   1.453
14350TIP3   OH242992   3.996   3.375   1.606
14350TIP3    H142993   3.973   3.435   1.677
14350TIP3    H242994   3.932   3.393   1.537
14351TIP3   OH242995   5.907   2.968   4.877
14351TIP3    H142996   5.946   3.036   4.932
14351TIP3    H242997   5.856   2.914   4.937
14352TIP3   OH242998   3.885   3.191   6.289
14352TIP3    H142999   3.853   3.217   6.203
14352TIP3    H243000   3.877   3.270   6.342
14353TIP3   OH243001   4.410   3.229   2.842
14353TIP3    H143002   4.384   3.159   2.902
14353TIP3    H243003   4.343   3.229   2.774
14354TIP3   OH243004   4.510   4.940   5.318
14354TIP3    H143005   4.565   5.018   5.323
14354TIP3    H243006   4.552   4.878   5.377
14355TIP3   OH243007   4.072   3.962   1.032
14355TIP3    H143008   4.031   4.013   1.102
14355TIP3    H243009   4.151   3.925   1.073
14356TIP3   OH243010   1.088   1.328   1.329
14356TIP3    H143011   1.133   1.405   1.364
14356TIP3    H243012   1.008   1.364   1.289
14357TIP3   OH243013   3.573   7.714   0.497
14357TIP3    H143014   3.601   7.781   0.435
14357TIP3    H243015   3.614   7.633   0.465
14358TIP3   OH243016   2.307   0.599   3.472
14358TIP3    H143017   2.329   0.566   3.559
14358TIP3    H243018   2.265   0.683   3.487
14359TIP3   OH243019   3.508   1.733   5.470
14359TIP3    H143020   3.502   1.742   5.375
14359TIP3    H243021   3.568   1.659   5.483
14360TIP3   OH243022   4.287   0.828   5.237
14360TIP3    H143023   4.369   0.799   5.276
14360TIP3    H243024   4.291   0.924   5.242
14361TIP3   OH243025   2.637   0.877   1.112
14361TIP3    H143026   2.559   0.827   1.089
14361TIP3    H243027   2.695   0.813   1.155
14362TIP3   OH243028   0.162   3.078   4.184
14362TIP3    H143029   0.087   3.020   4.170
14362TIP3    H243030   0.127   3.150   4.236
14363TIP3   OH243031   0.904   5.219   4.007
14363TIP3    H143032   0.890   5.124   4.011
14363TIP3    H243033   0.887   5.242   3.915
14364TIP3   OH243034   0.785   7.300   5.637
14364TIP3    H143035   0.715   7.326   5.578
14364TIP3    H243036   0.743   7.239   5.698
14365TIP3   OH243037   6.003   2.407   3.115
14365TIP3    H143038   6.056   2.475   3.157
14365TIP3    H243039   6.033   2.326   3.155
14366TIP3   OH243040   0.844   2.499   2.437
14366TIP3    H143041   0.935   2.526   2.443
14366TIP3    H243042   0.818   2.520   2.348
14367TIP3   OH243043   7.740   2.980   1.964
14367TIP3    H143044   7.726   2.899   1.914
14367TIP3    H243045   7.681   3.044   1.924
14368TIP3   OH243046   5.931   5.670   3.760
14368TIP3    H143047   5.985   5.671   3.681
14368TIP3    H243048   5.848   5.709   3.733
14369TIP3   OH243049   1.559   5.070   5.083
14369TIP3    H143050   1.626   5.006   5.061
14369TIP3    H243051   1.583   5.102   5.170
14370TIP3   OH243052   1.560   7.345   2.216
14370TIP3    H143053   1.609   7.422   2.243
14370TIP3    H243054   1.516   7.371   2.135
14371TIP3   OH243055   4.354   2.783   3.564
14371TIP3    H143056   4.269   2.806   3.526
14371TIP3    H243057   4.333   2.749   3.651
14372TIP3   OH243058   3.367   7.384   4.656
14372TIP3    H143059   3.360   7.438   4.577
14372TIP3    H243060   3.433   7.429   4.709
14373TIP3   OH243061   3.740   5.216   6.202
14373TIP3    H143062   3.811   5.267   6.241
14373TIP3    H243063   3.754   5.127   6.234
14374TIP3   OH243064   0.951   0.224   4.931
14374TIP3    H143065   0.962   0.318   4.914
14374TIP3    H243066   0.877   0.220   4.992
14375TIP3   OH243067   6.448   2.548   1.822
14375TIP3    H143068   6.406   2.462   1.829
14375TIP3    H243069   6.438   2.586   1.910
14376TIP3   OH243070   6.656   4.458   4.292
14376TIP3    H143071   6.682   4.387   4.234
14376TIP3    H243072   6.566   4.437   4.317
14377TIP3   OH243073   5.276   6.616   1.177
14377TIP3    H143074   5.184   6.642   1.183
14377TIP3    H243075   5.284   6.576   1.091
14378TIP3   OH243076   7.256   5.767   2.590
14378TIP3    H143077   7.259   5.863   2.580
14378TIP3    H243078   7.166   5.743   2.566
14379TIP3   OH243079   2.754   1.384   6.558
14379TIP3    H143080   2.789   1.471   6.542
14379TIP3    H243081   2.700   1.394   6.637
14380TIP3   OH243082   6.748   0.040   2.717
14380TIP3    H143083   6.704  -0.019   2.778
14380TIP3    H243084   6.839   0.012   2.718
14381TIP3   OH243085   1.562   3.569   2.145
14381TIP3    H143086   1.568   3.662   2.121
14381TIP3    H243087   1.483   3.539   2.100
14382TIP3   OH243088   3.263   3.931   4.789
14382TIP3    H143089   3.195   3.917   4.856
14382TIP3    H243090   3.268   4.026   4.780
14383TIP3   OH243091   3.568   2.244   5.667
14383TIP3    H143092   3.653   2.261   5.624
14383TIP3    H243093   3.534   2.331   5.685
14384TIP3   OH243094   5.249   1.072   1.156
14384TIP3    H143095   5.288   1.032   1.234
14384TIP3    H243096   5.161   1.036   1.152
14385TIP3   OH243097   7.673   0.997   6.254
14385TIP3    H143098   7.638   0.908   6.245
14385TIP3    H243099   7.597   1.054   6.242
14386TIP3   OH243100   2.201   2.613   5.265
14386TIP3    H143101   2.212   2.557   5.342
14386TIP3    H243102   2.107   2.612   5.247
14387TIP3   OH243103   4.703   2.247   5.463
14387TIP3    H143104   4.696   2.205   5.549
14387TIP3    H243105   4.653   2.191   5.404
14388TIP3   OH243106   0.581   3.940   6.610
14388TIP3    H143107   0.581   4.022   6.659
14388TIP3    H243108   0.502   3.895   6.638
14389TIP3   OH243109   0.706   6.213   5.697
14389TIP3    H143110   0.662   6.136   5.661
14389TIP3    H243111   0.790   6.181   5.729
14390TIP3   OH243112   8.210   0.117   6.026
14390TIP3    H143113   8.263   0.186   5.986
14390TIP3    H243114   8.120   0.138   6.001
14391TIP3   OH243115   5.124   5.946   3.968
14391TIP3    H143116   5.209   5.989   3.972
14391TIP3    H243117   5.063   6.008   4.007
14392TIP3   OH243118   8.275   3.482   5.225
14392TIP3    H143119   8.220   3.483   5.303
14392TIP3    H243120   8.364   3.468   5.257
14393TIP3   OH243121   7.621   3.837   2.148
14393TIP3    H143122   7.700   3.880   2.180
14393TIP3    H243123   7.636   3.744   2.164
14394TIP3   OH243124   4.603   3.845   2.410
14394TIP3    H143125   4.621   3.796   2.330
14394TIP3    H243126   4.510   3.828   2.428
14395TIP3   OH243127   5.438   6.297   4.073
14395TIP3    H143128   5.488   6.298   4.154
14395TIP3    H243129   5.438   6.206   4.045
14396TIP3   OH243130   0.817   4.412   1.685
14396TIP3    H143131   0.849   4.357   1.613
14396TIP3    H243132   0.895   4.458   1.716
14397TIP3   OH243133   8.071   0.580   4.517
14397TIP3    H143134   8.136   0.617   4.576
14397TIP3    H243135   8.038   0.655   4.467
14398TIP3   OH243136   1.586   5.005   0.678
14398TIP3    H143137   1.639   4.967   0.608
14398TIP3    H243138   1.573   5.096   0.651
14399TIP3   OH243139   1.146   6.791   2.262
14399TIP3    H143140   1.105   6.722   2.315
14399TIP3    H243141   1.077   6.820   2.203
14400TIP3   OH243142   7.465   6.173   1.753
14400TIP3    H143143   7.551   6.204   1.783
14400TIP3    H243144   7.458   6.207   1.663
14401TIP3   OH243145   3.131   1.166   1.301
14401TIP3    H143146   3.100   1.077   1.287
14401TIP3    H243147   3.182   1.161   1.382
14402TIP3   OH243148   7.871   1.814   0.689
14402TIP3    H143149   7.793   1.868   0.700
14402TIP3    H243150   7.870   1.791   0.596
14403TIP3   OH243151   5.543   7.813   1.077
14403TIP3    H143152   5.519   7.840   0.989
14403TIP3    H243153   5.544   7.717   1.073
14404TIP3   OH243154   8.257   1.549   5.972
14404TIP3    H143155   8.230   1.488   6.042
14404TIP3    H243156   8.223   1.634   6.000
14405TIP3   OH243157   8.069   1.464   5.691
14405TIP3    H143158   7.990   1.494   5.736
14405TIP3    H243159   8.114   1.408   5.755
14406TIP3   OH243160   6.116   6.909   4.839
14406TIP3    H143161   6.114   6.815   4.854
14406TIP3    H243162   6.041   6.926   4.782
14407TIP3   OH243163   0.822   4.236   4.654
14407TIP3    H143164   0.789   4.297   4.720
14407TIP3    H243165   0.750   4.228   4.591
14408TIP3   OH243166   2.111   6.661   1.773
14408TIP3    H143167   2.170   6.734   1.760
14408TIP3    H243168   2.146   6.591   1.718
14409TIP3   OH243169   4.249   6.434   3.405
14409TIP3    H143170   4.162   6.447   3.442
14409TIP3    H243171   4.238   6.362   3.342
14410TIP3   OH243172   7.013   7.238   5.841
14410TIP3    H143173   7.020   7.187   5.921
14410TIP3    H243174   7.103   7.250   5.812
14411TIP3   OH243175   3.712   6.153   3.731
14411TIP3    H143176   3.739   6.063   3.715
14411TIP3    H243177   3.790   6.195   3.769
14412TIP3   OH243178   3.806   0.022   5.801
14412TIP3    H143179   3.798   0.116   5.821
14412TIP3    H243180   3.739   0.006   5.735
14413TIP3   OH243181   0.244   3.312   6.266
14413TIP3    H143182   0.183   3.261   6.321
14413TIP3    H243183   0.282   3.248   6.206
14414TIP3   OH243184   5.126   2.737   0.113
14414TIP3    H143185   5.217   2.763   0.099
14414TIP3    H243186   5.113   2.662   0.055
14415TIP3   OH243187   2.134   3.310   4.092
14415TIP3    H143188   2.045   3.328   4.123
14415TIP3    H243189   2.177   3.270   4.167
14416TIP3   OH243190   6.922   6.072   3.810
14416TIP3    H143191   6.904   6.102   3.721
14416TIP3    H243192   6.995   6.126   3.839
14417TIP3   OH243193   0.502   6.661   6.036
14417TIP3    H143194   0.485   6.579   5.990
14417TIP3    H243195   0.559   6.710   5.977
14418TIP3   OH243196   5.600   2.553   5.509
14418TIP3    H143197   5.639   2.508   5.583
14418TIP3    H243198   5.514   2.583   5.541
14419TIP3   OH243199   2.097   3.595   4.275
14419TIP3    H143200   2.079   3.679   4.233
14419TIP3    H243201   2.036   3.533   4.234
14420TIP3   OH243202   3.333   4.436   2.188
14420TIP3    H143203   3.333   4.473   2.276
14420TIP3    H243204   3.261   4.481   2.143
14421TIP3   OH243205   5.348   7.769   6.235
14421TIP3    H143206   5.264   7.751   6.192
14421TIP3    H243207   5.385   7.842   6.186
14422TIP3   OH243208   7.043   2.370   1.694
14422TIP3    H143209   7.086   2.285   1.689
14422TIP3    H243210   6.951   2.353   1.673
14423TIP3   OH243211   2.044   3.905   0.673
14423TIP3    H143212   2.118   3.911   0.733
14423TIP3    H243213   2.073   3.843   0.606
14424TIP3   OH243214   6.057   4.621   2.789
14424TIP3    H143215   5.995   4.657   2.726
14424TIP3    H243216   6.003   4.601   2.866
14425TIP3   OH243217   6.334   5.922   1.962
14425TIP3    H143218   6.281   5.998   1.986
14425TIP3    H243219   6.369   5.943   1.875
14426TIP3   OH243220   4.195   0.530   0.147
14426TIP3    H143221   4.286   0.535   0.118
14426TIP3    H243222   4.198   0.480   0.229
14427TIP3   OH243223   7.257   1.612   2.229
14427TIP3    H143224   7.198   1.598   2.155
14427TIP3    H243225   7.253   1.530   2.278
14428TIP3   OH243226   2.552   0.070   5.048
14428TIP3    H143227   2.616   0.140   5.062
14428TIP3    H243228   2.575   0.033   4.962
14429TIP3   OH243229   6.535   3.884   5.661
14429TIP3    H143230   6.582   3.800   5.654
14429TIP3    H243231   6.480   3.875   5.738
14430TIP3   OH243232   0.744   4.836   3.768
14430TIP3    H143233   0.813   4.821   3.832
14430TIP3    H243234   0.664   4.838   3.819
14431TIP3   OH243235   6.638   0.804   6.298
14431TIP3    H143236   6.595   0.889   6.285
14431TIP3    H243237   6.724   0.814   6.258
14432TIP3   OH243238   1.393   3.214   1.721
14432TIP3    H143239   1.457   3.246   1.784
14432TIP3    H243240   1.327   3.283   1.716
14433TIP3   OH243241   7.718   2.809   0.221
14433TIP3    H143242   7.813   2.817   0.216
14433TIP3    H243243   7.703   2.722   0.256
14434TIP3   OH243244   3.078   4.077   2.897
14434TIP3    H143245   3.091   4.131   2.819
14434TIP3    H243246   3.152   4.017   2.897
14435TIP3   OH243247   4.501   1.712   1.374
14435TIP3    H143248   4.496   1.664   1.292
14435TIP3    H243249   4.579   1.677   1.418
14436TIP3   OH243250   7.595   3.487   4.035
14436TIP3    H143251   7.577   3.577   4.062
14436TIP3    H243252   7.563   3.433   4.107
14437TIP3   OH243253   3.350   1.194   2.394
14437TIP3    H143254   3.411   1.120   2.401
14437TIP3    H243255   3.275   1.169   2.448
14438TIP3   OH243256   4.301   1.468   3.842
14438TIP3    H143257   4.369   1.517   3.890
14438TIP3    H243258   4.233   1.534   3.825
14439TIP3   OH243259   6.637   3.847   0.549
14439TIP3    H143260   6.575   3.892   0.492
14439TIP3    H243261   6.589   3.833   0.631
14440TIP3   OH243262   7.420   5.524   6.296
14440TIP3    H143263   7.379   5.597   6.250
14440TIP3    H243264   7.401   5.448   6.242
14441TIP3   OH243265   3.041   5.569   6.022
14441TIP3    H143266   3.125   5.601   6.056
14441TIP3    H243267   2.975   5.614   6.074
14442TIP3   OH243268   7.496   1.808   6.649
14442TIP3    H143269   7.411   1.837   6.616
14442TIP3    H243270   7.525   1.743   6.586
14443TIP3   OH243271   6.124   4.458   4.618
14443TIP3    H143272   6.058   4.400   4.579
14443TIP3    H243273   6.092   4.546   4.601
14444TIP3   OH243274   7.202   4.369   6.699
14444TIP3    H143275   7.277   4.313   6.679
14444TIP3    H243276   7.209   4.386   6.792
14445TIP3   OH243277   2.564   0.676   1.399
14445TIP3    H143278   2.565   0.612   1.470
14445TIP3    H243279   2.476   0.668   1.362
14446TIP3   OH243280   1.189   5.459   4.730
14446TIP3    H143281   1.205   5.374   4.772
14446TIP3    H243282   1.277   5.494   4.713
14447TIP3   OH243283   7.173   0.064   5.844
14447TIP3    H143284   7.216   0.048   5.929
14447TIP3    H243285   7.132  -0.019   5.821
14448TIP3   OH243286   4.340   2.563   3.221
14448TIP3    H143287   4.395   2.559   3.300
14448TIP3    H243288   4.337   2.473   3.189
14449TIP3   OH243289   7.711   1.583   1.852
14449TIP3    H143290   7.755   1.665   1.877
14449TIP3    H243291   7.733   1.571   1.759
14450TIP3   OH243292   2.892   5.963   2.408
14450TIP3    H143293   2.937   6.043   2.380
14450TIP3    H243294   2.800   5.988   2.414
14451TIP3   OH243295   7.533   3.741   2.448
14451TIP3    H143296   7.572   3.673   2.393
14451TIP3    H243297   7.528   3.701   2.535
14452TIP3   OH243298   3.663   1.272   4.322
14452TIP3    H143299   3.721   1.236   4.254
14452TIP3    H243300   3.720   1.326   4.376
14453TIP3   OH243301   1.826   1.882   3.149
14453TIP3    H143302   1.789   1.849   3.230
14453TIP3    H243303   1.790   1.826   3.081
14454TIP3   OH243304   3.029   5.186   2.916
14454TIP3    H143305   3.102   5.127   2.899
14454TIP3    H243306   2.970   5.136   2.972
14455TIP3   OH243307   0.585   4.198   4.494
14455TIP3    H143308   0.516   4.228   4.434
14455TIP3    H243309   0.593   4.105   4.475
14456TIP3   OH243310   1.303   1.668   2.020
14456TIP3    H143311   1.259   1.583   2.025
14456TIP3    H243312   1.390   1.648   1.984
14457TIP3   OH243313   6.069   3.127   5.141
14457TIP3    H143314   6.114   3.117   5.057
14457TIP3    H243315   6.017   3.206   5.131
14458TIP3   OH243316   0.450   5.580   0.976
14458TIP3    H143317   0.479   5.671   0.978
14458TIP3    H243318   0.355   5.584   0.967
14459TIP3   OH243319   0.346   7.702   1.875
14459TIP3    H143320   0.290   7.708   1.953
14459TIP3    H243321   0.380   7.791   1.863
14460TIP3   OH243322   3.469   5.916   3.500
14460TIP3    H143323   3.547   5.925   3.554
14460TIP3    H243324   3.471   5.991   3.442
14461TIP3   OH243325   5.267   1.186   0.590
14461TIP3    H143326   5.188   1.177   0.645
14461TIP3    H243327   5.321   1.250   0.638
14462TIP3   OH243328   7.436   6.300   2.489
14462TIP3    H143329   7.412   6.270   2.576
14462TIP3    H243330   7.520   6.259   2.471
14463TIP3   OH243331   7.536   3.806   0.040
14463TIP3    H143332   7.628   3.785   0.022
14463TIP3    H243333   7.515   3.878  -0.019
14464TIP3   OH243334   4.454   5.963   2.658
14464TIP3    H143335   4.536   5.937   2.699
14464TIP3    H243336   4.475   6.044   2.612
14465TIP3   OH243337   6.567   3.121   1.001
14465TIP3    H143338   6.473   3.141   1.001
14465TIP3    H243339   6.606   3.189   1.055
14466TIP3   OH243340   8.266   1.048   4.990
14466TIP3    H143341   8.191   0.988   4.994
14466TIP3    H243342   8.236   1.120   4.934
14467TIP3   OH243343   2.422   5.573   5.328
14467TIP3    H143344   2.476   5.508   5.282
14467TIP3    H243345   2.437   5.555   5.421
14468TIP3   OH243346   1.829   2.993   5.356
14468TIP3    H143347   1.915   2.979   5.317
14468TIP3    H243348   1.830   2.940   5.436
14469TIP3   OH243349   3.696   5.673   0.944
14469TIP3    H143350   3.767   5.610   0.932
14469TIP3    H243351   3.710   5.738   0.874
14470TIP3   OH243352   2.400   7.415   3.079
14470TIP3    H143353   2.358   7.334   3.109
14470TIP3    H243354   2.463   7.435   3.147
14471TIP3   OH243355   4.056   1.492   2.497
14471TIP3    H143356   3.979   1.490   2.440
14471TIP3    H243357   4.061   1.582   2.528
14472TIP3   OH243358   4.621   0.637   3.165
14472TIP3    H143359   4.546   0.683   3.127
14472TIP3    H243360   4.697   0.674   3.120
14473TIP3   OH243361   2.906   3.214   1.526
14473TIP3    H143362   2.843   3.231   1.456
14473TIP3    H243363   2.941   3.300   1.549
14474TIP3   OH243364   3.842   5.452   5.527
14474TIP3    H143365   3.819   5.435   5.436
14474TIP3    H243366   3.834   5.367   5.570
14475TIP3   OH243367   4.419   5.595   3.690
14475TIP3    H143368   4.438   5.503   3.676
14475TIP3    H243369   4.471   5.619   3.766
14476TIP3   OH243370   6.918   0.579   3.360
14476TIP3    H143371   6.843   0.554   3.413
14476TIP3    H243372   6.880   0.626   3.286
14477TIP3   OH243373   7.832   4.988   3.824
14477TIP3    H143374   7.908   4.972   3.768
14477TIP3    H243375   7.832   5.083   3.838
14478TIP3   OH243376  -0.008   1.644   0.247
14478TIP3    H143377   0.020   1.734   0.232
14478TIP3    H243378   0.072   1.591   0.237
14479TIP3   OH243379   0.319   0.772   4.194
14479TIP3    H143380   0.282   0.766   4.282
14479TIP3    H243381   0.413   0.782   4.208
14480TIP3   OH243382   0.716   6.654   2.140
14480TIP3    H143383   0.724   6.653   2.236
14480TIP3    H243384   0.805   6.672   2.109
14481TIP3   OH243385   3.668   6.306   4.440
14481TIP3    H143386   3.675   6.272   4.350
14481TIP3    H243387   3.751   6.353   4.454
14482TIP3   OH243388   7.595   5.628   3.824
14482TIP3    H143389   7.590   5.709   3.773
14482TIP3    H243390   7.652   5.650   3.898
14483TIP3   OH243391   1.675   1.762   2.951
14483TIP3    H143392   1.672   1.669   2.927
14483TIP3    H243393   1.591   1.778   2.994
14484TIP3   OH243394   2.858   0.348   0.782
14484TIP3    H143395   2.776   0.320   0.823
14484TIP3    H243396   2.831   0.398   0.705
14485TIP3   OH243397   1.402   3.279   4.744
14485TIP3    H143398   1.317   3.236   4.754
14485TIP3    H243399   1.451   3.256   4.822
14486TIP3   OH243400   4.900   5.504   3.670
14486TIP3    H143401   4.883   5.589   3.631
14486TIP3    H243402   4.871   5.440   3.605
14487TIP3   OH243403   2.308   1.816   2.696
14487TIP3    H143404   2.301   1.841   2.603
14487TIP3    H243405   2.219   1.822   2.729
14488TIP3   OH243406   7.411   2.853   0.340
14488TIP3    H143407   7.464   2.877   0.264
14488TIP3    H243408   7.386   2.762   0.324
14489TIP3   OH243409   5.360   6.334   6.157
14489TIP3    H143410   5.405   6.356   6.075
14489TIP3    H243411   5.410   6.261   6.192
14490TIP3   OH243412   4.623   1.290   4.066
14490TIP3    H143413   4.597   1.378   4.093
14490TIP3    H243414   4.718   1.288   4.076
14491TIP3   OH243415   5.593   1.364   4.772
14491TIP3    H143416   5.616   1.285   4.821
14491TIP3    H243417   5.574   1.332   4.684
14492TIP3   OH243418   3.499   1.069   3.636
14492TIP3    H143419   3.415   1.115   3.641
14492TIP3    H243420   3.540   1.083   3.721
14493TIP3   OH243421   6.395   3.198   5.305
14493TIP3    H143422   6.323   3.135   5.302
14493TIP3    H243423   6.384   3.243   5.389
14494TIP3   OH243424   5.808   2.484   4.794
14494TIP3    H143425   5.800   2.423   4.721
14494TIP3    H243426   5.843   2.564   4.756
14495TIP3   OH243427   8.202   0.408   1.170
14495TIP3    H143428   8.138   0.337   1.161
14495TIP3    H243429   8.174   0.473   1.105
14496TIP3   OH243430   5.313   3.369   4.253
14496TIP3    H143431   5.399   3.328   4.249
14496TIP3    H243432   5.323   3.441   4.314
14497TIP3   OH243433   3.306   0.652   4.584
14497TIP3    H143434   3.260   0.574   4.613
14497TIP3    H243435   3.395   0.641   4.617
14498TIP3   OH243436   3.537   7.460   5.951
14498TIP3    H143437   3.598   7.469   5.878
14498TIP3    H243438   3.469   7.525   5.934
14499TIP3   OH243439   1.948   2.010   3.787
14499TIP3    H143440   2.019   2.072   3.802
14499TIP3    H243441   1.884   2.059   3.735
14500TIP3   OH243442   5.929   2.289   5.920
14500TIP3    H143443   5.959   2.255   5.835
14500TIP3    H243444   5.902   2.211   5.969
14501TIP3   OH243445   2.935   2.942   4.387
14501TIP3    H143446   3.008   2.943   4.449
14501TIP3    H243447   2.929   2.851   4.359
14502TIP3   OH243448   1.000   5.008   3.190
14502TIP3    H143449   1.051   5.075   3.236
14502TIP3    H243450   1.066   4.953   3.147
14503TIP3   OH243451   2.793   7.562   1.224
14503TIP3    H143452   2.776   7.626   1.156
14503TIP3    H243453   2.709   7.519   1.239
14504TIP3   OH243454   0.745   3.598   2.333
14504TIP3    H143455   0.791   3.616   2.416
14504TIP3    H243456   0.668   3.548   2.360
14505TIP3   OH243457   5.403   1.821   4.456
14505TIP3    H143458   5.490   1.861   4.453
14505TIP3    H243459   5.418   1.735   4.497
14506TIP3   OH243460   2.419   5.798   3.041
14506TIP3    H143461   2.374   5.813   2.958
14506TIP3    H243462   2.399   5.707   3.063
14507TIP3   OH243463   8.035   5.241   1.227
14507TIP3    H143464   7.971   5.303   1.263
14507TIP3    H243465   8.021   5.246   1.132
14508TIP3   OH243466   6.256   3.291   2.757
14508TIP3    H143467   6.289   3.244   2.833
14508TIP3    H243468   6.334   3.323   2.713
14509TIP3   OH243469   5.841   4.088   1.672
14509TIP3    H143470   5.820   4.181   1.665
14509TIP3    H243471   5.886   4.079   1.756
14510TIP3   OH243472   7.767   2.604   3.289
14510TIP3    H143473   7.786   2.557   3.370
14510TIP3    H243474   7.750   2.694   3.316
14511TIP3   OH243475   5.845   0.172   4.441
14511TIP3    H143476   5.939   0.166   4.426
14511TIP3    H243477   5.832   0.136   4.529
14512TIP3   OH243478   1.521   6.515   4.159
14512TIP3    H143479   1.429   6.500   4.136
14512TIP3    H243480   1.556   6.565   4.086
14513TIP3   OH243481   0.067   5.203   1.153
14513TIP3    H143482   0.063   5.283   1.206
14513TIP3    H243483   0.008   5.221   1.079
14514TIP3   OH243484   1.222   1.710   3.446
14514TIP3    H143485   1.272   1.761   3.510
14514TIP3    H243486   1.132   1.738   3.458
14515TIP3   OH243487   2.240   3.295   2.567
14515TIP3    H143488   2.248   3.201   2.547
14515TIP3    H243489   2.271   3.338   2.487
14516TIP3   OH243490   3.082   5.322   5.426
14516TIP3    H143491   2.991   5.298   5.407
14516TIP3    H243492   3.111   5.258   5.490
14517TIP3   OH243493   8.319   6.020   2.825
14517TIP3    H143494   8.240   6.068   2.801
14517TIP3    H243495   8.322   5.946   2.765
14518TIP3   OH243496   3.062   2.574   2.853
14518TIP3    H143497   3.075   2.522   2.773
14518TIP3    H243498   3.105   2.657   2.834
14519TIP3   OH243499   7.344   7.771   0.731
14519TIP3    H143500   7.381   7.724   0.806
14519TIP3    H243501   7.294   7.704   0.684
14520TIP3   OH243502   5.009   3.110   2.463
14520TIP3    H143503   5.081   3.048   2.452
14520TIP3    H243504   4.930   3.055   2.461
14521TIP3   OH243505   6.253   1.037   6.273
14521TIP3    H143506   6.159   1.041   6.258
14521TIP3    H243507   6.269   0.950   6.307
14522TIP3   OH243508   2.513   6.118   6.685
14522TIP3    H143509   2.454   6.111   6.609
14522TIP3    H243510   2.583   6.057   6.666
14523TIP3   OH243511   1.210   2.996   2.163
14523TIP3    H143512   1.276   3.018   2.098
14523TIP3    H243513   1.239   2.911   2.198
14524TIP3   OH243514   1.714   5.961   6.264
14524TIP3    H143515   1.808   5.972   6.255
14524TIP3    H243516   1.698   5.966   6.358
14525TIP3   OH243517   2.790   2.169   6.673
14525TIP3    H143518   2.739   2.180   6.753
14525TIP3    H243519   2.820   2.257   6.651
14526TIP3   OH243520   2.889   0.345   0.321
14526TIP3    H143521   2.958   0.331   0.385
14526TIP3    H243522   2.826   0.275   0.338
14527TIP3   OH243523   1.971   2.252   1.923
14527TIP3    H143524   1.876   2.242   1.927
14527TIP3    H243525   1.992   2.302   2.001
14528TIP3   OH243526   2.517   4.114   3.672
14528TIP3    H143527   2.447   4.169   3.636
14528TIP3    H243528   2.472   4.056   3.734
14529TIP3   OH243529   7.635   5.713   0.513
14529TIP3    H143530   7.594   5.799   0.505
14529TIP3    H243531   7.604   5.665   0.436
14530TIP3   OH243532   1.724   2.713   2.972
14530TIP3    H143533   1.787   2.782   2.992
14530TIP3    H243534   1.769   2.632   2.998
14531TIP3   OH243535   7.228   4.248   0.123
14531TIP3    H143536   7.255   4.319   0.181
14531TIP3    H243537   7.138   4.269   0.099
14532TIP3   OH243538   3.808   6.994   5.070
14532TIP3    H143539   3.875   7.062   5.071
14532TIP3    H243540   3.839   6.930   5.006
14533TIP3   OH243541   5.428   4.130   5.722
14533TIP3    H143542   5.437   4.171   5.808
14533TIP3    H243543   5.518   4.118   5.691
14534TIP3   OH243544   5.169   6.084   4.922
14534TIP3    H143545   5.078   6.061   4.907
14534TIP3    H243546   5.219   6.015   4.878
14535TIP3   OH243547   7.770   7.083   6.428
14535TIP3    H143548   7.755   7.035   6.346
14535TIP3    H243549   7.745   7.173   6.409
14536TIP3   OH243550   5.507   1.245   4.543
14536TIP3    H143551   5.518   1.150   4.537
14536TIP3    H243552   5.553   1.280   4.467
14537TIP3   OH243553   5.773   4.888   2.307
14537TIP3    H143554   5.704   4.952   2.322
14537TIP3    H243555   5.727   4.804   2.307
14538TIP3   OH243556   1.860   6.892   4.350
14538TIP3    H143557   1.892   6.981   4.364
14538TIP3    H243558   1.880   6.845   4.431
14539TIP3   OH243559   0.825   5.715   4.560
14539TIP3    H143560   0.900   5.731   4.617
14539TIP3    H243561   0.803   5.623   4.575
14540TIP3   OH243562   0.442   5.544   6.073
14540TIP3    H143563   0.476   5.506   6.155
14540TIP3    H243564   0.411   5.469   6.023
14541TIP3   OH243565   5.874   7.251   5.530
14541TIP3    H143566   5.947   7.208   5.484
14541TIP3    H243567   5.810   7.270   5.461
14542TIP3   OH243568   1.158   1.653   0.646
14542TIP3    H143569   1.214   1.651   0.724
14542TIP3    H243570   1.209   1.701   0.581
14543TIP3   OH243571   3.612   7.410   3.862
14543TIP3    H143572   3.637   7.332   3.913
14543TIP3    H243573   3.530   7.439   3.901
14544TIP3   OH243574   6.059   1.408   2.229
14544TIP3    H143575   6.121   1.397   2.157
14544TIP3    H243576   6.006   1.329   2.227
14545TIP3   OH243577   7.280   7.279   1.765
14545TIP3    H143578   7.320   7.350   1.815
14545TIP3    H243579   7.264   7.317   1.678
14546TIP3   OH243580   6.558   5.437   2.760
14546TIP3    H143581   6.579   5.347   2.737
14546TIP3    H243582   6.638   5.486   2.740
14547TIP3   OH243583   6.740   0.623   6.747
14547TIP3    H143584   6.689   0.642   6.668
14547TIP3    H243585   6.710   0.688   6.811
14548TIP3   OH243586   3.172   1.209   3.968
14548TIP3    H143587   3.148   1.226   4.059
14548TIP3    H243588   3.184   1.115   3.963
14549TIP3   OH243589   6.680   6.850   1.974
14549TIP3    H143590   6.744   6.906   2.018
14549TIP3    H243591   6.633   6.806   2.044
14550TIP3   OH243592   7.777   3.666   4.290
14550TIP3    H143593   7.795   3.572   4.299
14550TIP3    H243594   7.728   3.688   4.369
14551TIP3   OH243595   5.731   6.605   5.072
14551TIP3    H143596   5.800   6.539   5.082
14551TIP3    H243597   5.766   6.667   5.008
14552TIP3   OH243598   2.675   3.033   5.932
14552TIP3    H143599   2.769   3.049   5.939
14552TIP3    H243600   2.635   3.092   5.995
14553TIP3   OH243601   2.523   1.475   6.727
14553TIP3    H143602   2.438   1.431   6.725
14553TIP3    H243603   2.536   1.498   6.819
14554TIP3   OH243604   5.607   0.594   2.969
14554TIP3    H143605   5.669   0.564   2.903
14554TIP3    H243606   5.536   0.634   2.920
14555TIP3   OH243607   4.243   5.268   4.571
14555TIP3    H143608   4.216   5.334   4.506
14555TIP3    H243609   4.327   5.236   4.538
14556TIP3   OH243610   1.826   2.398   5.884
14556TIP3    H143611   1.822   2.455   5.960
14556TIP3    H243612   1.876   2.322   5.914
14557TIP3   OH243613   7.152   1.062   5.860
14557TIP3    H143614   7.097   1.135   5.889
14557TIP3    H243615   7.241   1.095   5.870
14558TIP3   OH243616   1.673   3.048   2.563
14558TIP3    H143617   1.717   3.024   2.482
14558TIP3    H243618   1.686   2.973   2.621
14559TIP3   OH243619   4.598   4.209   2.848
14559TIP3    H143620   4.537   4.240   2.782
14559TIP3    H243621   4.675   4.265   2.838
14560TIP3   OH243622   2.383   3.470   1.072
14560TIP3    H143623   2.303   3.507   1.109
14560TIP3    H243624   2.373   3.375   1.083
14561TIP3   OH243625   4.603   7.745   4.723
14561TIP3    H143626   4.563   7.730   4.808
14561TIP3    H243627   4.668   7.676   4.714
14562TIP3   OH243628   8.071   5.698   2.660
14562TIP3    H143629   8.161   5.669   2.677
14562TIP3    H243630   8.070   5.789   2.687
14563TIP3   OH243631   4.166   0.580   0.943
14563TIP3    H143632   4.107   0.650   0.914
14563TIP3    H243633   4.214   0.556   0.864
14564TIP3   OH243634   7.834   5.874   2.813
14564TIP3    H143635   7.811   5.806   2.749
14564TIP3    H243636   7.816   5.834   2.898
14565TIP3   OH243637   3.376   6.419   0.631
14565TIP3    H143638   3.371   6.453   0.720
14565TIP3    H243639   3.301   6.458   0.586
14566TIP3   OH243640   1.258   7.514   1.642
14566TIP3    H143641   1.287   7.444   1.583
14566TIP3    H243642   1.338   7.547   1.682
14567TIP3   OH243643   5.511   7.104   1.751
14567TIP3    H143644   5.536   7.143   1.834
14567TIP3    H243645   5.440   7.044   1.773
14568TIP3   OH243646   2.273   0.363   1.843
14568TIP3    H143647   2.316   0.353   1.928
14568TIP3    H243648   2.320   0.435   1.801
14569TIP3   OH243649   0.106   6.277   3.845
14569TIP3    H143650   0.171   6.209   3.859
14569TIP3    H243651   0.157   6.358   3.841
14570TIP3   OH243652   4.440   1.027   3.914
14570TIP3    H143653   4.410   1.099   3.969
14570TIP3    H243654   4.375   1.022   3.843
14571TIP3   OH243655   4.097   0.845   1.316
14571TIP3    H143656   4.025   0.796   1.277
14571TIP3    H243657   4.147   0.780   1.365
14572TIP3   OH243658   7.037   2.058   3.828
14572TIP3    H143659   7.069   1.993   3.891
14572TIP3    H243660   6.944   2.037   3.819
14573TIP3   OH243661   2.998   6.733   3.934
14573TIP3    H143662   3.078   6.708   3.980
14573TIP3    H243663   2.938   6.760   4.004
14574TIP3   OH243664   5.315   5.562   1.606
14574TIP3    H143665   5.369   5.603   1.539
14574TIP3    H243666   5.374   5.499   1.648
14575TIP3   OH243667   5.194   0.127   5.871
14575TIP3    H143668   5.158   0.176   5.945
14575TIP3    H243669   5.273   0.174   5.846
14576TIP3   OH243670   8.216   0.878   4.147
14576TIP3    H143671   8.129   0.872   4.108
14576TIP3    H243672   8.276   0.862   4.074
14577TIP3   OH243673   1.923   2.591   5.254
14577TIP3    H143674   1.909   2.610   5.347
14577TIP3    H243675   1.882   2.505   5.241
14578TIP3   OH243676   2.451   3.390   5.060
14578TIP3    H143677   2.477   3.313   5.110
14578TIP3    H243678   2.462   3.463   5.122
14579TIP3   OH243679   3.808   3.129   5.855
14579TIP3    H143680   3.796   3.217   5.890
14579TIP3    H243681   3.788   3.071   5.929
14580TIP3   OH243682   0.188   4.434   4.417
14580TIP3    H143683   0.106   4.424   4.465
14580TIP3    H243684   0.221   4.520   4.444
14581TIP3   OH243685   4.552   5.858   1.507
14581TIP3    H143686   4.599   5.917   1.566
14581TIP3    H243687   4.520   5.913   1.436
14582TIP3   OH243688   1.523   5.391   0.325
14582TIP3    H143689   1.537   5.366   0.416
14582TIP3    H243690   1.543   5.312   0.274
14583TIP3   OH243691   0.529   0.927   1.097
14583TIP3    H143692   0.533   0.884   1.011
14583TIP3    H243693   0.608   0.980   1.101
14584TIP3   OH243694   4.720   6.711   0.226
14584TIP3    H143695   4.734   6.625   0.186
14584TIP3    H243696   4.678   6.691   0.310
14585TIP3   OH243697   2.137   3.342   6.103
14585TIP3    H143698   2.214   3.369   6.054
14585TIP3    H243699   2.172   3.306   6.184
14586TIP3   OH243700   6.088   7.147   3.633
14586TIP3    H143701   6.104   7.183   3.545
14586TIP3    H243702   6.176   7.124   3.665
14587TIP3   OH243703   1.601   3.125   4.386
14587TIP3    H143704   1.512   3.162   4.389
14587TIP3    H243705   1.602   3.057   4.453
14588TIP3   OH243706   7.092   7.778   0.560
14588TIP3    H143707   7.163   7.733   0.514
14588TIP3    H243708   7.056   7.712   0.619
14589TIP3   OH243709   7.508   1.575   5.685
14589TIP3    H143710   7.464   1.555   5.603
14589TIP3    H243711   7.508   1.671   5.690
14590TIP3   OH243712   2.974   0.548   3.284
14590TIP3    H143713   2.981   0.517   3.193
14590TIP3    H243714   3.007   0.638   3.281
14591TIP3   OH243715   0.377   6.083   2.704
14591TIP3    H143716   0.339   6.014   2.759
14591TIP3    H243717   0.306   6.107   2.644
14592TIP3   OH243718   7.765   5.135   0.238
14592TIP3    H143719   7.810   5.175   0.312
14592TIP3    H243720   7.836   5.093   0.188
14593TIP3   OH243721   3.546   5.663   5.514
14593TIP3    H143722   3.616   5.641   5.575
14593TIP3    H243723   3.543   5.759   5.515
14594TIP3   OH243724   5.410   6.668   2.910
14594TIP3    H143725   5.351   6.602   2.946
14594TIP3    H243726   5.416   6.735   2.979
14595TIP3   OH243727   2.096   2.360   0.802
14595TIP3    H143728   2.122   2.377   0.712
14595TIP3    H243729   2.061   2.444   0.833
14596TIP3   OH243730   5.888   5.630   5.906
14596TIP3    H143731   5.883   5.601   5.815
14596TIP3    H243732   5.856   5.555   5.957
14597TIP3   OH243733   4.587   0.907   6.218
14597TIP3    H143734   4.646   0.856   6.273
14597TIP3    H243735   4.546   0.969   6.277
14598TIP3   OH243736   0.588   4.210   6.694
14598TIP3    H143737   0.603   4.197   6.788
14598TIP3    H243738   0.511   4.266   6.690
14599TIP3   OH243739   0.033   1.675   6.826
14599TIP3    H143740  -0.009   1.712   6.748
14599TIP3    H243741   0.103   1.619   6.792
14600TIP3   OH243742   6.567   7.121   5.401
14600TIP3    H143743   6.498   7.092   5.461
14600TIP3    H243744   6.534   7.202   5.364
14601TIP3   OH243745   1.114   6.924   4.835
14601TIP3    H143746   1.111   6.934   4.930
14601TIP3    H243747   1.138   6.833   4.821
14602TIP3   OH243748   7.997   2.204   6.140
14602TIP3    H143749   8.015   2.281   6.194
14602TIP3    H243750   7.935   2.153   6.192
14603TIP3   OH243751   3.313   2.140   2.073
14603TIP3    H143752   3.406   2.146   2.053
14603TIP3    H243753   3.309   2.111   2.164
14604TIP3   OH243754   5.536   2.700   4.264
14604TIP3    H143755   5.555   2.611   4.294
14604TIP3    H243756   5.523   2.692   4.169
14605TIP3   OH243757   0.685   0.373   4.765
14605TIP3    H143758   0.680   0.313   4.691
14605TIP3    H243759   0.652   0.321   4.839
14606TIP3   OH243760   5.808   0.202   5.882
14606TIP3    H143761   5.894   0.204   5.923
14606TIP3    H243762   5.775   0.292   5.891
14607TIP3   OH243763   7.974   7.232   0.548
14607TIP3    H143764   7.892   7.194   0.581
14607TIP3    H243765   8.041   7.168   0.572
14608TIP3   OH243766   0.590   4.834   2.390
14608TIP3    H143767   0.628   4.766   2.446
14608TIP3    H243768   0.510   4.795   2.355
14609TIP3   OH243769   7.802   1.364   1.972
14609TIP3    H143770   7.869   1.345   1.906
14609TIP3    H243771   7.773   1.453   1.950
14610TIP3   OH243772   2.586   0.229   5.719
14610TIP3    H143773   2.632   0.206   5.638
14610TIP3    H243774   2.586   0.148   5.770
14611TIP3   OH243775   8.193   3.400   6.338
14611TIP3    H143776   8.202   3.495   6.341
14611TIP3    H243777   8.257   3.367   6.401
14612TIP3   OH243778   6.788   4.367   1.321
14612TIP3    H143779   6.783   4.361   1.417
14612TIP3    H243780   6.763   4.457   1.301
14613TIP3   OH243781   7.748   1.982   6.524
14613TIP3    H143782   7.680   2.041   6.492
14613TIP3    H243783   7.751   1.997   6.618
14614TIP3   OH243784   0.686   2.740   1.684
14614TIP3    H143785   0.652   2.829   1.683
14614TIP3    H243786   0.742   2.735   1.607
14615TIP3   OH243787   7.782   2.565   2.161
14615TIP3    H143788   7.825   2.604   2.085
14615TIP3    H243789   7.816   2.612   2.236
14616TIP3   OH243790   7.314   2.092   2.810
14616TIP3    H143791   7.246   2.153   2.780
14616TIP3    H243792   7.376   2.147   2.857
14617TIP3   OH243793   2.903   4.559   4.031
14617TIP3    H143794   2.874   4.590   3.945
14617TIP3    H243795   2.893   4.464   4.027
14618TIP3   OH243796   6.837   6.973   5.832
14618TIP3    H143797   6.885   6.971   5.915
14618TIP3    H243798   6.838   7.065   5.805
14619TIP3   OH243799   3.766   1.628   2.842
14619TIP3    H143800   3.779   1.722   2.827
14619TIP3    H243801   3.832   1.605   2.907
14620TIP3   OH243802   4.125   0.113   0.015
14620TIP3    H143803   4.197   0.065  -0.026
14620TIP3    H243804   4.128   0.199  -0.025
14621TIP3   OH243805   3.066   1.271   0.687
14621TIP3    H143806   2.987   1.306   0.647
14621TIP3    H243807   3.069   1.312   0.774
14622TIP3   OH243808   5.519   1.870   1.222
14622TIP3    H143809   5.518   1.801   1.288
14622TIP3    H243810   5.612   1.887   1.207
14623TIP3   OH243811   6.980   2.532   6.563
14623TIP3    H143812   7.034   2.454   6.560
14623TIP3    H243813   7.029   2.593   6.618
14624TIP3   OH243814   6.874   6.509   5.283
14624TIP3    H143815   6.849   6.495   5.375
14624TIP3    H243816   6.826   6.441   5.235
14625TIP3   OH243817   7.518   5.203   0.090
14625TIP3    H143818   7.528   5.134   0.025
14625TIP3    H243819   7.575   5.176   0.162
14626TIP3   OH243820   2.549   6.125   5.989
14626TIP3    H143821   2.471   6.077   6.016
14626TIP3    H243822   2.549   6.120   5.893
14627TIP3   OH243823   7.618   2.004   5.429
14627TIP3    H143824   7.576   2.013   5.343
14627TIP3    H243825   7.602   2.088   5.472
14628TIP3   OH243826   5.444   0.763   2.820
14628TIP3    H143827   5.369   0.736   2.873
14628TIP3    H243828   5.420   0.740   2.731
14629TIP3   OH243829   1.500   1.172   0.281
14629TIP3    H143830   1.532   1.090   0.317
14629TIP3    H243831   1.526   1.169   0.189
14630TIP3   OH243832   3.365   4.311   4.150
14630TIP3    H143833   3.289   4.291   4.095
14630TIP3    H243834   3.399   4.226   4.178
14631TIP3   OH243835   2.719   5.575   5.697
14631TIP3    H143836   2.723   5.660   5.740
14631TIP3    H243837   2.810   5.558   5.670
14632TIP3   OH243838   5.781   0.383   4.709
14632TIP3    H143839   5.687   0.395   4.701
14632TIP3    H243840   5.793   0.288   4.716
14633TIP3   OH243841   0.772   0.302   6.003
14633TIP3    H143842   0.713   0.352   6.060
14633TIP3    H243843   0.770   0.348   5.920
14634TIP3   OH243844   3.421   3.730   0.338
14634TIP3    H143845   3.409   3.647   0.293
14634TIP3    H243846   3.511   3.727   0.370
14635TIP3   OH243847   5.127   2.258   2.382
14635TIP3    H143848   5.146   2.166   2.404
14635TIP3    H243849   5.098   2.255   2.291
14636TIP3   OH243850   0.544   0.806   3.201
14636TIP3    H143851   0.555   0.885   3.254
14636TIP3    H243852   0.575   0.735   3.257
14637TIP3   OH243853   6.913   5.118   3.511
14637TIP3    H143854   6.848   5.188   3.509
14637TIP3    H243855   6.863   5.040   3.538
14638TIP3   OH243856   2.328   1.217   4.674
14638TIP3    H143857   2.263   1.147   4.668
14638TIP3    H243858   2.407   1.179   4.636
14639TIP3   OH243859   6.146   0.208   1.909
14639TIP3    H143860   6.143   0.130   1.964
14639TIP3    H243861   6.141   0.175   1.819
14640TIP3   OH243862   3.475   1.435   0.609
14640TIP3    H143863   3.544   1.501   0.597
14640TIP3    H243864   3.411   1.478   0.666
14641TIP3   OH243865   5.628   7.292   4.300
14641TIP3    H143866   5.669   7.245   4.227
14641TIP3    H243867   5.697   7.297   4.367
14642TIP3   OH243868   6.388   1.766   6.459
14642TIP3    H143869   6.454   1.830   6.486
14642TIP3    H243870   6.374   1.712   6.536
14643TIP3   OH243871   1.367   4.102   6.677
14643TIP3    H143872   1.284   4.098   6.629
14643TIP3    H243873   1.375   4.016   6.718
14644TIP3   OH243874   5.179   5.214   4.324
14644TIP3    H143875   5.193   5.276   4.253
14644TIP3    H243876   5.252   5.228   4.384
14645TIP3   OH243877   2.197   7.594   1.386
14645TIP3    H143878   2.136   7.538   1.339
14645TIP3    H243879   2.147   7.629   1.459
14646TIP3   OH243880   5.361   0.665   4.958
14646TIP3    H143881   5.306   0.742   4.944
14646TIP3    H243882   5.341   0.638   5.048
14647TIP3   OH243883   3.733   2.024   5.218
14647TIP3    H143884   3.697   2.076   5.290
14647TIP3    H243885   3.810   2.073   5.188
14648TIP3   OH243886   4.447   4.896   4.579
14648TIP3    H143887   4.486   4.844   4.509
14648TIP3    H243888   4.434   4.983   4.540
14649TIP3   OH243889   6.889   0.249   4.569
14649TIP3    H143890   6.969   0.204   4.597
14649TIP3    H243891   6.901   0.339   4.598
14650TIP3   OH243892   7.605   0.219   2.610
14650TIP3    H143893   7.523   0.236   2.656
14650TIP3    H243894   7.633   0.306   2.581
14651TIP3   OH243895   6.126   0.675   2.569
14651TIP3    H143896   6.152   0.761   2.536
14651TIP3    H243897   6.035   0.665   2.543
14652TIP3   OH243898   3.325   3.631   5.609
14652TIP3    H143899   3.397   3.567   5.608
14652TIP3    H243900   3.249   3.582   5.580
14653TIP3   OH243901   3.825   5.299   1.108
14653TIP3    H143902   3.871   5.368   1.060
14653TIP3    H243903   3.841   5.319   1.200
14654TIP3   OH243904   7.114   7.602   3.304
14654TIP3    H143905   7.108   7.513   3.270
14654TIP3    H243906   7.045   7.608   3.370
14655TIP3   OH243907   8.286   2.085   4.063
14655TIP3    H143908   8.200   2.060   4.095
14655TIP3    H243909   8.288   2.053   3.973
14656TIP3   OH243910   3.766   0.276   2.351
14656TIP3    H143911   3.741   0.303   2.262
14656TIP3    H243912   3.861   0.282   2.352
14657TIP3   OH243913   1.017   1.483   4.294
14657TIP3    H143914   1.066   1.565   4.290
14657TIP3    H243915   0.958   1.487   4.219
14658TIP3   OH243916   3.414   4.078   5.678
14658TIP3    H143917   3.384   4.025   5.604
14658TIP3    H243918   3.352   4.151   5.682
14659TIP3   OH243919   1.468   1.842   6.341
14659TIP3    H143920   1.381   1.881   6.337
14659TIP3    H243921   1.505   1.871   6.424
14660TIP3   OH243922   1.861   0.621   5.845
14660TIP3    H143923   1.808   0.698   5.824
14660TIP3    H243924   1.810   0.573   5.910
14661TIP3   OH243925   3.879   1.867   1.989
14661TIP3    H143926   3.854   1.925   2.061
14661TIP3    H243927   3.882   1.780   2.029
14662TIP3   OH243928   7.834   1.162   3.978
14662TIP3    H143929   7.928   1.166   3.994
14662TIP3    H243930   7.813   1.245   3.936
14663TIP3   OH243931   6.599   3.857   2.088
14663TIP3    H143932   6.573   3.837   2.178
14663TIP3    H243933   6.523   3.901   2.050
14664TIP3   OH243934   6.009   2.991   0.412
14664TIP3    H143935   5.987   2.950   0.496
14664TIP3    H243936   5.973   2.932   0.346
14665TIP3   OH243937   7.992   0.072   2.025
14665TIP3    H143938   8.079   0.111   2.015
14665TIP3    H243939   7.932   0.146   2.020
14666TIP3   OH243940   1.638   3.602   5.722
14666TIP3    H143941   1.672   3.541   5.788
14666TIP3    H243942   1.582   3.548   5.667
14667TIP3   OH243943   5.020   1.244   2.980
14667TIP3    H143944   5.033   1.294   2.900
14667TIP3    H243945   5.037   1.307   3.051
14668TIP3   OH243946   4.493   4.737   6.457
14668TIP3    H143947   4.524   4.795   6.387
14668TIP3    H243948   4.482   4.652   6.414
14669TIP3   OH243949   8.164   4.425   0.506
14669TIP3    H143950   8.186   4.357   0.443
14669TIP3    H243951   8.110   4.381   0.572
14670TIP3   OH243952   2.413   2.323   5.029
14670TIP3    H143953   2.382   2.336   5.119
14670TIP3    H243954   2.493   2.271   5.038
14671TIP3   OH243955   0.268   1.995   4.712
14671TIP3    H143956   0.192   2.052   4.715
14671TIP3    H243957   0.341   2.050   4.742
14672TIP3   OH243958   7.881   3.398   2.176
14672TIP3    H143959   7.893   3.376   2.083
14672TIP3    H243960   7.925   3.328   2.223
14673TIP3   OH243961   2.328   1.570   1.695
14673TIP3    H143962   2.260   1.632   1.723
14673TIP3    H243963   2.280   1.493   1.667
14674TIP3   OH243964   5.496   5.318   3.871
14674TIP3    H143965   5.493   5.241   3.813
14674TIP3    H243966   5.551   5.290   3.945
14675TIP3   OH243967   2.315   3.859   5.657
14675TIP3    H143968   2.356   3.937   5.694
14675TIP3    H243969   2.263   3.891   5.584
14676TIP3   OH243970   5.686   4.083   5.844
14676TIP3    H143971   5.715   4.132   5.921
14676TIP3    H243972   5.668   3.995   5.877
14677TIP3   OH243973   6.224   6.659   5.139
14677TIP3    H143974   6.147   6.715   5.130
14677TIP3    H243975   6.251   6.640   5.049
14678TIP3   OH243976   5.913   0.881   5.178
14678TIP3    H143977   5.940   0.838   5.097
14678TIP3    H243978   5.838   0.935   5.152
14679TIP3   OH243979   6.530   5.778   6.713
14679TIP3    H143980   6.586   5.842   6.757
14679TIP3    H243981   6.444   5.790   6.754
14680TIP3   OH243982   6.488   2.201   0.946
14680TIP3    H143983   6.513   2.285   0.984
14680TIP3    H243984   6.394   2.209   0.929
14681TIP3   OH243985   5.796   0.136   5.228
14681TIP3    H143986   5.803   0.219   5.276
14681TIP3    H243987   5.883   0.098   5.234
14682TIP3   OH243988   7.863   3.011   3.868
14682TIP3    H143989   7.892   2.988   3.956
14682TIP3    H243990   7.786   2.957   3.853
14683TIP3   OH243991   1.467   2.391   0.933
14683TIP3    H143992   1.445   2.314   0.985
14683TIP3    H243993   1.390   2.406   0.879
14684TIP3   OH243994   1.011   6.138   5.039
14684TIP3    H143995   1.038   6.119   5.129
14684TIP3    H243996   0.966   6.058   5.010
14685TIP3   OH243997   7.625   6.674   3.352
14685TIP3    H143998   7.719   6.670   3.371
14685TIP3    H243999   7.586   6.607   3.407
14686TIP3   OH244000   2.138   3.756   5.087
14686TIP3    H144001   2.043   3.749   5.081
14686TIP3    H244002   2.171   3.692   5.024
14687TIP3   OH244003   7.069   2.184   0.180
14687TIP3    H144004   7.140   2.154   0.124
14687TIP3    H244005   6.995   2.128   0.156
14688TIP3   OH244006   2.957   3.854   1.492
14688TIP3    H144007   2.886   3.829   1.433
14688TIP3    H244008   3.031   3.800   1.465
14689TIP3   OH244009   2.484   0.050   0.674
14689TIP3    H144010   2.408   0.073   0.620
14689TIP3    H244011   2.542   0.002   0.614
14690TIP3   OH244012   5.205   4.401   4.098
14690TIP3    H144013   5.131   4.402   4.037
14690TIP3    H244014   5.186   4.472   4.159
14691TIP3   OH244015   0.120   1.274   0.353
14691TIP3    H144016   0.086   1.278   0.264
14691TIP3    H244017   0.172   1.354   0.363
14692TIP3   OH244018   6.853   5.394   4.367
14692TIP3    H144019   6.765   5.382   4.402
14692TIP3    H244020   6.863   5.489   4.358
14693TIP3   OH244021   1.109   6.190   5.558
14693TIP3    H144022   1.027   6.238   5.567
14693TIP3    H244023   1.155   6.233   5.486
14694TIP3   OH244024   1.644   4.733   4.894
14694TIP3    H144025   1.662   4.794   4.823
14694TIP3    H244026   1.725   4.731   4.945
14695TIP3   OH244027   2.423   1.742   4.877
14695TIP3    H144028   2.436   1.834   4.904
14695TIP3    H244029   2.509   1.702   4.889
14696TIP3   OH244030   3.479   1.730   4.024
14696TIP3    H144031   3.484   1.795   3.954
14696TIP3    H244032   3.496   1.647   3.980
14697TIP3   OH244033   6.161   3.816   0.870
14697TIP3    H144034   6.230   3.768   0.823
14697TIP3    H244035   6.144   3.893   0.816
14698TIP3   OH244036   4.770   5.085   6.139
14698TIP3    H144037   4.824   5.159   6.112
14698TIP3    H244038   4.834   5.017   6.163
14699TIP3   OH244039   6.473   1.665   2.131
14699TIP3    H144040   6.439   1.662   2.221
14699TIP3    H244041   6.564   1.637   2.140
14700TIP3   OH244042   5.961   3.493   6.216
14700TIP3    H144043   5.943   3.528   6.129
14700TIP3    H244044   5.908   3.413   6.221
14701TIP3   OH244045   1.210   3.774   2.624
14701TIP3    H144046   1.185   3.774   2.716
14701TIP3    H244047   1.306   3.776   2.626
14702TIP3   OH244048   5.503   1.104   3.419
14702TIP3    H144049   5.458   1.110   3.335
14702TIP3    H244050   5.461   1.031   3.464
14703TIP3   OH244051   5.948   2.070   0.059
14703TIP3    H144052   5.853   2.084   0.061
14703TIP3    H244053   5.978   2.121  -0.016
14704TIP3   OH244054   5.199   6.855   4.488
14704TIP3    H144055   5.248   6.773   4.491
14704TIP3    H244056   5.252   6.913   4.433
14705TIP3   OH244057   3.125   1.881   0.332
14705TIP3    H144058   3.111   1.966   0.291
14705TIP3    H244059   3.147   1.823   0.259
14706TIP3   OH244060   2.219   3.988   4.120
14706TIP3    H144061   2.261   4.070   4.145
14706TIP3    H244062   2.291   3.928   4.100
14707TIP3   OH244063   3.989   4.140   5.279
14707TIP3    H144064   4.043   4.167   5.353
14707TIP3    H244065   3.912   4.100   5.318
14708TIP3   OH244066   6.863   1.978   5.217
14708TIP3    H144067   6.901   1.950   5.300
14708TIP3    H244068   6.857   2.073   5.224
14709TIP3   OH244069   3.741   5.961   1.429
14709TIP3    H144070   3.831   5.971   1.462
14709TIP3    H244071   3.737   6.020   1.354
14710TIP3   OH244072   7.967   2.674   0.326
14710TIP3    H144073   7.959   2.613   0.400
14710TIP3    H244074   8.039   2.639   0.274
14711TIP3   OH244075   0.571   2.836   6.338
14711TIP3    H144076   0.560   2.926   6.369
14711TIP3    H244077   0.588   2.845   6.244
14712TIP3   OH244078   6.871   4.602   4.718
14712TIP3    H144079   6.907   4.617   4.806
14712TIP3    H244080   6.926   4.654   4.660
14713TIP3   OH244081   2.412   5.668   1.776
14713TIP3    H144082   2.447   5.689   1.690
14713TIP3    H244083   2.475   5.706   1.838
14714TIP3   OH244084   6.553   0.218   2.796
14714TIP3    H144085   6.615   0.152   2.766
14714TIP3    H244086   6.467   0.178   2.783
14715TIP3   OH244087   4.752   6.659   6.217
14715TIP3    H144088   4.758   6.643   6.311
14715TIP3    H244089   4.662   6.638   6.194
14716TIP3   OH244090   4.553   6.630   4.710
14716TIP3    H144091   4.470   6.633   4.757
14716TIP3    H244092   4.617   6.603   4.776
14717TIP3   OH244093   0.423   5.220   1.578
14717TIP3    H144094   0.337   5.250   1.605
14717TIP3    H244095   0.426   5.235   1.484
14718TIP3   OH244096   0.832   0.604   6.051
14718TIP3    H144097   0.737   0.599   6.066
14718TIP3    H244098   0.871   0.554   6.122
14719TIP3   OH244099   6.105   0.283   0.377
14719TIP3    H144100   6.076   0.309   0.465
14719TIP3    H244101   6.024   0.261   0.331
14720TIP3   OH244102   8.082   0.826   2.590
14720TIP3    H144103   8.135   0.892   2.637
14720TIP3    H244104   8.122   0.821   2.503
14721TIP3   OH244105   5.477   1.003   2.634
14721TIP3    H144106   5.471   0.922   2.685
14721TIP3    H244107   5.452   1.072   2.696
14722TIP3   OH244108   1.409   4.141   4.030
14722TIP3    H144109   1.491   4.102   4.060
14722TIP3    H244110   1.388   4.207   4.096
14723TIP3   OH244111   6.593   2.208   2.086
14723TIP3    H144112   6.622   2.145   2.021
14723TIP3    H244113   6.659   2.277   2.085
14724TIP3   OH244114   0.394   4.155   1.465
14724TIP3    H144115   0.467   4.213   1.486
14724TIP3    H244116   0.407   4.079   1.521
14725TIP3   OH244117   1.471   2.241   4.385
14725TIP3    H144118   1.395   2.220   4.440
14725TIP3    H244119   1.448   2.324   4.344
14726TIP3   OH244120   3.642   1.564   3.082
14726TIP3    H144121   3.651   1.604   2.996
14726TIP3    H244122   3.562   1.511   3.075
14727TIP3   OH244123   2.334   5.052   1.563
14727TIP3    H144124   2.282   4.976   1.590
14727TIP3    H244125   2.303   5.124   1.618
14728TIP3   OH244126   2.453   6.417   3.289
14728TIP3    H144127   2.485   6.434   3.378
14728TIP3    H244128   2.364   6.383   3.302
14729TIP3   OH244129   4.803   0.023   5.890
14729TIP3    H144130   4.756   0.094   5.847
14729TIP3    H244131   4.737  -0.045   5.903
14730TIP3   OH244132   5.294   3.138   4.897
14730TIP3    H144133   5.304   3.166   4.805
14730TIP3    H244134   5.305   3.218   4.947
14731TIP3   OH244135   6.567   7.659   5.822
14731TIP3    H144136   6.519   7.577   5.811
14731TIP3    H244137   6.659   7.634   5.819
14732TIP3   OH244138   3.886   0.646   0.471
14732TIP3    H144139   3.914   0.585   0.539
14732TIP3    H244140   3.833   0.711   0.517
14733TIP3   OH244141   3.072   3.968   5.720
14733TIP3    H144142   3.122   3.903   5.769
14733TIP3    H244143   3.124   3.985   5.641
14734TIP3   OH244144   1.726   6.024   4.866
14734TIP3    H144145   1.662   5.994   4.930
14734TIP3    H244146   1.804   6.045   4.918
14735TIP3   OH244147   3.379   3.019   4.070
14735TIP3    H144148   3.392   3.114   4.064
14735TIP3    H244149   3.460   2.986   4.108
14736TIP3   OH244150   6.595   7.640   0.023
14736TIP3    H144151   6.542   7.566  -0.009
14736TIP3    H244152   6.658   7.601   0.083
14737TIP3   OH244153   6.668   4.954  -0.022
14737TIP3    H144154   6.700   4.868  -0.051
14737TIP3    H244155   6.664   4.947   0.073
14738TIP3   OH244156   1.790   3.215   2.183
14738TIP3    H144157   1.835   3.253   2.107
14738TIP3    H244158   1.861   3.184   2.240
14739TIP3   OH244159   0.136   1.723   6.474
14739TIP3    H144160   0.162   1.791   6.411
14739TIP3    H244161   0.210   1.717   6.534
14740TIP3   OH244162   3.592   7.177   1.316
14740TIP3    H144163   3.596   7.087   1.349
14740TIP3    H244164   3.534   7.173   1.240
14741TIP3   OH244165   4.992   4.616   6.516
14741TIP3    H144166   4.920   4.663   6.558
14741TIP3    H244167   4.956   4.530   6.495
14742TIP3   OH244168   1.948   4.814   3.276
14742TIP3    H144169   1.900   4.742   3.317
14742TIP3    H244170   1.978   4.868   3.349
14743TIP3   OH244171   4.717   1.552   6.727
14743TIP3    H144172   4.658   1.576   6.655
14743TIP3    H244173   4.696   1.461   6.746
14744TIP3   OH244174   7.123   5.279   3.452
14744TIP3    H144175   7.054   5.219   3.481
14744TIP3    H244176   7.141   5.334   3.528
14745TIP3   OH244177   5.882   5.354   6.439
14745TIP3    H144178   5.966   5.378   6.401
14745TIP3    H244179   5.883   5.391   6.527
14746TIP3   OH244180   2.747   6.195   1.279
14746TIP3    H144181   2.691   6.119   1.292
14746TIP3    H244182   2.697   6.254   1.223
14747TIP3   OH244183   7.232   3.595   5.552
14747TIP3    H144184   7.210   3.516   5.603
14747TIP3    H244185   7.321   3.616   5.578
14748TIP3   OH244186   4.643   1.591   4.742
14748TIP3    H144187   4.684   1.661   4.792
14748TIP3    H244188   4.716   1.547   4.698
14749TIP3   OH244189   5.537   5.686   2.602
14749TIP3    H144190   5.573   5.641   2.526
14749TIP3    H244191   5.559   5.778   2.589
14750TIP3   OH244192   6.193   3.396   0.465
14750TIP3    H144193   6.146   3.479   0.454
14750TIP3    H244194   6.285   3.419   0.452
14751TIP3   OH244195   3.081   3.442   6.190
14751TIP3    H144196   3.098   3.378   6.260
14751TIP3    H244197   3.144   3.419   6.122
14752TIP3   OH244198   4.534   6.651   3.101
14752TIP3    H144199   4.547   6.640   3.007
14752TIP3    H244200   4.596   6.720   3.126
14753TIP3   OH244201   1.845   2.165   2.560
14753TIP3    H144202   1.907   2.224   2.602
14753TIP3    H244203   1.763   2.214   2.557
14754TIP3   OH244204   5.445   1.149   5.958
14754TIP3    H144205   5.501   1.211   5.911
14754TIP3    H244206   5.436   1.187   6.046
14755TIP3   OH244207   2.007   7.446   3.551
14755TIP3    H144208   1.956   7.524   3.532
14755TIP3    H244209   2.032   7.410   3.466
14756TIP3   OH244210   7.672   7.296   6.020
14756TIP3    H144211   7.668   7.320   5.928
14756TIP3    H244212   7.583   7.308   6.052
14757TIP3   OH244213   6.993   4.126   0.393
14757TIP3    H144214   6.982   4.155   0.302
14757TIP3    H244215   6.940   4.187   0.444
14758TIP3   OH244216   7.343   6.748   6.713
14758TIP3    H144217   7.260   6.714   6.748
14758TIP3    H244218   7.409   6.686   6.743
14759TIP3   OH244219   7.721   6.964   0.322
14759TIP3    H144220   7.765   7.016   0.389
14759TIP3    H244221   7.687   7.028   0.259
14760TIP3   OH244222   1.294   1.168   3.099
14760TIP3    H144223   1.297   1.148   3.193
14760TIP3    H244224   1.212   1.131   3.069
14761TIP3   OH244225   1.579   2.407   1.549
14761TIP3    H144226   1.597   2.397   1.455
14761TIP3    H244227   1.645   2.353   1.592
14762TIP3   OH244228   7.107   2.315   2.205
14762TIP3    H144229   7.163   2.389   2.184
14762TIP3    H244230   7.055   2.344   2.280
14763TIP3   OH244231   6.635   6.458   0.142
14763TIP3    H144232   6.602   6.479   0.055
14763TIP3    H244233   6.564   6.483   0.202
14764TIP3   OH244234   2.804   0.306   3.368
14764TIP3    H144235   2.853   0.380   3.335
14764TIP3    H244236   2.850   0.280   3.448
14765TIP3   OH244237   6.527   2.395   2.522
14765TIP3    H144238   6.434   2.375   2.518
14765TIP3    H244239   6.535   2.481   2.481
14766TIP3   OH244240   1.698   2.956   3.536
14766TIP3    H144241   1.638   2.882   3.550
14766TIP3    H244242   1.660   3.028   3.586
14767TIP3   OH244243   1.266   6.342   4.118
14767TIP3    H144244   1.210   6.276   4.076
14767TIP3    H244245   1.227   6.354   4.204
14768TIP3   OH244246   3.986   1.669   1.243
14768TIP3    H144247   4.066   1.674   1.295
14768TIP3    H244248   3.971   1.759   1.214
14769TIP3   OH244249   6.631   4.772   6.591
14769TIP3    H144250   6.685   4.705   6.633
14769TIP3    H244251   6.609   4.833   6.661
14770TIP3   OH244252   1.229   2.254   6.167
14770TIP3    H144253   1.263   2.266   6.255
14770TIP3    H244254   1.138   2.284   6.172
14771TIP3   OH244255   5.811   0.091   4.717
14771TIP3    H144256   5.861   0.011   4.702
14771TIP3    H244257   5.751   0.069   4.788
14772TIP3   OH244258   1.954   2.191   6.000
14772TIP3    H144259   1.904   2.116   6.032
14772TIP3    H244260   2.022   2.152   5.943
14773TIP3   OH244261   6.175   5.784   4.014
14773TIP3    H144262   6.218   5.775   3.929
14773TIP3    H244263   6.150   5.876   4.019
14774TIP3   OH244264   7.196   4.152   5.705
14774TIP3    H144265   7.232   4.235   5.737
14774TIP3    H244266   7.229   4.087   5.767
14775TIP3   OH244267   7.214   1.196   0.363
14775TIP3    H144268   7.212   1.251   0.285
14775TIP3    H244269   7.146   1.131   0.348
14776TIP3   OH244270   6.106   5.393   5.508
14776TIP3    H144271   6.106   5.310   5.460
14776TIP3    H244272   6.014   5.412   5.524
14777TIP3   OH244273   6.236   2.064   0.385
14777TIP3    H144274   6.262   2.141   0.335
14777TIP3    H244275   6.272   2.079   0.473
14778TIP3   OH244276   2.473   1.314   1.940
14778TIP3    H144277   2.395   1.369   1.949
14778TIP3    H244278   2.525   1.358   1.872
14779TIP3   OH244279   0.972   1.072   2.002
14779TIP3    H144280   0.960   1.167   2.000
14779TIP3    H244281   1.063   1.059   1.974
14780TIP3   OH244282   3.606   0.178   4.856
14780TIP3    H144283   3.662   0.246   4.892
14780TIP3    H244284   3.644   0.096   4.887
14781TIP3   OH244285   7.714   0.706   3.230
14781TIP3    H144286   7.798   0.735   3.264
14781TIP3    H244287   7.653   0.718   3.303
14782TIP3   OH244288   3.892   3.406   3.719
14782TIP3    H144289   3.907   3.432   3.810
14782TIP3    H244290   3.931   3.477   3.667
14783TIP3   OH244291   3.966   6.848   6.281
14783TIP3    H144292   4.020   6.913   6.236
14783TIP3    H244293   4.007   6.764   6.259
14784TIP3   OH244294   4.612   3.646   1.467
14784TIP3    H144295   4.683   3.590   1.500
14784TIP3    H244296   4.561   3.668   1.544
14785TIP3   OH244297   3.011   7.299   4.888
14785TIP3    H144298   2.953   7.352   4.942
14785TIP3    H244299   3.031   7.354   4.812
14786TIP3   OH244300   5.891   2.740   4.707
14786TIP3    H144301   5.909   2.806   4.774
14786TIP3    H244302   5.963   2.750   4.644
14787TIP3   OH244303   0.879   3.362   0.488
14787TIP3    H144304   0.841   3.444   0.456
14787TIP3    H244305   0.810   3.323   0.542
14788TIP3   OH244306   2.600   3.504   4.110
14788TIP3    H144307   2.670   3.569   4.116
14788TIP3    H244308   2.644   3.423   4.086
14789TIP3   OH244309   5.542   7.127   2.029
14789TIP3    H144310   5.578   7.048   2.070
14789TIP3    H244311   5.592   7.199   2.067
14790TIP3   OH244312   8.044   1.560   0.854
14790TIP3    H144313   8.059   1.487   0.915
14790TIP3    H244314   8.059   1.521   0.767
14791TIP3   OH244315   1.129   0.706   5.109
14791TIP3    H144316   1.209   0.701   5.057
14791TIP3    H244317   1.142   0.642   5.179
14792TIP3   OH244318   0.246   5.122   2.359
14792TIP3    H144319   0.274   5.092   2.272
14792TIP3    H244320   0.159   5.159   2.344
14793TIP3   OH244321   1.764   1.839   6.361
14793TIP3    H144322   1.706   1.903   6.403
14793TIP3    H244323   1.849   1.855   6.402
14794TIP3   OH244324   1.095   3.216   0.422
14794TIP3    H144325   1.019   3.273   0.430
14794TIP3    H244326   1.074   3.141   0.478
14795TIP3   OH244327   6.197   5.525   2.097
14795TIP3    H144328   6.103   5.535   2.084
14795TIP3    H244329   6.233   5.613   2.084
14796TIP3   OH244330   1.191   0.780   0.583
14796TIP3    H144331   1.109   0.732   0.575
14796TIP3    H244332   1.203   0.823   0.499
14797TIP3   OH244333   7.243   6.595   1.899
14797TIP3    H144334   7.163   6.633   1.936
14797TIP3    H244335   7.236   6.502   1.919
14798TIP3   OH244336   5.665   1.304   6.366
14798TIP3    H144337   5.649   1.384   6.417
14798TIP3    H244338   5.760   1.294   6.368
14799TIP3   OH244339   4.818   3.074   6.745
14799TIP3    H144340   4.734   3.090   6.788
14799TIP3    H244341   4.812   3.122   6.662
14800TIP3   OH244342   4.830   4.111   4.375
14800TIP3    H144343   4.925   4.097   4.380
14800TIP3    H244344   4.820   4.189   4.321
14801TIP3   OH244345   3.173   6.293   5.309
14801TIP3    H144346   3.241   6.232   5.337
14801TIP3    H244347   3.122   6.309   5.388
14802TIP3   OH244348   4.739   3.697   3.621
14802TIP3    H144349   4.815   3.692   3.679
14802TIP3    H244350   4.770   3.742   3.543
14803TIP3   OH244351   1.607   6.759   0.237
14803TIP3    H144352   1.540   6.826   0.225
14803TIP3    H244353   1.587   6.692   0.173
14804TIP3   OH244354   2.696   4.805   5.790
14804TIP3    H144355   2.698   4.855   5.871
14804TIP3    H244356   2.660   4.865   5.725
14805TIP3   OH244357   2.450   2.691   0.483
14805TIP3    H144358   2.441   2.631   0.410
14805TIP3    H244359   2.383   2.664   0.545
14806TIP3   OH244360   7.028   5.779   0.412
14806TIP3    H144361   6.941   5.816   0.430
14806TIP3    H244362   7.084   5.814   0.481
14807TIP3   OH244363   3.122   6.446   6.040
14807TIP3    H144364   3.082   6.455   5.953
14807TIP3    H244365   3.172   6.527   6.051
14808TIP3   OH244366   5.134   6.435   6.304
14808TIP3    H144367   5.156   6.417   6.395
14808TIP3    H244368   5.215   6.419   6.255
14809TIP3   OH244369   4.471   7.669   4.403
14809TIP3    H144370   4.458   7.599   4.468
14809TIP3    H244371   4.426   7.637   4.324
14810TIP3   OH244372   7.235   3.321   1.753
14810TIP3    H144373   7.326   3.299   1.776
14810TIP3    H244374   7.234   3.319   1.657
14811TIP3   OH244375   3.741   1.984   3.505
14811TIP3    H144376   3.732   1.980   3.600
14811TIP3    H244377   3.758   1.894   3.479
14812TIP3   OH244378   3.264   3.584   3.899
14812TIP3    H144379   3.318   3.524   3.848
14812TIP3    H244380   3.316   3.606   3.976
14813TIP3   OH244381   7.935   2.136   1.289
14813TIP3    H144382   7.968   2.172   1.207
14813TIP3    H244383   8.007   2.146   1.351
14814TIP3   OH244384   3.686   0.005   2.320
14814TIP3    H144385   3.704  -0.004   2.226
14814TIP3    H244386   3.720   0.091   2.343
14815TIP3   OH244387   0.533   6.836   2.394
14815TIP3    H144388   0.551   6.930   2.395
14815TIP3    H244389   0.619   6.795   2.384
14816TIP3   OH244390   5.615   1.240   5.765
14816TIP3    H144391   5.620   1.334   5.749
14816TIP3    H244392   5.623   1.201   5.677
14817TIP3   OH244393   3.984   0.480   4.305
14817TIP3    H144394   3.953   0.456   4.393
14817TIP3    H244395   3.953   0.570   4.293
14818TIP3   OH244396   3.605   2.789   3.895
14818TIP3    H144397   3.684   2.745   3.865
14818TIP3    H244398   3.536   2.723   3.889
14819TIP3   OH244399   0.787   7.797   5.211
14819TIP3    H144400   0.810   7.722   5.266
14819TIP3    H244401   0.823   7.873   5.257
14820TIP3   OH244402   1.876   4.836   0.498
14820TIP3    H144403   1.941   4.905   0.507
14820TIP3    H244404   1.852   4.837   0.405
14821TIP3   OH244405   3.785   4.898   5.040
14821TIP3    H144406   3.738   4.980   5.052
14821TIP3    H244407   3.820   4.902   4.951
14822TIP3   OH244408   2.842   5.252   4.122
14822TIP3    H144409   2.798   5.221   4.201
14822TIP3    H244410   2.804   5.338   4.105
14823TIP3   OH244411   0.604   6.100   3.093
14823TIP3    H144412   0.678   6.102   3.154
14823TIP3    H244413   0.636   6.047   3.020
14824TIP3   OH244414   8.028   0.848   4.418
14824TIP3    H144415   8.010   0.936   4.387
14824TIP3    H244416   8.108   0.822   4.373
14825TIP3   OH244417   0.507   7.746   5.267
14825TIP3    H144418   0.518   7.736   5.362
14825TIP3    H244419   0.595   7.763   5.234
14826TIP3   OH244420  -0.005   0.703   4.342
14826TIP3    H144421   0.082   0.670   4.365
14826TIP3    H244422   0.007   0.741   4.255
14827TIP3   OH244423   7.071   2.492   2.937
14827TIP3    H144424   7.096   2.563   2.996
14827TIP3    H244425   7.111   2.414   2.975
14828TIP3   OH244426   6.496   7.789   4.564
14828TIP3    H144427   6.418   7.739   4.540
14828TIP3    H244428   6.568   7.740   4.525
14829TIP3   OH244429   4.000   0.482   0.676
14829TIP3    H144430   3.977   0.396   0.712
14829TIP3    H244431   4.087   0.470   0.638
14830TIP3   OH244432   7.508   5.184   4.173
14830TIP3    H144433   7.518   5.150   4.084
14830TIP3    H244434   7.434   5.136   4.209
   8.29350   7.81919   6.77161   0.00000   0.00000  -2.76450   0.00000  -2.76450  -3.90959
