Title t= 100.00000 step= 50000
46055
    1GLY      N    1   2.458   2.600   1.114
    1GLY    HT1    2   2.376   2.593   1.051
    1GLY    HT2    3   2.420   2.612   1.210
    1GLY    HT3    4   2.515   2.512   1.111
    1GLY     CA    5   2.545   2.727   1.088
    1GLY    HA1    6   2.477   2.810   1.092
    1GLY    HA2    7   2.602   2.721   0.997
    1GLY      C    8   2.649   2.747   1.200
    1GLY      O    9   2.669   2.662   1.287
    2PRO      N   10   2.705   2.864   1.205
    2PRO     CD   11   2.699   2.959   1.092
    2PRO    HD1   12   2.596   3.002   1.091
    2PRO    HD2   13   2.717   2.914   0.992
    2PRO     CA   14   2.807   2.908   1.304
    2PRO     HA   15   2.898   2.851   1.291
    2PRO     CB   16   2.818   3.060   1.270
    2PRO    HB1   17   2.914   3.100   1.309
    2PRO    HB2   18   2.739   3.114   1.325
    2PRO     CG   19   2.804   3.066   1.116
    2PRO    HG1   20   2.781   3.166   1.074
    2PRO    HG2   21   2.900   3.029   1.076
    2PRO      C   22   2.762   2.893   1.449
    2PRO      O   23   2.651   2.937   1.479
    3GLY      N   24   2.846   2.839   1.536
    3GLY     HN   25   2.928   2.792   1.505
    3GLY     CA   26   2.828   2.834   1.681
    3GLY    HA1   27   2.912   2.775   1.715
    3GLY    HA2   28   2.732   2.787   1.697
    3GLY      C   29   2.805   2.965   1.751
    3GLY      O   30   2.814   3.074   1.695
    4ALA      N   31   2.773   2.961   1.880
    4ALA     HN   32   2.786   2.881   1.939
    4ALA     CA   33   2.745   3.076   1.961
    4ALA     HA   34   2.689   3.138   1.892
    4ALA     CB   35   2.681   3.039   2.092
    4ALA    HB1   36   2.751   2.985   2.159
    4ALA    HB2   37   2.591   2.975   2.080
    4ALA    HB3   38   2.647   3.126   2.152
    4ALA      C   39   2.879   3.149   2.001
    4ALA      O   40   2.980   3.085   2.029
    5PRO      N   41   2.882   3.286   2.014
    5PRO     CD   42   2.757   3.365   1.993
    5PRO    HD1   43   2.715   3.355   2.096
    5PRO    HD2   44   2.691   3.349   1.906
    5PRO     CA   45   2.991   3.361   2.077
    5PRO     HA   46   3.082   3.357   2.019
    5PRO     CB   47   2.927   3.499   2.089
    5PRO    HB1   48   3.001   3.581   2.079
    5PRO    HB2   49   2.875   3.506   2.187
    5PRO     CG   50   2.815   3.509   1.983
    5PRO    HG1   51   2.734   3.576   2.017
    5PRO    HG2   52   2.858   3.526   1.882
    5PRO      C   53   3.046   3.313   2.207
    5PRO      O   54   2.985   3.229   2.274
    6GLY      N   55   3.166   3.363   2.245
    6GLY     HN   56   3.212   3.433   2.191
    6GLY     CA   57   3.243   3.317   2.363
    6GLY    HA1   58   3.343   3.357   2.359
    6GLY    HA2   59   3.239   3.210   2.360
    6GLY      C   60   3.175   3.351   2.499
    6GLY      O   61   3.068   3.412   2.497
    7PRO      N   62   3.227   3.297   2.614
    7PRO     CD   63   3.349   3.215   2.618
    7PRO    HD1   64   3.438   3.279   2.604
    7PRO    HD2   65   3.351   3.134   2.542
    7PRO     CA   66   3.173   3.316   2.754
    7PRO     HA   67   3.087   3.253   2.739
    7PRO     CB   68   3.273   3.261   2.849
    7PRO    HB1   69   3.227   3.216   2.939
    7PRO    HB2   70   3.341   3.347   2.868
    7PRO     CG   71   3.349   3.161   2.763
    7PRO    HG1   72   3.456   3.158   2.794
    7PRO    HG2   73   3.312   3.057   2.774
    7PRO      C   74   3.115   3.445   2.801
    7PRO      O   75   3.170   3.553   2.775
    8GLY      N   76   3.000   3.440   2.866
    8GLY     HN   77   2.955   3.352   2.882
    8GLY     CA   78   2.955   3.553   2.951
    8GLY    HA1   79   2.868   3.516   3.004
    8GLY    HA2   80   2.930   3.630   2.878
    8GLY      C   81   3.055   3.602   3.052
    8GLY      O   82   3.161   3.549   3.074
    9ALA      N   83   3.016   3.718   3.115
    9ALA     HN   84   2.920   3.741   3.103
    9ALA     CA   85   3.098   3.788   3.216
    9ALA     HA   86   3.199   3.761   3.187
    9ALA     CB   87   3.051   3.937   3.224
    9ALA    HB1   88   3.074   3.986   3.127
    9ALA    HB2   89   3.103   3.992   3.306
    9ALA    HB3   90   2.942   3.946   3.241
    9ALA      C   91   3.059   3.714   3.345
    9ALA      O   92   2.953   3.659   3.355
   10PRO      N   93   3.144   3.709   3.448
   10PRO     CD   94   3.279   3.755   3.443
   10PRO    HD1   95   3.287   3.852   3.390
   10PRO    HD2   96   3.347   3.673   3.410
   10PRO     CA   97   3.095   3.667   3.582
   10PRO     HA   98   3.043   3.573   3.578
   10PRO     CB   99   3.228   3.665   3.661
   10PRO    HB1  100   3.273   3.566   3.638
   10PRO    HB2  101   3.213   3.689   3.768
   10PRO     CG  102   3.312   3.765   3.594
   10PRO    HG1  103   3.278   3.864   3.631
   10PRO    HG2  104   3.421   3.775   3.617
   10PRO      C  105   3.000   3.769   3.629
   10PRO      O  106   3.018   3.891   3.600
   11GLY      N  107   2.891   3.735   3.694
   11GLY     HN  108   2.871   3.640   3.721
   11GLY     CA  109   2.783   3.826   3.736
   11GLY    HA1  110   2.718   3.772   3.804
   11GLY    HA2  111   2.731   3.856   3.647
   11GLY      C  112   2.815   3.963   3.804
   11GLY      O  113   2.912   3.956   3.883
   12PRO      N  114   2.741   4.078   3.788
   12PRO     CD  115   2.601   4.072   3.746
   12PRO    HD1  116   2.543   3.992   3.796
   12PRO    HD2  117   2.598   4.063   3.635
   12PRO     CA  118   2.766   4.198   3.864
   12PRO     HA  119   2.863   4.235   3.832
   12PRO     CB  120   2.656   4.290   3.820
   12PRO    HB1  121   2.685   4.322   3.718
   12PRO    HB2  122   2.637   4.381   3.880
   12PRO     CG  123   2.535   4.198   3.804
   12PRO    HG1  124   2.509   4.177   3.910
   12PRO    HG2  125   2.450   4.242   3.748
   12PRO      C  126   2.766   4.171   4.006
   12PRO      O  127   2.680   4.097   4.054
   13GLY      N  128   2.860   4.233   4.084
   13GLY     HN  129   2.926   4.295   4.042
   13GLY     CA  130   2.870   4.245   4.228
   13GLY    HA1  131   2.975   4.266   4.238
   13GLY    HA2  132   2.833   4.157   4.278
   13GLY      C  133   2.800   4.354   4.292
   13GLY      O  134   2.696   4.401   4.252
   14ALA      N  135   2.870   4.415   4.398
   14ALA     HN  136   2.951   4.370   4.433
   14ALA     CA  137   2.855   4.544   4.462
   14ALA     HA  138   2.800   4.517   4.551
   14ALA     CB  139   3.000   4.592   4.519
   14ALA    HB1  140   3.076   4.600   4.438
   14ALA    HB2  141   3.052   4.519   4.585
   14ALA    HB3  142   3.003   4.690   4.570
   14ALA      C  143   2.801   4.657   4.381
   14ALA      O  144   2.861   4.689   4.279
   15PRO      N  145   2.690   4.717   4.415
   15PRO     CD  146   2.586   4.651   4.495
   15PRO    HD1  147   2.590   4.699   4.595
   15PRO    HD2  148   2.594   4.541   4.505
   15PRO     CA  149   2.636   4.818   4.324
   15PRO     HA  150   2.631   4.779   4.223
   15PRO     CB  151   2.495   4.827   4.377
   15PRO    HB1  152   2.428   4.875   4.302
   15PRO    HB2  153   2.490   4.900   4.461
   15PRO     CG  154   2.460   4.684   4.411
   15PRO    HG1  155   2.367   4.685   4.471
   15PRO    HG2  156   2.461   4.615   4.323
   15PRO      C  157   2.702   4.952   4.318
   15PRO    OT1  158   2.736   5.007   4.423
   15PRO    OT2  159   2.730   5.004   4.209
   16LIT    LIT  160   5.655   4.670   2.453
   17LIT    LIT  161   3.789   6.388   3.915
   18LIT    LIT  162   5.443   4.746   6.811
   19LIT    LIT  163   5.508   5.449   1.255
   20LIT    LIT  164   3.687   6.280   1.680
   21LIT    LIT  165   0.473   4.551   2.907
   22LIT    LIT  166   2.774   0.535   4.423
   23LIT    LIT  167   7.458   5.243   3.450
   24LIT    LIT  168   5.461   5.360   3.252
   25LIT    LIT  169   2.475   7.642   5.812
   26LIT    LIT  170   6.518   1.933   4.591
   27LIT    LIT  171   7.798   4.429   2.284
   28LIT    LIT  172   0.991   5.986   5.100
   29LIT    LIT  173   4.529   1.405   1.450
   30LIT    LIT  174   4.214   4.689   3.592
   31LIT    LIT  175   7.505   2.888   4.853
   32LIT    LIT  176   1.058   3.310   5.159
   33LIT    LIT  177   5.329   6.613   2.799
   34LIT    LIT  178   0.341   6.187   0.704
   35LIT    LIT  179   0.296   0.089   3.701
   36LIT    LIT  180   7.318   6.543   5.563
   37LIT    LIT  181   1.830   5.393   3.129
   38LIT    LIT  182   1.143   6.010   1.752
   39LIT    LIT  183   3.563   1.337   5.620
   40LIT    LIT  184   0.243   6.074   6.407
   41LIT    LIT  185   2.046   2.241   4.875
   42LIT    LIT  186   7.164   4.403   1.098
   43LIT    LIT  187   0.965   7.681   1.007
   44LIT    LIT  188   7.078   0.048   1.517
   45LIT    LIT  189   8.279   6.526   2.520
   46LIT    LIT  190   0.722   3.551   4.023
   47LIT    LIT  191   1.628   0.743   1.462
   48LIT    LIT  192   1.680   6.785   2.311
   49LIT    LIT  193   5.457   6.953   6.334
   50LIT    LIT  194   4.006   5.432   1.936
   51LIT    LIT  195   0.595   3.274   6.524
   52LIT    LIT  196   0.035   0.926   5.971
   53LIT    LIT  197   4.495   5.983   4.748
   54LIT    LIT  198   5.209   1.519   5.730
   55LIT    LIT  199   3.366   1.476   3.220
   56LIT    LIT  200   6.959   6.041   2.826
   57LIT    LIT  201   2.788   4.358   0.479
   58LIT    LIT  202   2.837   5.140   4.294
   59CLA    CLA  203   3.376   5.946   1.799
   60CLA    CLA  204   3.783   5.726   3.417
   61CLA    CLA  205   5.295   6.375   0.248
   62CLA    CLA  206   2.662   7.529   4.342
   63CLA    CLA  207   1.113   6.517   3.100
   64CLA    CLA  208   4.556   6.474   4.845
   65CLA    CLA  209   0.823   2.546   6.303
   66CLA    CLA  210   1.633   6.337   0.269
   67CLA    CLA  211   7.009   5.192   3.554
   68CLA    CLA  212   7.241   4.739   2.522
   69CLA    CLA  213   5.877   7.848   4.139
   70CLA    CLA  214   0.266   4.387   6.777
   71CLA    CLA  215   0.199   3.096   2.199
   72CLA    CLA  216   6.509   5.782   5.008
   73CLA    CLA  217   0.877   6.162   5.188
   74CLA    CLA  218   4.174   7.530   0.987
   75CLA    CLA  219   5.185   5.961   6.004
   76CLA    CLA  220   0.770   2.503   0.103
   77CLA    CLA  221   3.869   2.807   4.806
   78CLA    CLA  222   8.100   0.494   5.275
   79CLA    CLA  223   6.042   6.136   2.858
   80CLA    CLA  224   7.335   5.860   0.702
   81CLA    CLA  225   2.211   1.577   2.232
   82CLA    CLA  226   5.235   4.455   2.745
   83CLA    CLA  227   0.438   7.380   4.382
   84CLA    CLA  228   8.310   6.022   2.073
   85CLA    CLA  229   0.871   6.342   2.238
   86CLA    CLA  230   7.641   3.356   6.258
   87CLA    CLA  231   0.571   1.194   6.043
   88CLA    CLA  232   5.290   4.596   1.738
   89CLA    CLA  233   7.927   6.796   6.729
   90CLA    CLA  234   3.999   7.075   0.878
   91CLA    CLA  235   7.559   0.813   0.318
   92CLA    CLA  236   4.908   4.790   1.505
   93CLA    CLA  237   3.412   1.549   5.245
   94CLA    CLA  238   5.755   6.889   4.146
   95CLA    CLA  239   4.134   1.411   1.578
   96CLA    CLA  240   7.155   1.808   3.636
   97CLA    CLA  241   1.391   1.484   5.314
   98CLA    CLA  242   7.077   3.369   5.825
   99CLA    CLA  243   0.577   4.806   2.558
  100CLA    CLA  244   7.959   3.877   0.261
  101CLA    CLA  245   2.077   0.257   1.196
  102TIP3   OH2  246   4.995   5.720   5.429
  102TIP3    H1  247   4.967   5.776   5.502
  102TIP3    H2  248   5.083   5.690   5.454
  103TIP3   OH2  249   8.315   5.293   4.229
  103TIP3    H1  250   8.347   5.358   4.167
  103TIP3    H2  251   8.238   5.333   4.269
  104TIP3   OH2  252   3.583   3.231   4.641
  104TIP3    H1  253   3.493   3.265   4.637
  104TIP3    H2  254   3.635   3.293   4.590
  105TIP3   OH2  255   7.853   2.081   0.074
  105TIP3    H1  256   7.846   2.050   0.164
  105TIP3    H2  257   7.830   2.174   0.079
  106TIP3   OH2  258   2.636   7.038   1.096
  106TIP3    H1  259   2.623   6.945   1.081
  106TIP3    H2  260   2.633   7.078   1.009
  107TIP3   OH2  261   3.162   2.969   0.261
  107TIP3    H1  262   3.079   2.967   0.308
  107TIP3    H2  263   3.183   3.062   0.253
  108TIP3   OH2  264   0.715   2.940   6.247
  108TIP3    H1  265   0.718   2.921   6.153
  108TIP3    H2  266   0.795   2.899   6.282
  109TIP3   OH2  267   5.699   6.105   3.433
  109TIP3    H1  268   5.631   6.150   3.384
  109TIP3    H2  269   5.752   6.062   3.366
  110TIP3   OH2  270   4.516   3.015   1.212
  110TIP3    H1  271   4.490   3.107   1.215
  110TIP3    H2  272   4.537   3.000   1.120
  111TIP3   OH2  273   4.661   1.944   5.819
  111TIP3    H1  274   4.623   1.974   5.901
  111TIP3    H2  275   4.687   2.025   5.774
  112TIP3   OH2  276   1.804   6.779   3.172
  112TIP3    H1  277   1.779   6.686   3.171
  112TIP3    H2  278   1.763   6.815   3.094
  113TIP3   OH2  279   0.722   3.607   6.434
  113TIP3    H1  280   0.753   3.573   6.350
  113TIP3    H2  281   0.800   3.643   6.475
  114TIP3   OH2  282   3.483   2.031   1.562
  114TIP3    H1  283   3.541   1.956   1.576
  114TIP3    H2  284   3.395   1.994   1.560
  115TIP3   OH2  285   1.781   5.057   0.487
  115TIP3    H1  286   1.722   5.131   0.474
  115TIP3    H2  287   1.764   4.999   0.413
  116TIP3   OH2  288   2.371   1.050   6.462
  116TIP3    H1  289   2.276   1.042   6.473
  116TIP3    H2  290   2.388   1.019   6.373
  117TIP3   OH2  291   5.780   7.770   0.471
  117TIP3    H1  292   5.831   7.799   0.547
  117TIP3    H2  293   5.709   7.719   0.509
  118TIP3   OH2  294   0.562   2.122   5.740
  118TIP3    H1  295   0.538   2.192   5.801
  118TIP3    H2  296   0.524   2.043   5.779
  119TIP3   OH2  297   2.814   1.505   0.272
  119TIP3    H1  298   2.859   1.490   0.189
  119TIP3    H2  299   2.734   1.552   0.249
  120TIP3   OH2  300   6.561   1.306   2.883
  120TIP3    H1  301   6.581   1.321   2.790
  120TIP3    H2  302   6.468   1.285   2.884
  121TIP3   OH2  303   0.761   5.641   5.753
  121TIP3    H1  304   0.689   5.699   5.728
  121TIP3    H2  305   0.804   5.620   5.670
  122TIP3   OH2  306   8.268   2.478   2.087
  122TIP3    H1  307   8.179   2.491   2.053
  122TIP3    H2  308   8.319   2.548   2.047
  123TIP3   OH2  309   6.058   6.761   2.498
  123TIP3    H1  310   6.144   6.727   2.523
  123TIP3    H2  311   6.034   6.711   2.420
  124TIP3   OH2  312   5.219   3.552   2.777
  124TIP3    H1  313   5.285   3.488   2.805
  124TIP3    H2  314   5.251   3.635   2.811
  125TIP3   OH2  315   3.344   4.718   5.577
  125TIP3    H1  316   3.296   4.646   5.618
  125TIP3    H2  317   3.280   4.789   5.569
  126TIP3   OH2  318   0.830   3.380   1.294
  126TIP3    H1  319   0.922   3.390   1.268
  126TIP3    H2  320   0.815   3.451   1.357
  127TIP3   OH2  321   8.003   7.918   4.380
  127TIP3    H1  322   8.034   7.913   4.471
  127TIP3    H2  323   8.062   7.861   4.331
  128TIP3   OH2  324   7.735   3.634   3.859
  128TIP3    H1  325   7.822   3.665   3.886
  128TIP3    H2  326   7.675   3.687   3.911
  129TIP3   OH2  327   5.237   7.074   1.920
  129TIP3    H1  328   5.324   7.084   1.958
  129TIP3    H2  329   5.199   6.999   1.967
  130TIP3   OH2  330   4.530   0.954   6.801
  130TIP3    H1  331   4.435   0.948   6.807
  130TIP3    H2  332   4.547   0.982   6.711
  131TIP3   OH2  333   3.002   7.619   5.638
  131TIP3    H1  334   2.999   7.714   5.647
  131TIP3    H2  335   3.052   7.604   5.558
  132TIP3   OH2  336   7.960   0.574   6.529
  132TIP3    H1  337   8.011   0.505   6.487
  132TIP3    H2  338   7.965   0.554   6.622
  133TIP3   OH2  339   5.634   0.789   2.635
  133TIP3    H1  340   5.664   0.846   2.706
  133TIP3    H2  341   5.607   0.708   2.679
  134TIP3   OH2  342   6.447   1.248   5.816
  134TIP3    H1  343   6.498   1.171   5.841
  134TIP3    H2  344   6.441   1.299   5.896
  135TIP3   OH2  345   5.935   3.013   0.085
  135TIP3    H1  346   5.927   3.108   0.083
  135TIP3    H2  347   5.965   2.990  -0.003
  136TIP3   OH2  348   7.975   2.992   1.777
  136TIP3    H1  349   7.976   3.079   1.738
  136TIP3    H2  350   7.990   3.008   1.870
  137TIP3   OH2  351   6.043   5.208   3.063
  137TIP3    H1  352   5.967   5.259   3.037
  137TIP3    H2  353   6.029   5.189   3.155
  138TIP3   OH2  354   6.997   6.679   0.426
  138TIP3    H1  355   6.969   6.701   0.515
  138TIP3    H2  356   6.993   6.761   0.378
  139TIP3   OH2  357   3.671   4.966   1.473
  139TIP3    H1  358   3.739   4.978   1.539
  139TIP3    H2  359   3.590   4.957   1.523
  140TIP3   OH2  360   3.601   7.379   1.914
  140TIP3    H1  361   3.620   7.451   1.974
  140TIP3    H2  362   3.536   7.415   1.854
  141TIP3   OH2  363   3.756   2.362   6.563
  141TIP3    H1  364   3.788   2.369   6.653
  141TIP3    H2  365   3.773   2.449   6.525
  142TIP3   OH2  366   1.026   6.870   5.019
  142TIP3    H1  367   1.096   6.935   5.009
  142TIP3    H2  368   1.073   6.787   5.028
  143TIP3   OH2  369   6.723   0.619   6.133
  143TIP3    H1  370   6.796   0.674   6.105
  143TIP3    H2  371   6.718   0.549   6.068
  144TIP3   OH2  372   0.628   0.475   5.613
  144TIP3    H1  373   0.561   0.415   5.646
  144TIP3    H2  374   0.585   0.521   5.541
  145TIP3   OH2  375   3.022   5.456   3.265
  145TIP3    H1  376   3.083   5.527   3.247
  145TIP3    H2  377   2.961   5.493   3.329
  146TIP3   OH2  378   1.265   4.453   4.377
  146TIP3    H1  379   1.275   4.430   4.285
  146TIP3    H2  380   1.182   4.500   4.381
  147TIP3   OH2  381   0.153   5.616   6.180
  147TIP3    H1  382   0.191   5.689   6.131
  147TIP3    H2  383   0.143   5.546   6.115
  148TIP3   OH2  384   5.800   6.322   3.179
  148TIP3    H1  385   5.829   6.236   3.150
  148TIP3    H2  386   5.866   6.383   3.144
  149TIP3   OH2  387   5.000   4.404   1.314
  149TIP3    H1  388   5.075   4.457   1.340
  149TIP3    H2  389   5.009   4.396   1.219
  150TIP3   OH2  390   6.027   3.964   4.343
  150TIP3    H1  391   6.086   3.922   4.406
  150TIP3    H2  392   6.004   3.895   4.281
  151TIP3   OH2  393   3.650   5.200   2.239
  151TIP3    H1  394   3.617   5.268   2.181
  151TIP3    H2  395   3.710   5.247   2.298
  152TIP3   OH2  396   7.657   3.475   4.479
  152TIP3    H1  397   7.678   3.511   4.565
  152TIP3    H2  398   7.624   3.550   4.429
  153TIP3   OH2  399   6.778   3.525   1.983
  153TIP3    H1  400   6.688   3.497   1.971
  153TIP3    H2  401   6.791   3.524   2.078
  154TIP3   OH2  402   5.336   3.915   5.364
  154TIP3    H1  403   5.343   3.829   5.406
  154TIP3    H2  404   5.333   3.977   5.436
  155TIP3   OH2  405   1.936   2.130   4.768
  155TIP3    H1  406   1.892   2.145   4.685
  155TIP3    H2  407   1.900   2.047   4.799
  156TIP3   OH2  408   5.788   7.761   4.661
  156TIP3    H1  409   5.762   7.759   4.569
  156TIP3    H2  410   5.838   7.842   4.671
  157TIP3   OH2  411   0.341   1.529   1.370
  157TIP3    H1  412   0.336   1.444   1.326
  157TIP3    H2  413   0.318   1.511   1.461
  158TIP3   OH2  414   2.216   2.404   1.050
  158TIP3    H1  415   2.189   2.424   1.140
  158TIP3    H2  416   2.134   2.397   1.001
  159TIP3   OH2  417   6.485   6.762   3.175
  159TIP3    H1  418   6.565   6.711   3.165
  159TIP3    H2  419   6.515   6.853   3.174
  160TIP3   OH2  420   0.831   3.021   5.416
  160TIP3    H1  421   0.903   2.976   5.371
  160TIP3    H2  422   0.764   3.033   5.348
  161TIP3   OH2  423   2.968   5.939   3.460
  161TIP3    H1  424   3.024   6.006   3.422
  161TIP3    H2  425   3.025   5.892   3.521
  162TIP3   OH2  426   4.500   2.787   2.701
  162TIP3    H1  427   4.554   2.736   2.641
  162TIP3    H2  428   4.554   2.797   2.779
  163TIP3   OH2  429   3.215   5.645   0.411
  163TIP3    H1  430   3.204   5.717   0.472
  163TIP3    H2  431   3.271   5.582   0.457
  164TIP3   OH2  432   4.058   3.351   6.807
  164TIP3    H1  433   4.121   3.302   6.753
  164TIP3    H2  434   4.033   3.290   6.877
  165TIP3   OH2  435   1.415   2.564   3.028
  165TIP3    H1  436   1.350   2.559   3.098
  165TIP3    H2  437   1.387   2.637   2.974
  166TIP3   OH2  438   4.428   4.506   5.687
  166TIP3    H1  439   4.467   4.584   5.725
  166TIP3    H2  440   4.344   4.536   5.653
  167TIP3   OH2  441   6.676   4.344   4.201
  167TIP3    H1  442   6.683   4.365   4.294
  167TIP3    H2  443   6.612   4.406   4.167
  168TIP3   OH2  444   4.425   2.952   1.616
  168TIP3    H1  445   4.405   2.911   1.532
  168TIP3    H2  446   4.384   3.038   1.611
  169TIP3   OH2  447   0.890   5.652   2.270
  169TIP3    H1  448   0.974   5.633   2.228
  169TIP3    H2  449   0.905   5.732   2.320
  170TIP3   OH2  450   5.777   0.550   5.479
  170TIP3    H1  451   5.867   0.529   5.453
  170TIP3    H2  452   5.726   0.475   5.449
  171TIP3   OH2  453   6.736   6.765   3.475
  171TIP3    H1  454   6.806   6.830   3.477
  171TIP3    H2  455   6.662   6.807   3.518
  172TIP3   OH2  456   5.405   3.571   2.271
  172TIP3    H1  457   5.358   3.599   2.350
  172TIP3    H2  458   5.380   3.635   2.204
  173TIP3   OH2  459   6.179   1.743   4.433
  173TIP3    H1  460   6.111   1.810   4.424
  173TIP3    H2  461   6.130   1.662   4.445
  174TIP3   OH2  462   5.732   6.217   0.071
  174TIP3    H1  463   5.660   6.279   0.071
  174TIP3    H2  464   5.750   6.201   0.164
  175TIP3   OH2  465   7.845   3.109   1.366
  175TIP3    H1  466   7.856   3.178   1.301
  175TIP3    H2  467   7.873   3.029   1.321
  176TIP3   OH2  468   1.913   2.176   1.410
  176TIP3    H1  469   1.876   2.259   1.441
  176TIP3    H2  470   1.836   2.122   1.390
  177TIP3   OH2  471   1.360   7.363   5.345
  177TIP3    H1  472   1.344   7.429   5.413
  177TIP3    H2  473   1.294   7.295   5.361
  178TIP3   OH2  474   3.709   4.354   5.460
  178TIP3    H1  475   3.731   4.418   5.393
  178TIP3    H2  476   3.636   4.305   5.422
  179TIP3   OH2  477   3.234   7.283   0.173
  179TIP3    H1  478   3.319   7.265   0.133
  179TIP3    H2  479   3.186   7.332   0.106
  180TIP3   OH2  480   3.097   6.816   1.078
  180TIP3    H1  481   3.068   6.907   1.068
  180TIP3    H2  482   3.016   6.768   1.094
  181TIP3   OH2  483   7.985   3.388   3.587
  181TIP3    H1  484   7.914   3.425   3.640
  181TIP3    H2  485   7.969   3.421   3.499
  182TIP3   OH2  486   5.898   4.299   5.905
  182TIP3    H1  487   5.848   4.241   5.962
  182TIP3    H2  488   5.910   4.379   5.955
  183TIP3   OH2  489   3.484   5.954   1.157
  183TIP3    H1  490   3.460   5.864   1.135
  183TIP3    H2  491   3.409   5.988   1.206
  184TIP3   OH2  492   4.246   6.078   5.481
  184TIP3    H1  493   4.306   6.034   5.421
  184TIP3    H2  494   4.160   6.041   5.462
  185TIP3   OH2  495   5.171   4.778   0.417
  185TIP3    H1  496   5.261   4.806   0.401
  185TIP3    H2  497   5.126   4.797   0.334
  186TIP3   OH2  498   1.138   3.136   3.108
  186TIP3    H1  499   1.217   3.082   3.101
  186TIP3    H2  500   1.171   3.224   3.125
  187TIP3   OH2  501   4.987   3.847   0.781
  187TIP3    H1  502   5.017   3.857   0.690
  187TIP3    H2  503   4.968   3.936   0.810
  188TIP3   OH2  504   1.701   6.554   2.029
  188TIP3    H1  505   1.688   6.470   1.986
  188TIP3    H2  506   1.795   6.572   2.018
  189TIP3   OH2  507   4.414   3.933   2.509
  189TIP3    H1  508   4.390   3.955   2.419
  189TIP3    H2  509   4.501   3.894   2.501
  190TIP3   OH2  510   2.478   0.010   4.655
  190TIP3    H1  511   2.489   0.096   4.694
  190TIP3    H2  512   2.419  -0.037   4.715
  191TIP3   OH2  513   1.199   4.026   4.994
  191TIP3    H1  514   1.152   4.109   4.997
  191TIP3    H2  515   1.172   3.985   4.911
  192TIP3   OH2  516   2.405   2.744   3.383
  192TIP3    H1  517   2.414   2.727   3.290
  192TIP3    H2  518   2.475   2.805   3.403
  193TIP3   OH2  519   6.319   0.180   2.756
  193TIP3    H1  520   6.368   0.157   2.835
  193TIP3    H2  521   6.377   0.152   2.684
  194TIP3   OH2  522   0.455   4.246   1.019
  194TIP3    H1  523   0.426   4.155   1.011
  194TIP3    H2  524   0.443   4.266   1.112
  195TIP3   OH2  525   0.890   3.058   3.296
  195TIP3    H1  526   0.976   3.086   3.264
  195TIP3    H2  527   0.877   2.972   3.257
  196TIP3   OH2  528   5.075   5.052   0.826
  196TIP3    H1  529   4.982   5.075   0.831
  196TIP3    H2  530   5.075   4.961   0.795
  197TIP3   OH2  531   3.326   2.670   2.412
  197TIP3    H1  532   3.409   2.686   2.368
  197TIP3    H2  533   3.322   2.575   2.425
  198TIP3   OH2  534   2.992   2.656   0.471
  198TIP3    H1  535   3.050   2.606   0.414
  198TIP3    H2  536   3.035   2.652   0.557
  199TIP3   OH2  537   8.210   3.302   1.433
  199TIP3    H1  538   8.291   3.331   1.391
  199TIP3    H2  539   8.231   3.216   1.468
  200TIP3   OH2  540   3.176   1.402   3.215
  200TIP3    H1  541   3.161   1.355   3.297
  200TIP3    H2  542   3.143   1.344   3.147
  201TIP3   OH2  543   6.244   0.048   0.565
  201TIP3    H1  544   6.227  -0.030   0.512
  201TIP3    H2  545   6.196   0.032   0.647
  202TIP3   OH2  546   6.723   6.846   6.356
  202TIP3    H1  547   6.761   6.925   6.316
  202TIP3    H2  548   6.653   6.879   6.411
  203TIP3   OH2  549   5.919   7.521   4.200
  203TIP3    H1  550   5.956   7.608   4.183
  203TIP3    H2  551   5.921   7.513   4.295
  204TIP3   OH2  552   2.283   1.282   3.621
  204TIP3    H1  553   2.300   1.271   3.715
  204TIP3    H2  554   2.197   1.324   3.617
  205TIP3   OH2  555   0.300   4.711   6.249
  205TIP3    H1  556   0.286   4.700   6.343
  205TIP3    H2  557   0.309   4.622   6.215
  206TIP3   OH2  558   7.396   0.384   3.569
  206TIP3    H1  559   7.371   0.296   3.542
  206TIP3    H2  560   7.330   0.441   3.529
  207TIP3   OH2  561   5.458   1.614   4.325
  207TIP3    H1  562   5.527   1.679   4.311
  207TIP3    H2  563   5.460   1.560   4.246
  208TIP3   OH2  564   0.289   1.937   0.721
  208TIP3    H1  565   0.367   1.883   0.734
  208TIP3    H2  566   0.305   1.983   0.639
  209TIP3   OH2  567   1.378   1.913   0.185
  209TIP3    H1  568   1.338   1.999   0.198
  209TIP3    H2  569   1.311   1.861   0.141
  210TIP3   OH2  570   6.227   1.864   1.467
  210TIP3    H1  571   6.162   1.853   1.537
  210TIP3    H2  572   6.236   1.959   1.457
  211TIP3   OH2  573   5.311   6.123   3.966
  211TIP3    H1  574   5.222   6.092   3.947
  211TIP3    H2  575   5.297   6.201   4.020
  212TIP3   OH2  576   0.827   3.554   5.224
  212TIP3    H1  577   0.779   3.504   5.290
  212TIP3    H2  578   0.796   3.519   5.140
  213TIP3   OH2  579   0.549   5.357   5.985
  213TIP3    H1  580   0.483   5.420   5.955
  213TIP3    H2  581   0.500   5.275   5.996
  214TIP3   OH2  582   3.320   4.679   3.679
  214TIP3    H1  583   3.358   4.696   3.593
  214TIP3    H2  584   3.353   4.749   3.734
  215TIP3   OH2  585   7.040   4.347   4.939
  215TIP3    H1  586   7.037   4.307   4.852
  215TIP3    H2  587   6.992   4.287   4.995
  216TIP3   OH2  588   7.015   0.809   4.986
  216TIP3    H1  589   6.932   0.844   4.954
  216TIP3    H2  590   7.078   0.828   4.916
  217TIP3   OH2  591   4.339   4.499   1.972
  217TIP3    H1  592   4.284   4.460   1.903
  217TIP3    H2  593   4.392   4.563   1.927
  218TIP3   OH2  594   7.742   4.371   6.599
  218TIP3    H1  595   7.726   4.408   6.685
  218TIP3    H2  596   7.768   4.281   6.616
  219TIP3   OH2  597   7.447   4.434   4.930
  219TIP3    H1  598   7.447   4.394   4.843
  219TIP3    H2  599   7.500   4.375   4.983
  220TIP3   OH2  600   0.684   0.622   4.790
  220TIP3    H1  601   0.678   0.630   4.885
  220TIP3    H2  602   0.643   0.702   4.756
  221TIP3   OH2  603   3.865   5.219   5.288
  221TIP3    H1  604   3.801   5.213   5.359
  221TIP3    H2  605   3.911   5.135   5.291
  222TIP3   OH2  606   7.355   5.873   3.166
  222TIP3    H1  607   7.281   5.934   3.169
  222TIP3    H2  608   7.370   5.858   3.072
  223TIP3   OH2  609   6.921   6.043   0.841
  223TIP3    H1  610   6.897   6.022   0.932
  223TIP3    H2  611   6.878   5.975   0.789
  224TIP3   OH2  612   4.565   1.016   5.046
  224TIP3    H1  613   4.478   0.977   5.058
  224TIP3    H2  614   4.624   0.961   5.098
  225TIP3   OH2  615   4.191   1.060   5.711
  225TIP3    H1  616   4.149   1.101   5.786
  225TIP3    H2  617   4.273   1.107   5.699
  226TIP3   OH2  618   2.728   7.645   2.745
  226TIP3    H1  619   2.714   7.608   2.658
  226TIP3    H2  620   2.766   7.731   2.729
  227TIP3   OH2  621   4.376   7.383   1.233
  227TIP3    H1  622   4.415   7.458   1.188
  227TIP3    H2  623   4.285   7.407   1.247
  228TIP3   OH2  624   1.277   7.659   2.363
  228TIP3    H1  625   1.189   7.679   2.332
  228TIP3    H2  626   1.298   7.728   2.426
  229TIP3   OH2  627   6.127   7.499   6.762
  229TIP3    H1  628   6.214   7.516   6.726
  229TIP3    H2  629   6.071   7.565   6.720
  230TIP3   OH2  630   0.680   0.093   6.346
  230TIP3    H1  631   0.686   0.013   6.399
  230TIP3    H2  632   0.603   0.079   6.291
  231TIP3   OH2  633   0.748   0.996   4.173
  231TIP3    H1  634   0.766   0.906   4.147
  231TIP3    H2  635   0.670   0.991   4.227
  232TIP3   OH2  636   0.040   6.175   5.275
  232TIP3    H1  637   0.039   6.174   5.371
  232TIP3    H2  638  -0.050   6.152   5.251
  233TIP3   OH2  639   5.424   6.602   0.451
  233TIP3    H1  640   5.387   6.686   0.423
  233TIP3    H2  641   5.384   6.538   0.392
  234TIP3   OH2  642   6.812   7.478   4.666
  234TIP3    H1  643   6.815   7.401   4.722
  234TIP3    H2  644   6.901   7.515   4.671
  235TIP3   OH2  645   6.108   1.391   3.539
  235TIP3    H1  646   6.081   1.405   3.629
  235TIP3    H2  647   6.099   1.477   3.497
  236TIP3   OH2  648   4.523   2.065   2.336
  236TIP3    H1  649   4.546   2.156   2.317
  236TIP3    H2  650   4.545   2.053   2.428
  237TIP3   OH2  651   2.705   2.423   3.820
  237TIP3    H1  652   2.797   2.445   3.832
  237TIP3    H2  653   2.677   2.387   3.904
  238TIP3   OH2  654   2.373   7.867   1.913
  238TIP3    H1  655   2.406   7.812   1.984
  238TIP3    H2  656   2.395   7.956   1.938
  239TIP3   OH2  657   3.409   5.338   5.490
  239TIP3    H1  658   3.344   5.395   5.532
  239TIP3    H2  659   3.394   5.349   5.396
  240TIP3   OH2  660   5.864   1.530   4.775
  240TIP3    H1  661   5.929   1.502   4.839
  240TIP3    H2  662   5.865   1.626   4.780
  241TIP3   OH2  663   3.196   6.823   1.386
  241TIP3    H1  664   3.180   6.736   1.424
  241TIP3    H2  665   3.148   6.822   1.303
  242TIP3   OH2  666   5.954   4.854   1.111
  242TIP3    H1  667   5.870   4.809   1.119
  242TIP3    H2  668   5.936   4.929   1.055
  243TIP3   OH2  669   0.706   3.171   4.160
  243TIP3    H1  670   0.622   3.208   4.187
  243TIP3    H2  671   0.741   3.235   4.098
  244TIP3   OH2  672   4.349   1.596   5.203
  244TIP3    H1  673   4.283   1.531   5.227
  244TIP3    H2  674   4.342   1.664   5.270
  245TIP3   OH2  675   8.180   1.651   5.969
  245TIP3    H1  676   8.126   1.582   5.931
  245TIP3    H2  677   8.191   1.715   5.899
  246TIP3   OH2  678   0.256   7.806   5.248
  246TIP3    H1  679   0.238   7.792   5.155
  246TIP3    H2  680   0.312   7.884   5.250
  247TIP3   OH2  681   5.052   3.690   1.569
  247TIP3    H1  682   5.072   3.632   1.496
  247TIP3    H2  683   4.997   3.758   1.530
  248TIP3   OH2  684   2.821   5.235   2.292
  248TIP3    H1  685   2.744   5.202   2.245
  248TIP3    H2  686   2.823   5.328   2.270
  249TIP3   OH2  687   6.421   0.096   4.980
  249TIP3    H1  688   6.326   0.086   4.980
  249TIP3    H2  689   6.436   0.175   5.032
  250TIP3   OH2  690   7.476   6.741   6.495
  250TIP3    H1  691   7.561   6.761   6.534
  250TIP3    H2  692   7.486   6.654   6.458
  251TIP3   OH2  693   4.205   3.293   4.048
  251TIP3    H1  694   4.238   3.255   3.967
  251TIP3    H2  695   4.213   3.388   4.035
  252TIP3   OH2  696   4.773   4.495   5.023
  252TIP3    H1  697   4.787   4.492   5.117
  252TIP3    H2  698   4.808   4.579   4.995
  253TIP3   OH2  699   5.007   0.277   0.716
  253TIP3    H1  700   4.984   0.308   0.629
  253TIP3    H2  701   4.924   0.273   0.763
  254TIP3   OH2  702   0.291   5.405   6.337
  254TIP3    H1  703   0.227   5.467   6.302
  254TIP3    H2  704   0.375   5.451   6.331
  255TIP3   OH2  705   2.524   1.968   3.639
  255TIP3    H1  706   2.587   1.969   3.712
  255TIP3    H2  707   2.550   2.042   3.584
  256TIP3   OH2  708   5.028   6.628   5.120
  256TIP3    H1  709   4.948   6.678   5.101
  256TIP3    H2  710   5.020   6.549   5.067
  257TIP3   OH2  711   8.200   1.441   2.443
  257TIP3    H1  712   8.206   1.492   2.525
  257TIP3    H2  713   8.138   1.372   2.464
  258TIP3   OH2  714   8.157   2.903   4.747
  258TIP3    H1  715   8.084   2.881   4.805
  258TIP3    H2  716   8.230   2.851   4.780
  259TIP3   OH2  717   5.540   4.763   4.333
  259TIP3    H1  718   5.490   4.838   4.367
  259TIP3    H2  719   5.478   4.717   4.277
  260TIP3   OH2  720   4.367   7.900   2.392
  260TIP3    H1  721   4.434   7.851   2.440
  260TIP3    H2  722   4.415   7.948   2.325
  261TIP3   OH2  723   4.758   0.880   6.215
  261TIP3    H1  724   4.813   0.887   6.137
  261TIP3    H2  725   4.700   0.955   6.211
  262TIP3   OH2  726   3.691   7.288   6.100
  262TIP3    H1  727   3.758   7.240   6.148
  262TIP3    H2  728   3.614   7.285   6.156
  263TIP3   OH2  729   5.366   5.016   3.307
  263TIP3    H1  730   5.319   5.053   3.382
  263TIP3    H2  731   5.442   4.972   3.346
  264TIP3   OH2  732   4.812   7.360   5.037
  264TIP3    H1  733   4.757   7.342   5.113
  264TIP3    H2  734   4.805   7.280   4.984
  265TIP3   OH2  735   8.211   3.591   1.828
  265TIP3    H1  736   8.272   3.534   1.782
  265TIP3    H2  737   8.132   3.591   1.774
  266TIP3   OH2  738   4.759   4.948   6.288
  266TIP3    H1  739   4.714   4.866   6.307
  266TIP3    H2  740   4.692   5.004   6.249
  267TIP3   OH2  741   0.841   1.445   4.040
  267TIP3    H1  742   0.829   1.538   4.018
  267TIP3    H2  743   0.933   1.428   4.021
  268TIP3   OH2  744   2.315   7.474   4.615
  268TIP3    H1  745   2.296   7.567   4.626
  268TIP3    H2  746   2.296   7.455   4.523
  269TIP3   OH2  747   0.082   1.030   0.395
  269TIP3    H1  748   0.163   0.981   0.379
  269TIP3    H2  749   0.109   1.105   0.448
  270TIP3   OH2  750   3.959   0.328   5.318
  270TIP3    H1  751   3.889   0.392   5.334
  270TIP3    H2  752   3.948   0.262   5.386
  271TIP3   OH2  753   3.410   1.618   4.104
  271TIP3    H1  754   3.425   1.535   4.059
  271TIP3    H2  755   3.493   1.637   4.147
  272TIP3   OH2  756   2.886   3.232   0.322
  272TIP3    H1  757   2.877   3.205   0.413
  272TIP3    H2  758   2.977   3.259   0.313
  273TIP3   OH2  759   7.088   0.182   1.354
  273TIP3    H1  760   7.099   0.191   1.259
  273TIP3    H2  761   7.057   0.267   1.383
  274TIP3   OH2  762   2.321   0.796   1.890
  274TIP3    H1  763   2.392   0.737   1.865
  274TIP3    H2  764   2.363   0.862   1.946
  275TIP3   OH2  765   3.925   0.251   2.476
  275TIP3    H1  766   3.976   0.324   2.509
  275TIP3    H2  767   3.990   0.184   2.453
  276TIP3   OH2  768   4.857   1.163   0.756
  276TIP3    H1  769   4.871   1.231   0.691
  276TIP3    H2  770   4.765   1.172   0.781
  277TIP3   OH2  771   7.699   5.974   3.457
  277TIP3    H1  772   7.730   5.951   3.545
  277TIP3    H2  773   7.726   5.901   3.402
  278TIP3   OH2  774   5.853   5.458   4.799
  278TIP3    H1  775   5.917   5.456   4.870
  278TIP3    H2  776   5.845   5.367   4.771
  279TIP3   OH2  777   2.583   7.135   6.588
  279TIP3    H1  778   2.658   7.193   6.589
  279TIP3    H2  779   2.579   7.098   6.677
  280TIP3   OH2  780   6.018   3.797   4.835
  280TIP3    H1  781   6.020   3.706   4.804
  280TIP3    H2  782   6.026   3.790   4.930
  281TIP3   OH2  783   1.976   2.125   3.729
  281TIP3    H1  784   1.885   2.099   3.720
  281TIP3    H2  785   1.982   2.166   3.815
  282TIP3   OH2  786   6.423   2.958   4.773
  282TIP3    H1  787   6.368   3.013   4.829
  282TIP3    H2  788   6.512   2.977   4.800
  283TIP3   OH2  789   7.117   6.449   6.165
  283TIP3    H1  790   7.103   6.539   6.138
  283TIP3    H2  791   7.188   6.453   6.229
  284TIP3   OH2  792   1.768   0.062   3.604
  284TIP3    H1  793   1.811   0.123   3.664
  284TIP3    H2  794   1.742   0.116   3.529
  285TIP3   OH2  795   8.036   4.257   4.847
  285TIP3    H1  796   8.067   4.296   4.929
  285TIP3    H2  797   7.940   4.256   4.856
  286TIP3   OH2  798   1.838   4.333   6.047
  286TIP3    H1  799   1.749   4.364   6.064
  286TIP3    H2  800   1.884   4.344   6.130
  287TIP3   OH2  801   3.694   0.324   5.094
  287TIP3    H1  802   3.719   0.398   5.148
  287TIP3    H2  803   3.608   0.347   5.059
  288TIP3   OH2  804   0.343   5.008   5.525
  288TIP3    H1  805   0.287   4.996   5.601
  288TIP3    H2  806   0.291   5.059   5.464
  289TIP3   OH2  807   3.135   1.826   3.433
  289TIP3    H1  808   3.040   1.833   3.419
  289TIP3    H2  809   3.159   1.910   3.474
  290TIP3   OH2  810   4.928   2.488   2.569
  290TIP3    H1  811   4.965   2.400   2.571
  290TIP3    H2  812   5.000   2.546   2.593
  291TIP3   OH2  813   6.018   3.748   2.251
  291TIP3    H1  814   6.108   3.718   2.239
  291TIP3    H2  815   5.967   3.699   2.187
  292TIP3   OH2  816   4.332   4.466   1.067
  292TIP3    H1  817   4.395   4.495   1.002
  292TIP3    H2  818   4.384   4.452   1.147
  293TIP3   OH2  819   5.252   3.361   0.429
  293TIP3    H1  820   5.262   3.273   0.467
  293TIP3    H2  821   5.229   3.344   0.337
  294TIP3   OH2  822   2.184   4.029   1.520
  294TIP3    H1  823   2.146   4.096   1.463
  294TIP3    H2  824   2.258   3.994   1.471
  295TIP3   OH2  825   2.754   4.682   2.256
  295TIP3    H1  826   2.698   4.611   2.224
  295TIP3    H2  827   2.729   4.692   2.348
  296TIP3   OH2  828   5.484   7.635   4.230
  296TIP3    H1  829   5.442   7.719   4.209
  296TIP3    H2  830   5.412   7.577   4.253
  297TIP3   OH2  831   0.683   3.960   3.262
  297TIP3    H1  832   0.631   3.956   3.342
  297TIP3    H2  833   0.686   3.869   3.231
  298TIP3   OH2  834   1.315   6.903   0.549
  298TIP3    H1  835   1.319   6.841   0.622
  298TIP3    H2  836   1.305   6.989   0.591
  299TIP3   OH2  837   1.076   6.577   3.406
  299TIP3    H1  838   1.119   6.662   3.411
  299TIP3    H2  839   1.088   6.549   3.315
  300TIP3   OH2  840   8.273   2.113   6.547
  300TIP3    H1  841   8.351   2.080   6.590
  300TIP3    H2  842   8.207   2.117   6.617
  301TIP3   OH2  843   5.218   2.910   5.165
  301TIP3    H1  844   5.177   2.873   5.242
  301TIP3    H2  845   5.145   2.927   5.105
  302TIP3   OH2  846   2.181   5.327   6.866
  302TIP3    H1  847   2.161   5.252   6.810
  302TIP3    H2  848   2.215   5.393   6.806
  303TIP3   OH2  849   3.875   6.986   5.703
  303TIP3    H1  850   3.881   6.907   5.757
  303TIP3    H2  851   3.785   7.016   5.715
  304TIP3   OH2  852   3.597   4.777   2.758
  304TIP3    H1  853   3.685   4.749   2.780
  304TIP3    H2  854   3.609   4.839   2.686
  305TIP3   OH2  855   5.158   7.061   4.995
  305TIP3    H1  856   5.184   6.969   4.987
  305TIP3    H2  857   5.129   7.086   4.908
  306TIP3   OH2  858   3.693   3.041   6.489
  306TIP3    H1  859   3.613   2.992   6.504
  306TIP3    H2  860   3.665   3.133   6.486
  307TIP3   OH2  861   2.209   5.163   3.269
  307TIP3    H1  862   2.182   5.132   3.182
  307TIP3    H2  863   2.258   5.090   3.306
  308TIP3   OH2  864   2.982   1.629   1.045
  308TIP3    H1  865   3.060   1.618   0.992
  308TIP3    H2  866   3.014   1.649   1.133
  309TIP3   OH2  867   4.152   3.548   1.756
  309TIP3    H1  868   4.238   3.582   1.781
  309TIP3    H2  869   4.101   3.625   1.731
  310TIP3   OH2  870   4.100   7.360   3.569
  310TIP3    H1  871   4.109   7.364   3.474
  310TIP3    H2  872   4.181   7.320   3.599
  311TIP3   OH2  873   1.281   5.466   5.728
  311TIP3    H1  874   1.218   5.538   5.733
  311TIP3    H2  875   1.325   5.467   5.813
  312TIP3   OH2  876   5.599   0.979   2.420
  312TIP3    H1  877   5.509   1.012   2.428
  312TIP3    H2  878   5.618   0.941   2.506
  313TIP3   OH2  879   7.789   3.436   2.385
  313TIP3    H1  880   7.778   3.505   2.450
  313TIP3    H2  881   7.863   3.385   2.416
  314TIP3   OH2  882   4.364   0.764   6.445
  314TIP3    H1  883   4.408   0.742   6.527
  314TIP3    H2  884   4.432   0.753   6.378
  315TIP3   OH2  885   4.063   5.037   5.955
  315TIP3    H1  886   4.009   5.036   6.034
  315TIP3    H2  887   4.011   4.990   5.889
  316TIP3   OH2  888   4.638   6.372   3.382
  316TIP3    H1  889   4.605   6.300   3.437
  316TIP3    H2  890   4.723   6.392   3.418
  317TIP3   OH2  891   2.168   1.913   1.363
  317TIP3    H1  892   2.253   1.868   1.363
  317TIP3    H2  893   2.184   1.995   1.317
  318TIP3   OH2  894   0.661   2.620   5.650
  318TIP3    H1  895   0.663   2.569   5.568
  318TIP3    H2  896   0.712   2.567   5.712
  319TIP3   OH2  897   2.273   5.386   2.108
  319TIP3    H1  898   2.242   5.342   2.187
  319TIP3    H2  899   2.282   5.478   2.134
  320TIP3   OH2  900   3.380   6.069   2.113
  320TIP3    H1  901   3.367   6.033   2.025
  320TIP3    H2  902   3.292   6.072   2.150
  321TIP3   OH2  903   7.319   6.382   5.449
  321TIP3    H1  904   7.328   6.300   5.499
  321TIP3    H2  905   7.305   6.353   5.359
  322TIP3   OH2  906   6.122   4.501   1.965
  322TIP3    H1  907   6.072   4.582   1.975
  322TIP3    H2  908   6.064   4.443   1.915
  323TIP3   OH2  909   5.621   3.795   5.681
  323TIP3    H1  910   5.647   3.744   5.757
  323TIP3    H2  911   5.599   3.730   5.614
  324TIP3   OH2  912   2.142   2.704   1.603
  324TIP3    H1  913   2.183   2.687   1.518
  324TIP3    H2  914   2.192   2.778   1.639
  325TIP3   OH2  915   1.994   3.519   1.646
  325TIP3    H1  916   1.960   3.469   1.572
  325TIP3    H2  917   2.055   3.581   1.605
  326TIP3   OH2  918   8.038   7.394   5.651
  326TIP3    H1  919   8.073   7.400   5.562
  326TIP3    H2  920   7.945   7.379   5.639
  327TIP3   OH2  921   3.521   7.113   2.324
  327TIP3    H1  922   3.521   7.074   2.237
  327TIP3    H2  923   3.613   7.123   2.346
  328TIP3   OH2  924   7.641   7.795   1.025
  328TIP3    H1  925   7.678   7.708   1.043
  328TIP3    H2  926   7.693   7.828   0.952
  329TIP3   OH2  927   5.218   6.953   3.832
  329TIP3    H1  928   5.215   6.973   3.738
  329TIP3    H2  929   5.311   6.950   3.853
  330TIP3   OH2  930   8.155   6.904   5.813
  330TIP3    H1  931   8.149   6.882   5.720
  330TIP3    H2  932   8.073   6.948   5.833
  331TIP3   OH2  933   3.657   0.384   3.863
  331TIP3    H1  934   3.572   0.357   3.897
  331TIP3    H2  935   3.637   0.450   3.796
  332TIP3   OH2  936   4.728   0.572   6.583
  332TIP3    H1  937   4.709   0.506   6.518
  332TIP3    H2  938   4.770   0.643   6.534
  333TIP3   OH2  939   3.869   7.369   1.498
  333TIP3    H1  940   3.806   7.440   1.487
  333TIP3    H2  941   3.951   7.412   1.521
  334TIP3   OH2  942   1.089   6.190   1.718
  334TIP3    H1  943   1.120   6.260   1.660
  334TIP3    H2  944   1.012   6.227   1.760
  335TIP3   OH2  945   6.900   0.842   6.357
  335TIP3    H1  946   6.838   0.913   6.342
  335TIP3    H2  947   6.964   0.851   6.287
  336TIP3   OH2  948   5.109   2.603   2.984
  336TIP3    H1  949   5.189   2.573   3.028
  336TIP3    H2  950   5.139   2.673   2.926
  337TIP3   OH2  951   7.240   1.498   3.393
  337TIP3    H1  952   7.254   1.414   3.350
  337TIP3    H2  953   7.248   1.562   3.322
  338TIP3   OH2  954   4.714   2.361   2.791
  338TIP3    H1  955   4.722   2.266   2.803
  338TIP3    H2  956   4.794   2.397   2.829
  339TIP3   OH2  957   4.173   5.310   5.012
  339TIP3    H1  958   4.266   5.300   5.034
  339TIP3    H2  959   4.155   5.241   4.949
  340TIP3   OH2  960   6.136   5.273   6.277
  340TIP3    H1  961   6.169   5.213   6.210
  340TIP3    H2  962   6.130   5.219   6.356
  341TIP3   OH2  963   8.365   0.303   1.399
  341TIP3    H1  964   8.296   0.276   1.339
  341TIP3    H2  965   8.381   0.227   1.454
  342TIP3   OH2  966   4.816   5.633   1.058
  342TIP3    H1  967   4.807   5.541   1.033
  342TIP3    H2  968   4.730   5.658   1.092
  343TIP3   OH2  969   5.051   1.678   6.156
  343TIP3    H1  970   5.106   1.757   6.157
  343TIP3    H2  971   5.086   1.625   6.228
  344TIP3   OH2  972   1.886   3.908   1.566
  344TIP3    H1  973   1.976   3.879   1.580
  344TIP3    H2  974   1.835   3.827   1.561
  345TIP3   OH2  975   7.851   5.923   4.073
  345TIP3    H1  976   7.791   5.890   4.140
  345TIP3    H2  977   7.891   6.000   4.113
  346TIP3   OH2  978   2.602   1.650   0.139
  346TIP3    H1  979   2.568   1.728   0.182
  346TIP3    H2  980   2.524   1.603   0.109
  347TIP3   OH2  981   4.141   0.545   5.454
  347TIP3    H1  982   4.150   0.517   5.545
  347TIP3    H2  983   4.104   0.468   5.409
  348TIP3   OH2  984   5.333   2.140   0.240
  348TIP3    H1  985   5.251   2.090   0.238
  348TIP3    H2  986   5.338   2.173   0.330
  349TIP3   OH2  987   7.616   2.894   5.294
  349TIP3    H1  988   7.706   2.871   5.272
  349TIP3    H2  989   7.621   2.986   5.320
  350TIP3   OH2  990   1.306   4.969   4.652
  350TIP3    H1  991   1.265   5.036   4.597
  350TIP3    H2  992   1.273   4.886   4.617
  351TIP3   OH2  993   6.768   6.762   2.196
  351TIP3    H1  994   6.824   6.685   2.203
  351TIP3    H2  995   6.826   6.832   2.165
  352TIP3   OH2  996   4.359   7.521   2.730
  352TIP3    H1  997   4.326   7.525   2.640
  352TIP3    H2  998   4.421   7.448   2.730
  353TIP3   OH2  999   7.368   7.287   2.197
  353TIP3    H1 1000   7.433   7.230   2.156
  353TIP3    H2 1001   7.333   7.339   2.125
  354TIP3   OH2 1002   6.746   0.629   4.332
  354TIP3    H1 1003   6.826   0.603   4.377
  354TIP3    H2 1004   6.775   0.648   4.242
  355TIP3   OH2 1005   3.419   1.458   5.680
  355TIP3    H1 1006   3.386   1.491   5.764
  355TIP3    H2 1007   3.340   1.424   5.636
  356TIP3   OH2 1008   4.195   1.835   1.057
  356TIP3    H1 1009   4.269   1.891   1.032
  356TIP3    H2 1010   4.231   1.746   1.055
  357TIP3   OH2 1011   5.986   7.344   5.745
  357TIP3    H1 1012   5.993   7.249   5.744
  357TIP3    H2 1013   5.894   7.363   5.728
  358TIP3   OH2 1014   0.950   5.543   0.891
  358TIP3    H1 1015   0.875   5.602   0.897
  358TIP3    H2 1016   0.913   5.459   0.866
  359TIP3   OH2 1017   4.197   2.094   0.929
  359TIP3    H1 1018   4.138   2.109   0.855
  359TIP3    H2 1019   4.183   2.169   0.987
  360TIP3   OH2 1020   3.972   1.842   4.184
  360TIP3    H1 1021   4.022   1.906   4.133
  360TIP3    H2 1022   3.978   1.874   4.274
  361TIP3   OH2 1023   1.623   6.976   5.203
  361TIP3    H1 1024   1.623   6.893   5.251
  361TIP3    H2 1025   1.554   6.965   5.137
  362TIP3   OH2 1026   5.133   6.538   1.470
  362TIP3    H1 1027   5.173   6.586   1.398
  362TIP3    H2 1028   5.204   6.484   1.505
  363TIP3   OH2 1029   8.189   3.232   3.926
  363TIP3    H1 1030   8.099   3.263   3.915
  363TIP3    H2 1031   8.186   3.141   3.897
  364TIP3   OH2 1032   7.174   0.488   0.871
  364TIP3    H1 1033   7.267   0.481   0.895
  364TIP3    H2 1034   7.156   0.582   0.875
  365TIP3   OH2 1035   2.048   1.497   3.850
  365TIP3    H1 1036   1.993   1.569   3.881
  365TIP3    H2 1037   2.135   1.516   3.886
  366TIP3   OH2 1038   4.645   0.848   3.009
  366TIP3    H1 1039   4.636   0.772   2.951
  366TIP3    H2 1040   4.705   0.906   2.962
  367TIP3   OH2 1041   2.099   6.009   2.545
  367TIP3    H1 1042   2.121   6.043   2.458
  367TIP3    H2 1043   2.036   5.939   2.527
  368TIP3   OH2 1044   1.952   5.910   3.236
  368TIP3    H1 1045   2.031   5.859   3.222
  368TIP3    H2 1046   1.884   5.864   3.187
  369TIP3   OH2 1047   7.711   6.982   3.464
  369TIP3    H1 1048   7.656   6.914   3.424
  369TIP3    H2 1049   7.652   7.056   3.477
  370TIP3   OH2 1050   4.724   5.115   0.613
  370TIP3    H1 1051   4.759   5.150   0.695
  370TIP3    H2 1052   4.711   5.022   0.630
  371TIP3   OH2 1053   1.186   6.841   3.449
  371TIP3    H1 1054   1.256   6.877   3.503
  371TIP3    H2 1055   1.227   6.824   3.365
  372TIP3   OH2 1056   3.296   3.162   4.399
  372TIP3    H1 1057   3.229   3.096   4.418
  372TIP3    H2 1058   3.350   3.122   4.331
  373TIP3   OH2 1059   2.631   0.806   0.947
  373TIP3    H1 1060   2.560   0.743   0.934
  373TIP3    H2 1061   2.597   0.887   0.908
  374TIP3   OH2 1062   3.620   7.036   1.085
  374TIP3    H1 1063   3.597   7.120   1.123
  374TIP3    H2 1064   3.564   6.973   1.130
  375TIP3   OH2 1065   2.940   4.746   2.858
  375TIP3    H1 1066   2.959   4.823   2.911
  375TIP3    H2 1067   2.926   4.781   2.770
  376TIP3   OH2 1068   2.799   6.301   0.686
  376TIP3    H1 1069   2.882   6.330   0.722
  376TIP3    H2 1070   2.764   6.239   0.750
  377TIP3   OH2 1071   7.904   6.601   0.895
  377TIP3    H1 1072   7.858   6.684   0.909
  377TIP3    H2 1073   7.859   6.539   0.952
  378TIP3   OH2 1074   2.336   1.360   0.834
  378TIP3    H1 1075   2.402   1.411   0.787
  378TIP3    H2 1076   2.347   1.386   0.926
  379TIP3   OH2 1077   2.977   7.044   1.131
  379TIP3    H1 1078   2.892   7.085   1.120
  379TIP3    H2 1079   2.988   7.037   1.226
  380TIP3   OH2 1080   1.223   1.108   6.864
  380TIP3    H1 1081   1.232   1.015   6.842
  380TIP3    H2 1082   1.172   1.145   6.792
  381TIP3   OH2 1083   5.591   5.693   0.902
  381TIP3    H1 1084   5.649   5.645   0.842
  381TIP3    H2 1085   5.649   5.753   0.948
  382TIP3   OH2 1086   5.562   1.487   5.965
  382TIP3    H1 1087   5.541   1.399   5.994
  382TIP3    H2 1088   5.593   1.477   5.875
  383TIP3   OH2 1089   7.160   4.745   4.769
  383TIP3    H1 1090   7.171   4.683   4.841
  383TIP3    H2 1091   7.180   4.693   4.691
  384TIP3   OH2 1092   3.283   2.800   6.274
  384TIP3    H1 1093   3.229   2.737   6.320
  384TIP3    H2 1094   3.225   2.838   6.208
  385TIP3   OH2 1095   5.296   1.856   3.091
  385TIP3    H1 1096   5.267   1.897   3.010
  385TIP3    H2 1097   5.321   1.767   3.066
  386TIP3   OH2 1098   1.104   4.011   2.819
  386TIP3    H1 1099   1.021   4.058   2.834
  386TIP3    H2 1100   1.151   4.065   2.756
  387TIP3   OH2 1101   3.663   4.377   1.825
  387TIP3    H1 1102   3.747   4.365   1.869
  387TIP3    H2 1103   3.634   4.288   1.804
  388TIP3   OH2 1104   4.842   6.999   0.205
  388TIP3    H1 1105   4.889   6.923   0.173
  388TIP3    H2 1106   4.756   6.965   0.231
  389TIP3   OH2 1107   2.428   6.420   2.587
  389TIP3    H1 1108   2.420   6.442   2.680
  389TIP3    H2 1109   2.409   6.501   2.541
  390TIP3   OH2 1110   7.594   5.538   3.249
  390TIP3    H1 1111   7.557   5.515   3.164
  390TIP3    H2 1112   7.664   5.475   3.263
  391TIP3   OH2 1113   7.964   3.584   1.658
  391TIP3    H1 1114   7.888   3.641   1.654
  391TIP3    H2 1115   7.929   3.500   1.690
  392TIP3   OH2 1116   3.205   5.017   5.294
  392TIP3    H1 1117   3.167   5.102   5.273
  392TIP3    H2 1118   3.261   5.033   5.370
  393TIP3   OH2 1119   3.637   5.409   5.616
  393TIP3    H1 1120   3.547   5.437   5.604
  393TIP3    H2 1121   3.636   5.315   5.599
  394TIP3   OH2 1122   3.783   5.529   5.075
  394TIP3    H1 1123   3.771   5.502   5.166
  394TIP3    H2 1124   3.877   5.546   5.067
  395TIP3   OH2 1125   7.194   0.799   3.276
  395TIP3    H1 1126   7.241   0.835   3.351
  395TIP3    H2 1127   7.239   0.836   3.200
  396TIP3   OH2 1128   1.596   6.624   1.171
  396TIP3    H1 1129   1.511   6.612   1.129
  396TIP3    H2 1130   1.659   6.627   1.099
  397TIP3   OH2 1131   7.437   5.109   1.410
  397TIP3    H1 1132   7.517   5.158   1.393
  397TIP3    H2 1133   7.387   5.164   1.470
  398TIP3   OH2 1134   4.503   2.455   6.826
  398TIP3    H1 1135   4.509   2.409   6.910
  398TIP3    H2 1136   4.465   2.391   6.766
  399TIP3   OH2 1137   3.956   0.770   2.038
  399TIP3    H1 1138   3.914   0.741   2.119
  399TIP3    H2 1139   3.928   0.705   1.973
  400TIP3   OH2 1140   8.269   5.935   1.073
  400TIP3    H1 1141   8.252   5.847   1.107
  400TIP3    H2 1142   8.262   5.992   1.150
  401TIP3   OH2 1143   0.408   5.413   5.184
  401TIP3    H1 1144   0.430   5.348   5.116
  401TIP3    H2 1145   0.313   5.405   5.194
  402TIP3   OH2 1146   7.181   7.117   6.669
  402TIP3    H1 1147   7.195   7.037   6.618
  402TIP3    H2 1148   7.201   7.093   6.759
  403TIP3   OH2 1149   2.755   5.298   4.223
  403TIP3    H1 1150   2.794   5.380   4.193
  403TIP3    H2 1151   2.661   5.312   4.218
  404TIP3   OH2 1152   7.521   1.493   0.398
  404TIP3    H1 1153   7.427   1.505   0.398
  404TIP3    H2 1154   7.552   1.545   0.324
  405TIP3   OH2 1155   1.931   0.525   2.608
  405TIP3    H1 1156   1.854   0.486   2.649
  405TIP3    H2 1157   1.899   0.609   2.573
  406TIP3   OH2 1158   2.605   2.305   1.625
  406TIP3    H1 1159   2.649   2.241   1.681
  406TIP3    H2 1160   2.626   2.390   1.664
  407TIP3   OH2 1161   3.159   2.757   1.679
  407TIP3    H1 1162   3.246   2.727   1.653
  407TIP3    H2 1163   3.100   2.713   1.619
  408TIP3   OH2 1164   5.654   1.826   4.755
  408TIP3    H1 1165   5.715   1.864   4.818
  408TIP3    H2 1166   5.613   1.901   4.713
  409TIP3   OH2 1167   1.566   5.913   6.503
  409TIP3    H1 1168   1.520   5.843   6.458
  409TIP3    H2 1169   1.655   5.881   6.513
  410TIP3   OH2 1170   2.364   6.849   4.267
  410TIP3    H1 1171   2.404   6.805   4.193
  410TIP3    H2 1172   2.312   6.919   4.229
  411TIP3   OH2 1173   1.244   0.987   0.253
  411TIP3    H1 1174   1.256   0.901   0.213
  411TIP3    H2 1175   1.173   0.974   0.316
  412TIP3   OH2 1176   0.662   1.601   2.391
  412TIP3    H1 1177   0.623   1.687   2.376
  412TIP3    H2 1178   0.604   1.540   2.345
  413TIP3   OH2 1179   7.615   7.154   2.438
  413TIP3    H1 1180   7.666   7.197   2.506
  413TIP3    H2 1181   7.679   7.127   2.373
  414TIP3   OH2 1182   6.504   7.815   6.548
  414TIP3    H1 1183   6.498   7.822   6.453
  414TIP3    H2 1184   6.428   7.865   6.581
  415TIP3   OH2 1185   8.215   6.941   2.448
  415TIP3    H1 1186   8.308   6.921   2.462
  415TIP3    H2 1187   8.214   7.035   2.432
  416TIP3   OH2 1188   0.841   1.642   4.570
  416TIP3    H1 1189   0.839   1.584   4.646
  416TIP3    H2 1190   0.749   1.660   4.551
  417TIP3   OH2 1191   7.153   5.775   0.470
  417TIP3    H1 1192   7.088   5.841   0.496
  417TIP3    H2 1193   7.208   5.763   0.547
  418TIP3   OH2 1194   6.272   2.246   3.116
  418TIP3    H1 1195   6.352   2.243   3.169
  418TIP3    H2 1196   6.254   2.154   3.096
  419TIP3   OH2 1197   4.457   3.212   2.420
  419TIP3    H1 1198   4.412   3.151   2.478
  419TIP3    H2 1199   4.460   3.168   2.336
  420TIP3   OH2 1200   0.430   5.806   3.891
  420TIP3    H1 1201   0.442   5.743   3.820
  420TIP3    H2 1202   0.506   5.864   3.885
  421TIP3   OH2 1203   0.102   7.866   1.907
  421TIP3    H1 1204   0.167   7.809   1.868
  421TIP3    H2 1205   0.107   7.947   1.857
  422TIP3   OH2 1206   7.988   5.794   0.612
  422TIP3    H1 1207   7.955   5.705   0.624
  422TIP3    H2 1208   8.065   5.799   0.669
  423TIP3   OH2 1209   2.036   6.051   6.160
  423TIP3    H1 1210   1.960   5.994   6.159
  423TIP3    H2 1211   2.020   6.114   6.090
  424TIP3   OH2 1212   3.731   0.919   0.480
  424TIP3    H1 1213   3.686   0.854   0.534
  424TIP3    H2 1214   3.812   0.936   0.527
  425TIP3   OH2 1215   0.932   3.965   6.020
  425TIP3    H1 1216   0.862   3.979   5.955
  425TIP3    H2 1217   0.973   3.883   5.994
  426TIP3   OH2 1218   2.230   7.246   6.846
  426TIP3    H1 1219   2.152   7.217   6.800
  426TIP3    H2 1220   2.285   7.285   6.779
  427TIP3   OH2 1221   1.128   1.781   0.758
  427TIP3    H1 1222   1.068   1.708   0.744
  427TIP3    H2 1223   1.074   1.859   0.748
  428TIP3   OH2 1224   6.316   1.612   1.539
  428TIP3    H1 1225   6.293   1.701   1.510
  428TIP3    H2 1226   6.390   1.588   1.484
  429TIP3   OH2 1227   5.100   2.035   0.696
  429TIP3    H1 1228   5.124   2.118   0.737
  429TIP3    H2 1229   5.184   1.996   0.670
  430TIP3   OH2 1230   3.134   5.672   4.538
  430TIP3    H1 1231   3.095   5.706   4.618
  430TIP3    H2 1232   3.190   5.744   4.507
  431TIP3   OH2 1233   7.908   6.532   1.617
  431TIP3    H1 1234   7.997   6.569   1.622
  431TIP3    H2 1235   7.858   6.581   1.682
  432TIP3   OH2 1236   0.367   5.435   2.591
  432TIP3    H1 1237   0.293   5.408   2.537
  432TIP3    H2 1238   0.384   5.526   2.564
  433TIP3   OH2 1239   7.324   7.148   5.792
  433TIP3    H1 1240   7.323   7.231   5.744
  433TIP3    H2 1241   7.308   7.172   5.883
  434TIP3   OH2 1242   1.431   4.291   1.931
  434TIP3    H1 1243   1.432   4.376   1.887
  434TIP3    H2 1244   1.439   4.313   2.024
  435TIP3   OH2 1245   3.318   5.874   2.389
  435TIP3    H1 1246   3.310   5.965   2.415
  435TIP3    H2 1247   3.233   5.852   2.350
  436TIP3   OH2 1248   0.769   0.096   2.879
  436TIP3    H1 1249   0.777   0.145   2.797
  436TIP3    H2 1250   0.769   0.163   2.947
  437TIP3   OH2 1251   3.872   1.978   1.095
  437TIP3    H1 1252   3.929   1.978   1.172
  437TIP3    H2 1253   3.890   1.894   1.052
  438TIP3   OH2 1254   2.350   2.588   6.393
  438TIP3    H1 1255   2.397   2.662   6.431
  438TIP3    H2 1256   2.278   2.570   6.454
  439TIP3   OH2 1257   3.848   6.395   2.680
  439TIP3    H1 1258   3.872   6.487   2.676
  439TIP3    H2 1259   3.920   6.349   2.636
  440TIP3   OH2 1260   2.098   7.607   3.317
  440TIP3    H1 1261   2.184   7.646   3.333
  440TIP3    H2 1262   2.074   7.639   3.230
  441TIP3   OH2 1263   4.770   5.894   0.077
  441TIP3    H1 1264   4.865   5.886   0.066
  441TIP3    H2 1265   4.733   5.829   0.018
  442TIP3   OH2 1266   2.713   4.358   3.055
  442TIP3    H1 1267   2.758   4.442   3.046
  442TIP3    H2 1268   2.765   4.310   3.119
  443TIP3   OH2 1269   4.418   7.141   5.629
  443TIP3    H1 1270   4.407   7.054   5.589
  443TIP3    H2 1271   4.375   7.201   5.568
  444TIP3   OH2 1272   4.650   3.032   3.984
  444TIP3    H1 1273   4.627   3.070   4.069
  444TIP3    H2 1274   4.575   2.978   3.961
  445TIP3   OH2 1275   4.504   0.052   5.679
  445TIP3    H1 1276   4.446  -0.002   5.731
  445TIP3    H2 1277   4.518   0.001   5.599
  446TIP3   OH2 1278   4.285   0.756   1.780
  446TIP3    H1 1279   4.326   0.834   1.743
  446TIP3    H2 1280   4.355   0.713   1.829
  447TIP3   OH2 1281   6.452   3.403   1.471
  447TIP3    H1 1282   6.494   3.319   1.488
  447TIP3    H2 1283   6.505   3.466   1.521
  448TIP3   OH2 1284   8.224   1.959   1.593
  448TIP3    H1 1285   8.286   1.924   1.657
  448TIP3    H2 1286   8.244   1.913   1.512
  449TIP3   OH2 1287   0.119   3.067   6.862
  449TIP3    H1 1288   0.210   3.048   6.884
  449TIP3    H2 1289   0.121   3.089   6.768
  450TIP3   OH2 1290   4.828   2.058   4.085
  450TIP3    H1 1291   4.780   2.117   4.142
  450TIP3    H2 1292   4.872   1.997   4.144
  451TIP3   OH2 1293   2.976   4.149   2.945
  451TIP3    H1 1294   2.887   4.113   2.947
  451TIP3    H2 1295   2.972   4.219   2.880
  452TIP3   OH2 1296   7.437   4.126   2.852
  452TIP3    H1 1297   7.363   4.103   2.908
  452TIP3    H2 1298   7.496   4.051   2.857
  453TIP3   OH2 1299   6.725   1.524   0.426
  453TIP3    H1 1300   6.805   1.470   0.425
  453TIP3    H2 1301   6.655   1.462   0.406
  454TIP3   OH2 1302   8.115   0.310   3.765
  454TIP3    H1 1303   8.098   0.278   3.854
  454TIP3    H2 1304   8.085   0.239   3.708
  455TIP3   OH2 1305   7.697   0.613   4.765
  455TIP3    H1 1306   7.768   0.550   4.752
  455TIP3    H2 1307   7.651   0.583   4.843
  456TIP3   OH2 1308   3.695   1.826   4.090
  456TIP3    H1 1309   3.789   1.810   4.083
  456TIP3    H2 1310   3.688   1.903   4.147
  457TIP3   OH2 1311   0.016   2.290   1.059
  457TIP3    H1 1312  -0.024   2.212   1.098
  457TIP3    H2 1313   0.107   2.287   1.086
  458TIP3   OH2 1314   6.543   0.910   4.495
  458TIP3    H1 1315   6.510   0.944   4.412
  458TIP3    H2 1316   6.556   0.816   4.478
  459TIP3   OH2 1317   4.315   4.052   4.533
  459TIP3    H1 1318   4.405   4.049   4.565
  459TIP3    H2 1319   4.323   4.077   4.441
  460TIP3   OH2 1320   7.828   3.422   5.611
  460TIP3    H1 1321   7.753   3.364   5.601
  460TIP3    H2 1322   7.846   3.453   5.522
  461TIP3   OH2 1323   5.246   1.207   0.635
  461TIP3    H1 1324   5.217   1.298   0.621
  461TIP3    H2 1325   5.212   1.160   0.559
  462TIP3   OH2 1326   6.763   3.770   1.849
  462TIP3    H1 1327   6.762   3.686   1.895
  462TIP3    H2 1328   6.673   3.783   1.819
  463TIP3   OH2 1329   1.693   1.356   3.949
  463TIP3    H1 1330   1.682   1.261   3.954
  463TIP3    H2 1331   1.692   1.375   3.855
  464TIP3   OH2 1332   4.445   7.364   0.282
  464TIP3    H1 1333   4.382   7.432   0.307
  464TIP3    H2 1334   4.392   7.300   0.235
  465TIP3   OH2 1335   4.506   7.708   2.520
  465TIP3    H1 1336   4.442   7.671   2.581
  465TIP3    H2 1337   4.586   7.716   2.571
  466TIP3   OH2 1338   5.119   0.960   2.916
  466TIP3    H1 1339   5.156   0.978   2.830
  466TIP3    H2 1340   5.025   0.973   2.906
  467TIP3   OH2 1341   6.678   6.858   1.199
  467TIP3    H1 1342   6.647   6.944   1.172
  467TIP3    H2 1343   6.704   6.868   1.290
  468TIP3   OH2 1344   6.743   3.101   2.329
  468TIP3    H1 1345   6.806   3.147   2.384
  468TIP3    H2 1346   6.795   3.034   2.284
  469TIP3   OH2 1347   4.196   5.190   3.798
  469TIP3    H1 1348   4.134   5.217   3.730
  469TIP3    H2 1349   4.165   5.234   3.877
  470TIP3   OH2 1350   0.967   5.162   1.623
  470TIP3    H1 1351   1.038   5.181   1.562
  470TIP3    H2 1352   0.996   5.084   1.670
  471TIP3   OH2 1353   7.009   5.462   0.594
  471TIP3    H1 1354   7.028   5.377   0.554
  471TIP3    H2 1355   7.048   5.456   0.681
  472TIP3   OH2 1356   2.068   1.045   2.217
  472TIP3    H1 1357   2.114   1.125   2.240
  472TIP3    H2 1358   2.137   0.987   2.184
  473TIP3   OH2 1359   7.091   5.413   3.167
  473TIP3    H1 1360   7.134   5.378   3.089
  473TIP3    H2 1361   7.148   5.483   3.197
  474TIP3   OH2 1362   3.906   1.690   1.286
  474TIP3    H1 1363   3.932   1.667   1.197
  474TIP3    H2 1364   3.897   1.605   1.330
  475TIP3   OH2 1365   5.164   0.337   4.996
  475TIP3    H1 1366   5.108   0.298   4.929
  475TIP3    H2 1367   5.122   0.314   5.079
  476TIP3   OH2 1368   6.882   0.162   5.627
  476TIP3    H1 1369   6.810   0.221   5.649
  476TIP3    H2 1370   6.879   0.155   5.532
  477TIP3   OH2 1371   7.099   6.704   5.038
  477TIP3    H1 1372   7.053   6.786   5.021
  477TIP3    H2 1373   7.030   6.637   5.038
  478TIP3   OH2 1374   7.064   0.626   4.743
  478TIP3    H1 1375   6.986   0.613   4.798
  478TIP3    H2 1376   7.088   0.718   4.757
  479TIP3   OH2 1377   6.608   7.347   1.189
  479TIP3    H1 1378   6.530   7.402   1.199
  479TIP3    H2 1379   6.680   7.409   1.174
  480TIP3   OH2 1380   2.436   3.606   3.715
  480TIP3    H1 1381   2.470   3.688   3.750
  480TIP3    H2 1382   2.449   3.543   3.786
  481TIP3   OH2 1383   8.064   5.556   6.425
  481TIP3    H1 1384   8.136   5.538   6.365
  481TIP3    H2 1385   8.106   5.572   6.509
  482TIP3   OH2 1386   4.348   5.326   6.219
  482TIP3    H1 1387   4.421   5.364   6.171
  482TIP3    H2 1388   4.270   5.364   6.179
  483TIP3   OH2 1389   5.810   1.687   4.547
  483TIP3    H1 1390   5.875   1.634   4.593
  483TIP3    H2 1391   5.795   1.762   4.606
  484TIP3   OH2 1392   4.803   5.187   4.400
  484TIP3    H1 1393   4.805   5.114   4.463
  484TIP3    H2 1394   4.887   5.231   4.413
  485TIP3   OH2 1395   0.770   7.248   0.351
  485TIP3    H1 1396   0.782   7.320   0.289
  485TIP3    H2 1397   0.858   7.212   0.362
  486TIP3   OH2 1398   5.686   0.958   0.363
  486TIP3    H1 1399   5.647   0.906   0.292
  486TIP3    H2 1400   5.702   1.043   0.324
  487TIP3   OH2 1401   5.996   7.284   1.851
  487TIP3    H1 1402   6.033   7.365   1.886
  487TIP3    H2 1403   6.032   7.215   1.906
  488TIP3   OH2 1404   0.883   4.157   2.900
  488TIP3    H1 1405   0.886   4.252   2.888
  488TIP3    H2 1406   0.797   4.131   2.869
  489TIP3   OH2 1407   6.175   3.025   0.606
  489TIP3    H1 1408   6.209   2.936   0.592
  489TIP3    H2 1409   6.230   3.081   0.551
  490TIP3   OH2 1410   1.234   4.088   5.764
  490TIP3    H1 1411   1.161   4.148   5.782
  490TIP3    H2 1412   1.222   4.063   5.673
  491TIP3   OH2 1413   7.507   1.905   0.595
  491TIP3    H1 1414   7.522   1.885   0.502
  491TIP3    H2 1415   7.447   1.837   0.625
  492TIP3   OH2 1416   5.421   2.979   4.786
  492TIP3    H1 1417   5.416   3.068   4.822
  492TIP3    H2 1418   5.436   2.923   4.863
  493TIP3   OH2 1419   2.109   7.054   0.143
  493TIP3    H1 1420   2.015   7.037   0.149
  493TIP3    H2 1421   2.148   6.968   0.128
  494TIP3   OH2 1422   1.996   1.362   4.366
  494TIP3    H1 1423   2.004   1.321   4.452
  494TIP3    H2 1424   2.059   1.314   4.311
  495TIP3   OH2 1425   6.152   0.955   5.577
  495TIP3    H1 1426   6.198   0.950   5.660
  495TIP3    H2 1427   6.168   1.043   5.545
  496TIP3   OH2 1428   5.061   1.102   4.087
  496TIP3    H1 1429   5.060   1.010   4.112
  496TIP3    H2 1430   5.005   1.145   4.152
  497TIP3   OH2 1431   7.692   4.216   0.633
  497TIP3    H1 1432   7.628   4.156   0.596
  497TIP3    H2 1433   7.775   4.192   0.591
  498TIP3   OH2 1434   1.689   2.241   2.103
  498TIP3    H1 1435   1.770   2.285   2.128
  498TIP3    H2 1436   1.647   2.301   2.041
  499TIP3   OH2 1437   1.779   2.014   6.087
  499TIP3    H1 1438   1.803   2.029   6.178
  499TIP3    H2 1439   1.712   2.079   6.069
  500TIP3   OH2 1440   8.345   4.923   4.472
  500TIP3    H1 1441   8.379   4.965   4.393
  500TIP3    H2 1442   8.421   4.883   4.513
  501TIP3   OH2 1443   2.607   5.662   4.692
  501TIP3    H1 1444   2.571   5.574   4.680
  501TIP3    H2 1445   2.644   5.686   4.607
  502TIP3   OH2 1446   1.077   1.715   5.553
  502TIP3    H1 1447   1.034   1.659   5.617
  502TIP3    H2 1448   1.161   1.738   5.594
  503TIP3   OH2 1449   4.291   4.701   4.891
  503TIP3    H1 1450   4.382   4.673   4.888
  503TIP3    H2 1451   4.290   4.787   4.849
  504TIP3   OH2 1452   2.553   1.085   2.621
  504TIP3    H1 1453   2.501   1.054   2.548
  504TIP3    H2 1454   2.617   1.145   2.582
  505TIP3   OH2 1455   7.337   0.151   0.227
  505TIP3    H1 1456   7.307   0.127   0.315
  505TIP3    H2 1457   7.365   0.069   0.188
  506TIP3   OH2 1458   3.467   0.403   4.534
  506TIP3    H1 1459   3.374   0.404   4.509
  506TIP3    H2 1460   3.513   0.440   4.459
  507TIP3   OH2 1461   6.943   1.011   0.917
  507TIP3    H1 1462   7.016   1.038   0.973
  507TIP3    H2 1463   6.896   0.945   0.969
  508TIP3   OH2 1464   3.172   5.989   5.209
  508TIP3    H1 1465   3.093   5.936   5.222
  508TIP3    H2 1466   3.145   6.078   5.233
  509TIP3   OH2 1467   2.725   3.515   3.500
  509TIP3    H1 1468   2.631   3.518   3.515
  509TIP3    H2 1469   2.762   3.495   3.586
  510TIP3   OH2 1470   3.177   7.008   0.079
  510TIP3    H1 1471   3.203   7.098   0.097
  510TIP3    H2 1472   3.259   6.962   0.063
  511TIP3   OH2 1473   4.239   7.039   1.795
  511TIP3    H1 1474   4.315   7.019   1.850
  511TIP3    H2 1475   4.188   7.102   1.846
  512TIP3   OH2 1476   1.074   1.022   2.975
  512TIP3    H1 1477   1.156   0.986   3.008
  512TIP3    H2 1478   1.073   0.998   2.882
  513TIP3   OH2 1479   2.536   2.534   6.685
  513TIP3    H1 1480   2.571   2.552   6.598
  513TIP3    H2 1481   2.580   2.596   6.743
  514TIP3   OH2 1482   4.876   1.329   1.393
  514TIP3    H1 1483   4.859   1.422   1.405
  514TIP3    H2 1484   4.971   1.320   1.399
  515TIP3   OH2 1485   7.444   1.613   6.639
  515TIP3    H1 1486   7.535   1.643   6.635
  515TIP3    H2 1487   7.447   1.525   6.601
  516TIP3   OH2 1488   0.580   1.911   4.111
  516TIP3    H1 1489   0.640   1.973   4.152
  516TIP3    H2 1490   0.531   1.874   4.184
  517TIP3   OH2 1491   7.242   3.056   0.342
  517TIP3    H1 1492   7.210   3.070   0.253
  517TIP3    H2 1493   7.336   3.072   0.337
  518TIP3   OH2 1494   3.285   6.962   1.843
  518TIP3    H1 1495   3.205   6.991   1.887
  518TIP3    H2 1496   3.274   6.988   1.752
  519TIP3   OH2 1497   4.537   3.747   6.527
  519TIP3    H1 1498   4.555   3.833   6.489
  519TIP3    H2 1499   4.622   3.715   6.557
  520TIP3   OH2 1500   5.372   5.642   2.356
  520TIP3    H1 1501   5.452   5.680   2.391
  520TIP3    H2 1502   5.361   5.560   2.404
  521TIP3   OH2 1503   2.782   2.006   0.271
  521TIP3    H1 1504   2.764   2.020   0.178
  521TIP3    H2 1505   2.711   1.949   0.301
  522TIP3   OH2 1506   3.260   6.236   1.011
  522TIP3    H1 1507   3.247   6.141   1.016
  522TIP3    H2 1508   3.341   6.246   0.961
  523TIP3   OH2 1509   4.126   3.644   6.377
  523TIP3    H1 1510   4.095   3.733   6.361
  523TIP3    H2 1511   4.077   3.615   6.454
  524TIP3   OH2 1512   3.749   4.116   1.161
  524TIP3    H1 1513   3.724   4.041   1.106
  524TIP3    H2 1514   3.759   4.079   1.249
  525TIP3   OH2 1515   1.523   1.729   5.880
  525TIP3    H1 1516   1.472   1.773   5.949
  525TIP3    H2 1517   1.547   1.799   5.819
  526TIP3   OH2 1518   6.960   5.918   2.668
  526TIP3    H1 1519   6.967   5.935   2.574
  526TIP3    H2 1520   6.931   5.827   2.674
  527TIP3   OH2 1521   6.944   7.398   3.303
  527TIP3    H1 1522   6.960   7.382   3.396
  527TIP3    H2 1523   6.991   7.328   3.258
  528TIP3   OH2 1524   4.538   0.709   6.239
  528TIP3    H1 1525   4.541   0.697   6.144
  528TIP3    H2 1526   4.605   0.775   6.256
  529TIP3   OH2 1527   7.341   1.459   3.847
  529TIP3    H1 1528   7.408   1.519   3.814
  529TIP3    H2 1529   7.261   1.511   3.850
  530TIP3   OH2 1530   7.811   3.280   1.139
  530TIP3    H1 1531   7.905   3.291   1.153
  530TIP3    H2 1532   7.786   3.355   1.085
  531TIP3   OH2 1533   7.632   5.233   5.457
  531TIP3    H1 1534   7.681   5.286   5.520
  531TIP3    H2 1535   7.614   5.151   5.504
  532TIP3   OH2 1536   7.463   4.519   3.139
  532TIP3    H1 1537   7.423   4.567   3.212
  532TIP3    H2 1538   7.460   4.428   3.167
  533TIP3   OH2 1539   5.842   5.750   6.342
  533TIP3    H1 1540   5.834   5.691   6.267
  533TIP3    H2 1541   5.753   5.781   6.358
  534TIP3   OH2 1542   6.977   5.089   2.482
  534TIP3    H1 1543   7.065   5.100   2.518
  534TIP3    H2 1544   6.989   5.034   2.405
  535TIP3   OH2 1545   8.318   7.443   0.142
  535TIP3    H1 1546   8.242   7.441   0.201
  535TIP3    H2 1547   8.383   7.494   0.190
  536TIP3   OH2 1548   5.428   1.911   4.186
  536TIP3    H1 1549   5.508   1.963   4.176
  536TIP3    H2 1550   5.446   1.828   4.142
  537TIP3   OH2 1551   0.276   2.072   6.626
  537TIP3    H1 1552   0.212   2.143   6.616
  537TIP3    H2 1553   0.227   1.993   6.606
  538TIP3   OH2 1554   2.174   3.544   6.806
  538TIP3    H1 1555   2.101   3.492   6.841
  538TIP3    H2 1556   2.248   3.484   6.805
  539TIP3   OH2 1557   6.014   1.574   2.838
  539TIP3    H1 1558   5.932   1.554   2.793
  539TIP3    H2 1559   5.988   1.634   2.908
  540TIP3   OH2 1560   5.493   6.932   6.134
  540TIP3    H1 1561   5.555   6.901   6.068
  540TIP3    H2 1562   5.447   7.005   6.091
  541TIP3   OH2 1563   5.957   7.332   5.461
  541TIP3    H1 1564   5.885   7.303   5.516
  541TIP3    H2 1565   6.034   7.330   5.519
  542TIP3   OH2 1566   6.645   2.434   5.866
  542TIP3    H1 1567   6.662   2.378   5.942
  542TIP3    H2 1568   6.691   2.515   5.885
  543TIP3   OH2 1569   5.514   6.104   1.687
  543TIP3    H1 1570   5.430   6.062   1.671
  543TIP3    H2 1571   5.505   6.147   1.772
  544TIP3   OH2 1572   0.148   1.975   5.835
  544TIP3    H1 1573   0.156   2.064   5.801
  544TIP3    H2 1574   0.236   1.953   5.866
  545TIP3   OH2 1575   6.046   7.095   4.935
  545TIP3    H1 1576   6.063   7.071   5.026
  545TIP3    H2 1577   5.974   7.159   4.939
  546TIP3   OH2 1578   1.156   6.863   5.653
  546TIP3    H1 1579   1.095   6.802   5.694
  546TIP3    H2 1580   1.125   6.949   5.681
  547TIP3   OH2 1581   3.439   2.703   5.393
  547TIP3    H1 1582   3.480   2.754   5.323
  547TIP3    H2 1583   3.486   2.620   5.393
  548TIP3   OH2 1584   6.119   1.242   5.801
  548TIP3    H1 1585   6.090   1.218   5.713
  548TIP3    H2 1586   6.208   1.275   5.789
  549TIP3   OH2 1587   1.008   4.335   5.453
  549TIP3    H1 1588   0.922   4.340   5.412
  549TIP3    H2 1589   1.057   4.408   5.416
  550TIP3   OH2 1590   3.605   6.958   3.180
  550TIP3    H1 1591   3.509   6.960   3.180
  550TIP3    H2 1592   3.628   6.968   3.273
  551TIP3   OH2 1593   0.348   6.011   4.848
  551TIP3    H1 1594   0.404   5.934   4.859
  551TIP3    H2 1595   0.336   6.044   4.936
  552TIP3   OH2 1596   7.757   1.632   4.550
  552TIP3    H1 1597   7.851   1.649   4.543
  552TIP3    H2 1598   7.750   1.537   4.554
  553TIP3   OH2 1599   5.618   0.211   1.192
  553TIP3    H1 1600   5.555   0.141   1.208
  553TIP3    H2 1601   5.569   0.292   1.206
  554TIP3   OH2 1602   0.214   3.668   3.546
  554TIP3    H1 1603   0.242   3.676   3.637
  554TIP3    H2 1604   0.280   3.612   3.505
  555TIP3   OH2 1605   0.716   1.804   5.714
  555TIP3    H1 1606   0.626   1.821   5.687
  555TIP3    H2 1607   0.719   1.709   5.726
  556TIP3   OH2 1608   6.460   0.990   3.204
  556TIP3    H1 1609   6.538   1.043   3.193
  556TIP3    H2 1610   6.387   1.052   3.199
  557TIP3   OH2 1611   2.304   1.559   3.594
  557TIP3    H1 1612   2.327   1.467   3.587
  557TIP3    H2 1613   2.210   1.559   3.614
  558TIP3   OH2 1614   5.307   6.385   1.617
  558TIP3    H1 1615   5.355   6.387   1.700
  558TIP3    H2 1616   5.371   6.356   1.552
  559TIP3   OH2 1617   1.931   0.520   5.437
  559TIP3    H1 1618   1.844   0.489   5.410
  559TIP3    H2 1619   1.917   0.611   5.463
  560TIP3   OH2 1620   4.447   6.171   1.338
  560TIP3    H1 1621   4.426   6.260   1.367
  560TIP3    H2 1622   4.542   6.172   1.323
  561TIP3   OH2 1623   2.656   0.884   4.156
  561TIP3    H1 1624   2.684   0.863   4.245
  561TIP3    H2 1625   2.734   0.917   4.113
  562TIP3   OH2 1626   4.465   2.354   4.038
  562TIP3    H1 1627   4.373   2.379   4.023
  562TIP3    H2 1628   4.469   2.330   4.130
  563TIP3   OH2 1629   3.513   7.305   5.667
  563TIP3    H1 1630   3.434   7.274   5.622
  563TIP3    H2 1631   3.559   7.356   5.601
  564TIP3   OH2 1632   1.197   6.871   1.499
  564TIP3    H1 1633   1.264   6.805   1.481
  564TIP3    H2 1634   1.218   6.943   1.439
  565TIP3   OH2 1635   1.927   4.658   6.401
  565TIP3    H1 1636   1.907   4.566   6.386
  565TIP3    H2 1637   1.919   4.670   6.495
  566TIP3   OH2 1638   6.027   2.431   3.411
  566TIP3    H1 1639   6.068   2.441   3.325
  566TIP3    H2 1640   5.996   2.519   3.433
  567TIP3   OH2 1641   5.673   3.723   2.053
  567TIP3    H1 1642   5.633   3.679   1.978
  567TIP3    H2 1643   5.607   3.719   2.122
  568TIP3   OH2 1644   0.911   0.088   3.701
  568TIP3    H1 1645   0.816   0.091   3.707
  568TIP3    H2 1646   0.932   0.153   3.633
  569TIP3   OH2 1647   1.734   5.307   6.840
  569TIP3    H1 1648   1.789   5.357   6.780
  569TIP3    H2 1649   1.786   5.230   6.862
  570TIP3   OH2 1650   3.072   1.792   6.001
  570TIP3    H1 1651   2.995   1.848   6.010
  570TIP3    H2 1652   3.087   1.786   5.907
  571TIP3   OH2 1653   0.717   3.177   6.405
  571TIP3    H1 1654   0.788   3.233   6.371
  571TIP3    H2 1655   0.725   3.097   6.354
  572TIP3   OH2 1656   7.326   4.393   0.013
  572TIP3    H1 1657   7.308   4.473  -0.036
  572TIP3    H2 1658   7.400   4.416   0.070
  573TIP3   OH2 1659   6.385   2.322   5.838
  573TIP3    H1 1660   6.428   2.250   5.793
  573TIP3    H2 1661   6.451   2.357   5.898
  574TIP3   OH2 1662   5.959   7.353   0.242
  574TIP3    H1 1663   5.973   7.438   0.201
  574TIP3    H2 1664   5.884   7.366   0.300
  575TIP3   OH2 1665   7.301   2.063   3.707
  575TIP3    H1 1666   7.285   2.113   3.627
  575TIP3    H2 1667   7.258   1.979   3.692
  576TIP3   OH2 1668   6.261   5.324   5.708
  576TIP3    H1 1669   6.294   5.392   5.649
  576TIP3    H2 1670   6.182   5.361   5.745
  577TIP3   OH2 1671   4.390   4.622   0.600
  577TIP3    H1 1672   4.402   4.692   0.536
  577TIP3    H2 1673   4.373   4.544   0.547
  578TIP3   OH2 1674   1.873   3.209   3.718
  578TIP3    H1 1675   1.935   3.270   3.677
  578TIP3    H2 1676   1.830   3.166   3.644
  579TIP3   OH2 1677   5.304   1.559   6.779
  579TIP3    H1 1678   5.266   1.647   6.789
  579TIP3    H2 1679   5.398   1.575   6.768
  580TIP3   OH2 1680   5.034   1.988   2.029
  580TIP3    H1 1681   5.087   2.062   2.000
  580TIP3    H2 1682   4.962   2.029   2.077
  581TIP3   OH2 1683   6.601   4.715   2.958
  581TIP3    H1 1684   6.607   4.745   2.867
  581TIP3    H2 1685   6.640   4.628   2.956
  582TIP3   OH2 1686   2.667   3.794   3.357
  582TIP3    H1 1687   2.677   3.778   3.263
  582TIP3    H2 1688   2.718   3.724   3.399
  583TIP3   OH2 1689   0.765   6.003   0.682
  583TIP3    H1 1690   0.810   6.088   0.686
  583TIP3    H2 1691   0.806   5.951   0.751
  584TIP3   OH2 1692   0.772   5.369   5.829
  584TIP3    H1 1693   0.758   5.445   5.773
  584TIP3    H2 1694   0.687   5.352   5.870
  585TIP3   OH2 1695   6.481   6.535   3.446
  585TIP3    H1 1696   6.521   6.580   3.521
  585TIP3    H2 1697   6.414   6.596   3.415
  586TIP3   OH2 1698   2.182   4.537   1.316
  586TIP3    H1 1699   2.121   4.557   1.387
  586TIP3    H2 1700   2.130   4.542   1.237
  587TIP3   OH2 1701   3.873   1.016   1.111
  587TIP3    H1 1702   3.894   0.972   1.194
  587TIP3    H2 1703   3.778   1.005   1.101
  588TIP3   OH2 1704   0.722   2.664   0.903
  588TIP3    H1 1705   0.729   2.579   0.946
  588TIP3    H2 1706   0.677   2.646   0.820
  589TIP3   OH2 1707   1.187   7.160   5.416
  589TIP3    H1 1708   1.134   7.098   5.365
  589TIP3    H2 1709   1.155   7.150   5.506
  590TIP3   OH2 1710   8.054   3.703   2.305
  590TIP3    H1 1711   8.058   3.607   2.312
  590TIP3    H2 1712   7.985   3.728   2.366
  591TIP3   OH2 1713   6.911   2.814   4.748
  591TIP3    H1 1714   6.828   2.768   4.735
  591TIP3    H2 1715   6.965   2.787   4.674
  592TIP3   OH2 1716   3.860   7.425   6.670
  592TIP3    H1 1717   3.783   7.481   6.657
  592TIP3    H2 1718   3.932   7.486   6.688
  593TIP3   OH2 1719   1.452   5.941   2.220
  593TIP3    H1 1720   1.410   5.858   2.199
  593TIP3    H2 1721   1.380   6.003   2.230
  594TIP3   OH2 1722   4.244   2.251   4.441
  594TIP3    H1 1723   4.271   2.162   4.422
  594TIP3    H2 1724   4.158   2.260   4.400
  595TIP3   OH2 1725   4.307   4.849   3.551
  595TIP3    H1 1726   4.349   4.860   3.466
  595TIP3    H2 1727   4.346   4.917   3.606
  596TIP3   OH2 1728   2.969   6.222   1.386
  596TIP3    H1 1729   2.950   6.129   1.374
  596TIP3    H2 1730   2.992   6.230   1.479
  597TIP3   OH2 1731   3.673   2.454   0.963
  597TIP3    H1 1732   3.696   2.362   0.969
  597TIP3    H2 1733   3.741   2.492   0.907
  598TIP3   OH2 1734   0.384   0.615   4.041
  598TIP3    H1 1735   0.378   0.709   4.024
  598TIP3    H2 1736   0.430   0.608   4.124
  599TIP3   OH2 1737   7.371   6.446   4.986
  599TIP3    H1 1738   7.446   6.505   4.972
  599TIP3    H2 1739   7.316   6.459   4.909
  600TIP3   OH2 1740   8.298   3.148   1.097
  600TIP3    H1 1741   8.339   3.218   1.147
  600TIP3    H2 1742   8.313   3.171   1.005
  601TIP3   OH2 1743   2.431   6.598   4.147
  601TIP3    H1 1744   2.402   6.512   4.116
  601TIP3    H2 1745   2.392   6.606   4.234
  602TIP3   OH2 1746   3.334   0.305   0.427
  602TIP3    H1 1747   3.360   0.216   0.404
  602TIP3    H2 1748   3.397   0.361   0.382
  603TIP3   OH2 1749   3.409   2.826   5.803
  603TIP3    H1 1750   3.458   2.862   5.729
  603TIP3    H2 1751   3.455   2.745   5.826
  604TIP3   OH2 1752   5.286   6.303   3.111
  604TIP3    H1 1753   5.283   6.222   3.060
  604TIP3    H2 1754   5.208   6.298   3.167
  605TIP3   OH2 1755   0.987   3.752   4.419
  605TIP3    H1 1756   1.012   3.711   4.336
  605TIP3    H2 1757   0.916   3.812   4.396
  606TIP3   OH2 1758   7.894   7.818   4.828
  606TIP3    H1 1759   7.913   7.733   4.866
  606TIP3    H2 1760   7.799   7.828   4.836
  607TIP3   OH2 1761   7.367   4.053   4.652
  607TIP3    H1 1762   7.318   3.976   4.682
  607TIP3    H2 1763   7.415   4.022   4.576
  608TIP3   OH2 1764   8.289   1.989   3.773
  608TIP3    H1 1765   8.377   1.951   3.778
  608TIP3    H2 1766   8.278   2.011   3.681
  609TIP3   OH2 1767   3.205   7.726   2.201
  609TIP3    H1 1768   3.212   7.820   2.212
  609TIP3    H2 1769   3.133   7.700   2.260
  610TIP3   OH2 1770   5.516   3.542   5.886
  610TIP3    H1 1771   5.606   3.570   5.870
  610TIP3    H2 1772   5.467   3.623   5.898
  611TIP3   OH2 1773   4.360   6.934   5.460
  611TIP3    H1 1774   4.297   6.868   5.488
  611TIP3    H2 1775   4.439   6.884   5.436
  612TIP3   OH2 1776   4.983   1.664   0.719
  612TIP3    H1 1777   4.924   1.602   0.676
  612TIP3    H2 1778   4.925   1.723   0.767
  613TIP3   OH2 1779   3.901   0.666   0.365
  613TIP3    H1 1780   3.920   0.758   0.343
  613TIP3    H2 1781   3.843   0.636   0.294
  614TIP3   OH2 1782   5.821   1.425   3.873
  614TIP3    H1 1783   5.799   1.341   3.832
  614TIP3    H2 1784   5.769   1.490   3.825
  615TIP3   OH2 1785   5.481   7.099   2.065
  615TIP3    H1 1786   5.505   7.010   2.091
  615TIP3    H2 1787   5.546   7.122   1.998
  616TIP3   OH2 1788   6.239   2.539   1.223
  616TIP3    H1 1789   6.190   2.464   1.191
  616TIP3    H2 1790   6.174   2.609   1.233
  617TIP3   OH2 1791   8.332   5.325   0.633
  617TIP3    H1 1792   8.277   5.386   0.584
  617TIP3    H2 1793   8.371   5.269   0.567
  618TIP3   OH2 1794   3.568   1.178   3.655
  618TIP3    H1 1795   3.473   1.188   3.648
  618TIP3    H2 1796   3.582   1.084   3.644
  619TIP3   OH2 1797   2.782   5.857   6.197
  619TIP3    H1 1798   2.689   5.878   6.211
  619TIP3    H2 1799   2.783   5.763   6.178
  620TIP3   OH2 1800   4.433   5.850   3.910
  620TIP3    H1 1801   4.363   5.909   3.885
  620TIP3    H2 1802   4.418   5.833   4.003
  621TIP3   OH2 1803   3.895   4.726   0.693
  621TIP3    H1 1804   3.951   4.699   0.621
  621TIP3    H2 1805   3.864   4.813   0.669
  622TIP3   OH2 1806   4.770   5.085   5.955
  622TIP3    H1 1807   4.719   5.092   5.874
  622TIP3    H2 1808   4.704   5.078   6.024
  623TIP3   OH2 1809   0.023   4.894   0.127
  623TIP3    H1 1810  -0.029   4.828   0.174
  623TIP3    H2 1811   0.082   4.929   0.194
  624TIP3   OH2 1812   4.581   2.789   1.804
  624TIP3    H1 1813   4.525   2.838   1.743
  624TIP3    H2 1814   4.652   2.850   1.825
  625TIP3   OH2 1815   0.279   5.842   6.015
  625TIP3    H1 1816   0.247   5.915   5.962
  625TIP3    H2 1817   0.372   5.834   5.992
  626TIP3   OH2 1818   6.797   7.796   5.225
  626TIP3    H1 1819   6.826   7.763   5.140
  626TIP3    H2 1820   6.791   7.719   5.281
  627TIP3   OH2 1821   0.062   3.979   5.480
  627TIP3    H1 1822   0.056   3.919   5.405
  627TIP3    H2 1823   0.114   4.053   5.448
  628TIP3   OH2 1824   1.844   7.154   1.242
  628TIP3    H1 1825   1.903   7.079   1.242
  628TIP3    H2 1826   1.901   7.229   1.261
  629TIP3   OH2 1827   1.683   4.198   5.758
  629TIP3    H1 1828   1.593   4.208   5.727
  629TIP3    H2 1829   1.722   4.285   5.748
  630TIP3   OH2 1830   4.195   2.355   1.030
  630TIP3    H1 1831   4.197   2.346   1.125
  630TIP3    H2 1832   4.171   2.446   1.015
  631TIP3   OH2 1833   3.389   4.660   6.020
  631TIP3    H1 1834   3.332   4.736   6.008
  631TIP3    H2 1835   3.477   4.696   6.028
  632TIP3   OH2 1836   2.869   2.144   5.049
  632TIP3    H1 1837   2.829   2.212   5.103
  632TIP3    H2 1838   2.826   2.063   5.077
  633TIP3   OH2 1839   3.919   6.268   0.692
  633TIP3    H1 1840   3.985   6.249   0.759
  633TIP3    H2 1841   3.944   6.213   0.618
  634TIP3   OH2 1842   5.729   2.665   2.356
  634TIP3    H1 1843   5.769   2.624   2.280
  634TIP3    H2 1844   5.783   2.637   2.430
  635TIP3   OH2 1845   4.654   7.708   1.612
  635TIP3    H1 1846   4.734   7.683   1.657
  635TIP3    H2 1847   4.625   7.628   1.568
  636TIP3   OH2 1848   6.298   4.575   6.264
  636TIP3    H1 1849   6.386   4.543   6.248
  636TIP3    H2 1850   6.247   4.497   6.286
  637TIP3   OH2 1851   2.003   6.762   4.459
  637TIP3    H1 1852   1.951   6.839   4.482
  637TIP3    H2 1853   1.938   6.695   4.438
  638TIP3   OH2 1854   5.554   0.039   0.460
  638TIP3    H1 1855   5.521   0.051   0.371
  638TIP3    H2 1856   5.518   0.112   0.509
  639TIP3   OH2 1857   7.822   5.136   3.143
  639TIP3    H1 1858   7.797   5.045   3.128
  639TIP3    H2 1859   7.916   5.138   3.127
  640TIP3   OH2 1860   3.130   1.848   4.764
  640TIP3    H1 1861   3.163   1.801   4.841
  640TIP3    H2 1862   3.074   1.917   4.799
  641TIP3   OH2 1863   5.360   4.002   6.463
  641TIP3    H1 1864   5.320   3.917   6.475
  641TIP3    H2 1865   5.304   4.062   6.512
  642TIP3   OH2 1866   0.624   0.456   2.783
  642TIP3    H1 1867   0.635   0.383   2.721
  642TIP3    H2 1868   0.529   0.457   2.800
  643TIP3   OH2 1869   5.207   6.903   5.915
  643TIP3    H1 1870   5.295   6.867   5.903
  643TIP3    H2 1871   5.209   6.988   5.872
  644TIP3   OH2 1872   1.188   1.019   6.405
  644TIP3    H1 1873   1.103   1.050   6.437
  644TIP3    H2 1874   1.235   1.098   6.381
  645TIP3   OH2 1875   7.802   2.146   1.492
  645TIP3    H1 1876   7.826   2.129   1.401
  645TIP3    H2 1877   7.828   2.237   1.507
  646TIP3   OH2 1878   7.469   1.598   1.583
  646TIP3    H1 1879   7.525   1.583   1.506
  646TIP3    H2 1880   7.381   1.610   1.546
  647TIP3   OH2 1881   0.116   7.510   3.603
  647TIP3    H1 1882   0.173   7.575   3.644
  647TIP3    H2 1883   0.078   7.556   3.528
  648TIP3   OH2 1884   6.680   6.117   0.597
  648TIP3    H1 1885   6.621   6.043   0.611
  648TIP3    H2 1886   6.624   6.194   0.604
  649TIP3   OH2 1887   4.417   7.085   5.245
  649TIP3    H1 1888   4.351   7.063   5.179
  649TIP3    H2 1889   4.381   7.051   5.327
  650TIP3   OH2 1890   0.716   1.097   6.729
  650TIP3    H1 1891   0.628   1.083   6.694
  650TIP3    H2 1892   0.757   1.157   6.667
  651TIP3   OH2 1893   2.569   7.494   4.701
  651TIP3    H1 1894   2.481   7.471   4.671
  651TIP3    H2 1895   2.613   7.529   4.624
  652TIP3   OH2 1896   2.607   2.048   4.029
  652TIP3    H1 1897   2.553   1.969   4.032
  652TIP3    H2 1898   2.668   2.032   3.958
  653TIP3   OH2 1899   0.364   2.225   4.653
  653TIP3    H1 1900   0.413   2.285   4.596
  653TIP3    H2 1901   0.274   2.259   4.651
  654TIP3   OH2 1902   3.519   6.776   0.329
  654TIP3    H1 1903   3.525   6.780   0.233
  654TIP3    H2 1904   3.453   6.709   0.345
  655TIP3   OH2 1905   6.178   3.940   2.519
  655TIP3    H1 1906   6.169   4.019   2.466
  655TIP3    H2 1907   6.091   3.899   2.516
  656TIP3   OH2 1908   8.244   6.825   3.384
  656TIP3    H1 1909   8.327   6.782   3.404
  656TIP3    H2 1910   8.225   6.878   3.461
  657TIP3   OH2 1911   3.144   2.355   2.621
  657TIP3    H1 1912   3.091   2.280   2.595
  657TIP3    H2 1913   3.109   2.428   2.570
  658TIP3   OH2 1914   5.842   1.155   4.172
  658TIP3    H1 1915   5.787   1.126   4.246
  658TIP3    H2 1916   5.823   1.248   4.164
  659TIP3   OH2 1917   7.877   0.848   5.209
  659TIP3    H1 1918   7.802   0.845   5.150
  659TIP3    H2 1919   7.944   0.795   5.166
  660TIP3   OH2 1920   0.663   1.852   4.860
  660TIP3    H1 1921   0.588   1.823   4.913
  660TIP3    H2 1922   0.657   1.800   4.780
  661TIP3   OH2 1923   8.283   0.875   0.702
  661TIP3    H1 1924   8.237   0.921   0.632
  661TIP3    H2 1925   8.355   0.830   0.657
  662TIP3   OH2 1926   2.175   6.648   2.877
  662TIP3    H1 1927   2.262   6.638   2.839
  662TIP3    H2 1928   2.161   6.568   2.927
  663TIP3   OH2 1929   1.682   6.307   5.506
  663TIP3    H1 1930   1.593   6.338   5.490
  663TIP3    H2 1931   1.702   6.335   5.595
  664TIP3   OH2 1932   2.713   4.662   2.988
  664TIP3    H1 1933   2.657   4.645   2.912
  664TIP3    H2 1934   2.796   4.690   2.950
  665TIP3   OH2 1935   5.625   2.884   2.200
  665TIP3    H1 1936   5.571   2.937   2.259
  665TIP3    H2 1937   5.651   2.808   2.252
  666TIP3   OH2 1938   7.942   1.073   4.643
  666TIP3    H1 1939   7.900   1.091   4.559
  666TIP3    H2 1940   7.934   0.978   4.655
  667TIP3   OH2 1941   5.944   6.128   5.899
  667TIP3    H1 1942   5.907   6.093   5.980
  667TIP3    H2 1943   6.011   6.190   5.928
  668TIP3   OH2 1944   7.137   3.549   2.877
  668TIP3    H1 1945   7.107   3.607   2.807
  668TIP3    H2 1946   7.057   3.527   2.925
  669TIP3   OH2 1947   1.826   4.996   0.222
  669TIP3    H1 1948   1.916   5.025   0.206
  669TIP3    H2 1949   1.829   4.901   0.209
  670TIP3   OH2 1950   3.508   5.737   1.568
  670TIP3    H1 1951   3.443   5.671   1.542
  670TIP3    H2 1952   3.460   5.799   1.622
  671TIP3   OH2 1953   3.767   2.678   6.813
  671TIP3    H1 1954   3.720   2.699   6.894
  671TIP3    H2 1955   3.705   2.627   6.761
  672TIP3   OH2 1956   0.829   4.222   3.891
  672TIP3    H1 1957   0.854   4.313   3.876
  672TIP3    H2 1958   0.821   4.185   3.803
  673TIP3   OH2 1959   6.206   3.219   2.896
  673TIP3    H1 1960   6.111   3.217   2.910
  673TIP3    H2 1961   6.231   3.310   2.914
  674TIP3   OH2 1962   2.617   6.608   0.833
  674TIP3    H1 1963   2.709   6.584   0.845
  674TIP3    H2 1964   2.596   6.576   0.745
  675TIP3   OH2 1965   2.997   1.547   0.060
  675TIP3    H1 1966   3.055   1.506  -0.004
  675TIP3    H2 1967   2.936   1.599   0.007
  676TIP3   OH2 1968   0.367   6.328   3.052
  676TIP3    H1 1969   0.333   6.418   3.051
  676TIP3    H2 1970   0.330   6.288   2.974
  677TIP3   OH2 1971   3.414   0.040   6.568
  677TIP3    H1 1972   3.354   0.090   6.623
  677TIP3    H2 1973   3.434   0.099   6.495
  678TIP3   OH2 1974   5.987   2.577   1.569
  678TIP3    H1 1975   5.960   2.488   1.546
  678TIP3    H2 1976   6.050   2.565   1.641
  679TIP3   OH2 1977   1.470   6.667   5.138
  679TIP3    H1 1978   1.499   6.638   5.051
  679TIP3    H2 1979   1.547   6.658   5.194
  680TIP3   OH2 1980   2.961   5.888   5.461
  680TIP3    H1 1981   2.948   5.803   5.504
  680TIP3    H2 1982   2.936   5.872   5.370
  681TIP3   OH2 1983   1.356   6.897   5.303
  681TIP3    H1 1984   1.380   6.867   5.215
  681TIP3    H2 1985   1.328   6.987   5.292
  682TIP3   OH2 1986   5.319   4.737   2.854
  682TIP3    H1 1987   5.300   4.739   2.948
  682TIP3    H2 1988   5.292   4.649   2.827
  683TIP3   OH2 1989   7.550   7.435   5.325
  683TIP3    H1 1990   7.636   7.472   5.347
  683TIP3    H2 1991   7.488   7.484   5.380
  684TIP3   OH2 1992   0.680   1.738   1.856
  684TIP3    H1 1993   0.629   1.682   1.915
  684TIP3    H2 1994   0.625   1.747   1.778
  685TIP3   OH2 1995   5.956   2.565   5.157
  685TIP3    H1 1996   5.904   2.552   5.236
  685TIP3    H2 1997   5.970   2.660   5.152
  686TIP3   OH2 1998   7.270   1.853   2.411
  686TIP3    H1 1999   7.279   1.868   2.317
  686TIP3    H2 2000   7.194   1.905   2.437
  687TIP3   OH2 2001   8.299   4.339   5.456
  687TIP3    H1 2002   8.213   4.376   5.440
  687TIP3    H2 2003   8.299   4.316   5.549
  688TIP3   OH2 2004   1.550   1.935   1.643
  688TIP3    H1 2005   1.526   1.922   1.735
  688TIP3    H2 2006   1.467   1.935   1.596
  689TIP3   OH2 2007   1.327   2.941   5.977
  689TIP3    H1 2008   1.315   3.009   5.911
  689TIP3    H2 2009   1.241   2.900   5.986
  690TIP3   OH2 2010   0.925   0.853   3.660
  690TIP3    H1 2011   1.019   0.864   3.646
  690TIP3    H2 2012   0.884   0.902   3.588
  691TIP3   OH2 2013   4.926   4.636   3.224
  691TIP3    H1 2014   4.962   4.653   3.311
  691TIP3    H2 2015   4.836   4.609   3.241
  692TIP3   OH2 2016   6.708   7.780   4.294
  692TIP3    H1 2017   6.745   7.757   4.379
  692TIP3    H2 2018   6.780   7.768   4.233
  693TIP3   OH2 2019   8.201   2.217   0.559
  693TIP3    H1 2020   8.180   2.297   0.608
  693TIP3    H2 2021   8.244   2.161   0.624
  694TIP3   OH2 2022   4.503   4.373   5.310
  694TIP3    H1 2023   4.487   4.304   5.375
  694TIP3    H2 2024   4.543   4.327   5.236
  695TIP3   OH2 2025   2.531   7.075   2.481
  695TIP3    H1 2026   2.614   7.121   2.495
  695TIP3    H2 2027   2.487   7.125   2.412
  696TIP3   OH2 2028   4.540   3.139   4.228
  696TIP3    H1 2029   4.509   3.049   4.235
  696TIP3    H2 2030   4.463   3.193   4.245
  697TIP3   OH2 2031   0.124   5.670   1.604
  697TIP3    H1 2032   0.118   5.650   1.698
  697TIP3    H2 2033   0.089   5.592   1.561
  698TIP3   OH2 2034   2.461   1.196   2.136
  698TIP3    H1 2035   2.486   1.162   2.222
  698TIP3    H2 2036   2.387   1.255   2.153
  699TIP3   OH2 2037   4.973   6.189   2.144
  699TIP3    H1 2038   5.032   6.258   2.175
  699TIP3    H2 2039   4.902   6.237   2.101
  700TIP3   OH2 2040   7.876   4.447   2.966
  700TIP3    H1 2041   7.801   4.495   3.001
  700TIP3    H2 2042   7.870   4.458   2.871
  701TIP3   OH2 2043   3.397   3.493   3.178
  701TIP3    H1 2044   3.391   3.459   3.267
  701TIP3    H2 2045   3.307   3.491   3.145
  702TIP3   OH2 2046   7.013   4.917   2.284
  702TIP3    H1 2047   6.950   4.856   2.247
  702TIP3    H2 2048   7.078   4.862   2.327
  703TIP3   OH2 2049   7.927   7.384   4.517
  703TIP3    H1 2050   7.910   7.293   4.539
  703TIP3    H2 2051   7.850   7.411   4.467
  704TIP3   OH2 2052   7.159   4.518   5.382
  704TIP3    H1 2053   7.098   4.450   5.413
  704TIP3    H2 2054   7.228   4.469   5.337
  705TIP3   OH2 2055   7.252   4.921   4.282
  705TIP3    H1 2056   7.323   4.933   4.219
  705TIP3    H2 2057   7.249   5.002   4.332
  706TIP3   OH2 2058   1.378   0.586   6.353
  706TIP3    H1 2059   1.391   0.656   6.290
  706TIP3    H2 2060   1.441   0.603   6.423
  707TIP3   OH2 2061   0.846   2.702   3.857
  707TIP3    H1 2062   0.924   2.683   3.909
  707TIP3    H2 2063   0.879   2.730   3.772
  708TIP3   OH2 2064   5.213   4.118   0.507
  708TIP3    H1 2065   5.191   4.100   0.416
  708TIP3    H2 2066   5.227   4.032   0.546
  709TIP3   OH2 2067   2.858   4.662   6.754
  709TIP3    H1 2068   2.802   4.599   6.799
  709TIP3    H2 2069   2.937   4.612   6.732
  710TIP3   OH2 2070   7.511   4.150   6.382
  710TIP3    H1 2071   7.589   4.204   6.370
  710TIP3    H2 2072   7.535   4.064   6.347
  711TIP3   OH2 2073   7.510   2.446   0.528
  711TIP3    H1 2074   7.500   2.355   0.500
  711TIP3    H2 2075   7.484   2.446   0.620
  712TIP3   OH2 2076   5.160   3.970   5.840
  712TIP3    H1 2077   5.203   4.055   5.837
  712TIP3    H2 2078   5.069   3.990   5.863
  713TIP3   OH2 2079   3.653  -0.032   6.281
  713TIP3    H1 2080   3.657   0.022   6.360
  713TIP3    H2 2081   3.650   0.032   6.209
  714TIP3   OH2 2082   0.752   2.104   4.215
  714TIP3    H1 2083   0.814   2.035   4.240
  714TIP3    H2 2084   0.790   2.143   4.136
  715TIP3   OH2 2085   3.276   3.514   4.623
  715TIP3    H1 2086   3.271   3.438   4.680
  715TIP3    H2 2087   3.186   3.545   4.615
  716TIP3   OH2 2088   0.577   2.844   3.876
  716TIP3    H1 2089   0.650   2.784   3.860
  716TIP3    H2 2090   0.543   2.818   3.962
  717TIP3   OH2 2091   6.941   6.422   4.814
  717TIP3    H1 2092   6.944   6.327   4.825
  717TIP3    H2 2093   6.917   6.455   4.900
  718TIP3   OH2 2094   1.272   1.633   0.039
  718TIP3    H1 2095   1.310   1.557   0.083
  718TIP3    H2 2096   1.290   1.619  -0.054
  719TIP3   OH2 2097   8.142   6.056   5.692
  719TIP3    H1 2098   8.122   5.985   5.632
  719TIP3    H2 2099   8.179   6.125   5.637
  720TIP3   OH2 2100   3.322   0.653   3.290
  720TIP3    H1 2101   3.280   0.703   3.360
  720TIP3    H2 2102   3.328   0.564   3.325
  721TIP3   OH2 2103   3.446   1.556   6.256
  721TIP3    H1 2104   3.442   1.514   6.343
  721TIP3    H2 2105   3.531   1.599   6.254
  722TIP3   OH2 2106   4.263   3.002   1.876
  722TIP3    H1 2107   4.292   2.946   1.804
  722TIP3    H2 2108   4.275   3.091   1.844
  723TIP3   OH2 2109   2.290   5.078   1.368
  723TIP3    H1 2110   2.262   4.987   1.357
  723TIP3    H2 2111   2.306   5.109   1.278
  724TIP3   OH2 2112   4.589   7.806   0.911
  724TIP3    H1 2113   4.643   7.823   0.834
  724TIP3    H2 2114   4.651   7.777   0.978
  725TIP3   OH2 2115   8.184   1.848   5.770
  725TIP3    H1 2116   8.130   1.925   5.786
  725TIP3    H2 2117   8.250   1.878   5.707
  726TIP3   OH2 2118   5.533   7.570   0.267
  726TIP3    H1 2119   5.571   7.633   0.206
  726TIP3    H2 2120   5.442   7.561   0.239
  727TIP3   OH2 2121   4.409   1.236   4.777
  727TIP3    H1 2122   4.349   1.288   4.831
  727TIP3    H2 2123   4.447   1.299   4.716
  728TIP3   OH2 2124   0.885   6.710   2.511
  728TIP3    H1 2125   0.913   6.719   2.420
  728TIP3    H2 2126   0.811   6.649   2.507
  729TIP3   OH2 2127   7.414   1.535   0.901
  729TIP3    H1 2128   7.464   1.477   0.843
  729TIP3    H2 2129   7.464   1.536   0.983
  730TIP3   OH2 2130   2.481   6.813   3.556
  730TIP3    H1 2131   2.518   6.783   3.638
  730TIP3    H2 2132   2.391   6.837   3.578
  731TIP3   OH2 2133   1.471   5.205   3.282
  731TIP3    H1 2134   1.382   5.188   3.315
  731TIP3    H2 2135   1.506   5.270   3.343
  732TIP3   OH2 2136   1.566   3.194   0.382
  732TIP3    H1 2137   1.535   3.284   0.376
  732TIP3    H2 2138   1.588   3.169   0.292
  733TIP3   OH2 2139   7.486   1.032   3.760
  733TIP3    H1 2140   7.491   0.948   3.805
  733TIP3    H2 2141   7.462   1.095   3.829
  734TIP3   OH2 2142   5.588   0.385   2.462
  734TIP3    H1 2143   5.680   0.368   2.481
  734TIP3    H2 2144   5.587   0.469   2.417
  735TIP3   OH2 2145   7.476   1.689   6.271
  735TIP3    H1 2146   7.529   1.659   6.345
  735TIP3    H2 2147   7.509   1.777   6.253
  736TIP3   OH2 2148   6.915   5.608   4.182
  736TIP3    H1 2149   6.914   5.584   4.274
  736TIP3    H2 2150   6.923   5.703   4.182
  737TIP3   OH2 2151   5.625   3.352   4.709
  737TIP3    H1 2152   5.636   3.442   4.739
  737TIP3    H2 2153   5.704   3.334   4.658
  738TIP3   OH2 2154   2.833   5.818   0.510
  738TIP3    H1 2155   2.883   5.774   0.580
  738TIP3    H2 2156   2.868   5.907   0.508
  739TIP3   OH2 2157   6.921   0.999   3.895
  739TIP3    H1 2158   6.886   0.930   3.839
  739TIP3    H2 2159   6.904   1.080   3.847
  740TIP3   OH2 2160   8.132   2.427   6.241
  740TIP3    H1 2161   8.062   2.492   6.250
  740TIP3    H2 2162   8.207   2.468   6.285
  741TIP3   OH2 2163   7.163   2.669   4.873
  741TIP3    H1 2164   7.150   2.602   4.941
  741TIP3    H2 2165   7.119   2.746   4.908
  742TIP3   OH2 2166   0.920   6.108   6.002
  742TIP3    H1 2167   0.846   6.123   5.943
  742TIP3    H2 2168   0.992   6.159   5.964
  743TIP3   OH2 2169   0.358   5.801   0.844
  743TIP3    H1 2170   0.359   5.742   0.919
  743TIP3    H2 2171   0.298   5.760   0.782
  744TIP3   OH2 2172   6.319   2.719   2.011
  744TIP3    H1 2173   6.245   2.664   2.036
  744TIP3    H2 2174   6.305   2.738   1.918
  745TIP3   OH2 2175   4.453   1.838   1.378
  745TIP3    H1 2176   4.425   1.914   1.326
  745TIP3    H2 2177   4.372   1.790   1.395
  746TIP3   OH2 2178   7.273   5.293   3.382
  746TIP3    H1 2179   7.227   5.355   3.325
  746TIP3    H2 2180   7.203   5.247   3.429
  747TIP3   OH2 2181   3.564   3.517   2.939
  747TIP3    H1 2182   3.509   3.490   3.012
  747TIP3    H2 2183   3.627   3.446   2.928
  748TIP3   OH2 2184   5.417   0.901   2.029
  748TIP3    H1 2185   5.401   0.904   2.123
  748TIP3    H2 2186   5.501   0.946   2.017
  749TIP3   OH2 2187   3.147   2.730   1.958
  749TIP3    H1 2188   3.143   2.761   1.868
  749TIP3    H2 2189   3.210   2.658   1.956
  750TIP3   OH2 2190   2.090   6.812   5.828
  750TIP3    H1 2191   2.101   6.841   5.737
  750TIP3    H2 2192   2.102   6.717   5.825
  751TIP3   OH2 2193   4.097   7.428   2.818
  751TIP3    H1 2194   4.029   7.391   2.760
  751TIP3    H2 2195   4.150   7.482   2.760
  752TIP3   OH2 2196   4.804   1.351   1.800
  752TIP3    H1 2197   4.880   1.300   1.772
  752TIP3    H2 2198   4.814   1.435   1.756
  753TIP3   OH2 2199   6.291   2.671   3.329
  753TIP3    H1 2200   6.328   2.722   3.401
  753TIP3    H2 2201   6.289   2.581   3.363
  754TIP3   OH2 2202   5.530   1.066   5.649
  754TIP3    H1 2203   5.516   1.102   5.562
  754TIP3    H2 2204   5.520   0.971   5.637
  755TIP3   OH2 2205   0.261   2.511   3.018
  755TIP3    H1 2206   0.344   2.468   2.998
  755TIP3    H2 2207   0.204   2.488   2.945
  756TIP3   OH2 2208   1.152   1.544   2.552
  756TIP3    H1 2209   1.079   1.490   2.583
  756TIP3    H2 2210   1.208   1.484   2.504
  757TIP3   OH2 2211   4.840   6.147   4.674
  757TIP3    H1 2212   4.912   6.207   4.692
  757TIP3    H2 2213   4.867   6.100   4.596
  758TIP3   OH2 2214   0.484   2.024   3.609
  758TIP3    H1 2215   0.467   1.930   3.601
  758TIP3    H2 2216   0.455   2.045   3.698
  759TIP3   OH2 2217   2.183   1.815   2.918
  759TIP3    H1 2218   2.239   1.892   2.927
  759TIP3    H2 2219   2.095   1.850   2.903
  760TIP3   OH2 2220   5.970   6.214   3.817
  760TIP3    H1 2221   6.061   6.244   3.821
  760TIP3    H2 2222   5.943   6.232   3.727
  761TIP3   OH2 2223   3.428   2.915   0.624
  761TIP3    H1 2224   3.504   2.972   0.612
  761TIP3    H2 2225   3.411   2.879   0.537
  762TIP3   OH2 2226   4.482   2.588   5.308
  762TIP3    H1 2227   4.486   2.580   5.403
  762TIP3    H2 2228   4.562   2.545   5.276
  763TIP3   OH2 2229   2.242   4.578   0.279
  763TIP3    H1 2230   2.230   4.575   0.184
  763TIP3    H2 2231   2.247   4.486   0.305
  764TIP3   OH2 2232   1.460   1.640   6.259
  764TIP3    H1 2233   1.417   1.590   6.191
  764TIP3    H2 2234   1.489   1.721   6.215
  765TIP3   OH2 2235   2.319   6.307   5.356
  765TIP3    H1 2236   2.283   6.294   5.268
  765TIP3    H2 2237   2.268   6.248   5.412
  766TIP3   OH2 2238   3.750   5.808   2.044
  766TIP3    H1 2239   3.661   5.814   2.080
  766TIP3    H2 2240   3.738   5.821   1.950
  767TIP3   OH2 2241   8.127   3.881   2.504
  767TIP3    H1 2242   8.123   3.873   2.409
  767TIP3    H2 2243   8.125   3.791   2.536
  768TIP3   OH2 2244   5.029   0.043   3.101
  768TIP3    H1 2245   5.045  -0.050   3.093
  768TIP3    H2 2246   4.941   0.049   3.139
  769TIP3   OH2 2247   6.196   5.375   0.056
  769TIP3    H1 2248   6.159   5.373   0.145
  769TIP3    H2 2249   6.280   5.418   0.067
  770TIP3   OH2 2250   4.139   2.785   3.655
  770TIP3    H1 2251   4.053   2.742   3.647
  770TIP3    H2 2252   4.198   2.728   3.605
  771TIP3   OH2 2253   8.136   0.687   5.541
  771TIP3    H1 2254   8.088   0.660   5.463
  771TIP3    H2 2255   8.203   0.620   5.552
  772TIP3   OH2 2256   0.789   2.153   1.496
  772TIP3    H1 2257   0.788   2.242   1.532
  772TIP3    H2 2258   0.856   2.108   1.548
  773TIP3   OH2 2259   1.137   6.649   1.099
  773TIP3    H1 2260   1.070   6.624   1.036
  773TIP3    H2 2261   1.140   6.576   1.161
  774TIP3   OH2 2262   6.221   5.710   6.541
  774TIP3    H1 2263   6.206   5.646   6.472
  774TIP3    H2 2264   6.309   5.745   6.522
  775TIP3   OH2 2265   1.356   6.618   2.016
  775TIP3    H1 2266   1.306   6.633   1.936
  775TIP3    H2 2267   1.447   6.638   1.991
  776TIP3   OH2 2268   6.297   7.242   0.653
  776TIP3    H1 2269   6.315   7.151   0.630
  776TIP3    H2 2270   6.279   7.240   0.747
  777TIP3   OH2 2271   2.949   3.612   6.631
  777TIP3    H1 2272   3.031   3.570   6.656
  777TIP3    H2 2273   2.884   3.576   6.692
  778TIP3   OH2 2274   2.137   6.505   1.480
  778TIP3    H1 2275   2.164   6.579   1.426
  778TIP3    H2 2276   2.219   6.470   1.516
  779TIP3   OH2 2277  -0.012   2.129   3.150
  779TIP3    H1 2278   0.077   2.098   3.167
  779TIP3    H2 2279  -0.054   2.057   3.102
  780TIP3   OH2 2280   4.098   4.746   0.471
  780TIP3    H1 2281   4.089   4.819   0.410
  780TIP3    H2 2282   4.190   4.749   0.499
  781TIP3   OH2 2283   0.447   0.871   4.006
  781TIP3    H1 2284   0.454   0.963   3.982
  781TIP3    H2 2285   0.537   0.845   4.026
  782TIP3   OH2 2286   1.225   2.558   3.228
  782TIP3    H1 2287   1.298   2.583   3.284
  782TIP3    H2 2288   1.168   2.505   3.285
  783TIP3   OH2 2289   0.118   3.350   6.306
  783TIP3    H1 2290   0.141   3.259   6.288
  783TIP3    H2 2291   0.093   3.386   6.221
  784TIP3   OH2 2292   8.302   5.896   3.779
  784TIP3    H1 2293   8.394   5.918   3.766
  784TIP3    H2 2294   8.262   5.910   3.693
  785TIP3   OH2 2295   7.018   1.384   0.844
  785TIP3    H1 2296   7.113   1.384   0.829
  785TIP3    H2 2297   7.008   1.354   0.935
  786TIP3   OH2 2298   4.098   5.773   1.960
  786TIP3    H1 2299   4.075   5.681   1.974
  786TIP3    H2 2300   4.115   5.807   2.048
  787TIP3   OH2 2301   1.521   2.090   1.163
  787TIP3    H1 2302   1.615   2.103   1.148
  787TIP3    H2 2303   1.491   2.041   1.086
  788TIP3   OH2 2304   7.255   5.256   6.086
  788TIP3    H1 2305   7.188   5.202   6.129
  788TIP3    H2 2306   7.238   5.345   6.118
  789TIP3   OH2 2307   2.027   1.881   6.574
  789TIP3    H1 2308   2.081   1.815   6.617
  789TIP3    H2 2309   2.084   1.958   6.568
  790TIP3   OH2 2310   3.592   4.014   5.088
  790TIP3    H1 2311   3.675   3.988   5.127
  790TIP3    H2 2312   3.538   4.042   5.163
  791TIP3   OH2 2313   6.246   7.132   1.242
  791TIP3    H1 2314   6.211   7.064   1.299
  791TIP3    H2 2315   6.169   7.172   1.202
  792TIP3   OH2 2316   5.744   5.181   2.545
  792TIP3    H1 2317   5.765   5.202   2.454
  792TIP3    H2 2318   5.825   5.200   2.593
  793TIP3   OH2 2319   3.368   2.434   3.124
  793TIP3    H1 2320   3.290   2.431   3.068
  793TIP3    H2 2321   3.399   2.343   3.127
  794TIP3   OH2 2322   2.812   3.424   4.061
  794TIP3    H1 2323   2.851   3.344   4.096
  794TIP3    H2 2324   2.815   3.486   4.134
  795TIP3   OH2 2325   7.319   3.905   0.746
  795TIP3    H1 2326   7.406   3.897   0.785
  795TIP3    H2 2327   7.303   3.821   0.705
  796TIP3   OH2 2328   7.984   2.494   3.871
  796TIP3    H1 2329   8.005   2.587   3.857
  796TIP3    H2 2330   7.928   2.493   3.948
  797TIP3   OH2 2331   5.067   0.990   1.654
  797TIP3    H1 2332   5.072   0.998   1.558
  797TIP3    H2 2333   5.153   1.016   1.685
  798TIP3   OH2 2334   0.471   6.479   4.879
  798TIP3    H1 2335   0.381   6.455   4.900
  798TIP3    H2 2336   0.464   6.558   4.825
  799TIP3   OH2 2337   0.982   0.899   0.340
  799TIP3    H1 2338   0.992   0.837   0.268
  799TIP3    H2 2339   0.914   0.861   0.396
  800TIP3   OH2 2340   3.948   1.887   5.143
  800TIP3    H1 2341   3.874   1.834   5.112
  800TIP3    H2 2342   3.997   1.829   5.201
  801TIP3   OH2 2343   4.174   3.933   6.419
  801TIP3    H1 2344   4.244   3.952   6.481
  801TIP3    H2 2345   4.096   3.975   6.457
  802TIP3   OH2 2346   4.129   5.399   6.039
  802TIP3    H1 2347   4.153   5.336   5.971
  802TIP3    H2 2348   4.066   5.352   6.093
  803TIP3   OH2 2349   2.500   7.175   0.871
  803TIP3    H1 2350   2.421   7.141   0.914
  803TIP3    H2 2351   2.526   7.105   0.810
  804TIP3   OH2 2352   6.035   3.689   0.701
  804TIP3    H1 2353   5.955   3.673   0.652
  804TIP3    H2 2354   6.021   3.646   0.785
  805TIP3   OH2 2355   3.248   7.058   0.453
  805TIP3    H1 2356   3.341   7.051   0.433
  805TIP3    H2 2357   3.228   7.151   0.446
  806TIP3   OH2 2358   4.158   3.147   6.594
  806TIP3    H1 2359   4.234   3.163   6.538
  806TIP3    H2 2360   4.175   3.061   6.633
  807TIP3   OH2 2361   2.971   0.816   3.046
  807TIP3    H1 2362   2.880   0.799   3.022
  807TIP3    H2 2363   2.966   0.859   3.131
  808TIP3   OH2 2364   0.127   3.124   5.745
  808TIP3    H1 2365   0.143   3.156   5.656
  808TIP3    H2 2366   0.043   3.163   5.770
  809TIP3   OH2 2367   6.029   6.412   3.058
  809TIP3    H1 2368   6.013   6.335   3.003
  809TIP3    H2 2369   6.067   6.477   2.999
  810TIP3   OH2 2370   4.967   5.220   5.656
  810TIP3    H1 2371   4.965   5.135   5.701
  810TIP3    H2 2372   5.057   5.251   5.670
  811TIP3   OH2 2373   6.624   0.359   4.422
  811TIP3    H1 2374   6.669   0.318   4.348
  811TIP3    H2 2375   6.656   0.449   4.422
  812TIP3   OH2 2376   4.018   1.939   5.551
  812TIP3    H1 2377   3.938   1.887   5.558
  812TIP3    H2 2378   4.056   1.912   5.467
  813TIP3   OH2 2379   2.052   2.588   2.828
  813TIP3    H1 2380   2.105   2.603   2.750
  813TIP3    H2 2381   2.015   2.673   2.849
  814TIP3   OH2 2382   5.369   6.102   5.756
  814TIP3    H1 2383   5.314   6.054   5.816
  814TIP3    H2 2384   5.333   6.084   5.669
  815TIP3   OH2 2385   2.854   7.002   4.752
  815TIP3    H1 2386   2.938   7.013   4.707
  815TIP3    H2 2387   2.875   7.015   4.845
  816TIP3   OH2 2388   7.812   5.846   3.666
  816TIP3    H1 2389   7.886   5.787   3.685
  816TIP3    H2 2390   7.741   5.813   3.720
  817TIP3   OH2 2391   4.199   2.292   1.286
  817TIP3    H1 2392   4.253   2.310   1.363
  817TIP3    H2 2393   4.110   2.282   1.321
  818TIP3   OH2 2394   5.051   3.987   4.931
  818TIP3    H1 2395   5.084   3.903   4.964
  818TIP3    H2 2396   5.130   4.040   4.918
  819TIP3   OH2 2397   5.614   0.979   5.055
  819TIP3    H1 2398   5.589   1.015   5.140
  819TIP3    H2 2399   5.689   0.923   5.074
  820TIP3   OH2 2400   4.836   2.854   2.396
  820TIP3    H1 2401   4.789   2.802   2.462
  820TIP3    H2 2402   4.891   2.790   2.350
  821TIP3   OH2 2403   7.481   3.994   6.846
  821TIP3    H1 2404   7.573   3.980   6.868
  821TIP3    H2 2405   7.483   4.064   6.781
  822TIP3   OH2 2406   4.856   6.458   0.282
  822TIP3    H1 2407   4.777   6.496   0.244
  822TIP3    H2 2408   4.825   6.393   0.345
  823TIP3   OH2 2409   6.518   1.609   0.768
  823TIP3    H1 2410   6.482   1.540   0.712
  823TIP3    H2 2411   6.585   1.565   0.820
  824TIP3   OH2 2412   4.872   6.141   5.235
  824TIP3    H1 2413   4.872   6.169   5.143
  824TIP3    H2 2414   4.926   6.062   5.235
  825TIP3   OH2 2415   1.265   7.347   3.172
  825TIP3    H1 2416   1.326   7.315   3.239
  825TIP3    H2 2417   1.181   7.353   3.216
  826TIP3   OH2 2418   0.332   0.114   3.883
  826TIP3    H1 2419   0.359   0.198   3.918
  826TIP3    H2 2420   0.339   0.053   3.957
  827TIP3   OH2 2421   0.103   2.123   4.200
  827TIP3    H1 2422   0.107   2.184   4.126
  827TIP3    H2 2423   0.195   2.106   4.222
  828TIP3   OH2 2424   0.117   7.133   5.094
  828TIP3    H1 2425   0.094   7.041   5.087
  828TIP3    H2 2426   0.081   7.160   5.179
  829TIP3   OH2 2427   5.252   4.036   1.888
  829TIP3    H1 2428   5.277   4.122   1.854
  829TIP3    H2 2429   5.207   3.994   1.815
  830TIP3   OH2 2430   0.740   1.401   3.709
  830TIP3    H1 2431   0.798   1.330   3.736
  830TIP3    H2 2432   0.682   1.415   3.784
  831TIP3   OH2 2433   4.165   6.544   0.858
  831TIP3    H1 2434   4.234   6.535   0.792
  831TIP3    H2 2435   4.135   6.634   0.848
  832TIP3   OH2 2436   6.411   3.298   4.300
  832TIP3    H1 2437   6.488   3.354   4.292
  832TIP3    H2 2438   6.374   3.319   4.386
  833TIP3   OH2 2439   2.808   4.242   6.722
  833TIP3    H1 2440   2.831   4.206   6.636
  833TIP3    H2 2441   2.890   4.277   6.756
  834TIP3   OH2 2442   0.727   7.151   2.801
  834TIP3    H1 2443   0.719   7.232   2.750
  834TIP3    H2 2444   0.759   7.086   2.739
  835TIP3   OH2 2445   3.556   3.904   4.116
  835TIP3    H1 2446   3.583   3.984   4.069
  835TIP3    H2 2447   3.482   3.933   4.170
  836TIP3   OH2 2448   8.231   6.597   1.629
  836TIP3    H1 2449   8.199   6.684   1.654
  836TIP3    H2 2450   8.259   6.557   1.711
  837TIP3   OH2 2451   5.556   4.906   6.198
  837TIP3    H1 2452   5.633   4.931   6.249
  837TIP3    H2 2453   5.486   4.963   6.230
  838TIP3   OH2 2454   6.850   5.598   6.510
  838TIP3    H1 2455   6.830   5.512   6.473
  838TIP3    H2 2456   6.785   5.656   6.472
  839TIP3   OH2 2457   6.562   2.056   0.308
  839TIP3    H1 2458   6.547   1.961   0.313
  839TIP3    H2 2459   6.656   2.066   0.320
  840TIP3   OH2 2460   0.216   5.942   6.547
  840TIP3    H1 2461   0.157   5.980   6.612
  840TIP3    H2 2462   0.285   5.900   6.598
  841TIP3   OH2 2463   6.735   1.975   4.223
  841TIP3    H1 2464   6.805   1.999   4.283
  841TIP3    H2 2465   6.780   1.959   4.140
  842TIP3   OH2 2466   4.772   3.866   4.482
  842TIP3    H1 2467   4.803   3.776   4.479
  842TIP3    H2 2468   4.847   3.919   4.455
  843TIP3   OH2 2469   1.654   4.838   0.919
  843TIP3    H1 2470   1.680   4.927   0.895
  843TIP3    H2 2471   1.659   4.836   1.014
  844TIP3   OH2 2472   2.791   0.266   5.539
  844TIP3    H1 2473   2.860   0.205   5.565
  844TIP3    H2 2474   2.727   0.211   5.492
  845TIP3   OH2 2475   5.043   4.377   1.746
  845TIP3    H1 2476   5.110   4.445   1.737
  845TIP3    H2 2477   4.978   4.399   1.680
  846TIP3   OH2 2478   7.456   3.405   0.547
  846TIP3    H1 2479   7.469   3.311   0.557
  846TIP3    H2 2480   7.378   3.425   0.600
  847TIP3   OH2 2481   8.379   3.684   3.921
  847TIP3    H1 2482   8.452   3.629   3.947
  847TIP3    H2 2483   8.304   3.648   3.967
  848TIP3   OH2 2484   3.100   0.626   5.180
  848TIP3    H1 2485   3.008   0.643   5.162
  848TIP3    H2 2486   3.109   0.637   5.275
  849TIP3   OH2 2487   4.937   1.387   5.504
  849TIP3    H1 2488   4.940   1.318   5.570
  849TIP3    H2 2489   4.864   1.362   5.447
  850TIP3   OH2 2490   0.382   6.397   2.500
  850TIP3    H1 2491   0.397   6.488   2.475
  850TIP3    H2 2492   0.456   6.349   2.461
  851TIP3   OH2 2493   1.544   5.874   4.946
  851TIP3    H1 2494   1.506   5.787   4.929
  851TIP3    H2 2495   1.502   5.902   5.028
  852TIP3   OH2 2496   5.042   5.320   5.140
  852TIP3    H1 2497   4.977   5.341   5.073
  852TIP3    H2 2498   4.995   5.265   5.203
  853TIP3   OH2 2499   2.506   6.439   1.279
  853TIP3    H1 2500   2.552   6.362   1.313
  853TIP3    H2 2501   2.457   6.472   1.355
  854TIP3   OH2 2502   2.443   7.703   4.023
  854TIP3    H1 2503   2.532   7.670   4.036
  854TIP3    H2 2504   2.437   7.718   3.929
  855TIP3   OH2 2505   6.912   1.915   3.786
  855TIP3    H1 2506   6.879   1.975   3.720
  855TIP3    H2 2507   7.001   1.895   3.758
  856TIP3   OH2 2508   6.294   6.169   5.075
  856TIP3    H1 2509   6.343   6.243   5.111
  856TIP3    H2 2510   6.338   6.149   4.992
  857TIP3   OH2 2511   5.445   7.519   6.578
  857TIP3    H1 2512   5.445   7.576   6.655
  857TIP3    H2 2513   5.375   7.553   6.522
  858TIP3   OH2 2514   7.641   2.263   3.342
  858TIP3    H1 2515   7.725   2.307   3.328
  858TIP3    H2 2516   7.653   2.214   3.423
  859TIP3   OH2 2517   7.277   7.012   1.486
  859TIP3    H1 2518   7.211   6.943   1.494
  859TIP3    H2 2519   7.255   7.056   1.404
  860TIP3   OH2 2520   5.964   3.695   2.516
  860TIP3    H1 2521   5.985   3.721   2.426
  860TIP3    H2 2522   5.872   3.720   2.527
  861TIP3   OH2 2523   0.474   3.819   2.798
  861TIP3    H1 2524   0.393   3.770   2.809
  861TIP3    H2 2525   0.537   3.755   2.764
  862TIP3   OH2 2526   3.158   5.829   4.232
  862TIP3    H1 2527   3.218   5.756   4.214
  862TIP3    H2 2528   3.180   5.856   4.321
  863TIP3   OH2 2529   5.741   4.424   5.707
  863TIP3    H1 2530   5.819   4.396   5.755
  863TIP3    H2 2531   5.761   4.407   5.615
  864TIP3   OH2 2532   8.161   0.668   4.394
  864TIP3    H1 2533   8.222   0.596   4.408
  864TIP3    H2 2534   8.074   0.629   4.404
  865TIP3   OH2 2535   7.723   6.026   5.062
  865TIP3    H1 2536   7.714   6.000   5.154
  865TIP3    H2 2537   7.817   6.022   5.045
  866TIP3   OH2 2538   7.814   0.461   5.397
  866TIP3    H1 2539   7.797   0.554   5.380
  866TIP3    H2 2540   7.893   0.442   5.347
  867TIP3   OH2 2541   4.182   1.239   3.715
  867TIP3    H1 2542   4.158   1.184   3.789
  867TIP3    H2 2543   4.242   1.305   3.752
  868TIP3   OH2 2544   1.787   2.585   5.024
  868TIP3    H1 2545   1.797   2.665   5.075
  868TIP3    H2 2546   1.865   2.534   5.044
  869TIP3   OH2 2547   4.721   1.373   6.164
  869TIP3    H1 2548   4.750   1.464   6.178
  869TIP3    H2 2549   4.671   1.351   6.243
  870TIP3   OH2 2550   0.609   7.679   6.610
  870TIP3    H1 2551   0.614   7.773   6.592
  870TIP3    H2 2552   0.536   7.670   6.671
  871TIP3   OH2 2553   5.543   6.927   3.131
  871TIP3    H1 2554   5.633   6.905   3.153
  871TIP3    H2 2555   5.524   7.005   3.183
  872TIP3   OH2 2556   5.469   3.688   2.801
  872TIP3    H1 2557   5.505   3.776   2.803
  872TIP3    H2 2558   5.543   3.632   2.777
  873TIP3   OH2 2559   6.910   5.940   0.532
  873TIP3    H1 2560   6.889   5.937   0.439
  873TIP3    H2 2561   6.866   6.019   0.564
  874TIP3   OH2 2562   3.133   6.885   0.641
  874TIP3    H1 2563   3.183   6.937   0.578
  874TIP3    H2 2564   3.042   6.912   0.627
  875TIP3   OH2 2565   0.554   7.342   2.414
  875TIP3    H1 2566   0.631   7.287   2.424
  875TIP3    H2 2567   0.505   7.330   2.496
  876TIP3   OH2 2568   6.962   1.753   3.369
  876TIP3    H1 2569   6.993   1.763   3.460
  876TIP3    H2 2570   6.951   1.843   3.338
  877TIP3   OH2 2571   3.825   6.107   5.096
  877TIP3    H1 2572   3.759   6.046   5.130
  877TIP3    H2 2573   3.908   6.062   5.110
  878TIP3   OH2 2574   6.922   5.703   6.784
  878TIP3    H1 2575   6.830   5.729   6.792
  878TIP3    H2 2576   6.927   5.661   6.698
  879TIP3   OH2 2577   3.013   0.737   1.002
  879TIP3    H1 2578   3.101   0.713   0.972
  879TIP3    H2 2579   2.988   0.809   0.944
  880TIP3   OH2 2580   0.274   0.824   0.966
  880TIP3    H1 2581   0.208   0.814   1.034
  880TIP3    H2 2582   0.329   0.746   0.972
  881TIP3   OH2 2583   3.295   6.376   5.925
  881TIP3    H1 2584   3.248   6.301   5.962
  881TIP3    H2 2585   3.257   6.389   5.839
  882TIP3   OH2 2586   0.089   7.577   0.857
  882TIP3    H1 2587   0.015   7.517   0.855
  882TIP3    H2 2588   0.052   7.661   0.884
  883TIP3   OH2 2589   0.635   7.045   2.148
  883TIP3    H1 2590   0.619   6.985   2.075
  883TIP3    H2 2591   0.549   7.081   2.169
  884TIP3   OH2 2592   1.193   2.142   2.658
  884TIP3    H1 2593   1.181   2.187   2.742
  884TIP3    H2 2594   1.186   2.049   2.679
  885TIP3   OH2 2595   6.680   6.166   2.458
  885TIP3    H1 2596   6.673   6.159   2.553
  885TIP3    H2 2597   6.638   6.249   2.436
  886TIP3   OH2 2598   3.216   2.245   1.956
  886TIP3    H1 2599   3.197   2.151   1.966
  886TIP3    H2 2600   3.280   2.249   1.885
  887TIP3   OH2 2601   2.570   0.359   5.351
  887TIP3    H1 2602   2.592   0.405   5.270
  887TIP3    H2 2603   2.516   0.285   5.322
  888TIP3   OH2 2604   2.071   4.617   5.370
  888TIP3    H1 2605   2.148   4.664   5.401
  888TIP3    H2 2606   2.048   4.661   5.288
  889TIP3   OH2 2607   0.333   5.013   6.524
  889TIP3    H1 2608   0.396   4.943   6.537
  889TIP3    H2 2609   0.386   5.093   6.521
  890TIP3   OH2 2610   1.964   6.538   6.220
  890TIP3    H1 2611   2.006   6.499   6.296
  890TIP3    H2 2612   2.023   6.610   6.195
  891TIP3   OH2 2613   1.445   1.238   1.669
  891TIP3    H1 2614   1.495   1.296   1.613
  891TIP3    H2 2615   1.390   1.297   1.721
  892TIP3   OH2 2616   2.147   5.837   4.216
  892TIP3    H1 2617   2.155   5.754   4.262
  892TIP3    H2 2618   2.116   5.814   4.129
  893TIP3   OH2 2619   3.424   1.008   2.345
  893TIP3    H1 2620   3.503   1.006   2.399
  893TIP3    H2 2621   3.454   0.985   2.257
  894TIP3   OH2 2622   7.639   3.612   2.553
  894TIP3    H1 2623   7.653   3.568   2.637
  894TIP3    H2 2624   7.544   3.618   2.544
  895TIP3   OH2 2625   5.475   4.407   5.755
  895TIP3    H1 2626   5.569   4.399   5.767
  895TIP3    H2 2627   5.452   4.490   5.796
  896TIP3   OH2 2628   8.171   6.690   1.345
  896TIP3    H1 2629   8.127   6.609   1.322
  896TIP3    H2 2630   8.195   6.679   1.437
  897TIP3   OH2 2631   6.228   5.862   2.320
  897TIP3    H1 2632   6.229   5.769   2.297
  897TIP3    H2 2633   6.314   5.877   2.360
  898TIP3   OH2 2634   7.903   1.779   4.838
  898TIP3    H1 2635   7.891   1.735   4.753
  898TIP3    H2 2636   7.958   1.854   4.818
  899TIP3   OH2 2637   1.368   2.867   1.795
  899TIP3    H1 2638   1.291   2.812   1.784
  899TIP3    H2 2639   1.415   2.860   1.712
  900TIP3   OH2 2640   5.659   3.050   3.977
  900TIP3    H1 2641   5.616   3.052   3.891
  900TIP3    H2 2642   5.750   3.072   3.958
  901TIP3   OH2 2643   4.727   0.649   2.806
  901TIP3    H1 2644   4.676   0.602   2.741
  901TIP3    H2 2645   4.818   0.629   2.785
  902TIP3   OH2 2646   4.499   2.998   6.273
  902TIP3    H1 2647   4.512   2.912   6.314
  902TIP3    H2 2648   4.549   2.993   6.192
  903TIP3   OH2 2649   1.827   0.985   2.108
  903TIP3    H1 2650   1.912   1.012   2.143
  903TIP3    H2 2651   1.765   1.048   2.144
  904TIP3   OH2 2652   7.722   4.402   4.441
  904TIP3    H1 2653   7.784   4.471   4.462
  904TIP3    H2 2654   7.773   4.337   4.392
  905TIP3   OH2 2655   6.271   6.282   2.699
  905TIP3    H1 2656   6.328   6.293   2.775
  905TIP3    H2 2657   6.189   6.247   2.735
  906TIP3   OH2 2658   0.557   4.070   0.412
  906TIP3    H1 2659   0.547   4.144   0.352
  906TIP3    H2 2660   0.521   4.102   0.495
  907TIP3   OH2 2661   1.365   7.855   1.969
  907TIP3    H1 2662   1.365   7.794   2.043
  907TIP3    H2 2663   1.435   7.917   1.990
  908TIP3   OH2 2664   4.639   5.220   0.324
  908TIP3    H1 2665   4.545   5.207   0.312
  908TIP3    H2 2666   4.679   5.159   0.263
  909TIP3   OH2 2667   3.030   5.880   1.126
  909TIP3    H1 2668   2.991   5.798   1.096
  909TIP3    H2 2669   3.070   5.859   1.210
  910TIP3   OH2 2670   4.253   2.881   4.484
  910TIP3    H1 2671   4.341   2.919   4.490
  910TIP3    H2 2672   4.196   2.956   4.468
  911TIP3   OH2 2673   2.504   3.582   5.071
  911TIP3    H1 2674   2.585   3.632   5.059
  911TIP3    H2 2675   2.440   3.627   5.016
  912TIP3   OH2 2676   2.644   1.087   2.296
  912TIP3    H1 2677   2.724   1.138   2.286
  912TIP3    H2 2678   2.671   1.012   2.350
  913TIP3   OH2 2679   1.580   2.433   1.926
  913TIP3    H1 2680   1.638   2.509   1.936
  913TIP3    H2 2681   1.513   2.462   1.863
  914TIP3   OH2 2682   6.482   7.204   5.393
  914TIP3    H1 2683   6.422   7.217   5.319
  914TIP3    H2 2684   6.555   7.263   5.375
  915TIP3   OH2 2685   4.232   2.965   0.051
  915TIP3    H1 2686   4.258   2.887   0.003
  915TIP3    H2 2687   4.148   2.990   0.013
  916TIP3   OH2 2688   6.572   4.687   5.861
  916TIP3    H1 2689   6.589   4.674   5.954
  916TIP3    H2 2690   6.641   4.747   5.832
  917TIP3   OH2 2691   2.233   4.339   0.088
  917TIP3    H1 2692   2.152   4.294   0.113
  917TIP3    H2 2693   2.302   4.289   0.132
  918TIP3   OH2 2694   6.603   0.340   3.866
  918TIP3    H1 2695   6.683   0.364   3.819
  918TIP3    H2 2696   6.554   0.287   3.804
  919TIP3   OH2 2697   8.072   0.868   6.624
  919TIP3    H1 2698   8.032   0.783   6.604
  919TIP3    H2 2699   8.143   0.848   6.685
  920TIP3   OH2 2700   5.110   7.758   4.521
  920TIP3    H1 2701   5.083   7.834   4.470
  920TIP3    H2 2702   5.033   7.735   4.573
  921TIP3   OH2 2703   3.661   6.992   1.747
  921TIP3    H1 2704   3.567   7.008   1.737
  921TIP3    H2 2705   3.701   7.036   1.672
  922TIP3   OH2 2706   0.890   2.137   5.107
  922TIP3    H1 2707   0.977   2.176   5.101
  922TIP3    H2 2708   0.890   2.067   5.042
  923TIP3   OH2 2709   7.365   4.786   6.821
  923TIP3    H1 2710   7.273   4.809   6.807
  923TIP3    H2 2711   7.366   4.690   6.814
  924TIP3   OH2 2712   4.326   3.858   2.766
  924TIP3    H1 2713   4.246   3.833   2.720
  924TIP3    H2 2714   4.388   3.879   2.696
  925TIP3   OH2 2715   2.431   7.317   3.992
  925TIP3    H1 2716   2.395   7.293   3.907
  925TIP3    H2 2717   2.362   7.367   4.035
  926TIP3   OH2 2718   4.448   0.335   2.198
  926TIP3    H1 2719   4.453   0.258   2.255
  926TIP3    H2 2720   4.500   0.311   2.121
  927TIP3   OH2 2721   3.461   7.511   3.868
  927TIP3    H1 2722   3.411   7.493   3.788
  927TIP3    H2 2723   3.434   7.442   3.929
  928TIP3   OH2 2724   5.823   2.284   4.697
  928TIP3    H1 2725   5.861   2.370   4.679
  928TIP3    H2 2726   5.753   2.301   4.760
  929TIP3   OH2 2727   7.928   5.211   4.166
  929TIP3    H1 2728   7.927   5.224   4.261
  929TIP3    H2 2729   7.971   5.126   4.154
  930TIP3   OH2 2730   5.788   4.532   4.185
  930TIP3    H1 2731   5.713   4.493   4.140
  930TIP3    H2 2732   5.788   4.491   4.271
  931TIP3   OH2 2733   0.186   5.351   0.838
  931TIP3    H1 2734   0.276   5.381   0.841
  931TIP3    H2 2735   0.156   5.372   0.750
  932TIP3   OH2 2736   1.908   4.910   6.322
  932TIP3    H1 2737   1.824   4.937   6.358
  932TIP3    H2 2738   1.919   4.819   6.351
  933TIP3   OH2 2739   4.786   4.147   4.282
  933TIP3    H1 2740   4.714   4.092   4.251
  933TIP3    H2 2741   4.750   4.195   4.356
  934TIP3   OH2 2742   2.103   4.025   2.378
  934TIP3    H1 2743   2.059   4.061   2.300
  934TIP3    H2 2744   2.195   4.019   2.353
  935TIP3   OH2 2745   0.086   4.567   4.686
  935TIP3    H1 2746   0.117   4.512   4.758
  935TIP3    H2 2747   0.001   4.529   4.663
  936TIP3   OH2 2748   2.999   2.489   3.269
  936TIP3    H1 2749   2.940   2.425   3.229
  936TIP3    H2 2750   2.983   2.569   3.220
  937TIP3   OH2 2751   1.497   4.263   6.701
  937TIP3    H1 2752   1.486   4.267   6.606
  937TIP3    H2 2753   1.504   4.170   6.721
  938TIP3   OH2 2754   8.033   1.455   3.466
  938TIP3    H1 2755   8.049   1.449   3.560
  938TIP3    H2 2756   8.045   1.366   3.433
  939TIP3   OH2 2757   1.775   6.285   2.607
  939TIP3    H1 2758   1.722   6.349   2.559
  939TIP3    H2 2759   1.711   6.222   2.640
  940TIP3   OH2 2760   5.264   2.568   5.875
  940TIP3    H1 2761   5.282   2.491   5.928
  940TIP3    H2 2762   5.322   2.636   5.911
  941TIP3   OH2 2763   5.237   0.553   2.492
  941TIP3    H1 2764   5.165   0.585   2.439
  941TIP3    H2 2765   5.315   0.568   2.438
  942TIP3   OH2 2766   0.368   6.755   3.522
  942TIP3    H1 2767   0.275   6.734   3.524
  942TIP3    H2 2768   0.413   6.672   3.537
  943TIP3   OH2 2769   0.662   6.694   4.710
  943TIP3    H1 2770   0.624   6.721   4.794
  943TIP3    H2 2771   0.722   6.623   4.733
  944TIP3   OH2 2772   5.919   4.509   2.664
  944TIP3    H1 2773   5.958   4.437   2.713
  944TIP3    H2 2774   5.932   4.486   2.572
  945TIP3   OH2 2775   4.409   6.000   6.755
  945TIP3    H1 2776   4.347   5.927   6.765
  945TIP3    H2 2777   4.395   6.031   6.666
  946TIP3   OH2 2778   5.789   4.307   0.050
  946TIP3    H1 2779   5.694   4.301   0.056
  946TIP3    H2 2780   5.820   4.292   0.140
  947TIP3   OH2 2781   0.317   7.773   2.277
  947TIP3    H1 2782   0.377   7.702   2.256
  947TIP3    H2 2783   0.264   7.739   2.349
  948TIP3   OH2 2784   7.184   6.988   0.589
  948TIP3    H1 2785   7.251   6.920   0.597
  948TIP3    H2 2786   7.223   7.065   0.631
  949TIP3   OH2 2787   0.126   0.905   6.134
  949TIP3    H1 2788   0.091   0.945   6.214
  949TIP3    H2 2789   0.217   0.934   6.130
  950TIP3   OH2 2790   6.298   0.432   1.995
  950TIP3    H1 2791   6.209   0.398   1.987
  950TIP3    H2 2792   6.345   0.366   2.046
  951TIP3   OH2 2793   3.349   4.320   5.836
  951TIP3    H1 2794   3.332   4.363   5.920
  951TIP3    H2 2795   3.368   4.229   5.860
  952TIP3   OH2 2796   7.340   6.143   2.800
  952TIP3    H1 2797   7.329   6.048   2.802
  952TIP3    H2 2798   7.432   6.157   2.824
  953TIP3   OH2 2799   7.923   2.929   2.044
  953TIP3    H1 2800   7.846   2.947   2.098
  953TIP3    H2 2801   7.909   2.840   2.011
  954TIP3   OH2 2802   5.892   3.319   4.617
  954TIP3    H1 2803   5.979   3.294   4.585
  954TIP3    H2 2804   5.881   3.269   4.698
  955TIP3   OH2 2805   6.630   6.283   1.009
  955TIP3    H1 2806   6.583   6.210   0.968
  955TIP3    H2 2807   6.712   6.288   0.960
  956TIP3   OH2 2808   3.953   5.517   3.071
  956TIP3    H1 2809   3.863   5.521   3.038
  956TIP3    H2 2810   4.007   5.505   2.993
  957TIP3   OH2 2811   5.095   7.163   5.758
  957TIP3    H1 2812   5.151   7.110   5.701
  957TIP3    H2 2813   5.007   7.130   5.740
  958TIP3   OH2 2814   6.930   5.079   4.482
  958TIP3    H1 2815   6.889   5.054   4.399
  958TIP3    H2 2816   7.018   5.108   4.457
  959TIP3   OH2 2817   5.065   3.805   2.944
  959TIP3    H1 2818   5.069   3.722   2.991
  959TIP3    H2 2819   5.104   3.869   3.004
  960TIP3   OH2 2820   3.458   7.435   5.181
  960TIP3    H1 2821   3.476   7.341   5.175
  960TIP3    H2 2822   3.495   7.462   5.264
  961TIP3   OH2 2823   0.163   5.883   4.637
  961TIP3    H1 2824   0.103   5.926   4.576
  961TIP3    H2 2825   0.205   5.954   4.685
  962TIP3   OH2 2826   5.801   2.087   5.507
  962TIP3    H1 2827   5.749   2.071   5.587
  962TIP3    H2 2828   5.824   1.999   5.477
  963TIP3   OH2 2829   2.779   2.748   5.665
  963TIP3    H1 2830   2.862   2.703   5.650
  963TIP3    H2 2831   2.768   2.804   5.588
  964TIP3   OH2 2832   8.265   3.119   4.590
  964TIP3    H1 2833   8.208   3.104   4.666
  964TIP3    H2 2834   8.229   3.197   4.548
  965TIP3   OH2 2835   5.012   1.935   5.386
  965TIP3    H1 2836   5.031   1.925   5.479
  965TIP3    H2 2837   4.978   1.849   5.359
  966TIP3   OH2 2838   8.222   6.529   1.902
  966TIP3    H1 2839   8.239   6.450   1.954
  966TIP3    H2 2840   8.202   6.596   1.967
  967TIP3   OH2 2841   3.189   1.166   2.802
  967TIP3    H1 2842   3.192   1.261   2.790
  967TIP3    H2 2843   3.277   1.136   2.779
  968TIP3   OH2 2844   5.571   6.774   1.282
  968TIP3    H1 2845   5.622   6.855   1.287
  968TIP3    H2 2846   5.585   6.742   1.193
  969TIP3   OH2 2847   3.468   1.673   5.525
  969TIP3    H1 2848   3.458   1.646   5.433
  969TIP3    H2 2849   3.461   1.591   5.574
  970TIP3   OH2 2850   1.481   7.485   2.464
  970TIP3    H1 2851   1.517   7.535   2.391
  970TIP3    H2 2852   1.386   7.491   2.453
  971TIP3   OH2 2853   4.202   6.406   4.430
  971TIP3    H1 2854   4.271   6.457   4.472
  971TIP3    H2 2855   4.235   6.387   4.343
  972TIP3   OH2 2856   0.219   2.402   6.261
  972TIP3    H1 2857   0.214   2.486   6.214
  972TIP3    H2 2858   0.128   2.384   6.288
  973TIP3   OH2 2859   1.434   6.918   3.514
  973TIP3    H1 2860   1.441   6.993   3.455
  973TIP3    H2 2861   1.496   6.854   3.479
  974TIP3   OH2 2862   1.060   6.566   1.964
  974TIP3    H1 2863   1.133   6.623   1.988
  974TIP3    H2 2864   0.984   6.606   2.005
  975TIP3   OH2 2865   0.767   7.595   2.110
  975TIP3    H1 2866   0.813   7.513   2.125
  975TIP3    H2 2867   0.692   7.592   2.169
  976TIP3   OH2 2868   2.472   0.916   5.074
  976TIP3    H1 2869   2.466   0.994   5.019
  976TIP3    H2 2870   2.471   0.950   5.164
  977TIP3   OH2 2871   1.576   3.876   4.555
  977TIP3    H1 2872   1.570   3.853   4.648
  977TIP3    H2 2873   1.496   3.840   4.516
  978TIP3   OH2 2874   6.062   5.084   0.594
  978TIP3    H1 2875   6.030   5.002   0.631
  978TIP3    H2 2876   6.135   5.058   0.537
  979TIP3   OH2 2877   4.855   1.714   5.728
  979TIP3    H1 2878   4.851   1.675   5.816
  979TIP3    H2 2879   4.765   1.714   5.698
  980TIP3   OH2 2880   0.168   6.719   1.612
  980TIP3    H1 2881   0.230   6.787   1.639
  980TIP3    H2 2882   0.166   6.726   1.516
  981TIP3   OH2 2883   3.794   2.792   0.235
  981TIP3    H1 2884   3.727   2.835   0.181
  981TIP3    H2 2885   3.869   2.783   0.176
  982TIP3   OH2 2886   0.480   3.308   4.255
  982TIP3    H1 2887   0.497   3.398   4.281
  982TIP3    H2 2888   0.422   3.274   4.324
  983TIP3   OH2 2889   3.882   2.777   3.988
  983TIP3    H1 2890   3.943   2.719   4.034
  983TIP3    H2 2891   3.797   2.759   4.026
  984TIP3   OH2 2892   6.402   2.730   5.933
  984TIP3    H1 2893   6.467   2.798   5.950
  984TIP3    H2 2894   6.418   2.704   5.842
  985TIP3   OH2 2895   2.233   0.167   3.098
  985TIP3    H1 2896   2.244   0.254   3.138
  985TIP3    H2 2897   2.165   0.179   3.032
  986TIP3   OH2 2898   6.636   3.444   4.225
  986TIP3    H1 2899   6.684   3.387   4.165
  986TIP3    H2 2900   6.674   3.425   4.311
  987TIP3   OH2 2901   8.302   5.013   5.486
  987TIP3    H1 2902   8.337   4.961   5.557
  987TIP3    H2 2903   8.358   5.091   5.483
  988TIP3   OH2 2904   3.228   2.523   0.630
  988TIP3    H1 2905   3.177   2.442   0.624
  988TIP3    H2 2906   3.318   2.495   0.617
  989TIP3   OH2 2907   4.777   3.511   2.457
  989TIP3    H1 2908   4.821   3.503   2.542
  989TIP3    H2 2909   4.684   3.502   2.477
  990TIP3   OH2 2910   3.811   2.559   5.486
  990TIP3    H1 2911   3.864   2.629   5.449
  990TIP3    H2 2912   3.742   2.544   5.421
  991TIP3   OH2 2913   7.240   1.881   5.308
  991TIP3    H1 2914   7.247   1.876   5.403
  991TIP3    H2 2915   7.330   1.877   5.276
  992TIP3   OH2 2916   6.702   3.063   1.875
  992TIP3    H1 2917   6.670   2.973   1.880
  992TIP3    H2 2918   6.768   3.070   1.944
  993TIP3   OH2 2919   5.061   3.587   5.301
  993TIP3    H1 2920   4.966   3.582   5.304
  993TIP3    H2 2921   5.091   3.514   5.356
  994TIP3   OH2 2922   5.224   0.182   0.470
  994TIP3    H1 2923   5.313   0.184   0.506
  994TIP3    H2 2924   5.198   0.273   0.465
  995TIP3   OH2 2925   3.235   5.875   2.963
  995TIP3    H1 2926   3.315   5.925   2.981
  995TIP3    H2 2927   3.178   5.936   2.916
  996TIP3   OH2 2928   0.424   0.171   3.581
  996TIP3    H1 2929   0.515   0.145   3.595
  996TIP3    H2 2930   0.425   0.267   3.591
  997TIP3   OH2 2931   4.964   6.895   4.788
  997TIP3    H1 2932   5.005   6.813   4.813
  997TIP3    H2 2933   4.953   6.889   4.693
  998TIP3   OH2 2934   7.212   4.100   1.937
  998TIP3    H1 2935   7.153   4.159   1.890
  998TIP3    H2 2936   7.167   4.016   1.936
  999TIP3   OH2 2937   7.595   6.833   3.679
  999TIP3    H1 2938   7.574   6.754   3.628
  999TIP3    H2 2939   7.674   6.868   3.638
 1000TIP3   OH2 2940   8.200   5.785   5.882
 1000TIP3    H1 2941   8.114   5.801   5.921
 1000TIP3    H2 2942   8.184   5.785   5.788
 1001TIP3   OH2 2943   1.325   1.557   3.517
 1001TIP3    H1 2944   1.320   1.555   3.613
 1001TIP3    H2 2945   1.234   1.558   3.488
 1002TIP3   OH2 2946   5.550   2.085   5.282
 1002TIP3    H1 2947   5.596   2.159   5.322
 1002TIP3    H2 2948   5.466   2.121   5.255
 1003TIP3   OH2 2949   5.080   7.495   6.659
 1003TIP3    H1 2950   5.133   7.416   6.672
 1003TIP3    H2 2951   5.144   7.566   6.661
 1004TIP3   OH2 2952   6.428   3.021   4.248
 1004TIP3    H1 2953   6.487   2.990   4.316
 1004TIP3    H2 2954   6.431   3.117   4.254
 1005TIP3   OH2 2955   1.218   5.269   4.901
 1005TIP3    H1 2956   1.202   5.175   4.901
 1005TIP3    H2 2957   1.163   5.302   4.972
 1006TIP3   OH2 2958   0.721   5.624   0.257
 1006TIP3    H1 2959   0.803   5.661   0.225
 1006TIP3    H2 2960   0.669   5.700   0.285
 1007TIP3   OH2 2961   4.418   6.194   0.272
 1007TIP3    H1 2962   4.353   6.170   0.205
 1007TIP3    H2 2963   4.499   6.151   0.243
 1008TIP3   OH2 2964   7.290   3.716   1.213
 1008TIP3    H1 2965   7.255   3.801   1.184
 1008TIP3    H2 2966   7.382   3.735   1.235
 1009TIP3   OH2 2967   5.345   6.536   6.759
 1009TIP3    H1 2968   5.390   6.576   6.684
 1009TIP3    H2 2969   5.301   6.460   6.722
 1010TIP3   OH2 2970   3.664   3.876   0.313
 1010TIP3    H1 2971   3.628   3.793   0.280
 1010TIP3    H2 2972   3.601   3.942   0.284
 1011TIP3   OH2 2973   4.314   4.578   3.014
 1011TIP3    H1 2974   4.239   4.521   2.997
 1011TIP3    H2 2975   4.341   4.556   3.103
 1012TIP3   OH2 2976   1.020   0.168   4.713
 1012TIP3    H1 2977   0.935   0.123   4.714
 1012TIP3    H2 2978   1.031   0.197   4.623
 1013TIP3   OH2 2979   7.494   4.298   4.707
 1013TIP3    H1 2980   7.460   4.342   4.630
 1013TIP3    H2 2981   7.449   4.213   4.709
 1014TIP3   OH2 2982   5.348   0.531   5.920
 1014TIP3    H1 2983   5.329   0.466   5.988
 1014TIP3    H2 2984   5.354   0.614   5.967
 1015TIP3   OH2 2985   2.528   4.606   6.536
 1015TIP3    H1 2986   2.583   4.632   6.462
 1015TIP3    H2 2987   2.458   4.672   6.538
 1016TIP3   OH2 2988   0.601   3.576   0.616
 1016TIP3    H1 2989   0.526   3.551   0.670
 1016TIP3    H2 2990   0.656   3.629   0.674
 1017TIP3   OH2 2991   5.318   1.034   5.414
 1017TIP3    H1 2992   5.315   1.095   5.340
 1017TIP3    H2 2993   5.226   1.018   5.435
 1018TIP3   OH2 2994   3.962   3.084   5.663
 1018TIP3    H1 2995   3.953   3.135   5.743
 1018TIP3    H2 2996   4.013   3.140   5.604
 1019TIP3   OH2 2997   8.132   3.984   3.109
 1019TIP3    H1 2998   8.058   3.961   3.053
 1019TIP3    H2 2999   8.169   3.899   3.135
 1020TIP3   OH2 3000   7.675   7.620   3.412
 1020TIP3    H1 3001   7.670   7.710   3.443
 1020TIP3    H2 3002   7.743   7.621   3.345
 1021TIP3   OH2 3003   4.669   5.687   5.541
 1021TIP3    H1 3004   4.616   5.755   5.582
 1021TIP3    H2 3005   4.756   5.699   5.578
 1022TIP3   OH2 3006   4.947   3.304   0.220
 1022TIP3    H1 3007   4.945   3.291   0.315
 1022TIP3    H2 3008   5.027   3.259   0.192
 1023TIP3   OH2 3009   3.293   5.911   4.496
 1023TIP3    H1 3010   3.299   5.918   4.591
 1023TIP3    H2 3011   3.313   5.999   4.464
 1024TIP3   OH2 3012   5.970   2.312   4.387
 1024TIP3    H1 3013   6.050   2.262   4.375
 1024TIP3    H2 3014   5.999   2.403   4.389
 1025TIP3   OH2 3015   6.795   4.058   2.843
 1025TIP3    H1 3016   6.877   4.054   2.793
 1025TIP3    H2 3017   6.819   4.100   2.926
 1026TIP3   OH2 3018   7.480   2.582   1.635
 1026TIP3    H1 3019   7.532   2.604   1.712
 1026TIP3    H2 3020   7.479   2.663   1.583
 1027TIP3   OH2 3021   7.950   3.415   2.732
 1027TIP3    H1 3022   7.976   3.356   2.660
 1027TIP3    H2 3023   7.881   3.367   2.778
 1028TIP3   OH2 3024   4.669   4.761   0.205
 1028TIP3    H1 3025   4.714   4.777   0.123
 1028TIP3    H2 3026   4.610   4.836   0.216
 1029TIP3   OH2 3027   7.857   0.755   0.998
 1029TIP3    H1 3028   7.938   0.751   0.947
 1029TIP3    H2 3029   7.834   0.664   1.015
 1030TIP3   OH2 3030   0.188   5.357   3.611
 1030TIP3    H1 3031   0.147   5.305   3.679
 1030TIP3    H2 3032   0.156   5.446   3.624
 1031TIP3   OH2 3033   6.537   4.268   3.048
 1031TIP3    H1 3034   6.495   4.344   3.007
 1031TIP3    H2 3035   6.627   4.271   3.018
 1032TIP3   OH2 3036   2.598   2.637   5.830
 1032TIP3    H1 3037   2.647   2.578   5.888
 1032TIP3    H2 3038   2.666   2.681   5.779
 1033TIP3   OH2 3039   4.978   6.785   6.040
 1033TIP3    H1 3040   4.907   6.824   5.989
 1033TIP3    H2 3041   5.055   6.793   5.984
 1034TIP3   OH2 3042   7.391   3.635   2.240
 1034TIP3    H1 3043   7.450   3.705   2.213
 1034TIP3    H2 3044   7.410   3.622   2.333
 1035TIP3   OH2 3045   0.743   2.940   0.987
 1035TIP3    H1 3046   0.733   2.853   0.947
 1035TIP3    H2 3047   0.781   2.922   1.073
 1036TIP3   OH2 3048   6.727   0.457   5.893
 1036TIP3    H1 3049   6.748   0.391   5.959
 1036TIP3    H2 3050   6.738   0.412   5.810
 1037TIP3   OH2 3051   2.924   3.188   3.018
 1037TIP3    H1 3052   2.948   3.253   3.085
 1037TIP3    H2 3053   2.838   3.155   3.047
 1038TIP3   OH2 3054   3.993   0.116   1.179
 1038TIP3    H1 3055   4.016   0.083   1.092
 1038TIP3    H2 3056   3.909   0.159   1.167
 1039TIP3   OH2 3057   2.115   5.874   1.889
 1039TIP3    H1 3058   2.196   5.824   1.896
 1039TIP3    H2 3059   2.138   5.961   1.923
 1040TIP3   OH2 3060   3.560   1.637   1.341
 1040TIP3    H1 3061   3.596   1.599   1.261
 1040TIP3    H2 3062   3.636   1.652   1.398
 1041TIP3   OH2 3063   4.770   7.560   4.337
 1041TIP3    H1 3064   4.742   7.636   4.387
 1041TIP3    H2 3065   4.690   7.523   4.301
 1042TIP3   OH2 3066   5.371   3.436   5.630
 1042TIP3    H1 3067   5.427   3.368   5.594
 1042TIP3    H2 3068   5.394   3.440   5.722
 1043TIP3   OH2 3069   0.418   3.514   5.773
 1043TIP3    H1 3070   0.457   3.601   5.778
 1043TIP3    H2 3071   0.478   3.457   5.820
 1044TIP3   OH2 3072   0.043   2.087   2.577
 1044TIP3    H1 3073   0.032   1.995   2.554
 1044TIP3    H2 3074   0.123   2.090   2.630
 1045TIP3   OH2 3075   3.436   1.473   1.527
 1045TIP3    H1 3076   3.450   1.527   1.605
 1045TIP3    H2 3077   3.476   1.523   1.456
 1046TIP3   OH2 3078   1.548   5.487   2.985
 1046TIP3    H1 3079   1.562   5.448   2.899
 1046TIP3    H2 3080   1.453   5.496   2.992
 1047TIP3   OH2 3081   0.510   1.005   2.507
 1047TIP3    H1 3082   0.531   0.931   2.565
 1047TIP3    H2 3083   0.555   1.080   2.546
 1048TIP3   OH2 3084   0.989   7.460   3.012
 1048TIP3    H1 3085   0.948   7.385   3.055
 1048TIP3    H2 3086   0.924   7.530   3.019
 1049TIP3   OH2 3087   4.418   5.169   1.427
 1049TIP3    H1 3088   4.506   5.202   1.443
 1049TIP3    H2 3089   4.369   5.244   1.395
 1050TIP3   OH2 3090   2.208   0.513   1.698
 1050TIP3    H1 3091   2.133   0.526   1.756
 1050TIP3    H2 3092   2.169   0.478   1.617
 1051TIP3   OH2 3093   3.241   1.340   6.696
 1051TIP3    H1 3094   3.297   1.339   6.773
 1051TIP3    H2 3095   3.233   1.432   6.672
 1052TIP3   OH2 3096   1.071   3.094   2.442
 1052TIP3    H1 3097   1.136   3.034   2.405
 1052TIP3    H2 3098   0.987   3.060   2.411
 1053TIP3   OH2 3099   5.132   4.947   1.108
 1053TIP3    H1 3100   5.123   4.971   1.016
 1053TIP3    H2 3101   5.042   4.932   1.138
 1054TIP3   OH2 3102   5.808   1.987   0.717
 1054TIP3    H1 3103   5.791   2.004   0.624
 1054TIP3    H2 3104   5.898   1.955   0.719
 1055TIP3   OH2 3105   8.226   0.441   0.618
 1055TIP3    H1 3106   8.144   0.392   0.610
 1055TIP3    H2 3107   8.238   0.481   0.532
 1056TIP3   OH2 3108   7.644   5.905   2.743
 1056TIP3    H1 3109   7.557   5.873   2.719
 1056TIP3    H2 3110   7.664   5.862   2.825
 1057TIP3   OH2 3111   7.328   2.180   3.454
 1057TIP3    H1 3112   7.273   2.258   3.449
 1057TIP3    H2 3113   7.408   2.203   3.407
 1058TIP3   OH2 3114   4.681   2.050   0.744
 1058TIP3    H1 3115   4.663   1.973   0.690
 1058TIP3    H2 3116   4.618   2.116   0.714
 1059TIP3   OH2 3117   5.543   2.098   4.988
 1059TIP3    H1 3118   5.572   2.089   5.078
 1059TIP3    H2 3119   5.465   2.042   4.981
 1060TIP3   OH2 3120   4.920   0.031   6.702
 1060TIP3    H1 3121   4.949   0.089   6.631
 1060TIP3    H2 3122   5.001   0.002   6.744
 1061TIP3   OH2 3123   0.826   5.015   3.861
 1061TIP3    H1 3124   0.731   5.013   3.847
 1061TIP3    H2 3125   0.845   5.107   3.881
 1062TIP3   OH2 3126   4.708   1.173   5.983
 1062TIP3    H1 3127   4.724   1.261   6.017
 1062TIP3    H2 3128   4.763   1.166   5.906
 1063TIP3   OH2 3129   3.881   6.055   5.604
 1063TIP3    H1 3130   3.845   6.140   5.629
 1063TIP3    H2 3131   3.805   6.001   5.585
 1064TIP3   OH2 3132   5.698   7.455   4.414
 1064TIP3    H1 3133   5.683   7.397   4.339
 1064TIP3    H2 3134   5.770   7.415   4.462
 1065TIP3   OH2 3135   6.097   4.263   6.582
 1065TIP3    H1 3136   6.169   4.322   6.557
 1065TIP3    H2 3137   6.021   4.321   6.590
 1066TIP3   OH2 3138   3.199   4.834   4.204
 1066TIP3    H1 3139   3.284   4.816   4.166
 1066TIP3    H2 3140   3.153   4.751   4.201
 1067TIP3   OH2 3141   0.980   6.692   6.467
 1067TIP3    H1 3142   1.020   6.725   6.386
 1067TIP3    H2 3143   0.985   6.766   6.528
 1068TIP3   OH2 3144   1.845   4.036   6.159
 1068TIP3    H1 3145   1.754   4.017   6.184
 1068TIP3    H2 3146   1.839   4.117   6.110
 1069TIP3   OH2 3147   2.699   7.739   5.148
 1069TIP3    H1 3148   2.667   7.652   5.173
 1069TIP3    H2 3149   2.753   7.723   5.071
 1070TIP3   OH2 3150   3.107   5.145   2.018
 1070TIP3    H1 3151   3.171   5.178   1.955
 1070TIP3    H2 3152   3.037   5.210   2.017
 1071TIP3   OH2 3153   0.572   4.837   3.246
 1071TIP3    H1 3154   0.662   4.809   3.231
 1071TIP3    H2 3155   0.548   4.886   3.167
 1072TIP3   OH2 3156   2.834   3.850   4.339
 1072TIP3    H1 3157   2.832   3.759   4.371
 1072TIP3    H2 3158   2.810   3.844   4.247
 1073TIP3   OH2 3159   1.698   3.220   4.897
 1073TIP3    H1 3160   1.629   3.194   4.957
 1073TIP3    H2 3161   1.652   3.263   4.825
 1074TIP3   OH2 3162   5.314   4.786   3.128
 1074TIP3    H1 3163   5.317   4.856   3.193
 1074TIP3    H2 3164   5.317   4.705   3.180
 1075TIP3   OH2 3165   0.988   4.775   4.722
 1075TIP3    H1 3166   1.055   4.772   4.790
 1075TIP3    H2 3167   0.907   4.796   4.769
 1076TIP3   OH2 3168   6.884   6.003   2.386
 1076TIP3    H1 3169   6.820   6.071   2.407
 1076TIP3    H2 3170   6.964   6.051   2.366
 1077TIP3   OH2 3171   0.992   5.666   1.584
 1077TIP3    H1 3172   0.962   5.678   1.674
 1077TIP3    H2 3173   0.915   5.636   1.536
 1078TIP3   OH2 3174   1.643   0.388   6.766
 1078TIP3    H1 3175   1.637   0.293   6.766
 1078TIP3    H2 3176   1.584   0.416   6.836
 1079TIP3   OH2 3177   7.513   4.477   0.202
 1079TIP3    H1 3178   7.573   4.406   0.221
 1079TIP3    H2 3179   7.568   4.556   0.202
 1080TIP3   OH2 3180   1.259   5.448   6.427
 1080TIP3    H1 3181   1.348   5.443   6.391
 1080TIP3    H2 3182   1.203   5.412   6.359
 1081TIP3   OH2 3183   8.315   0.296   2.133
 1081TIP3    H1 3184   8.398   0.312   2.177
 1081TIP3    H2 3185   8.253   0.278   2.203
 1082TIP3   OH2 3186   0.955   4.692   5.563
 1082TIP3    H1 3187   0.929   4.639   5.638
 1082TIP3    H2 3188   0.891   4.763   5.561
 1083TIP3   OH2 3189   7.545   3.920   3.325
 1083TIP3    H1 3190   7.533   3.975   3.403
 1083TIP3    H2 3191   7.533   3.831   3.357
 1084TIP3   OH2 3192   3.900   7.868   2.038
 1084TIP3    H1 3193   3.963   7.841   1.971
 1084TIP3    H2 3194   3.910   7.963   2.043
 1085TIP3   OH2 3195   1.330   7.029   6.305
 1085TIP3    H1 3196   1.237   7.010   6.302
 1085TIP3    H2 3197   1.336   7.123   6.317
 1086TIP3   OH2 3198   4.901   3.107   4.702
 1086TIP3    H1 3199   4.964   3.045   4.665
 1086TIP3    H2 3200   4.866   3.154   4.627
 1087TIP3   OH2 3201   3.169   5.249   6.396
 1087TIP3    H1 3202   3.184   5.287   6.483
 1087TIP3    H2 3203   3.089   5.198   6.406
 1088TIP3   OH2 3204   6.849   1.946   0.010
 1088TIP3    H1 3205   6.941   1.920   0.005
 1088TIP3    H2 3206   6.851   2.041   0.001
 1089TIP3   OH2 3207   5.098   4.521   4.451
 1089TIP3    H1 3208   5.015   4.507   4.497
 1089TIP3    H2 3209   5.157   4.455   4.487
 1090TIP3   OH2 3210   3.539   4.939   4.401
 1090TIP3    H1 3211   3.498   4.900   4.324
 1090TIP3    H2 3212   3.628   4.902   4.402
 1091TIP3   OH2 3213   7.305   6.186   5.661
 1091TIP3    H1 3214   7.304   6.092   5.642
 1091TIP3    H2 3215   7.213   6.208   5.677
 1092TIP3   OH2 3216   4.267   6.978   6.237
 1092TIP3    H1 3217   4.214   6.928   6.175
 1092TIP3    H2 3218   4.231   6.957   6.322
 1093TIP3   OH2 3219   0.901   0.787   5.515
 1093TIP3    H1 3220   0.942   0.823   5.593
 1093TIP3    H2 3221   0.863   0.863   5.470
 1094TIP3   OH2 3222   2.453   1.029   5.319
 1094TIP3    H1 3223   2.432   1.121   5.335
 1094TIP3    H2 3224   2.524   1.009   5.379
 1095TIP3   OH2 3225   2.646   1.740   4.737
 1095TIP3    H1 3226   2.606   1.734   4.824
 1095TIP3    H2 3227   2.692   1.824   4.738
 1096TIP3   OH2 3228   1.505   2.266   5.733
 1096TIP3    H1 3229   1.458   2.269   5.649
 1096TIP3    H2 3230   1.456   2.326   5.789
 1097TIP3   OH2 3231   4.934   7.116   5.190
 1097TIP3    H1 3232   4.881   7.196   5.194
 1097TIP3    H2 3233   4.953   7.104   5.097
 1098TIP3   OH2 3234   1.469   0.025   4.525
 1098TIP3    H1 3235   1.402  -0.002   4.588
 1098TIP3    H2 3236   1.420   0.072   4.457
 1099TIP3   OH2 3237   0.562   0.321   1.934
 1099TIP3    H1 3238   0.573   0.253   1.867
 1099TIP3    H2 3239   0.578   0.403   1.887
 1100TIP3   OH2 3240   7.184   0.446   2.559
 1100TIP3    H1 3241   7.233   0.372   2.596
 1100TIP3    H2 3242   7.244   0.520   2.566
 1101TIP3   OH2 3243   5.239   5.986   0.878
 1101TIP3    H1 3244   5.236   6.039   0.958
 1101TIP3    H2 3245   5.311   5.925   0.892
 1102TIP3   OH2 3246   0.935   4.822   3.586
 1102TIP3    H1 3247   0.917   4.909   3.550
 1102TIP3    H2 3248   0.872   4.812   3.658
 1103TIP3   OH2 3249   4.646   6.627   0.079
 1103TIP3    H1 3250   4.680   6.585   0.000
 1103TIP3    H2 3251   4.693   6.711   0.083
 1104TIP3   OH2 3252   2.373   3.116   2.609
 1104TIP3    H1 3253   2.422   3.183   2.657
 1104TIP3    H2 3254   2.403   3.126   2.518
 1105TIP3   OH2 3255   3.128   1.410   3.914
 1105TIP3    H1 3256   3.206   1.426   3.861
 1105TIP3    H2 3257   3.056   1.414   3.852
 1106TIP3   OH2 3258   0.824   2.322   3.130
 1106TIP3    H1 3259   0.801   2.338   3.222
 1106TIP3    H2 3260   0.825   2.409   3.090
 1107TIP3   OH2 3261   2.375   7.244   1.898
 1107TIP3    H1 3262   2.393   7.272   1.808
 1107TIP3    H2 3263   2.401   7.319   1.952
 1108TIP3   OH2 3264   2.033   5.043   6.114
 1108TIP3    H1 3265   1.984   4.988   6.176
 1108TIP3    H2 3266   1.995   5.021   6.029
 1109TIP3   OH2 3267   3.004   1.646   1.326
 1109TIP3    H1 3268   2.975   1.702   1.398
 1109TIP3    H2 3269   3.079   1.598   1.361
 1110TIP3   OH2 3270   1.307   0.803   3.835
 1110TIP3    H1 3271   1.235   0.743   3.857
 1110TIP3    H2 3272   1.386   0.755   3.859
 1111TIP3   OH2 3273   4.861   3.442   1.513
 1111TIP3    H1 3274   4.813   3.429   1.595
 1111TIP3    H2 3275   4.851   3.535   1.494
 1112TIP3   OH2 3276   3.235   3.971   0.492
 1112TIP3    H1 3277   3.312   3.917   0.477
 1112TIP3    H2 3278   3.162   3.909   0.494
 1113TIP3   OH2 3279   2.254   3.379   4.389
 1113TIP3    H1 3280   2.286   3.295   4.420
 1113TIP3    H2 3281   2.296   3.443   4.446
 1114TIP3   OH2 3282   0.390   1.940   0.038
 1114TIP3    H1 3283   0.430   1.947  -0.049
 1114TIP3    H2 3284   0.443   1.875   0.084
 1115TIP3   OH2 3285   6.186   3.273   3.637
 1115TIP3    H1 3286   6.141   3.313   3.562
 1115TIP3    H2 3287   6.258   3.333   3.656
 1116TIP3   OH2 3288   7.751   7.161   1.442
 1116TIP3    H1 3289   7.710   7.086   1.399
 1116TIP3    H2 3290   7.685   7.230   1.437
 1117TIP3   OH2 3291   2.652   4.289   2.686
 1117TIP3    H1 3292   2.713   4.279   2.759
 1117TIP3    H2 3293   2.683   4.367   2.640
 1118TIP3   OH2 3294   6.305   4.688   0.063
 1118TIP3    H1 3295   6.331   4.780   0.069
 1118TIP3    H2 3296   6.285   4.664   0.154
 1119TIP3   OH2 3297   2.429   2.895   4.894
 1119TIP3    H1 3298   2.456   2.805   4.906
 1119TIP3    H2 3299   2.339   2.898   4.928
 1120TIP3   OH2 3300   3.474   0.432   5.000
 1120TIP3    H1 3301   3.403   0.497   5.005
 1120TIP3    H2 3302   3.456   0.384   4.919
 1121TIP3   OH2 3303   0.866   0.780   0.585
 1121TIP3    H1 3304   0.787   0.734   0.556
 1121TIP3    H2 3305   0.833   0.863   0.620
 1122TIP3   OH2 3306   6.621   1.315   0.990
 1122TIP3    H1 3307   6.613   1.265   0.909
 1122TIP3    H2 3308   6.684   1.383   0.970
 1123TIP3   OH2 3309   5.246   0.014   2.207
 1123TIP3    H1 3310   5.190   0.091   2.193
 1123TIP3    H2 3311   5.312   0.019   2.139
 1124TIP3   OH2 3312   0.196   6.721   6.196
 1124TIP3    H1 3313   0.107   6.755   6.206
 1124TIP3    H2 3314   0.201   6.648   6.258
 1125TIP3   OH2 3315   3.017   0.834   2.778
 1125TIP3    H1 3316   2.985   0.920   2.752
 1125TIP3    H2 3317   3.007   0.833   2.873
 1126TIP3   OH2 3318   2.499   1.772   3.998
 1126TIP3    H1 3319   2.527   1.736   3.914
 1126TIP3    H2 3320   2.548   1.722   4.063
 1127TIP3   OH2 3321   4.836   4.461   5.323
 1127TIP3    H1 3322   4.757   4.478   5.375
 1127TIP3    H2 3323   4.846   4.366   5.326
 1128TIP3   OH2 3324   5.932   4.397   1.776
 1128TIP3    H1 3325   5.899   4.455   1.707
 1128TIP3    H2 3326   5.855   4.376   1.829
 1129TIP3   OH2 3327   7.842   4.134   6.613
 1129TIP3    H1 3328   7.902   4.119   6.685
 1129TIP3    H2 3329   7.792   4.053   6.605
 1130TIP3   OH2 3330   3.159   1.394   6.164
 1130TIP3    H1 3331   3.078   1.445   6.153
 1130TIP3    H2 3332   3.223   1.440   6.110
 1131TIP3   OH2 3333   8.085   4.985   4.993
 1131TIP3    H1 3334   8.023   4.919   5.025
 1131TIP3    H2 3335   8.153   4.988   5.061
 1132TIP3   OH2 3336   2.703   1.552   2.694
 1132TIP3    H1 3337   2.743   1.599   2.767
 1132TIP3    H2 3338   2.611   1.576   2.697
 1133TIP3   OH2 3339   8.228   6.002   0.295
 1133TIP3    H1 3340   8.228   5.999   0.391
 1133TIP3    H2 3341   8.268   6.086   0.274
 1134TIP3   OH2 3342   6.555   3.170   3.792
 1134TIP3    H1 3343   6.518   3.253   3.821
 1134TIP3    H2 3344   6.525   3.106   3.856
 1135TIP3   OH2 3345   3.942   0.415   5.899
 1135TIP3    H1 3346   3.916   0.433   5.990
 1135TIP3    H2 3347   3.929   0.321   5.888
 1136TIP3   OH2 3348   5.883   7.242   1.615
 1136TIP3    H1 3349   5.962   7.200   1.582
 1136TIP3    H2 3350   5.900   7.257   1.708
 1137TIP3   OH2 3351   7.856   0.415   0.223
 1137TIP3    H1 3352   7.918   0.352   0.258
 1137TIP3    H2 3353   7.770   0.384   0.252
 1138TIP3   OH2 3354   4.722   1.208   5.443
 1138TIP3    H1 3355   4.739   1.115   5.461
 1138TIP3    H2 3356   4.628   1.213   5.427
 1139TIP3   OH2 3357   7.728   5.073   0.490
 1139TIP3    H1 3358   7.639   5.110   0.495
 1139TIP3    H2 3359   7.738   5.049   0.398
 1140TIP3   OH2 3360   6.468   3.158   5.640
 1140TIP3    H1 3361   6.466   3.227   5.573
 1140TIP3    H2 3362   6.559   3.129   5.641
 1141TIP3   OH2 3363   2.219   2.134   5.840
 1141TIP3    H1 3364   2.216   2.214   5.787
 1141TIP3    H2 3365   2.251   2.162   5.925
 1142TIP3   OH2 3366   3.743   5.653   3.752
 1142TIP3    H1 3367   3.740   5.671   3.658
 1142TIP3    H2 3368   3.836   5.644   3.772
 1143TIP3   OH2 3369   4.604   4.048   1.944
 1143TIP3    H1 3370   4.554   4.120   1.904
 1143TIP3    H2 3371   4.541   3.976   1.949
 1144TIP3   OH2 3372   5.066   0.501   5.311
 1144TIP3    H1 3373   5.152   0.461   5.300
 1144TIP3    H2 3374   5.004   0.429   5.295
 1145TIP3   OH2 3375   8.176   5.393   2.983
 1145TIP3    H1 3376   8.214   5.363   2.900
 1145TIP3    H2 3377   8.202   5.485   2.989
 1146TIP3   OH2 3378   6.304   7.118   1.837
 1146TIP3    H1 3379   6.309   7.030   1.874
 1146TIP3    H2 3380   6.363   7.116   1.762
 1147TIP3   OH2 3381   2.945   5.347   1.531
 1147TIP3    H1 3382   2.918   5.265   1.572
 1147TIP3    H2 3383   2.931   5.413   1.599
 1148TIP3   OH2 3384   3.485   3.384   5.375
 1148TIP3    H1 3385   3.532   3.449   5.324
 1148TIP3    H2 3386   3.394   3.391   5.345
 1149TIP3   OH2 3387   3.012   7.255   6.401
 1149TIP3    H1 3388   2.959   7.198   6.457
 1149TIP3    H2 3389   3.098   7.213   6.400
 1150TIP3   OH2 3390   0.192   5.938   3.726
 1150TIP3    H1 3391   0.266   5.877   3.723
 1150TIP3    H2 3392   0.212   6.004   3.659
 1151TIP3   OH2 3393   1.620   0.279   5.125
 1151TIP3    H1 3394   1.532   0.306   5.152
 1151TIP3    H2 3395   1.664   0.360   5.101
 1152TIP3   OH2 3396   0.419   4.630   1.922
 1152TIP3    H1 3397   0.433   4.657   2.013
 1152TIP3    H2 3398   0.476   4.553   1.912
 1153TIP3   OH2 3399   4.012   7.862   5.810
 1153TIP3    H1 3400   4.014   7.796   5.740
 1153TIP3    H2 3401   4.033   7.944   5.766
 1154TIP3   OH2 3402   7.919   6.485   6.330
 1154TIP3    H1 3403   7.947   6.478   6.422
 1154TIP3    H2 3404   7.999   6.469   6.280
 1155TIP3   OH2 3405   5.817   5.915   6.736
 1155TIP3    H1 3406   5.749   5.854   6.766
 1155TIP3    H2 3407   5.851   5.954   6.816
 1156TIP3   OH2 3408   4.199   7.084   6.583
 1156TIP3    H1 3409   4.140   7.010   6.593
 1156TIP3    H2 3410   4.153   7.144   6.524
 1157TIP3   OH2 3411   3.656   4.983   0.279
 1157TIP3    H1 3412   3.620   5.014   0.362
 1157TIP3    H2 3413   3.745   5.017   0.278
 1158TIP3   OH2 3414   0.153   0.954   5.820
 1158TIP3    H1 3415   0.211   0.879   5.811
 1158TIP3    H2 3416   0.152   0.995   5.734
 1159TIP3   OH2 3417   0.859   2.995   2.308
 1159TIP3    H1 3418   0.872   2.949   2.225
 1159TIP3    H2 3419   0.827   3.082   2.284
 1160TIP3   OH2 3420   5.921   3.135   3.933
 1160TIP3    H1 3421   6.016   3.145   3.925
 1160TIP3    H2 3422   5.887   3.224   3.921
 1161TIP3   OH2 3423   3.405   2.649   1.566
 1161TIP3    H1 3424   3.398   2.555   1.586
 1161TIP3    H2 3425   3.490   2.674   1.602
 1162TIP3   OH2 3426   4.093   0.906   6.506
 1162TIP3    H1 3427   4.156   0.844   6.469
 1162TIP3    H2 3428   4.045   0.855   6.571
 1163TIP3   OH2 3429   7.886   4.989   6.411
 1163TIP3    H1 3430   7.964   5.043   6.396
 1163TIP3    H2 3431   7.842   5.029   6.486
 1164TIP3   OH2 3432   0.784   3.905   4.344
 1164TIP3    H1 3433   0.731   3.909   4.424
 1164TIP3    H2 3434   0.741   3.966   4.284
 1165TIP3   OH2 3435   4.119   6.185   3.672
 1165TIP3    H1 3436   4.168   6.213   3.595
 1165TIP3    H2 3437   4.027   6.193   3.647
 1166TIP3   OH2 3438   2.354   2.915   2.132
 1166TIP3    H1 3439   2.298   2.976   2.180
 1166TIP3    H2 3440   2.372   2.958   2.049
 1167TIP3   OH2 3441   6.876   6.377   6.546
 1167TIP3    H1 3442   6.949   6.321   6.519
 1167TIP3    H2 3443   6.891   6.460   6.500
 1168TIP3   OH2 3444   2.573   2.908   2.429
 1168TIP3    H1 3445   2.636   2.874   2.365
 1168TIP3    H2 3446   2.567   3.001   2.408
 1169TIP3   OH2 3447   5.616   1.259   5.188
 1169TIP3    H1 3448   5.608   1.269   5.283
 1169TIP3    H2 3449   5.529   1.232   5.159
 1170TIP3   OH2 3450   8.058   2.294   1.762
 1170TIP3    H1 3451   8.097   2.290   1.675
 1170TIP3    H2 3452   8.036   2.386   1.774
 1171TIP3   OH2 3453   1.224   4.079   3.250
 1171TIP3    H1 3454   1.185   4.095   3.335
 1171TIP3    H2 3455   1.177   4.137   3.190
 1172TIP3   OH2 3456   0.842   3.755   1.281
 1172TIP3    H1 3457   0.773   3.728   1.343
 1172TIP3    H2 3458   0.823   3.705   1.201
 1173TIP3   OH2 3459   3.876   6.492   3.793
 1173TIP3    H1 3460   3.913   6.500   3.705
 1173TIP3    H2 3461   3.881   6.580   3.829
 1174TIP3   OH2 3462   4.677   2.580   4.646
 1174TIP3    H1 3463   4.722   2.497   4.629
 1174TIP3    H2 3464   4.584   2.557   4.647
 1175TIP3   OH2 3465   1.730   7.549   2.674
 1175TIP3    H1 3466   1.719   7.564   2.768
 1175TIP3    H2 3467   1.647   7.511   2.645
 1176TIP3   OH2 3468   0.412   3.184   2.420
 1176TIP3    H1 3469   0.338   3.126   2.399
 1176TIP3    H2 3470   0.391   3.267   2.378
 1177TIP3   OH2 3471   7.283   4.983   1.724
 1177TIP3    H1 3472   7.219   4.942   1.666
 1177TIP3    H2 3473   7.248   4.968   1.812
 1178TIP3   OH2 3474   0.616   3.713   1.514
 1178TIP3    H1 3475   0.525   3.699   1.540
 1178TIP3    H2 3476   0.652   3.771   1.582
 1179TIP3   OH2 3477   7.107   2.237   5.948
 1179TIP3    H1 3478   7.198   2.208   5.954
 1179TIP3    H2 3479   7.100   2.309   6.010
 1180TIP3   OH2 3480   4.948   1.930   2.694
 1180TIP3    H1 3481   5.036   1.941   2.659
 1180TIP3    H2 3482   4.962   1.895   2.782
 1181TIP3   OH2 3483   3.939   4.972   6.225
 1181TIP3    H1 3484   3.935   4.888   6.179
 1181TIP3    H2 3485   3.906   4.953   6.312
 1182TIP3   OH2 3486   4.233   1.548   0.142
 1182TIP3    H1 3487   4.170   1.611   0.107
 1182TIP3    H2 3488   4.181   1.468   0.155
 1183TIP3   OH2 3489   6.177   7.136   6.722
 1183TIP3    H1 3490   6.090   7.110   6.753
 1183TIP3    H2 3491   6.226   7.156   6.801
 1184TIP3   OH2 3492   4.338   5.885   5.884
 1184TIP3    H1 3493   4.252   5.874   5.845
 1184TIP3    H2 3494   4.337   5.832   5.963
 1185TIP3   OH2 3495   7.304   5.812   3.701
 1185TIP3    H1 3496   7.365   5.880   3.672
 1185TIP3    H2 3497   7.223   5.829   3.653
 1186TIP3   OH2 3498   4.560   0.936   5.940
 1186TIP3    H1 3499   4.508   0.975   5.869
 1186TIP3    H2 3500   4.619   1.007   5.968
 1187TIP3   OH2 3501   5.108   1.170   2.424
 1187TIP3    H1 3502   5.059   1.187   2.505
 1187TIP3    H2 3503   5.073   1.233   2.361
 1188TIP3   OH2 3504   2.225   6.026   2.994
 1188TIP3    H1 3505   2.227   5.977   2.912
 1188TIP3    H2 3506   2.158   5.981   3.047
 1189TIP3   OH2 3507   0.680   0.947   2.146
 1189TIP3    H1 3508   0.766   0.960   2.186
 1189TIP3    H2 3509   0.619   0.990   2.205
 1190TIP3   OH2 3510   0.460   2.472   0.278
 1190TIP3    H1 3511   0.425   2.561   0.284
 1190TIP3    H2 3512   0.548   2.483   0.242
 1191TIP3   OH2 3513   1.133   7.157   0.186
 1191TIP3    H1 3514   1.097   7.152   0.275
 1191TIP3    H2 3515   1.165   7.247   0.178
 1192TIP3   OH2 3516   2.066   2.472   3.080
 1192TIP3    H1 3517   2.045   2.382   3.057
 1192TIP3    H2 3518   2.048   2.522   3.000
 1193TIP3   OH2 3519   5.019   2.708   5.915
 1193TIP3    H1 3520   4.942   2.659   5.885
 1193TIP3    H2 3521   5.091   2.645   5.908
 1194TIP3   OH2 3522   2.390   5.838   5.260
 1194TIP3    H1 3523   2.463   5.777   5.252
 1194TIP3    H2 3524   2.394   5.891   5.180
 1195TIP3   OH2 3525   0.164   4.715   2.998
 1195TIP3    H1 3526   0.153   4.772   2.922
 1195TIP3    H2 3527   0.232   4.653   2.972
 1196TIP3   OH2 3528   5.132   6.395   2.243
 1196TIP3    H1 3529   5.116   6.430   2.330
 1196TIP3    H2 3530   5.072   6.443   2.186
 1197TIP3   OH2 3531   1.750   5.550   4.819
 1197TIP3    H1 3532   1.807   5.627   4.815
 1197TIP3    H2 3533   1.803   5.479   4.783
 1198TIP3   OH2 3534   3.684   3.796   3.697
 1198TIP3    H1 3535   3.657   3.735   3.766
 1198TIP3    H2 3536   3.774   3.770   3.676
 1199TIP3   OH2 3537   5.821   1.327   6.515
 1199TIP3    H1 3538   5.916   1.325   6.519
 1199TIP3    H2 3539   5.795   1.235   6.503
 1200TIP3   OH2 3540   4.646   3.655   3.834
 1200TIP3    H1 3541   4.693   3.572   3.831
 1200TIP3    H2 3542   4.567   3.640   3.782
 1201TIP3   OH2 3543   6.433   6.040   4.873
 1201TIP3    H1 3544   6.426   5.949   4.901
 1201TIP3    H2 3545   6.523   6.049   4.842
 1202TIP3   OH2 3546   6.269   6.630   0.391
 1202TIP3    H1 3547   6.265   6.550   0.338
 1202TIP3    H2 3548   6.206   6.614   0.462
 1203TIP3   OH2 3549   6.653   3.562   5.151
 1203TIP3    H1 3550   6.655   3.644   5.103
 1203TIP3    H2 3551   6.672   3.586   5.241
 1204TIP3   OH2 3552   4.725   2.895   5.061
 1204TIP3    H1 3553   4.807   2.916   5.015
 1204TIP3    H2 3554   4.676   2.842   4.999
 1205TIP3   OH2 3555   4.833   2.182   5.954
 1205TIP3    H1 3556   4.922   2.209   5.932
 1205TIP3    H2 3557   4.777   2.241   5.902
 1206TIP3   OH2 3558   1.254   6.225   6.132
 1206TIP3    H1 3559   1.179   6.266   6.089
 1206TIP3    H2 3560   1.243   6.247   6.225
 1207TIP3   OH2 3561   3.849   0.761   1.593
 1207TIP3    H1 3562   3.906   0.701   1.641
 1207TIP3    H2 3563   3.763   0.718   1.593
 1208TIP3   OH2 3564   4.836   5.798   1.474
 1208TIP3    H1 3565   4.884   5.849   1.409
 1208TIP3    H2 3566   4.783   5.863   1.521
 1209TIP3   OH2 3567   1.342   1.733   4.658
 1209TIP3    H1 3568   1.293   1.772   4.731
 1209TIP3    H2 3569   1.428   1.774   4.662
 1210TIP3   OH2 3570   3.206   7.530   4.836
 1210TIP3    H1 3571   3.190   7.455   4.894
 1210TIP3    H2 3572   3.222   7.491   4.750
 1211TIP3   OH2 3573   8.197   4.617   3.220
 1211TIP3    H1 3574   8.276   4.568   3.245
 1211TIP3    H2 3575   8.159   4.565   3.149
 1212TIP3   OH2 3576   3.029   0.632   5.515
 1212TIP3    H1 3577   3.055   0.714   5.557
 1212TIP3    H2 3578   3.078   0.565   5.562
 1213TIP3   OH2 3579   7.289   7.871   5.909
 1213TIP3    H1 3580   7.286   7.872   5.814
 1213TIP3    H2 3581   7.226   7.803   5.934
 1214TIP3   OH2 3582   0.564   7.135   4.536
 1214TIP3    H1 3583   0.627   7.094   4.477
 1214TIP3    H2 3584   0.529   7.209   4.486
 1215TIP3   OH2 3585   1.119   1.867   3.761
 1215TIP3    H1 3586   1.180   1.897   3.694
 1215TIP3    H2 3587   1.156   1.898   3.844
 1216TIP3   OH2 3588   1.948   7.041   1.589
 1216TIP3    H1 3589   1.948   7.007   1.499
 1216TIP3    H2 3590   2.031   7.089   1.596
 1217TIP3   OH2 3591   4.725   0.120   4.802
 1217TIP3    H1 3592   4.635   0.119   4.771
 1217TIP3    H2 3593   4.769   0.053   4.751
 1218TIP3   OH2 3594   3.328   1.595   1.185
 1218TIP3    H1 3595   3.378   1.618   1.263
 1218TIP3    H2 3596   3.393   1.590   1.116
 1219TIP3   OH2 3597   2.278   4.753   5.973
 1219TIP3    H1 3598   2.189   4.720   5.986
 1219TIP3    H2 3599   2.325   4.680   5.931
 1220TIP3   OH2 3600   0.295   6.767   5.866
 1220TIP3    H1 3601   0.370   6.827   5.863
 1220TIP3    H2 3602   0.334   6.681   5.884
 1221TIP3   OH2 3603   0.704   0.491   2.399
 1221TIP3    H1 3604   0.649   0.564   2.428
 1221TIP3    H2 3605   0.649   0.444   2.335
 1222TIP3   OH2 3606   3.328   6.943   3.199
 1222TIP3    H1 3607   3.274   6.935   3.121
 1222TIP3    H2 3608   3.332   7.037   3.216
 1223TIP3   OH2 3609   3.970   6.915   5.167
 1223TIP3    H1 3610   3.964   6.842   5.228
 1223TIP3    H2 3611   4.027   6.883   5.097
 1224TIP3   OH2 3612   2.375   3.156   4.474
 1224TIP3    H1 3613   2.465   3.153   4.443
 1224TIP3    H2 3614   2.371   3.086   4.540
 1225TIP3   OH2 3615   4.597   6.503   6.580
 1225TIP3    H1 3616   4.681   6.458   6.568
 1225TIP3    H2 3617   4.616   6.576   6.638
 1226TIP3   OH2 3618   3.409   2.330   1.357
 1226TIP3    H1 3619   3.387   2.244   1.322
 1226TIP3    H2 3620   3.328   2.381   1.347
 1227TIP3   OH2 3621   5.254   2.500   5.099
 1227TIP3    H1 3622   5.289   2.531   5.015
 1227TIP3    H2 3623   5.161   2.486   5.082
 1228TIP3   OH2 3624   2.258   5.494   3.597
 1228TIP3    H1 3625   2.254   5.537   3.512
 1228TIP3    H2 3626   2.312   5.416   3.582
 1229TIP3   OH2 3627   1.283   0.575   0.469
 1229TIP3    H1 3628   1.346   0.519   0.424
 1229TIP3    H2 3629   1.326   0.660   0.475
 1230TIP3   OH2 3630   0.906   2.516   4.873
 1230TIP3    H1 3631   0.852   2.518   4.952
 1230TIP3    H2 3632   0.928   2.424   4.861
 1231TIP3   OH2 3633   5.781   4.012   5.733
 1231TIP3    H1 3634   5.870   3.994   5.702
 1231TIP3    H2 3635   5.734   3.930   5.721
 1232TIP3   OH2 3636   8.217   4.731   6.382
 1232TIP3    H1 3637   8.125   4.720   6.357
 1232TIP3    H2 3638   8.243   4.813   6.341
 1233TIP3   OH2 3639   0.057   1.083   1.636
 1233TIP3    H1 3640  -0.034   1.107   1.619
 1233TIP3    H2 3641   0.089   1.149   1.697
 1234TIP3   OH2 3642   1.284   1.965   2.181
 1234TIP3    H1 3643   1.226   2.000   2.248
 1234TIP3    H2 3644   1.360   1.933   2.229
 1235TIP3   OH2 3645   2.149   6.586   3.608
 1235TIP3    H1 3646   2.123   6.653   3.545
 1235TIP3    H2 3647   2.136   6.503   3.563
 1236TIP3   OH2 3648   7.400   1.407   4.734
 1236TIP3    H1 3649   7.344   1.349   4.786
 1236TIP3    H2 3650   7.489   1.378   4.755
 1237TIP3   OH2 3651   1.809   1.570   2.557
 1237TIP3    H1 3652   1.740   1.560   2.492
 1237TIP3    H2 3653   1.865   1.640   2.522
 1238TIP3   OH2 3654   0.409   2.474   1.002
 1238TIP3    H1 3655   0.381   2.404   1.061
 1238TIP3    H2 3656   0.497   2.447   0.974
 1239TIP3   OH2 3657   1.196   0.745   4.782
 1239TIP3    H1 3658   1.185   0.666   4.835
 1239TIP3    H2 3659   1.197   0.713   4.692
 1240TIP3   OH2 3660   5.920   4.867   5.714
 1240TIP3    H1 3661   5.996   4.836   5.764
 1240TIP3    H2 3662   5.920   4.813   5.635
 1241TIP3   OH2 3663   6.833   6.107   5.912
 1241TIP3    H1 3664   6.827   6.144   5.824
 1241TIP3    H2 3665   6.916   6.141   5.946
 1242TIP3   OH2 3666   6.796   5.657   0.510
 1242TIP3    H1 3667   6.806   5.738   0.559
 1242TIP3    H2 3668   6.879   5.610   0.523
 1243TIP3   OH2 3669   2.087   2.096   0.296
 1243TIP3    H1 3670   2.021   2.109   0.364
 1243TIP3    H2 3671   2.083   2.176   0.243
 1244TIP3   OH2 3672   8.130   0.390   4.044
 1244TIP3    H1 3673   8.159   0.481   4.033
 1244TIP3    H2 3674   8.178   0.359   4.121
 1245TIP3   OH2 3675   5.599   4.068   3.708
 1245TIP3    H1 3676   5.668   4.123   3.670
 1245TIP3    H2 3677   5.641   3.982   3.720
 1246TIP3   OH2 3678   5.906   7.467   5.212
 1246TIP3    H1 3679   5.926   7.418   5.292
 1246TIP3    H2 3680   5.918   7.559   5.237
 1247TIP3   OH2 3681   6.505   6.577   3.726
 1247TIP3    H1 3682   6.584   6.627   3.746
 1247TIP3    H2 3683   6.435   6.624   3.771
 1248TIP3   OH2 3684   7.079   0.345   6.287
 1248TIP3    H1 3685   7.003   0.399   6.307
 1248TIP3    H2 3686   7.108   0.311   6.372
 1249TIP3   OH2 3687   7.177   6.450   3.779
 1249TIP3    H1 3688   7.168   6.515   3.709
 1249TIP3    H2 3689   7.151   6.368   3.738
 1250TIP3   OH2 3690   1.251   2.279   1.469
 1250TIP3    H1 3691   1.217   2.254   1.555
 1250TIP3    H2 3692   1.173   2.296   1.416
 1251TIP3   OH2 3693   2.757   2.763   5.030
 1251TIP3    H1 3694   2.820   2.807   5.087
 1251TIP3    H2 3695   2.759   2.815   4.949
 1252TIP3   OH2 3696   6.218   5.513   6.378
 1252TIP3    H1 3697   6.197   5.431   6.332
 1252TIP3    H2 3698   6.289   5.489   6.437
 1253TIP3   OH2 3699   6.397   0.281   5.531
 1253TIP3    H1 3700   6.330   0.241   5.586
 1253TIP3    H2 3701   6.357   0.286   5.444
 1254TIP3   OH2 3702   8.346   2.860   2.316
 1254TIP3    H1 3703   8.393   2.940   2.339
 1254TIP3    H2 3704   8.414   2.795   2.300
 1255TIP3   OH2 3705   4.786   6.296   2.495
 1255TIP3    H1 3706   4.715   6.247   2.452
 1255TIP3    H2 3707   4.772   6.387   2.468
 1256TIP3   OH2 3708   3.643   0.976   2.513
 1256TIP3    H1 3709   3.644   0.882   2.534
 1256TIP3    H2 3710   3.734   1.004   2.525
 1257TIP3   OH2 3711   6.749   5.212   6.584
 1257TIP3    H1 3712   6.839   5.227   6.555
 1257TIP3    H2 3713   6.710   5.299   6.590
 1258TIP3   OH2 3714   5.324   7.557   3.792
 1258TIP3    H1 3715   5.336   7.644   3.754
 1258TIP3    H2 3716   5.297   7.502   3.718
 1259TIP3   OH2 3717   8.197   3.619   1.115
 1259TIP3    H1 3718   8.102   3.613   1.106
 1259TIP3    H2 3719   8.216   3.713   1.114
 1260TIP3   OH2 3720   4.327   5.345   2.467
 1260TIP3    H1 3721   4.387   5.275   2.492
 1260TIP3    H2 3722   4.240   5.307   2.474
 1261TIP3   OH2 3723   5.963   5.473   6.099
 1261TIP3    H1 3724   5.974   5.568   6.104
 1261TIP3    H2 3725   6.037   5.437   6.149
 1262TIP3   OH2 3726   3.974   1.194   0.424
 1262TIP3    H1 3727   4.006   1.104   0.430
 1262TIP3    H2 3728   3.905   1.199   0.490
 1263TIP3   OH2 3729   1.114   7.804   5.002
 1263TIP3    H1 3730   1.077   7.871   4.944
 1263TIP3    H2 3731   1.044   7.739   5.011
 1264TIP3   OH2 3732   0.829   5.094   2.302
 1264TIP3    H1 3733   0.818   5.054   2.216
 1264TIP3    H2 3734   0.850   5.186   2.283
 1265TIP3   OH2 3735   4.430   5.680   2.544
 1265TIP3    H1 3736   4.523   5.700   2.548
 1265TIP3    H2 3737   4.423   5.610   2.479
 1266TIP3   OH2 3738   2.146   5.034   5.244
 1266TIP3    H1 3739   2.133   5.037   5.338
 1266TIP3    H2 3740   2.200   4.956   5.229
 1267TIP3   OH2 3741   4.488   2.037   1.812
 1267TIP3    H1 3742   4.394   2.019   1.812
 1267TIP3    H2 3743   4.528   1.956   1.779
 1268TIP3   OH2 3744   4.203   2.871   2.093
 1268TIP3    H1 3745   4.212   2.948   2.037
 1268TIP3    H2 3746   4.278   2.816   2.070
 1269TIP3   OH2 3747   1.621   1.423   6.403
 1269TIP3    H1 3748   1.564   1.498   6.385
 1269TIP3    H2 3749   1.623   1.417   6.498
 1270TIP3   OH2 3750   6.418   2.267   2.801
 1270TIP3    H1 3751   6.416   2.200   2.732
 1270TIP3    H2 3752   6.326   2.281   2.823
 1271TIP3   OH2 3753   1.913   6.512   5.261
 1271TIP3    H1 3754   1.926   6.445   5.328
 1271TIP3    H2 3755   1.963   6.482   5.186
 1272TIP3   OH2 3756   2.471   3.295   5.681
 1272TIP3    H1 3757   2.480   3.379   5.726
 1272TIP3    H2 3758   2.379   3.292   5.655
 1273TIP3   OH2 3759   1.539   6.293   6.497
 1273TIP3    H1 3760   1.623   6.329   6.525
 1273TIP3    H2 3761   1.562   6.224   6.436
 1274TIP3   OH2 3762   1.242   2.026   3.941
 1274TIP3    H1 3763   1.293   1.957   3.983
 1274TIP3    H2 3764   1.291   2.106   3.959
 1275TIP3   OH2 3765   7.160   1.380   6.654
 1275TIP3    H1 3766   7.249   1.354   6.628
 1275TIP3    H2 3767   7.117   1.399   6.571
 1276TIP3   OH2 3768   7.661   1.531   1.377
 1276TIP3    H1 3769   7.746   1.575   1.385
 1276TIP3    H2 3770   7.683   1.440   1.358
 1277TIP3   OH2 3771   5.051   7.492   5.274
 1277TIP3    H1 3772   5.099   7.410   5.259
 1277TIP3    H2 3773   5.118   7.559   5.278
 1278TIP3   OH2 3774   5.585   7.383   0.823
 1278TIP3    H1 3775   5.667   7.414   0.783
 1278TIP3    H2 3776   5.529   7.461   0.825
 1279TIP3   OH2 3777   6.330   6.613   1.291
 1279TIP3    H1 3778   6.405   6.586   1.239
 1279TIP3    H2 3779   6.254   6.578   1.245
 1280TIP3   OH2 3780   0.430   0.540   3.057
 1280TIP3    H1 3781   0.391   0.628   3.059
 1280TIP3    H2 3782   0.401   0.503   2.974
 1281TIP3   OH2 3783   6.581   2.767   0.886
 1281TIP3    H1 3784   6.661   2.805   0.921
 1281TIP3    H2 3785   6.512   2.796   0.947
 1282TIP3   OH2 3786   5.447   3.926   0.188
 1282TIP3    H1 3787   5.410   3.851   0.235
 1282TIP3    H2 3788   5.393   3.935   0.110
 1283TIP3   OH2 3789   6.920   7.590   1.586
 1283TIP3    H1 3790   6.982   7.547   1.528
 1283TIP3    H2 3791   6.944   7.683   1.583
 1284TIP3   OH2 3792   1.672   6.628   4.645
 1284TIP3    H1 3793   1.680   6.717   4.611
 1284TIP3    H2 3794   1.638   6.576   4.572
 1285TIP3   OH2 3795   3.270   1.746   6.195
 1285TIP3    H1 3796   3.191   1.735   6.142
 1285TIP3    H2 3797   3.301   1.657   6.213
 1286TIP3   OH2 3798   5.871   2.999   3.599
 1286TIP3    H1 3799   5.822   2.973   3.521
 1286TIP3    H2 3800   5.952   3.036   3.565
 1287TIP3   OH2 3801   8.160   2.764   2.510
 1287TIP3    H1 3802   8.176   2.670   2.525
 1287TIP3    H2 3803   8.221   2.788   2.441
 1288TIP3   OH2 3804   4.271   3.698   4.259
 1288TIP3    H1 3805   4.222   3.778   4.243
 1288TIP3    H2 3806   4.352   3.727   4.302
 1289TIP3   OH2 3807   8.223   7.931   6.388
 1289TIP3    H1 3808   8.134   7.897   6.395
 1289TIP3    H2 3809   8.274   7.857   6.354
 1290TIP3   OH2 3810   2.632   3.685   1.683
 1290TIP3    H1 3811   2.706   3.696   1.742
 1290TIP3    H2 3812   2.609   3.774   1.655
 1291TIP3   OH2 3813   3.506   2.931   1.221
 1291TIP3    H1 3814   3.497   2.948   1.127
 1291TIP3    H2 3815   3.598   2.950   1.240
 1292TIP3   OH2 3816   0.277   5.363   6.743
 1292TIP3    H1 3817   0.215   5.290   6.752
 1292TIP3    H2 3818   0.232   5.426   6.686
 1293TIP3   OH2 3819   4.413   2.894   3.927
 1293TIP3    H1 3820   4.398   2.957   3.856
 1293TIP3    H2 3821   4.406   2.809   3.885
 1294TIP3   OH2 3822   5.289   5.215   0.884
 1294TIP3    H1 3823   5.236   5.289   0.914
 1294TIP3    H2 3824   5.225   5.146   0.865
 1295TIP3   OH2 3825   4.852   2.930   2.081
 1295TIP3    H1 3826   4.760   2.928   2.104
 1295TIP3    H2 3827   4.854   2.908   1.987
 1296TIP3   OH2 3828   0.629   5.971   4.075
 1296TIP3    H1 3829   0.652   5.977   3.982
 1296TIP3    H2 3830   0.706   6.003   4.121
 1297TIP3   OH2 3831   4.011   1.671   1.981
 1297TIP3    H1 3832   4.063   1.746   2.011
 1297TIP3    H2 3833   3.988   1.693   1.890
 1298TIP3   OH2 3834   5.285   4.976   5.053
 1298TIP3    H1 3835   5.325   5.051   5.010
 1298TIP3    H2 3836   5.300   4.992   5.147
 1299TIP3   OH2 3837   6.613   7.694   0.593
 1299TIP3    H1 3838   6.548   7.760   0.616
 1299TIP3    H2 3839   6.601   7.625   0.658
 1300TIP3   OH2 3840   1.905   1.867   2.900
 1300TIP3    H1 3841   1.910   1.777   2.932
 1300TIP3    H2 3842   1.836   1.908   2.952
 1301TIP3   OH2 3843   1.449   4.064   4.234
 1301TIP3    H1 3844   1.529   4.114   4.224
 1301TIP3    H2 3845   1.397   4.085   4.156
 1302TIP3   OH2 3846   3.082   3.321   3.917
 1302TIP3    H1 3847   3.133   3.372   3.980
 1302TIP3    H2 3848   3.025   3.266   3.970
 1303TIP3   OH2 3849   8.106   5.630   4.103
 1303TIP3    H1 3850   8.196   5.631   4.069
 1303TIP3    H2 3851   8.062   5.700   4.055
 1304TIP3   OH2 3852   0.494   1.276   3.635
 1304TIP3    H1 3853   0.582   1.315   3.629
 1304TIP3    H2 3854   0.505   1.203   3.696
 1305TIP3   OH2 3855   6.646   3.520   3.819
 1305TIP3    H1 3856   6.710   3.539   3.887
 1305TIP3    H2 3857   6.695   3.526   3.737
 1306TIP3   OH2 3858   0.516   6.355   4.527
 1306TIP3    H1 3859   0.581   6.410   4.571
 1306TIP3    H2 3860   0.524   6.270   4.570
 1307TIP3   OH2 3861   5.034   5.066   4.052
 1307TIP3    H1 3862   5.104   5.122   4.020
 1307TIP3    H2 3863   5.021   5.092   4.143
 1308TIP3   OH2 3864   4.494   1.916   4.545
 1308TIP3    H1 3865   4.518   1.955   4.628
 1308TIP3    H2 3866   4.413   1.960   4.520
 1309TIP3   OH2 3867   4.507   6.973   2.246
 1309TIP3    H1 3868   4.484   6.952   2.156
 1309TIP3    H2 3869   4.463   7.056   2.263
 1310TIP3   OH2 3870   4.328   1.602   4.159
 1310TIP3    H1 3871   4.292   1.674   4.107
 1310TIP3    H2 3872   4.422   1.619   4.161
 1311TIP3   OH2 3873   8.330   3.051   2.681
 1311TIP3    H1 3874   8.383   3.090   2.612
 1311TIP3    H2 3875   8.247   3.029   2.639
 1312TIP3   OH2 3876   5.398   6.829   2.104
 1312TIP3    H1 3877   5.441   6.767   2.046
 1312TIP3    H2 3878   5.306   6.829   2.075
 1313TIP3   OH2 3879   8.029   1.271   1.210
 1313TIP3    H1 3880   8.009   1.208   1.140
 1313TIP3    H2 3881   8.037   1.355   1.164
 1314TIP3   OH2 3882   3.819   4.917   6.461
 1314TIP3    H1 3883   3.856   4.990   6.510
 1314TIP3    H2 3884   3.777   4.862   6.527
 1315TIP3   OH2 3885   5.485   4.644   2.558
 1315TIP3    H1 3886   5.529   4.606   2.634
 1315TIP3    H2 3887   5.400   4.673   2.591
 1316TIP3   OH2 3888   2.257   4.847   0.356
 1316TIP3    H1 3889   2.234   4.763   0.317
 1316TIP3    H2 3890   2.329   4.826   0.417
 1317TIP3   OH2 3891   2.046   3.684   4.541
 1317TIP3    H1 3892   2.055   3.589   4.529
 1317TIP3    H2 3893   1.953   3.701   4.527
 1318TIP3   OH2 3894   4.461   6.160   0.931
 1318TIP3    H1 3895   4.494   6.195   0.849
 1318TIP3    H2 3896   4.498   6.072   0.937
 1319TIP3   OH2 3897   2.117   3.615   5.243
 1319TIP3    H1 3898   2.177   3.646   5.311
 1319TIP3    H2 3899   2.061   3.691   5.226
 1320TIP3   OH2 3900   6.875   6.328   0.862
 1320TIP3    H1 3901   6.880   6.234   0.846
 1320TIP3    H2 3902   6.952   6.348   0.916
 1321TIP3   OH2 3903   7.330   1.568   4.523
 1321TIP3    H1 3904   7.354   1.509   4.594
 1321TIP3    H2 3905   7.399   1.555   4.457
 1322TIP3   OH2 3906   0.238   1.297   6.771
 1322TIP3    H1 3907   0.163   1.332   6.724
 1322TIP3    H2 3908   0.302   1.368   6.771
 1323TIP3   OH2 3909   1.589   2.366   0.813
 1323TIP3    H1 3910   1.512   2.368   0.870
 1323TIP3    H2 3911   1.615   2.458   0.805
 1324TIP3   OH2 3912   3.370   4.699   6.755
 1324TIP3    H1 3913   3.356   4.694   6.660
 1324TIP3    H2 3914   3.320   4.624   6.790
 1325TIP3   OH2 3915   3.845   3.137   1.713
 1325TIP3    H1 3916   3.882   3.051   1.693
 1325TIP3    H2 3917   3.909   3.177   1.772
 1326TIP3   OH2 3918   4.872   3.920   1.474
 1326TIP3    H1 3919   4.851   3.862   1.400
 1326TIP3    H2 3920   4.889   4.005   1.434
 1327TIP3   OH2 3921   0.005   5.601   3.682
 1327TIP3    H1 3922   0.016   5.691   3.652
 1327TIP3    H2 3923  -0.008   5.551   3.601
 1328TIP3   OH2 3924   1.698   2.039   3.749
 1328TIP3    H1 3925   1.685   2.061   3.656
 1328TIP3    H2 3926   1.696   1.943   3.751
 1329TIP3   OH2 3927   5.990   3.420   5.384
 1329TIP3    H1 3928   6.070   3.456   5.422
 1329TIP3    H2 3929   6.003   3.325   5.383
 1330TIP3   OH2 3930   4.376   2.707   5.814
 1330TIP3    H1 3931   4.287   2.677   5.799
 1330TIP3    H2 3932   4.367   2.777   5.878
 1331TIP3   OH2 3933   4.866   7.652   4.080
 1331TIP3    H1 3934   4.827   7.628   4.164
 1331TIP3    H2 3935   4.948   7.602   4.077
 1332TIP3   OH2 3936   2.969   6.634   1.242
 1332TIP3    H1 3937   2.946   6.621   1.334
 1332TIP3    H2 3938   2.971   6.546   1.205
 1333TIP3   OH2 3939   5.670   5.974   4.513
 1333TIP3    H1 3940   5.706   6.045   4.566
 1333TIP3    H2 3941   5.740   5.909   4.510
 1334TIP3   OH2 3942   4.981   7.147   6.860
 1334TIP3    H1 3943   4.945   7.106   6.782
 1334TIP3    H2 3944   5.046   7.209   6.827
 1335TIP3   OH2 3945   7.133   1.633   2.502
 1335TIP3    H1 3946   7.048   1.670   2.523
 1335TIP3    H2 3947   7.184   1.707   2.469
 1336TIP3   OH2 3948   1.396   5.343   2.423
 1336TIP3    H1 3949   1.349   5.418   2.388
 1336TIP3    H2 3950   1.350   5.321   2.504
 1337TIP3   OH2 3951   4.988   6.835   3.939
 1337TIP3    H1 3952   4.918   6.887   3.901
 1337TIP3    H2 3953   5.069   6.876   3.907
 1338TIP3   OH2 3954   2.714   2.582   6.427
 1338TIP3    H1 3955   2.771   2.660   6.425
 1338TIP3    H2 3956   2.671   2.582   6.341
 1339TIP3   OH2 3957   1.338   0.899   5.662
 1339TIP3    H1 3958   1.395   0.970   5.631
 1339TIP3    H2 3959   1.251   0.921   5.627
 1340TIP3   OH2 3960   6.572   3.407   4.911
 1340TIP3    H1 3961   6.629   3.426   4.836
 1340TIP3    H2 3962   6.612   3.455   4.984
 1341TIP3   OH2 3963   6.725   7.042   3.766
 1341TIP3    H1 3964   6.818   7.058   3.785
 1341TIP3    H2 3965   6.684   7.036   3.852
 1342TIP3   OH2 3966   1.721   4.877   5.233
 1342TIP3    H1 3967   1.760   4.841   5.313
 1342TIP3    H2 3968   1.649   4.817   5.212
 1343TIP3   OH2 3969   3.294   6.493   4.740
 1343TIP3    H1 3970   3.327   6.404   4.756
 1343TIP3    H2 3971   3.199   6.484   4.745
 1344TIP3   OH2 3972   8.150   4.364   6.634
 1344TIP3    H1 3973   8.108   4.324   6.558
 1344TIP3    H2 3974   8.226   4.410   6.598
 1345TIP3   OH2 3975   4.913   5.849   6.724
 1345TIP3    H1 3976   4.971   5.838   6.799
 1345TIP3    H2 3977   4.947   5.927   6.678
 1346TIP3   OH2 3978   2.319   1.203   3.888
 1346TIP3    H1 3979   2.389   1.268   3.900
 1346TIP3    H2 3980   2.332   1.140   3.959
 1347TIP3   OH2 3981   7.620   6.069   1.197
 1347TIP3    H1 3982   7.665   5.995   1.237
 1347TIP3    H2 3983   7.562   6.029   1.132
 1348TIP3   OH2 3984   4.649  -0.018   2.727
 1348TIP3    H1 3985   4.553  -0.026   2.734
 1348TIP3    H2 3986   4.672   0.054   2.784
 1349TIP3   OH2 3987   3.035   4.401   2.301
 1349TIP3    H1 3988   3.015   4.332   2.237
 1349TIP3    H2 3989   3.012   4.482   2.256
 1350TIP3   OH2 3990   5.549   5.069   3.805
 1350TIP3    H1 3991   5.546   5.023   3.888
 1350TIP3    H2 3992   5.560   5.001   3.739
 1351TIP3   OH2 3993   4.347   7.052   4.777
 1351TIP3    H1 3994   4.286   7.011   4.839
 1351TIP3    H2 3995   4.407   7.102   4.832
 1352TIP3   OH2 3996   2.676   6.877   0.067
 1352TIP3    H1 3997   2.741   6.942   0.040
 1352TIP3    H2 3998   2.725   6.813   0.118
 1353TIP3   OH2 3999   0.110   0.514   2.757
 1353TIP3    H1 4000   0.025   0.511   2.800
 1353TIP3    H2 4001   0.158   0.584   2.803
 1354TIP3   OH2 4002   2.362   0.410   4.741
 1354TIP3    H1 4003   2.273   0.384   4.718
 1354TIP3    H2 4004   2.369   0.501   4.712
 1355TIP3   OH2 4005   3.371   5.768   3.802
 1355TIP3    H1 4006   3.384   5.780   3.896
 1355TIP3    H2 4007   3.392   5.676   3.787
 1356TIP3   OH2 4008   2.142   3.744   6.311
 1356TIP3    H1 4009   2.086   3.668   6.293
 1356TIP3    H2 4010   2.081   3.815   6.329
 1357TIP3   OH2 4011   7.402   2.519   0.080
 1357TIP3    H1 4012   7.395   2.520  -0.015
 1357TIP3    H2 4013   7.314   2.497   0.111
 1358TIP3   OH2 4014   0.899   5.371   6.550
 1358TIP3    H1 4015   0.872   5.393   6.639
 1358TIP3    H2 4016   0.884   5.451   6.500
 1359TIP3   OH2 4017   4.355   2.279   1.522
 1359TIP3    H1 4018   4.385   2.258   1.610
 1359TIP3    H2 4019   4.420   2.239   1.464
 1360TIP3   OH2 4020   6.244   2.038   5.578
 1360TIP3    H1 4021   6.195   2.091   5.640
 1360TIP3    H2 4022   6.185   2.028   5.503
 1361TIP3   OH2 4023   6.119   6.502   4.271
 1361TIP3    H1 4024   6.079   6.535   4.351
 1361TIP3    H2 4025   6.074   6.549   4.201
 1362TIP3   OH2 4026   6.982   6.074   1.316
 1362TIP3    H1 4027   6.910   6.080   1.378
 1362TIP3    H2 4028   7.000   6.164   1.290
 1363TIP3   OH2 4029   1.673   4.726   5.989
 1363TIP3    H1 4030   1.658   4.680   6.071
 1363TIP3    H2 4031   1.595   4.710   5.937
 1364TIP3   OH2 4032   4.471   1.415   0.042
 1364TIP3    H1 4033   4.406   1.477   0.076
 1364TIP3    H2 4034   4.449   1.333   0.085
 1365TIP3   OH2 4035   3.567   2.866   5.594
 1365TIP3    H1 4036   3.631   2.893   5.529
 1365TIP3    H2 4037   3.511   2.803   5.548
 1366TIP3   OH2 4038   2.481   5.211   5.428
 1366TIP3    H1 4039   2.539   5.221   5.352
 1366TIP3    H2 4040   2.503   5.125   5.464
 1367TIP3   OH2 4041   1.783   6.767   4.990
 1367TIP3    H1 4042   1.758   6.680   4.960
 1367TIP3    H2 4043   1.734   6.779   5.072
 1368TIP3   OH2 4044   0.943   0.639   4.318
 1368TIP3    H1 4045   0.944   0.722   4.366
 1368TIP3    H2 4046   0.853   0.608   4.325
 1369TIP3   OH2 4047   0.875   1.039   0.062
 1369TIP3    H1 4048   0.882   0.994  -0.023
 1369TIP3    H2 4049   0.891   0.970   0.127
 1370TIP3   OH2 4050   4.413   2.918   0.545
 1370TIP3    H1 4051   4.404   2.870   0.463
 1370TIP3    H2 4052   4.352   2.992   0.536
 1371TIP3   OH2 4053   6.545   5.066   4.701
 1371TIP3    H1 4054   6.577   5.121   4.630
 1371TIP3    H2 4055   6.621   5.013   4.726
 1372TIP3   OH2 4056   0.179   7.402   1.110
 1372TIP3    H1 4057   0.149   7.427   1.197
 1372TIP3    H2 4058   0.215   7.483   1.073
 1373TIP3   OH2 4059   3.366   5.893   0.142
 1373TIP3    H1 4060   3.339   5.940   0.220
 1373TIP3    H2 4061   3.363   5.958   0.072
 1374TIP3   OH2 4062   6.895   3.494   5.394
 1374TIP3    H1 4063   6.902   3.581   5.433
 1374TIP3    H2 4064   6.844   3.443   5.458
 1375TIP3   OH2 4065   5.793   2.704   4.468
 1375TIP3    H1 4066   5.749   2.687   4.385
 1375TIP3    H2 4067   5.780   2.797   4.484
 1376TIP3   OH2 4068   1.205   0.058   1.908
 1376TIP3    H1 4069   1.202   0.153   1.921
 1376TIP3    H2 4070   1.296   0.034   1.926
 1377TIP3   OH2 4071   0.110   3.220   4.340
 1377TIP3    H1 4072   0.019   3.203   4.317
 1377TIP3    H2 4073   0.149   3.133   4.349
 1378TIP3   OH2 4074   8.393   6.416   0.963
 1378TIP3    H1 4075   8.302   6.435   0.941
 1378TIP3    H2 4076   8.394   6.324   0.987
 1379TIP3   OH2 4077   7.916   2.123   0.749
 1379TIP3    H1 4078   7.826   2.143   0.724
 1379TIP3    H2 4079   7.966   2.200   0.721
 1380TIP3   OH2 4080   1.729   2.559   2.311
 1380TIP3    H1 4081   1.786   2.531   2.382
 1380TIP3    H2 4082   1.649   2.589   2.354
 1381TIP3   OH2 4083   0.744   6.146   3.808
 1381TIP3    H1 4084   0.648   6.154   3.803
 1381TIP3    H2 4085   0.775   6.237   3.808
 1382TIP3   OH2 4086   2.210   1.863   4.947
 1382TIP3    H1 4087   2.148   1.806   4.902
 1382TIP3    H2 4088   2.189   1.853   5.039
 1383TIP3   OH2 4089   6.746   4.828   0.942
 1383TIP3    H1 4090   6.661   4.846   0.902
 1383TIP3    H2 4091   6.795   4.909   0.930
 1384TIP3   OH2 4092   0.482   4.790   5.669
 1384TIP3    H1 4093   0.393   4.791   5.633
 1384TIP3    H2 4094   0.470   4.784   5.763
 1385TIP3   OH2 4095   2.003   4.179   5.819
 1385TIP3    H1 4096   1.911   4.199   5.837
 1385TIP3    H2 4097   2.011   4.185   5.724
 1386TIP3   OH2 4098   1.368   4.560   1.869
 1386TIP3    H1 4099   1.337   4.603   1.789
 1386TIP3    H2 4100   1.435   4.618   1.904
 1387TIP3   OH2 4101   3.284   6.473   0.117
 1387TIP3    H1 4102   3.361   6.504   0.070
 1387TIP3    H2 4103   3.320   6.428   0.194
 1388TIP3   OH2 4104   0.341   2.746   5.968
 1388TIP3    H1 4105   0.249   2.755   5.946
 1388TIP3    H2 4106   0.381   2.828   5.937
 1389TIP3   OH2 4107   7.646   0.505   2.775
 1389TIP3    H1 4108   7.634   0.511   2.681
 1389TIP3    H2 4109   7.631   0.413   2.796
 1390TIP3   OH2 4110   2.802   4.537   2.575
 1390TIP3    H1 4111   2.886   4.582   2.577
 1390TIP3    H2 4112   2.737   4.607   2.585
 1391TIP3   OH2 4113   3.674   0.744   0.651
 1391TIP3    H1 4114   3.627   0.676   0.602
 1391TIP3    H2 4115   3.680   0.709   0.740
 1392TIP3   OH2 4116   5.984   0.178   0.265
 1392TIP3    H1 4117   5.950   0.147   0.349
 1392TIP3    H2 4118   5.915   0.154   0.202
 1393TIP3   OH2 4119   7.893   4.775   3.493
 1393TIP3    H1 4120   7.868   4.683   3.478
 1393TIP3    H2 4121   7.927   4.804   3.409
 1394TIP3   OH2 4122   7.575   0.466   1.362
 1394TIP3    H1 4123   7.515   0.537   1.382
 1394TIP3    H2 4124   7.617   0.445   1.445
 1395TIP3   OH2 4125   2.209   0.456   2.603
 1395TIP3    H1 4126   2.115   0.474   2.611
 1395TIP3    H2 4127   2.232   0.485   2.515
 1396TIP3   OH2 4128   7.162   4.187   0.138
 1396TIP3    H1 4129   7.167   4.199   0.233
 1396TIP3    H2 4130   7.200   4.266   0.101
 1397TIP3   OH2 4131   6.451   1.020   6.627
 1397TIP3    H1 4132   6.535   0.975   6.615
 1397TIP3    H2 4133   6.459   1.101   6.576
 1398TIP3   OH2 4134   3.169   7.540   5.968
 1398TIP3    H1 4135   3.080   7.544   5.933
 1398TIP3    H2 4136   3.226   7.544   5.891
 1399TIP3   OH2 4137   6.891   1.472   3.370
 1399TIP3    H1 4138   6.940   1.459   3.451
 1399TIP3    H2 4139   6.916   1.560   3.341
 1400TIP3   OH2 4140   8.312   2.592   6.359
 1400TIP3    H1 4141   8.248   2.663   6.353
 1400TIP3    H2 4142   8.392   2.635   6.389
 1401TIP3   OH2 4143   5.078   4.255   2.903
 1401TIP3    H1 4144   5.012   4.313   2.941
 1401TIP3    H2 4145   5.131   4.311   2.847
 1402TIP3   OH2 4146   1.661   7.597   0.686
 1402TIP3    H1 4147   1.688   7.678   0.643
 1402TIP3    H2 4148   1.620   7.545   0.616
 1403TIP3   OH2 4149   7.635   4.195   0.253
 1403TIP3    H1 4150   7.710   4.141   0.275
 1403TIP3    H2 4151   7.572   4.134   0.215
 1404TIP3   OH2 4152   1.944   0.382   3.297
 1404TIP3    H1 4153   2.024   0.344   3.332
 1404TIP3    H2 4154   1.962   0.394   3.204
 1405TIP3   OH2 4155   0.018   5.218   1.038
 1405TIP3    H1 4156   0.091   5.273   1.013
 1405TIP3    H2 4157   0.054   5.130   1.044
 1406TIP3   OH2 4158   1.911   6.241   6.437
 1406TIP3    H1 4159   1.953   6.155   6.439
 1406TIP3    H2 4160   1.824   6.224   6.401
 1407TIP3   OH2 4161   5.040   7.842   6.040
 1407TIP3    H1 4162   5.074   7.844   5.950
 1407TIP3    H2 4163   4.969   7.907   6.040
 1408TIP3   OH2 4164   2.796   2.917   2.610
 1408TIP3    H1 4165   2.701   2.922   2.597
 1408TIP3    H2 4166   2.833   2.963   2.535
 1409TIP3   OH2 4167   6.179   4.635   2.692
 1409TIP3    H1 4168   6.088   4.628   2.719
 1409TIP3    H2 4169   6.209   4.718   2.730
 1410TIP3   OH2 4170   4.176   5.097   0.604
 1410TIP3    H1 4171   4.136   5.035   0.543
 1410TIP3    H2 4172   4.243   5.046   0.650
 1411TIP3   OH2 4173   3.844   6.588   1.234
 1411TIP3    H1 4174   3.797   6.633   1.165
 1411TIP3    H2 4175   3.847   6.496   1.206
 1412TIP3   OH2 4176   2.614   3.194   3.912
 1412TIP3    H1 4177   2.536   3.169   3.963
 1412TIP3    H2 4178   2.640   3.113   3.868
 1413TIP3   OH2 4179   0.108   6.264   3.294
 1413TIP3    H1 4180   0.112   6.174   3.260
 1413TIP3    H2 4181   0.087   6.318   3.218
 1414TIP3   OH2 4182   6.791   5.410   3.183
 1414TIP3    H1 4183   6.750   5.395   3.268
 1414TIP3    H2 4184   6.884   5.392   3.198
 1415TIP3   OH2 4185   6.899   2.112   1.055
 1415TIP3    H1 4186   6.876   2.166   1.130
 1415TIP3    H2 4187   6.988   2.082   1.072
 1416TIP3   OH2 4188   1.952   7.445   4.542
 1416TIP3    H1 4189   1.967   7.362   4.498
 1416TIP3    H2 4190   2.035   7.493   4.533
 1417TIP3   OH2 4191   3.793   5.728   1.099
 1417TIP3    H1 4192   3.731   5.755   1.165
 1417TIP3    H2 4193   3.877   5.724   1.144
 1418TIP3   OH2 4194   1.952   6.646   2.017
 1418TIP3    H1 4195   2.027   6.636   2.075
 1418TIP3    H2 4196   1.990   6.663   1.931
 1419TIP3   OH2 4197   6.536   1.422   1.983
 1419TIP3    H1 4198   6.583   1.417   1.900
 1419TIP3    H2 4199   6.503   1.512   1.986
 1420TIP3   OH2 4200   2.135   6.400   6.402
 1420TIP3    H1 4201   2.192   6.368   6.332
 1420TIP3    H2 4202   2.078   6.326   6.422
 1421TIP3   OH2 4203   5.551   0.561   3.940
 1421TIP3    H1 4204   5.587   0.641   3.903
 1421TIP3    H2 4205   5.480   0.590   3.997
 1422TIP3   OH2 4206   1.659   5.210   6.279
 1422TIP3    H1 4207   1.621   5.134   6.234
 1422TIP3    H2 4208   1.677   5.273   6.209
 1423TIP3   OH2 4209   3.489   5.257   5.861
 1423TIP3    H1 4210   3.557   5.207   5.816
 1423TIP3    H2 4211   3.526   5.345   5.870
 1424TIP3   OH2 4212   6.531   6.325   0.650
 1424TIP3    H1 4213   6.499   6.321   0.740
 1424TIP3    H2 4214   6.564   6.414   0.639
 1425TIP3   OH2 4215   2.330   5.576   3.346
 1425TIP3    H1 4216   2.420   5.589   3.375
 1425TIP3    H2 4217   2.336   5.508   3.278
 1426TIP3   OH2 4218   6.269   1.590   2.925
 1426TIP3    H1 4219   6.174   1.585   2.929
 1426TIP3    H2 4220   6.293   1.652   2.994
 1427TIP3   OH2 4221   4.328   1.859   2.563
 1427TIP3    H1 4222   4.330   1.785   2.502
 1427TIP3    H2 4223   4.261   1.918   2.528
 1428TIP3   OH2 4224   5.215   3.641   3.144
 1428TIP3    H1 4225   5.183   3.551   3.159
 1428TIP3    H2 4226   5.303   3.642   3.182
 1429TIP3   OH2 4227   6.901   5.861   5.792
 1429TIP3    H1 4228   6.879   5.930   5.854
 1429TIP3    H2 4229   6.958   5.903   5.727
 1430TIP3   OH2 4230   4.389   7.644   6.099
 1430TIP3    H1 4231   4.462   7.703   6.120
 1430TIP3    H2 4232   4.313   7.684   6.140
 1431TIP3   OH2 4233   2.245   2.692   5.357
 1431TIP3    H1 4234   2.289   2.736   5.430
 1431TIP3    H2 4235   2.291   2.609   5.348
 1432TIP3   OH2 4236   0.078   1.762   2.018
 1432TIP3    H1 4237  -0.001   1.745   2.069
 1432TIP3    H2 4238   0.148   1.770   2.083
 1433TIP3   OH2 4239   4.990   5.798   1.179
 1433TIP3    H1 4240   4.996   5.889   1.149
 1433TIP3    H2 4241   4.912   5.763   1.136
 1434TIP3   OH2 4242   3.158   3.377   1.290
 1434TIP3    H1 4243   3.162   3.383   1.195
 1434TIP3    H2 4244   3.147   3.284   1.308
 1435TIP3   OH2 4245   7.262   6.423   4.043
 1435TIP3    H1 4246   7.232   6.459   3.959
 1435TIP3    H2 4247   7.183   6.391   4.085
 1436TIP3   OH2 4248   0.756   2.784   6.493
 1436TIP3    H1 4249   0.800   2.710   6.450
 1436TIP3    H2 4250   0.663   2.763   6.487
 1437TIP3   OH2 4251   0.179   5.067   5.296
 1437TIP3    H1 4252   0.118   5.088   5.367
 1437TIP3    H2 4253   0.200   5.152   5.256
 1438TIP3   OH2 4254   0.939   6.051   3.212
 1438TIP3    H1 4255   0.985   6.104   3.147
 1438TIP3    H2 4256   0.983   5.967   3.210
 1439TIP3   OH2 4257   6.266   5.124   1.457
 1439TIP3    H1 4258   6.176   5.137   1.488
 1439TIP3    H2 4259   6.320   5.131   1.535
 1440TIP3   OH2 4260   6.542   2.270   1.495
 1440TIP3    H1 4261   6.504   2.358   1.494
 1440TIP3    H2 4262   6.573   2.257   1.405
 1441TIP3   OH2 4263   6.454   4.388   3.532
 1441TIP3    H1 4264   6.367   4.422   3.554
 1441TIP3    H2 4265   6.506   4.401   3.611
 1442TIP3   OH2 4266   0.632   3.126   5.614
 1442TIP3    H1 4267   0.704   3.085   5.568
 1442TIP3    H2 4268   0.554   3.106   5.561
 1443TIP3   OH2 4269   5.599   1.425   6.622
 1443TIP3    H1 4270   5.667   1.399   6.560
 1443TIP3    H2 4271   5.621   1.515   6.647
 1444TIP3   OH2 4272   0.072   6.556   2.573
 1444TIP3    H1 4273   0.139   6.563   2.641
 1444TIP3    H2 4274   0.110   6.602   2.498
 1445TIP3   OH2 4275   3.853   7.505   6.264
 1445TIP3    H1 4276   3.830   7.578   6.321
 1445TIP3    H2 4277   3.774   7.488   6.213
 1446TIP3   OH2 4278   0.923   5.763   3.265
 1446TIP3    H1 4279   0.837   5.789   3.297
 1446TIP3    H2 4280   0.944   5.684   3.315
 1447TIP3   OH2 4281   7.698   5.200   1.755
 1447TIP3    H1 4282   7.618   5.244   1.727
 1447TIP3    H2 4283   7.744   5.266   1.808
 1448TIP3   OH2 4284   5.526   0.505   3.116
 1448TIP3    H1 4285   5.576   0.578   3.080
 1448TIP3    H2 4286   5.442   0.509   3.071
 1449TIP3   OH2 4287   5.259   6.289   3.725
 1449TIP3    H1 4288   5.289   6.218   3.781
 1449TIP3    H2 4289   5.332   6.306   3.666
 1450TIP3   OH2 4290   1.569   1.599   5.569
 1450TIP3    H1 4291   1.514   1.605   5.647
 1450TIP3    H2 4292   1.514   1.553   5.505
 1451TIP3   OH2 4293   6.492   4.707   2.160
 1451TIP3    H1 4294   6.493   4.703   2.064
 1451TIP3    H2 4295   6.405   4.676   2.184
 1452TIP3   OH2 4296   3.894   4.513   0.176
 1452TIP3    H1 4297   3.807   4.552   0.167
 1452TIP3    H2 4298   3.919   4.491   0.086
 1453TIP3   OH2 4299   6.919   1.176   0.718
 1453TIP3    H1 4300   6.927   1.108   0.785
 1453TIP3    H2 4301   6.978   1.245   0.746
 1454TIP3   OH2 4302   3.157   3.783   0.769
 1454TIP3    H1 4303   3.243   3.753   0.797
 1454TIP3    H2 4304   3.098   3.758   0.841
 1455TIP3   OH2 4305   3.196   5.874   3.616
 1455TIP3    H1 4306   3.237   5.863   3.530
 1455TIP3    H2 4307   3.268   5.864   3.678
 1456TIP3   OH2 4308   5.227   4.694   6.274
 1456TIP3    H1 4309   5.183   4.693   6.359
 1456TIP3    H2 4310   5.319   4.712   6.295
 1457TIP3   OH2 4311   7.329   6.506   6.349
 1457TIP3    H1 4312   7.420   6.490   6.375
 1457TIP3    H2 4313   7.305   6.587   6.394
 1458TIP3   OH2 4314   7.062   2.242   1.364
 1458TIP3    H1 4315   7.110   2.243   1.281
 1458TIP3    H2 4316   7.094   2.319   1.411
 1459TIP3   OH2 4317   0.549   0.298   3.217
 1459TIP3    H1 4318   0.456   0.279   3.209
 1459TIP3    H2 4319   0.553   0.390   3.242
 1460TIP3   OH2 4320   7.548   6.352   2.606
 1460TIP3    H1 4321   7.454   6.365   2.592
 1460TIP3    H2 4322   7.589   6.385   2.527
 1461TIP3   OH2 4323   6.715   3.546   4.717
 1461TIP3    H1 4324   6.692   3.592   4.636
 1461TIP3    H2 4325   6.776   3.605   4.761
 1462TIP3   OH2 4326   5.628   3.530   5.205
 1462TIP3    H1 4327   5.645   3.540   5.299
 1462TIP3    H2 4328   5.538   3.500   5.200
 1463TIP3   OH2 4329   2.310   3.752   6.686
 1463TIP3    H1 4330   2.264   3.698   6.750
 1463TIP3    H2 4331   2.401   3.753   6.716
 1464TIP3   OH2 4332   5.060   0.212   3.634
 1464TIP3    H1 4333   5.057   0.285   3.572
 1464TIP3    H2 4334   5.153   0.202   3.655
 1465TIP3   OH2 4335   7.219   2.014   2.927
 1465TIP3    H1 4336   7.187   1.930   2.961
 1465TIP3    H2 4337   7.313   2.012   2.944
 1466TIP3   OH2 4338   5.995   2.942   5.410
 1466TIP3    H1 4339   5.913   2.948   5.362
 1466TIP3    H2 4340   6.017   2.848   5.408
 1467TIP3   OH2 4341   5.058   6.995   6.588
 1467TIP3    H1 4342   5.060   6.974   6.495
 1467TIP3    H2 4343   5.119   6.933   6.628
 1468TIP3   OH2 4344   8.061   2.825   0.858
 1468TIP3    H1 4345   8.094   2.784   0.778
 1468TIP3    H2 4346   7.984   2.874   0.830
 1469TIP3   OH2 4347   8.205   4.699   1.145
 1469TIP3    H1 4348   8.132   4.689   1.205
 1469TIP3    H2 4349   8.259   4.767   1.184
 1470TIP3   OH2 4350   7.186   3.212   2.296
 1470TIP3    H1 4351   7.116   3.276   2.310
 1470TIP3    H2 4352   7.216   3.190   2.385
 1471TIP3   OH2 4353   6.775   6.180   5.614
 1471TIP3    H1 4354   6.831   6.111   5.580
 1471TIP3    H2 4355   6.687   6.145   5.609
 1472TIP3   OH2 4356   6.323   5.851   0.450
 1472TIP3    H1 4357   6.375   5.852   0.370
 1472TIP3    H2 4358   6.337   5.764   0.487
 1473TIP3   OH2 4359   0.272   2.706   0.852
 1473TIP3    H1 4360   0.232   2.752   0.926
 1473TIP3    H2 4361   0.331   2.642   0.893
 1474TIP3   OH2 4362   1.142   4.603   6.745
 1474TIP3    H1 4363   1.052   4.570   6.740
 1474TIP3    H2 4364   1.135   4.684   6.796
 1475TIP3   OH2 4365   5.829   1.256   0.836
 1475TIP3    H1 4366   5.790   1.205   0.765
 1475TIP3    H2 4367   5.879   1.324   0.792
 1476TIP3   OH2 4368   1.828   2.361   5.966
 1476TIP3    H1 4369   1.914   2.385   5.999
 1476TIP3    H2 4370   1.767   2.387   6.035
 1477TIP3   OH2 4371   5.108   6.145   4.221
 1477TIP3    H1 4372   5.082   6.218   4.166
 1477TIP3    H2 4373   5.171   6.182   4.283
 1478TIP3   OH2 4374   1.214   2.822   0.920
 1478TIP3    H1 4375   1.197   2.850   1.010
 1478TIP3    H2 4376   1.142   2.859   0.869
 1479TIP3   OH2 4377   4.643   2.353   0.007
 1479TIP3    H1 4378   4.712   2.416   0.028
 1479TIP3    H2 4379   4.688   2.269  -0.002
 1480TIP3   OH2 4380   5.822   6.343   1.750
 1480TIP3    H1 4381   5.784   6.290   1.821
 1480TIP3    H2 4382   5.781   6.429   1.759
 1481TIP3   OH2 4383   0.254   1.318   5.070
 1481TIP3    H1 4384   0.232   1.327   4.978
 1481TIP3    H2 4385   0.333   1.371   5.081
 1482TIP3   OH2 4386   3.168   6.689   1.740
 1482TIP3    H1 4387   3.242   6.725   1.691
 1482TIP3    H2 4388   3.122   6.766   1.774
 1483TIP3   OH2 4389   6.013   3.796   3.651
 1483TIP3    H1 4390   6.020   3.863   3.720
 1483TIP3    H2 4391   6.026   3.713   3.697
 1484TIP3   OH2 4392   0.074   6.365   1.765
 1484TIP3    H1 4393   0.134   6.351   1.691
 1484TIP3    H2 4394   0.125   6.415   1.828
 1485TIP3   OH2 4395   2.345   6.349   0.146
 1485TIP3    H1 4396   2.268   6.340   0.202
 1485TIP3    H2 4397   2.397   6.270   0.162
 1486TIP3   OH2 4398   3.292   2.254   6.508
 1486TIP3    H1 4399   3.232   2.263   6.582
 1486TIP3    H2 4400   3.263   2.173   6.464
 1487TIP3   OH2 4401   2.002   7.688   1.361
 1487TIP3    H1 4402   1.928   7.671   1.419
 1487TIP3    H2 4403   1.962   7.703   1.275
 1488TIP3   OH2 4404   4.649   6.191   1.841
 1488TIP3    H1 4405   4.744   6.183   1.831
 1488TIP3    H2 4406   4.612   6.128   1.779
 1489TIP3   OH2 4407   2.817   1.574   5.198
 1489TIP3    H1 4408   2.907   1.565   5.231
 1489TIP3    H2 4409   2.767   1.508   5.248
 1490TIP3   OH2 4410   2.074   5.357   1.897
 1490TIP3    H1 4411   2.051   5.269   1.928
 1490TIP3    H2 4412   2.145   5.384   1.956
 1491TIP3   OH2 4413   7.579   3.623   1.494
 1491TIP3    H1 4414   7.661   3.605   1.447
 1491TIP3    H2 4415   7.512   3.578   1.444
 1492TIP3   OH2 4416   1.579   5.890   4.666
 1492TIP3    H1 4417   1.550   5.891   4.757
 1492TIP3    H2 4418   1.595   5.798   4.648
 1493TIP3   OH2 4419   2.080   3.323   2.307
 1493TIP3    H1 4420   2.167   3.354   2.329
 1493TIP3    H2 4421   2.020   3.383   2.352
 1494TIP3   OH2 4422   7.125   2.875   5.581
 1494TIP3    H1 4423   7.055   2.859   5.518
 1494TIP3    H2 4424   7.110   2.965   5.611
 1495TIP3   OH2 4425   4.970   5.589   6.095
 1495TIP3    H1 4426   4.883   5.608   6.059
 1495TIP3    H2 4427   5.029   5.647   6.047
 1496TIP3   OH2 4428   0.229   6.125   0.325
 1496TIP3    H1 4429   0.142   6.158   0.303
 1496TIP3    H2 4430   0.287   6.166   0.260
 1497TIP3   OH2 4431   7.245   6.755   2.285
 1497TIP3    H1 4432   7.221   6.708   2.364
 1497TIP3    H2 4433   7.246   6.688   2.216
 1498TIP3   OH2 4434   7.125   6.006   3.210
 1498TIP3    H1 4435   7.113   6.098   3.185
 1498TIP3    H2 4436   7.046   5.983   3.259
 1499TIP3   OH2 4437   3.394   7.484   3.351
 1499TIP3    H1 4438   3.415   7.472   3.259
 1499TIP3    H2 4439   3.419   7.574   3.370
 1500TIP3   OH2 4440   5.565   5.420   4.069
 1500TIP3    H1 4441   5.590   5.458   3.985
 1500TIP3    H2 4442   5.490   5.473   4.097
 1501TIP3   OH2 4443   8.157   3.993   5.461
 1501TIP3    H1 4444   8.104   3.916   5.481
 1501TIP3    H2 4445   8.247   3.961   5.459
 1502TIP3   OH2 4446   8.296   5.835   6.164
 1502TIP3    H1 4447   8.247   5.823   6.082
 1502TIP3    H2 4448   8.293   5.749   6.207
 1503TIP3   OH2 4449   6.303   0.899   2.774
 1503TIP3    H1 4450   6.254   0.979   2.792
 1503TIP3    H2 4451   6.316   0.859   2.861
 1504TIP3   OH2 4452   0.062   7.680  -0.033
 1504TIP3    H1 4453   0.124   7.630   0.019
 1504TIP3    H2 4454   0.027   7.746   0.027
 1505TIP3   OH2 4455   7.369   4.499   2.673
 1505TIP3    H1 4456   7.322   4.581   2.658
 1505TIP3    H2 4457   7.321   4.456   2.744
 1506TIP3   OH2 4458   0.229   0.260   0.267
 1506TIP3    H1 4459   0.176   0.256   0.346
 1506TIP3    H2 4460   0.280   0.179   0.268
 1507TIP3   OH2 4461   5.139   0.444   0.449
 1507TIP3    H1 4462   5.145   0.475   0.540
 1507TIP3    H2 4463   5.167   0.519   0.396
 1508TIP3   OH2 4464   8.056   4.956   0.149
 1508TIP3    H1 4465   8.057   4.864   0.175
 1508TIP3    H2 4466   8.117   4.960   0.075
 1509TIP3   OH2 4467   7.525   1.153   1.779
 1509TIP3    H1 4468   7.514   1.243   1.810
 1509TIP3    H2 4469   7.466   1.146   1.705
 1510TIP3   OH2 4470   4.883   0.995   2.270
 1510TIP3    H1 4471   4.876   1.081   2.311
 1510TIP3    H2 4472   4.793   0.971   2.250
 1511TIP3   OH2 4473   3.147   2.923   4.689
 1511TIP3    H1 4474   3.237   2.913   4.658
 1511TIP3    H2 4475   3.093   2.904   4.612
 1512TIP3   OH2 4476   3.939   2.816   2.087
 1512TIP3    H1 4477   3.880   2.891   2.090
 1512TIP3    H2 4478   4.027   2.853   2.097
 1513TIP3   OH2 4479   5.667   5.088   5.394
 1513TIP3    H1 4480   5.600   5.023   5.416
 1513TIP3    H2 4481   5.622   5.152   5.340
 1514TIP3   OH2 4482   0.216   7.444   3.992
 1514TIP3    H1 4483   0.251   7.356   3.979
 1514TIP3    H2 4484   0.238   7.466   4.082
 1515TIP3   OH2 4485   4.169   3.542   0.934
 1515TIP3    H1 4486   4.145   3.597   1.009
 1515TIP3    H2 4487   4.100   3.476   0.929
 1516TIP3   OH2 4488   1.881   4.085   3.559
 1516TIP3    H1 4489   1.923   4.149   3.616
 1516TIP3    H2 4490   1.831   4.138   3.497
 1517TIP3   OH2 4491   7.404   6.812   4.851
 1517TIP3    H1 4492   7.346   6.751   4.806
 1517TIP3    H2 4493   7.470   6.757   4.893
 1518TIP3   OH2 4494   4.335   4.093   3.188
 1518TIP3    H1 4495   4.318   4.055   3.102
 1518TIP3    H2 4496   4.319   4.021   3.249
 1519TIP3   OH2 4497   7.436   5.239   2.716
 1519TIP3    H1 4498   7.460   5.326   2.685
 1519TIP3    H2 4499   7.514   5.209   2.764
 1520TIP3   OH2 4500   4.771   4.065   6.703
 1520TIP3    H1 4501   4.858   4.026   6.711
 1520TIP3    H2 4502   4.746   4.051   6.612
 1521TIP3   OH2 4503   6.560   5.149   0.164
 1521TIP3    H1 4504   6.604   5.208   0.103
 1521TIP3    H2 4505   6.618   5.145   0.240
 1522TIP3   OH2 4506   6.855   1.385   4.441
 1522TIP3    H1 4507   6.809   1.306   4.413
 1522TIP3    H2 4508   6.795   1.427   4.502
 1523TIP3   OH2 4509   1.946   3.636   0.654
 1523TIP3    H1 4510   1.963   3.693   0.729
 1523TIP3    H2 4511   1.856   3.657   0.628
 1524TIP3   OH2 4512   6.268   3.833   3.039
 1524TIP3    H1 4513   6.263   3.821   2.944
 1524TIP3    H2 4514   6.340   3.896   3.051
 1525TIP3   OH2 4515   3.171   1.177   5.843
 1525TIP3    H1 4516   3.096   1.136   5.884
 1525TIP3    H2 4517   3.242   1.114   5.852
 1526TIP3   OH2 4518   0.172   5.715   5.536
 1526TIP3    H1 4519   0.152   5.622   5.546
 1526TIP3    H2 4520   0.132   5.757   5.612
 1527TIP3   OH2 4521   4.433   6.271   2.827
 1527TIP3    H1 4522   4.528   6.278   2.830
 1527TIP3    H2 4523   4.401   6.356   2.860
 1528TIP3   OH2 4524   6.823   6.287   3.492
 1528TIP3    H1 4525   6.750   6.295   3.430
 1528TIP3    H2 4526   6.840   6.376   3.521
 1529TIP3   OH2 4527   5.156   4.617   0.825
 1529TIP3    H1 4528   5.251   4.616   0.817
 1529TIP3    H2 4529   5.124   4.589   0.739
 1530TIP3   OH2 4530   5.040   7.807   0.879
 1530TIP3    H1 4531   4.982   7.869   0.832
 1530TIP3    H2 4532   5.012   7.721   0.847
 1531TIP3   OH2 4533   0.125   6.728   6.691
 1531TIP3    H1 4534   0.199   6.678   6.656
 1531TIP3    H2 4535   0.075   6.664   6.742
 1532TIP3   OH2 4536   7.419   3.031   4.742
 1532TIP3    H1 4537   7.326   3.046   4.728
 1532TIP3    H2 4538   7.463   3.091   4.682
 1533TIP3   OH2 4539   2.389   7.910   4.672
 1533TIP3    H1 4540   2.435   7.848   4.615
 1533TIP3    H2 4541   2.432   7.901   4.757
 1534TIP3   OH2 4542   7.625   7.873   1.323
 1534TIP3    H1 4543   7.657   7.948   1.274
 1534TIP3    H2 4544   7.616   7.803   1.259
 1535TIP3   OH2 4545   6.632   7.940   4.084
 1535TIP3    H1 4546   6.607   7.879   4.014
 1535TIP3    H2 4547   6.631   7.887   4.163
 1536TIP3   OH2 4548   1.058   3.713   3.956
 1536TIP3    H1 4549   1.057   3.771   3.880
 1536TIP3    H2 4550   1.032   3.628   3.922
 1537TIP3   OH2 4551   7.902   7.279   4.229
 1537TIP3    H1 4552   7.961   7.215   4.270
 1537TIP3    H2 4553   7.817   7.264   4.271
 1538TIP3   OH2 4554   0.493   6.104   2.141
 1538TIP3    H1 4555   0.489   6.039   2.071
 1538TIP3    H2 4556   0.423   6.166   2.120
 1539TIP3   OH2 4557   1.760   7.758   6.642
 1539TIP3    H1 4558   1.775   7.705   6.564
 1539TIP3    H2 4559   1.747   7.847   6.609
 1540TIP3   OH2 4560   6.561   7.768   3.880
 1540TIP3    H1 4561   6.530   7.811   3.800
 1540TIP3    H2 4562   6.570   7.676   3.856
 1541TIP3   OH2 4563   4.386   7.383   1.960
 1541TIP3    H1 4564   4.401   7.380   1.865
 1541TIP3    H2 4565   4.418   7.469   1.987
 1542TIP3   OH2 4566   5.617   5.496   1.114
 1542TIP3    H1 4567   5.617   5.561   1.043
 1542TIP3    H2 4568   5.706   5.460   1.114
 1543TIP3   OH2 4569   1.816   1.297   1.164
 1543TIP3    H1 4570   1.721   1.294   1.172
 1543TIP3    H2 4571   1.848   1.274   1.251
 1544TIP3   OH2 4572   1.105   4.411   4.784
 1544TIP3    H1 4573   1.132   4.503   4.783
 1544TIP3    H2 4574   1.183   4.362   4.760
 1545TIP3   OH2 4575   6.770   3.914   3.415
 1545TIP3    H1 4576   6.691   3.949   3.375
 1545TIP3    H2 4577   6.840   3.972   3.384
 1546TIP3   OH2 4578   3.505   6.101   0.649
 1546TIP3    H1 4579   3.568   6.159   0.691
 1546TIP3    H2 4580   3.558   6.044   0.592
 1547TIP3   OH2 4581   5.510   2.154   1.260
 1547TIP3    H1 4582   5.507   2.210   1.183
 1547TIP3    H2 4583   5.596   2.113   1.257
 1548TIP3   OH2 4584   4.914   4.457   3.021
 1548TIP3    H1 4585   4.945   4.523   3.082
 1548TIP3    H2 4586   4.839   4.498   2.978
 1549TIP3   OH2 4587   6.509   6.359   2.415
 1549TIP3    H1 4588   6.416   6.350   2.435
 1549TIP3    H2 4589   6.527   6.452   2.424
 1550TIP3   OH2 4590   6.936   1.654   5.935
 1550TIP3    H1 4591   6.966   1.705   5.860
 1550TIP3    H2 4592   6.846   1.682   5.949
 1551TIP3   OH2 4593   4.614   2.176   2.040
 1551TIP3    H1 4594   4.549   2.235   2.080
 1551TIP3    H2 4595   4.582   2.162   1.951
 1552TIP3   OH2 4596   7.804   0.307   2.549
 1552TIP3    H1 4597   7.867   0.301   2.621
 1552TIP3    H2 4598   7.844   0.259   2.477
 1553TIP3   OH2 4599   7.366   4.908   4.931
 1553TIP3    H1 4600   7.386   4.969   4.860
 1553TIP3    H2 4601   7.284   4.865   4.905
 1554TIP3   OH2 4602   4.343   7.702   4.264
 1554TIP3    H1 4603   4.420   7.758   4.247
 1554TIP3    H2 4604   4.286   7.717   4.189
 1555TIP3   OH2 4605   5.408   5.028   0.692
 1555TIP3    H1 4606   5.373   5.094   0.752
 1555TIP3    H2 4607   5.402   5.068   0.606
 1556TIP3   OH2 4608   5.578   7.111   1.487
 1556TIP3    H1 4609   5.670   7.140   1.481
 1556TIP3    H2 4610   5.556   7.086   1.397
 1557TIP3   OH2 4611   5.748   6.699   2.525
 1557TIP3    H1 4612   5.730   6.776   2.580
 1557TIP3    H2 4613   5.799   6.641   2.581
 1558TIP3   OH2 4614   3.316   0.651   1.210
 1558TIP3    H1 4615   3.386   0.585   1.209
 1558TIP3    H2 4616   3.236   0.601   1.193
 1559TIP3   OH2 4617   2.997   0.712   1.291
 1559TIP3    H1 4618   2.998   0.757   1.206
 1559TIP3    H2 4619   2.934   0.762   1.343
 1560TIP3   OH2 4620   8.077   3.923   1.682
 1560TIP3    H1 4621   8.093   3.834   1.713
 1560TIP3    H2 4622   7.984   3.939   1.701
 1561TIP3   OH2 4623   8.360   4.784   2.555
 1561TIP3    H1 4624   8.298   4.758   2.487
 1561TIP3    H2 4625   8.340   4.877   2.571
 1562TIP3   OH2 4626   2.192   3.061   2.306
 1562TIP3    H1 4627   2.145   3.141   2.330
 1562TIP3    H2 4628   2.167   2.998   2.372
 1563TIP3   OH2 4629   0.790   4.028   5.810
 1563TIP3    H1 4630   0.773   4.060   5.721
 1563TIP3    H2 4631   0.785   4.106   5.865
 1564TIP3   OH2 4632   5.916   3.588   2.068
 1564TIP3    H1 4633   5.937   3.525   2.000
 1564TIP3    H2 4634   5.826   3.613   2.051
 1565TIP3   OH2 4635   6.163   7.422   3.728
 1565TIP3    H1 4636   6.180   7.360   3.658
 1565TIP3    H2 4637   6.090   7.384   3.777
 1566TIP3   OH2 4638   6.625   5.184   6.229
 1566TIP3    H1 4639   6.534   5.156   6.238
 1566TIP3    H2 4640   6.640   5.187   6.135
 1567TIP3   OH2 4641   1.258   3.900   1.221
 1567TIP3    H1 4642   1.304   3.971   1.176
 1567TIP3    H2 4643   1.328   3.844   1.255
 1568TIP3   OH2 4644   3.287   5.342   0.009
 1568TIP3    H1 4645   3.291   5.415   0.071
 1568TIP3    H2 4646   3.311   5.266   0.061
 1569TIP3   OH2 4647   4.660   0.884   0.875
 1569TIP3    H1 4648   4.682   0.836   0.795
 1569TIP3    H2 4649   4.565   0.894   0.872
 1570TIP3   OH2 4650   7.449   6.935   2.488
 1570TIP3    H1 4651   7.355   6.944   2.471
 1570TIP3    H2 4652   7.481   7.024   2.498
 1571TIP3   OH2 4653   1.169   5.198   1.050
 1571TIP3    H1 4654   1.112   5.207   1.126
 1571TIP3    H2 4655   1.130   5.127   0.999
 1572TIP3   OH2 4656   7.879   2.783   6.705
 1572TIP3    H1 4657   7.833   2.866   6.692
 1572TIP3    H2 4658   7.958   2.790   6.651
 1573TIP3   OH2 4659   2.102   6.931   2.936
 1573TIP3    H1 4660   2.127   6.845   2.901
 1573TIP3    H2 4661   2.050   6.971   2.866
 1574TIP3   OH2 4662   3.880   6.622   2.922
 1574TIP3    H1 4663   3.788   6.625   2.950
 1574TIP3    H2 4664   3.878   6.644   2.829
 1575TIP3   OH2 4665   4.203   6.192   1.836
 1575TIP3    H1 4666   4.285   6.241   1.841
 1575TIP3    H2 4667   4.197   6.147   1.921
 1576TIP3   OH2 4668   4.077   7.612   3.649
 1576TIP3    H1 4669   3.989   7.629   3.682
 1576TIP3    H2 4670   4.078   7.519   3.628
 1577TIP3   OH2 4671   0.072   3.525   1.433
 1577TIP3    H1 4672   0.013   3.480   1.495
 1577TIP3    H2 4673   0.063   3.617   1.455
 1578TIP3   OH2 4674   0.552   6.903   0.457
 1578TIP3    H1 4675   0.607   6.922   0.381
 1578TIP3    H2 4676   0.527   6.812   0.446
 1579TIP3   OH2 4677   4.559   4.515   4.863
 1579TIP3    H1 4678   4.613   4.492   4.938
 1579TIP3    H2 4679   4.521   4.432   4.835
 1580TIP3   OH2 4680   7.916   7.570   4.940
 1580TIP3    H1 4681   7.823   7.546   4.930
 1580TIP3    H2 4682   7.962   7.486   4.934
 1581TIP3   OH2 4683   3.718   7.449   0.678
 1581TIP3    H1 4684   3.719   7.392   0.755
 1581TIP3    H2 4685   3.807   7.483   0.672
 1582TIP3   OH2 4686   7.921   4.025   0.529
 1582TIP3    H1 4687   7.975   3.990   0.458
 1582TIP3    H2 4688   7.833   3.989   0.512
 1583TIP3   OH2 4689   0.483   4.027   6.438
 1583TIP3    H1 4690   0.388   4.026   6.429
 1583TIP3    H2 4691   0.509   3.935   6.428
 1584TIP3   OH2 4692   3.288   2.610   3.555
 1584TIP3    H1 4693   3.319   2.603   3.465
 1584TIP3    H2 4694   3.358   2.658   3.600
 1585TIP3   OH2 4695   1.172   7.320   1.009
 1585TIP3    H1 4696   1.265   7.338   1.024
 1585TIP3    H2 4697   1.136   7.310   1.097
 1586TIP3   OH2 4698   1.273   1.311   2.140
 1586TIP3    H1 4699   1.286   1.255   2.216
 1586TIP3    H2 4700   1.178   1.324   2.135
 1587TIP3   OH2 4701   3.620   7.836   6.769
 1587TIP3    H1 4702   3.564   7.845   6.846
 1587TIP3    H2 4703   3.668   7.918   6.764
 1588TIP3   OH2 4704   5.546   0.525   2.711
 1588TIP3    H1 4705   5.593   0.469   2.773
 1588TIP3    H2 4706   5.515   0.465   2.643
 1589TIP3   OH2 4707   3.976   6.523   5.722
 1589TIP3    H1 4708   3.996   6.449   5.779
 1589TIP3    H2 4709   3.951   6.594   5.781
 1590TIP3   OH2 4710   7.902   5.509   0.569
 1590TIP3    H1 4711   7.993   5.498   0.540
 1590TIP3    H2 4712   7.880   5.426   0.610
 1591TIP3   OH2 4713   6.357   7.011   3.827
 1591TIP3    H1 4714   6.348   6.924   3.865
 1591TIP3    H2 4715   6.336   7.071   3.898
 1592TIP3   OH2 4716   5.792   3.111   0.648
 1592TIP3    H1 4717   5.709   3.072   0.623
 1592TIP3    H2 4718   5.835   3.045   0.702
 1593TIP3   OH2 4719   5.227   5.040   0.273
 1593TIP3    H1 4720   5.233   5.067   0.365
 1593TIP3    H2 4721   5.318   5.042   0.242
 1594TIP3   OH2 4722   5.373   7.874   4.169
 1594TIP3    H1 4723   5.304   7.858   4.105
 1594TIP3    H2 4724   5.435   7.932   4.125
 1595TIP3   OH2 4725   1.394   6.917   0.156
 1595TIP3    H1 4726   1.405   6.877   0.070
 1595TIP3    H2 4727   1.312   6.968   0.149
 1596TIP3   OH2 4728   4.182   3.682   2.097
 1596TIP3    H1 4729   4.086   3.676   2.103
 1596TIP3    H2 4730   4.212   3.592   2.108
 1597TIP3   OH2 4731   0.781   1.095   6.238
 1597TIP3    H1 4732   0.700   1.125   6.196
 1597TIP3    H2 4733   0.836   1.066   6.166
 1598TIP3   OH2 4734   7.625   0.226   5.040
 1598TIP3    H1 4735   7.705   0.235   5.090
 1598TIP3    H2 4736   7.601   0.133   5.047
 1599TIP3   OH2 4737   5.154   4.149   6.554
 1599TIP3    H1 4738   5.160   4.240   6.583
 1599TIP3    H2 4739   5.082   4.148   6.491
 1600TIP3   OH2 4740   4.698   4.649   2.204
 1600TIP3    H1 4741   4.787   4.633   2.173
 1600TIP3    H2 4742   4.645   4.581   2.162
 1601TIP3   OH2 4743   3.931   1.471   5.833
 1601TIP3    H1 4744   3.965   1.431   5.913
 1601TIP3    H2 4745   3.890   1.552   5.863
 1602TIP3   OH2 4746   5.938   2.048   4.584
 1602TIP3    H1 4747   6.015   2.019   4.632
 1602TIP3    H2 4748   5.919   2.135   4.619
 1603TIP3   OH2 4749   4.871   7.152   3.188
 1603TIP3    H1 4750   4.800   7.211   3.164
 1603TIP3    H2 4751   4.853   7.128   3.279
 1604TIP3   OH2 4752   6.702   3.858   0.806
 1604TIP3    H1 4753   6.787   3.823   0.832
 1604TIP3    H2 4754   6.715   3.889   0.716
 1605TIP3   OH2 4755   3.384   6.667   2.855
 1605TIP3    H1 4756   3.348   6.755   2.866
 1605TIP3    H2 4757   3.463   6.667   2.910
 1606TIP3   OH2 4758   8.194   4.123   1.511
 1606TIP3    H1 4759   8.155   4.052   1.561
 1606TIP3    H2 4760   8.288   4.116   1.529
 1607TIP3   OH2 4761   5.884   6.481   3.737
 1607TIP3    H1 4762   5.824   6.418   3.696
 1607TIP3    H2 4763   5.835   6.514   3.812
 1608TIP3   OH2 4764   5.557   0.799   4.168
 1608TIP3    H1 4765   5.626   0.737   4.193
 1608TIP3    H2 4766   5.579   0.879   4.216
 1609TIP3   OH2 4767   3.259   2.848   3.860
 1609TIP3    H1 4768   3.246   2.941   3.840
 1609TIP3    H2 4769   3.316   2.816   3.790
 1610TIP3   OH2 4770   7.306   4.406   2.924
 1610TIP3    H1 4771   7.400   4.424   2.926
 1610TIP3    H2 4772   7.289   4.356   3.004
 1611TIP3   OH2 4773   6.445   3.726   0.807
 1611TIP3    H1 4774   6.539   3.744   0.803
 1611TIP3    H2 4775   6.440   3.632   0.825
 1612TIP3   OH2 4776   4.457   1.210   5.409
 1612TIP3    H1 4777   4.385   1.148   5.400
 1612TIP3    H2 4778   4.415   1.293   5.430
 1613TIP3   OH2 4779   1.930   5.069   4.794
 1613TIP3    H1 4780   1.848   5.033   4.759
 1613TIP3    H2 4781   1.922   5.058   4.889
 1614TIP3   OH2 4782   3.816   0.555   5.696
 1614TIP3    H1 4783   3.872   0.625   5.663
 1614TIP3    H2 4784   3.860   0.523   5.775
 1615TIP3   OH2 4785   5.366   4.589   2.051
 1615TIP3    H1 4786   5.461   4.589   2.064
 1615TIP3    H2 4787   5.355   4.570   1.958
 1616TIP3   OH2 4788   5.593   2.941   0.552
 1616TIP3    H1 4789   5.645   2.902   0.483
 1616TIP3    H2 4790   5.546   3.013   0.510
 1617TIP3   OH2 4791   7.271   3.089   3.165
 1617TIP3    H1 4792   7.239   3.043   3.087
 1617TIP3    H2 4793   7.212   3.163   3.176
 1618TIP3   OH2 4794   3.783   2.477   5.750
 1618TIP3    H1 4795   3.802   2.498   5.658
 1618TIP3    H2 4796   3.819   2.389   5.762
 1619TIP3   OH2 4797   8.391   2.954   4.054
 1619TIP3    H1 4798   8.323   3.013   4.088
 1619TIP3    H2 4799   8.373   2.949   3.960
 1620TIP3   OH2 4800   6.497   2.950   2.406
 1620TIP3    H1 4801   6.491   2.921   2.315
 1620TIP3    H2 4802   6.577   3.003   2.408
 1621TIP3   OH2 4803   7.349   6.238   1.917
 1621TIP3    H1 4804   7.338   6.144   1.932
 1621TIP3    H2 4805   7.260   6.271   1.904
 1622TIP3   OH2 4806   5.568   4.883   4.025
 1622TIP3    H1 4807   5.481   4.877   4.064
 1622TIP3    H2 4808   5.614   4.807   4.059
 1623TIP3   OH2 4809   6.069   1.241   1.377
 1623TIP3    H1 4810   6.034   1.301   1.442
 1623TIP3    H2 4811   6.143   1.287   1.338
 1624TIP3   OH2 4812   1.915   1.140   5.234
 1624TIP3    H1 4813   2.001   1.164   5.202
 1624TIP3    H2 4814   1.908   1.046   5.216
 1625TIP3   OH2 4815   8.243   1.146   5.377
 1625TIP3    H1 4816   8.224   1.082   5.445
 1625TIP3    H2 4817   8.312   1.105   5.324
 1626TIP3   OH2 4818   5.852   1.869   5.266
 1626TIP3    H1 4819   5.871   1.947   5.215
 1626TIP3    H2 4820   5.890   1.797   5.216
 1627TIP3   OH2 4821   3.488   7.020   4.959
 1627TIP3    H1 4822   3.397   7.005   4.934
 1627TIP3    H2 4823   3.538   6.966   4.898
 1628TIP3   OH2 4824   4.603   7.696   5.836
 1628TIP3    H1 4825   4.616   7.613   5.791
 1628TIP3    H2 4826   4.509   7.713   5.828
 1629TIP3   OH2 4827   0.128   0.543   6.349
 1629TIP3    H1 4828   0.180   0.622   6.335
 1629TIP3    H2 4829   0.141   0.521   6.441
 1630TIP3   OH2 4830   1.019   4.437   3.530
 1630TIP3    H1 4831   1.042   4.523   3.494
 1630TIP3    H2 4832   0.973   4.393   3.458
 1631TIP3   OH2 4833   0.566   0.594   6.692
 1631TIP3    H1 4834   0.591   0.569   6.603
 1631TIP3    H2 4835   0.618   0.537   6.749
 1632TIP3   OH2 4836   3.844   2.862   0.921
 1632TIP3    H1 4837   3.848   2.850   1.016
 1632TIP3    H2 4838   3.755   2.835   0.897
 1633TIP3   OH2 4839   7.200   1.641   0.053
 1633TIP3    H1 4840   7.250   1.603   0.126
 1633TIP3    H2 4841   7.246   1.610  -0.025
 1634TIP3   OH2 4842   5.679   4.168   4.773
 1634TIP3    H1 4843   5.602   4.221   4.757
 1634TIP3    H2 4844   5.698   4.180   4.866
 1635TIP3   OH2 4845   4.297   3.498   5.516
 1635TIP3    H1 4846   4.255   3.546   5.588
 1635TIP3    H2 4847   4.316   3.566   5.451
 1636TIP3   OH2 4848   4.026   4.671   6.357
 1636TIP3    H1 4849   4.090   4.710   6.298
 1636TIP3    H2 4850   4.060   4.687   6.445
 1637TIP3   OH2 4851   8.264   7.763   2.968
 1637TIP3    H1 4852   8.359   7.756   2.963
 1637TIP3    H2 4853   8.232   7.676   2.942
 1638TIP3   OH2 4854   5.438   5.222   4.812
 1638TIP3    H1 4855   5.373   5.292   4.801
 1638TIP3    H2 4856   5.492   5.250   4.886
 1639TIP3   OH2 4857   3.078   7.234   2.774
 1639TIP3    H1 4858   3.147   7.168   2.781
 1639TIP3    H2 4859   3.098   7.296   2.844
 1640TIP3   OH2 4860   2.580   5.323   2.956
 1640TIP3    H1 4861   2.617   5.319   3.044
 1640TIP3    H2 4862   2.651   5.297   2.899
 1641TIP3   OH2 4863   4.457   7.205   5.008
 1641TIP3    H1 4864   4.411   7.273   4.960
 1641TIP3    H2 4865   4.396   7.179   5.077
 1642TIP3   OH2 4866   2.571   3.672   1.344
 1642TIP3    H1 4867   2.607   3.706   1.425
 1642TIP3    H2 4868   2.630   3.601   1.319
 1643TIP3   OH2 4869   3.999   5.299   6.715
 1643TIP3    H1 4870   3.982   5.256   6.799
 1643TIP3    H2 4871   3.913   5.302   6.673
 1644TIP3   OH2 4872   7.171   6.138   3.545
 1644TIP3    H1 4873   7.181   6.201   3.475
 1644TIP3    H2 4874   7.255   6.091   3.548
 1645TIP3   OH2 4875   7.090   3.312   3.580
 1645TIP3    H1 4876   7.167   3.259   3.602
 1645TIP3    H2 4877   7.025   3.249   3.549
 1646TIP3   OH2 4878   1.561   3.239   2.545
 1646TIP3    H1 4879   1.529   3.297   2.476
 1646TIP3    H2 4880   1.609   3.171   2.498
 1647TIP3   OH2 4881   2.330   5.800   6.549
 1647TIP3    H1 4882   2.408   5.764   6.508
 1647TIP3    H2 4883   2.283   5.843   6.478
 1648TIP3   OH2 4884   7.929   2.834   4.264
 1648TIP3    H1 4885   7.851   2.784   4.291
 1648TIP3    H2 4886   7.978   2.773   4.209
 1649TIP3   OH2 4887   1.399   5.696   0.863
 1649TIP3    H1 4888   1.390   5.650   0.946
 1649TIP3    H2 4889   1.318   5.678   0.816
 1650TIP3   OH2 4890   6.119   4.999   2.480
 1650TIP3    H1 4891   6.150   5.089   2.485
 1650TIP3    H2 4892   6.057   4.990   2.553
 1651TIP3   OH2 4893   1.828   6.531   0.138
 1651TIP3    H1 4894   1.870   6.470   0.078
 1651TIP3    H2 4895   1.770   6.477   0.192
 1652TIP3   OH2 4896   5.253   6.819   6.686
 1652TIP3    H1 4897   5.222   6.790   6.772
 1652TIP3    H2 4898   5.343   6.787   6.682
 1653TIP3   OH2 4899   3.880   7.130   6.247
 1653TIP3    H1 4900   3.954   7.154   6.190
 1653TIP3    H2 4901   3.917   7.130   6.335
 1654TIP3   OH2 4902   3.093   0.326   2.197
 1654TIP3    H1 4903   3.166   0.386   2.186
 1654TIP3    H2 4904   3.124   0.242   2.163
 1655TIP3   OH2 4905   1.585   0.679   5.148
 1655TIP3    H1 4906   1.523   0.683   5.220
 1655TIP3    H2 4907   1.546   0.734   5.080
 1656TIP3   OH2 4908   8.073   3.026   2.565
 1656TIP3    H1 4909   7.979   3.013   2.578
 1656TIP3    H2 4910   8.106   2.939   2.541
 1657TIP3   OH2 4911   2.640   7.658   2.067
 1657TIP3    H1 4912   2.705   7.645   2.136
 1657TIP3    H2 4913   2.684   7.713   2.002
 1658TIP3   OH2 4914   6.603   2.731   2.563
 1658TIP3    H1 4915   6.568   2.805   2.514
 1658TIP3    H2 4916   6.545   2.722   2.639
 1659TIP3   OH2 4917   4.593   4.721   6.335
 1659TIP3    H1 4918   4.571   4.664   6.261
 1659TIP3    H2 4919   4.509   4.753   6.366
 1660TIP3   OH2 4920   3.582   3.578   3.521
 1660TIP3    H1 4921   3.639   3.652   3.544
 1660TIP3    H2 4922   3.616   3.546   3.438
 1661TIP3   OH2 4923   3.239   5.019   5.778
 1661TIP3    H1 4924   3.283   4.993   5.859
 1661TIP3    H2 4925   3.186   5.094   5.803
 1662TIP3   OH2 4926   3.579   2.436   4.681
 1662TIP3    H1 4927   3.557   2.369   4.617
 1662TIP3    H2 4928   3.670   2.417   4.704
 1663TIP3   OH2 4929   8.198   0.202   5.187
 1663TIP3    H1 4930   8.179   0.294   5.205
 1663TIP3    H2 4931   8.161   0.154   5.261
 1664TIP3   OH2 4932   6.987   4.485   0.226
 1664TIP3    H1 4933   7.079   4.509   0.229
 1664TIP3    H2 4934   6.954   4.505   0.314
 1665TIP3   OH2 4935   2.139   0.719   0.674
 1665TIP3    H1 4936   2.135   0.718   0.770
 1665TIP3    H2 4937   2.074   0.655   0.647
 1666TIP3   OH2 4938   7.123   2.366   3.475
 1666TIP3    H1 4939   7.058   2.415   3.525
 1666TIP3    H2 4940   7.159   2.429   3.413
 1667TIP3   OH2 4941   5.089   5.597   4.930
 1667TIP3    H1 4942   4.994   5.603   4.940
 1667TIP3    H2 4943   5.124   5.610   5.018
 1668TIP3   OH2 4944   7.050   0.422   1.528
 1668TIP3    H1 4945   7.056   0.515   1.505
 1668TIP3    H2 4946   7.105   0.413   1.606
 1669TIP3   OH2 4947   7.759   2.991   5.580
 1669TIP3    H1 4948   7.731   3.048   5.508
 1669TIP3    H2 4949   7.722   3.032   5.658
 1670TIP3   OH2 4950   7.376   0.419   6.439
 1670TIP3    H1 4951   7.465   0.437   6.409
 1670TIP3    H2 4952   7.387   0.361   6.514
 1671TIP3   OH2 4953   2.929   1.725   3.742
 1671TIP3    H1 4954   2.990   1.755   3.809
 1671TIP3    H2 4955   2.927   1.797   3.678
 1672TIP3   OH2 4956   4.895   1.145   4.587
 1672TIP3    H1 4957   4.938   1.065   4.617
 1672TIP3    H2 4958   4.958   1.215   4.607
 1673TIP3   OH2 4959   8.240   1.600   1.634
 1673TIP3    H1 4960   8.150   1.628   1.647
 1673TIP3    H2 4961   8.292   1.665   1.682
 1674TIP3   OH2 4962   0.773   1.730   3.995
 1674TIP3    H1 4963   0.701   1.783   4.028
 1674TIP3    H2 4964   0.780   1.754   3.902
 1675TIP3   OH2 4965   2.590   1.508   0.762
 1675TIP3    H1 4966   2.663   1.450   0.743
 1675TIP3    H2 4967   2.613   1.550   0.845
 1676TIP3   OH2 4968   5.121   1.074   5.094
 1676TIP3    H1 4969   5.070   1.036   5.165
 1676TIP3    H2 4970   5.058   1.125   5.043
 1677TIP3   OH2 4971   1.105   1.667   1.087
 1677TIP3    H1 4972   1.105   1.695   1.178
 1677TIP3    H2 4973   1.184   1.706   1.050
 1678TIP3   OH2 4974   6.637   4.618   4.108
 1678TIP3    H1 4975   6.609   4.679   4.176
 1678TIP3    H2 4976   6.707   4.665   4.062
 1679TIP3   OH2 4977   2.840   5.809   3.258
 1679TIP3    H1 4978   2.875   5.851   3.337
 1679TIP3    H2 4979   2.917   5.796   3.202
 1680TIP3   OH2 4980   5.296   5.261   6.768
 1680TIP3    H1 4981   5.266   5.186   6.717
 1680TIP3    H2 4982   5.347   5.223   6.839
 1681TIP3   OH2 4983   1.266   2.355   3.607
 1681TIP3    H1 4984   1.335   2.356   3.673
 1681TIP3    H2 4985   1.262   2.264   3.578
 1682TIP3   OH2 4986   7.184   1.074   3.999
 1682TIP3    H1 4987   7.163   1.027   4.080
 1682TIP3    H2 4988   7.118   1.044   3.936
 1683TIP3   OH2 4989   1.863   7.144   2.556
 1683TIP3    H1 4990   1.771   7.164   2.538
 1683TIP3    H2 4991   1.905   7.230   2.563
 1684TIP3   OH2 4992   6.398   4.102   1.916
 1684TIP3    H1 4993   6.314   4.122   1.956
 1684TIP3    H2 4994   6.378   4.085   1.824
 1685TIP3   OH2 4995   3.632   2.524   2.297
 1685TIP3    H1 4996   3.636   2.518   2.392
 1685TIP3    H2 4997   3.549   2.484   2.274
 1686TIP3   OH2 4998   7.748   5.725   3.392
 1686TIP3    H1 4999   7.758   5.657   3.458
 1686TIP3    H2 5000   7.689   5.686   3.326
 1687TIP3   OH2 5001   1.972   3.474   5.483
 1687TIP3    H1 5002   1.944   3.564   5.465
 1687TIP3    H2 5003   2.068   3.478   5.484
 1688TIP3   OH2 5004   5.203   2.842   2.858
 1688TIP3    H1 5005   5.131   2.865   2.916
 1688TIP3    H2 5006   5.235   2.926   2.825
 1689TIP3   OH2 5007   2.342   7.726   3.299
 1689TIP3    H1 5008   2.358   7.809   3.344
 1689TIP3    H2 5009   2.397   7.730   3.221
 1690TIP3   OH2 5010   8.063   0.425  -0.027
 1690TIP3    H1 5011   8.090   0.512   0.001
 1690TIP3    H2 5012   8.092   0.367   0.043
 1691TIP3   OH2 5013   3.355   3.849   1.721
 1691TIP3    H1 5014   3.290   3.854   1.651
 1691TIP3    H2 5015   3.427   3.799   1.683
 1692TIP3   OH2 5016   4.363   7.791   4.554
 1692TIP3    H1 5017   4.328   7.843   4.626
 1692TIP3    H2 5018   4.293   7.790   4.488
 1693TIP3   OH2 5019   2.702   4.595   4.037
 1693TIP3    H1 5020   2.657   4.665   4.084
 1693TIP3    H2 5021   2.690   4.518   4.093
 1694TIP3   OH2 5022   4.249   1.335   6.364
 1694TIP3    H1 5023   4.252   1.239   6.359
 1694TIP3    H2 5024   4.197   1.353   6.442
 1695TIP3   OH2 5025   2.346   2.518   3.962
 1695TIP3    H1 5026   2.253   2.518   3.986
 1695TIP3    H2 5027   2.352   2.454   3.891
 1696TIP3   OH2 5028   2.213   7.402   0.799
 1696TIP3    H1 5029   2.119   7.417   0.799
 1696TIP3    H2 5030   2.231   7.359   0.882
 1697TIP3   OH2 5031   4.711   5.499   1.964
 1697TIP3    H1 5032   4.736   5.564   1.899
 1697TIP3    H2 5033   4.651   5.440   1.918
 1698TIP3   OH2 5034   4.321   4.282   1.438
 1698TIP3    H1 5035   4.274   4.335   1.373
 1698TIP3    H2 5036   4.397   4.335   1.461
 1699TIP3   OH2 5037   3.516   4.567   0.577
 1699TIP3    H1 5038   3.422   4.567   0.562
 1699TIP3    H2 5039   3.526   4.601   0.666
 1700TIP3   OH2 5040   4.906   1.143   4.317
 1700TIP3    H1 5041   4.852   1.215   4.285
 1700TIP3    H2 5042   4.900   1.149   4.412
 1701TIP3   OH2 5043   3.581   5.075   0.516
 1701TIP3    H1 5044   3.595   5.155   0.566
 1701TIP3    H2 5045   3.488   5.055   0.528
 1702TIP3   OH2 5046   3.542   4.048   3.768
 1702TIP3    H1 5047   3.562   4.112   3.700
 1702TIP3    H2 5048   3.592   3.970   3.743
 1703TIP3   OH2 5049   1.341   2.514   1.808
 1703TIP3    H1 5050   1.360   2.478   1.721
 1703TIP3    H2 5051   1.273   2.579   1.792
 1704TIP3   OH2 5052   6.898   7.360   3.576
 1704TIP3    H1 5053   6.857   7.275   3.561
 1704TIP3    H2 5054   6.844   7.402   3.643
 1705TIP3   OH2 5055   5.685   3.490   1.895
 1705TIP3    H1 5056   5.690   3.507   1.801
 1705TIP3    H2 5057   5.610   3.432   1.906
 1706TIP3   OH2 5058   5.967   6.176   5.062
 1706TIP3    H1 5059   6.041   6.122   5.092
 1706TIP3    H2 5060   5.992   6.202   4.973
 1707TIP3   OH2 5061   0.405   1.150   4.813
 1707TIP3    H1 5062   0.367   1.201   4.741
 1707TIP3    H2 5063   0.497   1.140   4.789
 1708TIP3   OH2 5064   2.808   2.349   6.569
 1708TIP3    H1 5065   2.765   2.430   6.540
 1708TIP3    H2 5066   2.821   2.362   6.663
 1709TIP3   OH2 5067   0.125   0.461   4.994
 1709TIP3    H1 5068   0.041   0.502   4.976
 1709TIP3    H2 5069   0.105   0.368   5.004
 1710TIP3   OH2 5070   7.913   3.544   5.302
 1710TIP3    H1 5071   7.981   3.530   5.236
 1710TIP3    H2 5072   7.857   3.612   5.265
 1711TIP3   OH2 5073   6.790   5.858   4.901
 1711TIP3    H1 5074   6.698   5.840   4.920
 1711TIP3    H2 5075   6.816   5.788   4.841
 1712TIP3   OH2 5076   7.713   3.156   0.855
 1712TIP3    H1 5077   7.794   3.135   0.809
 1712TIP3    H2 5078   7.649   3.170   0.786
 1713TIP3   OH2 5079   7.544   5.637   5.288
 1713TIP3    H1 5080   7.516   5.600   5.372
 1713TIP3    H2 5081   7.586   5.565   5.242
 1714TIP3   OH2 5082   4.658   2.828   4.496
 1714TIP3    H1 5083   4.601   2.785   4.433
 1714TIP3    H2 5084   4.685   2.757   4.555
 1715TIP3   OH2 5085   0.951   4.328   6.750
 1715TIP3    H1 5086   1.027   4.295   6.799
 1715TIP3    H2 5087   0.982   4.336   6.660
 1716TIP3   OH2 5088   6.384   0.396   6.330
 1716TIP3    H1 5089   6.437   0.333   6.281
 1716TIP3    H2 5090   6.409   0.481   6.294
 1717TIP3   OH2 5091   3.604   2.666   3.240
 1717TIP3    H1 5092   3.525   2.630   3.279
 1717TIP3    H2 5093   3.614   2.619   3.157
 1718TIP3   OH2 5094   6.255   4.680   3.564
 1718TIP3    H1 5095   6.302   4.758   3.594
 1718TIP3    H2 5096   6.220   4.641   3.644
 1719TIP3   OH2 5097   5.600   6.115   6.346
 1719TIP3    H1 5098   5.642   6.039   6.304
 1719TIP3    H2 5099   5.533   6.143   6.283
 1720TIP3   OH2 5100   4.230   5.086   4.355
 1720TIP3    H1 5101   4.290   5.081   4.280
 1720TIP3    H2 5102   4.148   5.117   4.317
 1721TIP3   OH2 5103   6.158   6.190   0.593
 1721TIP3    H1 5104   6.208   6.151   0.665
 1721TIP3    H2 5105   6.080   6.226   0.635
 1722TIP3   OH2 5106   5.702   5.727   4.025
 1722TIP3    H1 5107   5.662   5.807   4.059
 1722TIP3    H2 5108   5.717   5.672   4.101
 1723TIP3   OH2 5109   6.566   5.614   1.241
 1723TIP3    H1 5110   6.555   5.678   1.170
 1723TIP3    H2 5111   6.556   5.529   1.198
 1724TIP3   OH2 5112   0.438   7.159   3.317
 1724TIP3    H1 5113   0.412   7.068   3.327
 1724TIP3    H2 5114   0.359   7.209   3.337
 1725TIP3   OH2 5115   4.801   7.682   2.324
 1725TIP3    H1 5116   4.888   7.708   2.353
 1725TIP3    H2 5117   4.809   7.588   2.306
 1726TIP3   OH2 5118   1.794   1.526   1.690
 1726TIP3    H1 5119   1.887   1.539   1.675
 1726TIP3    H2 5120   1.789   1.463   1.762
 1727TIP3   OH2 5121   5.576   2.929   4.204
 1727TIP3    H1 5122   5.608   2.969   4.123
 1727TIP3    H2 5123   5.545   3.003   4.256
 1728TIP3   OH2 5124   7.095   4.043   4.038
 1728TIP3    H1 5125   7.081   4.138   4.038
 1728TIP3    H2 5126   7.131   4.025   4.125
 1729TIP3   OH2 5127   2.190   3.970   1.087
 1729TIP3    H1 5128   2.134   4.034   1.132
 1729TIP3    H2 5129   2.196   4.003   0.997
 1730TIP3   OH2 5130   2.485   4.166   3.308
 1730TIP3    H1 5131   2.405   4.218   3.304
 1730TIP3    H2 5132   2.461   4.080   3.274
 1731TIP3   OH2 5133   6.588   0.764   0.954
 1731TIP3    H1 5134   6.539   0.714   1.019
 1731TIP3    H2 5135   6.573   0.718   0.871
 1732TIP3   OH2 5136   2.082   7.684   4.201
 1732TIP3    H1 5137   2.061   7.777   4.208
 1732TIP3    H2 5138   1.998   7.641   4.189
 1733TIP3   OH2 5139   2.615   7.459   5.137
 1733TIP3    H1 5140   2.602   7.455   5.042
 1733TIP3    H2 5141   2.682   7.394   5.154
 1734TIP3   OH2 5142   3.881   0.241   3.353
 1734TIP3    H1 5143   3.855   0.215   3.442
 1734TIP3    H2 5144   3.924   0.163   3.318
 1735TIP3   OH2 5145   0.134   0.224   4.224
 1735TIP3    H1 5146   0.201   0.272   4.271
 1735TIP3    H2 5147   0.178   0.144   4.193
 1736TIP3   OH2 5148   7.461   0.597   5.899
 1736TIP3    H1 5149   7.434   0.506   5.889
 1736TIP3    H2 5150   7.383   0.647   5.874
 1737TIP3   OH2 5151   1.615   5.274   0.841
 1737TIP3    H1 5152   1.571   5.226   0.911
 1737TIP3    H2 5153   1.655   5.207   0.787
 1738TIP3   OH2 5154   2.047   1.337   0.316
 1738TIP3    H1 5155   1.986   1.360   0.246
 1738TIP3    H2 5156   2.065   1.420   0.361
 1739TIP3   OH2 5157   1.142   3.678   2.431
 1739TIP3    H1 5158   1.058   3.660   2.473
 1739TIP3    H2 5159   1.203   3.692   2.503
 1740TIP3   OH2 5160   3.599   6.672   3.627
 1740TIP3    H1 5161   3.511   6.665   3.591
 1740TIP3    H2 5162   3.587   6.700   3.718
 1741TIP3   OH2 5163   8.299   5.619   0.934
 1741TIP3    H1 5164   8.281   5.525   0.936
 1741TIP3    H2 5165   8.382   5.628   0.981
 1742TIP3   OH2 5166   6.912   3.003   2.048
 1742TIP3    H1 5167   6.888   2.948   2.122
 1742TIP3    H2 5168   7.005   3.023   2.062
 1743TIP3   OH2 5169   5.401   0.565   0.027
 1743TIP3    H1 5170   5.384   0.518  -0.054
 1743TIP3    H2 5171   5.317   0.602   0.052
 1744TIP3   OH2 5172   6.725   6.319  -0.017
 1744TIP3    H1 5173   6.708   6.381   0.055
 1744TIP3    H2 5174   6.788   6.257   0.020
 1745TIP3   OH2 5175   2.564   0.173   0.411
 1745TIP3    H1 5176   2.600   0.204   0.329
 1745TIP3    H2 5177   2.507   0.244   0.441
 1746TIP3   OH2 5178   0.698   0.652   5.855
 1746TIP3    H1 5179   0.688   0.600   5.775
 1746TIP3    H2 5180   0.677   0.742   5.828
 1747TIP3   OH2 5181   3.898   7.930   5.068
 1747TIP3    H1 5182   3.813   7.887   5.077
 1747TIP3    H2 5183   3.948   7.875   5.008
 1748TIP3   OH2 5184   0.948   6.948   0.104
 1748TIP3    H1 5185   0.989   6.897   0.174
 1748TIP3    H2 5186   1.007   7.021   0.089
 1749TIP3   OH2 5187   4.434   7.831   1.484
 1749TIP3    H1 5188   4.454   7.790   1.400
 1749TIP3    H2 5189   4.487   7.784   1.547
 1750TIP3   OH2 5190   4.727   6.315   1.364
 1750TIP3    H1 5191   4.767   6.400   1.382
 1750TIP3    H2 5192   4.741   6.302   1.270
 1751TIP3   OH2 5193   6.437   5.862   4.363
 1751TIP3    H1 5194   6.376   5.859   4.289
 1751TIP3    H2 5195   6.405   5.935   4.416
 1752TIP3   OH2 5196   3.813   7.680   3.728
 1752TIP3    H1 5197   3.724   7.686   3.693
 1752TIP3    H2 5198   3.816   7.745   3.798
 1753TIP3   OH2 5199   2.308   1.846   4.196
 1753TIP3    H1 5200   2.394   1.878   4.224
 1753TIP3    H2 5201   2.296   1.765   4.244
 1754TIP3   OH2 5202   1.078   2.403   0.992
 1754TIP3    H1 5203   1.016   2.355   0.936
 1754TIP3    H2 5204   1.163   2.363   0.975
 1755TIP3   OH2 5205   5.446   7.075   4.999
 1755TIP3    H1 5206   5.439   7.171   4.999
 1755TIP3    H2 5207   5.360   7.045   5.026
 1756TIP3   OH2 5208   7.487   1.142   0.035
 1756TIP3    H1 5209   7.444   1.067   0.075
 1756TIP3    H2 5210   7.575   1.112   0.015
 1757TIP3   OH2 5211   8.140   3.158   2.885
 1757TIP3    H1 5212   8.083   3.082   2.873
 1757TIP3    H2 5213   8.206   3.150   2.817
 1758TIP3   OH2 5214   4.512   0.432   2.946
 1758TIP3    H1 5215   4.482   0.465   2.861
 1758TIP3    H2 5216   4.475   0.492   3.010
 1759TIP3   OH2 5217   2.618   5.685   5.108
 1759TIP3    H1 5218   2.707   5.662   5.137
 1759TIP3    H2 5219   2.569   5.603   5.116
 1760TIP3   OH2 5220   1.713   0.406   1.582
 1760TIP3    H1 5221   1.692   0.375   1.670
 1760TIP3    H2 5222   1.805   0.383   1.569
 1761TIP3   OH2 5223   2.362   4.462   3.916
 1761TIP3    H1 5224   2.397   4.407   3.986
 1761TIP3    H2 5225   2.313   4.402   3.860
 1762TIP3   OH2 5226   1.845   0.604   6.755
 1762TIP3    H1 5227   1.783   0.672   6.727
 1762TIP3    H2 5228   1.790   0.526   6.767
 1763TIP3   OH2 5229   0.930   0.663   0.845
 1763TIP3    H1 5230   1.001   0.698   0.792
 1763TIP3    H2 5231   0.850   0.692   0.800
 1764TIP3   OH2 5232   7.480   6.401   3.395
 1764TIP3    H1 5233   7.521   6.459   3.331
 1764TIP3    H2 5234   7.547   6.335   3.415
 1765TIP3   OH2 5235   7.247   7.148   4.649
 1765TIP3    H1 5236   7.301   7.158   4.727
 1765TIP3    H2 5237   7.285   7.207   4.585
 1766TIP3   OH2 5238   4.006   5.865   6.292
 1766TIP3    H1 5239   3.978   5.925   6.362
 1766TIP3    H2 5240   4.089   5.828   6.323
 1767TIP3   OH2 5241   3.837   4.975   0.598
 1767TIP3    H1 5242   3.870   5.060   0.629
 1767TIP3    H2 5243   3.775   4.997   0.528
 1768TIP3   OH2 5244   8.119   6.707   6.471
 1768TIP3    H1 5245   8.081   6.783   6.515
 1768TIP3    H2 5246   8.071   6.632   6.506
 1769TIP3   OH2 5247   7.013   6.944   5.571
 1769TIP3    H1 5248   6.946   6.983   5.626
 1769TIP3    H2 5249   6.978   6.950   5.482
 1770TIP3   OH2 5250   5.315   6.530   6.047
 1770TIP3    H1 5251   5.322   6.466   5.976
 1770TIP3    H2 5252   5.375   6.600   6.023
 1771TIP3   OH2 5253   2.197   3.719   2.109
 1771TIP3    H1 5254   2.284   3.721   2.149
 1771TIP3    H2 5255   2.192   3.801   2.060
 1772TIP3   OH2 5256   3.789   5.033   0.987
 1772TIP3    H1 5257   3.857   5.067   1.045
 1772TIP3    H2 5258   3.802   5.081   0.905
 1773TIP3   OH2 5259   2.309   6.965   0.918
 1773TIP3    H1 5260   2.314   6.885   0.866
 1773TIP3    H2 5261   2.217   6.974   0.939
 1774TIP3   OH2 5262   6.432   1.500   6.240
 1774TIP3    H1 5263   6.525   1.514   6.257
 1774TIP3    H2 5264   6.430   1.421   6.186
 1775TIP3   OH2 5265   2.380   0.161   3.452
 1775TIP3    H1 5266   2.337   0.091   3.500
 1775TIP3    H2 5267   2.438   0.116   3.390
 1776TIP3   OH2 5268   6.862   1.479   2.326
 1776TIP3    H1 5269   6.845   1.568   2.360
 1776TIP3    H2 5270   6.793   1.426   2.365
 1777TIP3   OH2 5271   2.717   0.112   4.378
 1777TIP3    H1 5272   2.649   0.074   4.435
 1777TIP3    H2 5273   2.752   0.037   4.330
 1778TIP3   OH2 5274   3.998   6.657   0.581
 1778TIP3    H1 5275   3.926   6.629   0.637
 1778TIP3    H2 5276   4.043   6.725   0.631
 1779TIP3   OH2 5277   1.956   7.385   2.608
 1779TIP3    H1 5278   2.020   7.450   2.577
 1779TIP3    H2 5279   1.877   7.437   2.627
 1780TIP3   OH2 5280   4.722   4.117   2.829
 1780TIP3    H1 5281   4.756   4.182   2.768
 1780TIP3    H2 5282   4.638   4.152   2.857
 1781TIP3   OH2 5283   2.302   6.295   5.068
 1781TIP3    H1 5284   2.335   6.205   5.067
 1781TIP3    H2 5285   2.373   6.347   5.031
 1782TIP3   OH2 5286   4.621   1.776   4.250
 1782TIP3    H1 5287   4.575   1.740   4.326
 1782TIP3    H2 5288   4.578   1.859   4.233
 1783TIP3   OH2 5289   7.725   7.099   0.435
 1783TIP3    H1 5290   7.684   7.079   0.519
 1783TIP3    H2 5291   7.662   7.067   0.370
 1784TIP3   OH2 5292   6.138   6.322   3.579
 1784TIP3    H1 5293   6.136   6.341   3.485
 1784TIP3    H2 5294   6.231   6.325   3.602
 1785TIP3   OH2 5295   0.750   4.698   1.808
 1785TIP3    H1 5296   0.683   4.684   1.741
 1785TIP3    H2 5297   0.732   4.787   1.841
 1786TIP3   OH2 5298   4.971   3.258   2.864
 1786TIP3    H1 5299   4.897   3.256   2.804
 1786TIP3    H2 5300   4.950   3.327   2.927
 1787TIP3   OH2 5301   7.785   1.266   1.682
 1787TIP3    H1 5302   7.771   1.279   1.589
 1787TIP3    H2 5303   7.704   1.225   1.713
 1788TIP3   OH2 5304   1.685   2.934   5.859
 1788TIP3    H1 5305   1.657   2.955   5.770
 1788TIP3    H2 5306   1.697   3.020   5.901
 1789TIP3   OH2 5307   5.847   3.841   5.449
 1789TIP3    H1 5308   5.936   3.816   5.425
 1789TIP3    H2 5309   5.797   3.760   5.447
 1790TIP3   OH2 5310   2.080   4.084   3.101
 1790TIP3    H1 5311   2.120   4.170   3.086
 1790TIP3    H2 5312   2.148   4.034   3.147
 1791TIP3   OH2 5313   6.273   6.608   6.800
 1791TIP3    H1 5314   6.243   6.517   6.804
 1791TIP3    H2 5315   6.291   6.623   6.707
 1792TIP3   OH2 5316   5.801   3.703   3.097
 1792TIP3    H1 5317   5.874   3.669   3.045
 1792TIP3    H2 5318   5.821   3.796   3.109
 1793TIP3   OH2 5319   3.867   3.454   6.266
 1793TIP3    H1 5320   3.902   3.415   6.346
 1793TIP3    H2 5321   3.940   3.455   6.205
 1794TIP3   OH2 5322   2.544   3.146   1.635
 1794TIP3    H1 5323   2.629   3.102   1.631
 1794TIP3    H2 5324   2.564   3.239   1.629
 1795TIP3   OH2 5325   8.346   1.150   6.726
 1795TIP3    H1 5326   8.380   1.176   6.812
 1795TIP3    H2 5327   8.356   1.055   6.723
 1796TIP3   OH2 5328   2.060   1.601   1.954
 1796TIP3    H1 5329   2.078   1.695   1.954
 1796TIP3    H2 5330   2.084   1.573   2.042
 1797TIP3   OH2 5331   1.454   7.358   0.690
 1797TIP3    H1 5332   1.492   7.384   0.606
 1797TIP3    H2 5333   1.516   7.293   0.725
 1798TIP3   OH2 5334   4.263   3.154   1.333
 1798TIP3    H1 5335   4.230   3.107   1.256
 1798TIP3    H2 5336   4.242   3.097   1.407
 1799TIP3   OH2 5337   4.473   0.106   2.387
 1799TIP3    H1 5338   4.540   0.156   2.434
 1799TIP3    H2 5339   4.507   0.017   2.383
 1800TIP3   OH2 5340   5.742   4.979   3.368
 1800TIP3    H1 5341   5.814   4.966   3.306
 1800TIP3    H2 5342   5.691   4.898   3.363
 1801TIP3   OH2 5343   6.660   6.743   5.355
 1801TIP3    H1 5344   6.665   6.777   5.265
 1801TIP3    H2 5345   6.751   6.739   5.384
 1802TIP3   OH2 5346   2.972   2.355   2.018
 1802TIP3    H1 5347   2.931   2.270   2.001
 1802TIP3    H2 5348   3.066   2.336   2.020
 1803TIP3   OH2 5349   7.147   4.986   6.301
 1803TIP3    H1 5350   7.059   4.957   6.278
 1803TIP3    H2 5351   7.168   4.937   6.380
 1804TIP3   OH2 5352   1.777   1.877   4.263
 1804TIP3    H1 5353   1.865   1.841   4.268
 1804TIP3    H2 5354   1.789   1.972   4.273
 1805TIP3   OH2 5355   2.688   3.959   6.468
 1805TIP3    H1 5356   2.725   4.024   6.409
 1805TIP3    H2 5357   2.606   3.997   6.498
 1806TIP3   OH2 5358   5.835   4.208   3.637
 1806TIP3    H1 5359   5.882   4.220   3.555
 1806TIP3    H2 5360   5.904   4.205   3.704
 1807TIP3   OH2 5361   7.663   0.239   0.273
 1807TIP3    H1 5362   7.655   0.186   0.194
 1807TIP3    H2 5363   7.579   0.283   0.281
 1808TIP3   OH2 5364   0.760   3.690   5.874
 1808TIP3    H1 5365   0.780   3.650   5.790
 1808TIP3    H2 5366   0.843   3.732   5.901
 1809TIP3   OH2 5367   4.923   7.417   2.256
 1809TIP3    H1 5368   5.005   7.449   2.219
 1809TIP3    H2 5369   4.942   7.326   2.282
 1810TIP3   OH2 5370   7.511   0.081   5.609
 1810TIP3    H1 5371   7.471   0.003   5.571
 1810TIP3    H2 5372   7.559   0.048   5.685
 1811TIP3   OH2 5373   7.611   6.602   0.366
 1811TIP3    H1 5374   7.572   6.515   0.374
 1811TIP3    H2 5375   7.695   6.587   0.321
 1812TIP3   OH2 5376   1.824   3.480   3.172
 1812TIP3    H1 5377   1.821   3.411   3.106
 1812TIP3    H2 5378   1.741   3.526   3.162
 1813TIP3   OH2 5379   1.102   3.385   1.519
 1813TIP3    H1 5380   1.088   3.425   1.434
 1813TIP3    H2 5381   1.080   3.454   1.582
 1814TIP3   OH2 5382   0.409   4.348   5.397
 1814TIP3    H1 5383   0.339   4.397   5.353
 1814TIP3    H2 5384   0.452   4.413   5.453
 1815TIP3   OH2 5385   4.105   1.558   4.985
 1815TIP3    H1 5386   4.176   1.494   4.997
 1815TIP3    H2 5387   4.040   1.534   5.051
 1816TIP3   OH2 5388   6.484   0.730   3.381
 1816TIP3    H1 5389   6.421   0.799   3.405
 1816TIP3    H2 5390   6.429   0.653   3.367
 1817TIP3   OH2 5391   7.149   3.385   0.181
 1817TIP3    H1 5392   7.115   3.308   0.134
 1817TIP3    H2 5393   7.244   3.374   0.179
 1818TIP3   OH2 5394   0.149   6.256   3.932
 1818TIP3    H1 5395   0.074   6.223   3.983
 1818TIP3    H2 5396   0.188   6.323   3.988
 1819TIP3   OH2 5397   4.228   7.517   2.487
 1819TIP3    H1 5398   4.192   7.546   2.402
 1819TIP3    H2 5399   4.189   7.431   2.501
 1820TIP3   OH2 5400   1.172   3.334   5.924
 1820TIP3    H1 5401   1.256   3.378   5.932
 1820TIP3    H2 5402   1.170   3.303   5.833
 1821TIP3   OH2 5403   0.795   5.174   2.764
 1821TIP3    H1 5404   0.741   5.250   2.743
 1821TIP3    H2 5405   0.783   5.114   2.690
 1822TIP3   OH2 5406   6.241   3.738   2.000
 1822TIP3    H1 5407   6.191   3.815   1.971
 1822TIP3    H2 5408   6.226   3.673   1.932
 1823TIP3   OH2 5409   1.021   5.204   2.957
 1823TIP3    H1 5410   1.090   5.145   2.928
 1823TIP3    H2 5411   0.948   5.189   2.897
 1824TIP3   OH2 5412   3.926   6.444   5.478
 1824TIP3    H1 5413   3.935   6.476   5.568
 1824TIP3    H2 5414   4.003   6.390   5.463
 1825TIP3   OH2 5415   6.690   5.760   0.922
 1825TIP3    H1 5416   6.768   5.755   0.867
 1825TIP3    H2 5417   6.715   5.818   0.994
 1826TIP3   OH2 5418   2.720   2.910   5.458
 1826TIP3    H1 5419   2.687   2.972   5.523
 1826TIP3    H2 5420   2.790   2.958   5.413
 1827TIP3   OH2 5421   0.918   3.752   6.588
 1827TIP3    H1 5422   0.921   3.806   6.667
 1827TIP3    H2 5423   0.951   3.667   6.617
 1828TIP3   OH2 5424   1.824   1.291   1.827
 1828TIP3    H1 5425   1.901   1.281   1.883
 1828TIP3    H2 5426   1.752   1.309   1.889
 1829TIP3   OH2 5427   6.520   0.168   0.764
 1829TIP3    H1 5428   6.431   0.134   0.774
 1829TIP3    H2 5429   6.515   0.259   0.793
 1830TIP3   OH2 5430   3.183   0.000   0.504
 1830TIP3    H1 5431   3.118  -0.033   0.566
 1830TIP3    H2 5432   3.177   0.095   0.511
 1831TIP3   OH2 5433   3.900   6.929   1.149
 1831TIP3    H1 5434   3.830   6.977   1.193
 1831TIP3    H2 5435   3.928   6.987   1.078
 1832TIP3   OH2 5436   2.489   2.448   1.388
 1832TIP3    H1 5437   2.458   2.519   1.444
 1832TIP3    H2 5438   2.534   2.388   1.448
 1833TIP3   OH2 5439   2.459   4.914   4.810
 1833TIP3    H1 5440   2.536   4.874   4.769
 1833TIP3    H2 5441   2.409   4.840   4.844
 1834TIP3   OH2 5442   3.045   4.830   5.700
 1834TIP3    H1 5443   3.128   4.866   5.730
 1834TIP3    H2 5444   2.991   4.825   5.779
 1835TIP3   OH2 5445   7.624   7.590   4.624
 1835TIP3    H1 5446   7.533   7.587   4.595
 1835TIP3    H2 5447   7.628   7.529   4.697
 1836TIP3   OH2 5448   1.202   5.901   0.143
 1836TIP3    H1 5449   1.170   5.835   0.082
 1836TIP3    H2 5450   1.273   5.858   0.190
 1837TIP3   OH2 5451   1.555   2.198   5.992
 1837TIP3    H1 5452   1.515   2.284   6.004
 1837TIP3    H2 5453   1.552   2.184   5.897
 1838TIP3   OH2 5454   7.060   6.867   4.669
 1838TIP3    H1 5455   7.051   6.958   4.639
 1838TIP3    H2 5456   6.999   6.860   4.743
 1839TIP3   OH2 5457   3.432   2.939   4.634
 1839TIP3    H1 5458   3.458   2.916   4.544
 1839TIP3    H2 5459   3.433   3.035   4.635
 1840TIP3   OH2 5460   1.709   3.110   1.853
 1840TIP3    H1 5461   1.685   3.021   1.876
 1840TIP3    H2 5462   1.709   3.158   1.936
 1841TIP3   OH2 5463   7.725   5.967   5.788
 1841TIP3    H1 5464   7.637   6.004   5.791
 1841TIP3    H2 5465   7.736   5.923   5.873
 1842TIP3   OH2 5466   5.653   3.108   1.125
 1842TIP3    H1 5467   5.617   3.135   1.041
 1842TIP3    H2 5468   5.622   3.174   1.188
 1843TIP3   OH2 5469   0.887   0.502   3.997
 1843TIP3    H1 5470   0.966   0.453   4.020
 1843TIP3    H2 5471   0.818   0.463   4.051
 1844TIP3   OH2 5472   1.455   6.430   5.433
 1844TIP3    H1 5473   1.374   6.380   5.423
 1844TIP3    H2 5474   1.425   6.517   5.460
 1845TIP3   OH2 5475   3.595   4.413   1.546
 1845TIP3    H1 5476   3.588   4.319   1.531
 1845TIP3    H2 5477   3.641   4.421   1.629
 1846TIP3   OH2 5478   7.190   0.284   0.690
 1846TIP3    H1 5479   7.175   0.331   0.608
 1846TIP3    H2 5480   7.223   0.350   0.750
 1847TIP3   OH2 5481   3.624   1.084   4.731
 1847TIP3    H1 5482   3.652   1.135   4.655
 1847TIP3    H2 5483   3.557   1.139   4.773
 1848TIP3   OH2 5484   1.485   7.689   3.106
 1848TIP3    H1 5485   1.511   7.768   3.154
 1848TIP3    H2 5486   1.389   7.688   3.112
 1849TIP3   OH2 5487   1.370   2.977   1.164
 1849TIP3    H1 5488   1.386   2.997   1.072
 1849TIP3    H2 5489   1.442   3.020   1.211
 1850TIP3   OH2 5490   4.847   1.047   2.914
 1850TIP3    H1 5491   4.805   1.094   2.842
 1850TIP3    H2 5492   4.856   1.112   2.984
 1851TIP3   OH2 5493   4.574   1.229   3.037
 1851TIP3    H1 5494   4.542   1.166   2.973
 1851TIP3    H2 5495   4.605   1.303   2.985
 1852TIP3   OH2 5496   3.820   7.757   6.457
 1852TIP3    H1 5497   3.744   7.813   6.439
 1852TIP3    H2 5498   3.883   7.780   6.389
 1853TIP3   OH2 5499   6.889   5.399   4.477
 1853TIP3    H1 5500   6.912   5.465   4.542
 1853TIP3    H2 5501   6.913   5.316   4.517
 1854TIP3   OH2 5502   0.103   1.983   0.991
 1854TIP3    H1 5503   0.193   2.016   0.987
 1854TIP3    H2 5504   0.103   1.907   0.933
 1855TIP3   OH2 5505   5.475   3.231   4.884
 1855TIP3    H1 5506   5.451   3.312   4.929
 1855TIP3    H2 5507   5.531   3.259   4.812
 1856TIP3   OH2 5508   8.364   1.284   2.286
 1856TIP3    H1 5509   8.301   1.346   2.322
 1856TIP3    H2 5510   8.406   1.245   2.363
 1857TIP3   OH2 5511   1.499   6.268   3.335
 1857TIP3    H1 5512   1.423   6.327   3.329
 1857TIP3    H2 5513   1.516   6.262   3.429
 1858TIP3   OH2 5514   0.310   6.535   1.801
 1858TIP3    H1 5515   0.242   6.591   1.763
 1858TIP3    H2 5516   0.391   6.585   1.791
 1859TIP3   OH2 5517   4.138   6.852   6.005
 1859TIP3    H1 5518   4.050   6.815   6.004
 1859TIP3    H2 5519   4.154   6.879   5.914
 1860TIP3   OH2 5520   7.242   5.973   4.203
 1860TIP3    H1 5521   7.290   5.993   4.123
 1860TIP3    H2 5522   7.255   6.049   4.259
 1861TIP3   OH2 5523   0.651   6.992   0.204
 1861TIP3    H1 5524   0.599   7.073   0.209
 1861TIP3    H2 5525   0.740   7.022   0.186
 1862TIP3   OH2 5526   2.723   5.344   6.215
 1862TIP3    H1 5527   2.662   5.416   6.200
 1862TIP3    H2 5528   2.808   5.386   6.224
 1863TIP3   OH2 5529   6.570   7.858   6.274
 1863TIP3    H1 5530   6.538   7.826   6.190
 1863TIP3    H2 5531   6.641   7.918   6.252
 1864TIP3   OH2 5532   1.658   6.929   4.811
 1864TIP3    H1 5533   1.700   6.869   4.872
 1864TIP3    H2 5534   1.681   7.017   4.843
 1865TIP3   OH2 5535   2.766   2.541   4.138
 1865TIP3    H1 5536   2.839   2.484   4.163
 1865TIP3    H2 5537   2.690   2.483   4.139
 1866TIP3   OH2 5538   2.417   6.964   0.142
 1866TIP3    H1 5539   2.495   6.927   0.099
 1866TIP3    H2 5540   2.352   6.894   0.136
 1867TIP3   OH2 5541   6.708   0.372   6.841
 1867TIP3    H1 5542   6.699   0.407   6.752
 1867TIP3    H2 5543   6.771   0.301   6.832
 1868TIP3   OH2 5544   7.592   2.152   0.703
 1868TIP3    H1 5545   7.567   2.065   0.671
 1868TIP3    H2 5546   7.581   2.147   0.798
 1869TIP3   OH2 5547   4.438   5.946   5.311
 1869TIP3    H1 5548   4.465   5.857   5.287
 1869TIP3    H2 5549   4.504   5.975   5.374
 1870TIP3   OH2 5550   2.489   3.365   0.912
 1870TIP3    H1 5551   2.425   3.294   0.912
 1870TIP3    H2 5552   2.441   3.441   0.879
 1871TIP3   OH2 5553   4.223   0.043   3.208
 1871TIP3    H1 5554   4.277   0.055   3.286
 1871TIP3    H2 5555   4.254   0.110   3.147
 1872TIP3   OH2 5556   4.567   0.264   3.177
 1872TIP3    H1 5557   4.554   0.329   3.109
 1872TIP3    H2 5558   4.576   0.315   3.258
 1873TIP3   OH2 5559   1.225   1.387   0.832
 1873TIP3    H1 5560   1.182   1.303   0.814
 1873TIP3    H2 5561   1.155   1.445   0.859
 1874TIP3   OH2 5562   4.383   0.823   2.836
 1874TIP3    H1 5563   4.326   0.888   2.877
 1874TIP3    H2 5564   4.419   0.772   2.909
 1875TIP3   OH2 5565   2.245   5.264   4.497
 1875TIP3    H1 5566   2.200   5.262   4.413
 1875TIP3    H2 5567   2.212   5.187   4.544
 1876TIP3   OH2 5568   4.881   6.542   1.388
 1876TIP3    H1 5569   4.899   6.571   1.299
 1876TIP3    H2 5570   4.967   6.531   1.428
 1877TIP3   OH2 5571   8.202   5.772   5.096
 1877TIP3    H1 5572   8.270   5.759   5.162
 1877TIP3    H2 5573   8.120   5.766   5.144
 1878TIP3   OH2 5574   8.368   0.394   5.700
 1878TIP3    H1 5575   8.288   0.342   5.688
 1878TIP3    H2 5576   8.361   0.464   5.635
 1879TIP3   OH2 5577   3.066   7.344   2.146
 1879TIP3    H1 5578   3.023   7.298   2.217
 1879TIP3    H2 5579   3.149   7.297   2.134
 1880TIP3   OH2 5580   0.733   0.865   1.617
 1880TIP3    H1 5581   0.722   0.945   1.566
 1880TIP3    H2 5582   0.697   0.886   1.703
 1881TIP3   OH2 5583   1.144   5.808   3.829
 1881TIP3    H1 5584   1.080   5.879   3.818
 1881TIP3    H2 5585   1.113   5.761   3.907
 1882TIP3   OH2 5586   3.765   4.781   6.713
 1882TIP3    H1 5587   3.771   4.710   6.650
 1882TIP3    H2 5588   3.855   4.811   6.724
 1883TIP3   OH2 5589   2.385   1.530   0.091
 1883TIP3    H1 5590   2.355   1.452   0.045
 1883TIP3    H2 5591   2.362   1.514   0.183
 1884TIP3   OH2 5592   3.064   6.592   0.553
 1884TIP3    H1 5593   3.125   6.663   0.535
 1884TIP3    H2 5594   3.112   6.512   0.533
 1885TIP3   OH2 5595   6.787   1.619   2.699
 1885TIP3    H1 5596   6.721   1.615   2.767
 1885TIP3    H2 5597   6.851   1.683   2.731
 1886TIP3   OH2 5598   0.559   5.710   4.193
 1886TIP3    H1 5599   0.590   5.741   4.278
 1886TIP3    H2 5600   0.581   5.781   4.132
 1887TIP3   OH2 5601   5.353   2.057   6.144
 1887TIP3    H1 5602   5.392   2.044   6.231
 1887TIP3    H2 5603   5.262   2.028   6.154
 1888TIP3   OH2 5604   0.753   3.229   2.261
 1888TIP3    H1 5605   0.663   3.237   2.230
 1888TIP3    H2 5606   0.785   3.319   2.265
 1889TIP3   OH2 5607   6.448   4.367   5.143
 1889TIP3    H1 5608   6.452   4.463   5.147
 1889TIP3    H2 5609   6.449   4.339   5.235
 1890TIP3   OH2 5610   3.085   1.563   5.286
 1890TIP3    H1 5611   3.080   1.657   5.305
 1890TIP3    H2 5612   3.177   1.547   5.267
 1891TIP3   OH2 5613   4.126   3.598   1.464
 1891TIP3    H1 5614   4.199   3.558   1.511
 1891TIP3    H2 5615   4.080   3.649   1.531
 1892TIP3   OH2 5616   2.522   0.205   6.028
 1892TIP3    H1 5617   2.543   0.147   5.955
 1892TIP3    H2 5618   2.480   0.280   5.988
 1893TIP3   OH2 5619   4.033   3.978   1.000
 1893TIP3    H1 5620   4.059   4.055   1.051
 1893TIP3    H2 5621   3.999   4.014   0.919
 1894TIP3   OH2 5622   5.088   6.867   5.479
 1894TIP3    H1 5623   5.020   6.871   5.412
 1894TIP3    H2 5624   5.134   6.951   5.471
 1895TIP3   OH2 5625   1.612   6.341   4.572
 1895TIP3    H1 5626   1.520   6.355   4.595
 1895TIP3    H2 5627   1.614   6.253   4.536
 1896TIP3   OH2 5628   2.285   4.345   1.585
 1896TIP3    H1 5629   2.307   4.417   1.526
 1896TIP3    H2 5630   2.349   4.277   1.565
 1897TIP3   OH2 5631   5.702   0.601   3.569
 1897TIP3    H1 5632   5.743   0.663   3.629
 1897TIP3    H2 5633   5.757   0.602   3.491
 1898TIP3   OH2 5634   5.832   4.338   5.439
 1898TIP3    H1 5635   5.815   4.245   5.426
 1898TIP3    H2 5636   5.831   4.374   5.350
 1899TIP3   OH2 5637   5.987   1.282   2.971
 1899TIP3    H1 5638   5.984   1.309   3.063
 1899TIP3    H2 5639   6.005   1.364   2.923
 1900TIP3   OH2 5640   1.225   0.745   1.648
 1900TIP3    H1 5641   1.205   0.838   1.657
 1900TIP3    H2 5642   1.143   0.701   1.668
 1901TIP3   OH2 5643   4.472   3.868   3.902
 1901TIP3    H1 5644   4.500   3.887   3.991
 1901TIP3    H2 5645   4.529   3.796   3.874
 1902TIP3   OH2 5646   1.187   6.005   5.092
 1902TIP3    H1 5647   1.260   6.024   5.151
 1902TIP3    H2 5648   1.223   6.019   5.004
 1903TIP3   OH2 5649   1.637   1.301   5.296
 1903TIP3    H1 5650   1.568   1.368   5.297
 1903TIP3    H2 5651   1.610   1.240   5.228
 1904TIP3   OH2 5652   2.485   6.424   3.884
 1904TIP3    H1 5653   2.426   6.499   3.891
 1904TIP3    H2 5654   2.515   6.408   3.974
 1905TIP3   OH2 5655   3.337   6.178   1.550
 1905TIP3    H1 5656   3.336   6.115   1.622
 1905TIP3    H2 5657   3.303   6.259   1.589
 1906TIP3   OH2 5658   8.226   0.264   2.865
 1906TIP3    H1 5659   8.263   0.236   2.949
 1906TIP3    H2 5660   8.296   0.248   2.802
 1907TIP3   OH2 5661   6.918   5.755   0.766
 1907TIP3    H1 5662   6.939   5.821   0.699
 1907TIP3    H2 5663   7.003   5.734   0.806
 1908TIP3   OH2 5664   0.294   2.099   2.713
 1908TIP3    H1 5665   0.313   2.182   2.671
 1908TIP3    H2 5666   0.366   2.086   2.775
 1909TIP3   OH2 5667   4.648   1.007   4.627
 1909TIP3    H1 5668   4.730   1.053   4.610
 1909TIP3    H2 5669   4.672   0.914   4.629
 1910TIP3   OH2 5670   4.537   4.714   5.824
 1910TIP3    H1 5671   4.504   4.759   5.901
 1910TIP3    H2 5672   4.629   4.740   5.818
 1911TIP3   OH2 5673   3.917   1.221   6.498
 1911TIP3    H1 5674   3.859   1.166   6.550
 1911TIP3    H2 5675   3.871   1.232   6.415
 1912TIP3   OH2 5676   2.311   1.692   5.861
 1912TIP3    H1 5677   2.250   1.649   5.921
 1912TIP3    H2 5678   2.255   1.740   5.800
 1913TIP3   OH2 5679   4.199   3.737   3.173
 1913TIP3    H1 5680   4.288   3.708   3.191
 1913TIP3    H2 5681   4.185   3.716   3.081
 1914TIP3   OH2 5682   6.658   1.222   6.862
 1914TIP3    H1 5683   6.599   1.243   6.790
 1914TIP3    H2 5684   6.744   1.213   6.821
 1915TIP3   OH2 5685   4.319   3.637   5.289
 1915TIP3    H1 5686   4.304   3.608   5.199
 1915TIP3    H2 5687   4.312   3.733   5.285
 1916TIP3   OH2 5688   0.613   3.918   6.787
 1916TIP3    H1 5689   0.536   3.974   6.777
 1916TIP3    H2 5690   0.687   3.975   6.766
 1917TIP3   OH2 5691   4.641   2.295   2.493
 1917TIP3    H1 5692   4.635   2.270   2.585
 1917TIP3    H2 5693   4.735   2.307   2.477
 1918TIP3   OH2 5694   7.999   5.287   1.732
 1918TIP3    H1 5695   7.943   5.364   1.737
 1918TIP3    H2 5696   8.013   5.273   1.638
 1919TIP3   OH2 5697   6.847   5.524   1.172
 1919TIP3    H1 5698   6.781   5.526   1.240
 1919TIP3    H2 5699   6.930   5.534   1.219
 1920TIP3   OH2 5700   1.395   6.700   1.430
 1920TIP3    H1 5701   1.486   6.677   1.445
 1920TIP3    H2 5702   1.348   6.617   1.428
 1921TIP3   OH2 5703   3.778   7.199   3.204
 1921TIP3    H1 5704   3.734   7.117   3.225
 1921TIP3    H2 5705   3.834   7.217   3.279
 1922TIP3   OH2 5706   8.184   4.446   6.368
 1922TIP3    H1 5707   8.197   4.541   6.367
 1922TIP3    H2 5708   8.272   4.410   6.370
 1923TIP3   OH2 5709   8.310   6.596   0.380
 1923TIP3    H1 5710   8.249   6.590   0.307
 1923TIP3    H2 5711   8.316   6.690   0.398
 1924TIP3   OH2 5712   7.001   3.249   3.905
 1924TIP3    H1 5713   7.073   3.279   3.961
 1924TIP3    H2 5714   7.043   3.227   3.822
 1925TIP3   OH2 5715   6.122   0.053   2.237
 1925TIP3    H1 5716   6.191   0.075   2.174
 1925TIP3    H2 5717   6.057   0.122   2.225
 1926TIP3   OH2 5718   4.726   5.649   5.977
 1926TIP3    H1 5719   4.744   5.743   5.971
 1926TIP3    H2 5720   4.634   5.640   5.952
 1927TIP3   OH2 5721   3.994   0.678   0.786
 1927TIP3    H1 5722   4.062   0.726   0.738
 1927TIP3    H2 5723   3.921   0.740   0.793
 1928TIP3   OH2 5724   4.549   5.749   2.967
 1928TIP3    H1 5725   4.468   5.758   2.917
 1928TIP3    H2 5726   4.540   5.809   3.040
 1929TIP3   OH2 5727   4.495   7.879   1.209
 1929TIP3    H1 5728   4.410   7.840   1.231
 1929TIP3    H2 5729   4.473   7.968   1.180
 1930TIP3   OH2 5730   5.030   4.011   6.779
 1930TIP3    H1 5731   5.075   4.053   6.707
 1930TIP3    H2 5732   5.091   4.017   6.853
 1931TIP3   OH2 5733   4.331   3.205   3.803
 1931TIP3    H1 5734   4.353   3.279   3.747
 1931TIP3    H2 5735   4.312   3.133   3.743
 1932TIP3   OH2 5736   8.303   5.077   2.631
 1932TIP3    H1 5737   8.210   5.099   2.634
 1932TIP3    H2 5738   8.337   5.128   2.556
 1933TIP3   OH2 5739   3.853   3.288   3.763
 1933TIP3    H1 5740   3.902   3.357   3.718
 1933TIP3    H2 5741   3.851   3.216   3.700
 1934TIP3   OH2 5742   2.870   4.135   4.924
 1934TIP3    H1 5743   2.915   4.090   4.852
 1934TIP3    H2 5744   2.830   4.066   4.975
 1935TIP3   OH2 5745   0.630   3.904   0.113
 1935TIP3    H1 5746   0.591   3.820   0.090
 1935TIP3    H2 5747   0.563   3.969   0.090
 1936TIP3   OH2 5748   5.669   1.857   0.927
 1936TIP3    H1 5749   5.588   1.847   0.876
 1936TIP3    H2 5750   5.725   1.913   0.872
 1937TIP3   OH2 5751   4.844   3.878   2.783
 1937TIP3    H1 5752   4.906   3.849   2.849
 1937TIP3    H2 5753   4.795   3.949   2.825
 1938TIP3   OH2 5754   5.871   5.664   5.496
 1938TIP3    H1 5755   5.803   5.728   5.517
 1938TIP3    H2 5756   5.833   5.610   5.427
 1939TIP3   OH2 5757   0.480   1.683   2.058
 1939TIP3    H1 5758   0.545   1.690   2.128
 1939TIP3    H2 5759   0.399   1.718   2.095
 1940TIP3   OH2 5760   0.739   6.724   0.120
 1940TIP3    H1 5761   0.740   6.751   0.028
 1940TIP3    H2 5762   0.712   6.803   0.168
 1941TIP3   OH2 5763   2.400   4.257   2.019
 1941TIP3    H1 5764   2.362   4.226   1.936
 1941TIP3    H2 5765   2.492   4.231   2.014
 1942TIP3   OH2 5766   4.875   0.529   3.005
 1942TIP3    H1 5767   4.940   0.597   2.992
 1942TIP3    H2 5768   4.798   0.560   2.956
 1943TIP3   OH2 5769   7.114   2.574   1.841
 1943TIP3    H1 5770   7.080   2.627   1.769
 1943TIP3    H2 5771   7.101   2.484   1.812
 1944TIP3   OH2 5772   0.670   2.421   5.420
 1944TIP3    H1 5773   0.753   2.374   5.422
 1944TIP3    H2 5774   0.611   2.364   5.371
 1945TIP3   OH2 5775   6.339   3.654   6.129
 1945TIP3    H1 5776   6.408   3.668   6.065
 1945TIP3    H2 5777   6.377   3.681   6.212
 1946TIP3   OH2 5778   2.163   0.526   4.948
 1946TIP3    H1 5779   2.217   0.496   5.021
 1946TIP3    H2 5780   2.199   0.612   4.926
 1947TIP3   OH2 5781   1.349   4.992   1.776
 1947TIP3    H1 5782   1.407   5.042   1.718
 1947TIP3    H2 5783   1.392   4.907   1.785
 1948TIP3   OH2 5784   7.972   3.201   1.586
 1948TIP3    H1 5785   8.046   3.243   1.541
 1948TIP3    H2 5786   7.925   3.155   1.517
 1949TIP3   OH2 5787   6.273   6.008   1.394
 1949TIP3    H1 5788   6.277   6.048   1.481
 1949TIP3    H2 5789   6.361   5.972   1.380
 1950TIP3   OH2 5790   2.052   5.786   5.047
 1950TIP3    H1 5791   2.005   5.749   5.121
 1950TIP3    H2 5792   2.135   5.738   5.046
 1951TIP3   OH2 5793   2.209   3.157   0.601
 1951TIP3    H1 5794   2.171   3.071   0.617
 1951TIP3    H2 5795   2.297   3.138   0.567
 1952TIP3   OH2 5796   4.652   1.309   1.549
 1952TIP3    H1 5797   4.657   1.316   1.645
 1952TIP3    H2 5798   4.739   1.334   1.519
 1953TIP3   OH2 5799   8.010   5.355   0.126
 1953TIP3    H1 5800   8.046   5.414   0.059
 1953TIP3    H2 5801   7.931   5.400   0.158
 1954TIP3   OH2 5802   6.141   4.867   4.823
 1954TIP3    H1 5803   6.138   4.948   4.873
 1954TIP3    H2 5804   6.097   4.888   4.740
 1955TIP3   OH2 5805   1.155   2.085   4.492
 1955TIP3    H1 5806   1.135   2.161   4.437
 1955TIP3    H2 5807   1.235   2.109   4.538
 1956TIP3   OH2 5808   1.546   6.615   3.944
 1956TIP3    H1 5809   1.501   6.581   3.866
 1956TIP3    H2 5810   1.624   6.658   3.910
 1957TIP3   OH2 5811   4.589   0.321   3.624
 1957TIP3    H1 5812   4.616   0.391   3.684
 1957TIP3    H2 5813   4.510   0.284   3.663
 1958TIP3   OH2 5814   1.202   4.610   6.340
 1958TIP3    H1 5815   1.221   4.553   6.415
 1958TIP3    H2 5816   1.138   4.672   6.373
 1959TIP3   OH2 5817   7.759   7.542   2.228
 1959TIP3    H1 5818   7.686   7.480   2.234
 1959TIP3    H2 5819   7.767   7.577   2.317
 1960TIP3   OH2 5820   7.753   4.284   4.781
 1960TIP3    H1 5821   7.767   4.371   4.743
 1960TIP3    H2 5822   7.659   4.270   4.776
 1961TIP3   OH2 5823   7.024   0.862   5.481
 1961TIP3    H1 5824   7.037   0.767   5.484
 1961TIP3    H2 5825   7.048   0.887   5.392
 1962TIP3   OH2 5826   3.095   2.274   3.984
 1962TIP3    H1 5827   3.135   2.194   4.017
 1962TIP3    H2 5828   3.162   2.313   3.927
 1963TIP3   OH2 5829   1.186   0.359   1.169
 1963TIP3    H1 5830   1.276   0.340   1.142
 1963TIP3    H2 5831   1.148   0.407   1.095
 1964TIP3   OH2 5832   0.946   4.417   2.866
 1964TIP3    H1 5833   0.884   4.475   2.911
 1964TIP3    H2 5834   1.029   4.464   2.869
 1965TIP3   OH2 5835   8.212   5.814   0.766
 1965TIP3    H1 5836   8.260   5.730   0.765
 1965TIP3    H2 5837   8.194   5.829   0.859
 1966TIP3   OH2 5838   1.605   4.525  -0.001
 1966TIP3    H1 5839   1.662   4.455   0.033
 1966TIP3    H2 5840   1.569   4.567   0.077
 1967TIP3   OH2 5841   5.757   2.947   1.602
 1967TIP3    H1 5842   5.785   3.013   1.666
 1967TIP3    H2 5843   5.812   2.963   1.525
 1968TIP3   OH2 5844   0.917   3.310   0.353
 1968TIP3    H1 5845   0.882   3.248   0.289
 1968TIP3    H2 5846   0.952   3.382   0.300
 1969TIP3   OH2 5847   7.418   7.102  -0.001
 1969TIP3    H1 5848   7.509   7.075   0.006
 1969TIP3    H2 5849   7.373   7.053   0.068
 1970TIP3   OH2 5850   4.733   2.406   1.168
 1970TIP3    H1 5851   4.722   2.379   1.077
 1970TIP3    H2 5852   4.672   2.478   1.179
 1971TIP3   OH2 5853   8.024   7.253   1.402
 1971TIP3    H1 5854   7.930   7.250   1.389
 1971TIP3    H2 5855   8.041   7.186   1.468
 1972TIP3   OH2 5856   0.801   7.523   3.383
 1972TIP3    H1 5857   0.783   7.563   3.298
 1972TIP3    H2 5858   0.730   7.460   3.395
 1973TIP3   OH2 5859   5.189   1.157   4.426
 1973TIP3    H1 5860   5.254   1.160   4.356
 1973TIP3    H2 5861   5.107   1.134   4.382
 1974TIP3   OH2 5862   6.048   1.130   3.276
 1974TIP3    H1 5863   6.135   1.114   3.239
 1974TIP3    H2 5864   6.040   1.225   3.279
 1975TIP3   OH2 5865   1.084   6.544   2.785
 1975TIP3    H1 5866   1.111   6.574   2.872
 1975TIP3    H2 5867   1.012   6.603   2.761
 1976TIP3   OH2 5868   5.057   4.104   1.687
 1976TIP3    H1 5869   5.063   4.194   1.720
 1976TIP3    H2 5870   4.977   4.069   1.726
 1977TIP3   OH2 5871   0.482   5.579   3.432
 1977TIP3    H1 5872   0.524   5.566   3.347
 1977TIP3    H2 5873   0.428   5.501   3.444
 1978TIP3   OH2 5874   3.717   2.144   5.584
 1978TIP3    H1 5875   3.798   2.168   5.628
 1978TIP3    H2 5876   3.732   2.168   5.492
 1979TIP3   OH2 5877   2.081   7.689   0.944
 1979TIP3    H1 5878   2.033   7.639   0.879
 1979TIP3    H2 5879   2.044   7.777   0.940
 1980TIP3   OH2 5880   0.245   0.292   1.554
 1980TIP3    H1 5881   0.229   0.288   1.648
 1980TIP3    H2 5882   0.189   0.223   1.517
 1981TIP3   OH2 5883   0.561   4.440   6.214
 1981TIP3    H1 5884   0.575   4.346   6.211
 1981TIP3    H2 5885   0.491   4.456   6.151
 1982TIP3   OH2 5886   1.503   1.142   2.587
 1982TIP3    H1 5887   1.484   1.224   2.542
 1982TIP3    H2 5888   1.462   1.152   2.673
 1983TIP3   OH2 5889   1.905   3.808   0.865
 1983TIP3    H1 5890   1.859   3.774   0.942
 1983TIP3    H2 5891   1.848   3.877   0.832
 1984TIP3   OH2 5892   6.828   0.669   4.076
 1984TIP3    H1 5893   6.916   0.651   4.109
 1984TIP3    H2 5894   6.837   0.662   3.981
 1985TIP3   OH2 5895   0.127   5.189   1.792
 1985TIP3    H1 5896   0.150   5.264   1.846
 1985TIP3    H2 5897   0.032   5.185   1.796
 1986TIP3   OH2 5898   5.506   7.341   2.622
 1986TIP3    H1 5899   5.513   7.298   2.537
 1986TIP3    H2 5900   5.463   7.424   2.603
 1987TIP3   OH2 5901   2.151   1.426   1.376
 1987TIP3    H1 5902   2.096   1.500   1.403
 1987TIP3    H2 5903   2.159   1.372   1.455
 1988TIP3   OH2 5904   7.414   1.927   4.913
 1988TIP3    H1 5905   7.499   1.901   4.877
 1988TIP3    H2 5906   7.353   1.919   4.839
 1989TIP3   OH2 5907   2.416   5.489   5.160
 1989TIP3    H1 5908   2.365   5.552   5.210
 1989TIP3    H2 5909   2.361   5.411   5.157
 1990TIP3   OH2 5910   8.252   5.338   5.755
 1990TIP3    H1 5911   8.311   5.262   5.758
 1990TIP3    H2 5912   8.228   5.353   5.847
 1991TIP3   OH2 5913   0.900   2.646   1.915
 1991TIP3    H1 5914   0.927   2.720   1.970
 1991TIP3    H2 5915   0.904   2.570   1.973
 1992TIP3   OH2 5916   7.252   6.744   3.158
 1992TIP3    H1 5917   7.315   6.673   3.158
 1992TIP3    H2 5918   7.303   6.821   3.185
 1993TIP3   OH2 5919   6.293   3.492   2.970
 1993TIP3    H1 5920   6.356   3.444   3.024
 1993TIP3    H2 5921   6.242   3.543   3.032
 1994TIP3   OH2 5922   6.001   1.010   1.187
 1994TIP3    H1 5923   6.041   1.021   1.101
 1994TIP3    H2 5924   6.027   1.087   1.237
 1995TIP3   OH2 5925   1.094   4.846   0.626
 1995TIP3    H1 5926   1.084   4.809   0.538
 1995TIP3    H2 5927   1.116   4.771   0.682
 1996TIP3   OH2 5928   1.362   0.327   2.907
 1996TIP3    H1 5929   1.421   0.355   2.977
 1996TIP3    H2 5930   1.391   0.239   2.885
 1997TIP3   OH2 5931   5.483   6.387   5.083
 1997TIP3    H1 5932   5.569   6.404   5.122
 1997TIP3    H2 5933   5.492   6.301   5.044
 1998TIP3   OH2 5934   2.137   1.132   1.187
 1998TIP3    H1 5935   2.228   1.116   1.211
 1998TIP3    H2 5936   2.136   1.222   1.155
 1999TIP3   OH2 5937   6.763   4.950   0.396
 1999TIP3    H1 5938   6.804   4.999   0.325
 1999TIP3    H2 5939   6.774   5.007   0.473
 2000TIP3   OH2 5940   3.553   6.214   1.815
 2000TIP3    H1 5941   3.497   6.278   1.858
 2000TIP3    H2 5942   3.510   6.130   1.830
 2001TIP3   OH2 5943   2.625   5.660   3.370
 2001TIP3    H1 5944   2.697   5.710   3.332
 2001TIP3    H2 5945   2.627   5.683   3.463
 2002TIP3   OH2 5946   2.616   4.967   5.450
 2002TIP3    H1 5947   2.603   4.934   5.361
 2002TIP3    H2 5948   2.697   4.926   5.480
 2003TIP3   OH2 5949   7.195   1.216   4.796
 2003TIP3    H1 5950   7.134   1.262   4.853
 2003TIP3    H2 5951   7.144   1.198   4.717
 2004TIP3   OH2 5952   6.591   1.317   6.580
 2004TIP3    H1 5953   6.610   1.408   6.555
 2004TIP3    H2 5954   6.676   1.273   6.577
 2005TIP3   OH2 5955   6.455   0.811   5.892
 2005TIP3    H1 5956   6.539   0.851   5.871
 2005TIP3    H2 5957   6.455   0.729   5.841
 2006TIP3   OH2 5958   1.553   0.908   3.763
 2006TIP3    H1 5959   1.546   0.907   3.667
 2006TIP3    H2 5960   1.463   0.906   3.794
 2007TIP3   OH2 5961   6.550   0.946   4.775
 2007TIP3    H1 5962   6.535   0.902   4.691
 2007TIP3    H2 5963   6.465   0.983   4.798
 2008TIP3   OH2 5964   4.847   1.050   1.425
 2008TIP3    H1 5965   4.868   1.144   1.424
 2008TIP3    H2 5966   4.817   1.033   1.514
 2009TIP3   OH2 5967   0.086   5.146   6.658
 2009TIP3    H1 5968   0.151   5.081   6.632
 2009TIP3    H2 5969   0.024   5.098   6.713
 2010TIP3   OH2 5970   4.487   4.689   1.872
 2010TIP3    H1 5971   4.449   4.774   1.892
 2010TIP3    H2 5972   4.574   4.691   1.911
 2011TIP3   OH2 5973   8.089   0.274   2.364
 2011TIP3    H1 5974   8.104   0.186   2.398
 2011TIP3    H2 5975   8.006   0.268   2.317
 2012TIP3   OH2 5976   3.987   7.161   2.657
 2012TIP3    H1 5977   3.930   7.164   2.733
 2012TIP3    H2 5978   4.074   7.142   2.694
 2013TIP3   OH2 5979   4.142   7.078   2.159
 2013TIP3    H1 5980   4.098   7.027   2.091
 2013TIP3    H2 5981   4.194   7.143   2.111
 2014TIP3   OH2 5982   5.066   0.562   5.956
 2014TIP3    H1 5983   5.113   0.635   5.995
 2014TIP3    H2 5984   5.126   0.488   5.960
 2015TIP3   OH2 5985   8.165   6.758   4.897
 2015TIP3    H1 5986   8.242   6.752   4.841
 2015TIP3    H2 5987   8.166   6.848   4.931
 2016TIP3   OH2 5988   1.888   0.418   0.396
 2016TIP3    H1 5989   1.962   0.472   0.368
 2016TIP3    H2 5990   1.851   0.384   0.315
 2017TIP3   OH2 5991   0.741   1.942   0.798
 2017TIP3    H1 5992   0.822   1.944   0.747
 2017TIP3    H2 5993   0.672   1.938   0.733
 2018TIP3   OH2 5994   2.024   6.304   2.480
 2018TIP3    H1 5995   2.045   6.395   2.498
 2018TIP3    H2 5996   1.935   6.292   2.514
 2019TIP3   OH2 5997   0.965   0.910   1.000
 2019TIP3    H1 5998   1.031   0.952   0.945
 2019TIP3    H2 5999   0.971   0.817   0.978
 2020TIP3   OH2 6000   2.054   5.719   6.638
 2020TIP3    H1 6001   2.112   5.758   6.572
 2020TIP3    H2 6002   2.055   5.781   6.710
 2021TIP3   OH2 6003   4.730   4.011   0.428
 2021TIP3    H1 6004   4.823   4.020   0.405
 2021TIP3    H2 6005   4.684   4.018   0.344
 2022TIP3   OH2 6006   0.486   2.749   2.318
 2022TIP3    H1 6007   0.532   2.825   2.353
 2022TIP3    H2 6008   0.532   2.727   2.237
 2023TIP3   OH2 6009   0.373   2.014   5.522
 2023TIP3    H1 6010   0.445   2.050   5.573
 2023TIP3    H2 6011   0.295   2.055   5.558
 2024TIP3   OH2 6012   5.195   7.838   3.967
 2024TIP3    H1 6013   5.149   7.868   3.889
 2024TIP3    H2 6014   5.158   7.751   3.984
 2025TIP3   OH2 6015   6.850   7.686   0.902
 2025TIP3    H1 6016   6.929   7.739   0.910
 2025TIP3    H2 6017   6.788   7.744   0.858
 2026TIP3   OH2 6018   7.762   3.875   5.508
 2026TIP3    H1 6019   7.756   3.952   5.565
 2026TIP3    H2 6020   7.856   3.860   5.498
 2027TIP3   OH2 6021   3.410   7.637   4.994
 2027TIP3    H1 6022   3.325   7.605   4.963
 2027TIP3    H2 6023   3.442   7.568   5.051
 2028TIP3   OH2 6024   8.285   2.168   0.820
 2028TIP3    H1 6025   8.350   2.098   0.828
 2028TIP3    H2 6026   8.302   2.225   0.895
 2029TIP3   OH2 6027   0.730   5.920   2.041
 2029TIP3    H1 6028   0.684   5.916   1.957
 2029TIP3    H2 6029   0.676   5.870   2.101
 2030TIP3   OH2 6030   3.197   3.558   0.459
 2030TIP3    H1 6031   3.212   3.603   0.376
 2030TIP3    H2 6032   3.115   3.595   0.492
 2031TIP3   OH2 6033   0.804   4.105   3.641
 2031TIP3    H1 6034   0.840   4.047   3.574
 2031TIP3    H2 6035   0.730   4.148   3.598
 2032TIP3   OH2 6036   3.285   5.457   0.814
 2032TIP3    H1 6037   3.269   5.543   0.854
 2032TIP3    H2 6038   3.315   5.402   0.887
 2033TIP3   OH2 6039   7.125   3.548   4.183
 2033TIP3    H1 6040   7.103   3.477   4.244
 2033TIP3    H2 6041   7.072   3.622   4.213
 2034TIP3   OH2 6042   8.353   1.186   3.131
 2034TIP3    H1 6043   8.321   1.274   3.150
 2034TIP3    H2 6044   8.447   1.199   3.115
 2035TIP3   OH2 6045   6.320   0.034   1.397
 2035TIP3    H1 6046   6.264   0.061   1.470
 2035TIP3    H2 6047   6.409   0.037   1.432
 2036TIP3   OH2 6048   0.205   2.175   3.688
 2036TIP3    H1 6049   0.187   2.241   3.621
 2036TIP3    H2 6050   0.211   2.226   3.769
 2037TIP3   OH2 6051   4.055   1.936   1.290
 2037TIP3    H1 6052   4.126   1.909   1.232
 2037TIP3    H2 6053   4.009   1.855   1.312
 2038TIP3   OH2 6054   0.689   0.574   6.417
 2038TIP3    H1 6055   0.712   0.483   6.437
 2038TIP3    H2 6056   0.714   0.585   6.325
 2039TIP3   OH2 6057   2.942   6.969   0.313
 2039TIP3    H1 6058   3.033   6.941   0.314
 2039TIP3    H2 6059   2.915   6.960   0.221
 2040TIP3   OH2 6060   8.316   5.392   1.823
 2040TIP3    H1 6061   8.365   5.474   1.818
 2040TIP3    H2 6062   8.316   5.359   1.734
 2041TIP3   OH2 6063   7.890   0.285   5.149
 2041TIP3    H1 6064   7.950   0.277   5.075
 2041TIP3    H2 6065   7.921   0.362   5.196
 2042TIP3   OH2 6066   4.646   7.038   6.101
 2042TIP3    H1 6067   4.664   6.978   6.173
 2042TIP3    H2 6068   4.680   6.994   6.024
 2043TIP3   OH2 6069   6.260   2.239   4.342
 2043TIP3    H1 6070   6.219   2.238   4.255
 2043TIP3    H2 6071   6.316   2.162   4.343
 2044TIP3   OH2 6072   8.077   5.148   5.335
 2044TIP3    H1 6073   8.127   5.145   5.416
 2044TIP3    H2 6074   8.139   5.121   5.267
 2045TIP3   OH2 6075   2.809   5.258   2.837
 2045TIP3    H1 6076   2.899   5.233   2.858
 2045TIP3    H2 6077   2.788   5.208   2.758
 2046TIP3   OH2 6078   7.652   6.206   3.807
 2046TIP3    H1 6079   7.603   6.233   3.730
 2046TIP3    H2 6080   7.592   6.220   3.880
 2047TIP3   OH2 6081   7.353   7.087   1.858
 2047TIP3    H1 6082   7.429   7.111   1.911
 2047TIP3    H2 6083   7.284   7.147   1.887
 2048TIP3   OH2 6084   7.881   2.395   2.537
 2048TIP3    H1 6085   7.837   2.333   2.596
 2048TIP3    H2 6086   7.966   2.412   2.580
 2049TIP3   OH2 6087   3.302   4.829   0.758
 2049TIP3    H1 6088   3.387   4.785   0.752
 2049TIP3    H2 6089   3.284   4.860   0.669
 2050TIP3   OH2 6090   0.539   3.513   4.025
 2050TIP3    H1 6091   0.492   3.464   4.093
 2050TIP3    H2 6092   0.476   3.577   3.993
 2051TIP3   OH2 6093   7.583   7.208   5.480
 2051TIP3    H1 6094   7.614   7.164   5.401
 2051TIP3    H2 6095   7.545   7.290   5.450
 2052TIP3   OH2 6096   3.746   0.912   4.242
 2052TIP3    H1 6097   3.817   0.878   4.188
 2052TIP3    H2 6098   3.773   0.895   4.332
 2053TIP3   OH2 6099   1.167   0.613   4.171
 2053TIP3    H1 6100   1.141   0.608   4.079
 2053TIP3    H2 6101   1.085   0.626   4.219
 2054TIP3   OH2 6102   5.890   7.586   6.160
 2054TIP3    H1 6103   5.798   7.594   6.186
 2054TIP3    H2 6104   5.910   7.493   6.171
 2055TIP3   OH2 6105   1.411   1.446   2.591
 2055TIP3    H1 6106   1.478   1.515   2.585
 2055TIP3    H2 6107   1.350   1.478   2.658
 2056TIP3   OH2 6108   1.944   5.870   1.447
 2056TIP3    H1 6109   2.009   5.938   1.425
 2056TIP3    H2 6110   1.992   5.788   1.438
 2057TIP3   OH2 6111   7.808   5.462   3.556
 2057TIP3    H1 6112   7.826   5.398   3.624
 2057TIP3    H2 6113   7.893   5.477   3.514
 2058TIP3   OH2 6114   0.132   5.044   4.292
 2058TIP3    H1 6115   0.176   5.013   4.213
 2058TIP3    H2 6116   0.120   5.138   4.278
 2059TIP3   OH2 6117   8.013   1.123   6.510
 2059TIP3    H1 6118   8.070   1.047   6.525
 2059TIP3    H2 6119   8.055   1.195   6.557
 2060TIP3   OH2 6120   5.576   4.628   1.265
 2060TIP3    H1 6121   5.480   4.628   1.264
 2060TIP3    H2 6122   5.600   4.712   1.226
 2061TIP3   OH2 6123   6.793   4.589   1.114
 2061TIP3    H1 6124   6.808   4.640   1.035
 2061TIP3    H2 6125   6.707   4.618   1.146
 2062TIP3   OH2 6126   4.053   5.566   5.024
 2062TIP3    H1 6127   4.099   5.491   4.986
 2062TIP3    H2 6128   4.106   5.641   4.997
 2063TIP3   OH2 6129   2.503   1.386   0.369
 2063TIP3    H1 6130   2.463   1.472   0.372
 2063TIP3    H2 6131   2.592   1.402   0.336
 2064TIP3   OH2 6132   3.911   3.880   3.924
 2064TIP3    H1 6133   4.005   3.881   3.940
 2064TIP3    H2 6134   3.872   3.915   4.004
 2065TIP3   OH2 6135   4.534   3.171   1.912
 2065TIP3    H1 6136   4.463   3.193   1.852
 2065TIP3    H2 6137   4.611   3.163   1.857
 2066TIP3   OH2 6138   1.376   6.555   1.012
 2066TIP3    H1 6139   1.295   6.606   1.017
 2066TIP3    H2 6140   1.401   6.559   0.920
 2067TIP3   OH2 6141   7.045   2.751   0.224
 2067TIP3    H1 6142   6.991   2.672   0.223
 2067TIP3    H2 6143   6.986   2.820   0.194
 2068TIP3   OH2 6144   0.194   5.126   6.315
 2068TIP3    H1 6145   0.235   5.084   6.390
 2068TIP3    H2 6146   0.236   5.212   6.310
 2069TIP3   OH2 6147   7.886   6.158   6.390
 2069TIP3    H1 6148   7.793   6.174   6.373
 2069TIP3    H2 6149   7.918   6.118   6.310
 2070TIP3   OH2 6150   4.781   4.147   3.622
 2070TIP3    H1 6151   4.758   4.151   3.715
 2070TIP3    H2 6152   4.740   4.066   3.592
 2071TIP3   OH2 6153   3.873   0.890   4.494
 2071TIP3    H1 6154   3.916   0.943   4.561
 2071TIP3    H2 6155   3.797   0.852   4.538
 2072TIP3   OH2 6156   5.019   6.778   2.987
 2072TIP3    H1 6157   5.069   6.752   3.065
 2072TIP3    H2 6158   5.086   6.804   2.923
 2073TIP3   OH2 6159   1.189   1.184   5.790
 2073TIP3    H1 6160   1.109   1.167   5.741
 2073TIP3    H2 6161   1.241   1.242   5.734
 2074TIP3   OH2 6162   4.088   3.205   6.236
 2074TIP3    H1 6163   4.092   3.284   6.181
 2074TIP3    H2 6164   4.165   3.154   6.210
 2075TIP3   OH2 6165   1.148   6.701   6.843
 2075TIP3    H1 6166   1.074   6.649   6.875
 2075TIP3    H2 6167   1.173   6.659   6.761
 2076TIP3   OH2 6168   6.328   7.500   3.425
 2076TIP3    H1 6169   6.355   7.459   3.343
 2076TIP3    H2 6170   6.366   7.588   3.421
 2077TIP3   OH2 6171   1.218   6.166   4.044
 2077TIP3    H1 6172   1.190   6.094   4.100
 2077TIP3    H2 6173   1.241   6.236   4.104
 2078TIP3   OH2 6174   2.789   6.321   6.807
 2078TIP3    H1 6175   2.873   6.361   6.830
 2078TIP3    H2 6176   2.811   6.230   6.788
 2079TIP3   OH2 6177   6.802   7.020   5.729
 2079TIP3    H1 6178   6.783   7.056   5.816
 2079TIP3    H2 6179   6.757   7.079   5.669
 2080TIP3   OH2 6180   6.883  -0.005   4.604
 2080TIP3    H1 6181   6.798   0.014   4.645
 2080TIP3    H2 6182   6.903   0.073   4.554
 2081TIP3   OH2 6183   6.565   7.056   4.002
 2081TIP3    H1 6184   6.514   7.097   3.932
 2081TIP3    H2 6185   6.585   7.127   4.062
 2082TIP3   OH2 6186   6.157   1.367   5.102
 2082TIP3    H1 6187   6.179   1.445   5.152
 2082TIP3    H2 6188   6.198   1.295   5.150
 2083TIP3   OH2 6189   2.416   5.279   3.478
 2083TIP3    H1 6190   2.499   5.253   3.436
 2083TIP3    H2 6191   2.350   5.223   3.437
 2084TIP3   OH2 6192   3.723   1.471   0.565
 2084TIP3    H1 6193   3.673   1.432   0.636
 2084TIP3    H2 6194   3.810   1.432   0.572
 2085TIP3   OH2 6195   5.780   4.707   2.978
 2085TIP3    H1 6196   5.867   4.741   2.958
 2085TIP3    H2 6197   5.734   4.780   3.020
 2086TIP3   OH2 6198   3.659   4.039   0.805
 2086TIP3    H1 6199   3.615   4.103   0.749
 2086TIP3    H2 6200   3.752   4.048   0.781
 2087TIP3   OH2 6201   3.251   0.573   4.960
 2087TIP3    H1 6202   3.193   0.583   5.035
 2087TIP3    H2 6203   3.244   0.657   4.914
 2088TIP3   OH2 6204   0.498   3.546   3.503
 2088TIP3    H1 6205   0.486   3.483   3.432
 2088TIP3    H2 6206   0.498   3.493   3.583
 2089TIP3   OH2 6207   1.679   5.458   3.229
 2089TIP3    H1 6208   1.610   5.460   3.163
 2089TIP3    H2 6209   1.634   5.472   3.312
 2090TIP3   OH2 6210   7.876   1.496   0.443
 2090TIP3    H1 6211   7.856   1.482   0.535
 2090TIP3    H2 6212   7.829   1.426   0.397
 2091TIP3   OH2 6213   2.559   3.275   0.036
 2091TIP3    H1 6214   2.567   3.352   0.092
 2091TIP3    H2 6215   2.574   3.201   0.096
 2092TIP3   OH2 6216   1.525   3.965   5.259
 2092TIP3    H1 6217   1.447   4.018   5.268
 2092TIP3    H2 6218   1.547   3.969   5.166
 2093TIP3   OH2 6219   0.965   2.950   3.660
 2093TIP3    H1 6220   1.057   2.976   3.650
 2093TIP3    H2 6221   0.934   3.001   3.734
 2094TIP3   OH2 6222   6.393   2.317   3.926
 2094TIP3    H1 6223   6.366   2.395   3.877
 2094TIP3    H2 6224   6.339   2.318   4.005
 2095TIP3   OH2 6225   7.501   1.299   3.245
 2095TIP3    H1 6226   7.483   1.214   3.204
 2095TIP3    H2 6227   7.531   1.277   3.333
 2096TIP3   OH2 6228   7.487   7.082   3.595
 2096TIP3    H1 6229   7.510   7.146   3.663
 2096TIP3    H2 6230   7.481   6.999   3.641
 2097TIP3   OH2 6231   1.271   2.047   5.966
 2097TIP3    H1 6232   1.352   2.085   5.998
 2097TIP3    H2 6233   1.204   2.114   5.981
 2098TIP3   OH2 6234   4.339   2.453   1.883
 2098TIP3    H1 6235   4.378   2.388   1.824
 2098TIP3    H2 6236   4.310   2.523   1.824
 2099TIP3   OH2 6237   3.880   4.815   1.238
 2099TIP3    H1 6238   3.836   4.761   1.304
 2099TIP3    H2 6239   3.841   4.787   1.155
 2100TIP3   OH2 6240   5.114   2.744   5.396
 2100TIP3    H1 6241   5.055   2.727   5.322
 2100TIP3    H2 6242   5.104   2.668   5.453
 2101TIP3   OH2 6243   3.178   1.344   4.190
 2101TIP3    H1 6244   3.179   1.345   4.094
 2101TIP3    H2 6245   3.086   1.332   4.213
 2102TIP3   OH2 6246   1.942   3.892   3.361
 2102TIP3    H1 6247   1.922   3.966   3.418
 2102TIP3    H2 6248   1.864   3.883   3.305
 2103TIP3   OH2 6249   3.846   4.677   2.812
 2103TIP3    H1 6250   3.927   4.719   2.781
 2103TIP3    H2 6251   3.871   4.633   2.893
 2104TIP3   OH2 6252   1.660   4.024   3.015
 2104TIP3    H1 6253   1.596   3.995   3.081
 2104TIP3    H2 6254   1.613   4.017   2.932
 2105TIP3   OH2 6255   7.916   7.160   4.785
 2105TIP3    H1 6256   7.900   7.169   4.879
 2105TIP3    H2 6257   7.994   7.213   4.769
 2106TIP3   OH2 6258   0.376   4.581   2.472
 2106TIP3    H1 6259   0.310   4.550   2.535
 2106TIP3    H2 6260   0.442   4.625   2.525
 2107TIP3   OH2 6261   7.381   0.768   6.407
 2107TIP3    H1 6262   7.340   0.853   6.420
 2107TIP3    H2 6263   7.405   0.740   6.496
 2108TIP3   OH2 6264   4.237   3.648   5.740
 2108TIP3    H1 6265   4.157   3.695   5.766
 2108TIP3    H2 6266   4.292   3.649   5.819
 2109TIP3   OH2 6267   8.018   1.356   6.309
 2109TIP3    H1 6268   8.032   1.439   6.263
 2109TIP3    H2 6269   8.106   1.318   6.318
 2110TIP3   OH2 6270   5.497   7.863   0.122
 2110TIP3    H1 6271   5.404   7.840   0.132
 2110TIP3    H2 6272   5.534   7.789   0.073
 2111TIP3   OH2 6273   3.858   6.199   3.595
 2111TIP3    H1 6274   3.770   6.237   3.585
 2111TIP3    H2 6275   3.872   6.150   3.514
 2112TIP3   OH2 6276   4.757   6.009   3.296
 2112TIP3    H1 6277   4.712   6.075   3.244
 2112TIP3    H2 6278   4.750   5.929   3.244
 2113TIP3   OH2 6279   7.270   6.311   2.525
 2113TIP3    H1 6280   7.292   6.221   2.550
 2113TIP3    H2 6281   7.185   6.304   2.482
 2114TIP3   OH2 6282   5.400   0.470   6.558
 2114TIP3    H1 6283   5.464   0.537   6.579
 2114TIP3    H2 6284   5.420   0.398   6.618
 2115TIP3   OH2 6285   0.269   3.638   4.184
 2115TIP3    H1 6286   0.241   3.586   4.260
 2115TIP3    H2 6287   0.301   3.720   4.222
 2116TIP3   OH2 6288   6.447   0.319   5.127
 2116TIP3    H1 6289   6.511   0.371   5.176
 2116TIP3    H2 6290   6.431   0.370   5.048
 2117TIP3   OH2 6291   3.982   0.241   6.621
 2117TIP3    H1 6292   3.900   0.267   6.664
 2117TIP3    H2 6293   3.998   0.151   6.652
 2118TIP3   OH2 6294   2.951   2.526   3.809
 2118TIP3    H1 6295   2.974   2.519   3.716
 2118TIP3    H2 6296   3.026   2.489   3.855
 2119TIP3   OH2 6297   2.763   1.983   4.717
 2119TIP3    H1 6298   2.733   2.070   4.746
 2119TIP3    H2 6299   2.713   1.965   4.638
 2120TIP3   OH2 6300   5.471   6.908   4.483
 2120TIP3    H1 6301   5.383   6.947   4.479
 2120TIP3    H2 6302   5.506   6.937   4.567
 2121TIP3   OH2 6303   3.655   5.990   0.445
 2121TIP3    H1 6304   3.748   6.013   0.450
 2121TIP3    H2 6305   3.624   6.032   0.365
 2122TIP3   OH2 6306   0.787  -0.001   4.704
 2122TIP3    H1 6307   0.732   0.077   4.703
 2122TIP3    H2 6308   0.739  -0.064   4.758
 2123TIP3   OH2 6309   5.092   5.498   5.691
 2123TIP3    H1 6310   5.003   5.485   5.724
 2123TIP3    H2 6311   5.127   5.569   5.745
 2124TIP3   OH2 6312   0.148   7.198   4.304
 2124TIP3    H1 6313   0.085   7.269   4.295
 2124TIP3    H2 6314   0.229   7.240   4.332
 2125TIP3   OH2 6315   4.528   3.486   2.477
 2125TIP3    H1 6316   4.460   3.520   2.535
 2125TIP3    H2 6317   4.507   3.392   2.468
 2126TIP3   OH2 6318   0.322   3.906   1.772
 2126TIP3    H1 6319   0.291   3.942   1.689
 2126TIP3    H2 6320   0.242   3.876   1.817
 2127TIP3   OH2 6321   6.643   6.276   3.088
 2127TIP3    H1 6322   6.613   6.254   3.176
 2127TIP3    H2 6323   6.705   6.348   3.101
 2128TIP3   OH2 6324   4.257   6.882   0.264
 2128TIP3    H1 6325   4.176   6.884   0.314
 2128TIP3    H2 6326   4.290   6.793   0.275
 2129TIP3   OH2 6327   4.106   4.812   1.405
 2129TIP3    H1 6328   4.031   4.808   1.345
 2129TIP3    H2 6329   4.179   4.842   1.350
 2130TIP3   OH2 6330   0.126   7.380   2.772
 2130TIP3    H1 6331   0.051   7.344   2.724
 2130TIP3    H2 6332   0.172   7.433   2.708
 2131TIP3   OH2 6333   7.435   3.549   4.124
 2131TIP3    H1 6334   7.343   3.565   4.146
 2131TIP3    H2 6335   7.482   3.623   4.162
 2132TIP3   OH2 6336   0.702   5.105   1.528
 2132TIP3    H1 6337   0.785   5.106   1.574
 2132TIP3    H2 6338   0.693   5.015   1.496
 2133TIP3   OH2 6339   1.639   0.463   5.458
 2133TIP3    H1 6340   1.660   0.376   5.423
 2133TIP3    H2 6341   1.564   0.449   5.514
 2134TIP3   OH2 6342   5.735   7.243   3.458
 2134TIP3    H1 6343   5.807   7.304   3.472
 2134TIP3    H2 6344   5.705   7.261   3.369
 2135TIP3   OH2 6345   1.872   5.928   3.620
 2135TIP3    H1 6346   1.881   5.928   3.716
 2135TIP3    H2 6347   1.907   5.843   3.593
 2136TIP3   OH2 6348   5.400   3.781   5.019
 2136TIP3    H1 6349   5.382   3.816   4.932
 2136TIP3    H2 6350   5.317   3.788   5.065
 2137TIP3   OH2 6351   6.536   6.720   1.920
 2137TIP3    H1 6352   6.548   6.773   1.999
 2137TIP3    H2 6353   6.464   6.763   1.873
 2138TIP3   OH2 6354   6.386   4.885   2.499
 2138TIP3    H1 6355   6.301   4.930   2.493
 2138TIP3    H2 6356   6.366   4.794   2.476
 2139TIP3   OH2 6357   2.800   6.576   4.286
 2139TIP3    H1 6358   2.781   6.528   4.367
 2139TIP3    H2 6359   2.886   6.616   4.302
 2140TIP3   OH2 6360   3.559   6.025   4.644
 2140TIP3    H1 6361   3.508   5.949   4.672
 2140TIP3    H2 6362   3.604   6.054   4.722
 2141TIP3   OH2 6363   4.259   1.146   4.539
 2141TIP3    H1 6364   4.315   1.162   4.614
 2141TIP3    H2 6365   4.194   1.083   4.570
 2142TIP3   OH2 6366   4.872   1.821   3.027
 2142TIP3    H1 6367   4.804   1.831   2.961
 2142TIP3    H2 6368   4.855   1.736   3.068
 2143TIP3   OH2 6369   0.072   4.139   1.586
 2143TIP3    H1 6370   0.094   4.212   1.528
 2143TIP3    H2 6371   0.151   4.085   1.586
 2144TIP3   OH2 6372   1.723   5.249   1.208
 2144TIP3    H1 6373   1.746   5.300   1.130
 2144TIP3    H2 6374   1.803   5.249   1.261
 2145TIP3   OH2 6375   3.262   6.390   1.712
 2145TIP3    H1 6376   3.197   6.455   1.738
 2145TIP3    H2 6377   3.342   6.416   1.757
 2146TIP3   OH2 6378   7.347   2.089   0.153
 2146TIP3    H1 6379   7.267   2.064   0.106
 2146TIP3    H2 6380   7.400   2.135   0.087
 2147TIP3   OH2 6381   0.072   0.761   1.172
 2147TIP3    H1 6382  -0.005   0.806   1.139
 2147TIP3    H2 6383   0.082   0.792   1.262
 2148TIP3   OH2 6384   8.155   4.704   4.481
 2148TIP3    H1 6385   8.143   4.713   4.387
 2148TIP3    H2 6386   8.219   4.772   4.504
 2149TIP3   OH2 6387   7.392   0.647   2.242
 2149TIP3    H1 6388   7.312   0.681   2.282
 2149TIP3    H2 6389   7.457   0.716   2.254
 2150TIP3   OH2 6390   0.174   7.520   1.378
 2150TIP3    H1 6391   0.245   7.464   1.411
 2150TIP3    H2 6392   0.193   7.607   1.415
 2151TIP3   OH2 6393   0.045   0.457   5.943
 2151TIP3    H1 6394   0.033   0.449   5.849
 2151TIP3    H2 6395   0.138   0.477   5.954
 2152TIP3   OH2 6396   2.244   6.140   3.657
 2152TIP3    H1 6397   2.339   6.147   3.665
 2152TIP3    H2 6398   2.219   6.213   3.600
 2153TIP3   OH2 6399   3.367   2.055   2.471
 2153TIP3    H1 6400   3.318   1.989   2.519
 2153TIP3    H2 6401   3.445   2.071   2.524
 2154TIP3   OH2 6402   6.675   0.241   1.307
 2154TIP3    H1 6403   6.761   0.275   1.284
 2154TIP3    H2 6404   6.673   0.153   1.270
 2155TIP3   OH2 6405   4.547   0.561   5.130
 2155TIP3    H1 6406   4.615   0.524   5.073
 2155TIP3    H2 6407   4.465   0.531   5.092
 2156TIP3   OH2 6408   7.521   3.339   3.534
 2156TIP3    H1 6409   7.477   3.424   3.541
 2156TIP3    H2 6410   7.457   3.276   3.567
 2157TIP3   OH2 6411   7.433   1.049   1.268
 2157TIP3    H1 6412   7.489   0.983   1.227
 2157TIP3    H2 6413   7.345   1.027   1.238
 2158TIP3   OH2 6414   3.947   1.887   4.448
 2158TIP3    H1 6415   3.903   1.813   4.492
 2158TIP3    H2 6416   4.024   1.904   4.503
 2159TIP3   OH2 6417   0.250   3.953   3.906
 2159TIP3    H1 6418   0.165   3.933   3.867
 2159TIP3    H2 6419   0.229   3.983   3.994
 2160TIP3   OH2 6420   4.029   4.674   4.668
 2160TIP3    H1 6421   4.034   4.586   4.631
 2160TIP3    H2 6422   4.055   4.732   4.596
 2161TIP3   OH2 6423   1.523   3.715   3.366
 2161TIP3    H1 6424   1.567   3.769   3.299
 2161TIP3    H2 6425   1.587   3.708   3.436
 2162TIP3   OH2 6426   3.665   1.356   6.104
 2162TIP3    H1 6427   3.677   1.449   6.088
 2162TIP3    H2 6428   3.682   1.346   6.198
 2163TIP3   OH2 6429   5.919   2.378   0.370
 2163TIP3    H1 6430   5.983   2.448   0.378
 2163TIP3    H2 6431   5.921   2.332   0.454
 2164TIP3   OH2 6432   1.358   4.956   3.018
 2164TIP3    H1 6433   1.354   4.864   2.991
 2164TIP3    H2 6434   1.271   4.990   2.999
 2165TIP3   OH2 6435   3.003   1.030   0.080
 2165TIP3    H1 6436   3.034   1.089   0.148
 2165TIP3    H2 6437   2.970   1.088   0.011
 2166TIP3   OH2 6438   2.303   6.476   3.302
 2166TIP3    H1 6439   2.208   6.490   3.302
 2166TIP3    H2 6440   2.326   6.471   3.209
 2167TIP3   OH2 6441   1.989   1.607   0.479
 2167TIP3    H1 6442   1.898   1.634   0.493
 2167TIP3    H2 6443   2.017   1.656   0.402
 2168TIP3   OH2 6444   6.007   2.981   2.585
 2168TIP3    H1 6445   5.981   2.987   2.493
 2168TIP3    H2 6446   6.100   3.007   2.586
 2169TIP3   OH2 6447   5.735   5.532   5.290
 2169TIP3    H1 6448   5.673   5.603   5.280
 2169TIP3    H2 6449   5.681   5.453   5.294
 2170TIP3   OH2 6450   7.486   3.010   0.990
 2170TIP3    H1 6451   7.524   3.084   0.943
 2170TIP3    H2 6452   7.503   2.934   0.934
 2171TIP3   OH2 6453   0.556   4.291   0.589
 2171TIP3    H1 6454   0.607   4.347   0.647
 2171TIP3    H2 6455   0.509   4.351   0.532
 2172TIP3   OH2 6456   2.521   4.393   4.803
 2172TIP3    H1 6457   2.593   4.352   4.756
 2172TIP3    H2 6458   2.442   4.362   4.758
 2173TIP3   OH2 6459   7.933   6.559   0.604
 2173TIP3    H1 6460   7.938   6.602   0.690
 2173TIP3    H2 6461   7.849   6.513   0.605
 2174TIP3   OH2 6462   6.686   5.698   2.621
 2174TIP3    H1 6463   6.693   5.746   2.539
 2174TIP3    H2 6464   6.635   5.755   2.678
 2175TIP3   OH2 6465   2.110   0.737   6.227
 2175TIP3    H1 6466   2.089   0.702   6.314
 2175TIP3    H2 6467   2.204   0.755   6.231
 2176TIP3   OH2 6468   2.590   0.566   6.683
 2176TIP3    H1 6469   2.650   0.638   6.702
 2176TIP3    H2 6470   2.520   0.606   6.631
 2177TIP3   OH2 6471   5.520   2.439   3.312
 2177TIP3    H1 6472   5.489   2.438   3.403
 2177TIP3    H2 6473   5.512   2.348   3.283
 2178TIP3   OH2 6474   3.233   6.928   4.907
 2178TIP3    H1 6475   3.262   6.839   4.929
 2178TIP3    H2 6476   3.189   6.959   4.986
 2179TIP3   OH2 6477   4.485   2.596   0.835
 2179TIP3    H1 6478   4.480   2.689   0.814
 2179TIP3    H2 6479   4.566   2.587   0.885
 2180TIP3   OH2 6480   4.161   0.152   2.382
 2180TIP3    H1 6481   4.158   0.074   2.437
 2180TIP3    H2 6482   4.237   0.139   2.325
 2181TIP3   OH2 6483   7.979   0.102   1.061
 2181TIP3    H1 6484   7.885   0.096   1.050
 2181TIP3    H2 6485   7.991   0.151   1.142
 2182TIP3   OH2 6486   7.603   0.041   4.559
 2182TIP3    H1 6487   7.569   0.031   4.648
 2182TIP3    H2 6488   7.652   0.124   4.562
 2183TIP3   OH2 6489   3.530   2.105   3.692
 2183TIP3    H1 6490   3.560   2.160   3.765
 2183TIP3    H2 6491   3.520   2.167   3.619
 2184TIP3   OH2 6492   2.313   3.964   4.597
 2184TIP3    H1 6493   2.337   3.909   4.522
 2184TIP3    H2 6494   2.395   4.007   4.621
 2185TIP3   OH2 6495   4.068   4.183   1.379
 2185TIP3    H1 6496   4.137   4.194   1.443
 2185TIP3    H2 6497   4.039   4.273   1.359
 2186TIP3   OH2 6498   1.197   7.274   1.518
 2186TIP3    H1 6499   1.265   7.321   1.566
 2186TIP3    H2 6500   1.243   7.198   1.480
 2187TIP3   OH2 6501   2.754   6.045   4.612
 2187TIP3    H1 6502   2.666   6.011   4.595
 2187TIP3    H2 6503   2.794   6.053   4.525
 2188TIP3   OH2 6504   3.175   0.803   4.777
 2188TIP3    H1 6505   3.207   0.763   4.696
 2188TIP3    H2 6506   3.122   0.877   4.747
 2189TIP3   OH2 6507   6.207   1.084   2.337
 2189TIP3    H1 6508   6.242   0.995   2.331
 2189TIP3    H2 6509   6.243   1.130   2.261
 2190TIP3   OH2 6510   0.184   4.336   5.602
 2190TIP3    H1 6511   0.139   4.297   5.527
 2190TIP3    H2 6512   0.248   4.270   5.628
 2191TIP3   OH2 6513   7.338   5.718   4.288
 2191TIP3    H1 6514   7.270   5.672   4.338
 2191TIP3    H2 6515   7.296   5.799   4.259
 2192TIP3   OH2 6516   3.212   2.684   1.116
 2192TIP3    H1 6517   3.209   2.739   1.194
 2192TIP3    H2 6518   3.299   2.644   1.117
 2193TIP3   OH2 6519   6.597   4.954   2.345
 2193TIP3    H1 6520   6.675   4.898   2.349
 2193TIP3    H2 6521   6.528   4.903   2.385
 2194TIP3   OH2 6522   7.833   1.825   5.151
 2194TIP3    H1 6523   7.744   1.838   5.184
 2194TIP3    H2 6524   7.821   1.793   5.062
 2195TIP3   OH2 6525   1.169   1.790   6.250
 2195TIP3    H1 6526   1.205   1.843   6.321
 2195TIP3    H2 6527   1.141   1.854   6.185
 2196TIP3   OH2 6528   4.190   2.257   4.908
 2196TIP3    H1 6529   4.264   2.314   4.930
 2196TIP3    H2 6530   4.141   2.250   4.990
 2197TIP3   OH2 6531   4.597   1.806   2.851
 2197TIP3    H1 6532   4.515   1.761   2.872
 2197TIP3    H2 6533   4.610   1.790   2.758
 2198TIP3   OH2 6534   5.779   2.462   2.142
 2198TIP3    H1 6535   5.740   2.377   2.163
 2198TIP3    H2 6536   5.755   2.476   2.050
 2199TIP3   OH2 6537   2.626   1.438   6.249
 2199TIP3    H1 6538   2.664   1.354   6.276
 2199TIP3    H2 6539   2.574   1.417   6.172
 2200TIP3   OH2 6540   4.156   0.582   6.334
 2200TIP3    H1 6541   4.225   0.647   6.348
 2200TIP3    H2 6542   4.147   0.537   6.418
 2201TIP3   OH2 6543   6.184   1.749   2.660
 2201TIP3    H1 6544   6.118   1.706   2.714
 2201TIP3    H2 6545   6.265   1.742   2.711
 2202TIP3   OH2 6546   7.457   6.567   3.135
 2202TIP3    H1 6547   7.546   6.534   3.124
 2202TIP3    H2 6548   7.406   6.521   3.069
 2203TIP3   OH2 6549   4.216   1.355   4.150
 2203TIP3    H1 6550   4.210   1.342   4.245
 2203TIP3    H2 6551   4.257   1.441   4.141
 2204TIP3   OH2 6552   5.427   6.101   5.032
 2204TIP3    H1 6553   5.471   6.023   5.066
 2204TIP3    H2 6554   5.449   6.102   4.939
 2205TIP3   OH2 6555   4.763   3.365   2.225
 2205TIP3    H1 6556   4.752   3.448   2.270
 2205TIP3    H2 6557   4.788   3.303   2.295
 2206TIP3   OH2 6558   6.233   7.285   2.882
 2206TIP3    H1 6559   6.327   7.306   2.883
 2206TIP3    H2 6560   6.191   7.366   2.909
 2207TIP3   OH2 6561   5.357   5.099   6.278
 2207TIP3    H1 6562   5.290   5.046   6.235
 2207TIP3    H2 6563   5.340   5.188   6.249
 2208TIP3   OH2 6564   0.897   3.911   3.460
 2208TIP3    H1 6565   0.879   3.905   3.366
 2208TIP3    H2 6566   0.858   3.833   3.497
 2209TIP3   OH2 6567   4.912   4.601   5.577
 2209TIP3    H1 6568   4.936   4.649   5.497
 2209TIP3    H2 6569   4.821   4.573   5.562
 2210TIP3   OH2 6570   1.784   5.427   1.485
 2210TIP3    H1 6571   1.875   5.404   1.468
 2210TIP3    H2 6572   1.758   5.481   1.410
 2211TIP3   OH2 6573   1.597   4.282   5.298
 2211TIP3    H1 6574   1.598   4.328   5.382
 2211TIP3    H2 6575   1.535   4.211   5.311
 2212TIP3   OH2 6576   4.314   6.861   1.341
 2212TIP3    H1 6577   4.235   6.807   1.342
 2212TIP3    H2 6578   4.321   6.892   1.251
 2213TIP3   OH2 6579   2.081   3.875   4.747
 2213TIP3    H1 6580   2.136   3.922   4.684
 2213TIP3    H2 6581   2.063   3.791   4.704
 2214TIP3   OH2 6582   0.696   2.357   0.982
 2214TIP3    H1 6583   0.721   2.333   1.071
 2214TIP3    H2 6584   0.772   2.333   0.928
 2215TIP3   OH2 6585   0.861   4.767   5.106
 2215TIP3    H1 6586   0.806   4.710   5.159
 2215TIP3    H2 6587   0.841   4.855   5.138
 2216TIP3   OH2 6588   3.555   3.901   1.061
 2216TIP3    H1 6589   3.564   3.902   0.966
 2216TIP3    H2 6590   3.632   3.853   1.092
 2217TIP3   OH2 6591   8.304   6.089   3.405
 2217TIP3    H1 6592   8.242   6.085   3.479
 2217TIP3    H2 6593   8.315   6.183   3.389
 2218TIP3   OH2 6594   2.918   1.859   6.394
 2218TIP3    H1 6595   2.877   1.805   6.462
 2218TIP3    H2 6596   2.847   1.913   6.359
 2219TIP3   OH2 6597   1.900   4.691   3.434
 2219TIP3    H1 6598   1.868   4.779   3.455
 2219TIP3    H2 6599   1.906   4.690   3.338
 2220TIP3   OH2 6600   5.799   6.341   2.842
 2220TIP3    H1 6601   5.841   6.400   2.779
 2220TIP3    H2 6602   5.862   6.270   2.853
 2221TIP3   OH2 6603   6.051   4.431   4.313
 2221TIP3    H1 6604   6.043   4.361   4.248
 2221TIP3    H2 6605   5.961   4.449   4.340
 2222TIP3   OH2 6606   2.845   4.482   3.419
 2222TIP3    H1 6607   2.852   4.456   3.511
 2222TIP3    H2 6608   2.897   4.417   3.371
 2223TIP3   OH2 6609   0.245   6.160   3.519
 2223TIP3    H1 6610   0.193   6.199   3.448
 2223TIP3    H2 6611   0.334   6.192   3.505
 2224TIP3   OH2 6612   1.602   6.954   0.338
 2224TIP3    H1 6613   1.543   6.881   0.354
 2224TIP3    H2 6614   1.545   7.028   0.315
 2225TIP3   OH2 6615   1.515   6.158   4.287
 2225TIP3    H1 6616   1.461   6.080   4.275
 2225TIP3    H2 6617   1.578   6.134   4.355
 2226TIP3   OH2 6618   5.835   6.843   3.158
 2226TIP3    H1 6619   5.814   6.755   3.189
 2226TIP3    H2 6620   5.876   6.885   3.234
 2227TIP3   OH2 6621   4.595   1.174   0.843
 2227TIP3    H1 6622   4.521   1.114   0.845
 2227TIP3    H2 6623   4.589   1.224   0.924
 2228TIP3   OH2 6624   5.286   3.326   2.226
 2228TIP3    H1 6625   5.199   3.363   2.213
 2228TIP3    H2 6626   5.342   3.401   2.245
 2229TIP3   OH2 6627   4.484   3.221   3.027
 2229TIP3    H1 6628   4.566   3.174   3.039
 2229TIP3    H2 6629   4.416   3.159   3.054
 2230TIP3   OH2 6630   7.362   6.874   5.758
 2230TIP3    H1 6631   7.347   6.969   5.765
 2230TIP3    H2 6632   7.438   6.866   5.702
 2231TIP3   OH2 6633   5.347   3.153   1.650
 2231TIP3    H1 6634   5.337   3.058   1.653
 2231TIP3    H2 6635   5.313   3.178   1.564
 2232TIP3   OH2 6636   5.443   4.386   1.534
 2232TIP3    H1 6637   5.383   4.445   1.579
 2232TIP3    H2 6638   5.387   4.317   1.498
 2233TIP3   OH2 6639   4.247   1.757   6.255
 2233TIP3    H1 6640   4.295   1.839   6.242
 2233TIP3    H2 6641   4.297   1.692   6.206
 2234TIP3   OH2 6642   7.782   2.546   0.467
 2234TIP3    H1 6643   7.784   2.640   0.449
 2234TIP3    H2 6644   7.691   2.529   0.493
 2235TIP3   OH2 6645   3.391   0.991   5.911
 2235TIP3    H1 6646   3.384   0.934   5.988
 2235TIP3    H2 6647   3.477   1.033   5.921
 2236TIP3   OH2 6648   3.294   7.635   4.132
 2236TIP3    H1 6649   3.302   7.700   4.062
 2236TIP3    H2 6650   3.376   7.642   4.181
 2237TIP3   OH2 6651   2.100   6.078   1.348
 2237TIP3    H1 6652   2.172   6.039   1.298
 2237TIP3    H2 6653   2.100   6.170   1.324
 2238TIP3   OH2 6654   2.114   7.899   3.615
 2238TIP3    H1 6655   2.158   7.978   3.646
 2238TIP3    H2 6656   2.157   7.828   3.663
 2239TIP3   OH2 6657   6.615   7.084   0.335
 2239TIP3    H1 6658   6.664   7.012   0.374
 2239TIP3    H2 6659   6.575   7.129   0.409
 2240TIP3   OH2 6660   1.951   4.288   6.574
 2240TIP3    H1 6661   1.870   4.289   6.523
 2240TIP3    H2 6662   1.962   4.379   6.603
 2241TIP3   OH2 6663   0.437   4.987   2.293
 2241TIP3    H1 6664   0.352   4.952   2.270
 2241TIP3    H2 6665   0.461   4.942   2.374
 2242TIP3   OH2 6666   6.347   3.134   0.433
 2242TIP3    H1 6667   6.273   3.119   0.374
 2242TIP3    H2 6668   6.422   3.144   0.374
 2243TIP3   OH2 6669   6.106   1.751   1.721
 2243TIP3    H1 6670   6.168   1.680   1.705
 2243TIP3    H2 6671   6.021   1.715   1.699
 2244TIP3   OH2 6672   5.496   2.666   5.963
 2244TIP3    H1 6673   5.539   2.721   5.898
 2244TIP3    H2 6674   5.535   2.579   5.951
 2245TIP3   OH2 6675   5.108   5.188   0.072
 2245TIP3    H1 6676   5.133   5.123   0.138
 2245TIP3    H2 6677   5.138   5.271   0.108
 2246TIP3   OH2 6678   2.084   6.323   1.817
 2246TIP3    H1 6679   2.006   6.287   1.859
 2246TIP3    H2 6680   2.109   6.258   1.751
 2247TIP3   OH2 6681   6.949   0.856   2.916
 2247TIP3    H1 6682   6.919   0.765   2.920
 2247TIP3    H2 6683   7.041   0.849   2.892
 2248TIP3   OH2 6684   4.756   7.517   2.007
 2248TIP3    H1 6685   4.794   7.468   2.081
 2248TIP3    H2 6686   4.673   7.552   2.041
 2249TIP3   OH2 6687   3.032   6.638   2.957
 2249TIP3    H1 6688   2.977   6.715   2.947
 2249TIP3    H2 6689   3.120   6.673   2.973
 2250TIP3   OH2 6690   5.886   5.241   6.544
 2250TIP3    H1 6691   5.957   5.188   6.507
 2250TIP3    H2 6692   5.858   5.297   6.472
 2251TIP3   OH2 6693   6.261   7.906   0.607
 2251TIP3    H1 6694   6.253   7.824   0.656
 2251TIP3    H2 6695   6.264   7.974   0.675
 2252TIP3   OH2 6696   3.203   7.424   4.536
 2252TIP3    H1 6697   3.194   7.351   4.476
 2252TIP3    H2 6698   3.293   7.455   4.523
 2253TIP3   OH2 6699   4.516   2.280   4.285
 2253TIP3    H1 6700   4.462   2.329   4.347
 2253TIP3    H2 6701   4.605   2.312   4.300
 2254TIP3   OH2 6702   6.350   7.605   0.285
 2254TIP3    H1 6703   6.366   7.523   0.332
 2254TIP3    H2 6704   6.390   7.673   0.341
 2255TIP3   OH2 6705   4.285   4.166   3.960
 2255TIP3    H1 6706   4.268   4.211   3.877
 2255TIP3    H2 6707   4.234   4.216   4.024
 2256TIP3   OH2 6708   7.098   0.505   2.278
 2256TIP3    H1 6709   7.117   0.461   2.361
 2256TIP3    H2 6710   7.089   0.433   2.215
 2257TIP3   OH2 6711   5.389   2.049   4.565
 2257TIP3    H1 6712   5.371   2.135   4.602
 2257TIP3    H2 6713   5.485   2.044   4.561
 2258TIP3   OH2 6714   1.001   4.012   4.115
 2258TIP3    H1 6715   0.920   4.004   4.164
 2258TIP3    H2 6716   0.983   3.971   4.030
 2259TIP3   OH2 6717   7.884   1.835   1.924
 2259TIP3    H1 6718   7.885   1.770   1.853
 2259TIP3    H2 6719   7.946   1.903   1.895
 2260TIP3   OH2 6720   7.098   5.947   2.093
 2260TIP3    H1 6721   7.015   5.908   2.119
 2260TIP3    H2 6722   7.080   5.991   2.010
 2261TIP3   OH2 6723   0.233   1.653   3.318
 2261TIP3    H1 6724   0.306   1.653   3.380
 2261TIP3    H2 6725   0.275   1.641   3.233
 2262TIP3   OH2 6726   0.532   1.961   1.241
 2262TIP3    H1 6727   0.526   2.016   1.320
 2262TIP3    H2 6728   0.614   1.987   1.200
 2263TIP3   OH2 6729   4.711   1.747   3.968
 2263TIP3    H1 6730   4.798   1.708   3.976
 2263TIP3    H2 6731   4.695   1.787   4.054
 2264TIP3   OH2 6732   2.844   7.572   3.401
 2264TIP3    H1 6733   2.822   7.479   3.406
 2264TIP3    H2 6734   2.924   7.581   3.453
 2265TIP3   OH2 6735   1.650   6.592   2.292
 2265TIP3    H1 6736   1.672   6.562   2.204
 2265TIP3    H2 6737   1.618   6.514   2.337
 2266TIP3   OH2 6738   4.759   6.746   5.106
 2266TIP3    H1 6739   4.713   6.821   5.069
 2266TIP3    H2 6740   4.690   6.683   5.126
 2267TIP3   OH2 6741   3.565   2.468   4.150
 2267TIP3    H1 6742   3.540   2.461   4.242
 2267TIP3    H2 6743   3.633   2.401   4.138
 2268TIP3   OH2 6744   5.494   7.041   4.101
 2268TIP3    H1 6745   5.576   7.015   4.142
 2268TIP3    H2 6746   5.500   7.136   4.092
 2269TIP3   OH2 6747   3.935   1.505   0.900
 2269TIP3    H1 6748   3.905   1.450   0.972
 2269TIP3    H2 6749   3.931   1.595   0.935
 2270TIP3   OH2 6750   2.483   5.461   1.823
 2270TIP3    H1 6751   2.442   5.407   1.891
 2270TIP3    H2 6752   2.454   5.422   1.741
 2271TIP3   OH2 6753   3.539   0.570   0.010
 2271TIP3    H1 6754   3.458   0.618   0.026
 2271TIP3    H2 6755   3.528   0.487   0.057
 2272TIP3   OH2 6756   2.750   2.268   6.211
 2272TIP3    H1 6757   2.744   2.224   6.126
 2272TIP3    H2 6758   2.658   2.284   6.235
 2273TIP3   OH2 6759   5.400   3.274   3.471
 2273TIP3    H1 6760   5.433   3.363   3.457
 2273TIP3    H2 6761   5.364   3.275   3.559
 2274TIP3   OH2 6762   2.392   3.067   6.466
 2274TIP3    H1 6763   2.298   3.077   6.479
 2274TIP3    H2 6764   2.403   3.060   6.371
 2275TIP3   OH2 6765   5.498   4.367   0.083
 2275TIP3    H1 6766   5.452   4.381   0.000
 2275TIP3    H2 6767   5.428   4.361   0.148
 2276TIP3   OH2 6768   4.732   3.858   3.526
 2276TIP3    H1 6769   4.641   3.859   3.495
 2276TIP3    H2 6770   4.784   3.886   3.450
 2277TIP3   OH2 6771   6.255   6.773   3.937
 2277TIP3    H1 6772   6.231   6.706   3.874
 2277TIP3    H2 6773   6.173   6.819   3.957
 2278TIP3   OH2 6774   5.992   3.501   6.637
 2278TIP3    H1 6775   5.919   3.454   6.677
 2278TIP3    H2 6776   6.024   3.559   6.706
 2279TIP3   OH2 6777   3.664   5.277   0.683
 2279TIP3    H1 6778   3.607   5.256   0.756
 2279TIP3    H2 6779   3.752   5.261   0.716
 2280TIP3   OH2 6780   7.175   2.337   0.429
 2280TIP3    H1 6781   7.255   2.284   0.427
 2280TIP3    H2 6782   7.153   2.351   0.337
 2281TIP3   OH2 6783   6.829   2.581   0.342
 2281TIP3    H1 6784   6.856   2.656   0.395
 2281TIP3    H2 6785   6.737   2.597   0.322
 2282TIP3   OH2 6786   5.570   7.789   2.242
 2282TIP3    H1 6787   5.555   7.849   2.316
 2282TIP3    H2 6788   5.541   7.838   2.165
 2283TIP3   OH2 6789   3.047   6.596   0.241
 2283TIP3    H1 6790   3.105   6.560   0.173
 2283TIP3    H2 6791   3.102   6.602   0.319
 2284TIP3   OH2 6792   4.762   1.740   2.093
 2284TIP3    H1 6793   4.767   1.798   2.016
 2284TIP3    H2 6794   4.672   1.707   2.092
 2285TIP3   OH2 6795   7.308   2.315   5.484
 2285TIP3    H1 6796   7.350   2.287   5.565
 2285TIP3    H2 6797   7.289   2.408   5.497
 2286TIP3   OH2 6798   0.581   2.739   4.908
 2286TIP3    H1 6799   0.504   2.796   4.907
 2286TIP3    H2 6800   0.569   2.682   4.984
 2287TIP3   OH2 6801   4.422   5.676   4.536
 2287TIP3    H1 6802   4.342   5.626   4.523
 2287TIP3    H2 6803   4.477   5.654   4.461
 2288TIP3   OH2 6804   3.861   7.917   3.559
 2288TIP3    H1 6805   3.955   7.911   3.541
 2288TIP3    H2 6806   3.842   7.839   3.611
 2289TIP3   OH2 6807   5.571   2.958   6.840
 2289TIP3    H1 6808   5.483   2.964   6.877
 2289TIP3    H2 6809   5.571   3.023   6.769
 2290TIP3   OH2 6810   0.216   4.407   4.874
 2290TIP3    H1 6811   0.282   4.361   4.925
 2290TIP3    H2 6812   0.133   4.379   4.912
 2291TIP3   OH2 6813   3.401   3.808   1.996
 2291TIP3    H1 6814   3.398   3.834   1.904
 2291TIP3    H2 6815   3.403   3.890   2.045
 2292TIP3   OH2 6816   7.712   2.701   4.347
 2292TIP3    H1 6817   7.672   2.780   4.385
 2292TIP3    H2 6818   7.638   2.643   4.329
 2293TIP3   OH2 6819   5.887   1.009   4.456
 2293TIP3    H1 6820   5.982   1.009   4.446
 2293TIP3    H2 6821   5.870   1.072   4.526
 2294TIP3   OH2 6822   6.996   2.256   2.989
 2294TIP3    H1 6823   7.037   2.169   2.985
 2294TIP3    H2 6824   6.975   2.268   3.082
 2295TIP3   OH2 6825   1.983   6.874   3.917
 2295TIP3    H1 6826   2.033   6.928   3.855
 2295TIP3    H2 6827   2.046   6.848   3.983
 2296TIP3   OH2 6828   0.823   7.030   6.183
 2296TIP3    H1 6829   0.758   7.081   6.232
 2296TIP3    H2 6830   0.794   6.939   6.192
 2297TIP3   OH2 6831   4.046   1.697   5.337
 2297TIP3    H1 6832   4.031   1.670   5.427
 2297TIP3    H2 6833   4.070   1.616   5.292
 2298TIP3   OH2 6834   0.764   0.415   6.824
 2298TIP3    H1 6835   0.832   0.422   6.757
 2298TIP3    H2 6836   0.797   0.467   6.898
 2299TIP3   OH2 6837   5.105   0.748   6.494
 2299TIP3    H1 6838   5.160   0.759   6.571
 2299TIP3    H2 6839   5.134   0.665   6.455
 2300TIP3   OH2 6840   5.449   6.694   0.949
 2300TIP3    H1 6841   5.453   6.705   0.854
 2300TIP3    H2 6842   5.452   6.782   0.984
 2301TIP3   OH2 6843   2.661   4.972   1.011
 2301TIP3    H1 6844   2.755   4.990   1.017
 2301TIP3    H2 6845   2.637   4.940   1.098
 2302TIP3   OH2 6846   3.395   1.966   5.932
 2302TIP3    H1 6847   3.471   1.999   5.884
 2302TIP3    H2 6848   3.367   2.040   5.986
 2303TIP3   OH2 6849   5.582   6.057   6.614
 2303TIP3    H1 6850   5.676   6.046   6.630
 2303TIP3    H2 6851   5.576   6.078   6.521
 2304TIP3   OH2 6852   4.081   5.267   4.033
 2304TIP3    H1 6853   4.032   5.257   4.115
 2304TIP3    H2 6854   4.013   5.286   3.967
 2305TIP3   OH2 6855   5.379   7.140   6.022
 2305TIP3    H1 6856   5.449   7.206   6.031
 2305TIP3    H2 6857   5.298   7.189   6.036
 2306TIP3   OH2 6858   0.301   2.645   5.572
 2306TIP3    H1 6859   0.249   2.699   5.632
 2306TIP3    H2 6860   0.271   2.556   5.589
 2307TIP3   OH2 6861   0.614   5.396   0.155
 2307TIP3    H1 6862   0.570   5.422   0.074
 2307TIP3    H2 6863   0.656   5.476   0.187
 2308TIP3   OH2 6864   1.105   2.654   2.978
 2308TIP3    H1 6865   1.121   2.639   3.071
 2308TIP3    H2 6866   1.145   2.739   2.960
 2309TIP3   OH2 6867   3.993   6.301   3.292
 2309TIP3    H1 6868   4.004   6.358   3.216
 2309TIP3    H2 6869   3.930   6.235   3.263
 2310TIP3   OH2 6870   3.105   1.713   1.732
 2310TIP3    H1 6871   3.085   1.743   1.820
 2310TIP3    H2 6872   3.148   1.628   1.745
 2311TIP3   OH2 6873   2.436   3.059   0.528
 2311TIP3    H1 6874   2.525   3.057   0.495
 2311TIP3    H2 6875   2.407   2.967   0.525
 2312TIP3   OH2 6876   5.229   2.624   4.238
 2312TIP3    H1 6877   5.273   2.540   4.222
 2312TIP3    H2 6878   5.232   2.669   4.154
 2313TIP3   OH2 6879   5.197   6.278   1.865
 2313TIP3    H1 6880   5.205   6.300   1.773
 2313TIP3    H2 6881   5.192   6.363   1.910
 2314TIP3   OH2 6882   4.901   5.392   1.635
 2314TIP3    H1 6883   4.922   5.354   1.720
 2314TIP3    H2 6884   4.982   5.384   1.585
 2315TIP3   OH2 6885   0.253   5.312   4.293
 2315TIP3    H1 6886   0.183   5.335   4.355
 2315TIP3    H2 6887   0.272   5.393   4.247
 2316TIP3   OH2 6888   8.211   0.828   2.268
 2316TIP3    H1 6889   8.237   0.920   2.275
 2316TIP3    H2 6890   8.122   0.831   2.234
 2317TIP3   OH2 6891   3.619   6.409   5.050
 2317TIP3    H1 6892   3.662   6.393   5.134
 2317TIP3    H2 6893   3.528   6.382   5.064
 2318TIP3   OH2 6894   5.914   1.823   0.064
 2318TIP3    H1 6895   5.981   1.890   0.048
 2318TIP3    H2 6896   5.950   1.771   0.136
 2319TIP3   OH2 6897   1.145   6.209   5.850
 2319TIP3    H1 6898   1.213   6.275   5.834
 2319TIP3    H2 6899   1.170   6.135   5.796
 2320TIP3   OH2 6900   0.810   5.935   2.657
 2320TIP3    H1 6901   0.794   5.857   2.710
 2320TIP3    H2 6902   0.835   6.002   2.721
 2321TIP3   OH2 6903   7.675   0.379   3.491
 2321TIP3    H1 6904   7.696   0.461   3.446
 2321TIP3    H2 6905   7.590   0.396   3.532
 2322TIP3   OH2 6906   3.814   1.251   5.357
 2322TIP3    H1 6907   3.848   1.169   5.322
 2322TIP3    H2 6908   3.837   1.249   5.450
 2323TIP3   OH2 6909   6.949   6.890   4.232
 2323TIP3    H1 6910   7.023   6.837   4.204
 2323TIP3    H2 6911   6.894   6.829   4.281
 2324TIP3   OH2 6912   3.924   5.120   1.289
 2324TIP3    H1 6913   3.981   5.079   1.224
 2324TIP3    H2 6914   3.906   5.051   1.352
 2325TIP3   OH2 6915   2.753   0.040   2.621
 2325TIP3    H1 6916   2.692   0.112   2.639
 2325TIP3    H2 6917   2.839   0.078   2.636
 2326TIP3   OH2 6918   0.812   5.217   5.594
 2326TIP3    H1 6919   0.786   5.296   5.547
 2326TIP3    H2 6920   0.843   5.249   5.679
 2327TIP3   OH2 6921   5.590   2.727   1.745
 2327TIP3    H1 6922   5.563   2.764   1.829
 2327TIP3    H2 6923   5.656   2.788   1.711
 2328TIP3   OH2 6924   6.439   4.251   6.681
 2328TIP3    H1 6925   6.411   4.257   6.772
 2328TIP3    H2 6926   6.501   4.323   6.670
 2329TIP3   OH2 6927   5.079   4.289   5.995
 2329TIP3    H1 6928   5.028   4.343   5.936
 2329TIP3    H2 6929   5.167   4.288   5.957
 2330TIP3   OH2 6930   7.789   1.285   1.348
 2330TIP3    H1 6931   7.747   1.200   1.362
 2330TIP3    H2 6932   7.875   1.263   1.311
 2331TIP3   OH2 6933   0.490   2.299   6.472
 2331TIP3    H1 6934   0.398   2.290   6.494
 2331TIP3    H2 6935   0.537   2.267   6.549
 2332TIP3   OH2 6936   3.649   5.945   6.459
 2332TIP3    H1 6937   3.632   5.997   6.380
 2332TIP3    H2 6938   3.605   5.993   6.529
 2333TIP3   OH2 6939   5.487   6.039   3.779
 2333TIP3    H1 6940   5.425   6.056   3.850
 2333TIP3    H2 6941   5.573   6.049   3.820
 2334TIP3   OH2 6942   5.053   1.331   2.888
 2334TIP3    H1 6943   4.988   1.327   2.958
 2334TIP3    H2 6944   5.085   1.421   2.889
 2335TIP3   OH2 6945   3.580   2.793   0.907
 2335TIP3    H1 6946   3.552   2.788   0.816
 2335TIP3    H2 6947   3.600   2.703   0.932
 2336TIP3   OH2 6948   4.853   0.661   5.806
 2336TIP3    H1 6949   4.931   0.631   5.854
 2336TIP3    H2 6950   4.838   0.592   5.741
 2337TIP3   OH2 6951   4.551   5.196   3.536
 2337TIP3    H1 6952   4.472   5.233   3.496
 2337TIP3    H2 6953   4.572   5.256   3.607
 2338TIP3   OH2 6954   5.356   5.713   4.462
 2338TIP3    H1 6955   5.268   5.710   4.424
 2338TIP3    H2 6956   5.410   5.754   4.394
 2339TIP3   OH2 6957   1.384   4.391   1.347
 2339TIP3    H1 6958   1.297   4.427   1.365
 2339TIP3    H2 6959   1.421   4.374   1.434
 2340TIP3   OH2 6960   0.320   0.959   4.642
 2340TIP3    H1 6961   0.391   0.988   4.700
 2340TIP3    H2 6962   0.306   0.867   4.665
 2341TIP3   OH2 6963   5.820   0.686   5.104
 2341TIP3    H1 6964   5.728   0.676   5.081
 2341TIP3    H2 6965   5.851   0.755   5.046
 2342TIP3   OH2 6966   2.769   3.098   5.849
 2342TIP3    H1 6967   2.690   3.058   5.812
 2342TIP3    H2 6968   2.756   3.192   5.835
 2343TIP3   OH2 6969   4.246   7.420   3.045
 2343TIP3    H1 6970   4.297   7.339   3.051
 2343TIP3    H2 6971   4.202   7.414   2.960
 2344TIP3   OH2 6972   3.139   6.718   6.488
 2344TIP3    H1 6973   3.079   6.644   6.498
 2344TIP3    H2 6974   3.129   6.767   6.570
 2345TIP3   OH2 6975   5.750   6.515   5.164
 2345TIP3    H1 6976   5.833   6.536   5.120
 2345TIP3    H2 6977   5.772   6.514   5.257
 2346TIP3   OH2 6978   6.482   4.466  -0.016
 2346TIP3    H1 6979   6.421   4.539  -0.003
 2346TIP3    H2 6980   6.540   4.469   0.060
 2347TIP3   OH2 6981   7.453   2.328   4.359
 2347TIP3    H1 6982   7.460   2.237   4.329
 2347TIP3    H2 6983   7.476   2.324   4.452
 2348TIP3   OH2 6984   5.099   3.750   4.376
 2348TIP3    H1 6985   5.057   3.826   4.336
 2348TIP3    H2 6986   5.027   3.693   4.402
 2349TIP3   OH2 6987   2.448   4.245   6.318
 2349TIP3    H1 6988   2.480   4.261   6.407
 2349TIP3    H2 6989   2.355   4.229   6.329
 2350TIP3   OH2 6990   6.585   1.216   3.458
 2350TIP3    H1 6991   6.565   1.309   3.450
 2350TIP3    H2 6992   6.615   1.190   3.371
 2351TIP3   OH2 6993   5.476   3.507   0.828
 2351TIP3    H1 6994   5.488   3.426   0.778
 2351TIP3    H2 6995   5.391   3.495   0.871
 2352TIP3   OH2 6996   6.287   5.561   3.605
 2352TIP3    H1 6997   6.261   5.504   3.677
 2352TIP3    H2 6998   6.380   5.544   3.592
 2353TIP3   OH2 6999   0.444   1.316   5.770
 2353TIP3    H1 7000   0.438   1.284   5.860
 2353TIP3    H2 7001   0.367   1.281   5.726
 2354TIP3   OH2 7002   4.155   0.163   0.313
 2354TIP3    H1 7003   4.087   0.109   0.354
 2354TIP3    H2 7004   4.186   0.220   0.384
 2355TIP3   OH2 7005   1.408   2.061   4.794
 2355TIP3    H1 7006   1.362   2.003   4.855
 2355TIP3    H2 7007   1.488   2.013   4.771
 2356TIP3   OH2 7008   1.104   0.126   2.444
 2356TIP3    H1 7009   1.066   0.204   2.484
 2356TIP3    H2 7010   1.042   0.056   2.465
 2357TIP3   OH2 7011   0.336   1.488   3.720
 2357TIP3    H1 7012   0.420   1.476   3.765
 2357TIP3    H2 7013   0.326   1.408   3.667
 2358TIP3   OH2 7014   4.663   5.717   3.308
 2358TIP3    H1 7015   4.686   5.732   3.399
 2358TIP3    H2 7016   4.600   5.786   3.287
 2359TIP3   OH2 7017   7.716   4.575   5.111
 2359TIP3    H1 7018   7.639   4.633   5.116
 2359TIP3    H2 7019   7.685   4.499   5.063
 2360TIP3   OH2 7020   1.987   1.712   4.275
 2360TIP3    H1 7021   2.076   1.695   4.307
 2360TIP3    H2 7022   1.945   1.625   4.273
 2361TIP3   OH2 7023   2.745   1.986   2.810
 2361TIP3    H1 7024   2.722   2.037   2.732
 2361TIP3    H2 7025   2.675   1.922   2.819
 2362TIP3   OH2 7026   1.373   7.512   4.434
 2362TIP3    H1 7027   1.287   7.520   4.474
 2362TIP3    H2 7028   1.368   7.568   4.356
 2363TIP3   OH2 7029   7.425   5.681   5.616
 2363TIP3    H1 7030   7.464   5.646   5.696
 2363TIP3    H2 7031   7.413   5.604   5.560
 2364TIP3   OH2 7032   7.531   2.267   0.026
 2364TIP3    H1 7033   7.595   2.310  -0.031
 2364TIP3    H2 7034   7.474   2.338   0.055
 2365TIP3   OH2 7035   7.998   0.016   0.118
 2365TIP3    H1 7036   7.972   0.078   0.049
 2365TIP3    H2 7037   7.924  -0.044   0.124
 2366TIP3   OH2 7038   3.872   2.725   3.706
 2366TIP3    H1 7039   3.781   2.719   3.679
 2366TIP3    H2 7040   3.870   2.764   3.793
 2367TIP3   OH2 7041   3.490   4.477   1.030
 2367TIP3    H1 7042   3.569   4.454   1.080
 2367TIP3    H2 7043   3.420   4.472   1.094
 2368TIP3   OH2 7044   5.511   6.573   2.870
 2368TIP3    H1 7045   5.568   6.648   2.889
 2368TIP3    H2 7046   5.546   6.502   2.925
 2369TIP3   OH2 7047   4.648   0.050   1.504
 2369TIP3    H1 7048   4.559   0.083   1.490
 2369TIP3    H2 7049   4.705   0.111   1.457
 2370TIP3   OH2 7050   5.994   5.568   2.255
 2370TIP3    H1 7051   5.904   5.577   2.285
 2370TIP3    H2 7052   5.995   5.487   2.204
 2371TIP3   OH2 7053   1.906   2.270   5.011
 2371TIP3    H1 7054   1.812   2.288   5.000
 2371TIP3    H2 7055   1.916   2.249   5.104
 2372TIP3   OH2 7056   4.798   5.445   0.232
 2372TIP3    H1 7057   4.751   5.375   0.276
 2372TIP3    H2 7058   4.774   5.524   0.279
 2373TIP3   OH2 7059   6.161   1.578   6.771
 2373TIP3    H1 7060   6.129   1.620   6.691
 2373TIP3    H2 7061   6.253   1.606   6.777
 2374TIP3   OH2 7062   5.022   7.230   0.614
 2374TIP3    H1 7063   4.956   7.196   0.553
 2374TIP3    H2 7064   4.985   7.312   0.646
 2375TIP3   OH2 7065   4.989   1.664   4.057
 2375TIP3    H1 7066   5.034   1.599   4.110
 2375TIP3    H2 7067   4.996   1.745   4.107
 2376TIP3   OH2 7068   6.106   2.294   5.390
 2376TIP3    H1 7069   6.126   2.201   5.390
 2376TIP3    H2 7070   6.151   2.328   5.313
 2377TIP3   OH2 7071   6.886   2.964   4.460
 2377TIP3    H1 7072   6.933   2.881   4.452
 2377TIP3    H2 7073   6.945   3.029   4.421
 2378TIP3   OH2 7074   4.423   6.342   1.859
 2378TIP3    H1 7075   4.513   6.311   1.847
 2378TIP3    H2 7076   4.426   6.434   1.831
 2379TIP3   OH2 7077   7.291   6.362   1.242
 2379TIP3    H1 7078   7.335   6.397   1.164
 2379TIP3    H2 7079   7.359   6.312   1.287
 2380TIP3   OH2 7080   7.243   7.260   2.670
 2380TIP3    H1 7081   7.316   7.199   2.667
 2380TIP3    H2 7082   7.272   7.330   2.728
 2381TIP3   OH2 7083   8.149   7.319   1.666
 2381TIP3    H1 7084   8.138   7.362   1.751
 2381TIP3    H2 7085   8.090   7.366   1.608
 2382TIP3   OH2 7086   4.324   2.943   2.855
 2382TIP3    H1 7087   4.238   2.935   2.814
 2382TIP3    H2 7088   4.384   2.905   2.790
 2383TIP3   OH2 7089   4.381   1.264   6.007
 2383TIP3    H1 7090   4.341   1.177   6.008
 2383TIP3    H2 7091   4.399   1.282   5.915
 2384TIP3   OH2 7092   7.809   2.307   2.056
 2384TIP3    H1 7093   7.895   2.346   2.044
 2384TIP3    H2 7094   7.783   2.278   1.968
 2385TIP3   OH2 7095   2.060   6.490   5.516
 2385TIP3    H1 7096   2.092   6.483   5.606
 2385TIP3    H2 7097   1.988   6.553   5.522
 2386TIP3   OH2 7098   1.189   6.665   5.078
 2386TIP3    H1 7099   1.179   6.579   5.036
 2386TIP3    H2 7100   1.283   6.678   5.086
 2387TIP3   OH2 7101   3.796   1.575   5.441
 2387TIP3    H1 7102   3.705   1.563   5.414
 2387TIP3    H2 7103   3.846   1.573   5.359
 2388TIP3   OH2 7104   3.682   3.134   1.357
 2388TIP3    H1 7105   3.741   3.189   1.409
 2388TIP3    H2 7106   3.594   3.154   1.391
 2389TIP3   OH2 7107   4.032   5.964   1.777
 2389TIP3    H1 7108   4.073   5.899   1.834
 2389TIP3    H2 7109   4.104   6.021   1.751
 2390TIP3   OH2 7110   1.499   2.869   4.867
 2390TIP3    H1 7111   1.461   2.890   4.781
 2390TIP3    H2 7112   1.423   2.853   4.923
 2391TIP3   OH2 7113   7.219   3.598   1.476
 2391TIP3    H1 7114   7.254   3.616   1.389
 2391TIP3    H2 7115   7.138   3.549   1.460
 2392TIP3   OH2 7116   6.343   1.048   4.950
 2392TIP3    H1 7117   6.290   1.077   5.025
 2392TIP3    H2 7118   6.433   1.072   4.974
 2393TIP3   OH2 7119   6.112   3.181   5.450
 2393TIP3    H1 7120   6.077   3.093   5.437
 2393TIP3    H2 7121   6.197   3.180   5.406
 2394TIP3   OH2 7122   5.773   7.352   2.019
 2394TIP3    H1 7123   5.843   7.337   1.956
 2394TIP3    H2 7124   5.694   7.320   1.974
 2395TIP3   OH2 7125   1.690   4.928   2.614
 2395TIP3    H1 7126   1.686   4.854   2.676
 2395TIP3    H2 7127   1.768   4.911   2.562
 2396TIP3   OH2 7128   3.813   1.044   4.973
 2396TIP3    H1 7129   3.809   1.097   4.894
 2396TIP3    H2 7130   3.820   0.954   4.941
 2397TIP3   OH2 7131   7.021   3.791   6.012
 2397TIP3    H1 7132   6.952   3.814   5.949
 2397TIP3    H2 7133   7.101   3.824   5.972
 2398TIP3   OH2 7134   4.908   0.697   5.417
 2398TIP3    H1 7135   4.962   0.656   5.349
 2398TIP3    H2 7136   4.952   0.675   5.499
 2399TIP3   OH2 7137   5.878   0.433   0.343
 2399TIP3    H1 7138   5.972   0.444   0.354
 2399TIP3    H2 7139   5.869   0.349   0.296
 2400TIP3   OH2 7140   4.765   4.958   3.724
 2400TIP3    H1 7141   4.732   4.923   3.807
 2400TIP3    H2 7142   4.760   4.885   3.663
 2401TIP3   OH2 7143   5.166   6.977   3.291
 2401TIP3    H1 7144   5.145   7.047   3.229
 2401TIP3    H2 7145   5.259   6.990   3.310
 2402TIP3   OH2 7146   2.360   2.852   2.708
 2402TIP3    H1 7147   2.387   2.941   2.686
 2402TIP3    H2 7148   2.442   2.805   2.721
 2403TIP3   OH2 7149   1.655   1.551   2.337
 2403TIP3    H1 7150   1.562   1.569   2.321
 2403TIP3    H2 7151   1.701   1.598   2.268
 2404TIP3   OH2 7152   4.115   0.968   4.336
 2404TIP3    H1 7153   4.045   0.920   4.379
 2404TIP3    H2 7154   4.194   0.941   4.383
 2405TIP3   OH2 7155   3.289   7.868   5.373
 2405TIP3    H1 7156   3.316   7.852   5.283
 2405TIP3    H2 7157   3.217   7.931   5.366
 2406TIP3   OH2 7158   0.288   2.360   2.324
 2406TIP3    H1 7159   0.240   2.281   2.301
 2406TIP3    H2 7160   0.312   2.399   2.239
 2407TIP3   OH2 7161   6.992   2.371   2.590
 2407TIP3    H1 7162   6.921   2.433   2.575
 2407TIP3    H2 7163   6.949   2.288   2.608
 2408TIP3   OH2 7164   0.773   4.483   2.435
 2408TIP3    H1 7165   0.719   4.428   2.377
 2408TIP3    H2 7166   0.772   4.569   2.393
 2409TIP3   OH2 7167   2.896   5.197   3.395
 2409TIP3    H1 7168   2.963   5.260   3.367
 2409TIP3    H2 7169   2.946   5.121   3.423
 2410TIP3   OH2 7170   3.343   0.364   3.712
 2410TIP3    H1 7171   3.287   0.308   3.657
 2410TIP3    H2 7172   3.283   0.405   3.774
 2411TIP3   OH2 7173   6.303   6.166   1.602
 2411TIP3    H1 7174   6.227   6.200   1.648
 2411TIP3    H2 7175   6.366   6.145   1.672
 2412TIP3   OH2 7176   0.514   2.780   0.360
 2412TIP3    H1 7177   0.604   2.782   0.328
 2412TIP3    H2 7178   0.505   2.858   0.414
 2413TIP3   OH2 7179   6.018   4.178   5.201
 2413TIP3    H1 7180   5.936   4.131   5.188
 2413TIP3    H2 7181   5.993   4.270   5.205
 2414TIP3   OH2 7182   7.284   6.429   2.949
 2414TIP3    H1 7183   7.339   6.364   2.905
 2414TIP3    H2 7184   7.266   6.494   2.881
 2415TIP3   OH2 7185   6.227   1.254   4.412
 2415TIP3    H1 7186   6.321   1.256   4.433
 2415TIP3    H2 7187   6.224   1.237   4.318
 2416TIP3   OH2 7188   1.672   7.443   1.404
 2416TIP3    H1 7189   1.746   7.399   1.447
 2416TIP3    H2 7190   1.695   7.536   1.407
 2417TIP3   OH2 7191   2.877   3.087   0.087
 2417TIP3    H1 7192   2.878   3.143   0.164
 2417TIP3    H2 7193   2.840   3.004   0.118
 2418TIP3   OH2 7194   6.460   7.828   0.020
 2418TIP3    H1 7195   6.468   7.923   0.011
 2418TIP3    H2 7196   6.415   7.815   0.103
 2419TIP3   OH2 7197   0.864   3.064   5.840
 2419TIP3    H1 7198   0.883   3.145   5.793
 2419TIP3    H2 7199   0.883   3.085   5.932
 2420TIP3   OH2 7200   2.004   6.525   3.261
 2420TIP3    H1 7201   2.038   6.500   3.175
 2420TIP3    H2 7202   1.909   6.528   3.249
 2421TIP3   OH2 7203   2.983   3.510   5.270
 2421TIP3    H1 7204   3.040   3.586   5.264
 2421TIP3    H2 7205   2.895   3.544   5.258
 2422TIP3   OH2 7206   7.162   3.626   3.247
 2422TIP3    H1 7207   7.155   3.645   3.340
 2422TIP3    H2 7208   7.084   3.665   3.208
 2423TIP3   OH2 7209   8.274   1.971   3.497
 2423TIP3    H1 7210   8.248   1.884   3.468
 2423TIP3    H2 7211   8.247   2.029   3.425
 2424TIP3   OH2 7212   6.660   1.075   5.185
 2424TIP3    H1 7213   6.600   1.028   5.243
 2424TIP3    H2 7214   6.605   1.141   5.142
 2425TIP3   OH2 7215   4.230   7.626   0.685
 2425TIP3    H1 7216   4.320   7.613   0.714
 2425TIP3    H2 7217   4.177   7.605   0.763
 2426TIP3   OH2 7218   8.059   0.429   2.714
 2426TIP3    H1 7219   8.042   0.506   2.769
 2426TIP3    H2 7220   8.105   0.369   2.772
 2427TIP3   OH2 7221   1.786   1.074   5.928
 2427TIP3    H1 7222   1.856   1.092   5.865
 2427TIP3    H2 7223   1.797   1.140   5.996
 2428TIP3   OH2 7224   7.918   5.033   1.693
 2428TIP3    H1 7225   7.833   5.027   1.648
 2428TIP3    H2 7226   7.932   5.127   1.703
 2429TIP3   OH2 7227   7.351   7.456   4.332
 2429TIP3    H1 7228   7.366   7.540   4.376
 2429TIP3    H2 7229   7.304   7.403   4.396
 2430TIP3   OH2 7230   2.208   4.996   2.779
 2430TIP3    H1 7231   2.275   4.929   2.769
 2430TIP3    H2 7232   2.163   4.998   2.695
 2431TIP3   OH2 7233   4.507   3.597   6.157
 2431TIP3    H1 7234   4.517   3.678   6.208
 2431TIP3    H2 7235   4.595   3.559   6.155
 2432TIP3   OH2 7236   3.590   3.259   5.967
 2432TIP3    H1 7237   3.609   3.257   6.061
 2432TIP3    H2 7238   3.547   3.176   5.949
 2433TIP3   OH2 7239   1.439   0.088   6.661
 2433TIP3    H1 7240   1.384   0.126   6.593
 2433TIP3    H2 7241   1.406  -0.002   6.670
 2434TIP3   OH2 7242   6.668   1.248   3.794
 2434TIP3    H1 7243   6.760   1.229   3.776
 2434TIP3    H2 7244   6.668   1.293   3.879
 2435TIP3   OH2 7245   3.926   5.605   2.635
 2435TIP3    H1 7246   3.837   5.605   2.669
 2435TIP3    H2 7247   3.931   5.683   2.579
 2436TIP3   OH2 7248   8.148   4.252   1.270
 2436TIP3    H1 7249   8.138   4.202   1.351
 2436TIP3    H2 7250   8.228   4.216   1.230
 2437TIP3   OH2 7251   7.882   1.371   4.539
 2437TIP3    H1 7252   7.909   1.366   4.631
 2437TIP3    H2 7253   7.939   1.311   4.493
 2438TIP3   OH2 7254   7.537   1.167   6.309
 2438TIP3    H1 7255   7.620   1.126   6.334
 2438TIP3    H2 7256   7.481   1.157   6.386
 2439TIP3   OH2 7257   6.950   0.378   1.190
 2439TIP3    H1 7258   6.865   0.419   1.175
 2439TIP3    H2 7259   7.013   0.449   1.178
 2440TIP3   OH2 7260   3.274   7.334   0.987
 2440TIP3    H1 7261   3.227   7.279   0.924
 2440TIP3    H2 7262   3.315   7.402   0.934
 2441TIP3   OH2 7263   0.525   5.335   1.662
 2441TIP3    H1 7264   0.598   5.273   1.671
 2441TIP3    H2 7265   0.448   5.284   1.688
 2442TIP3   OH2 7266   6.707   7.382   3.157
 2442TIP3    H1 7267   6.784   7.404   3.210
 2442TIP3    H2 7268   6.686   7.463   3.110
 2443TIP3   OH2 7269   3.759   0.629   1.267
 2443TIP3    H1 7270   3.794   0.543   1.242
 2443TIP3    H2 7271   3.828   0.691   1.243
 2444TIP3   OH2 7272   2.382   7.439   3.360
 2444TIP3    H1 7273   2.361   7.531   3.347
 2444TIP3    H2 7274   2.470   7.429   3.322
 2445TIP3   OH2 7275   5.493   1.415   0.007
 2445TIP3    H1 7276   5.412   1.424   0.057
 2445TIP3    H2 7277   5.486   1.329  -0.034
 2446TIP3   OH2 7278   3.843   2.505   2.728
 2446TIP3    H1 7279   3.886   2.426   2.760
 2446TIP3    H2 7280   3.890   2.527   2.648
 2447TIP3   OH2 7281   8.088   0.292   0.304
 2447TIP3    H1 7282   8.128   0.240   0.235
 2447TIP3    H2 7283   8.151   0.362   0.321
 2448TIP3   OH2 7284   2.681   4.977   1.981
 2448TIP3    H1 7285   2.636   4.893   1.973
 2448TIP3    H2 7286   2.774   4.953   1.988
 2449TIP3   OH2 7287   7.878   4.473   4.119
 2449TIP3    H1 7288   7.971   4.480   4.101
 2449TIP3    H2 7289   7.872   4.414   4.194
 2450TIP3   OH2 7290   3.602   1.757   0.797
 2450TIP3    H1 7291   3.521   1.749   0.748
 2450TIP3    H2 7292   3.595   1.841   0.842
 2451TIP3   OH2 7293   0.298   3.374   2.630
 2451TIP3    H1 7294   0.384   3.350   2.665
 2451TIP3    H2 7295   0.236   3.345   2.697
 2452TIP3   OH2 7296   3.722   4.390   0.454
 2452TIP3    H1 7297   3.805   4.437   0.451
 2452TIP3    H2 7298   3.663   4.449   0.502
 2453TIP3   OH2 7299   0.266   4.098   1.217
 2453TIP3    H1 7300   0.243   4.006   1.233
 2453TIP3    H2 7301   0.329   4.119   1.286
 2454TIP3   OH2 7302   0.540   2.482   6.210
 2454TIP3    H1 7303   0.495   2.427   6.274
 2454TIP3    H2 7304   0.626   2.500   6.249
 2455TIP3   OH2 7305   8.023   4.393   3.174
 2455TIP3    H1 7306   7.969   4.371   3.098
 2455TIP3    H2 7307   7.960   4.427   3.239
 2456TIP3   OH2 7308   5.100   1.163   3.291
 2456TIP3    H1 7309   5.066   1.138   3.377
 2456TIP3    H2 7310   5.194   1.149   3.298
 2457TIP3   OH2 7311   0.463   5.021   3.031
 2457TIP3    H1 7312   0.424   5.021   2.944
 2457TIP3    H2 7313   0.536   5.082   3.026
 2458TIP3   OH2 7314   7.175   6.989   5.009
 2458TIP3    H1 7315   7.216   6.905   4.989
 2458TIP3    H2 7316   7.224   7.053   4.957
 2459TIP3   OH2 7317   2.101   0.114   2.836
 2459TIP3    H1 7318   2.189   0.149   2.827
 2459TIP3    H2 7319   2.092   0.051   2.765
 2460TIP3   OH2 7320   1.164   2.160   5.095
 2460TIP3    H1 7321   1.224   2.128   5.161
 2460TIP3    H2 7322   1.219   2.206   5.032
 2461TIP3   OH2 7323   6.302   2.401   3.561
 2461TIP3    H1 7324   6.239   2.334   3.534
 2461TIP3    H2 7325   6.267   2.436   3.642
 2462TIP3   OH2 7326   7.365   5.980   2.030
 2462TIP3    H1 7327   7.289   5.965   2.086
 2462TIP3    H2 7328   7.440   5.961   2.087
 2463TIP3   OH2 7329   4.836   1.108   6.734
 2463TIP3    H1 7330   4.823   1.026   6.781
 2463TIP3    H2 7331   4.914   1.147   6.774
 2464TIP3   OH2 7332   7.661   5.261   3.967
 2464TIP3    H1 7333   7.712   5.267   3.886
 2464TIP3    H2 7334   7.686   5.338   4.018
 2465TIP3   OH2 7335   5.339   5.185   4.450
 2465TIP3    H1 7336   5.410   5.247   4.467
 2465TIP3    H2 7337   5.363   5.143   4.367
 2466TIP3   OH2 7338   0.794   4.927   0.280
 2466TIP3    H1 7339   0.796   4.981   0.359
 2466TIP3    H2 7340   0.885   4.904   0.265
 2467TIP3   OH2 7341   5.631   7.584   6.088
 2467TIP3    H1 7342   5.560   7.594   6.151
 2467TIP3    H2 7343   5.651   7.673   6.060
 2468TIP3   OH2 7344   3.566   5.027   6.291
 2468TIP3    H1 7345   3.624   4.977   6.349
 2468TIP3    H2 7346   3.493   4.967   6.273
 2469TIP3   OH2 7347   0.941   0.901   3.947
 2469TIP3    H1 7348   1.004   0.840   3.909
 2469TIP3    H2 7349   0.873   0.910   3.879
 2470TIP3   OH2 7350   2.584   2.562   1.701
 2470TIP3    H1 7351   2.670   2.571   1.742
 2470TIP3    H2 7352   2.555   2.651   1.685
 2471TIP3   OH2 7353   0.509   7.894   0.938
 2471TIP3    H1 7354   0.446   7.853   0.879
 2471TIP3    H2 7355   0.476   7.874   1.026
 2472TIP3   OH2 7356   6.247   0.608   3.379
 2472TIP3    H1 7357   6.161   0.648   3.368
 2472TIP3    H2 7358   6.253   0.590   3.473
 2473TIP3   OH2 7359   3.801   0.836   6.479
 2473TIP3    H1 7360   3.781   0.813   6.569
 2473TIP3    H2 7361   3.873   0.899   6.485
 2474TIP3   OH2 7362   8.254   2.873   6.209
 2474TIP3    H1 7363   8.258   2.864   6.113
 2474TIP3    H2 7364   8.173   2.922   6.225
 2475TIP3   OH2 7365   3.501   5.755   0.585
 2475TIP3    H1 7366   3.586   5.750   0.627
 2475TIP3    H2 7367   3.511   5.824   0.519
 2476TIP3   OH2 7368   6.561   3.511   3.478
 2476TIP3    H1 7369   6.499   3.487   3.546
 2476TIP3    H2 7370   6.614   3.581   3.516
 2477TIP3   OH2 7371   1.941   2.548   5.339
 2477TIP3    H1 7372   1.939   2.520   5.430
 2477TIP3    H2 7373   1.849   2.560   5.316
 2478TIP3   OH2 7374   0.531   3.773   5.752
 2478TIP3    H1 7375   0.608   3.771   5.808
 2478TIP3    H2 7376   0.482   3.851   5.780
 2479TIP3   OH2 7377   0.147   2.166   5.650
 2479TIP3    H1 7378   0.074   2.228   5.655
 2479TIP3    H2 7379   0.223   2.214   5.682
 2480TIP3   OH2 7380   7.546   2.150   5.381
 2480TIP3    H1 7381   7.476   2.196   5.426
 2480TIP3    H2 7382   7.512   2.061   5.368
 2481TIP3   OH2 7383   6.727   5.484   6.850
 2481TIP3    H1 7384   6.668   5.528   6.910
 2481TIP3    H2 7385   6.689   5.499   6.763
 2482TIP3   OH2 7386   2.152   4.629   4.086
 2482TIP3    H1 7387   2.247   4.616   4.087
 2482TIP3    H2 7388   2.141   4.722   4.101
 2483TIP3   OH2 7389   5.445   0.278   0.598
 2483TIP3    H1 7390   5.489   0.353   0.557
 2483TIP3    H2 7391   5.504   0.251   0.668
 2484TIP3   OH2 7392   0.175   4.240   2.023
 2484TIP3    H1 7393   0.254   4.189   2.006
 2484TIP3    H2 7394   0.120   4.225   1.947
 2485TIP3   OH2 7395   3.551   0.650   5.705
 2485TIP3    H1 7396   3.647   0.650   5.709
 2485TIP3    H2 7397   3.525   0.571   5.752
 2486TIP3   OH2 7398   0.425   5.229   0.262
 2486TIP3    H1 7399   0.471   5.148   0.280
 2486TIP3    H2 7400   0.492   5.287   0.226
 2487TIP3   OH2 7401   5.077   4.040   3.668
 2487TIP3    H1 7402   5.008   4.105   3.659
 2487TIP3    H2 7403   5.096   4.013   3.578
 2488TIP3   OH2 7404   4.480   0.492   4.652
 2488TIP3    H1 7405   4.566   0.451   4.648
 2488TIP3    H2 7406   4.499   0.582   4.680
 2489TIP3   OH2 7407   0.662   4.432   1.608
 2489TIP3    H1 7408   0.757   4.417   1.607
 2489TIP3    H2 7409   0.643   4.471   1.522
 2490TIP3   OH2 7410   2.088   3.670   0.327
 2490TIP3    H1 7411   2.146   3.698   0.397
 2490TIP3    H2 7412   2.142   3.614   0.272
 2491TIP3   OH2 7413   5.859   1.582   3.364
 2491TIP3    H1 7414   5.919   1.608   3.434
 2491TIP3    H2 7415   5.823   1.665   3.333
 2492TIP3   OH2 7416   0.049   2.856   2.866
 2492TIP3    H1 7417   0.108   2.907   2.922
 2492TIP3    H2 7418   0.011   2.919   2.806
 2493TIP3   OH2 7419   1.130   5.304   6.246
 2493TIP3    H1 7420   1.046   5.296   6.201
 2493TIP3    H2 7421   1.195   5.280   6.179
 2494TIP3   OH2 7422   7.303   2.000   6.772
 2494TIP3    H1 7423   7.350   1.923   6.741
 2494TIP3    H2 7424   7.214   1.990   6.737
 2495TIP3   OH2 7425   7.333   6.938   0.990
 2495TIP3    H1 7426   7.290   6.865   1.035
 2495TIP3    H2 7427   7.263   7.001   0.974
 2496TIP3   OH2 7428   1.826   0.899   0.859
 2496TIP3    H1 7429   1.910   0.864   0.888
 2496TIP3    H2 7430   1.805   0.848   0.781
 2497TIP3   OH2 7431   6.461   5.738   2.476
 2497TIP3    H1 7432   6.403   5.733   2.552
 2497TIP3    H2 7433   6.484   5.647   2.457
 2498TIP3   OH2 7434   0.990   3.172   0.808
 2498TIP3    H1 7435   0.968   3.217   0.889
 2498TIP3    H2 7436   1.077   3.204   0.785
 2499TIP3   OH2 7437   5.400   5.867   1.175
 2499TIP3    H1 7438   5.485   5.843   1.212
 2499TIP3    H2 7439   5.402   5.963   1.172
 2500TIP3   OH2 7440   7.482   2.247   3.119
 2500TIP3    H1 7441   7.550   2.269   3.184
 2500TIP3    H2 7442   7.504   2.157   3.092
 2501TIP3   OH2 7443   8.007   6.405   5.399
 2501TIP3    H1 7444   8.004   6.382   5.492
 2501TIP3    H2 7445   8.080   6.353   5.364
 2502TIP3   OH2 7446   3.354   0.704   6.689
 2502TIP3    H1 7447   3.429   0.672   6.741
 2502TIP3    H2 7448   3.367   0.799   6.686
 2503TIP3   OH2 7449   6.379   1.788   4.621
 2503TIP3    H1 7450   6.374   1.719   4.688
 2503TIP3    H2 7451   6.322   1.757   4.551
 2504TIP3   OH2 7452   1.421   1.800   5.268
 2504TIP3    H1 7453   1.439   1.706   5.267
 2504TIP3    H2 7454   1.487   1.838   5.210
 2505TIP3   OH2 7455   2.368   0.648   5.315
 2505TIP3    H1 7456   2.305   0.721   5.316
 2505TIP3    H2 7457   2.453   0.690   5.328
 2506TIP3   OH2 7458   6.943   7.624   4.317
 2506TIP3    H1 7459   6.994   7.550   4.350
 2506TIP3    H2 7460   7.006   7.676   4.267
 2507TIP3   OH2 7461   0.585   1.546   5.254
 2507TIP3    H1 7462   0.558   1.466   5.298
 2507TIP3    H2 7463   0.653   1.583   5.310
 2508TIP3   OH2 7464   5.190   5.102   5.841
 2508TIP3    H1 7465   5.252   5.037   5.873
 2508TIP3    H2 7466   5.152   5.140   5.920
 2509TIP3   OH2 7467   1.802   6.067   3.398
 2509TIP3    H1 7468   1.827   6.022   3.479
 2509TIP3    H2 7469   1.875   6.051   3.338
 2510TIP3   OH2 7470   4.548   6.686   5.735
 2510TIP3    H1 7471   4.473   6.678   5.676
 2510TIP3    H2 7472   4.511   6.687   5.823
 2511TIP3   OH2 7473   7.246   6.097   6.307
 2511TIP3    H1 7474   7.233   6.034   6.236
 2511TIP3    H2 7475   7.297   6.167   6.267
 2512TIP3   OH2 7476   7.901   0.851   2.622
 2512TIP3    H1 7477   7.991   0.828   2.601
 2512TIP3    H2 7478   7.899   0.860   2.717
 2513TIP3   OH2 7479   3.293   6.698   5.039
 2513TIP3    H1 7480   3.373   6.736   5.075
 2513TIP3    H2 7481   3.291   6.609   5.074
 2514TIP3   OH2 7482   5.192   1.373   3.866
 2514TIP3    H1 7483   5.242   1.301   3.829
 2514TIP3    H2 7484   5.120   1.387   3.805
 2515TIP3   OH2 7485   5.264   7.681   5.319
 2515TIP3    H1 7486   5.356   7.684   5.295
 2515TIP3    H2 7487   5.251   7.756   5.377
 2516TIP3   OH2 7488   6.285   7.808   5.308
 2516TIP3    H1 7489   6.238   7.887   5.282
 2516TIP3    H2 7490   6.377   7.835   5.314
 2517TIP3   OH2 7491   0.519   6.194   4.237
 2517TIP3    H1 7492   0.481   6.137   4.170
 2517TIP3    H2 7493   0.447   6.208   4.300
 2518TIP3   OH2 7494   6.249   0.453   3.101
 2518TIP3    H1 7495   6.245   0.389   3.172
 2518TIP3    H2 7496   6.343   0.468   3.086
 2519TIP3   OH2 7497   3.694   5.960   5.834
 2519TIP3    H1 7498   3.638   5.955   5.912
 2519TIP3    H2 7499   3.685   6.051   5.804
 2520TIP3   OH2 7500   4.677   7.891   6.591
 2520TIP3    H1 7501   4.743   7.835   6.550
 2520TIP3    H2 7502   4.595   7.842   6.584
 2521TIP3   OH2 7503   0.377   4.568   1.261
 2521TIP3    H1 7504   0.468   4.545   1.279
 2521TIP3    H2 7505   0.332   4.484   1.252
 2522TIP3   OH2 7506   3.524   3.880   4.490
 2522TIP3    H1 7507   3.451   3.936   4.514
 2522TIP3    H2 7508   3.482   3.800   4.457
 2523TIP3   OH2 7509   3.478   6.206   3.724
 2523TIP3    H1 7510   3.542   6.271   3.695
 2523TIP3    H2 7511   3.413   6.257   3.773
 2524TIP3   OH2 7512   2.409   2.620   1.955
 2524TIP3    H1 7513   2.442   2.698   1.999
 2524TIP3    H2 7514   2.463   2.611   1.877
 2525TIP3   OH2 7515   1.174   0.436   1.437
 2525TIP3    H1 7516   1.193   0.413   1.346
 2525TIP3    H2 7517   1.251   0.405   1.486
 2526TIP3   OH2 7518   4.968   4.313   2.627
 2526TIP3    H1 7519   4.978   4.218   2.620
 2526TIP3    H2 7520   5.036   4.340   2.689
 2527TIP3   OH2 7521   6.287   7.871   1.955
 2527TIP3    H1 7522   6.231   7.861   2.032
 2527TIP3    H2 7523   6.376   7.863   1.990
 2528TIP3   OH2 7524   8.005   7.376   2.203
 2528TIP3    H1 7525   8.034   7.343   2.118
 2528TIP3    H2 7526   7.917   7.411   2.186
 2529TIP3   OH2 7527   1.287   0.188   4.341
 2529TIP3    H1 7528   1.313   0.198   4.249
 2529TIP3    H2 7529   1.231   0.263   4.359
 2530TIP3   OH2 7530   2.882   5.535   3.528
 2530TIP3    H1 7531   2.804   5.488   3.554
 2530TIP3    H2 7532   2.861   5.628   3.542
 2531TIP3   OH2 7533   1.674   7.179   4.925
 2531TIP3    H1 7534   1.585   7.213   4.915
 2531TIP3    H2 7535   1.694   7.190   5.018
 2532TIP3   OH2 7536   2.072   6.377   6.709
 2532TIP3    H1 7537   2.038   6.454   6.664
 2532TIP3    H2 7538   2.154   6.358   6.663
 2533TIP3   OH2 7539   0.177   5.319   2.432
 2533TIP3    H1 7540   0.096   5.271   2.413
 2533TIP3    H2 7541   0.151   5.411   2.437
 2534TIP3   OH2 7542   4.727   7.748   2.699
 2534TIP3    H1 7543   4.806   7.723   2.746
 2534TIP3    H2 7544   4.751   7.827   2.651
 2535TIP3   OH2 7545   6.512   6.742   2.843
 2535TIP3    H1 7546   6.517   6.837   2.833
 2535TIP3    H2 7547   6.548   6.725   2.930
 2536TIP3   OH2 7548   6.140   6.143   0.128
 2536TIP3    H1 7549   6.127   6.100   0.212
 2536TIP3    H2 7550   6.217   6.199   0.141
 2537TIP3   OH2 7551   4.633   4.314   6.489
 2537TIP3    H1 7552   4.574   4.256   6.441
 2537TIP3    H2 7553   4.669   4.372   6.422
 2538TIP3   OH2 7554   8.121   6.960   0.380
 2538TIP3    H1 7555   8.140   6.965   0.286
 2538TIP3    H2 7556   8.042   6.907   0.385
 2539TIP3   OH2 7557   7.455   0.968   5.103
 2539TIP3    H1 7558   7.442   1.041   5.165
 2539TIP3    H2 7559   7.482   1.010   5.022
 2540TIP3   OH2 7560   0.707   0.885   1.301
 2540TIP3    H1 7561   0.776   0.910   1.362
 2540TIP3    H2 7562   0.692   0.792   1.320
 2541TIP3   OH2 7563   2.646   4.673   3.623
 2541TIP3    H1 7564   2.633   4.726   3.545
 2541TIP3    H2 7565   2.585   4.709   3.687
 2542TIP3   OH2 7566   6.999   7.087   4.462
 2542TIP3    H1 7567   7.017   7.011   4.406
 2542TIP3    H2 7568   7.080   7.099   4.512
 2543TIP3   OH2 7569   1.142   3.128   4.107
 2543TIP3    H1 7570   1.132   3.038   4.138
 2543TIP3    H2 7571   1.090   3.131   4.027
 2544TIP3   OH2 7572   1.911   0.941   6.190
 2544TIP3    H1 7573   1.978   0.880   6.221
 2544TIP3    H2 7574   1.941   1.027   6.221
 2545TIP3   OH2 7575   4.603   7.464   2.373
 2545TIP3    H1 7576   4.562   7.486   2.456
 2545TIP3    H2 7577   4.617   7.549   2.330
 2546TIP3   OH2 7578   5.495   3.612   3.088
 2546TIP3    H1 7579   5.486   3.610   2.993
 2546TIP3    H2 7580   5.584   3.644   3.103
 2547TIP3   OH2 7581   1.460   4.970   5.378
 2547TIP3    H1 7582   1.470   4.987   5.285
 2547TIP3    H2 7583   1.537   5.010   5.419
 2548TIP3   OH2 7584   1.167   2.011   5.710
 2548TIP3    H1 7585   1.224   1.945   5.671
 2548TIP3    H2 7586   1.212   2.038   5.790
 2549TIP3   OH2 7587   1.105   5.929   5.877
 2549TIP3    H1 7588   1.046   5.980   5.932
 2549TIP3    H2 7589   1.187   5.924   5.926
 2550TIP3   OH2 7590   4.088   2.745   3.083
 2550TIP3    H1 7591   4.004   2.764   3.042
 2550TIP3    H2 7592   4.145   2.717   3.011
 2551TIP3   OH2 7593   1.881   5.549   6.753
 2551TIP3    H1 7594   1.814   5.573   6.689
 2551TIP3    H2 7595   1.964   5.566   6.708
 2552TIP3   OH2 7596   1.142   5.450   1.785
 2552TIP3    H1 7597   1.046   5.448   1.782
 2552TIP3    H2 7598   1.164   5.538   1.813
 2553TIP3   OH2 7599   5.587   0.223   0.838
 2553TIP3    H1 7600   5.517   0.224   0.903
 2553TIP3    H2 7601   5.637   0.144   0.858
 2554TIP3   OH2 7602   0.525   4.722   3.536
 2554TIP3    H1 7603   0.443   4.731   3.585
 2554TIP3    H2 7604   0.505   4.760   3.450
 2555TIP3   OH2 7605   1.271   5.470   2.966
 2555TIP3    H1 7606   1.245   5.524   2.892
 2555TIP3    H2 7607   1.212   5.495   3.037
 2556TIP3   OH2 7608   5.467   0.607   2.268
 2556TIP3    H1 7609   5.489   0.614   2.176
 2556TIP3    H2 7610   5.529   0.665   2.312
 2557TIP3   OH2 7611   5.112   7.659   1.447
 2557TIP3    H1 7612   5.057   7.732   1.476
 2557TIP3    H2 7613   5.195   7.700   1.423
 2558TIP3   OH2 7614   3.943   1.763   0.950
 2558TIP3    H1 7615   3.903   1.807   0.875
 2558TIP3    H2 7616   4.030   1.801   0.957
 2559TIP3   OH2 7617   2.681   5.370   1.223
 2559TIP3    H1 7618   2.671   5.282   1.261
 2559TIP3    H2 7619   2.593   5.406   1.222
 2560TIP3   OH2 7620   2.791   2.115   0.982
 2560TIP3    H1 7621   2.839   2.169   0.919
 2560TIP3    H2 7622   2.852   2.044   1.003
 2561TIP3   OH2 7623   6.587   2.305   4.469
 2561TIP3    H1 7624   6.584   2.259   4.385
 2561TIP3    H2 7625   6.677   2.336   4.476
 2562TIP3   OH2 7626   1.136   2.682   1.777
 2562TIP3    H1 7627   1.085   2.637   1.844
 2562TIP3    H2 7628   1.071   2.713   1.714
 2563TIP3   OH2 7629   3.096   3.804   2.687
 2563TIP3    H1 7630   3.173   3.842   2.646
 2563TIP3    H2 7631   3.130   3.730   2.738
 2564TIP3   OH2 7632   6.268   6.286   0.962
 2564TIP3    H1 7633   6.195   6.349   0.959
 2564TIP3    H2 7634   6.231   6.205   0.927
 2565TIP3   OH2 7635   2.806   1.363   6.039
 2565TIP3    H1 7636   2.787   1.430   6.104
 2565TIP3    H2 7637   2.894   1.385   6.008
 2566TIP3   OH2 7638   6.052   3.577   3.812
 2566TIP3    H1 7639   6.129   3.588   3.869
 2566TIP3    H2 7640   5.986   3.538   3.869
 2567TIP3   OH2 7641   2.973   5.113   3.943
 2567TIP3    H1 7642   2.976   5.070   4.028
 2567TIP3    H2 7643   3.013   5.050   3.883
 2568TIP3   OH2 7644   1.863   2.760   1.346
 2568TIP3    H1 7645   1.919   2.683   1.346
 2568TIP3    H2 7646   1.774   2.725   1.356
 2569TIP3   OH2 7647   4.770   3.702   1.829
 2569TIP3    H1 7648   4.745   3.721   1.919
 2569TIP3    H2 7649   4.860   3.671   1.835
 2570TIP3   OH2 7650   4.953   0.698   2.643
 2570TIP3    H1 7651   4.973   0.791   2.648
 2570TIP3    H2 7652   5.009   0.665   2.572
 2571TIP3   OH2 7653   6.669   1.710   5.901
 2571TIP3    H1 7654   6.659   1.634   5.845
 2571TIP3    H2 7655   6.580   1.733   5.928
 2572TIP3   OH2 7656   7.644   6.639   1.926
 2572TIP3    H1 7657   7.640   6.604   2.015
 2572TIP3    H2 7658   7.657   6.561   1.871
 2573TIP3   OH2 7659   7.008   2.326   1.736
 2573TIP3    H1 7660   6.919   2.360   1.738
 2573TIP3    H2 7661   7.016   2.275   1.817
 2574TIP3   OH2 7662   1.109   6.203   3.032
 2574TIP3    H1 7663   1.106   6.191   2.937
 2574TIP3    H2 7664   1.106   6.298   3.044
 2575TIP3   OH2 7665   5.698   3.565   1.634
 2575TIP3    H1 7666   5.696   3.660   1.640
 2575TIP3    H2 7667   5.790   3.544   1.617
 2576TIP3   OH2 7668   4.386   3.284   6.706
 2576TIP3    H1 7669   4.399   3.314   6.616
 2576TIP3    H2 7670   4.361   3.192   6.698
 2577TIP3   OH2 7671   4.824   6.700   3.302
 2577TIP3    H1 7672   4.914   6.692   3.332
 2577TIP3    H2 7673   4.826   6.667   3.212
 2578TIP3   OH2 7674   7.188   4.325   2.273
 2578TIP3    H1 7675   7.157   4.415   2.268
 2578TIP3    H2 7676   7.283   4.332   2.278
 2579TIP3   OH2 7677   0.965   0.357   2.481
 2579TIP3    H1 7678   1.035   0.421   2.470
 2579TIP3    H2 7679   0.886   0.404   2.454
 2580TIP3   OH2 7680   2.781   0.785   6.745
 2580TIP3    H1 7681   2.861   0.732   6.741
 2580TIP3    H2 7682   2.794   0.854   6.680
 2581TIP3   OH2 7683   6.193   5.089   1.068
 2581TIP3    H1 7684   6.111   5.068   1.024
 2581TIP3    H2 7685   6.259   5.092   0.998
 2582TIP3   OH2 7686   5.994   5.247   2.669
 2582TIP3    H1 7687   6.023   5.176   2.727
 2582TIP3    H2 7688   6.017   5.327   2.716
 2583TIP3   OH2 7689   1.535   3.761   6.837
 2583TIP3    H1 7690   1.560   3.671   6.817
 2583TIP3    H2 7691   1.445   3.755   6.869
 2584TIP3   OH2 7692   1.527   6.380   0.778
 2584TIP3    H1 7693   1.452   6.330   0.811
 2584TIP3    H2 7694   1.578   6.317   0.728
 2585TIP3   OH2 7695   1.730   5.722   0.974
 2585TIP3    H1 7696   1.635   5.727   0.990
 2585TIP3    H2 7697   1.741   5.760   0.887
 2586TIP3   OH2 7698   5.197   4.102   2.413
 2586TIP3    H1 7699   5.168   4.193   2.410
 2586TIP3    H2 7700   5.275   4.104   2.469
 2587TIP3   OH2 7701   5.879   2.776   3.298
 2587TIP3    H1 7702   5.926   2.859   3.300
 2587TIP3    H2 7703   5.874   2.750   3.391
 2588TIP3   OH2 7704   2.655   5.870   2.399
 2588TIP3    H1 7705   2.643   5.965   2.407
 2588TIP3    H2 7706   2.595   5.833   2.464
 2589TIP3   OH2 7707   6.363   6.965   0.607
 2589TIP3    H1 7708   6.322   6.908   0.542
 2589TIP3    H2 7709   6.389   6.907   0.678
 2590TIP3   OH2 7710   5.402   4.379   5.478
 2590TIP3    H1 7711   5.442   4.398   5.563
 2590TIP3    H2 7712   5.308   4.387   5.494
 2591TIP3   OH2 7713   5.241   2.982   6.686
 2591TIP3    H1 7714   5.209   2.896   6.658
 2591TIP3    H2 7715   5.276   3.021   6.606
 2592TIP3   OH2 7716   2.392   6.174   1.480
 2592TIP3    H1 7717   2.486   6.177   1.497
 2592TIP3    H2 7718   2.385   6.162   1.385
 2593TIP3   OH2 7719   4.264   4.195   2.507
 2593TIP3    H1 7720   4.316   4.124   2.543
 2593TIP3    H2 7721   4.316   4.274   2.523
 2594TIP3   OH2 7722   3.890   0.981   1.737
 2594TIP3    H1 7723   3.887   0.934   1.654
 2594TIP3    H2 7724   3.879   0.913   1.803
 2595TIP3   OH2 7725   5.812   5.422   6.365
 2595TIP3    H1 7726   5.740   5.396   6.308
 2595TIP3    H2 7727   5.863   5.484   6.313
 2596TIP3   OH2 7728   1.846   0.079   0.359
 2596TIP3    H1 7729   1.904   0.046   0.427
 2596TIP3    H2 7730   1.897   0.073   0.278
 2597TIP3   OH2 7731   1.058   5.374   4.693
 2597TIP3    H1 7732   1.022   5.289   4.669
 2597TIP3    H2 7733   1.106   5.358   4.775
 2598TIP3   OH2 7734   3.733   2.283   4.049
 2598TIP3    H1 7735   3.706   2.202   4.094
 2598TIP3    H2 7736   3.777   2.252   3.970
 2599TIP3   OH2 7737   3.503   1.515   2.184
 2599TIP3    H1 7738   3.453   1.553   2.256
 2599TIP3    H2 7739   3.505   1.421   2.203
 2600TIP3   OH2 7740   7.930   7.336   6.012
 2600TIP3    H1 7741   7.881   7.408   5.973
 2600TIP3    H2 7742   8.022   7.358   5.996
 2601TIP3   OH2 7743   5.603   6.279   4.494
 2601TIP3    H1 7744   5.663   6.346   4.463
 2601TIP3    H2 7745   5.565   6.241   4.415
 2602TIP3   OH2 7746   5.180   1.527   0.625
 2602TIP3    H1 7747   5.135   1.568   0.698
 2602TIP3    H2 7748   5.272   1.524   0.652
 2603TIP3   OH2 7749   4.279   1.944   0.027
 2603TIP3    H1 7750   4.219   1.995   0.081
 2603TIP3    H2 7751   4.229   1.867   0.000
 2604TIP3   OH2 7752   0.263   6.761   5.590
 2604TIP3    H1 7753   0.171   6.760   5.565
 2604TIP3    H2 7754   0.263   6.770   5.685
 2605TIP3   OH2 7755   4.179   4.631   5.774
 2605TIP3    H1 7756   4.236   4.708   5.773
 2605TIP3    H2 7757   4.134   4.635   5.858
 2606TIP3   OH2 7758   0.743   6.824   3.295
 2606TIP3    H1 7759   0.766   6.741   3.335
 2606TIP3    H2 7760   0.796   6.828   3.215
 2607TIP3   OH2 7761   2.067   0.195   1.707
 2607TIP3    H1 7762   2.076   0.243   1.789
 2607TIP3    H2 7763   2.062   0.263   1.640
 2608TIP3   OH2 7764   0.148   5.303   0.245
 2608TIP3    H1 7765   0.111   5.263   0.166
 2608TIP3    H2 7766   0.237   5.270   0.249
 2609TIP3   OH2 7767   0.727   7.180   5.771
 2609TIP3    H1 7768   0.745   7.176   5.677
 2609TIP3    H2 7769   0.757   7.267   5.797
 2610TIP3   OH2 7770   3.849   6.765   5.856
 2610TIP3    H1 7771   3.857   6.745   5.950
 2610TIP3    H2 7772   3.761   6.736   5.833
 2611TIP3   OH2 7773   7.484   4.188   6.651
 2611TIP3    H1 7774   7.493   4.282   6.664
 2611TIP3    H2 7775   7.506   4.174   6.559
 2612TIP3   OH2 7776   5.902   0.909   2.699
 2612TIP3    H1 7777   5.957   0.931   2.774
 2612TIP3    H2 7778   5.894   0.814   2.703
 2613TIP3   OH2 7779   4.789   3.067   6.328
 2613TIP3    H1 7780   4.833   3.121   6.263
 2613TIP3    H2 7781   4.767   2.986   6.282
 2614TIP3   OH2 7782   2.281   7.393   1.381
 2614TIP3    H1 7783   2.361   7.355   1.346
 2614TIP3    H2 7784   2.309   7.473   1.425
 2615TIP3   OH2 7785   5.216   5.026   6.653
 2615TIP3    H1 7786   5.226   4.933   6.677
 2615TIP3    H2 7787   5.130   5.051   6.688
 2616TIP3   OH2 7788   7.191   1.133   3.157
 2616TIP3    H1 7789   7.145   1.216   3.149
 2616TIP3    H2 7790   7.195   1.116   3.251
 2617TIP3   OH2 7791   4.865   5.344   6.528
 2617TIP3    H1 7792   4.930   5.414   6.528
 2617TIP3    H2 7793   4.876   5.301   6.443
 2618TIP3   OH2 7794   2.948   4.211   2.121
 2618TIP3    H1 7795   2.946   4.244   2.032
 2618TIP3    H2 7796   2.962   4.117   2.112
 2619TIP3   OH2 7797   7.712   0.763   4.540
 2619TIP3    H1 7798   7.730   0.696   4.606
 2619TIP3    H2 7799   7.762   0.736   4.463
 2620TIP3   OH2 7800   5.551   6.299   6.854
 2620TIP3    H1 7801   5.480   6.306   6.791
 2620TIP3    H2 7802   5.557   6.205   6.874
 2621TIP3   OH2 7803   7.610   6.953   4.174
 2621TIP3    H1 7804   7.545   6.995   4.231
 2621TIP3    H2 7805   7.666   6.904   4.233
 2622TIP3   OH2 7806   2.461   7.104   3.156
 2622TIP3    H1 7807   2.415   7.183   3.129
 2622TIP3    H2 7808   2.470   7.112   3.250
 2623TIP3   OH2 7809   6.613   7.737   4.681
 2623TIP3    H1 7810   6.594   7.696   4.765
 2623TIP3    H2 7811   6.531   7.778   4.655
 2624TIP3   OH2 7812   8.330   5.688   3.954
 2624TIP3    H1 7813   8.316   5.758   3.890
 2624TIP3    H2 7814   8.362   5.614   3.903
 2625TIP3   OH2 7815   0.375   0.344   4.685
 2625TIP3    H1 7816   0.385   0.408   4.755
 2625TIP3    H2 7817   0.313   0.280   4.720
 2626TIP3   OH2 7818   0.876   4.999   6.106
 2626TIP3    H1 7819   0.881   5.016   6.200
 2626TIP3    H2 7820   0.796   4.948   6.095
 2627TIP3   OH2 7821   3.264   2.653   3.278
 2627TIP3    H1 7822   3.277   2.583   3.213
 2627TIP3    H2 7823   3.181   2.693   3.254
 2628TIP3   OH2 7824   1.846   4.444   2.836
 2628TIP3    H1 7825   1.801   4.386   2.899
 2628TIP3    H2 7826   1.920   4.392   2.805
 2629TIP3   OH2 7827   2.888   2.764   3.457
 2629TIP3    H1 7828   2.951   2.724   3.396
 2629TIP3    H2 7829   2.873   2.696   3.523
 2630TIP3   OH2 7830   0.107   3.417   3.057
 2630TIP3    H1 7831   0.074   3.338   3.100
 2630TIP3    H2 7832   0.138   3.472   3.128
 2631TIP3   OH2 7833   4.782   1.929   1.232
 2631TIP3    H1 7834   4.707   1.976   1.195
 2631TIP3    H2 7835   4.858   1.967   1.189
 2632TIP3   OH2 7836   3.771   3.414   2.188
 2632TIP3    H1 7837   3.725   3.451   2.263
 2632TIP3    H2 7838   3.819   3.488   2.151
 2633TIP3   OH2 7839   4.720   2.032   6.353
 2633TIP3    H1 7840   4.721   1.936   6.345
 2633TIP3    H2 7841   4.656   2.049   6.422
 2634TIP3   OH2 7842   4.894   1.893   0.793
 2634TIP3    H1 7843   4.821   1.954   0.803
 2634TIP3    H2 7844   4.964   1.944   0.754
 2635TIP3   OH2 7845   5.798   1.120   5.443
 2635TIP3    H1 7846   5.835   1.060   5.379
 2635TIP3    H2 7847   5.765   1.064   5.513
 2636TIP3   OH2 7848   4.524   0.098   6.504
 2636TIP3    H1 7849   4.503   0.109   6.411
 2636TIP3    H2 7850   4.587   0.167   6.523
 2637TIP3   OH2 7851   0.308   4.904   0.267
 2637TIP3    H1 7852   0.314   4.996   0.292
 2637TIP3    H2 7853   0.238   4.868   0.322
 2638TIP3   OH2 7854   4.687   3.738   1.124
 2638TIP3    H1 7855   4.674   3.825   1.162
 2638TIP3    H2 7856   4.600   3.697   1.128
 2639TIP3   OH2 7857   3.563   7.171   2.720
 2639TIP3    H1 7858   3.608   7.099   2.763
 2639TIP3    H2 7859   3.632   7.219   2.674
 2640TIP3   OH2 7860   2.600   1.435   1.582
 2640TIP3    H1 7861   2.626   1.371   1.648
 2640TIP3    H2 7862   2.518   1.401   1.546
 2641TIP3   OH2 7863   7.108   0.122   5.410
 2641TIP3    H1 7864   7.130   0.148   5.500
 2641TIP3    H2 7865   7.066   0.199   5.372
 2642TIP3   OH2 7866   6.211   6.948   5.611
 2642TIP3    H1 7867   6.168   6.863   5.614
 2642TIP3    H2 7868   6.270   6.943   5.537
 2643TIP3   OH2 7869   0.058   0.992   2.025
 2643TIP3    H1 7870   0.071   0.919   1.965
 2643TIP3    H2 7871  -0.035   1.013   2.017
 2644TIP3   OH2 7872   4.341   3.589   0.481
 2644TIP3    H1 7873   4.404   3.522   0.454
 2644TIP3    H2 7874   4.288   3.604   0.402
 2645TIP3   OH2 7875   5.281   7.830   5.038
 2645TIP3    H1 7876   5.367   7.872   5.033
 2645TIP3    H2 7877   5.283   7.781   5.120
 2646TIP3   OH2 7878   5.448   1.610   0.459
 2646TIP3    H1 7879   5.524   1.647   0.415
 2646TIP3    H2 7880   5.416   1.543   0.399
 2647TIP3   OH2 7881   2.167   7.914   0.105
 2647TIP3    H1 7882   2.146   7.823   0.125
 2647TIP3    H2 7883   2.259   7.923   0.131
 2648TIP3   OH2 7884   0.199   1.889   4.520
 2648TIP3    H1 7885   0.190   1.950   4.447
 2648TIP3    H2 7886   0.267   1.929   4.575
 2649TIP3   OH2 7887   5.835   3.279   0.048
 2649TIP3    H1 7888   5.787   3.309  -0.030
 2649TIP3    H2 7889   5.904   3.345   0.060
 2650TIP3   OH2 7890   7.696   6.397   0.610
 2650TIP3    H1 7891   7.625   6.386   0.547
 2650TIP3    H2 7892   7.674   6.337   0.681
 2651TIP3   OH2 7893   4.825   0.684   1.548
 2651TIP3    H1 7894   4.839   0.733   1.629
 2651TIP3    H2 7895   4.847   0.746   1.479
 2652TIP3   OH2 7896   3.693   6.216   3.897
 2652TIP3    H1 7897   3.682   6.187   3.987
 2652TIP3    H2 7898   3.621   6.175   3.849
 2653TIP3   OH2 7899   0.362   6.783   3.870
 2653TIP3    H1 7900   0.365   6.866   3.822
 2653TIP3    H2 7901   0.452   6.752   3.870
 2654TIP3   OH2 7902   3.510   0.483   2.548
 2654TIP3    H1 7903   3.484   0.391   2.549
 2654TIP3    H2 7904   3.432   0.530   2.519
 2655TIP3   OH2 7905   7.290   4.905   1.291
 2655TIP3    H1 7906   7.347   4.970   1.332
 2655TIP3    H2 7907   7.261   4.849   1.363
 2656TIP3   OH2 7908   7.025   3.750   4.703
 2656TIP3    H1 7909   7.029   3.655   4.693
 2656TIP3    H2 7910   7.016   3.783   4.613
 2657TIP3   OH2 7911   7.648   6.447   1.723
 2657TIP3    H1 7912   7.681   6.448   1.633
 2657TIP3    H2 7913   7.660   6.357   1.752
 2658TIP3   OH2 7914   5.383   4.628   5.879
 2658TIP3    H1 7915   5.296   4.622   5.917
 2658TIP3    H2 7916   5.375   4.694   5.810
 2659TIP3   OH2 7917   3.154   7.674   1.925
 2659TIP3    H1 7918   3.181   7.686   2.016
 2659TIP3    H2 7919   3.212   7.732   1.875
 2660TIP3   OH2 7920   8.050   2.704   4.577
 2660TIP3    H1 7921   8.069   2.649   4.501
 2660TIP3    H2 7922   8.120   2.770   4.577
 2661TIP3   OH2 7923   6.556   4.569   4.596
 2661TIP3    H1 7924   6.471   4.533   4.572
 2661TIP3    H2 7925   6.559   4.563   4.691
 2662TIP3   OH2 7926   6.322   4.350   2.354
 2662TIP3    H1 7927   6.362   4.294   2.420
 2662TIP3    H2 7928   6.385   4.353   2.283
 2663TIP3   OH2 7929   4.156   4.134   4.748
 2663TIP3    H1 7930   4.188   4.224   4.743
 2663TIP3    H2 7931   4.198   4.089   4.675
 2664TIP3   OH2 7932   6.088   3.040   6.299
 2664TIP3    H1 7933   6.036   3.066   6.375
 2664TIP3    H2 7934   6.177   3.070   6.320
 2665TIP3   OH2 7935   7.174   7.575   3.297
 2665TIP3    H1 7936   7.079   7.575   3.281
 2665TIP3    H2 7937   7.189   7.497   3.350
 2666TIP3   OH2 7938   0.632   6.545   2.322
 2666TIP3    H1 7939   0.626   6.524   2.415
 2666TIP3    H2 7940   0.711   6.500   2.292
 2667TIP3   OH2 7941   7.915   7.542   6.489
 2667TIP3    H1 7942   7.882   7.495   6.413
 2667TIP3    H2 7943   7.960   7.475   6.541
 2668TIP3   OH2 7944   6.522   6.031   0.884
 2668TIP3    H1 7945   6.593   5.975   0.914
 2668TIP3    H2 7946   6.495   5.993   0.801
 2669TIP3   OH2 7947   6.374   2.735   1.101
 2669TIP3    H1 7948   6.316   2.667   1.134
 2669TIP3    H2 7949   6.336   2.817   1.133
 2670TIP3   OH2 7950   0.405   5.260   2.262
 2670TIP3    H1 7951   0.435   5.169   2.269
 2670TIP3    H2 7952   0.346   5.272   2.335
 2671TIP3   OH2 7953   6.782   4.770   2.182
 2671TIP3    H1 7954   6.687   4.780   2.187
 2671TIP3    H2 7955   6.797   4.676   2.187
 2672TIP3   OH2 7956   6.876   2.006   4.483
 2672TIP3    H1 7957   6.867   2.084   4.538
 2672TIP3    H2 7958   6.907   1.938   4.542
 2673TIP3   OH2 7959   4.540   1.275   6.411
 2673TIP3    H1 7960   4.455   1.249   6.375
 2673TIP3    H2 7961   4.597   1.199   6.395
 2674TIP3   OH2 7962   0.456   0.842   5.582
 2674TIP3    H1 7963   0.517   0.791   5.528
 2674TIP3    H2 7964   0.479   0.933   5.565
 2675TIP3   OH2 7965   5.412   5.748   2.753
 2675TIP3    H1 7966   5.396   5.654   2.759
 2675TIP3    H2 7967   5.486   5.756   2.692
 2676TIP3   OH2 7968   6.346   4.961   6.690
 2676TIP3    H1 7969   6.327   4.952   6.597
 2676TIP3    H2 7970   6.267   5.000   6.727
 2677TIP3   OH2 7971   0.671   0.726   0.789
 2677TIP3    H1 7972   0.644   0.635   0.794
 2677TIP3    H2 7973   0.598   0.775   0.827
 2678TIP3   OH2 7974   3.254   3.208   4.680
 2678TIP3    H1 7975   3.166   3.174   4.694
 2678TIP3    H2 7976   3.257   3.230   4.587
 2679TIP3   OH2 7977   1.696   6.382   2.954
 2679TIP3    H1 7978   1.759   6.423   2.895
 2679TIP3    H2 7979   1.621   6.441   2.955
 2680TIP3   OH2 7980   7.809   3.306   4.350
 2680TIP3    H1 7981   7.756   3.384   4.368
 2680TIP3    H2 7982   7.807   3.257   4.432
 2681TIP3   OH2 7983   2.719   6.357   2.130
 2681TIP3    H1 7984   2.764   6.281   2.094
 2681TIP3    H2 7985   2.674   6.396   2.054
 2682TIP3   OH2 7986   1.155   7.901   1.807
 2682TIP3    H1 7987   1.080   7.876   1.861
 2682TIP3    H2 7988   1.231   7.884   1.861
 2683TIP3   OH2 7989   4.244   4.422   5.069
 2683TIP3    H1 7990   4.158   4.417   5.109
 2683TIP3    H2 7991   4.275   4.511   5.089
 2684TIP3   OH2 7992   6.154   0.356   1.292
 2684TIP3    H1 7993   6.096   0.397   1.228
 2684TIP3    H2 7994   6.126   0.392   1.376
 2685TIP3   OH2 7995   5.249   4.394   2.427
 2685TIP3    H1 7996   5.257   4.375   2.520
 2685TIP3    H2 7997   5.226   4.486   2.422
 2686TIP3   OH2 7998   7.597   6.502   6.366
 2686TIP3    H1 7999   7.620   6.410   6.374
 2686TIP3    H2 8000   7.671   6.548   6.406
 2687TIP3   OH2 8001   6.849   6.214   3.910
 2687TIP3    H1 8002   6.765   6.185   3.875
 2687TIP3    H2 8003   6.914   6.165   3.860
 2688TIP3   OH2 8004   4.726   5.367   1.050
 2688TIP3    H1 8005   4.773   5.285   1.066
 2688TIP3    H2 8006   4.634   5.346   1.062
 2689TIP3   OH2 8007   6.538   6.056   5.494
 2689TIP3    H1 8008   6.582   5.993   5.552
 2689TIP3    H2 8009   6.488   6.001   5.433
 2690TIP3   OH2 8010   5.129   4.399   5.516
 2690TIP3    H1 8011   5.092   4.473   5.564
 2690TIP3    H2 8012   5.056   4.337   5.508
 2691TIP3   OH2 8013   7.155   0.512   6.091
 2691TIP3    H1 8014   7.147   0.442   6.156
 2691TIP3    H2 8015   7.242   0.549   6.106
 2692TIP3   OH2 8016   7.805   3.398   1.837
 2692TIP3    H1 8017   7.745   3.351   1.894
 2692TIP3    H2 8018   7.890   3.393   1.882
 2693TIP3   OH2 8019   6.814   3.065   0.579
 2693TIP3    H1 8020   6.860   3.147   0.560
 2693TIP3    H2 8021   6.862   3.027   0.653
 2694TIP3   OH2 8022   1.675   5.337   2.404
 2694TIP3    H1 8023   1.583   5.336   2.432
 2694TIP3    H2 8024   1.681   5.413   2.345
 2695TIP3   OH2 8025   5.973   2.416   3.830
 2695TIP3    H1 8026   5.930   2.377   3.754
 2695TIP3    H2 8027   5.904   2.464   3.876
 2696TIP3   OH2 8028   5.250   1.034   5.856
 2696TIP3    H1 8029   5.336   1.009   5.890
 2696TIP3    H2 8030   5.251   1.007   5.765
 2697TIP3   OH2 8031   8.152   1.564   5.533
 2697TIP3    H1 8032   8.197   1.649   5.532
 2697TIP3    H2 8033   8.217   1.501   5.503
 2698TIP3   OH2 8034   2.779   5.240   0.976
 2698TIP3    H1 8035   2.860   5.213   1.020
 2698TIP3    H2 8036   2.749   5.315   1.026
 2699TIP3   OH2 8037   4.126   2.893   2.360
 2699TIP3    H1 8038   4.170   2.974   2.385
 2699TIP3    H2 8039   4.157   2.876   2.271
 2700TIP3   OH2 8040   8.333   2.568   3.813
 2700TIP3    H1 8041   8.258   2.625   3.796
 2700TIP3    H2 8042   8.408   2.613   3.774
 2701TIP3   OH2 8043   0.786   6.968   4.940
 2701TIP3    H1 8044   0.822   7.024   4.872
 2701TIP3    H2 8045   0.860   6.916   4.971
 2702TIP3   OH2 8046   0.398   7.895   3.353
 2702TIP3    H1 8047   0.318   7.858   3.318
 2702TIP3    H2 8048   0.427   7.833   3.420
 2703TIP3   OH2 8049   6.664   4.720   0.267
 2703TIP3    H1 8050   6.706   4.714   0.182
 2703TIP3    H2 8051   6.716   4.784   0.315
 2704TIP3   OH2 8052   6.895   3.676   4.293
 2704TIP3    H1 8053   6.918   3.751   4.348
 2704TIP3    H2 8054   6.827   3.631   4.342
 2705TIP3   OH2 8055   8.085   6.276   3.866
 2705TIP3    H1 8056   8.031   6.205   3.830
 2705TIP3    H2 8057   8.029   6.353   3.862
 2706TIP3   OH2 8058   4.024   0.311   5.592
 2706TIP3    H1 8059   4.056   0.381   5.648
 2706TIP3    H2 8060   3.933   0.300   5.617
 2707TIP3   OH2 8061   1.455   4.795   5.106
 2707TIP3    H1 8062   1.524   4.820   5.044
 2707TIP3    H2 8063   1.408   4.877   5.123
 2708TIP3   OH2 8064   5.035   3.596   1.838
 2708TIP3    H1 8065   5.080   3.511   1.836
 2708TIP3    H2 8066   5.065   3.641   1.759
 2709TIP3   OH2 8067   6.211   3.540   1.790
 2709TIP3    H1 8068   6.152   3.480   1.836
 2709TIP3    H2 8069   6.228   3.497   1.706
 2710TIP3   OH2 8070   1.038   2.484   0.460
 2710TIP3    H1 8071   1.109   2.512   0.518
 2710TIP3    H2 8072   0.970   2.550   0.473
 2711TIP3   OH2 8073   5.531   4.800   0.725
 2711TIP3    H1 8074   5.489   4.744   0.659
 2711TIP3    H2 8075   5.502   4.889   0.703
 2712TIP3   OH2 8076   4.957   2.696   1.431
 2712TIP3    H1 8077   4.889   2.739   1.378
 2712TIP3    H2 8078   5.037   2.745   1.411
 2713TIP3   OH2 8079   7.391   7.701   3.601
 2713TIP3    H1 8080   7.431   7.664   3.680
 2713TIP3    H2 8081   7.375   7.793   3.623
 2714TIP3   OH2 8082   2.942   2.287   4.643
 2714TIP3    H1 8083   2.954   2.368   4.693
 2714TIP3    H2 8084   2.851   2.261   4.660
 2715TIP3   OH2 8085   3.363   4.052   5.258
 2715TIP3    H1 8086   3.356   4.029   5.351
 2715TIP3    H2 8087   3.273   4.070   5.231
 2716TIP3   OH2 8088   8.137   2.492   2.722
 2716TIP3    H1 8089   8.195   2.537   2.784
 2716TIP3    H2 8090   8.157   2.400   2.733
 2717TIP3   OH2 8091   4.795   6.887   6.784
 2717TIP3    H1 8092   4.851   6.815   6.814
 2717TIP3    H2 8093   4.719   6.844   6.746
 2718TIP3   OH2 8094   1.377   5.850   3.993
 2718TIP3    H1 8095   1.326   5.838   3.913
 2718TIP3    H2 8096   1.447   5.785   3.988
 2719TIP3   OH2 8097   7.861   3.634   6.264
 2719TIP3    H1 8098   7.779   3.585   6.253
 2719TIP3    H2 8099   7.868   3.647   6.359
 2720TIP3   OH2 8100   3.169   0.960   0.449
 2720TIP3    H1 8101   3.232   1.031   0.460
 2720TIP3    H2 8102   3.218   0.880   0.467
 2721TIP3   OH2 8103   2.397   6.490   1.559
 2721TIP3    H1 8104   2.458   6.428   1.598
 2721TIP3    H2 8105   2.429   6.576   1.588
 2722TIP3   OH2 8106   0.501   5.517   5.552
 2722TIP3    H1 8107   0.578   5.478   5.511
 2722TIP3    H2 8108   0.526   5.608   5.569
 2723TIP3   OH2 8109   5.136   5.366   6.162
 2723TIP3    H1 8110   5.088   5.319   6.094
 2723TIP3    H2 8111   5.110   5.457   6.150
 2724TIP3   OH2 8112   3.894   7.038   6.665
 2724TIP3    H1 8113   3.954   6.970   6.635
 2724TIP3    H2 8114   3.916   7.114   6.612
 2725TIP3   OH2 8115   3.647   2.188   1.397
 2725TIP3    H1 8116   3.586   2.120   1.427
 2725TIP3    H2 8117   3.595   2.268   1.397
 2726TIP3   OH2 8118   3.044   2.497   4.448
 2726TIP3    H1 8119   3.135   2.521   4.426
 2726TIP3    H2 8120   3.007   2.466   4.366
 2727TIP3   OH2 8121   0.758   4.291   4.543
 2727TIP3    H1 8122   0.785   4.367   4.594
 2727TIP3    H2 8123   0.840   4.251   4.515
 2728TIP3   OH2 8124   3.382   4.370   3.477
 2728TIP3    H1 8125   3.420   4.451   3.511
 2728TIP3    H2 8126   3.289   4.376   3.499
 2729TIP3   OH2 8127   6.039   5.484   0.726
 2729TIP3    H1 8128   6.004   5.429   0.657
 2729TIP3    H2 8129   6.064   5.566   0.683
 2730TIP3   OH2 8130   2.246   4.044   0.373
 2730TIP3    H1 8131   2.334   4.006   0.370
 2730TIP3    H2 8132   2.223   4.060   0.281
 2731TIP3   OH2 8133   1.023   2.205   0.060
 2731TIP3    H1 8134   0.987   2.269  -0.002
 2731TIP3    H2 8135   1.058   2.257   0.132
 2732TIP3   OH2 8136   2.919   1.095   2.714
 2732TIP3    H1 8137   2.999   1.142   2.741
 2732TIP3    H2 8138   2.867   1.161   2.669
 2733TIP3   OH2 8139   1.161   7.472   3.589
 2733TIP3    H1 8140   1.256   7.485   3.591
 2733TIP3    H2 8141   1.142   7.413   3.662
 2734TIP3   OH2 8142   4.214   1.807   4.902
 2734TIP3    H1 8143   4.237   1.846   4.986
 2734TIP3    H2 8144   4.184   1.719   4.925
 2735TIP3   OH2 8145   6.811   3.684   3.253
 2735TIP3    H1 8146   6.860   3.761   3.223
 2735TIP3    H2 8147   6.776   3.710   3.338
 2736TIP3   OH2 8148   5.023   4.762   3.694
 2736TIP3    H1 8149   5.034   4.853   3.719
 2736TIP3    H2 8150   5.058   4.712   3.768
 2737TIP3   OH2 8151   2.102   5.637   1.424
 2737TIP3    H1 8152   2.113   5.600   1.511
 2737TIP3    H2 8153   2.118   5.564   1.364
 2738TIP3   OH2 8154   5.135   3.084   6.419
 2738TIP3    H1 8155   5.096   3.171   6.414
 2738TIP3    H2 8156   5.072   3.032   6.469
 2739TIP3   OH2 8157   3.459   3.740   3.071
 2739TIP3    H1 8158   3.496   3.748   2.983
 2739TIP3    H2 8159   3.463   3.647   3.091
 2740TIP3   OH2 8160   5.014   4.867   2.190
 2740TIP3    H1 8161   5.047   4.781   2.164
 2740TIP3    H2 8162   5.007   4.862   2.285
 2741TIP3   OH2 8163   5.156   5.671   5.900
 2741TIP3    H1 8164   5.244   5.638   5.921
 2741TIP3    H2 8165   5.160   5.764   5.922
 2742TIP3   OH2 8166   1.588   7.876   4.948
 2742TIP3    H1 8167   1.595   7.922   5.032
 2742TIP3    H2 8168   1.550   7.791   4.970
 2743TIP3   OH2 8169   5.569   7.166   0.969
 2743TIP3    H1 8170   5.630   7.124   0.908
 2743TIP3    H2 8171   5.552   7.252   0.930
 2744TIP3   OH2 8172   6.447   5.771   1.686
 2744TIP3    H1 8173   6.362   5.766   1.642
 2744TIP3    H2 8174   6.509   5.789   1.615
 2745TIP3   OH2 8175   0.784   3.851   4.973
 2745TIP3    H1 8176   0.868   3.806   4.969
 2745TIP3    H2 8177   0.788   3.902   5.054
 2746TIP3   OH2 8178   5.613   5.579   0.443
 2746TIP3    H1 8179   5.596   5.667   0.408
 2746TIP3    H2 8180   5.689   5.548   0.392
 2747TIP3   OH2 8181   3.839   7.399   4.410
 2747TIP3    H1 8182   3.838   7.346   4.330
 2747TIP3    H2 8183   3.853   7.488   4.379
 2748TIP3   OH2 8184   7.676   3.972   0.407
 2748TIP3    H1 8185   7.597   3.918   0.413
 2748TIP3    H2 8186   7.735   3.922   0.352
 2749TIP3   OH2 8187   4.676   0.724   0.251
 2749TIP3    H1 8188   4.724   0.653   0.293
 2749TIP3    H2 8189   4.731   0.751   0.178
 2750TIP3   OH2 8190   1.714   3.063   2.419
 2750TIP3    H1 8191   1.789   3.076   2.477
 2750TIP3    H2 8192   1.749   3.074   2.331
 2751TIP3   OH2 8193   3.741   1.545   3.861
 2751TIP3    H1 8194   3.800   1.556   3.936
 2751TIP3    H2 8195   3.713   1.633   3.838
 2752TIP3   OH2 8196   6.707   5.477   0.266
 2752TIP3    H1 8197   6.741   5.545   0.325
 2752TIP3    H2 8198   6.639   5.521   0.216
 2753TIP3   OH2 8199   4.914   2.328   3.482
 2753TIP3    H1 8200   4.951   2.351   3.567
 2753TIP3    H2 8201   4.964   2.251   3.454
 2754TIP3   OH2 8202   8.080   0.039   2.502
 2754TIP3    H1 8203   8.048   0.019   2.590
 2754TIP3    H2 8204   8.175   0.029   2.508
 2755TIP3   OH2 8205   6.040   3.031   3.285
 2755TIP3    H1 8206   6.086   3.029   3.369
 2755TIP3    H2 8207   6.049   3.122   3.255
 2756TIP3   OH2 8208   6.940   5.356   3.805
 2756TIP3    H1 8209   7.027   5.356   3.843
 2756TIP3    H2 8210   6.950   5.315   3.719
 2757TIP3   OH2 8211   4.411   1.969   6.506
 2757TIP3    H1 8212   4.323   1.939   6.531
 2757TIP3    H2 8213   4.403   1.991   6.413
 2758TIP3   OH2 8214   3.920   7.404   4.706
 2758TIP3    H1 8215   3.839   7.409   4.655
 2758TIP3    H2 8216   3.987   7.443   4.649
 2759TIP3   OH2 8217   1.196   3.919   5.253
 2759TIP3    H1 8218   1.203   3.928   5.158
 2759TIP3    H2 8219   1.106   3.943   5.273
 2760TIP3   OH2 8220   1.431   0.035   2.071
 2760TIP3    H1 8221   1.510  -0.009   2.042
 2760TIP3    H2 8222   1.454   0.070   2.158
 2761TIP3   OH2 8223   0.082   3.192   2.483
 2761TIP3    H1 8224   0.111   3.145   2.404
 2761TIP3    H2 8225   0.161   3.233   2.517
 2762TIP3   OH2 8226   7.704   2.948   2.206
 2762TIP3    H1 8227   7.729   2.990   2.289
 2762TIP3    H2 8228   7.611   2.929   2.216
 2763TIP3   OH2 8229   6.879   4.454   4.674
 2763TIP3    H1 8230   6.954   4.408   4.710
 2763TIP3    H2 8231   6.851   4.513   4.745
 2764TIP3   OH2 8232   1.846   6.956   4.571
 2764TIP3    H1 8233   1.831   6.938   4.664
 2764TIP3    H2 8234   1.762   6.989   4.539
 2765TIP3   OH2 8235   5.309   1.251   4.835
 2765TIP3    H1 8236   5.360   1.326   4.866
 2765TIP3    H2 8237   5.218   1.277   4.849
 2766TIP3   OH2 8238   7.536   6.258   1.376
 2766TIP3    H1 8239   7.610   6.241   1.434
 2766TIP3    H2 8240   7.552   6.204   1.299
 2767TIP3   OH2 8241   5.179   3.003   0.543
 2767TIP3    H1 8242   5.156   2.913   0.567
 2767TIP3    H2 8243   5.275   3.003   0.541
 2768TIP3   OH2 8244   0.065   7.244   1.676
 2768TIP3    H1 8245   0.027   7.212   1.595
 2768TIP3    H2 8246   0.014   7.201   1.745
 2769TIP3   OH2 8247   7.861   6.872   0.165
 2769TIP3    H1 8248   7.791   6.809   0.148
 2769TIP3    H2 8249   7.886   6.858   0.256
 2770TIP3   OH2 8250   7.177   7.244   2.412
 2770TIP3    H1 8251   7.190   7.257   2.506
 2770TIP3    H2 8252   7.264   7.254   2.374
 2771TIP3   OH2 8253   1.081   2.799   3.299
 2771TIP3    H1 8254   1.107   2.884   3.335
 2771TIP3    H2 8255   1.163   2.761   3.267
 2772TIP3   OH2 8256   6.730   0.567   5.489
 2772TIP3    H1 8257   6.820   0.588   5.516
 2772TIP3    H2 8258   6.690   0.652   5.471
 2773TIP3   OH2 8259   0.007   1.014   5.175
 2773TIP3    H1 8260  -0.038   1.046   5.096
 2773TIP3    H2 8261   0.055   0.936   5.146
 2774TIP3   OH2 8262   1.998   7.554   6.378
 2774TIP3    H1 8263   2.013   7.637   6.423
 2774TIP3    H2 8264   1.917   7.520   6.415
 2775TIP3   OH2 8265   2.219   1.272   2.247
 2775TIP3    H1 8266   2.257   1.247   2.332
 2775TIP3    H2 8267   2.218   1.367   2.249
 2776TIP3   OH2 8268   5.574   5.847   1.415
 2776TIP3    H1 8269   5.503   5.860   1.478
 2776TIP3    H2 8270   5.654   5.865   1.465
 2777TIP3   OH2 8271   0.961   1.419   0.050
 2777TIP3    H1 8272   1.020   1.353   0.084
 2777TIP3    H2 8273   0.984   1.499   0.098
 2778TIP3   OH2 8274   6.919   7.340   2.755
 2778TIP3    H1 8275   6.910   7.253   2.795
 2778TIP3    H2 8276   6.986   7.329   2.688
 2779TIP3   OH2 8277   0.605   7.405   1.013
 2779TIP3    H1 8278   0.672   7.355   1.060
 2779TIP3    H2 8279   0.522   7.375   1.051
 2780TIP3   OH2 8280   4.544   5.925   1.634
 2780TIP3    H1 8281   4.489   5.910   1.557
 2780TIP3    H2 8282   4.487   5.904   1.708
 2781TIP3   OH2 8283   4.722   1.501   3.351
 2781TIP3    H1 8284   4.748   1.553   3.275
 2781TIP3    H2 8285   4.650   1.447   3.320
 2782TIP3   OH2 8286   1.181   2.256   0.681
 2782TIP3    H1 8287   1.260   2.205   0.662
 2782TIP3    H2 8288   1.214   2.344   0.698
 2783TIP3   OH2 8289   2.179   0.659   3.766
 2783TIP3    H1 8290   2.207   0.750   3.762
 2783TIP3    H2 8291   2.133   0.652   3.850
 2784TIP3   OH2 8292   5.212   2.259   0.923
 2784TIP3    H1 8293   5.225   2.262   1.018
 2784TIP3    H2 8294   5.146   2.327   0.907
 2785TIP3   OH2 8295   0.805   5.377   4.346
 2785TIP3    H1 8296   0.881   5.322   4.325
 2785TIP3    H2 8297   0.731   5.315   4.350
 2786TIP3   OH2 8298   3.282   1.214   2.110
 2786TIP3    H1 8299   3.361   1.216   2.164
 2786TIP3    H2 8300   3.268   1.122   2.091
 2787TIP3   OH2 8301   0.709   4.705   3.759
 2787TIP3    H1 8302   0.666   4.777   3.805
 2787TIP3    H2 8303   0.675   4.709   3.670
 2788TIP3   OH2 8304   1.769   0.878   0.187
 2788TIP3    H1 8305   1.829   0.935   0.235
 2788TIP3    H2 8306   1.822   0.804   0.159
 2789TIP3   OH2 8307   2.421   5.628   0.967
 2789TIP3    H1 8308   2.394   5.599   0.880
 2789TIP3    H2 8309   2.412   5.723   0.963
 2790TIP3   OH2 8310   4.330   3.914   5.301
 2790TIP3    H1 8311   4.370   3.927   5.387
 2790TIP3    H2 8312   4.394   3.948   5.239
 2791TIP3   OH2 8313   2.781   3.278   5.498
 2791TIP3    H1 8314   2.736   3.282   5.582
 2791TIP3    H2 8315   2.851   3.343   5.504
 2792TIP3   OH2 8316   7.338   1.547   2.650
 2792TIP3    H1 8317   7.409   1.603   2.620
 2792TIP3    H2 8318   7.260   1.582   2.608
 2793TIP3   OH2 8319   3.567   5.528   5.902
 2793TIP3    H1 8320   3.657   5.544   5.871
 2793TIP3    H2 8321   3.570   5.549   5.995
 2794TIP3   OH2 8322   7.976   2.111   4.443
 2794TIP3    H1 8323   8.061   2.099   4.483
 2794TIP3    H2 8324   7.960   2.029   4.396
 2795TIP3   OH2 8325   6.136   4.413   0.587
 2795TIP3    H1 8326   6.120   4.408   0.682
 2795TIP3    H2 8327   6.118   4.505   0.565
 2796TIP3   OH2 8328   6.533   6.109   5.823
 2796TIP3    H1 8329   6.607   6.132   5.879
 2796TIP3    H2 8330   6.521   6.186   5.767
 2797TIP3   OH2 8331   0.491   5.591   3.735
 2797TIP3    H1 8332   0.584   5.572   3.746
 2797TIP3    H2 8333   0.474   5.578   3.642
 2798TIP3   OH2 8334   3.475   6.707   5.350
 2798TIP3    H1 8335   3.548   6.671   5.400
 2798TIP3    H2 8336   3.516   6.759   5.282
 2799TIP3   OH2 8337   3.944   4.717   3.291
 2799TIP3    H1 8338   3.910   4.686   3.207
 2799TIP3    H2 8339   4.030   4.753   3.271
 2800TIP3   OH2 8340   5.024   0.541   1.700
 2800TIP3    H1 8341   5.112   0.568   1.673
 2800TIP3    H2 8342   4.965   0.600   1.651
 2801TIP3   OH2 8343   5.544   1.131   4.774
 2801TIP3    H1 8344   5.565   1.090   4.858
 2801TIP3    H2 8345   5.461   1.176   4.790
 2802TIP3   OH2 8346   5.727   1.735   0.348
 2802TIP3    H1 8347   5.728   1.655   0.297
 2802TIP3    H2 8348   5.819   1.747   0.374
 2803TIP3   OH2 8349   3.844   4.017   1.389
 2803TIP3    H1 8350   3.816   4.027   1.480
 2803TIP3    H2 8351   3.919   4.077   1.380
 2804TIP3   OH2 8352   6.946   6.384   1.602
 2804TIP3    H1 8353   6.930   6.352   1.691
 2804TIP3    H2 8354   6.993   6.467   1.614
 2805TIP3   OH2 8355   6.278   4.579   2.204
 2805TIP3    H1 8356   6.301   4.503   2.257
 2805TIP3    H2 8357   6.226   4.543   2.132
 2806TIP3   OH2 8358   8.223   5.323   3.812
 2806TIP3    H1 8359   8.182   5.344   3.728
 2806TIP3    H2 8360   8.158   5.347   3.877
 2807TIP3   OH2 8361   4.434   3.277   5.575
 2807TIP3    H1 8362   4.380   3.356   5.575
 2807TIP3    H2 8363   4.440   3.253   5.668
 2808TIP3   OH2 8364   7.299   5.332   6.449
 2808TIP3    H1 8365   7.295   5.243   6.484
 2808TIP3    H2 8366   7.305   5.387   6.526
 2809TIP3   OH2 8367   7.978   7.360   0.932
 2809TIP3    H1 8368   7.990   7.375   0.838
 2809TIP3    H2 8369   8.053   7.404   0.973
 2810TIP3   OH2 8370   0.848   3.643   3.522
 2810TIP3    H1 8371   0.851   3.603   3.435
 2810TIP3    H2 8372   0.797   3.582   3.575
 2811TIP3   OH2 8373   4.120   3.980   5.039
 2811TIP3    H1 8374   4.085   4.052   4.987
 2811TIP3    H2 8375   4.162   3.922   4.975
 2812TIP3   OH2 8376   2.290   6.144   6.224
 2812TIP3    H1 8377   2.218   6.084   6.206
 2812TIP3    H2 8378   2.268   6.224   6.177
 2813TIP3   OH2 8379   7.045   0.372   5.265
 2813TIP3    H1 8380   7.114   0.438   5.272
 2813TIP3    H2 8381   7.039   0.353   5.172
 2814TIP3   OH2 8382   0.128   1.418   2.523
 2814TIP3    H1 8383   0.076   1.343   2.552
 2814TIP3    H2 8384   0.178   1.443   2.600
 2815TIP3   OH2 8385   5.262   2.507   1.179
 2815TIP3    H1 8386   5.212   2.588   1.169
 2815TIP3    H2 8387   5.346   2.536   1.215
 2816TIP3   OH2 8388   5.548   5.750   6.110
 2816TIP3    H1 8389   5.604   5.672   6.113
 2816TIP3    H2 8390   5.484   5.731   6.042
 2817TIP3   OH2 8391   0.294   0.235   5.109
 2817TIP3    H1 8392   0.209   0.218   5.149
 2817TIP3    H2 8393   0.323   0.317   5.148
 2818TIP3   OH2 8394   1.700   2.196   6.525
 2818TIP3    H1 8395   1.634   2.260   6.497
 2818TIP3    H2 8396   1.748   2.241   6.595
 2819TIP3   OH2 8397   1.596   1.590   3.861
 2819TIP3    H1 8398   1.614   1.528   3.931
 2819TIP3    H2 8399   1.611   1.676   3.901
 2820TIP3   OH2 8400   7.472   4.754   3.811
 2820TIP3    H1 8401   7.388   4.792   3.837
 2820TIP3    H2 8402   7.537   4.822   3.832
 2821TIP3   OH2 8403   4.895   2.382   4.744
 2821TIP3    H1 8404   4.848   2.299   4.752
 2821TIP3    H2 8405   4.941   2.376   4.660
 2822TIP3   OH2 8406   1.961   2.354   0.882
 2822TIP3    H1 8407   1.900   2.399   0.942
 2822TIP3    H2 8408   1.912   2.346   0.800
 2823TIP3   OH2 8409   3.106   5.371   3.619
 2823TIP3    H1 8410   3.047   5.428   3.570
 2823TIP3    H2 8411   3.053   5.336   3.690
 2824TIP3   OH2 8412   1.033   3.928   1.404
 2824TIP3    H1 8413   1.113   3.911   1.453
 2824TIP3    H2 8414   1.035   3.866   1.332
 2825TIP3   OH2 8415   5.528   1.686   6.136
 2825TIP3    H1 8416   5.468   1.646   6.199
 2825TIP3    H2 8417   5.537   1.619   6.067
 2826TIP3   OH2 8418   1.481   6.242   4.921
 2826TIP3    H1 8419   1.566   6.238   4.879
 2826TIP3    H2 8420   1.500   6.238   5.015
 2827TIP3   OH2 8421   3.696   2.291   1.704
 2827TIP3    H1 8422   3.745   2.355   1.756
 2827TIP3    H2 8423   3.621   2.268   1.758
 2828TIP3   OH2 8424   6.159   3.329   3.326
 2828TIP3    H1 8425   6.111   3.390   3.382
 2828TIP3    H2 8426   6.250   3.358   3.332
 2829TIP3   OH2 8427  -0.014   1.674   1.008
 2829TIP3    H1 8428  -0.019   1.703   0.917
 2829TIP3    H2 8429   0.080   1.678   1.029
 2830TIP3   OH2 8430   4.116   4.591   6.060
 2830TIP3    H1 8431   4.189   4.543   6.019
 2830TIP3    H2 8432   4.086   4.533   6.130
 2831TIP3   OH2 8433   6.564   7.117   6.127
 2831TIP3    H1 8434   6.474   7.129   6.157
 2831TIP3    H2 8435   6.572   7.022   6.113
 2832TIP3   OH2 8436   2.840   0.058   1.239
 2832TIP3    H1 8437   2.795   0.110   1.306
 2832TIP3    H2 8438   2.811  -0.032   1.254
 2833TIP3   OH2 8439   7.668   5.427   1.259
 2833TIP3    H1 8440   7.708   5.346   1.227
 2833TIP3    H2 8441   7.587   5.436   1.208
 2834TIP3   OH2 8442   2.172   4.326   3.020
 2834TIP3    H1 8443   2.267   4.337   3.025
 2834TIP3    H2 8444   2.156   4.300   2.929
 2835TIP3   OH2 8445   2.063   0.122   6.695
 2835TIP3    H1 8446   1.985   0.123   6.641
 2835TIP3    H2 8447   2.065   0.034   6.734
 2836TIP3   OH2 8448   7.598   4.994   2.028
 2836TIP3    H1 8449   7.570   4.923   2.085
 2836TIP3    H2 8450   7.563   4.971   1.941
 2837TIP3   OH2 8451   5.794   4.818   4.827
 2837TIP3    H1 8452   5.760   4.848   4.911
 2837TIP3    H2 8453   5.739   4.861   4.761
 2838TIP3   OH2 8454   2.422   1.085   1.214
 2838TIP3    H1 8455   2.458   1.158   1.264
 2838TIP3    H2 8456   2.453   1.007   1.259
 2839TIP3   OH2 8457   6.453   5.563   3.210
 2839TIP3    H1 8458   6.494   5.554   3.124
 2839TIP3    H2 8459   6.447   5.473   3.243
 2840TIP3   OH2 8460   1.269   4.866   2.696
 2840TIP3    H1 8461   1.273   4.771   2.705
 2840TIP3    H2 8462   1.325   4.885   2.621
 2841TIP3   OH2 8463   1.279   2.179   2.009
 2841TIP3    H1 8464   1.304   2.237   2.080
 2841TIP3    H2 8465   1.270   2.093   2.050
 2842TIP3   OH2 8466   1.299   0.803   2.061
 2842TIP3    H1 8467   1.368   0.838   2.006
 2842TIP3    H2 8468   1.292   0.711   2.036
 2843TIP3   OH2 8469   3.276   4.301   2.696
 2843TIP3    H1 8470   3.291   4.391   2.666
 2843TIP3    H2 8471   3.363   4.261   2.698
 2844TIP3   OH2 8472   5.748   1.680   2.207
 2844TIP3    H1 8473   5.661   1.644   2.225
 2844TIP3    H2 8474   5.807   1.629   2.263
 2845TIP3   OH2 8475   4.685   6.831   6.262
 2845TIP3    H1 8476   4.651   6.760   6.208
 2845TIP3    H2 8477   4.758   6.792   6.311
 2846TIP3   OH2 8478   5.002   6.276   2.907
 2846TIP3    H1 8479   4.962   6.192   2.884
 2846TIP3    H2 8480   5.022   6.267   3.001
 2847TIP3   OH2 8481   5.751   6.722   1.051
 2847TIP3    H1 8482   5.757   6.816   1.034
 2847TIP3    H2 8483   5.763   6.682   0.965
 2848TIP3   OH2 8484   8.098   1.632   0.476
 2848TIP3    H1 8485   8.013   1.592   0.453
 2848TIP3    H2 8486   8.128   1.581   0.551
 2849TIP3   OH2 8487   2.777   2.630   3.015
 2849TIP3    H1 8488   2.811   2.670   2.935
 2849TIP3    H2 8489   2.696   2.678   3.033
 2850TIP3   OH2 8490   7.685   6.901   2.034
 2850TIP3    H1 8491   7.683   6.823   1.978
 2850TIP3    H2 8492   7.607   6.894   2.088
 2851TIP3   OH2 8493   2.712   0.801   2.086
 2851TIP3    H1 8494   2.700   0.707   2.071
 2851TIP3    H2 8495   2.757   0.807   2.170
 2852TIP3   OH2 8496   7.827   1.628   3.386
 2852TIP3    H1 8497   7.897   1.574   3.423
 2852TIP3    H2 8498   7.747   1.598   3.431
 2853TIP3   OH2 8499   5.773   0.608   4.731
 2853TIP3    H1 8500   5.750   0.674   4.666
 2853TIP3    H2 8501   5.699   0.607   4.792
 2854TIP3   OH2 8502   2.992   0.239   0.552
 2854TIP3    H1 8503   2.917   0.190   0.585
 2854TIP3    H2 8504   3.048   0.253   0.629
 2855TIP3   OH2 8505   0.646   6.369   5.294
 2855TIP3    H1 8506   0.708   6.305   5.260
 2855TIP3    H2 8507   0.675   6.452   5.257
 2856TIP3   OH2 8508   1.362   0.837   6.245
 2856TIP3    H1 8509   1.285   0.893   6.233
 2856TIP3    H2 8510   1.416   0.854   6.169
 2857TIP3   OH2 8511   6.153   3.250   1.323
 2857TIP3    H1 8512   6.064   3.215   1.333
 2857TIP3    H2 8513   6.152   3.291   1.236
 2858TIP3   OH2 8514   7.561   3.847   2.205
 2858TIP3    H1 8515   7.638   3.841   2.263
 2858TIP3    H2 8516   7.598   3.864   2.118
 2859TIP3   OH2 8517   7.076   4.362   1.496
 2859TIP3    H1 8518   7.171   4.366   1.508
 2859TIP3    H2 8519   7.054   4.270   1.509
 2860TIP3   OH2 8520   1.415   0.578   2.731
 2860TIP3    H1 8521   1.372   0.653   2.691
 2860TIP3    H2 8522   1.361   0.557   2.807
 2861TIP3   OH2 8523   5.280   2.936   0.896
 2861TIP3    H1 8524   5.356   2.898   0.853
 2861TIP3    H2 8525   5.227   2.972   0.825
 2862TIP3   OH2 8526   7.533   4.746   5.131
 2862TIP3    H1 8527   7.517   4.792   5.213
 2862TIP3    H2 8528   7.496   4.802   5.063
 2863TIP3   OH2 8529   6.024   5.487   2.790
 2863TIP3    H1 8530   6.044   5.525   2.705
 2863TIP3    H2 8531   6.083   5.531   2.851
 2864TIP3   OH2 8532   3.440   6.938   2.100
 2864TIP3    H1 8533   3.359   6.936   2.152
 2864TIP3    H2 8534   3.410   6.932   2.010
 2865TIP3   OH2 8535   4.783   2.479   6.125
 2865TIP3    H1 8536   4.736   2.554   6.087
 2865TIP3    H2 8537   4.714   2.425   6.163
 2866TIP3   OH2 8538   7.585   3.512   2.818
 2866TIP3    H1 8539   7.651   3.525   2.886
 2866TIP3    H2 8540   7.541   3.431   2.842
 2867TIP3   OH2 8541   0.393   6.367   3.342
 2867TIP3    H1 8542   0.397   6.373   3.246
 2867TIP3    H2 8543   0.300   6.363   3.362
 2868TIP3   OH2 8544   7.861   7.116   4.530
 2868TIP3    H1 8545   7.779   7.067   4.520
 2868TIP3    H2 8546   7.886   7.100   4.621
 2869TIP3   OH2 8547   5.150   0.924   2.253
 2869TIP3    H1 8548   5.060   0.919   2.285
 2869TIP3    H2 8549   5.201   0.954   2.328
 2870TIP3   OH2 8550   6.631   6.812   4.166
 2870TIP3    H1 8551   6.686   6.817   4.244
 2870TIP3    H2 8552   6.619   6.902   4.139
 2871TIP3   OH2 8553   6.137   5.283   2.258
 2871TIP3    H1 8554   6.048   5.248   2.249
 2871TIP3    H2 8555   6.183   5.252   2.180
 2872TIP3   OH2 8556   7.660   0.150   6.026
 2872TIP3    H1 8557   7.576   0.157   6.071
 2872TIP3    H2 8558   7.649   0.203   5.947
 2873TIP3   OH2 8559   5.508   4.918   2.982
 2873TIP3    H1 8560   5.444   4.915   3.053
 2873TIP3    H2 8561   5.472   4.860   2.915
 2874TIP3   OH2 8562   6.064   3.969   1.905
 2874TIP3    H1 8563   5.969   3.959   1.902
 2874TIP3    H2 8564   6.084   4.029   1.833
 2875TIP3   OH2 8565   3.706   2.395   1.969
 2875TIP3    H1 8566   3.777   2.366   2.026
 2875TIP3    H2 8567   3.687   2.484   1.997
 2876TIP3   OH2 8568   3.339   1.361   4.610
 2876TIP3    H1 8569   3.270   1.426   4.598
 2876TIP3    H2 8570   3.388   1.363   4.527
 2877TIP3   OH2 8571   6.451   4.110   1.443
 2877TIP3    H1 8572   6.485   4.089   1.356
 2877TIP3    H2 8573   6.528   4.135   1.494
 2878TIP3   OH2 8574   1.645   5.170   5.950
 2878TIP3    H1 8575   1.689   5.134   6.027
 2878TIP3    H2 8576   1.683   5.258   5.940
 2879TIP3   OH2 8577   2.272   7.892   0.970
 2879TIP3    H1 8578   2.297   7.906   0.878
 2879TIP3    H2 8579   2.217   7.814   0.968
 2880TIP3   OH2 8580   6.663   1.591   4.462
 2880TIP3    H1 8581   6.578   1.548   4.452
 2880TIP3    H2 8582   6.702   1.587   4.375
 2881TIP3   OH2 8583   5.763   1.235   2.837
 2881TIP3    H1 8584   5.764   1.196   2.750
 2881TIP3    H2 8585   5.855   1.254   2.856
 2882TIP3   OH2 8586   4.351   1.921   3.899
 2882TIP3    H1 8587   4.396   1.849   3.853
 2882TIP3    H2 8588   4.422   1.981   3.923
 2883TIP3   OH2 8589   6.396   3.442   4.531
 2883TIP3    H1 8590   6.410   3.521   4.477
 2883TIP3    H2 8591   6.382   3.476   4.619
 2884TIP3   OH2 8592   7.222   4.238   3.413
 2884TIP3    H1 8593   7.202   4.147   3.391
 2884TIP3    H2 8594   7.156   4.289   3.366
 2885TIP3   OH2 8595   0.226   2.992   3.018
 2885TIP3    H1 8596   0.271   2.922   3.065
 2885TIP3    H2 8597   0.292   3.030   2.961
 2886TIP3   OH2 8598   4.369   3.531   6.481
 2886TIP3    H1 8599   4.289   3.569   6.445
 2886TIP3    H2 8600   4.424   3.607   6.503
 2887TIP3   OH2 8601   4.053   2.958   2.749
 2887TIP3    H1 8602   3.974   2.993   2.790
 2887TIP3    H2 8603   4.021   2.905   2.676
 2888TIP3   OH2 8604   5.382   2.194   4.314
 2888TIP3    H1 8605   5.354   2.127   4.376
 2888TIP3    H2 8606   5.383   2.150   4.229
 2889TIP3   OH2 8607   0.263   5.402   1.200
 2889TIP3    H1 8608   0.224   5.489   1.211
 2889TIP3    H2 8609   0.253   5.360   1.286
 2890TIP3   OH2 8610   1.448   3.452   2.420
 2890TIP3    H1 8611   1.448   3.516   2.349
 2890TIP3    H2 8612   1.355   3.435   2.437
 2891TIP3   OH2 8613   5.817   5.170   4.684
 2891TIP3    H1 8614   5.886   5.160   4.618
 2891TIP3    H2 8615   5.764   5.091   4.675
 2892TIP3   OH2 8616   1.711   6.034   5.692
 2892TIP3    H1 8617   1.711   6.073   5.605
 2892TIP3    H2 8618   1.694   5.941   5.678
 2893TIP3   OH2 8619   1.058   7.425   3.345
 2893TIP3    H1 8620   0.981   7.481   3.356
 2893TIP3    H2 8621   1.102   7.428   3.429
 2894TIP3   OH2 8622   4.118   7.256   2.412
 2894TIP3    H1 8623   4.074   7.215   2.486
 2894TIP3    H2 8624   4.188   7.195   2.389
 2895TIP3   OH2 8625   5.728   3.510   3.608
 2895TIP3    H1 8626   5.767   3.573   3.548
 2895TIP3    H2 8627   5.723   3.428   3.559
 2896TIP3   OH2 8628   5.742   6.288   3.618
 2896TIP3    H1 8629   5.651   6.318   3.629
 2896TIP3    H2 8630   5.733   6.202   3.577
 2897TIP3   OH2 8631   2.260   7.671   1.437
 2897TIP3    H1 8632   2.169   7.686   1.411
 2897TIP3    H2 8633   2.258   7.666   1.533
 2898TIP3   OH2 8634   7.946   4.429   1.193
 2898TIP3    H1 8635   7.952   4.509   1.246
 2898TIP3    H2 8636   8.030   4.385   1.207
 2899TIP3   OH2 8637   3.511   0.646   4.744
 2899TIP3    H1 8638   3.435   0.601   4.707
 2899TIP3    H2 8639   3.573   0.576   4.764
 2900TIP3   OH2 8640   8.241   6.346   1.505
 2900TIP3    H1 8641   8.226   6.440   1.515
 2900TIP3    H2 8642   8.266   6.317   1.592
 2901TIP3   OH2 8643   3.734   3.164   6.227
 2901TIP3    H1 8644   3.789   3.107   6.280
 2901TIP3    H2 8645   3.742   3.250   6.267
 2902TIP3   OH2 8646   2.475   0.809   0.041
 2902TIP3    H1 8647   2.401   0.751   0.023
 2902TIP3    H2 8648   2.446   0.865   0.113
 2903TIP3   OH2 8649   3.053   6.224   1.660
 2903TIP3    H1 8650   3.054   6.151   1.722
 2903TIP3    H2 8651   3.109   6.291   1.701
 2904TIP3   OH2 8652   6.262   0.826   2.498
 2904TIP3    H1 8653   6.238   0.859   2.585
 2904TIP3    H2 8654   6.242   0.732   2.501
 2905TIP3   OH2 8655   5.483   7.248   0.607
 2905TIP3    H1 8656   5.540   7.281   0.676
 2905TIP3    H2 8657   5.399   7.233   0.650
 2906TIP3   OH2 8658   0.318   5.615   0.060
 2906TIP3    H1 8659   0.394   5.578   0.014
 2906TIP3    H2 8660   0.354   5.688   0.110
 2907TIP3   OH2 8661   7.938   7.598   2.730
 2907TIP3    H1 8662   7.985   7.681   2.726
 2907TIP3    H2 8663   7.863   7.615   2.786
 2908TIP3   OH2 8664   6.733   2.682   2.184
 2908TIP3    H1 8665   6.662   2.621   2.201
 2908TIP3    H2 8666   6.805   2.627   2.152
 2909TIP3   OH2 8667   7.678   6.713   5.190
 2909TIP3    H1 8668   7.749   6.775   5.207
 2909TIP3    H2 8669   7.598   6.763   5.203
 2910TIP3   OH2 8670   1.888   2.336   3.434
 2910TIP3    H1 8671   1.888   2.393   3.511
 2910TIP3    H2 8672   1.871   2.396   3.361
 2911TIP3   OH2 8673   2.818   2.399   0.785
 2911TIP3    H1 8674   2.902   2.354   0.791
 2911TIP3    H2 8675   2.840   2.492   0.779
 2912TIP3   OH2 8676   1.932   3.440   2.852
 2912TIP3    H1 8677   2.016   3.449   2.805
 2912TIP3    H2 8678   1.954   3.390   2.931
 2913TIP3   OH2 8679   5.552   0.774   6.358
 2913TIP3    H1 8680   5.487   0.825   6.407
 2913TIP3    H2 8681   5.590   0.715   6.423
 2914TIP3   OH2 8682   5.783   7.889   3.129
 2914TIP3    H1 8683   5.842   7.937   3.188
 2914TIP3    H2 8684   5.799   7.797   3.150
 2915TIP3   OH2 8685   6.370   3.415   0.254
 2915TIP3    H1 8686   6.422   3.335   0.245
 2915TIP3    H2 8687   6.431   3.480   0.288
 2916TIP3   OH2 8688   8.300   7.122   5.843
 2916TIP3    H1 8689   8.225   7.064   5.855
 2916TIP3    H2 8690   8.267   7.209   5.863
 2917TIP3   OH2 8691   7.456   4.001   5.415
 2917TIP3    H1 8692   7.522   4.061   5.381
 2917TIP3    H2 8693   7.506   3.925   5.445
 2918TIP3   OH2 8694   5.639   3.054   6.098
 2918TIP3    H1 8695   5.601   3.116   6.035
 2918TIP3    H2 8696   5.564   3.004   6.131
 2919TIP3   OH2 8697   5.281   4.694   1.184
 2919TIP3    H1 8698   5.280   4.774   1.131
 2919TIP3    H2 8699   5.226   4.715   1.259
 2920TIP3   OH2 8700   1.914   3.134   0.103
 2920TIP3    H1 8701   1.989   3.184   0.133
 2920TIP3    H2 8702   1.950   3.070   0.041
 2921TIP3   OH2 8703   3.538   6.199   2.840
 2921TIP3    H1 8704   3.511   6.141   2.769
 2921TIP3    H2 8705   3.486   6.170   2.915
 2922TIP3   OH2 8706   5.664   4.256   0.450
 2922TIP3    H1 8707   5.734   4.214   0.401
 2922TIP3    H2 8708   5.709   4.312   0.514
 2923TIP3   OH2 8709   8.391   1.158   2.515
 2923TIP3    H1 8710   8.304   1.117   2.513
 2923TIP3    H2 8711   8.426   1.134   2.601
 2924TIP3   OH2 8712   4.707   2.992   1.618
 2924TIP3    H1 8713   4.711   3.061   1.553
 2924TIP3    H2 8714   4.613   2.976   1.631
 2925TIP3   OH2 8715   8.148   6.074   5.024
 2925TIP3    H1 8716   8.076   6.020   4.990
 2925TIP3    H2 8717   8.226   6.019   5.015
 2926TIP3   OH2 8718   0.586   7.453   3.187
 2926TIP3    H1 8719   0.542   7.399   3.122
 2926TIP3    H2 8720   0.549   7.424   3.271
 2927TIP3   OH2 8721   5.696   3.752   2.540
 2927TIP3    H1 8722   5.704   3.798   2.624
 2927TIP3    H2 8723   5.648   3.813   2.484
 2928TIP3   OH2 8724   0.554   7.309   2.077
 2928TIP3    H1 8725   0.626   7.282   2.019
 2928TIP3    H2 8726   0.584   7.284   2.165
 2929TIP3   OH2 8727   1.797   2.604   6.460
 2929TIP3    H1 8728   1.826   2.513   6.460
 2929TIP3    H2 8729   1.837   2.641   6.382
 2930TIP3   OH2 8730   5.368   3.117   1.994
 2930TIP3    H1 8731   5.341   3.159   2.076
 2930TIP3    H2 8732   5.286   3.091   1.952
 2931TIP3   OH2 8733   3.261   2.444   3.863
 2931TIP3    H1 8734   3.274   2.479   3.775
 2931TIP3    H2 8735   3.342   2.399   3.884
 2932TIP3   OH2 8736   6.017   4.393   0.299
 2932TIP3    H1 8737   6.088   4.400   0.363
 2932TIP3    H2 8738   5.951   4.455   0.331
 2933TIP3   OH2 8739   0.458   1.640   5.868
 2933TIP3    H1 8740   0.398   1.566   5.883
 2933TIP3    H2 8741   0.545   1.604   5.883
 2934TIP3   OH2 8742   1.571   5.213   5.216
 2934TIP3    H1 8743   1.612   5.277   5.274
 2934TIP3    H2 8744   1.629   5.209   5.140
 2935TIP3   OH2 8745   1.981   2.497   6.698
 2935TIP3    H1 8746   1.995   2.408   6.666
 2935TIP3    H2 8747   2.034   2.502   6.778
 2936TIP3   OH2 8748   2.028   0.659   1.471
 2936TIP3    H1 8749   2.069   0.712   1.539
 2936TIP3    H2 8750   2.076   0.682   1.391
 2937TIP3   OH2 8751   7.413   1.209   3.934
 2937TIP3    H1 8752   7.383   1.298   3.916
 2937TIP3    H2 8753   7.335   1.162   3.962
 2938TIP3   OH2 8754   8.068   3.050   6.275
 2938TIP3    H1 8755   7.978   3.025   6.256
 2938TIP3    H2 8756   8.066   3.080   6.365
 2939TIP3   OH2 8757   2.518   5.640   3.117
 2939TIP3    H1 8758   2.483   5.718   3.160
 2939TIP3    H2 8759   2.449   5.611   3.058
 2940TIP3   OH2 8760   5.065   0.365   3.425
 2940TIP3    H1 8761   5.000   0.411   3.372
 2940TIP3    H2 8762   5.112   0.309   3.362
 2941TIP3   OH2 8763   1.828   6.800   6.719
 2941TIP3    H1 8764   1.896   6.867   6.708
 2941TIP3    H2 8765   1.830   6.780   6.813
 2942TIP3   OH2 8766   0.480   1.765   0.839
 2942TIP3    H1 8767   0.514   1.699   0.779
 2942TIP3    H2 8768   0.558   1.800   0.883
 2943TIP3   OH2 8769   0.706   3.958   0.901
 2943TIP3    H1 8770   0.761   4.008   0.840
 2943TIP3    H2 8771   0.737   3.984   0.988
 2944TIP3   OH2 8772   6.309   4.612   4.993
 2944TIP3    H1 8773   6.214   4.621   5.004
 2944TIP3    H2 8774   6.347   4.668   5.061
 2945TIP3   OH2 8775   1.677   4.632   4.428
 2945TIP3    H1 8776   1.670   4.699   4.360
 2945TIP3    H2 8777   1.710   4.555   4.383
 2946TIP3   OH2 8778   3.716   4.332   4.557
 2946TIP3    H1 8779   3.715   4.317   4.652
 2946TIP3    H2 8780   3.734   4.245   4.520
 2947TIP3   OH2 8781   1.015   1.939   1.060
 2947TIP3    H1 8782   0.996   1.885   0.983
 2947TIP3    H2 8783   1.056   1.879   1.122
 2948TIP3   OH2 8784   1.041   7.351   1.939
 2948TIP3    H1 8785   1.059   7.431   1.990
 2948TIP3    H2 8786   1.125   7.307   1.933
 2949TIP3   OH2 8787   4.466   1.023   1.955
 2949TIP3    H1 8788   4.403   0.971   2.005
 2949TIP3    H2 8789   4.454   0.993   1.865
 2950TIP3   OH2 8790   2.102   2.908   0.624
 2950TIP3    H1 8791   2.041   2.912   0.551
 2950TIP3    H2 8792   2.184   2.878   0.585
 2951TIP3   OH2 8793   6.415   6.907   1.022
 2951TIP3    H1 8794   6.426   6.895   1.116
 2951TIP3    H2 8795   6.328   6.871   1.003
 2952TIP3   OH2 8796   0.761   6.010   4.630
 2952TIP3    H1 8797   0.723   6.070   4.694
 2952TIP3    H2 8798   0.693   5.943   4.617
 2953TIP3   OH2 8799   4.516   6.911   4.303
 2953TIP3    H1 8800   4.603   6.872   4.294
 2953TIP3    H2 8801   4.521   6.994   4.256
 2954TIP3   OH2 8802   6.098   1.511   4.542
 2954TIP3    H1 8803   6.089   1.480   4.632
 2954TIP3    H2 8804   6.121   1.433   4.492
 2955TIP3   OH2 8805   2.868   5.896   2.213
 2955TIP3    H1 8806   2.795   5.889   2.274
 2955TIP3    H2 8807   2.829   5.924   2.130
 2956TIP3   OH2 8808   3.982   0.192   2.122
 2956TIP3    H1 8809   4.023   0.170   2.206
 2956TIP3    H2 8810   4.039   0.258   2.084
 2957TIP3   OH2 8811   7.989   5.804   2.409
 2957TIP3    H1 8812   7.896   5.816   2.430
 2957TIP3    H2 8813   7.988   5.756   2.326
 2958TIP3   OH2 8814   5.194   0.788   6.116
 2958TIP3    H1 8815   5.171   0.724   6.184
 2958TIP3    H2 8816   5.290   0.789   6.116
 2959TIP3   OH2 8817   6.733   0.205   0.614
 2959TIP3    H1 8818   6.790   0.183   0.688
 2959TIP3    H2 8819   6.645   0.201   0.650
 2960TIP3   OH2 8820   2.105   0.600   4.013
 2960TIP3    H1 8821   2.104   0.513   4.052
 2960TIP3    H2 8822   2.025   0.641   4.046
 2961TIP3   OH2 8823   2.346   6.123   5.594
 2961TIP3    H1 8824   2.261   6.124   5.638
 2961TIP3    H2 8825   2.329   6.080   5.510
 2962TIP3   OH2 8826   6.203   1.103   5.188
 2962TIP3    H1 8827   6.280   1.065   5.228
 2962TIP3    H2 8828   6.136   1.034   5.192
 2963TIP3   OH2 8829   5.839   5.756   4.588
 2963TIP3    H1 8830   5.787   5.686   4.548
 2963TIP3    H2 8831   5.914   5.710   4.627
 2964TIP3   OH2 8832   1.886   7.010   6.154
 2964TIP3    H1 8833   1.826   7.058   6.211
 2964TIP3    H2 8834   1.934   7.077   6.106
 2965TIP3   OH2 8835   7.122   0.348   6.660
 2965TIP3    H1 8836   7.133   0.254   6.647
 2965TIP3    H2 8837   7.123   0.359   6.755
 2966TIP3   OH2 8838   1.370   1.073   6.017
 2966TIP3    H1 8839   1.439   1.131   6.048
 2966TIP3    H2 8840   1.327   1.122   5.947
 2967TIP3   OH2 8841   3.855   2.330   2.988
 2967TIP3    H1 8842   3.919   2.362   3.051
 2967TIP3    H2 8843   3.901   2.259   2.942
 2968TIP3   OH2 8844   2.919   6.879   4.068
 2968TIP3    H1 8845   2.903   6.886   4.162
 2968TIP3    H2 8846   2.987   6.945   4.050
 2969TIP3   OH2 8847   5.337   0.690   1.394
 2969TIP3    H1 8848   5.425   0.657   1.408
 2969TIP3    H2 8849   5.303   0.707   1.482
 2970TIP3   OH2 8850   6.605   7.820   3.211
 2970TIP3    H1 8851   6.619   7.741   3.158
 2970TIP3    H2 8852   6.673   7.816   3.278
 2971TIP3   OH2 8853   4.886   7.211   3.601
 2971TIP3    H1 8854   4.839   7.295   3.599
 2971TIP3    H2 8855   4.947   7.220   3.674
 2972TIP3   OH2 8856   5.369   1.216   3.739
 2972TIP3    H1 8857   5.356   1.124   3.760
 2972TIP3    H2 8858   5.459   1.235   3.767
 2973TIP3   OH2 8859   6.053   2.200   6.520
 2973TIP3    H1 8860   6.020   2.198   6.610
 2973TIP3    H2 8861   6.063   2.294   6.500
 2974TIP3   OH2 8862   7.695   3.294   2.166
 2974TIP3    H1 8863   7.719   3.357   2.234
 2974TIP3    H2 8864   7.601   3.306   2.154
 2975TIP3   OH2 8865   7.782   6.827   2.387
 2975TIP3    H1 8866   7.736   6.768   2.326
 2975TIP3    H2 8867   7.713   6.860   2.444
 2976TIP3   OH2 8868   6.279   4.625   3.922
 2976TIP3    H1 8869   6.302   4.573   3.845
 2976TIP3    H2 8870   6.297   4.567   3.996
 2977TIP3   OH2 8871   6.488   1.366   5.532
 2977TIP3    H1 8872   6.546   1.394   5.602
 2977TIP3    H2 8873   6.530   1.395   5.452
 2978TIP3   OH2 8874   5.295   6.162   5.367
 2978TIP3    H1 8875   5.259   6.084   5.325
 2978TIP3    H2 8876   5.235   6.232   5.341
 2979TIP3   OH2 8877   7.267   0.977   1.018
 2979TIP3    H1 8878   7.333   1.035   0.981
 2979TIP3    H2 8879   7.209   0.956   0.946
 2980TIP3   OH2 8880   3.142   4.686   1.378
 2980TIP3    H1 8881   3.113   4.645   1.297
 2980TIP3    H2 8882   3.132   4.780   1.363
 2981TIP3   OH2 8883   3.135   3.897   4.496
 2981TIP3    H1 8884   3.148   3.816   4.445
 2981TIP3    H2 8885   3.184   3.963   4.448
 2982TIP3   OH2 8886   7.608   1.288   4.863
 2982TIP3    H1 8887   7.696   1.252   4.868
 2982TIP3    H2 8888   7.551   1.217   4.895
 2983TIP3   OH2 8889   2.158   4.837   2.309
 2983TIP3    H1 8890   2.202   4.921   2.292
 2983TIP3    H2 8891   2.229   4.775   2.321
 2984TIP3   OH2 8892   7.277   7.794   2.747
 2984TIP3    H1 8893   7.332   7.716   2.740
 2984TIP3    H2 8894   7.336   7.863   2.776
 2985TIP3   OH2 8895   7.920   7.552   3.308
 2985TIP3    H1 8896   7.934   7.524   3.399
 2985TIP3    H2 8897   7.999   7.525   3.261
 2986TIP3   OH2 8898   5.415   2.440   4.232
 2986TIP3    H1 8899   5.412   2.351   4.266
 2986TIP3    H2 8900   5.508   2.460   4.226
 2987TIP3   OH2 8901   5.296   6.320   4.636
 2987TIP3    H1 8902   5.367   6.279   4.587
 2987TIP3    H2 8903   5.242   6.361   4.569
 2988TIP3   OH2 8904   4.068   4.363   3.523
 2988TIP3    H1 8905   4.078   4.323   3.437
 2988TIP3    H2 8906   3.980   4.402   3.521
 2989TIP3   OH2 8907   4.022   0.484   0.051
 2989TIP3    H1 8908   4.030   0.578   0.064
 2989TIP3    H2 8909   4.098   0.446   0.095
 2990TIP3   OH2 8910   5.992   3.465   0.862
 2990TIP3    H1 8911   6.061   3.401   0.841
 2990TIP3    H2 8912   5.911   3.418   0.844
 2991TIP3   OH2 8913   6.152   5.830   4.984
 2991TIP3    H1 8914   6.217   5.763   5.005
 2991TIP3    H2 8915   6.190   5.912   5.017
 2992TIP3   OH2 8916   8.382   5.327   4.979
 2992TIP3    H1 8917   8.444   5.338   4.907
 2992TIP3    H2 8918   8.301   5.366   4.947
 2993TIP3   OH2 8919   4.231   3.634   4.592
 2993TIP3    H1 8920   4.308   3.685   4.570
 2993TIP3    H2 8921   4.201   3.597   4.509
 2994TIP3   OH2 8922   3.693   3.289   5.539
 2994TIP3    H1 8923   3.762   3.346   5.506
 2994TIP3    H2 8924   3.617   3.308   5.483
 2995TIP3   OH2 8925   3.991   4.364   6.202
 2995TIP3    H1 8926   4.003   4.292   6.140
 2995TIP3    H2 8927   3.934   4.327   6.270
 2996TIP3   OH2 8928   7.684   0.369   6.546
 2996TIP3    H1 8929   7.711   0.325   6.466
 2996TIP3    H2 8930   7.739   0.329   6.615
 2997TIP3   OH2 8931   2.093   7.277   4.058
 2997TIP3    H1 8932   2.035   7.256   4.131
 2997TIP3    H2 8933   2.109   7.371   4.065
 2998TIP3   OH2 8934   8.170   4.174   3.294
 2998TIP3    H1 8935   8.173   4.097   3.236
 2998TIP3    H2 8936   8.140   4.245   3.237
 2999TIP3   OH2 8937   2.680   7.844   1.034
 2999TIP3    H1 8938   2.650   7.934   1.049
 2999TIP3    H2 8939   2.647   7.821   0.947
 3000TIP3   OH2 8940   4.905   3.419   4.645
 3000TIP3    H1 8941   4.844   3.426   4.718
 3000TIP3    H2 8942   4.957   3.341   4.663
 3001TIP3   OH2 8943   5.624   6.876   6.406
 3001TIP3    H1 8944   5.626   6.780   6.402
 3001TIP3    H2 8945   5.715   6.900   6.422
 3002TIP3   OH2 8946   1.090   5.586   5.066
 3002TIP3    H1 8947   1.108   5.497   5.097
 3002TIP3    H2 8948   1.068   5.575   4.974
 3003TIP3   OH2 8949   0.432   3.958   0.874
 3003TIP3    H1 8950   0.402   3.879   0.918
 3003TIP3    H2 8951   0.527   3.948   0.868
 3004TIP3   OH2 8952   2.974   7.485   4.692
 3004TIP3    H1 8953   2.953   7.546   4.621
 3004TIP3    H2 8954   3.057   7.444   4.666
 3005TIP3   OH2 8955   3.316   2.348   4.996
 3005TIP3    H1 8956   3.229   2.360   5.034
 3005TIP3    H2 8957   3.329   2.425   4.941
 3006TIP3   OH2 8958   2.027   6.967   1.321
 3006TIP3    H1 8959   2.036   6.890   1.265
 3006TIP3    H2 8960   2.115   7.005   1.324
 3007TIP3   OH2 8961   0.937   7.490   4.136
 3007TIP3    H1 8962   0.960   7.580   4.115
 3007TIP3    H2 8963   0.861   7.497   4.194
 3008TIP3   OH2 8964   3.608   1.822   6.254
 3008TIP3    H1 8965   3.596   1.912   6.223
 3008TIP3    H2 8966   3.536   1.809   6.316
 3009TIP3   OH2 8967   6.585   3.304   6.018
 3009TIP3    H1 8968   6.494   3.275   6.010
 3009TIP3    H2 8969   6.597   3.362   5.943
 3010TIP3   OH2 8970   0.170   1.127   5.566
 3010TIP3    H1 8971   0.197   1.138   5.475
 3010TIP3    H2 8972   0.139   1.214   5.593
 3011TIP3   OH2 8973   7.777   3.111   0.191
 3011TIP3    H1 8974   7.826   3.126   0.273
 3011TIP3    H2 8975   7.808   3.180   0.132
 3012TIP3   OH2 8976   0.608   6.879   5.356
 3012TIP3    H1 8977   0.696   6.846   5.375
 3012TIP3    H2 8978   0.622   6.945   5.288
 3013TIP3   OH2 8979   5.901   2.185   6.754
 3013TIP3    H1 8980   5.824   2.242   6.751
 3013TIP3    H2 8981   5.870   2.102   6.717
 3014TIP3   OH2 8982   3.630   0.779   0.264
 3014TIP3    H1 8983   3.657   0.839   0.334
 3014TIP3    H2 8984   3.568   0.829   0.211
 3015TIP3   OH2 8985   5.634   7.043   1.215
 3015TIP3    H1 8986   5.576   7.081   1.149
 3015TIP3    H2 8987   5.716   7.026   1.169
 3016TIP3   OH2 8988   7.293   4.325   1.224
 3016TIP3    H1 8989   7.383   4.352   1.210
 3016TIP3    H2 8990   7.299   4.242   1.271
 3017TIP3   OH2 8991   5.999   3.173   6.714
 3017TIP3    H1 8992   6.025   3.218   6.795
 3017TIP3    H2 8993   5.930   3.113   6.742
 3018TIP3   OH2 8994   6.375   1.572   4.783
 3018TIP3    H1 8995   6.289   1.532   4.780
 3018TIP3    H2 8996   6.412   1.545   4.867
 3019TIP3   OH2 8997   3.017   0.317   3.645
 3019TIP3    H1 8998   3.013   0.261   3.723
 3019TIP3    H2 8999   3.073   0.270   3.584
 3020TIP3   OH2 9000   4.772   3.420   3.851
 3020TIP3    H1 9001   4.851   3.417   3.904
 3020TIP3    H2 9002   4.757   3.328   3.826
 3021TIP3   OH2 9003   1.047   3.575   1.771
 3021TIP3    H1 9004   1.030   3.630   1.848
 3021TIP3    H2 9005   1.128   3.528   1.794
 3022TIP3   OH2 9006   5.686   7.346   5.768
 3022TIP3    H1 9007   5.688   7.441   5.777
 3022TIP3    H2 9008   5.650   7.314   5.850
 3023TIP3   OH2 9009   3.711   1.716   5.128
 3023TIP3    H1 9010   3.628   1.756   5.153
 3023TIP3    H2 9011   3.720   1.735   5.035
 3024TIP3   OH2 9012   0.035   7.232   1.954
 3024TIP3    H1 9013   0.092   7.308   1.965
 3024TIP3    H2 9014   0.059   7.174   2.026
 3025TIP3   OH2 9015   7.104   3.092   5.721
 3025TIP3    H1 9016   7.197   3.078   5.739
 3025TIP3    H2 9017   7.088   3.184   5.742
 3026TIP3   OH2 9018   4.612   6.593   2.029
 3026TIP3    H1 9019   4.628   6.630   1.942
 3026TIP3    H2 9020   4.517   6.596   2.039
 3027TIP3   OH2 9021   8.326   7.320   1.004
 3027TIP3    H1 9022   8.260   7.364   1.058
 3027TIP3    H2 9023   8.396   7.297   1.066
 3028TIP3   OH2 9024   4.216   6.468   6.033
 3028TIP3    H1 9025   4.130   6.456   5.991
 3028TIP3    H2 9026   4.247   6.380   6.049
 3029TIP3   OH2 9027   6.593   5.278   3.952
 3029TIP3    H1 9028   6.527   5.348   3.951
 3029TIP3    H2 9029   6.650   5.300   4.025
 3030TIP3   OH2 9030   1.511   6.848   6.212
 3030TIP3    H1 9031   1.575   6.837   6.282
 3030TIP3    H2 9032   1.451   6.915   6.245
 3031TIP3   OH2 9033   1.042   7.773   3.712
 3031TIP3    H1 9034   0.973   7.707   3.703
 3031TIP3    H2 9035   1.091   7.747   3.790
 3032TIP3   OH2 9036   5.274   6.152   1.110
 3032TIP3    H1 9037   5.236   6.184   1.191
 3032TIP3    H2 9038   5.364   6.183   1.112
 3033TIP3   OH2 9039   4.398   4.027   0.735
 3033TIP3    H1 9040   4.421   3.995   0.822
 3033TIP3    H2 9041   4.368   4.117   0.750
 3034TIP3   OH2 9042   4.591   6.943   5.009
 3034TIP3    H1 9043   4.566   7.034   5.025
 3034TIP3    H2 9044   4.517   6.892   5.040
 3035TIP3   OH2 9045   2.040   6.581   2.557
 3035TIP3    H1 9046   2.075   6.639   2.489
 3035TIP3    H2 9047   2.058   6.629   2.639
 3036TIP3   OH2 9048   4.922   4.568   6.405
 3036TIP3    H1 9049   4.981   4.501   6.373
 3036TIP3    H2 9050   4.867   4.590   6.329
 3037TIP3   OH2 9051   1.272   3.240   1.331
 3037TIP3    H1 9052   1.265   3.158   1.381
 3037TIP3    H2 9053   1.265   3.309   1.398
 3038TIP3   OH2 9054   1.155   7.893   3.223
 3038TIP3    H1 9055   1.243   7.923   3.202
 3038TIP3    H2 9056   1.168   7.828   3.293
 3039TIP3   OH2 9057   6.248   3.955   5.649
 3039TIP3    H1 9058   6.332   3.959   5.695
 3039TIP3    H2 9059   6.188   4.004   5.706
 3040TIP3   OH2 9060   0.535   3.794   6.283
 3040TIP3    H1 9061   0.613   3.786   6.337
 3040TIP3    H2 9062   0.525   3.707   6.244
 3041TIP3   OH2 9063   0.065   0.536   0.745
 3041TIP3    H1 9064  -0.016   0.503   0.705
 3041TIP3    H2 9065   0.065   0.499   0.833
 3042TIP3   OH2 9066   6.536   0.156   6.169
 3042TIP3    H1 9067   6.508   0.145   6.078
 3042TIP3    H2 9068   6.627   0.184   6.162
 3043TIP3   OH2 9069   6.556   7.578   2.648
 3043TIP3    H1 9070   6.519   7.509   2.593
 3043TIP3    H2 9071   6.632   7.609   2.599
 3044TIP3   OH2 9072   6.660   5.496   2.011
 3044TIP3    H1 9073   6.649   5.532   1.923
 3044TIP3    H2 9074   6.611   5.556   2.067
 3045TIP3   OH2 9075   2.922   7.235   0.432
 3045TIP3    H1 9076   2.976   7.292   0.486
 3045TIP3    H2 9077   2.985   7.176   0.389
 3046TIP3   OH2 9078   2.770   3.448   0.849
 3046TIP3    H1 9079   2.683   3.476   0.821
 3046TIP3    H2 9080   2.766   3.449   0.944
 3047TIP3   OH2 9081   7.353   0.255   2.638
 3047TIP3    H1 9082   7.292   0.182   2.629
 3047TIP3    H2 9083   7.420   0.223   2.699
 3048TIP3   OH2 9084   4.821   5.899   0.836
 3048TIP3    H1 9085   4.834   5.958   0.762
 3048TIP3    H2 9086   4.896   5.840   0.832
 3049TIP3   OH2 9087   7.403   3.091   1.258
 3049TIP3    H1 9088   7.443   3.052   1.181
 3049TIP3    H2 9089   7.432   3.183   1.256
 3050TIP3   OH2 9090   4.391   3.169   6.458
 3050TIP3    H1 9091   4.392   3.113   6.380
 3050TIP3    H2 9092   4.478   3.209   6.459
 3051TIP3   OH2 9093   8.087   7.749   2.452
 3051TIP3    H1 9094   8.056   7.799   2.528
 3051TIP3    H2 9095   8.070   7.806   2.377
 3052TIP3   OH2 9096   2.841   2.469   2.252
 3052TIP3    H1 9097   2.761   2.508   2.218
 3052TIP3    H2 9098   2.886   2.434   2.175
 3053TIP3   OH2 9099   2.681   2.148   5.960
 3053TIP3    H1 9100   2.600   2.109   5.993
 3053TIP3    H2 9101   2.653   2.205   5.888
 3054TIP3   OH2 9102   2.601   0.641   2.494
 3054TIP3    H1 9103   2.671   0.691   2.535
 3054TIP3    H2 9104   2.564   0.588   2.565
 3055TIP3   OH2 9105   0.842   6.786   5.470
 3055TIP3    H1 9106   0.803   6.773   5.556
 3055TIP3    H2 9107   0.911   6.720   5.465
 3056TIP3   OH2 9108   3.998   2.704   5.082
 3056TIP3    H1 9109   4.024   2.794   5.098
 3056TIP3    H2 9110   3.956   2.706   4.995
 3057TIP3   OH2 9111   4.593   3.103   0.198
 3057TIP3    H1 9112   4.668   3.156   0.170
 3057TIP3    H2 9113   4.607   3.089   0.291
 3058TIP3   OH2 9114   4.749   3.998   1.171
 3058TIP3    H1 9115   4.837   4.006   1.207
 3058TIP3    H2 9116   4.746   4.063   1.101
 3059TIP3   OH2 9117   1.895   3.034   1.344
 3059TIP3    H1 9118   1.986   3.040   1.315
 3059TIP3    H2 9119   1.878   2.940   1.350
 3060TIP3   OH2 9120   6.713   1.610   1.214
 3060TIP3    H1 9121   6.794   1.661   1.222
 3060TIP3    H2 9122   6.731   1.546   1.146
 3061TIP3   OH2 9123   6.986   0.517   4.463
 3061TIP3    H1 9124   7.017   0.548   4.547
 3061TIP3    H2 9125   7.062   0.475   4.422
 3062TIP3   OH2 9126   1.728   4.833   4.226
 3062TIP3    H1 9127   1.795   4.772   4.197
 3062TIP3    H2 9128   1.709   4.887   4.150
 3063TIP3   OH2 9129   6.310   0.304   0.606
 3063TIP3    H1 9130   6.387   0.313   0.550
 3063TIP3    H2 9131   6.287   0.211   0.600
 3064TIP3   OH2 9132   5.605   2.402   5.243
 3064TIP3    H1 9133   5.587   2.433   5.153
 3064TIP3    H2 9134   5.689   2.358   5.236
 3065TIP3   OH2 9135   8.188   0.334   1.077
 3065TIP3    H1 9136   8.229   0.262   1.030
 3065TIP3    H2 9137   8.177   0.403   1.011
 3066TIP3   OH2 9138   3.827   7.337   5.179
 3066TIP3    H1 9139   3.854   7.375   5.262
 3066TIP3    H2 9140   3.808   7.412   5.123
 3067TIP3   OH2 9141   6.885   2.937   1.305
 3067TIP3    H1 9142   6.976   2.959   1.285
 3067TIP3    H2 9143   6.844   3.021   1.325
 3068TIP3   OH2 9144   7.101   1.804   0.314
 3068TIP3    H1 9145   7.078   1.776   0.225
 3068TIP3    H2 9146   7.019   1.794   0.363
 3069TIP3   OH2 9147   1.071   3.472   6.138
 3069TIP3    H1 9148   1.126   3.548   6.158
 3069TIP3    H2 9149   1.106   3.439   6.055
 3070TIP3   OH2 9150   1.480   5.877   0.671
 3070TIP3    H1 9151   1.456   5.853   0.761
 3070TIP3    H2 9152   1.574   5.892   0.674
 3071TIP3   OH2 9153   1.136   0.710   5.394
 3071TIP3    H1 9154   1.052   0.732   5.435
 3071TIP3    H2 9155   1.184   0.794   5.391
 3072TIP3   OH2 9156   4.808   0.260   0.942
 3072TIP3    H1 9157   4.875   0.272   1.009
 3072TIP3    H2 9158   4.742   0.327   0.962
 3073TIP3   OH2 9159   6.936   6.831   5.867
 3073TIP3    H1 9160   6.959   6.906   5.922
 3073TIP3    H2 9161   6.884   6.869   5.796
 3074TIP3   OH2 9162   5.689   4.272   1.178
 3074TIP3    H1 9163   5.715   4.360   1.152
 3074TIP3    H2 9164   5.711   4.217   1.104
 3075TIP3   OH2 9165   6.444   6.692   0.207
 3075TIP3    H1 9166   6.389   6.693   0.286
 3075TIP3    H2 9167   6.527   6.655   0.237
 3076TIP3   OH2 9168   2.011   1.871   1.897
 3076TIP3    H1 9169   1.949   1.888   1.826
 3076TIP3    H2 9170   2.094   1.907   1.865
 3077TIP3   OH2 9171   5.383   5.555   1.358
 3077TIP3    H1 9172   5.409   5.613   1.430
 3077TIP3    H2 9173   5.289   5.571   1.347
 3078TIP3   OH2 9174   7.716   4.036   4.595
 3078TIP3    H1 9175   7.802   4.026   4.554
 3078TIP3    H2 9176   7.725   4.115   4.648
 3079TIP3   OH2 9177   0.073   2.515   6.731
 3079TIP3    H1 9178  -0.012   2.513   6.686
 3079TIP3    H2 9179   0.051   2.534   6.822
 3080TIP3   OH2 9180   4.251   3.390   2.111
 3080TIP3    H1 9181   4.243   3.403   2.206
 3080TIP3    H2 9182   4.343   3.368   2.098
 3081TIP3   OH2 9183   1.395   6.395   2.692
 3081TIP3    H1 9184   1.313   6.346   2.681
 3081TIP3    H2 9185   1.401   6.411   2.786
 3082TIP3   OH2 9186   2.485   2.639   4.370
 3082TIP3    H1 9187   2.453   2.596   4.449
 3082TIP3    H2 9188   2.580   2.629   4.375
 3083TIP3   OH2 9189   5.216   5.677   2.144
 3083TIP3    H1 9190   5.284   5.679   2.211
 3083TIP3    H2 9191   5.157   5.607   2.171
 3084TIP3   OH2 9192   4.708   3.072   3.004
 3084TIP3    H1 9193   4.781   3.080   2.944
 3084TIP3    H2 9194   4.743   3.101   3.089
 3085TIP3   OH2 9195   4.120   4.958   5.614
 3085TIP3    H1 9196   4.041   4.929   5.660
 3085TIP3    H2 9197   4.189   4.952   5.679
 3086TIP3   OH2 9198   2.657   2.561   3.371
 3086TIP3    H1 9199   2.580   2.539   3.320
 3086TIP3    H2 9200   2.717   2.487   3.358
 3087TIP3   OH2 9201   1.393   5.748   6.394
 3087TIP3    H1 9202   1.340   5.674   6.424
 3087TIP3    H2 9203   1.360   5.823   6.444
 3088TIP3   OH2 9204   3.901   3.698   0.216
 3088TIP3    H1 9205   3.893   3.763   0.285
 3088TIP3    H2 9206   3.854   3.735   0.142
 3089TIP3   OH2 9207   3.107   5.197   3.088
 3089TIP3    H1 9208   3.094   5.249   3.167
 3089TIP3    H2 9209   3.095   5.260   3.016
 3090TIP3   OH2 9210   1.704   3.280   6.430
 3090TIP3    H1 9211   1.630   3.308   6.484
 3090TIP3    H2 9212   1.775   3.339   6.454
 3091TIP3   OH2 9213   5.742   0.059   6.289
 3091TIP3    H1 9214   5.762   0.114   6.213
 3091TIP3    H2 9215   5.706  -0.021   6.252
 3092TIP3   OH2 9216   0.445   7.244   1.839
 3092TIP3    H1 9217   0.464   7.276   1.927
 3092TIP3    H2 9218   0.520   7.188   1.818
 3093TIP3   OH2 9219   0.391   0.828   3.078
 3093TIP3    H1 9220   0.324   0.827   3.146
 3093TIP3    H2 9221   0.412   0.921   3.067
 3094TIP3   OH2 9222   4.967   4.844   3.425
 3094TIP3    H1 9223   4.891   4.901   3.413
 3094TIP3    H2 9224   4.953   4.803   3.510
 3095TIP3   OH2 9225   2.944   0.247   3.367
 3095TIP3    H1 9226   2.849   0.248   3.350
 3095TIP3    H2 9227   2.983   0.233   3.281
 3096TIP3   OH2 9228   1.030   2.784   4.532
 3096TIP3    H1 9229   0.947   2.794   4.578
 3096TIP3    H2 9230   1.079   2.863   4.554
 3097TIP3   OH2 9231   5.183   6.223   5.053
 3097TIP3    H1 9232   5.191   6.251   5.145
 3097TIP3    H2 9233   5.264   6.175   5.036
 3098TIP3   OH2 9234   3.406   4.796   4.819
 3098TIP3    H1 9235   3.441   4.828   4.902
 3098TIP3    H2 9236   3.351   4.721   4.843
 3099TIP3   OH2 9237   4.462   2.614   6.200
 3099TIP3    H1 9238   4.526   2.674   6.238
 3099TIP3    H2 9239   4.458   2.541   6.262
 3100TIP3   OH2 9240   3.705   3.059   5.147
 3100TIP3    H1 9241   3.795   3.035   5.126
 3100TIP3    H2 9242   3.657   3.045   5.065
 3101TIP3   OH2 9243   1.162   7.647   1.962
 3101TIP3    H1 9244   1.217   7.657   1.885
 3101TIP3    H2 9245   1.221   7.663   2.036
 3102TIP3   OH2 9246   3.445   2.265   5.232
 3102TIP3    H1 9247   3.399   2.327   5.175
 3102TIP3    H2 9248   3.375   2.216   5.275
 3103TIP3   OH2 9249   5.010   2.150   0.118
 3103TIP3    H1 9250   5.029   2.070   0.166
 3103TIP3    H2 9251   4.954   2.122   0.046
 3104TIP3   OH2 9252   5.384   2.348   2.353
 3104TIP3    H1 9253   5.416   2.392   2.274
 3104TIP3    H2 9254   5.379   2.256   2.328
 3105TIP3   OH2 9255   1.696   7.337   6.031
 3105TIP3    H1 9256   1.787   7.329   6.058
 3105TIP3    H2 9257   1.675   7.253   5.990
 3106TIP3   OH2 9258   7.066   7.724   4.927
 3106TIP3    H1 9259   7.057   7.819   4.933
 3106TIP3    H2 9260   6.978   7.690   4.945
 3107TIP3   OH2 9261   7.606   5.410   5.107
 3107TIP3    H1 9262   7.528   5.365   5.075
 3107TIP3    H2 9263   7.665   5.340   5.133
 3108TIP3   OH2 9264   1.849   6.519   0.691
 3108TIP3    H1 9265   1.781   6.530   0.624
 3108TIP3    H2 9266   1.931   6.524   0.643
 3109TIP3   OH2 9267   4.186   0.345   2.052
 3109TIP3    H1 9268   4.193   0.439   2.036
 3109TIP3    H2 9269   4.275   0.319   2.077
 3110TIP3   OH2 9270   3.089   0.891   5.043
 3110TIP3    H1 9271   3.145   0.837   5.098
 3110TIP3    H2 9272   3.151   0.938   4.986
 3111TIP3   OH2 9273   1.586   2.464   2.703
 3111TIP3    H1 9274   1.651   2.417   2.651
 3111TIP3    H2 9275   1.506   2.413   2.692
 3112TIP3   OH2 9276   8.005   3.857   6.141
 3112TIP3    H1 9277   7.963   3.773   6.157
 3112TIP3    H2 9278   8.089   3.834   6.101
 3113TIP3   OH2 9279   1.323   2.089   3.528
 3113TIP3    H1 9280   1.356   2.042   3.605
 3113TIP3    H2 9281   1.262   2.027   3.487
 3114TIP3   OH2 9282   6.358   1.478   4.216
 3114TIP3    H1 9283   6.352   1.484   4.312
 3114TIP3    H2 9284   6.328   1.389   4.196
 3115TIP3   OH2 9285   8.021   6.826   2.248
 3115TIP3    H1 9286   8.051   6.901   2.300
 3115TIP3    H2 9287   7.936   6.803   2.287
 3116TIP3   OH2 9288   0.884   7.163   0.717
 3116TIP3    H1 9289   0.959   7.202   0.671
 3116TIP3    H2 9290   0.825   7.236   0.734
 3117TIP3   OH2 9291   3.546   0.044   0.645
 3117TIP3    H1 9292   3.527  -0.050   0.641
 3117TIP3    H2 9293   3.537   0.075   0.555
 3118TIP3   OH2 9294   0.715   0.999   0.668
 3118TIP3    H1 9295   0.648   0.950   0.717
 3118TIP3    H2 9296   0.670   1.030   0.590
 3119TIP3   OH2 9297   4.110   3.185   2.406
 3119TIP3    H1 9298   4.058   3.242   2.463
 3119TIP3    H2 9299   4.069   3.196   2.320
 3120TIP3   OH2 9300   6.211   0.346   4.370
 3120TIP3    H1 9301   6.117   0.325   4.362
 3120TIP3    H2 9302   6.231   0.332   4.463
 3121TIP3   OH2 9303   3.332   7.215   3.920
 3121TIP3    H1 9304   3.298   7.135   3.961
 3121TIP3    H2 9305   3.292   7.214   3.832
 3122TIP3   OH2 9306   5.892   5.096   0.963
 3122TIP3    H1 9307   5.797   5.092   0.953
 3122TIP3    H2 9308   5.910   5.186   0.988
 3123TIP3   OH2 9309   1.551   0.093   2.324
 3123TIP3    H1 9310   1.520   0.056   2.406
 3123TIP3    H2 9311   1.539   0.188   2.334
 3124TIP3   OH2 9312   6.775   1.630   5.561
 3124TIP3    H1 9313   6.853   1.668   5.602
 3124TIP3    H2 9314   6.743   1.565   5.624
 3125TIP3   OH2 9315   2.456   2.013   6.031
 3125TIP3    H1 9316   2.369   2.010   6.070
 3125TIP3    H2 9317   2.502   1.937   6.067
 3126TIP3   OH2 9318   1.613   7.281   2.595
 3126TIP3    H1 9319   1.562   7.200   2.589
 3126TIP3    H2 9320   1.552   7.349   2.567
 3127TIP3   OH2 9321   1.433   6.702   5.976
 3127TIP3    H1 9322   1.519   6.741   5.960
 3127TIP3    H2 9323   1.401   6.747   6.054
 3128TIP3   OH2 9324   0.039   2.596   2.455
 3128TIP3    H1 9325   0.107   2.648   2.499
 3128TIP3    H2 9326   0.020   2.526   2.517
 3129TIP3   OH2 9327   2.821   5.555   4.060
 3129TIP3    H1 9328   2.725   5.554   4.071
 3129TIP3    H2 9329   2.834   5.539   3.967
 3130TIP3   OH2 9330   3.167   5.166   4.550
 3130TIP3    H1 9331   3.213   5.105   4.607
 3130TIP3    H2 9332   3.186   5.252   4.587
 3131TIP3   OH2 9333   3.993   4.451   4.529
 3131TIP3    H1 9334   4.047   4.372   4.521
 3131TIP3    H2 9335   3.905   4.422   4.503
 3132TIP3   OH2 9336   8.137   3.203   5.131
 3132TIP3    H1 9337   8.169   3.243   5.051
 3132TIP3    H2 9338   8.215   3.164   5.172
 3133TIP3   OH2 9339   6.583   2.675   0.392
 3133TIP3    H1 9340   6.505   2.623   0.412
 3133TIP3    H2 9341   6.597   2.728   0.470
 3134TIP3   OH2 9342   0.823   5.414   3.065
 3134TIP3    H1 9343   0.912   5.389   3.041
 3134TIP3    H2 9344   0.830   5.441   3.157
 3135TIP3   OH2 9345   3.929   3.433   5.453
 3135TIP3    H1 9346   3.998   3.383   5.497
 3135TIP3    H2 9347   3.915   3.385   5.370
 3136TIP3   OH2 9348   2.027   3.051   2.072
 3136TIP3    H1 9349   2.055   3.098   2.150
 3136TIP3    H2 9350   1.940   3.018   2.093
 3137TIP3   OH2 9351   7.662   0.608   5.640
 3137TIP3    H1 9352   7.572   0.638   5.638
 3137TIP3    H2 9353   7.695   0.626   5.552
 3138TIP3   OH2 9354   0.947   7.261   5.228
 3138TIP3    H1 9355   0.987   7.177   5.252
 3138TIP3    H2 9356   0.954   7.315   5.307
 3139TIP3   OH2 9357   7.628   2.909   1.482
 3139TIP3    H1 9358   7.574   2.972   1.530
 3139TIP3    H2 9359   7.718   2.933   1.503
 3140TIP3   OH2 9360   7.312   0.935   2.768
 3140TIP3    H1 9361   7.241   0.937   2.704
 3140TIP3    H2 9362   7.359   1.017   2.756
 3141TIP3   OH2 9363   0.627   0.981   0.412
 3141TIP3    H1 9364   0.679   0.919   0.361
 3141TIP3    H2 9365   0.537   0.967   0.382
 3142TIP3   OH2 9366   0.815   6.989   4.063
 3142TIP3    H1 9367   0.768   6.980   4.146
 3142TIP3    H2 9368   0.749   7.024   4.002
 3143TIP3   OH2 9369   4.777   2.224   3.764
 3143TIP3    H1 9370   4.859   2.265   3.792
 3143TIP3    H2 9371   4.798   2.131   3.759
 3144TIP3   OH2 9372   2.916   5.900   5.197
 3144TIP3    H1 9373   2.845   5.948   5.241
 3144TIP3    H2 9374   2.897   5.911   5.104
 3145TIP3   OH2 9375   5.592   3.277   5.941
 3145TIP3    H1 9376   5.582   3.373   5.940
 3145TIP3    H2 9377   5.534   3.247   5.871
 3146TIP3   OH2 9378   1.034   1.147   1.487
 3146TIP3    H1 9379   0.958   1.189   1.527
 3146TIP3    H2 9380   1.000   1.067   1.448
 3147TIP3   OH2 9381   2.445   6.094   0.227
 3147TIP3    H1 9382   2.526   6.044   0.217
 3147TIP3    H2 9383   2.383   6.030   0.263
 3148TIP3   OH2 9384   1.467   7.741   1.619
 3148TIP3    H1 9385   1.543   7.794   1.643
 3148TIP3    H2 9386   1.467   7.670   1.683
 3149TIP3   OH2 9387   5.962   3.011   2.310
 3149TIP3    H1 9388   5.916   3.087   2.276
 3149TIP3    H2 9389   5.987   2.961   2.232
 3150TIP3   OH2 9390   1.363   0.311   5.179
 3150TIP3    H1 9391   1.335   0.254   5.251
 3150TIP3    H2 9392   1.346   0.400   5.210
 3151TIP3   OH2 9393   7.579   4.717   2.038
 3151TIP3    H1 9394   7.527   4.749   1.965
 3151TIP3    H2 9395   7.543   4.631   2.058
 3152TIP3   OH2 9396   7.307   6.192   4.624
 3152TIP3    H1 9397   7.229   6.173   4.676
 3152TIP3    H2 9398   7.347   6.267   4.668
 3153TIP3   OH2 9399   0.280   5.821   5.126
 3153TIP3    H1 9400   0.245   5.769   5.053
 3153TIP3    H2 9401   0.375   5.810   5.118
 3154TIP3   OH2 9402   5.753   3.410   6.823
 3154TIP3    H1 9403   5.680   3.454   6.867
 3154TIP3    H2 9404   5.729   3.412   6.730
 3155TIP3   OH2 9405   7.072   0.999   5.721
 3155TIP3    H1 9406   7.062   0.966   5.631
 3155TIP3    H2 9407   7.005   1.067   5.729
 3156TIP3   OH2 9408   1.767   5.626   5.369
 3156TIP3    H1 9409   1.789   5.592   5.282
 3156TIP3    H2 9410   1.850   5.623   5.417
 3157TIP3   OH2 9411   3.615   0.764   6.081
 3157TIP3    H1 9412   3.641   0.762   5.988
 3157TIP3    H2 9413   3.697   0.749   6.128
 3158TIP3   OH2 9414   1.317   4.114   1.012
 3158TIP3    H1 9415   1.304   4.063   0.932
 3158TIP3    H2 9416   1.382   4.180   0.988
 3159TIP3   OH2 9417   6.276   0.128   0.887
 3159TIP3    H1 9418   6.257   0.131   0.981
 3159TIP3    H2 9419   6.193   0.149   0.845
 3160TIP3   OH2 9420   6.467   2.458   5.456
 3160TIP3    H1 9421   6.461   2.501   5.541
 3160TIP3    H2 9422   6.467   2.365   5.476
 3161TIP3   OH2 9423   6.432   6.880   5.443
 3161TIP3    H1 9424   6.500   6.819   5.469
 3161TIP3    H2 9425   6.478   6.953   5.402
 3162TIP3   OH2 9426   3.439   2.546   1.093
 3162TIP3    H1 9427   3.482   2.517   1.012
 3162TIP3    H2 9428   3.512   2.568   1.151
 3163TIP3   OH2 9429   4.037   5.716   3.807
 3163TIP3    H1 9430   3.995   5.786   3.756
 3163TIP3    H2 9431   4.051   5.646   3.744
 3164TIP3   OH2 9432   1.677   0.705   4.340
 3164TIP3    H1 9433   1.607   0.652   4.301
 3164TIP3    H2 9434   1.663   0.699   4.434
 3165TIP3   OH2 9435   5.182   3.371   4.546
 3165TIP3    H1 9436   5.261   3.385   4.493
 3165TIP3    H2 9437   5.176   3.449   4.601
 3166TIP3   OH2 9438   3.937   2.800   5.376
 3166TIP3    H1 9439   4.031   2.815   5.365
 3166TIP3    H2 9440   3.904   2.882   5.415
 3167TIP3   OH2 9441   0.655   1.975   2.104
 3167TIP3    H1 9442   0.568   1.997   2.071
 3167TIP3    H2 9443   0.698   1.930   2.032
 3168TIP3   OH2 9444   7.227   1.757   6.632
 3168TIP3    H1 9445   7.310   1.712   6.621
 3168TIP3    H2 9446   7.184   1.751   6.546
 3169TIP3   OH2 9447   6.672   2.008   3.409
 3169TIP3    H1 9448   6.744   2.004   3.347
 3169TIP3    H2 9449   6.712   1.986   3.494
 3170TIP3   OH2 9450   4.332   2.513   4.332
 3170TIP3    H1 9451   4.256   2.552   4.287
 3170TIP3    H2 9452   4.300   2.429   4.363
 3171TIP3   OH2 9453   1.096   7.351   1.271
 3171TIP3    H1 9454   1.154   7.309   1.334
 3171TIP3    H2 9455   1.061   7.427   1.318
 3172TIP3   OH2 9456   0.560   4.695   4.579
 3172TIP3    H1 9457   0.478   4.646   4.587
 3172TIP3    H2 9458   0.589   4.709   4.669
 3173TIP3   OH2 9459   7.411   7.354   4.573
 3173TIP3    H1 9460   7.485   7.308   4.612
 3173TIP3    H2 9461   7.385   7.419   4.639
 3174TIP3   OH2 9462   6.594   6.081   4.140
 3174TIP3    H1 9463   6.542   6.117   4.068
 3174TIP3    H2 9464   6.666   6.035   4.097
 3175TIP3   OH2 9465   6.067   3.501   3.511
 3175TIP3    H1 9466   6.115   3.551   3.576
 3175TIP3    H2 9467   5.975   3.513   3.534
 3176TIP3   OH2 9468   8.063   4.657   0.916
 3176TIP3    H1 9469   8.134   4.669   0.979
 3176TIP3    H2 9470   8.056   4.562   0.905
 3177TIP3   OH2 9471   0.443   3.266   6.140
 3177TIP3    H1 9472   0.447   3.207   6.215
 3177TIP3    H2 9473   0.414   3.210   6.067
 3178TIP3   OH2 9474   5.158   2.915   4.730
 3178TIP3    H1 9475   5.160   2.868   4.647
 3178TIP3    H2 9476   5.250   2.931   4.751
 3179TIP3   OH2 9477   3.585   4.536   4.375
 3179TIP3    H1 9478   3.671   4.513   4.340
 3179TIP3    H2 9479   3.605   4.581   4.458
 3180TIP3   OH2 9480   2.531   2.436   4.857
 3180TIP3    H1 9481   2.578   2.383   4.921
 3180TIP3    H2 9482   2.484   2.501   4.910
 3181TIP3   OH2 9483   5.952   7.632   6.595
 3181TIP3    H1 9484   5.864   7.603   6.618
 3181TIP3    H2 9485   5.940   7.719   6.559
 3182TIP3   OH2 9486   5.667   6.594   0.272
 3182TIP3    H1 9487   5.623   6.594   0.357
 3182TIP3    H2 9488   5.669   6.686   0.246
 3183TIP3   OH2 9489   5.584   6.745   4.835
 3183TIP3    H1 9490   5.599   6.751   4.929
 3183TIP3    H2 9491   5.520   6.674   4.825
 3184TIP3   OH2 9492   7.755   1.509   6.798
 3184TIP3    H1 9493   7.708   1.586   6.768
 3184TIP3    H2 9494   7.840   1.514   6.755
 3185TIP3   OH2 9495   2.751   4.077   1.111
 3185TIP3    H1 9496   2.816   4.023   1.156
 3185TIP3    H2 9497   2.802   4.134   1.055
 3186TIP3   OH2 9498   2.895   1.201   2.300
 3186TIP3    H1 9499   2.957   1.232   2.234
 3186TIP3    H2 9500   2.946   1.144   2.357
 3187TIP3   OH2 9501   7.648   0.749   6.200
 3187TIP3    H1 9502   7.743   0.757   6.206
 3187TIP3    H2 9503   7.621   0.709   6.283
 3188TIP3   OH2 9504   0.691   2.544   2.174
 3188TIP3    H1 9505   0.748   2.591   2.235
 3188TIP3    H2 9506   0.688   2.599   2.096
 3189TIP3   OH2 9507   2.675   0.546   1.472
 3189TIP3    H1 9508   2.648   0.583   1.388
 3189TIP3    H2 9509   2.683   0.621   1.530
 3190TIP3   OH2 9510   5.979   7.358   3.911
 3190TIP3    H1 9511   5.945   7.443   3.880
 3190TIP3    H2 9512   5.930   7.343   3.992
 3191TIP3   OH2 9513   7.442   1.242   0.312
 3191TIP3    H1 9514   7.479   1.232   0.224
 3191TIP3    H2 9515   7.491   1.315   0.350
 3192TIP3   OH2 9516   7.523   2.881   6.207
 3192TIP3    H1 9517   7.530   2.936   6.284
 3192TIP3    H2 9518   7.444   2.912   6.162
 3193TIP3   OH2 9519   7.317   1.229   2.280
 3193TIP3    H1 9520   7.258   1.300   2.303
 3193TIP3    H2 9521   7.393   1.241   2.337
 3194TIP3   OH2 9522   0.368   2.887   4.915
 3194TIP3    H1 9523   0.284   2.907   4.874
 3194TIP3    H2 9524   0.355   2.907   5.008
 3195TIP3   OH2 9525   6.712   6.169   6.502
 3195TIP3    H1 9526   6.765   6.090   6.517
 3195TIP3    H2 9527   6.766   6.241   6.534
 3196TIP3   OH2 9528   5.800   6.330   6.087
 3196TIP3    H1 9529   5.887   6.323   6.047
 3196TIP3    H2 9530   5.753   6.393   6.032
 3197TIP3   OH2 9531   7.751   3.607   2.090
 3197TIP3    H1 9532   7.775   3.521   2.124
 3197TIP3    H2 9533   7.693   3.589   2.016
 3198TIP3   OH2 9534   8.033   2.147   6.714
 3198TIP3    H1 9535   7.976   2.159   6.638
 3198TIP3    H2 9536   7.977   2.107   6.780
 3199TIP3   OH2 9537   3.512   6.515   0.584
 3199TIP3    H1 9538   3.599   6.534   0.618
 3199TIP3    H2 9539   3.460   6.495   0.661
 3200TIP3   OH2 9540   2.886   2.392   2.905
 3200TIP3    H1 9541   2.828   2.362   2.835
 3200TIP3    H2 9542   2.834   2.455   2.955
 3201TIP3   OH2 9543   2.200   4.513   4.744
 3201TIP3    H1 9544   2.139   4.448   4.779
 3201TIP3    H2 9545   2.177   4.520   4.651
 3202TIP3   OH2 9546   7.816   5.197   1.254
 3202TIP3    H1 9547   7.907   5.174   1.234
 3202TIP3    H2 9548   7.764   5.143   1.195
 3203TIP3   OH2 9549   8.184   2.391   6.683
 3203TIP3    H1 9550   8.127   2.317   6.704
 3203TIP3    H2 9551   8.126   2.467   6.688
 3204TIP3   OH2 9552   2.745   4.460   1.042
 3204TIP3    H1 9553   2.748   4.546   1.000
 3204TIP3    H2 9554   2.772   4.477   1.132
 3205TIP3   OH2 9555   3.664   1.349   0.802
 3205TIP3    H1 9556   3.635   1.258   0.798
 3205TIP3    H2 9557   3.755   1.344   0.831
 3206TIP3   OH2 9558   0.035   7.087   5.618
 3206TIP3    H1 9559  -0.031   7.114   5.683
 3206TIP3    H2 9560   0.039   6.992   5.627
 3207TIP3   OH2 9561   6.642   5.991   2.076
 3207TIP3    H1 9562   6.594   6.053   2.021
 3207TIP3    H2 9563   6.578   5.960   2.140
 3208TIP3   OH2 9564   4.624   2.111   3.575
 3208TIP3    H1 9565   4.654   2.167   3.647
 3208TIP3    H2 9566   4.657   2.154   3.496
 3209TIP3   OH2 9567   5.086   4.312   3.934
 3209TIP3    H1 9568   5.076   4.387   3.992
 3209TIP3    H2 9569   5.176   4.283   3.947
 3210TIP3   OH2 9570   2.835   2.497   1.816
 3210TIP3    H1 9571   2.881   2.468   1.895
 3210TIP3    H2 9572   2.891   2.469   1.744
 3211TIP3   OH2 9573   3.451   0.445   5.862
 3211TIP3    H1 9574   3.410   0.418   5.944
 3211TIP3    H2 9575   3.478   0.363   5.820
 3212TIP3   OH2 9576   0.360   2.506   4.996
 3212TIP3    H1 9577   0.432   2.466   5.045
 3212TIP3    H2 9578   0.285   2.503   5.056
 3213TIP3   OH2 9579   8.267   3.239   2.225
 3213TIP3    H1 9580   8.356   3.207   2.210
 3213TIP3    H2 9581   8.211   3.163   2.213
 3214TIP3   OH2 9582   3.133   4.182   5.099
 3214TIP3    H1 9583   3.104   4.092   5.115
 3214TIP3    H2 9584   3.220   4.172   5.061
 3215TIP3   OH2 9585   5.511   0.938   5.909
 3215TIP3    H1 9586   5.565   0.912   5.834
 3215TIP3    H2 9587   5.512   0.863   5.968
 3216TIP3   OH2 9588   1.265   5.598   2.710
 3216TIP3    H1 9589   1.194   5.652   2.676
 3216TIP3    H2 9590   1.342   5.656   2.707
 3217TIP3   OH2 9591   7.829   7.819   0.570
 3217TIP3    H1 9592   7.752   7.873   0.552
 3217TIP3    H2 9593   7.814   7.738   0.520
 3218TIP3   OH2 9594   7.520   7.676   3.014
 3218TIP3    H1 9595   7.453   7.645   3.075
 3218TIP3    H2 9596   7.556   7.754   3.055
 3219TIP3   OH2 9597   6.936   6.251   0.527
 3219TIP3    H1 9598   6.958   6.291   0.443
 3219TIP3    H2 9599   6.852   6.208   0.511
 3220TIP3   OH2 9600   2.589   6.453   1.883
 3220TIP3    H1 9601   2.509   6.483   1.926
 3220TIP3    H2 9602   2.632   6.534   1.853
 3221TIP3   OH2 9603   6.534   7.848   5.942
 3221TIP3    H1 9604   6.553   7.793   5.865
 3221TIP3    H2 9605   6.484   7.791   6.000
 3222TIP3   OH2 9606   5.997   6.911   1.354
 3222TIP3    H1 9607   6.045   6.884   1.432
 3222TIP3    H2 9608   6.009   6.838   1.292
 3223TIP3   OH2 9609   2.394   2.971   3.596
 3223TIP3    H1 9610   2.362   2.881   3.598
 3223TIP3    H2 9611   2.465   2.971   3.532
 3224TIP3   OH2 9612   3.694   7.664   1.996
 3224TIP3    H1 9613   3.621   7.656   2.057
 3224TIP3    H2 9614   3.739   7.745   2.022
 3225TIP3   OH2 9615   6.495   1.091   0.075
 3225TIP3    H1 9616   6.463   1.115  -0.011
 3225TIP3    H2 9617   6.440   1.017   0.102
 3226TIP3   OH2 9618   3.378   5.779   6.112
 3226TIP3    H1 9619   3.455   5.727   6.133
 3226TIP3    H2 9620   3.307   5.736   6.160
 3227TIP3   OH2 9621   0.663   6.399   4.127
 3227TIP3    H1 9622   0.610   6.435   4.055
 3227TIP3    H2 9623   0.604   6.338   4.172
 3228TIP3   OH2 9624   4.037   3.504   0.524
 3228TIP3    H1 9625   3.983   3.571   0.567
 3228TIP3    H2 9626   4.127   3.534   0.536
 3229TIP3   OH2 9627   5.949   2.895   0.759
 3229TIP3    H1 9628   6.016   2.940   0.706
 3229TIP3    H2 9629   5.996   2.865   0.837
 3230TIP3   OH2 9630   4.575   6.606   1.145
 3230TIP3    H1 9631   4.589   6.512   1.133
 3230TIP3    H2 9632   4.496   6.625   1.096
 3231TIP3   OH2 9633   3.581   5.573   6.184
 3231TIP3    H1 9634   3.537   5.507   6.238
 3231TIP3    H2 9635   3.648   5.611   6.241
 3232TIP3   OH2 9636   4.644   4.507   5.504
 3232TIP3    H1 9637   4.586   4.497   5.580
 3232TIP3    H2 9638   4.588   4.486   5.429
 3233TIP3   OH2 9639   6.704   2.620   4.693
 3233TIP3    H1 9640   6.671   2.629   4.603
 3233TIP3    H2 9641   6.753   2.538   4.692
 3234TIP3   OH2 9642   3.030   3.433   5.846
 3234TIP3    H1 9643   2.962   3.401   5.787
 3234TIP3    H2 9644   3.028   3.528   5.836
 3235TIP3   OH2 9645   3.301   1.602   3.355
 3235TIP3    H1 9646   3.342   1.637   3.435
 3235TIP3    H2 9647   3.210   1.633   3.359
 3236TIP3   OH2 9648   4.700   1.470   4.472
 3236TIP3    H1 9649   4.677   1.381   4.446
 3236TIP3    H2 9650   4.616   1.518   4.469
 3237TIP3   OH2 9651   4.691   6.363   1.049
 3237TIP3    H1 9652   4.708   6.371   0.955
 3237TIP3    H2 9653   4.670   6.271   1.062
 3238TIP3   OH2 9654   2.816   0.051   3.574
 3238TIP3    H1 9655   2.781   0.038   3.486
 3238TIP3    H2 9656   2.850   0.141   3.573
 3239TIP3   OH2 9657   0.994   0.466   4.782
 3239TIP3    H1 9658   0.939   0.464   4.704
 3239TIP3    H2 9659   1.051   0.390   4.774
 3240TIP3   OH2 9660   1.179   5.329   2.610
 3240TIP3    H1 9661   1.187   5.416   2.648
 3240TIP3    H2 9662   1.181   5.270   2.686
 3241TIP3   OH2 9663   2.106   0.847   4.540
 3241TIP3    H1 9664   2.055   0.768   4.559
 3241TIP3    H2 9665   2.056   0.891   4.471
 3242TIP3   OH2 9666   3.256   0.448   6.557
 3242TIP3    H1 9667   3.260   0.526   6.612
 3242TIP3    H2 9668   3.169   0.412   6.573
 3243TIP3   OH2 9669   5.152   3.949   3.380
 3243TIP3    H1 9670   5.201   3.869   3.401
 3243TIP3    H2 9671   5.215   4.006   3.338
 3244TIP3   OH2 9672   1.543   5.777   3.282
 3244TIP3    H1 9673   1.590   5.797   3.201
 3244TIP3    H2 9674   1.610   5.741   3.340
 3245TIP3   OH2 9675   7.937   7.563   5.208
 3245TIP3    H1 9676   7.908   7.587   5.120
 3245TIP3    H2 9677   7.869   7.597   5.266
 3246TIP3   OH2 9678   0.923   6.348   4.119
 3246TIP3    H1 9679   0.915   6.349   4.023
 3246TIP3    H2 9680   0.834   6.359   4.151
 3247TIP3   OH2 9681   3.294   3.405   4.115
 3247TIP3    H1 9682   3.315   3.481   4.061
 3247TIP3    H2 9683   3.378   3.383   4.157
 3248TIP3   OH2 9684   3.633   5.426   4.205
 3248TIP3    H1 9685   3.636   5.517   4.235
 3248TIP3    H2 9686   3.651   5.431   4.111
 3249TIP3   OH2 9687   1.332   3.501   3.293
 3249TIP3    H1 9688   1.357   3.450   3.216
 3249TIP3    H2 9689   1.391   3.577   3.292
 3250TIP3   OH2 9690   6.255   4.798   5.544
 3250TIP3    H1 9691   6.159   4.793   5.550
 3250TIP3    H2 9692   6.276   4.890   5.564
 3251TIP3   OH2 9693   4.709   1.881   4.806
 3251TIP3    H1 9694   4.631   1.896   4.860
 3251TIP3    H2 9695   4.730   1.788   4.819
 3252TIP3   OH2 9696   2.590   7.019   0.588
 3252TIP3    H1 9697   2.578   6.935   0.542
 3252TIP3    H2 9698   2.546   7.083   0.532
 3253TIP3   OH2 9699   0.384   3.156   4.495
 3253TIP3    H1 9700   0.318   3.183   4.558
 3253TIP3    H2 9701   0.336   3.102   4.432
 3254TIP3   OH2 9702   4.106   2.656   1.404
 3254TIP3    H1 9703   4.135   2.696   1.322
 3254TIP3    H2 9704   4.186   2.632   1.450
 3255TIP3   OH2 9705   5.870   2.162   3.978
 3255TIP3    H1 9706   5.947   2.105   3.975
 3255TIP3    H2 9707   5.884   2.226   3.909
 3256TIP3   OH2 9708   7.948   2.007   3.520
 3256TIP3    H1 9709   8.001   2.055   3.457
 3256TIP3    H2 9710   8.011   1.955   3.570
 3257TIP3   OH2 9711   1.207   1.001   5.433
 3257TIP3    H1 9712   1.114   1.019   5.446
 3257TIP3    H2 9713   1.237   1.073   5.376
 3258TIP3   OH2 9714   7.139   4.655   6.750
 3258TIP3    H1 9715   7.126   4.696   6.835
 3258TIP3    H2 9716   7.052   4.655   6.710
 3259TIP3   OH2 9717   4.821   0.047   0.756
 3259TIP3    H1 9718   4.915   0.035   0.741
 3259TIP3    H2 9719   4.817   0.111   0.827
 3260TIP3   OH2 9720   5.992   4.729   0.164
 3260TIP3    H1 9721   5.907   4.689   0.145
 3260TIP3    H2 9722   6.020   4.767   0.081
 3261TIP3   OH2 9723   2.871   6.438   5.960
 3261TIP3    H1 9724   2.784   6.397   5.964
 3261TIP3    H2 9725   2.904   6.431   6.050
 3262TIP3   OH2 9726   5.953   7.470   1.094
 3262TIP3    H1 9727   5.865   7.492   1.125
 3262TIP3    H2 9728   5.952   7.494   1.001
 3263TIP3   OH2 9729   5.535   1.227   1.698
 3263TIP3    H1 9730   5.592   1.182   1.761
 3263TIP3    H2 9731   5.579   1.216   1.614
 3264TIP3   OH2 9732   2.338   0.114   4.119
 3264TIP3    H1 9733   2.352   0.064   4.199
 3264TIP3    H2 9734   2.308   0.049   4.054
 3265TIP3   OH2 9735   7.089   4.771   5.403
 3265TIP3    H1 9736   7.110   4.682   5.377
 3265TIP3    H2 9737   7.152   4.791   5.473
 3266TIP3   OH2 9738   3.422   7.360   3.616
 3266TIP3    H1 9739   3.412   7.377   3.523
 3266TIP3    H2 9740   3.339   7.322   3.643
 3267TIP3   OH2 9741   1.733   2.905   1.633
 3267TIP3    H1 9742   1.790   2.828   1.640
 3267TIP3    H2 9743   1.793   2.979   1.645
 3268TIP3   OH2 9744   1.375   4.890   1.082
 3268TIP3    H1 9745   1.393   4.984   1.076
 3268TIP3    H2 9746   1.373   4.860   0.992
 3269TIP3   OH2 9747   0.927   0.803   5.118
 3269TIP3    H1 9748   0.927   0.709   5.099
 3269TIP3    H2 9749   0.936   0.808   5.213
 3270TIP3   OH2 9750   1.736   3.666   1.488
 3270TIP3    H1 9751   1.758   3.704   1.403
 3270TIP3    H2 9752   1.699   3.580   1.467
 3271TIP3   OH2 9753   4.459   7.144   4.191
 3271TIP3    H1 9754   4.534   7.186   4.148
 3271TIP3    H2 9755   4.423   7.213   4.248
 3272TIP3   OH2 9756   2.368   3.953   1.311
 3272TIP3    H1 9757   2.426   3.881   1.288
 3272TIP3    H2 9758   2.303   3.954   1.241
 3273TIP3   OH2 9759   5.491   0.769   5.603
 3273TIP3    H1 9760   5.435   0.692   5.611
 3273TIP3    H2 9761   5.580   0.735   5.599
 3274TIP3   OH2 9762   6.407   6.339   3.694
 3274TIP3    H1 9763   6.455   6.422   3.706
 3274TIP3    H2 9764   6.465   6.285   3.641
 3275TIP3   OH2 9765   1.417   2.143   0.586
 3275TIP3    H1 9766   1.464   2.226   0.590
 3275TIP3    H2 9767   1.467   2.084   0.642
 3276TIP3   OH2 9768   3.956   5.314   4.275
 3276TIP3    H1 9769   3.989   5.358   4.354
 3276TIP3    H2 9770   3.866   5.290   4.297
 3277TIP3   OH2 9771   7.538   4.462   1.258
 3277TIP3    H1 9772   7.578   4.402   1.195
 3277TIP3    H2 9773   7.595   4.540   1.256
 3278TIP3   OH2 9774   0.787   7.735   4.099
 3278TIP3    H1 9775   0.857   7.781   4.146
 3278TIP3    H2 9776   0.706   7.773   4.134
 3279TIP3   OH2 9777   1.430   7.059   2.521
 3279TIP3    H1 9778   1.439   6.994   2.591
 3279TIP3    H2 9779   1.379   7.130   2.560
 3280TIP3   OH2 9780   4.460   6.175   4.273
 3280TIP3    H1 9781   4.481   6.231   4.347
 3280TIP3    H2 9782   4.538   6.120   4.262
 3281TIP3   OH2 9783   1.127   7.708   1.116
 3281TIP3    H1 9784   1.113   7.736   1.206
 3281TIP3    H2 9785   1.219   7.683   1.112
 3282TIP3   OH2 9786   2.808   2.066   1.540
 3282TIP3    H1 9787   2.828   1.976   1.513
 3282TIP3    H2 9788   2.750   2.055   1.616
 3283TIP3   OH2 9789   1.214   6.892   6.090
 3283TIP3    H1 9790   1.134   6.936   6.063
 3283TIP3    H2 9791   1.279   6.963   6.096
 3284TIP3   OH2 9792   0.172   5.024   4.012
 3284TIP3    H1 9793   0.185   4.930   4.017
 3284TIP3    H2 9794   0.097   5.035   3.954
 3285TIP3   OH2 9795   4.263   6.208   1.120
 3285TIP3    H1 9796   4.337   6.181   1.064
 3285TIP3    H2 9797   4.298   6.204   1.209
 3286TIP3   OH2 9798   5.087   5.792   6.416
 3286TIP3    H1 9799   5.119   5.830   6.498
 3286TIP3    H2 9800   5.164   5.793   6.359
 3287TIP3   OH2 9801   7.472   0.298   5.878
 3287TIP3    H1 9802   7.403   0.234   5.859
 3287TIP3    H2 9803   7.454   0.326   5.968
 3288TIP3   OH2 9804   2.630   1.913   4.449
 3288TIP3    H1 9805   2.541   1.941   4.425
 3288TIP3    H2 9806   2.634   1.821   4.425
 3289TIP3   OH2 9807   5.464   4.096   5.592
 3289TIP3    H1 9808   5.488   4.106   5.684
 3289TIP3    H2 9809   5.548   4.082   5.547
 3290TIP3   OH2 9810   6.774   1.004   3.075
 3290TIP3    H1 9811   6.780   0.936   3.142
 3290TIP3    H2 9812   6.843   0.981   3.012
 3291TIP3   OH2 9813   6.865   5.719   1.504
 3291TIP3    H1 9814   6.897   5.723   1.594
 3291TIP3    H2 9815   6.805   5.645   1.503
 3292TIP3   OH2 9816   3.350   0.271   2.508
 3292TIP3    H1 9817   3.336   0.284   2.602
 3292TIP3    H2 9818   3.298   0.193   2.487
 3293TIP3   OH2 9819   7.827   6.638   6.128
 3293TIP3    H1 9820   7.841   6.592   6.211
 3293TIP3    H2 9821   7.825   6.568   6.062
 3294TIP3   OH2 9822   1.066   4.071   0.235
 3294TIP3    H1 9823   1.018   4.001   0.280
 3294TIP3    H2 9824   1.085   4.036   0.148
 3295TIP3   OH2 9825   4.257   6.003   4.353
 3295TIP3    H1 9826   4.331   6.061   4.334
 3295TIP3    H2 9827   4.187   6.034   4.296
 3296TIP3   OH2 9828   5.082   3.851   2.409
 3296TIP3    H1 9829   5.125   3.834   2.493
 3296TIP3    H2 9830   5.131   3.925   2.372
 3297TIP3   OH2 9831   2.675   6.333   1.581
 3297TIP3    H1 9832   2.685   6.279   1.503
 3297TIP3    H2 9833   2.738   6.404   1.570
 3298TIP3   OH2 9834   3.858   4.953   2.989
 3298TIP3    H1 9835   3.892   4.984   3.073
 3298TIP3    H2 9836   3.782   4.900   3.013
 3299TIP3   OH2 9837   0.360   6.627   0.634
 3299TIP3    H1 9838   0.305   6.703   0.616
 3299TIP3    H2 9839   0.309   6.575   0.697
 3300TIP3   OH2 9840   7.801   0.022   4.305
 3300TIP3    H1 9841   7.720   0.071   4.314
 3300TIP3    H2 9842   7.840   0.054   4.224
 3301TIP3   OH2 9843   2.423   0.141   6.828
 3301TIP3    H1 9844   2.414   0.047   6.840
 3301TIP3    H2 9845   2.363   0.161   6.755
 3302TIP3   OH2 9846   5.682   1.763   4.311
 3302TIP3    H1 9847   5.746   1.717   4.365
 3302TIP3    H2 9848   5.728   1.779   4.228
 3303TIP3   OH2 9849   2.596   6.330   5.316
 3303TIP3    H1 9850   2.602   6.410   5.263
 3303TIP3    H2 9851   2.503   6.317   5.329
 3304TIP3   OH2 9852   0.942   2.148   3.993
 3304TIP3    H1 9853   1.016   2.201   4.022
 3304TIP3    H2 9854   0.976   2.058   3.991
 3305TIP3   OH2 9855   2.183   3.327   2.712
 3305TIP3    H1 9856   2.216   3.238   2.722
 3305TIP3    H2 9857   2.230   3.377   2.779
 3306TIP3   OH2 9858   1.005   5.743   4.047
 3306TIP3    H1 9859   0.991   5.770   4.138
 3306TIP3    H2 9860   0.918   5.723   4.014
 3307TIP3   OH2 9861   6.800   4.323   3.005
 3307TIP3    H1 9862   6.862   4.362   2.944
 3307TIP3    H2 9863   6.800   4.382   3.080
 3308TIP3   OH2 9864   7.277   0.121   3.217
 3308TIP3    H1 9865   7.282   0.107   3.123
 3308TIP3    H2 9866   7.251   0.212   3.227
 3309TIP3   OH2 9867   2.235   4.688   2.796
 3309TIP3    H1 9868   2.159   4.716   2.846
 3309TIP3    H2 9869   2.198   4.640   2.721
 3310TIP3   OH2 9870   7.100   3.098   0.093
 3310TIP3    H1 9871   7.024   3.040   0.102
 3310TIP3    H2 9872   7.110   3.110  -0.001
 3311TIP3   OH2 9873   0.690   2.128   5.295
 3311TIP3    H1 9874   0.769   2.099   5.251
 3311TIP3    H2 9875   0.695   2.087   5.382
 3312TIP3   OH2 9876   6.793   2.855   3.797
 3312TIP3    H1 9877   6.843   2.792   3.744
 3312TIP3    H2 9878   6.703   2.824   3.793
 3313TIP3   OH2 9879   6.344   2.547   2.893
 3313TIP3    H1 9880   6.417   2.509   2.942
 3313TIP3    H2 9881   6.278   2.567   2.960
 3314TIP3   OH2 9882   1.813   5.864   6.204
 3314TIP3    H1 9883   1.788   5.789   6.150
 3314TIP3    H2 9884   1.822   5.829   6.293
 3315TIP3   OH2 9885   3.004   6.355   2.436
 3315TIP3    H1 9886   3.078   6.415   2.438
 3315TIP3    H2 9887   3.037   6.274   2.475
 3316TIP3   OH2 9888   5.338   4.324   0.608
 3316TIP3    H1 9889   5.279   4.395   0.583
 3316TIP3    H2 9890   5.305   4.248   0.560
 3317TIP3   OH2 9891   2.119   4.930   4.172
 3317TIP3    H1 9892   2.109   4.912   4.265
 3317TIP3    H2 9893   2.213   4.937   4.158
 3318TIP3   OH2 9894   2.974   1.837   4.547
 3318TIP3    H1 9895   3.040   1.836   4.616
 3318TIP3    H2 9896   2.893   1.860   4.593
 3319TIP3   OH2 9897   4.316   3.273   4.299
 3319TIP3    H1 9898   4.267   3.342   4.345
 3319TIP3    H2 9899   4.277   3.271   4.212
 3320TIP3   OH2 9900   1.958   1.379   2.771
 3320TIP3    H1 9901   2.016   1.443   2.812
 3320TIP3    H2 9902   1.974   1.388   2.677
 3321TIP3   OH2 9903   1.720   2.700   5.314
 3321TIP3    H1 9904   1.696   2.666   5.400
 3321TIP3    H2 9905   1.663   2.776   5.302
 3322TIP3   OH2 9906   3.340   2.566   1.869
 3322TIP3    H1 9907   3.402   2.636   1.853
 3322TIP3    H2 9908   3.358   2.502   1.800
 3323TIP3   OH2 9909   7.692   5.243   5.943
 3323TIP3    H1 9910   7.647   5.169   5.983
 3323TIP3    H2 9911   7.777   5.247   5.988
 3324TIP3   OH2 9912   7.648   3.143   5.404
 3324TIP3    H1 9913   7.622   3.201   5.476
 3324TIP3    H2 9914   7.640   3.197   5.326
 3325TIP3   OH2 9915   7.365   2.404   2.747
 3325TIP3    H1 9916   7.454   2.414   2.781
 3325TIP3    H2 9917   7.369   2.438   2.658
 3326TIP3   OH2 9918   1.040   5.764   3.031
 3326TIP3    H1 9919   1.122   5.808   3.052
 3326TIP3    H2 9920   0.992   5.761   3.113
 3327TIP3   OH2 9921   6.303   2.714   5.038
 3327TIP3    H1 9922   6.313   2.738   5.131
 3327TIP3    H2 9923   6.220   2.754   5.012
 3328TIP3   OH2 9924   1.589   1.987   6.373
 3328TIP3    H1 9925   1.656   1.920   6.384
 3328TIP3    H2 9926   1.622   2.063   6.421
 3329TIP3   OH2 9927   6.053   5.458   5.824
 3329TIP3    H1 9928   5.968   5.493   5.796
 3329TIP3    H2 9929   6.034   5.417   5.909
 3330TIP3   OH2 9930   0.360   0.328   6.298
 3330TIP3    H1 9931   0.442   0.361   6.261
 3330TIP3    H2 9932   0.303   0.405   6.304
 3331TIP3   OH2 9933   4.032   2.527   6.419
 3331TIP3    H1 9934   3.953   2.580   6.410
 3331TIP3    H2 9935   4.074   2.560   6.499
 3332TIP3   OH2 9936   0.787   0.512   4.572
 3332TIP3    H1 9937   0.726   0.441   4.555
 3332TIP3    H2 9938   0.758   0.550   4.655
 3333TIP3   OH2 9939   5.411   6.141   6.158
 3333TIP3    H1 9940   5.344   6.076   6.136
 3333TIP3    H2 9941   5.421   6.193   6.079
 3334TIP3   OH2 9942   1.028   7.727   2.569
 3334TIP3    H1 9943   1.086   7.652   2.563
 3334TIP3    H2 9944   1.015   7.756   2.479
 3335TIP3   OH2 9945   0.769   3.043   2.834
 3335TIP3    H1 9946   0.815   2.980   2.777
 3335TIP3    H2 9947   0.834   3.112   2.850
 3336TIP3   OH2 9948   0.967   6.228   2.496
 3336TIP3    H1 9949   0.945   6.287   2.424
 3336TIP3    H2 9950   0.883   6.201   2.531
 3337TIP3   OH2 9951   3.687   5.162   4.098
 3337TIP3    H1 9952   3.663   5.244   4.141
 3337TIP3    H2 9953   3.608   5.108   4.104
 3338TIP3   OH2 9954   2.956   2.370   4.204
 3338TIP3    H1 9955   2.926   2.290   4.246
 3338TIP3    H2 9956   3.002   2.342   4.125
 3339TIP3   OH2 9957   5.828   7.461   3.637
 3339TIP3    H1 9958   5.759   7.528   3.635
 3339TIP3    H2 9959   5.809   7.409   3.714
 3340TIP3   OH2 9960   6.181   7.063   4.547
 3340TIP3    H1 9961   6.246   7.059   4.478
 3340TIP3    H2 9962   6.098   7.043   4.504
 3341TIP3   OH2 9963   2.802   4.423   6.396
 3341TIP3    H1 9964   2.855   4.344   6.403
 3341TIP3    H2 9965   2.726   4.406   6.452
 3342TIP3   OH2 9966   5.644   5.574   4.439
 3342TIP3    H1 9967   5.615   5.487   4.464
 3342TIP3    H2 9968   5.566   5.616   4.402
 3343TIP3   OH2 9969   3.757   6.422   4.811
 3343TIP3    H1 9970   3.685   6.417   4.875
 3343TIP3    H2 9971   3.713   6.439   4.728
 3344TIP3   OH2 9972   0.746   4.884   5.604
 3344TIP3    H1 9973   0.790   4.908   5.685
 3344TIP3    H2 9974   0.667   4.837   5.632
 3345TIP3   OH2 9975   0.387   0.959   6.130
 3345TIP3    H1 9976   0.452   0.920   6.189
 3345TIP3    H2 9977   0.429   1.039   6.099
 3346TIP3   OH2 9978   1.227   7.580   3.041
 3346TIP3    H1 9979   1.259   7.495   3.073
 3346TIP3    H2 9980   1.133   7.569   3.033
 3347TIP3   OH2 9981   8.315   6.319   4.819
 3347TIP3    H1 9982   8.260   6.336   4.895
 3347TIP3    H2 9983   8.253   6.292   4.750
 3348TIP3   OH2 9984   7.078   1.438   6.405
 3348TIP3    H1 9985   7.146   1.472   6.347
 3348TIP3    H2 9986   7.021   1.513   6.421
 3349TIP3   OH2 9987   3.947   6.406   6.475
 3349TIP3    H1 9988   3.903   6.348   6.413
 3349TIP3    H2 9989   3.884   6.476   6.491
 3350TIP3   OH2 9990   2.248   7.731   2.803
 3350TIP3    H1 9991   2.284   7.818   2.818
 3350TIP3    H2 9992   2.305   7.693   2.736
 3351TIP3   OH2 9993   2.242   2.472   3.307
 3351TIP3    H1 9994   2.183   2.455   3.233
 3351TIP3    H2 9995   2.251   2.567   3.308
 3352TIP3   OH2 9996   4.229   7.576   6.499
 3352TIP3    H1 9997   4.206   7.521   6.574
 3352TIP3    H2 9998   4.234   7.516   6.425
 3353TIP3   OH2 9999   5.238   5.529   5.468
 3353TIP3    H110000   5.203   5.527   5.557
 3353TIP3    H210001   5.300   5.456   5.465
 3354TIP3   OH210002   6.146   1.024   6.492
 3354TIP3    H110003   6.194   1.049   6.413
 3354TIP3    H210004   6.137   1.105   6.541
 3355TIP3   OH210005   2.951   5.544   4.307
 3355TIP3    H110006   3.021   5.606   4.328
 3355TIP3    H210007   2.934   5.558   4.214
 3356TIP3   OH210008   2.901   7.099   1.554
 3356TIP3    H110009   2.833   7.077   1.491
 3356TIP3    H210010   2.913   7.194   1.543
 3357TIP3   OH210011   4.276   6.959   0.731
 3357TIP3    H110012   4.189   6.976   0.767
 3357TIP3    H210013   4.326   7.039   0.752
 3358TIP3   OH210014   1.043   1.238   6.636
 3358TIP3    H110015   0.988   1.199   6.567
 3358TIP3    H210016   0.984   1.298   6.682
 3359TIP3   OH210017   6.245   0.332   5.305
 3359TIP3    H110018   6.217   0.400   5.244
 3359TIP3    H210019   6.303   0.276   5.254
 3360TIP3   OH210020   4.703   3.792   5.510
 3360TIP3    H110021   4.716   3.880   5.475
 3360TIP3    H210022   4.777   3.779   5.569
 3361TIP3   OH210023   4.078   5.398   0.036
 3361TIP3    H110024   4.011   5.451  -0.007
 3361TIP3    H210025   4.092   5.439   0.121
 3362TIP3   OH210026   0.836   6.745   5.762
 3362TIP3    H110027   0.860   6.670   5.816
 3362TIP3    H210028   0.851   6.822   5.818
 3363TIP3   OH210029   8.263   7.789   0.932
 3363TIP3    H110030   8.189   7.743   0.971
 3363TIP3    H210031   8.227   7.870   0.898
 3364TIP3   OH210032   7.404   3.803   0.422
 3364TIP3    H110033   7.329   3.758   0.384
 3364TIP3    H210034   7.407   3.887   0.376
 3365TIP3   OH210035   7.078   1.449   3.023
 3365TIP3    H110036   7.007   1.388   3.000
 3365TIP3    H210037   7.048   1.490   3.104
 3366TIP3   OH210038   4.427   1.925   3.114
 3366TIP3    H110039   4.427   2.020   3.126
 3366TIP3    H210040   4.442   1.913   3.021
 3367TIP3   OH210041   1.227   1.183   2.430
 3367TIP3    H110042   1.280   1.132   2.370
 3367TIP3    H210043   1.138   1.176   2.396
 3368TIP3   OH210044   1.005   7.396   5.464
 3368TIP3    H110045   1.040   7.423   5.549
 3368TIP3    H210046   0.915   7.367   5.483
 3369TIP3   OH210047   3.861   0.604   4.457
 3369TIP3    H110048   3.912   0.539   4.506
 3369TIP3    H210049   3.906   0.687   4.472
 3370TIP3   OH210050   4.695   1.464   0.902
 3370TIP3    H110051   4.727   1.378   0.929
 3370TIP3    H210052   4.759   1.526   0.937
 3371TIP3   OH210053   4.768   6.796   5.867
 3371TIP3    H110054   4.679   6.775   5.838
 3371TIP3    H210055   4.823   6.729   5.826
 3372TIP3   OH210056   3.280   0.096   0.213
 3372TIP3    H110057   3.200   0.147   0.218
 3372TIP3    H210058   3.253   0.006   0.232
 3373TIP3   OH210059   5.205   2.583   5.605
 3373TIP3    H110060   5.228   2.583   5.698
 3373TIP3    H210061   5.269   2.524   5.565
 3374TIP3   OH210062   3.718   7.813   0.464
 3374TIP3    H110063   3.716   7.799   0.559
 3374TIP3    H210064   3.642   7.868   0.447
 3375TIP3   OH210065   6.419   6.432   5.850
 3375TIP3    H110066   6.384   6.415   5.762
 3375TIP3    H210067   6.362   6.499   5.886
 3376TIP3   OH210068   2.198   7.696   4.693
 3376TIP3    H110069   2.118   7.728   4.651
 3376TIP3    H210070   2.266   7.758   4.667
 3377TIP3   OH210071   1.048   3.660   5.309
 3377TIP3    H110072   0.963   3.654   5.266
 3377TIP3    H210073   1.095   3.729   5.261
 3378TIP3   OH210074   6.053   6.089   3.483
 3378TIP3    H110075   5.992   6.118   3.415
 3378TIP3    H210076   6.078   6.169   3.528
 3379TIP3   OH210077   0.356   0.430   2.825
 3379TIP3    H110078   0.274   0.437   2.775
 3379TIP3    H210079   0.391   0.344   2.802
 3380TIP3   OH210080   6.090   6.855   0.392
 3380TIP3    H110081   6.144   6.790   0.346
 3380TIP3    H210082   6.083   6.928   0.330
 3381TIP3   OH210083   1.428   2.213   2.997
 3381TIP3    H110084   1.345   2.202   2.950
 3381TIP3    H210085   1.405   2.202   3.089
 3382TIP3   OH210086   4.622   7.767   4.449
 3382TIP3    H110087   4.528   7.773   4.468
 3382TIP3    H210088   4.664   7.806   4.526
 3383TIP3   OH210089   7.297   5.529   6.632
 3383TIP3    H110090   7.388   5.557   6.627
 3383TIP3    H210091   7.291   5.481   6.715
 3384TIP3   OH210092   6.154   2.016   0.119
 3384TIP3    H110093   6.122   2.106   0.130
 3384TIP3    H210094   6.165   1.983   0.209
 3385TIP3   OH210095   6.143   7.104   2.694
 3385TIP3    H110096   6.172   7.157   2.768
 3385TIP3    H210097   6.133   7.167   2.622
 3386TIP3   OH210098   3.215   1.585   0.882
 3386TIP3    H110099   3.301   1.566   0.919
 3386TIP3    H210100   3.234   1.609   0.791
 3387TIP3   OH210101   6.707   4.755   5.014
 3387TIP3    H110102   6.768   4.820   5.049
 3387TIP3    H210103   6.760   4.675   5.006
 3388TIP3   OH210104   6.536   3.653   1.228
 3388TIP3    H110105   6.504   3.567   1.201
 3388TIP3    H210106   6.585   3.637   1.308
 3389TIP3   OH210107   4.323   4.220   2.130
 3389TIP3    H110108   4.317   4.183   2.042
 3389TIP3    H210109   4.343   4.145   2.186
 3390TIP3   OH210110   4.545   6.701   6.744
 3390TIP3    H110111   4.518   6.791   6.760
 3390TIP3    H210112   4.462   6.653   6.736
 3391TIP3   OH210113   0.995   4.884   6.534
 3391TIP3    H110114   1.090   4.872   6.533
 3391TIP3    H210115   0.974   4.906   6.625
 3392TIP3   OH210116   2.467   4.167   1.453
 3392TIP3    H110117   2.524   4.235   1.416
 3392TIP3    H210118   2.428   4.124   1.377
 3393TIP3   OH210119   7.673   0.114   3.467
 3393TIP3    H110120   7.685   0.207   3.485
 3393TIP3    H210121   7.757   0.086   3.429
 3394TIP3   OH210122   1.770   4.133   2.623
 3394TIP3    H110123   1.841   4.076   2.655
 3394TIP3    H210124   1.717   4.076   2.567
 3395TIP3   OH210125   0.595   5.542   3.177
 3395TIP3    H110126   0.672   5.499   3.139
 3395TIP3    H210127   0.566   5.604   3.110
 3396TIP3   OH210128   0.577   2.568   2.731
 3396TIP3    H110129   0.495   2.534   2.695
 3396TIP3    H210130   0.636   2.492   2.730
 3397TIP3   OH210131   1.923   3.276   4.259
 3397TIP3    H110132   1.952   3.353   4.208
 3397TIP3    H210133   2.003   3.223   4.268
 3398TIP3   OH210134   7.195   6.125   0.630
 3398TIP3    H110135   7.230   6.037   0.640
 3398TIP3    H210136   7.102   6.116   0.651
 3399TIP3   OH210137   4.125   3.712   3.717
 3399TIP3    H110138   4.134   3.754   3.803
 3399TIP3    H210139   4.093   3.782   3.660
 3400TIP3   OH210140   3.912   7.439   2.538
 3400TIP3    H110141   3.840   7.431   2.475
 3400TIP3    H210142   3.948   7.350   2.544
 3401TIP3   OH210143   3.428   4.029   0.251
 3401TIP3    H110144   3.451   4.100   0.191
 3401TIP3    H210145   3.333   4.022   0.245
 3402TIP3   OH210146   2.971   3.631   0.962
 3402TIP3    H110147   2.927   3.560   0.915
 3402TIP3    H210148   2.900   3.692   0.984
 3403TIP3   OH210149   1.600   7.334   2.887
 3403TIP3    H110150   1.603   7.264   2.952
 3403TIP3    H210151   1.660   7.306   2.818
 3404TIP3   OH210152   3.749   2.280   5.318
 3404TIP3    H110153   3.677   2.259   5.259
 3404TIP3    H210154   3.814   2.324   5.263
 3405TIP3   OH210155   3.490   1.112   3.334
 3405TIP3    H110156   3.560   1.153   3.283
 3405TIP3    H210157   3.536   1.054   3.395
 3406TIP3   OH210158   1.064   3.526   0.885
 3406TIP3    H110159   1.065   3.472   0.806
 3406TIP3    H210160   0.977   3.513   0.922
 3407TIP3   OH210161   1.194   3.296   3.407
 3407TIP3    H110162   1.245   3.366   3.368
 3407TIP3    H210163   1.206   3.308   3.502
 3408TIP3   OH210164   6.359   3.115   1.449
 3408TIP3    H110165   6.292   3.053   1.479
 3408TIP3    H210166   6.310   3.185   1.407
 3409TIP3   OH210167   7.225   4.044   4.286
 3409TIP3    H110168   7.316   4.016   4.299
 3409TIP3    H210169   7.220   4.129   4.330
 3410TIP3   OH210170   4.688   4.119   1.553
 3410TIP3    H110171   4.708   4.212   1.544
 3410TIP3    H210172   4.760   4.084   1.606
 3411TIP3   OH210173   5.685   3.281   1.564
 3411TIP3    H110174   5.696   3.376   1.565
 3411TIP3    H210175   5.725   3.250   1.645
 3412TIP3   OH210176   1.754   3.008   4.245
 3412TIP3    H110177   1.763   3.039   4.155
 3412TIP3    H210178   1.779   3.084   4.299
 3413TIP3   OH210179   7.118   1.614   3.897
 3413TIP3    H110180   7.038   1.567   3.918
 3413TIP3    H210181   7.093   1.676   3.828
 3414TIP3   OH210182   5.800   0.058   2.419
 3414TIP3    H110183   5.853   0.131   2.388
 3414TIP3    H210184   5.763   0.019   2.340
 3415TIP3   OH210185   5.058   7.016   6.283
 3415TIP3    H110186   5.124   6.964   6.238
 3415TIP3    H210187   5.059   7.101   6.237
 3416TIP3   OH210188   0.353   2.054   1.029
 3416TIP3    H110189   0.389   1.991   1.092
 3416TIP3    H210190   0.431   2.089   0.984
 3417TIP3   OH210191   4.230   3.361   4.982
 3417TIP3    H110192   4.152   3.350   4.928
 3417TIP3    H210193   4.201   3.338   5.070
 3418TIP3   OH210194   0.720   4.456   0.731
 3418TIP3    H110195   0.730   4.401   0.809
 3418TIP3    H210196   0.696   4.542   0.765
 3419TIP3   OH210197   7.366   6.643   4.270
 3419TIP3    H110198   7.350   6.715   4.210
 3419TIP3    H210199   7.414   6.682   4.343
 3420TIP3   OH210200   7.474   6.923   3.222
 3420TIP3    H110201   7.464   6.934   3.127
 3420TIP3    H210202   7.460   7.010   3.258
 3421TIP3   OH210203   4.042   5.182   2.945
 3421TIP3    H110204   3.956   5.143   2.926
 3421TIP3    H210205   4.043   5.262   2.893
 3422TIP3   OH210206   0.468   6.343   0.689
 3422TIP3    H110207   0.529   6.367   0.759
 3422TIP3    H210208   0.451   6.425   0.643
 3423TIP3   OH210209   0.155   5.305   5.202
 3423TIP3    H110210   0.093   5.357   5.253
 3423TIP3    H210211   0.108   5.285   5.120
 3424TIP3   OH210212   7.075   4.040   6.571
 3424TIP3    H110213   7.065   4.123   6.619
 3424TIP3    H210214   7.000   3.988   6.598
 3425TIP3   OH210215   6.400   4.075   3.165
 3425TIP3    H110216   6.470   4.021   3.203
 3425TIP3    H210217   6.446   4.137   3.108
 3426TIP3   OH210218   0.167   0.768   2.874
 3426TIP3    H110219   0.256   0.790   2.902
 3426TIP3    H210220   0.116   0.767   2.955
 3427TIP3   OH210221   7.975   2.718   2.713
 3427TIP3    H110222   8.003   2.761   2.633
 3427TIP3    H210223   8.032   2.642   2.721
 3428TIP3   OH210224   2.065   5.306   0.214
 3428TIP3    H110225   2.024   5.269   0.136
 3428TIP3    H210226   2.095   5.230   0.264
 3429TIP3   OH210227   7.224   3.427   6.757
 3429TIP3    H110228   7.274   3.346   6.763
 3429TIP3    H210229   7.250   3.466   6.673
 3430TIP3   OH210230   0.629   6.798   6.812
 3430TIP3    H110231   0.652   6.819   6.902
 3430TIP3    H210232   0.565   6.865   6.788
 3431TIP3   OH210233   3.407   1.956   5.502
 3431TIP3    H110234   3.420   1.938   5.409
 3431TIP3    H210235   3.435   1.876   5.547
 3432TIP3   OH210236   5.961   2.876   0.316
 3432TIP3    H110237   5.977   2.966   0.346
 3432TIP3    H210238   5.916   2.887   0.232
 3433TIP3   OH210239   7.119   5.682   4.999
 3433TIP3    H110240   7.175   5.646   5.068
 3433TIP3    H210241   7.046   5.721   5.046
 3434TIP3   OH210242   7.424   5.797   0.075
 3434TIP3    H110243   7.339   5.773   0.113
 3434TIP3    H210244   7.402   5.838  -0.009
 3435TIP3   OH210245   1.626   7.358   0.483
 3435TIP3    H110246   1.603   7.380   0.392
 3435TIP3    H210247   1.716   7.327   0.478
 3436TIP3   OH210248   2.548   2.287   0.421
 3436TIP3    H110249   2.488   2.337   0.476
 3436TIP3    H210250   2.549   2.199   0.459
 3437TIP3   OH210251   4.431   0.097   4.705
 3437TIP3    H110252   4.433   0.055   4.790
 3437TIP3    H210253   4.384   0.036   4.649
 3438TIP3   OH210254   3.038   0.690   6.708
 3438TIP3    H110255   3.082   0.751   6.649
 3438TIP3    H210256   3.027   0.610   6.656
 3439TIP3   OH210257   1.820   2.875   4.567
 3439TIP3    H110258   1.841   2.804   4.507
 3439TIP3    H210259   1.769   2.834   4.637
 3440TIP3   OH210260   3.307   6.472   5.214
 3440TIP3    H110261   3.336   6.554   5.254
 3440TIP3    H210262   3.218   6.460   5.247
 3441TIP3   OH210263   6.161   2.018   4.766
 3441TIP3    H110264   6.158   2.066   4.849
 3441TIP3    H210265   6.255   2.006   4.749
 3442TIP3   OH210266   8.322   6.952   1.529
 3442TIP3    H110267   8.347   7.019   1.465
 3442TIP3    H210268   8.227   6.948   1.524
 3443TIP3   OH210269   0.391   1.327   2.496
 3443TIP3    H110270   0.457   1.364   2.437
 3443TIP3    H210271   0.308   1.341   2.450
 3444TIP3   OH210272   4.279   7.717   3.824
 3444TIP3    H110273   4.240   7.666   3.753
 3444TIP3    H210274   4.349   7.767   3.783
 3445TIP3   OH210275   2.102   5.083   0.396
 3445TIP3    H110276   2.165   5.014   0.374
 3445TIP3    H210277   2.033   5.037   0.445
 3446TIP3   OH210278   5.858   5.290   0.595
 3446TIP3    H110279   5.779   5.245   0.566
 3446TIP3    H210280   5.919   5.220   0.617
 3447TIP3   OH210281   6.063   4.103   5.820
 3447TIP3    H110282   6.070   4.074   5.911
 3447TIP3    H210283   5.986   4.159   5.818
 3448TIP3   OH210284   2.896   6.533   2.249
 3448TIP3    H110285   2.830   6.480   2.205
 3448TIP3    H210286   2.932   6.476   2.317
 3449TIP3   OH210287   1.853   2.830   2.677
 3449TIP3    H110288   1.899   2.861   2.755
 3449TIP3    H210289   1.779   2.781   2.711
 3450TIP3   OH210290   1.445   0.203   4.807
 3450TIP3    H110291   1.477   0.172   4.722
 3450TIP3    H210292   1.500   0.279   4.827
 3451TIP3   OH210293   7.493   6.929   6.277
 3451TIP3    H110294   7.528   6.870   6.344
 3451TIP3    H210295   7.464   6.871   6.207
 3452TIP3   OH210296   5.150   0.618   3.628
 3452TIP3    H110297   5.218   0.684   3.614
 3452TIP3    H210298   5.143   0.573   3.544
 3453TIP3   OH210299   2.513   6.501   3.450
 3453TIP3    H110300   2.429   6.506   3.404
 3453TIP3    H210301   2.509   6.572   3.514
 3454TIP3   OH210302   7.980   0.130   3.632
 3454TIP3    H110303   7.917   0.063   3.657
 3454TIP3    H210304   7.955   0.155   3.543
 3455TIP3   OH210305   8.295   2.637   2.923
 3455TIP3    H110306   8.355   2.563   2.931
 3455TIP3    H210307   8.351   2.710   2.899
 3456TIP3   OH210308   0.830   6.189   2.778
 3456TIP3    H110309   0.751   6.211   2.828
 3456TIP3    H210310   0.892   6.259   2.799
 3457TIP3   OH210311   2.014   5.093   2.942
 3457TIP3    H110312   1.954   5.039   2.993
 3457TIP3    H210313   2.062   5.031   2.887
 3458TIP3   OH210314   5.831   1.058   0.060
 3458TIP3    H110315   5.901   1.095   0.114
 3458TIP3    H210316   5.750   1.094   0.096
 3459TIP3   OH210317   6.333   3.527   4.783
 3459TIP3    H110318   6.352   3.605   4.836
 3459TIP3    H210319   6.370   3.455   4.834
 3460TIP3   OH210320   5.559   7.233   2.384
 3460TIP3    H110321   5.577   7.140   2.368
 3460TIP3    H210322   5.638   7.278   2.355
 3461TIP3   OH210323   5.072   4.364   2.029
 3461TIP3    H110324   5.054   4.270   2.042
 3461TIP3    H210325   5.061   4.377   1.935
 3462TIP3   OH210326   0.898   0.165   1.826
 3462TIP3    H110327   0.943   0.249   1.820
 3462TIP3    H210328   0.936   0.122   1.902
 3463TIP3   OH210329   3.766   3.856   3.001
 3463TIP3    H110330   3.815   3.775   3.009
 3463TIP3    H210331   3.697   3.836   2.937
 3464TIP3   OH210332   2.309   0.226   2.699
 3464TIP3    H110333   2.390   0.251   2.743
 3464TIP3    H210334   2.275   0.308   2.663
 3465TIP3   OH210335   3.994   5.643   5.407
 3465TIP3    H110336   4.077   5.689   5.398
 3465TIP3    H210337   4.005   5.563   5.356
 3466TIP3   OH210338   7.977   1.019   0.641
 3466TIP3    H110339   7.906   0.975   0.594
 3466TIP3    H210340   8.050   1.019   0.579
 3467TIP3   OH210341   0.840   7.553   6.539
 3467TIP3    H110342   0.859   7.475   6.592
 3467TIP3    H210343   0.758   7.587   6.575
 3468TIP3   OH210344   6.494   2.728   3.742
 3468TIP3    H110345   6.425   2.756   3.802
 3468TIP3    H210346   6.537   2.655   3.787
 3469TIP3   OH210347   7.749   6.932   3.133
 3469TIP3    H110348   7.660   6.907   3.157
 3469TIP3    H210349   7.758   6.900   3.043
 3470TIP3   OH210350   7.771   7.592   0.420
 3470TIP3    H110351   7.753   7.505   0.455
 3470TIP3    H210352   7.698   7.609   0.361
 3471TIP3   OH210353   1.429   4.257   6.423
 3471TIP3    H110354   1.365   4.188   6.441
 3471TIP3    H210355   1.400   4.296   6.341
 3472TIP3   OH210356   5.764   5.932   6.053
 3472TIP3    H110357   5.730   5.973   5.973
 3472TIP3    H210358   5.694   5.872   6.080
 3473TIP3   OH210359   7.575   7.025   0.951
 3473TIP3    H110360   7.564   7.091   1.019
 3473TIP3    H210361   7.497   6.970   0.958
 3474TIP3   OH210362   6.465   3.605   4.073
 3474TIP3    H110363   6.540   3.568   4.119
 3474TIP3    H210364   6.480   3.584   3.981
 3475TIP3   OH210365   7.166   6.705   6.762
 3475TIP3    H110366   7.167   6.609   6.757
 3475TIP3    H210367   7.259   6.730   6.761
 3476TIP3   OH210368   4.752   2.292   0.909
 3476TIP3    H110369   4.778   2.202   0.891
 3476TIP3    H210370   4.706   2.321   0.830
 3477TIP3   OH210371   5.929   4.544   6.064
 3477TIP3    H110372   5.893   4.576   5.981
 3477TIP3    H210373   5.854   4.508   6.111
 3478TIP3   OH210374   7.806   2.955   2.592
 3478TIP3    H110375   7.735   2.996   2.640
 3478TIP3    H210376   7.782   2.863   2.586
 3479TIP3   OH210377   0.298   6.989   1.728
 3479TIP3    H110378   0.319   7.078   1.699
 3479TIP3    H210379   0.208   6.995   1.759
 3480TIP3   OH210380   1.713   2.281   2.952
 3480TIP3    H110381   1.728   2.375   2.963
 3480TIP3    H210382   1.623   2.268   2.981
 3481TIP3   OH210383   3.935   6.051   6.523
 3481TIP3    H110384   3.894   6.100   6.451
 3481TIP3    H210385   3.875   5.978   6.539
 3482TIP3   OH210386   0.881   6.831   1.333
 3482TIP3    H110387   0.878   6.737   1.350
 3482TIP3    H210388   0.887   6.838   1.238
 3483TIP3   OH210389   5.843   7.137   6.556
 3483TIP3    H110390   5.899   7.100   6.624
 3483TIP3    H210391   5.763   7.161   6.601
 3484TIP3   OH210392   2.934   7.506   1.970
 3484TIP3    H110393   3.011   7.562   1.985
 3484TIP3    H210394   2.945   7.434   2.033
 3485TIP3   OH210395   1.689   2.418   6.204
 3485TIP3    H110396   1.728   2.370   6.277
 3485TIP3    H210397   1.595   2.402   6.212
 3486TIP3   OH210398   6.195   5.657   2.032
 3486TIP3    H110399   6.165   5.747   2.050
 3486TIP3    H210400   6.114   5.607   2.023
 3487TIP3   OH210401   3.969   3.214   2.185
 3487TIP3    H110402   3.987   3.198   2.093
 3487TIP3    H210403   3.923   3.298   2.185
 3488TIP3   OH210404   8.306   3.887   0.020
 3488TIP3    H110405   8.377   3.943   0.053
 3488TIP3    H210406   8.346   3.836  -0.050
 3489TIP3   OH210407   6.238   4.039   3.481
 3489TIP3    H110408   6.153   4.082   3.474
 3489TIP3    H210409   6.218   3.946   3.476
 3490TIP3   OH210410   3.396   5.396   3.800
 3490TIP3    H110411   3.367   5.342   3.726
 3490TIP3    H210412   3.314   5.422   3.844
 3491TIP3   OH210413   6.049   1.356   0.685
 3491TIP3    H110414   6.032   1.282   0.626
 3491TIP3    H210415   6.124   1.327   0.738
 3492TIP3   OH210416   7.137   0.934   6.189
 3492TIP3    H110417   7.227   0.905   6.204
 3492TIP3    H210418   7.124   1.005   6.252
 3493TIP3   OH210419   1.804   0.807   2.624
 3493TIP3    H110420   1.820   0.793   2.718
 3493TIP3    H210421   1.875   0.864   2.596
 3494TIP3   OH210422   5.011   1.891   4.217
 3494TIP3    H110423   4.950   1.883   4.290
 3494TIP3    H210424   5.077   1.954   4.248
 3495TIP3   OH210425   3.269   4.452   3.847
 3495TIP3    H110426   3.357   4.427   3.876
 3495TIP3    H210427   3.283   4.523   3.786
 3496TIP3   OH210428   4.699   1.059   3.235
 3496TIP3    H110429   4.678   0.978   3.188
 3496TIP3    H210430   4.653   1.128   3.187
 3497TIP3   OH210431   6.211   3.129   0.179
 3497TIP3    H110432   6.271   3.057   0.162
 3497TIP3    H210433   6.124   3.089   0.178
 3498TIP3   OH210434   2.665   1.151   6.432
 3498TIP3    H110435   2.573   1.128   6.449
 3498TIP3    H210436   2.688   1.212   6.501
 3499TIP3   OH210437   4.971   5.115   6.741
 3499TIP3    H110438   5.004   5.170   6.812
 3499TIP3    H210439   4.963   5.174   6.666
 3500TIP3   OH210440   6.227   7.449   4.075
 3500TIP3    H110441   6.163   7.476   4.009
 3500TIP3    H210442   6.191   7.481   4.157
 3501TIP3   OH210443   1.956   1.416   5.854
 3501TIP3    H110444   1.925   1.442   5.767
 3501TIP3    H210445   2.040   1.374   5.838
 3502TIP3   OH210446   6.987   3.555   3.651
 3502TIP3    H110447   7.017   3.552   3.742
 3502TIP3    H210448   7.008   3.469   3.616
 3503TIP3   OH210449   4.505   6.466   4.023
 3503TIP3    H110450   4.417   6.483   4.056
 3503TIP3    H210451   4.502   6.377   3.989
 3504TIP3   OH210452   3.467   1.257   1.304
 3504TIP3    H110453   3.383   1.269   1.260
 3504TIP3    H210454   3.446   1.257   1.397
 3505TIP3   OH210455   0.699   6.536   4.382
 3505TIP3    H110456   0.778   6.498   4.419
 3505TIP3    H210457   0.670   6.472   4.317
 3506TIP3   OH210458   3.841   4.008   4.161
 3506TIP3    H110459   3.766   3.989   4.217
 3506TIP3    H210460   3.818   4.089   4.116
 3507TIP3   OH210461   2.890   0.396   1.295
 3507TIP3    H110462   2.883   0.490   1.310
 3507TIP3    H210463   2.805   0.370   1.260
 3508TIP3   OH210464   1.987   7.353   5.431
 3508TIP3    H110465   1.905   7.304   5.422
 3508TIP3    H210466   1.983   7.418   5.360
 3509TIP3   OH210467   4.782   4.633   1.149
 3509TIP3    H110468   4.776   4.547   1.191
 3509TIP3    H210469   4.811   4.614   1.060
 3510TIP3   OH210470   7.415   0.887   6.132
 3510TIP3    H110471   7.452   0.972   6.108
 3510TIP3    H210472   7.491   0.833   6.153
 3511TIP3   OH210473   5.539   6.365   6.422
 3511TIP3    H110474   5.507   6.329   6.505
 3511TIP3    H210475   5.603   6.301   6.391
 3512TIP3   OH210476   6.252   0.502   0.803
 3512TIP3    H110477   6.253   0.439   0.731
 3512TIP3    H210478   6.276   0.450   0.880
 3513TIP3   OH210479   7.989   4.503   0.198
 3513TIP3    H110480   7.909   4.501   0.250
 3513TIP3    H210481   7.968   4.559   0.123
 3514TIP3   OH210482   7.702   2.583   5.646
 3514TIP3    H110483   7.622   2.575   5.697
 3514TIP3    H210484   7.701   2.506   5.588
 3515TIP3   OH210485   2.313   2.251   4.130
 3515TIP3    H110486   2.291   2.301   4.052
 3515TIP3    H210487   2.254   2.175   4.128
 3516TIP3   OH210488   0.840   7.314   4.967
 3516TIP3    H110489   0.745   7.316   4.965
 3516TIP3    H210490   0.862   7.295   5.058
 3517TIP3   OH210491   8.148   6.517   0.808
 3517TIP3    H110492   8.109   6.458   0.743
 3517TIP3    H210493   8.073   6.559   0.850
 3518TIP3   OH210494   7.033   1.012   0.429
 3518TIP3    H110495   7.048   1.090   0.374
 3518TIP3    H210496   7.120   0.978   0.447
 3519TIP3   OH210497   5.314   5.893   3.548
 3519TIP3    H110498   5.264   5.866   3.471
 3519TIP3    H210499   5.405   5.893   3.518
 3520TIP3   OH210500   5.144   7.291   1.495
 3520TIP3    H110501   5.056   7.321   1.516
 3520TIP3    H210502   5.131   7.219   1.433
 3521TIP3   OH210503   3.737   6.602   0.405
 3521TIP3    H110504   3.759   6.627   0.495
 3521TIP3    H210505   3.657   6.651   0.386
 3522TIP3   OH210506   6.517   6.990   1.671
 3522TIP3    H110507   6.529   7.011   1.578
 3522TIP3    H210508   6.584   6.924   1.689
 3523TIP3   OH210509   6.421   4.372   1.100
 3523TIP3    H110510   6.396   4.283   1.076
 3523TIP3    H210511   6.399   4.378   1.193
 3524TIP3   OH210512   6.605   5.472   6.613
 3524TIP3    H110513   6.607   5.532   6.539
 3524TIP3    H210514   6.529   5.416   6.597
 3525TIP3   OH210515   2.370   7.681   1.706
 3525TIP3    H110516   2.323   7.619   1.761
 3525TIP3    H210517   2.386   7.757   1.762
 3526TIP3   OH210518   2.284   4.738   6.735
 3526TIP3    H110519   2.376   4.748   6.761
 3526TIP3    H210520   2.250   4.671   6.795
 3527TIP3   OH210521   1.827   5.926   2.814
 3527TIP3    H110522   1.742   5.891   2.788
 3527TIP3    H210523   1.848   5.991   2.748
 3528TIP3   OH210524   1.560   6.216   5.916
 3528TIP3    H110525   1.621   6.235   5.845
 3528TIP3    H210526   1.579   6.125   5.941
 3529TIP3   OH210527   4.354   0.146   6.029
 3529TIP3    H110528   4.261   0.137   6.006
 3529TIP3    H210529   4.385   0.217   5.973
 3530TIP3   OH210530   6.859   6.358   6.178
 3530TIP3    H110531   6.943   6.402   6.191
 3530TIP3    H210532   6.880   6.284   6.121
 3531TIP3   OH210533   4.241   6.553   3.451
 3531TIP3    H110534   4.266   6.643   3.474
 3531TIP3    H210535   4.293   6.533   3.373
 3532TIP3   OH210536   6.235   7.474   5.024
 3532TIP3    H110537   6.200   7.437   4.943
 3532TIP3    H210538   6.163   7.528   5.058
 3533TIP3   OH210539   4.974   0.489   1.120
 3533TIP3    H110540   4.989   0.514   1.212
 3533TIP3    H210541   4.882   0.463   1.118
 3534TIP3   OH210542   3.117   7.606   5.386
 3534TIP3    H110543   3.091   7.540   5.321
 3534TIP3    H210544   3.210   7.620   5.370
 3535TIP3   OH210545   0.957   1.896   6.075
 3535TIP3    H110546   0.914   1.918   5.992
 3535TIP3    H210547   0.946   1.801   6.084
 3536TIP3   OH210548   3.732   0.497   4.855
 3536TIP3    H110549   3.818   0.482   4.895
 3536TIP3    H210550   3.720   0.592   4.859
 3537TIP3   OH210551   4.320   1.381   1.943
 3537TIP3    H110552   4.254   1.439   1.980
 3537TIP3    H210553   4.392   1.439   1.917
 3538TIP3   OH210554   1.070   2.783   5.350
 3538TIP3    H110555   1.027   2.791   5.265
 3538TIP3    H210556   0.999   2.759   5.410
 3539TIP3   OH210557   5.768   0.062   2.796
 3539TIP3    H110558   5.693   0.032   2.747
 3539TIP3    H210559   5.843   0.015   2.759
 3540TIP3   OH210560   6.430   5.982   0.230
 3540TIP3    H110561   6.410   6.049   0.296
 3540TIP3    H210562   6.446   6.032   0.150
 3541TIP3   OH210563   5.097   0.628   0.658
 3541TIP3    H110564   5.185   0.608   0.691
 3541TIP3    H210565   5.044   0.640   0.737
 3542TIP3   OH210566   3.787   5.797   5.488
 3542TIP3    H110567   3.762   5.757   5.571
 3542TIP3    H210568   3.861   5.745   5.457
 3543TIP3   OH210569   6.192   4.683   0.520
 3543TIP3    H110570   6.146   4.742   0.460
 3543TIP3    H210571   6.284   4.691   0.495
 3544TIP3   OH210572   8.181   5.339   6.005
 3544TIP3    H110573   8.132   5.257   6.000
 3544TIP3    H210574   8.233   5.330   6.085
 3545TIP3   OH210575   0.766   6.140   4.897
 3545TIP3    H110576   0.772   6.228   4.860
 3545TIP3    H210577   0.800   6.149   4.986
 3546TIP3   OH210578   1.568   2.070   0.320
 3546TIP3    H110579   1.550   2.033   0.233
 3546TIP3    H210580   1.482   2.077   0.361
 3547TIP3   OH210581   6.162   2.217   5.760
 3547TIP3    H110582   6.226   2.272   5.805
 3547TIP3    H210583   6.095   2.278   5.730
 3548TIP3   OH210584   0.217   4.771   2.342
 3548TIP3    H110585   0.137   4.766   2.394
 3548TIP3    H210586   0.274   4.704   2.379
 3549TIP3   OH210587   1.703   1.763   0.929
 3549TIP3    H110588   1.746   1.842   0.895
 3549TIP3    H210589   1.740   1.692   0.878
 3550TIP3   OH210590   5.615   1.513   1.711
 3550TIP3    H110591   5.575   1.458   1.778
 3550TIP3    H210592   5.683   1.459   1.672
 3551TIP3   OH210593   1.793   7.851   0.267
 3551TIP3    H110594   1.838   7.866   0.184
 3551TIP3    H210595   1.700   7.859   0.247
 3552TIP3   OH210596   3.756   6.924   0.461
 3552TIP3    H110597   3.755   6.924   0.557
 3552TIP3    H210598   3.666   6.900   0.437
 3553TIP3   OH210599   8.155   7.730   0.140
 3553TIP3    H110600   8.159   7.677   0.060
 3553TIP3    H210601   8.106   7.676   0.202
 3554TIP3   OH210602   5.369   1.417   4.481
 3554TIP3    H110603   5.398   1.436   4.570
 3554TIP3    H210604   5.416   1.481   4.426
 3555TIP3   OH210605   1.411   7.395   5.711
 3555TIP3    H110606   1.479   7.419   5.774
 3555TIP3    H210607   1.345   7.350   5.763
 3556TIP3   OH210608   1.676   7.186   5.728
 3556TIP3    H110609   1.642   7.145   5.648
 3556TIP3    H210610   1.684   7.279   5.706
 3557TIP3   OH210611   4.455   4.126   6.384
 3557TIP3    H110612   4.429   4.115   6.476
 3557TIP3    H210613   4.375   4.158   6.341
 3558TIP3   OH210614   2.049   6.896   5.078
 3558TIP3    H110615   2.003   6.843   5.012
 3558TIP3    H210616   2.062   6.837   5.151
 3559TIP3   OH210617   3.456   2.877   6.497
 3559TIP3    H110618   3.399   2.839   6.430
 3559TIP3    H210619   3.420   2.846   6.580
 3560TIP3   OH210620   2.677   1.380   5.343
 3560TIP3    H110621   2.731   1.352   5.417
 3560TIP3    H210622   2.595   1.332   5.353
 3561TIP3   OH210623   1.014   1.448   2.900
 3561TIP3    H110624   0.966   1.459   2.817
 3561TIP3    H210625   0.984   1.363   2.933
 3562TIP3   OH210626   5.877   1.609   0.626
 3562TIP3    H110627   5.889   1.703   0.638
 3562TIP3    H210628   5.958   1.569   0.656
 3563TIP3   OH210629   6.871   5.013   0.150
 3563TIP3    H110630   6.820   5.001   0.070
 3563TIP3    H210631   6.957   5.043   0.120
 3564TIP3   OH210632   1.427   5.697   6.126
 3564TIP3    H110633   1.390   5.786   6.125
 3564TIP3    H210634   1.430   5.673   6.218
 3565TIP3   OH210635   1.102   1.902   5.189
 3565TIP3    H110636   1.102   1.925   5.281
 3565TIP3    H210637   1.053   1.972   5.146
 3566TIP3   OH210638   4.264   4.088   2.917
 3566TIP3    H110639   4.279   4.004   2.873
 3566TIP3    H210640   4.171   4.106   2.904
 3567TIP3   OH210641   1.886   5.679   6.407
 3567TIP3    H110642   1.942   5.712   6.478
 3567TIP3    H210643   1.942   5.618   6.359
 3568TIP3   OH210644   4.846   5.740   2.273
 3568TIP3    H110645   4.867   5.678   2.342
 3568TIP3    H210646   4.837   5.824   2.318
 3569TIP3   OH210647   7.417   7.060   4.345
 3569TIP3    H110648   7.380   7.117   4.278
 3569TIP3    H210649   7.355   6.987   4.351
 3570TIP3   OH210650   6.375   4.638   3.140
 3570TIP3    H110651   6.447   4.632   3.077
 3570TIP3    H210652   6.343   4.548   3.149
 3571TIP3   OH210653   2.145   6.776   0.428
 3571TIP3    H110654   2.171   6.797   0.339
 3571TIP3    H210655   2.052   6.799   0.433
 3572TIP3   OH210656   1.142   5.000   4.892
 3572TIP3    H110657   1.127   4.920   4.942
 3572TIP3    H210658   1.182   4.970   4.810
 3573TIP3   OH210659   5.652   2.179   3.380
 3573TIP3    H110660   5.652   2.092   3.338
 3573TIP3    H210661   5.720   2.228   3.334
 3574TIP3   OH210662   1.273   3.796   5.489
 3574TIP3    H110663   1.245   3.813   5.399
 3574TIP3    H210664   1.354   3.846   5.499
 3575TIP3   OH210665   0.438   6.992   6.683
 3575TIP3    H110666   0.395   6.955   6.606
 3575TIP3    H210667   0.481   7.071   6.650
 3576TIP3   OH210668   6.293   6.921   3.572
 3576TIP3    H110669   6.301   6.939   3.666
 3576TIP3    H210670   6.383   6.910   3.542
 3577TIP3   OH210671   0.132   1.093   6.363
 3577TIP3    H110672   0.129   1.122   6.272
 3577TIP3    H210673   0.204   1.143   6.402
 3578TIP3   OH210674   3.047   3.062   3.310
 3578TIP3    H110675   3.126   3.095   3.352
 3578TIP3    H210676   3.078   2.994   3.250
 3579TIP3   OH210677   0.476   2.907   1.049
 3579TIP3    H110678   0.464   2.820   1.085
 3579TIP3    H210679   0.571   2.918   1.043
 3580TIP3   OH210680   7.746   3.410   3.694
 3580TIP3    H110681   7.688   3.361   3.635
 3580TIP3    H210682   7.697   3.489   3.716
 3581TIP3   OH210683   5.593   2.798   2.581
 3581TIP3    H110684   5.600   2.752   2.665
 3581TIP3    H210685   5.629   2.737   2.517
 3582TIP3   OH210686   3.200   7.497   1.357
 3582TIP3    H110687   3.107   7.511   1.338
 3582TIP3    H210688   3.224   7.423   1.302
 3583TIP3   OH210689   0.679   3.443   4.709
 3583TIP3    H110690   0.746   3.456   4.642
 3583TIP3    H210691   0.603   3.409   4.661
 3584TIP3   OH210692   7.545   6.111   0.570
 3584TIP3    H110693   7.477   6.057   0.610
 3584TIP3    H210694   7.624   6.057   0.574
 3585TIP3   OH210695   7.063   3.235   0.520
 3585TIP3    H110696   7.003   3.243   0.446
 3585TIP3    H210697   7.130   3.174   0.490
 3586TIP3   OH210698   1.170   6.823   4.120
 3586TIP3    H110699   1.263   6.811   4.139
 3586TIP3    H210700   1.137   6.735   4.106
 3587TIP3   OH210701   3.388   6.219   5.122
 3587TIP3    H110702   3.391   6.152   5.190
 3587TIP3    H210703   3.346   6.294   5.165
 3588TIP3   OH210704   6.149   6.806   0.725
 3588TIP3    H110705   6.097   6.772   0.652
 3588TIP3    H210706   6.144   6.901   0.715
 3589TIP3   OH210707   0.542   1.696   4.321
 3589TIP3    H110708   0.559   1.715   4.413
 3589TIP3    H210709   0.594   1.617   4.303
 3590TIP3   OH210710   5.059   6.501   6.639
 3590TIP3    H110711   5.013   6.483   6.557
 3590TIP3    H210712   5.107   6.582   6.621
 3591TIP3   OH210713   4.306   3.872   1.580
 3591TIP3    H110714   4.362   3.797   1.595
 3591TIP3    H210715   4.355   3.947   1.614
 3592TIP3   OH210716   6.914   7.286   5.487
 3592TIP3    H110717   7.006   7.281   5.461
 3592TIP3    H210718   6.866   7.269   5.406
 3593TIP3   OH210719   7.752   0.910   5.513
 3593TIP3    H110720   7.662   0.914   5.546
 3593TIP3    H210721   7.802   0.873   5.586
 3594TIP3   OH210722   5.479   6.011   6.868
 3594TIP3    H110723   5.388   6.039   6.865
 3594TIP3    H210724   5.509   6.014   6.777
 3595TIP3   OH210725   0.330   3.285   1.226
 3595TIP3    H110726   0.333   3.376   1.256
 3595TIP3    H210727   0.270   3.287   1.151
 3596TIP3   OH210728   8.264   3.673   2.074
 3596TIP3    H110729   8.218   3.696   1.993
 3596TIP3    H210730   8.195   3.664   2.140
 3597TIP3   OH210731   0.242   3.137   5.986
 3597TIP3    H110732   0.201   3.060   6.026
 3597TIP3    H210733   0.188   3.154   5.909
 3598TIP3   OH210734   3.469   3.693   6.587
 3598TIP3    H110735   3.541   3.639   6.557
 3598TIP3    H210736   3.395   3.633   6.597
 3599TIP3   OH210737   7.149   6.495   4.515
 3599TIP3    H110738   7.176   6.501   4.423
 3599TIP3    H210739   7.055   6.512   4.513
 3600TIP3   OH210740   4.563   5.313   4.359
 3600TIP3    H110741   4.550   5.274   4.272
 3600TIP3    H210742   4.649   5.283   4.387
 3601TIP3   OH210743   6.646   2.434   6.631
 3601TIP3    H110744   6.624   2.481   6.712
 3601TIP3    H210745   6.722   2.481   6.596
 3602TIP3   OH210746   8.071   6.663   5.334
 3602TIP3    H110747   8.029   6.586   5.372
 3602TIP3    H210748   8.056   6.654   5.239
 3603TIP3   OH210749   3.336   4.950   4.605
 3603TIP3    H110750   3.411   4.934   4.548
 3603TIP3    H210751   3.358   4.905   4.687
 3604TIP3   OH210752   6.051   7.840   2.109
 3604TIP3    H110753   6.070   7.815   2.200
 3604TIP3    H210754   5.956   7.844   2.104
 3605TIP3   OH210755   8.069   4.491   5.359
 3605TIP3    H110756   8.105   4.579   5.355
 3605TIP3    H210757   8.009   4.493   5.434
 3606TIP3   OH210758   0.178   1.924   5.161
 3606TIP3    H110759   0.176   1.855   5.094
 3606TIP3    H210760   0.263   1.913   5.203
 3607TIP3   OH210761   1.311   1.971   6.402
 3607TIP3    H110762   1.286   2.033   6.471
 3607TIP3    H210763   1.401   1.994   6.381
 3608TIP3   OH210764   4.287   6.807   3.533
 3608TIP3    H110765   4.282   6.883   3.476
 3608TIP3    H210766   4.238   6.832   3.611
 3609TIP3   OH210767   7.814   1.013   2.397
 3609TIP3    H110768   7.725   1.045   2.412
 3609TIP3    H210769   7.846   0.988   2.484
 3610TIP3   OH210770   7.756   2.520   4.060
 3610TIP3    H110771   7.735   2.427   4.057
 3610TIP3    H210772   7.694   2.557   4.122
 3611TIP3   OH210773   1.274   7.601   4.757
 3611TIP3    H110774   1.315   7.578   4.840
 3611TIP3    H210775   1.344   7.593   4.692
 3612TIP3   OH210776   4.937   4.149   5.182
 3612TIP3    H110777   4.906   4.059   5.185
 3612TIP3    H210778   4.938   4.171   5.089
 3613TIP3   OH210779   3.421   3.334   0.147
 3613TIP3    H110780   3.478   3.364   0.219
 3613TIP3    H210781   3.366   3.410   0.127
 3614TIP3   OH210782   0.284   4.083   4.402
 3614TIP3    H110783   0.196   4.082   4.365
 3614TIP3    H210784   0.270   4.104   4.495
 3615TIP3   OH210785   5.528   0.889   5.318
 3615TIP3    H110786   5.515   0.832   5.395
 3615TIP3    H210787   5.472   0.965   5.335
 3616TIP3   OH210788   1.973   0.458   0.648
 3616TIP3    H110789   1.903   0.421   0.703
 3616TIP3    H210790   1.937   0.454   0.559
 3617TIP3   OH210791   7.741   0.229   3.890
 3617TIP3    H110792   7.794   0.215   3.968
 3617TIP3    H210793   7.754   0.151   3.837
 3618TIP3   OH210794   6.815   6.581   2.458
 3618TIP3    H110795   6.721   6.577   2.474
 3618TIP3    H210796   6.827   6.540   2.372
 3619TIP3   OH210797   6.229   3.732   5.863
 3619TIP3    H110798   6.286   3.807   5.848
 3619TIP3    H210799   6.195   3.744   5.951
 3620TIP3   OH210800   2.861   7.158   2.962
 3620TIP3    H110801   2.792   7.152   2.895
 3620TIP3    H210802   2.914   7.233   2.935
 3621TIP3   OH210803   3.340   5.631   4.266
 3621TIP3    H110804   3.292   5.549   4.280
 3621TIP3    H210805   3.417   5.622   4.322
 3622TIP3   OH210806   0.771   6.428   6.243
 3622TIP3    H110807   0.710   6.429   6.169
 3622TIP3    H210808   0.778   6.336   6.267
 3623TIP3   OH210809   1.105   7.913   6.759
 3623TIP3    H110810   1.014   7.884   6.765
 3623TIP3    H210811   1.156   7.834   6.777
 3624TIP3   OH210812   4.617   0.679   5.945
 3624TIP3    H110813   4.698   0.672   5.896
 3624TIP3    H210814   4.594   0.772   5.942
 3625TIP3   OH210815   3.836   3.730   2.739
 3625TIP3    H110816   3.888   3.788   2.683
 3625TIP3    H210817   3.755   3.779   2.755
 3626TIP3   OH210818   2.831   7.149   5.902
 3626TIP3    H110819   2.896   7.206   5.944
 3626TIP3    H210820   2.866   7.061   5.913
 3627TIP3   OH210821   3.552   7.460   0.949
 3627TIP3    H110822   3.624   7.522   0.958
 3627TIP3    H210823   3.594   7.374   0.952
 3628TIP3   OH210824   5.069   0.742   3.400
 3628TIP3    H110825   5.103   0.788   3.324
 3628TIP3    H210826   5.088   0.800   3.474
 3629TIP3   OH210827   6.912   1.294   1.977
 3629TIP3    H110828   6.981   1.241   2.018
 3629TIP3    H210829   6.955   1.336   1.903
 3630TIP3   OH210830   0.093   3.770   1.579
 3630TIP3    H110831   0.039   3.815   1.514
 3630TIP3    H210832   0.052   3.790   1.663
 3631TIP3   OH210833   2.124   4.470   1.782
 3631TIP3    H110834   2.079   4.402   1.831
 3631TIP3    H210835   2.182   4.422   1.723
 3632TIP3   OH210836   6.511   3.297   2.497
 3632TIP3    H110837   6.473   3.249   2.569
 3632TIP3    H210838   6.439   3.348   2.460
 3633TIP3   OH210839   0.684   2.958   1.642
 3633TIP3    H110840   0.650   2.987   1.558
 3633TIP3    H210841   0.738   3.031   1.673
 3634TIP3   OH210842   6.225   2.113   3.481
 3634TIP3    H110843   6.206   2.086   3.391
 3634TIP3    H210844   6.317   2.089   3.495
 3635TIP3   OH210845   7.113   6.279   3.093
 3635TIP3    H110846   7.037   6.320   3.053
 3635TIP3    H210847   7.188   6.319   3.049
 3636TIP3   OH210848   6.035   7.237   3.373
 3636TIP3    H110849   6.104   7.221   3.436
 3636TIP3    H210850   6.069   7.204   3.290
 3637TIP3   OH210851   0.103   4.481   6.174
 3637TIP3    H110852   0.127   4.455   6.264
 3637TIP3    H210853   0.054   4.406   6.141
 3638TIP3   OH210854   3.696   7.372   0.380
 3638TIP3    H110855   3.603   7.353   0.367
 3638TIP3    H210856   3.708   7.374   0.475
 3639TIP3   OH210857   4.356   6.429   1.352
 3639TIP3    H110858   4.274   6.380   1.348
 3639TIP3    H210859   4.335   6.514   1.314
 3640TIP3   OH210860   1.509   4.414   3.698
 3640TIP3    H110861   1.591   4.464   3.699
 3640TIP3    H210862   1.495   4.393   3.605
 3641TIP3   OH210863   6.395   6.837   4.326
 3641TIP3    H110864   6.405   6.785   4.406
 3641TIP3    H210865   6.466   6.806   4.269
 3642TIP3   OH210866   6.777   4.311   1.031
 3642TIP3    H110867   6.693   4.339   0.994
 3642TIP3    H210868   6.805   4.385   1.084
 3643TIP3   OH210869   6.780   5.824   6.380
 3643TIP3    H110870   6.833   5.855   6.306
 3643TIP3    H210871   6.690   5.847   6.356
 3644TIP3   OH210872   7.659   1.593   1.983
 3644TIP3    H110873   7.670   1.647   1.905
 3644TIP3    H210874   7.728   1.526   1.976
 3645TIP3   OH210875   6.001   6.035   1.331
 3645TIP3    H110876   6.097   6.033   1.336
 3645TIP3    H210877   5.972   6.022   1.421
 3646TIP3   OH210878   2.198   4.834   3.760
 3646TIP3    H110879   2.252   4.912   3.777
 3646TIP3    H210880   2.258   4.772   3.720
 3647TIP3   OH210881   6.116   2.310   4.110
 3647TIP3    H110882   6.048   2.376   4.126
 3647TIP3    H210883   6.076   2.250   4.048
 3648TIP3   OH210884   0.154   2.929   4.708
 3648TIP3    H110885   0.157   3.024   4.693
 3648TIP3    H210886   0.083   2.899   4.652
 3649TIP3   OH210887   2.199   6.616   4.881
 3649TIP3    H110888   2.161   6.696   4.844
 3649TIP3    H210889   2.293   6.632   4.883
 3650TIP3   OH210890   0.416   4.589   0.516
 3650TIP3    H110891   0.389   4.607   0.606
 3650TIP3    H210892   0.492   4.645   0.502
 3651TIP3   OH210893   1.889   1.212   6.303
 3651TIP3    H110894   1.836   1.276   6.352
 3651TIP3    H210895   1.867   1.228   6.212
 3652TIP3   OH210896   4.952   7.648   6.271
 3652TIP3    H110897   4.999   7.698   6.205
 3652TIP3    H210898   4.862   7.644   6.238
 3653TIP3   OH210899   5.372   6.414   5.806
 3653TIP3    H110900   5.396   6.325   5.831
 3653TIP3    H210901   5.300   6.404   5.744
 3654TIP3   OH210902   7.047   6.268   2.380
 3654TIP3    H110903   7.083   6.220   2.305
 3654TIP3    H210904   6.998   6.340   2.341
 3655TIP3   OH210905   2.313   5.110   3.710
 3655TIP3    H110906   2.376   5.161   3.660
 3655TIP3    H210907   2.228   5.128   3.670
 3656TIP3   OH210908   7.536   0.232   5.364
 3656TIP3    H110909   7.622   0.239   5.321
 3656TIP3    H210910   7.556   0.198   5.451
 3657TIP3   OH210911   7.022   2.242   4.673
 3657TIP3    H110912   6.960   2.306   4.708
 3657TIP3    H210913   7.082   2.294   4.620
 3658TIP3   OH210914   2.169   6.717   4.085
 3658TIP3    H110915   2.255   6.700   4.045
 3658TIP3    H210916   2.160   6.649   4.151
 3659TIP3   OH210917   7.805   5.492   0.229
 3659TIP3    H110918   7.766   5.577   0.209
 3659TIP3    H210919   7.853   5.506   0.311
 3660TIP3   OH210920   2.039   0.771   3.413
 3660TIP3    H110921   2.127   0.735   3.414
 3660TIP3    H210922   2.044   0.850   3.467
 3661TIP3   OH210923   7.061   0.616   3.120
 3661TIP3    H110924   7.138   0.576   3.079
 3661TIP3    H210925   7.097   0.684   3.177
 3662TIP3   OH210926   1.725   5.457   5.845
 3662TIP3    H110927   1.802   5.501   5.810
 3662TIP3    H210928   1.652   5.491   5.793
 3663TIP3   OH210929   2.160   7.436   5.999
 3663TIP3    H110930   2.185   7.394   5.917
 3663TIP3    H210931   2.240   7.476   6.032
 3664TIP3   OH210932   4.607   4.158   5.171
 3664TIP3    H110933   4.538   4.194   5.116
 3664TIP3    H210934   4.681   4.144   5.112
 3665TIP3   OH210935   2.316   6.483   1.886
 3665TIP3    H110936   2.243   6.439   1.842
 3665TIP3    H210937   2.301   6.576   1.869
 3666TIP3   OH210938   5.117   3.991   6.252
 3666TIP3    H110939   5.153   3.916   6.204
 3666TIP3    H210940   5.173   4.065   6.225
 3667TIP3   OH210941   4.536   1.116   1.106
 3667TIP3    H110942   4.522   1.036   1.157
 3667TIP3    H210943   4.627   1.140   1.124
 3668TIP3   OH210944   2.709   0.300   6.355
 3668TIP3    H110945   2.705   0.205   6.361
 3668TIP3    H210946   2.617   0.328   6.350
 3669TIP3   OH210947   5.056   6.125   3.835
 3669TIP3    H110948   4.972   6.164   3.856
 3669TIP3    H210949   5.104   6.194   3.789
 3670TIP3   OH210950   8.238   7.537   1.432
 3670TIP3    H110951   8.298   7.514   1.503
 3670TIP3    H210952   8.255   7.630   1.416
 3671TIP3   OH210953   1.210   7.652   1.531
 3671TIP3    H110954   1.167   7.609   1.605
 3671TIP3    H210955   1.291   7.688   1.567
 3672TIP3   OH210956   0.620   1.844   6.682
 3672TIP3    H110957   0.576   1.927   6.699
 3672TIP3    H210958   0.593   1.821   6.592
 3673TIP3   OH210959   4.424   4.390   2.662
 3673TIP3    H110960   4.420   4.485   2.657
 3673TIP3    H210961   4.502   4.366   2.611
 3674TIP3   OH210962   6.960   0.881   4.716
 3674TIP3    H110963   6.940   0.957   4.662
 3674TIP3    H210964   6.897   0.885   4.788
 3675TIP3   OH210965   3.593   7.699   5.840
 3675TIP3    H110966   3.672   7.660   5.802
 3675TIP3    H210967   3.554   7.628   5.890
 3676TIP3   OH210968   7.658   7.114   5.198
 3676TIP3    H110969   7.699   7.057   5.132
 3676TIP3    H210970   7.565   7.091   5.194
 3677TIP3   OH210971   4.619   5.403   5.721
 3677TIP3    H110972   4.619   5.497   5.702
 3677TIP3    H210973   4.581   5.363   5.642
 3678TIP3   OH210974   0.812   6.718   3.994
 3678TIP3    H110975   0.871   6.677   4.057
 3678TIP3    H210976   0.829   6.812   4.003
 3679TIP3   OH210977   4.755   0.905   3.449
 3679TIP3    H110978   4.720   0.949   3.371
 3679TIP3    H210979   4.684   0.909   3.513
 3680TIP3   OH210980   6.941   6.651   1.393
 3680TIP3    H110981   7.014   6.641   1.454
 3680TIP3    H210982   6.945   6.742   1.365
 3681TIP3   OH210983   7.953   5.505   5.940
 3681TIP3    H110984   8.044   5.486   5.962
 3681TIP3    H210985   7.915   5.420   5.920
 3682TIP3   OH210986   5.610   2.811   6.304
 3682TIP3    H110987   5.671   2.856   6.247
 3682TIP3    H210988   5.649   2.817   6.391
 3683TIP3   OH210989   4.882   4.063   5.880
 3683TIP3    H110990   4.892   4.130   5.948
 3683TIP3    H210991   4.819   4.099   5.818
 3684TIP3   OH210992   1.343   6.822   1.191
 3684TIP3    H110993   1.378   6.784   1.272
 3684TIP3    H210994   1.262   6.774   1.175
 3685TIP3   OH210995   4.408   5.698   6.235
 3685TIP3    H110996   4.489   5.699   6.285
 3685TIP3    H210997   4.339   5.713   6.299
 3686TIP3   OH210998   4.864   1.147   6.465
 3686TIP3    H110999   4.905   1.229   6.440
 3686TIP3    H211000   4.851   1.154   6.560
 3687TIP3   OH211001   7.149   2.546   6.383
 3687TIP3    H111002   7.101   2.493   6.446
 3687TIP3    H211003   7.081   2.588   6.331
 3688TIP3   OH211004   1.795   2.284   5.709
 3688TIP3    H111005   1.809   2.285   5.803
 3688TIP3    H211006   1.700   2.279   5.699
 3689TIP3   OH211007   8.098   4.986   0.952
 3689TIP3    H111008   8.132   4.896   0.946
 3689TIP3    H211009   8.159   5.038   0.901
 3690TIP3   OH211010   4.883   6.595   6.217
 3690TIP3    H111011   4.887   6.512   6.170
 3690TIP3    H211012   4.909   6.661   6.153
 3691TIP3   OH211013   8.104   7.782   3.502
 3691TIP3    H111014   8.114   7.833   3.582
 3691TIP3    H211015   8.086   7.693   3.532
 3692TIP3   OH211016   2.488   4.214   6.053
 3692TIP3    H111017   2.497   4.222   6.148
 3692TIP3    H211018   2.419   4.150   6.040
 3693TIP3   OH211019   2.037   0.823   6.820
 3693TIP3    H111020   2.056   0.892   6.756
 3693TIP3    H211021   1.999   0.752   6.769
 3694TIP3   OH211022   8.380   1.044   0.953
 3694TIP3    H111023   8.370   0.999   0.869
 3694TIP3    H211024   8.320   0.997   1.012
 3695TIP3   OH211025   6.545   6.896   2.509
 3695TIP3    H111026   6.512   6.947   2.583
 3695TIP3    H211027   6.581   6.961   2.449
 3696TIP3   OH211028   1.782   1.477   4.942
 3696TIP3    H111029   1.759   1.526   5.020
 3696TIP3    H211030   1.810   1.543   4.878
 3697TIP3   OH211031   7.375   3.531   2.506
 3697TIP3    H111032   7.376   3.436   2.519
 3697TIP3    H211033   7.317   3.564   2.574
 3698TIP3   OH211034   2.600   3.696   5.994
 3698TIP3    H111035   2.558   3.611   6.007
 3698TIP3    H211036   2.596   3.738   6.079
 3699TIP3   OH211037   7.573   6.750   3.384
 3699TIP3    H111038   7.527   6.815   3.330
 3699TIP3    H211039   7.581   6.673   3.328
 3700TIP3   OH211040   6.839   2.443   4.495
 3700TIP3    H111041   6.926   2.410   4.518
 3700TIP3    H211042   6.840   2.448   4.399
 3701TIP3   OH211043   1.787   2.009   0.892
 3701TIP3    H111044   1.815   2.085   0.943
 3701TIP3    H211045   1.744   2.046   0.815
 3702TIP3   OH211046   1.781   0.316   1.294
 3702TIP3    H111047   1.761   0.360   1.211
 3702TIP3    H211048   1.876   0.304   1.292
 3703TIP3   OH211049   7.866   6.378   4.554
 3703TIP3    H111050   7.862   6.447   4.488
 3703TIP3    H211051   7.793   6.320   4.533
 3704TIP3   OH211052   4.902   4.034   3.054
 3704TIP3    H111053   4.853   4.023   2.972
 3704TIP3    H211054   4.973   4.094   3.031
 3705TIP3   OH211055   3.288   0.527   2.186
 3705TIP3    H111056   3.302   0.585   2.261
 3705TIP3    H211057   3.374   0.521   2.144
 3706TIP3   OH211058   6.240   2.832   6.688
 3706TIP3    H111059   6.218   2.924   6.669
 3706TIP3    H211060   6.200   2.783   6.617
 3707TIP3   OH211061   0.769   3.312   4.458
 3707TIP3    H111062   0.753   3.245   4.391
 3707TIP3    H211063   0.843   3.362   4.425
 3708TIP3   OH211064   3.823   4.989   2.474
 3708TIP3    H111065   3.871   4.926   2.420
 3708TIP3    H211066   3.868   4.985   2.559
 3709TIP3   OH211067   7.048   3.432   2.372
 3709TIP3    H111068   7.087   3.517   2.351
 3709TIP3    H211069   6.958   3.438   2.340
 3710TIP3   OH211070   7.728   4.656   3.197
 3710TIP3    H111071   7.635   4.648   3.216
 3710TIP3    H211072   7.771   4.600   3.263
 3711TIP3   OH211073   0.154   4.294   5.894
 3711TIP3    H111074   0.108   4.296   5.810
 3711TIP3    H211075   0.085   4.281   5.959
 3712TIP3   OH211076   3.847   6.699   1.491
 3712TIP3    H111077   3.828   6.671   1.401
 3712TIP3    H211078   3.930   6.657   1.512
 3713TIP3   OH211079   1.982   6.868   6.399
 3713TIP3    H111080   2.038   6.794   6.376
 3713TIP3    H211081   1.986   6.925   6.321
 3714TIP3   OH211082   5.852   1.405   2.592
 3714TIP3    H111083   5.875   1.314   2.571
 3714TIP3    H211084   5.763   1.416   2.557
 3715TIP3   OH211085   3.338   5.342   1.042
 3715TIP3    H111086   3.341   5.380   1.130
 3715TIP3    H211087   3.416   5.286   1.038
 3716TIP3   OH211088   1.687   2.610   0.773
 3716TIP3    H111089   1.626   2.678   0.800
 3716TIP3    H211090   1.743   2.652   0.709
 3717TIP3   OH211091   6.519   0.630   0.738
 3717TIP3    H111092   6.438   0.594   0.774
 3717TIP3    H211093   6.554   0.560   0.683
 3718TIP3   OH211094   8.336   5.807   4.865
 3718TIP3    H111095   8.269   5.807   4.933
 3718TIP3    H211096   8.369   5.896   4.864
 3719TIP3   OH211097   7.721   0.588   3.036
 3719TIP3    H111098   7.646   0.644   3.054
 3719TIP3    H211099   7.712   0.566   2.943
 3720TIP3   OH211100   4.732   5.733   0.309
 3720TIP3    H111101   4.778   5.766   0.387
 3720TIP3    H211102   4.768   5.785   0.237
 3721TIP3   OH211103   4.331   7.700   5.124
 3721TIP3    H111104   4.347   7.765   5.055
 3721TIP3    H211105   4.406   7.641   5.119
 3722TIP3   OH211106   5.760   5.580   5.814
 3722TIP3    H111107   5.766   5.622   5.900
 3722TIP3    H211108   5.759   5.653   5.752
 3723TIP3   OH211109   8.268   3.202   5.795
 3723TIP3    H111110   8.241   3.261   5.865
 3723TIP3    H211111   8.219   3.231   5.718
 3724TIP3   OH211112   5.683   3.837   1.672
 3724TIP3    H111113   5.752   3.874   1.728
 3724TIP3    H211114   5.639   3.913   1.636
 3725TIP3   OH211115   6.417   2.225   6.146
 3725TIP3    H111116   6.368   2.157   6.100
 3725TIP3    H211117   6.352   2.291   6.167
 3726TIP3   OH211118   4.130   7.177   6.133
 3726TIP3    H111119   4.183   7.098   6.144
 3726TIP3    H211120   4.122   7.188   6.039
 3727TIP3   OH211121   4.398   5.804   4.179
 3727TIP3    H111122   4.448   5.734   4.220
 3727TIP3    H211123   4.395   5.873   4.246
 3728TIP3   OH211124   6.741   3.110   5.736
 3728TIP3    H111125   6.760   3.193   5.691
 3728TIP3    H211126   6.820   3.091   5.786
 3729TIP3   OH211127   4.829   5.537   4.997
 3729TIP3    H111128   4.825   5.557   5.090
 3729TIP3    H211129   4.776   5.604   4.955
 3730TIP3   OH211130   3.361   1.733   0.645
 3730TIP3    H111131   3.375   1.640   0.627
 3730TIP3    H211132   3.274   1.752   0.612
 3731TIP3   OH211133   6.515   0.047   5.429
 3731TIP3    H111134   6.602   0.069   5.396
 3731TIP3    H211135   6.496   0.115   5.493
 3732TIP3   OH211136   0.322   6.496   4.326
 3732TIP3    H111137   0.396   6.467   4.379
 3732TIP3    H211138   0.305   6.586   4.356
 3733TIP3   OH211139   6.739   7.511   2.159
 3733TIP3    H111140   6.734   7.605   2.174
 3733TIP3    H211141   6.782   7.503   2.074
 3734TIP3   OH211142   4.102   6.558   1.592
 3734TIP3    H111143   4.112   6.497   1.519
 3734TIP3    H211144   4.060   6.507   1.660
 3735TIP3   OH211145   3.916   5.636   0.030
 3735TIP3    H111146   3.823   5.625   0.012
 3735TIP3    H211147   3.920   5.682   0.113
 3736TIP3   OH211148   4.270   4.446   0.125
 3736TIP3    H111149   4.350   4.441   0.177
 3736TIP3    H211150   4.231   4.530   0.150
 3737TIP3   OH211151   6.966   5.786   3.786
 3737TIP3    H111152   7.020   5.713   3.817
 3737TIP3    H211153   6.955   5.770   3.692
 3738TIP3   OH211154   4.603   1.558   1.354
 3738TIP3    H111155   4.688   1.598   1.335
 3738TIP3    H211156   4.544   1.633   1.364
 3739TIP3   OH211157   6.373   7.434   6.362
 3739TIP3    H111158   6.358   7.350   6.319
 3739TIP3    H211159   6.464   7.430   6.392
 3740TIP3   OH211160   5.931   6.611   3.486
 3740TIP3    H111161   5.983   6.687   3.509
 3740TIP3    H211162   5.926   6.559   3.566
 3741TIP3   OH211163   2.276   6.866   1.504
 3741TIP3    H111164   2.223   6.803   1.456
 3741TIP3    H211165   2.333   6.905   1.438
 3742TIP3   OH211166   3.712   0.483   4.244
 3742TIP3    H111167   3.768   0.537   4.299
 3742TIP3    H211168   3.674   0.545   4.181
 3743TIP3   OH211169   4.689   6.022   5.413
 3743TIP3    H111170   4.750   6.082   5.370
 3743TIP3    H211171   4.679   6.057   5.502
 3744TIP3   OH211172   6.691   7.205   2.666
 3744TIP3    H111173   6.728   7.163   2.588
 3744TIP3    H211174   6.749   7.279   2.683
 3745TIP3   OH211175   1.391   5.290   5.511
 3745TIP3    H111176   1.363   5.298   5.420
 3745TIP3    H211177   1.325   5.338   5.561
 3746TIP3   OH211178   5.523   5.519   3.162
 3746TIP3    H111179   5.501   5.568   3.082
 3746TIP3    H211180   5.596   5.568   3.201
 3747TIP3   OH211181   4.444   0.175   4.399
 3747TIP3    H111182   4.366   0.176   4.343
 3747TIP3    H211183   4.414   0.212   4.482
 3748TIP3   OH211184   6.538   5.708   4.104
 3748TIP3    H111185   6.577   5.678   4.022
 3748TIP3    H211186   6.587   5.787   4.127
 3749TIP3   OH211187   6.860   1.775   0.450
 3749TIP3    H111188   6.799   1.701   0.441
 3749TIP3    H211189   6.845   1.807   0.539
 3750TIP3   OH211190   0.165   3.209   6.596
 3750TIP3    H111191   0.192   3.293   6.633
 3750TIP3    H211192   0.214   3.203   6.513
 3751TIP3   OH211193   3.785   7.231   6.871
 3751TIP3    H111194   3.857   7.169   6.857
 3751TIP3    H211195   3.785   7.286   6.793
 3752TIP3   OH211196   7.760   7.232   3.285
 3752TIP3    H111197   7.778   7.228   3.191
 3752TIP3    H211198   7.688   7.171   3.298
 3753TIP3   OH211199   8.331   0.701   5.231
 3753TIP3    H111200   8.255   0.645   5.245
 3753TIP3    H211201   8.318   0.773   5.294
 3754TIP3   OH211202   4.966   7.062   2.928
 3754TIP3    H111203   4.940   7.075   3.019
 3754TIP3    H211204   5.061   7.056   2.931
 3755TIP3   OH211205   2.846   7.335   1.066
 3755TIP3    H111206   2.790   7.386   1.008
 3755TIP3    H211207   2.867   7.256   1.017
 3756TIP3   OH211208   2.317   3.652   1.271
 3756TIP3    H111209   2.411   3.646   1.290
 3756TIP3    H211210   2.290   3.561   1.257
 3757TIP3   OH211211   1.141   5.974   0.804
 3757TIP3    H111212   1.063   5.973   0.859
 3757TIP3    H211213   1.157   5.883   0.782
 3758TIP3   OH211214   0.194   0.388   2.269
 3758TIP3    H111215   0.156   0.466   2.311
 3758TIP3    H211216   0.248   0.348   2.338
 3759TIP3   OH211217   4.389   6.468   2.349
 3759TIP3    H111218   4.378   6.502   2.260
 3759TIP3    H211219   4.317   6.507   2.399
 3760TIP3   OH211220   3.945   6.658   2.642
 3760TIP3    H111221   4.029   6.704   2.634
 3760TIP3    H211222   3.890   6.695   2.574
 3761TIP3   OH211223   3.791   4.938   1.763
 3761TIP3    H111224   3.714   4.889   1.792
 3761TIP3    H211225   3.854   4.929   1.834
 3762TIP3   OH211226   0.742   4.599   0.122
 3762TIP3    H111227   0.703   4.551   0.196
 3762TIP3    H211228   0.784   4.675   0.163
 3763TIP3   OH211229   5.431   2.475   0.285
 3763TIP3    H111230   5.510   2.482   0.339
 3763TIP3    H211231   5.372   2.419   0.336
 3764TIP3   OH211232   6.564   6.291   1.959
 3764TIP3    H111233   6.577   6.255   1.872
 3764TIP3    H211234   6.542   6.383   1.944
 3765TIP3   OH211235   3.491   3.425   1.262
 3765TIP3    H111236   3.426   3.364   1.296
 3765TIP3    H211237   3.555   3.433   1.332
 3766TIP3   OH211238   0.927   3.088   6.106
 3766TIP3    H111239   0.921   3.171   6.154
 3766TIP3    H211240   0.944   3.023   6.174
 3767TIP3   OH211241   3.806   5.977   0.894
 3767TIP3    H111242   3.773   5.999   0.982
 3767TIP3    H211243   3.898   6.003   0.896
 3768TIP3   OH211244   5.118   0.893   3.177
 3768TIP3    H111245   5.109   0.982   3.211
 3768TIP3    H211246   5.071   0.895   3.094
 3769TIP3   OH211247   0.615   5.609   0.638
 3769TIP3    H111248   0.675   5.538   0.661
 3769TIP3    H211249   0.657   5.653   0.563
 3770TIP3   OH211250   3.504   1.326   5.431
 3770TIP3    H111251   3.516   1.259   5.365
 3770TIP3    H211252   3.481   1.405   5.381
 3771TIP3   OH211253   7.450   2.617   6.103
 3771TIP3    H111254   7.361   2.651   6.091
 3771TIP3    H211255   7.498   2.689   6.143
 3772TIP3   OH211256   0.509   5.295   4.565
 3772TIP3    H111257   0.537   5.212   4.604
 3772TIP3    H211258   0.485   5.272   4.476
 3773TIP3   OH211259   3.233   3.115   0.514
 3773TIP3    H111260   3.266   3.026   0.526
 3773TIP3    H211261   3.285   3.168   0.575
 3774TIP3   OH211262   3.978   2.196   5.718
 3774TIP3    H111263   4.009   2.111   5.685
 3774TIP3    H211264   4.035   2.260   5.675
 3775TIP3   OH211265   7.203   0.694   3.716
 3775TIP3    H111266   7.191   0.651   3.631
 3775TIP3    H211267   7.117   0.694   3.756
 3776TIP3   OH211268   1.792   1.124   3.604
 3776TIP3    H111269   1.747   1.203   3.633
 3776TIP3    H211270   1.724   1.057   3.604
 3777TIP3   OH211271   6.901   3.178   1.676
 3777TIP3    H111272   6.862   3.175   1.764
 3777TIP3    H211273   6.994   3.189   1.692
 3778TIP3   OH211274   2.403   0.670   4.274
 3778TIP3    H111275   2.307   0.665   4.276
 3778TIP3    H211276   2.423   0.710   4.190
 3779TIP3   OH211277   5.678   1.333   1.075
 3779TIP3    H111278   5.634   1.248   1.079
 3779TIP3    H211279   5.720   1.333   0.989
 3780TIP3   OH211280   2.476   4.033   4.826
 3780TIP3    H111281   2.462   3.998   4.914
 3780TIP3    H211282   2.542   4.102   4.838
 3781TIP3   OH211283   5.126   1.779   5.064
 3781TIP3    H111284   5.186   1.734   5.123
 3781TIP3    H211285   5.126   1.726   4.984
 3782TIP3   OH211286   3.059   6.253   6.532
 3782TIP3    H111287   3.148   6.218   6.537
 3782TIP3    H211288   3.012   6.211   6.605
 3783TIP3   OH211289   7.189   6.851   4.367
 3783TIP3    H111290   7.166   6.773   4.318
 3783TIP3    H211291   7.157   6.835   4.455
 3784TIP3   OH211292   2.998   2.231   5.641
 3784TIP3    H111293   2.970   2.185   5.720
 3784TIP3    H211294   3.083   2.193   5.619
 3785TIP3   OH211295   8.134   6.296   1.033
 3785TIP3    H111296   8.085   6.371   0.998
 3785TIP3    H211297   8.076   6.221   1.018
 3786TIP3   OH211298   2.867   4.764   5.128
 3786TIP3    H111299   2.886   4.720   5.046
 3786TIP3    H211300   2.920   4.844   5.126
 3787TIP3   OH211301   0.205   4.478   4.100
 3787TIP3    H111302   0.181   4.458   4.009
 3787TIP3    H211303   0.191   4.395   4.147
 3788TIP3   OH211304   6.464   0.322   2.504
 3788TIP3    H111305   6.519   0.319   2.582
 3788TIP3    H211306   6.469   0.234   2.467
 3789TIP3   OH211307   1.473   7.736   6.621
 3789TIP3    H111308   1.566   7.720   6.639
 3789TIP3    H211309   1.456   7.824   6.655
 3790TIP3   OH211310   6.113   0.518   0.150
 3790TIP3    H111311   6.045   0.490   0.090
 3790TIP3    H211312   6.081   0.601   0.186
 3791TIP3   OH211313   0.799   5.909   6.179
 3791TIP3    H111314   0.825   5.818   6.195
 3791TIP3    H211315   0.849   5.935   6.102
 3792TIP3   OH211316   7.498   7.596   0.296
 3792TIP3    H111317   7.423   7.636   0.253
 3792TIP3    H211318   7.530   7.531   0.234
 3793TIP3   OH211319   7.809   5.249   2.612
 3793TIP3    H111320   7.777   5.244   2.522
 3793TIP3    H211321   7.787   5.338   2.640
 3794TIP3   OH211322   8.179   4.548   0.576
 3794TIP3    H111323   8.138   4.615   0.630
 3794TIP3    H211324   8.106   4.493   0.547
 3795TIP3   OH211325   8.032   7.814   3.205
 3795TIP3    H111326   8.034   7.798   3.300
 3795TIP3    H211327   7.996   7.733   3.168
 3796TIP3   OH211328   4.356   2.570   6.497
 3796TIP3    H111329   4.314   2.560   6.582
 3796TIP3    H211330   4.388   2.482   6.476
 3797TIP3   OH211331   4.227   5.981   5.112
 3797TIP3    H111332   4.301   5.980   5.173
 3797TIP3    H211333   4.159   5.930   5.156
 3798TIP3   OH211334   6.553   0.103   1.076
 3798TIP3    H111335   6.581   0.062   0.994
 3798TIP3    H211336   6.479   0.158   1.050
 3799TIP3   OH211337   5.441   6.220   4.250
 3799TIP3    H111338   5.492   6.160   4.196
 3799TIP3    H211339   5.437   6.301   4.198
 3800TIP3   OH211340   4.611   3.883   4.145
 3800TIP3    H111341   4.706   3.882   4.132
 3800TIP3    H211342   4.588   3.791   4.159
 3801TIP3   OH211343   3.087   2.232   2.362
 3801TIP3    H111344   3.059   2.182   2.439
 3801TIP3    H211345   3.006   2.271   2.328
 3802TIP3   OH211346   5.806   0.679   1.194
 3802TIP3    H111347   5.843   0.662   1.281
 3802TIP3    H211348   5.714   0.698   1.210
 3803TIP3   OH211349   1.375   6.477   0.540
 3803TIP3    H111350   1.371   6.494   0.445
 3803TIP3    H211351   1.466   6.451   0.556
 3804TIP3   OH211352   4.192   6.567   0.074
 3804TIP3    H111353   4.112   6.587   0.123
 3804TIP3    H211354   4.263   6.594   0.132
 3805TIP3   OH211355   1.890   3.028   4.824
 3805TIP3    H111356   1.843   2.954   4.861
 3805TIP3    H211357   1.839   3.105   4.851
 3806TIP3   OH211358   7.116   2.752   4.600
 3806TIP3    H111359   7.119   2.720   4.690
 3806TIP3    H211360   7.184   2.701   4.555
 3807TIP3   OH211361   1.275   1.918   4.977
 3807TIP3    H111362   1.306   1.832   5.006
 3807TIP3    H211363   1.203   1.939   5.036
 3808TIP3   OH211364   2.588   2.049   5.405
 3808TIP3    H111365   2.620   2.126   5.358
 3808TIP3    H211366   2.494   2.064   5.416
 3809TIP3   OH211367   0.042   3.891   3.751
 3809TIP3    H111368   0.024   3.904   3.657
 3809TIP3    H211369   0.029   3.797   3.765
 3810TIP3   OH211370   5.025   6.009   0.691
 3810TIP3    H111371   5.071   5.982   0.771
 3810TIP3    H211372   4.978   6.088   0.716
 3811TIP3   OH211373   7.264   4.925   3.970
 3811TIP3    H111374   7.342   4.963   4.011
 3811TIP3    H211375   7.220   5.000   3.930
 3812TIP3   OH211376   5.216   5.714   1.063
 3812TIP3    H111377   5.141   5.751   1.111
 3812TIP3    H211378   5.292   5.760   1.098
 3813TIP3   OH211379   3.175   3.870   3.946
 3813TIP3    H111380   3.244   3.935   3.937
 3813TIP3    H211381   3.096   3.914   3.916
 3814TIP3   OH211382   5.767   2.378   6.486
 3814TIP3    H111383   5.816   2.410   6.411
 3814TIP3    H211384   5.714   2.306   6.451
 3815TIP3   OH211385   4.007   6.919   2.312
 3815TIP3    H111386   4.090   6.961   2.289
 3815TIP3    H211387   3.986   6.866   2.235
 3816TIP3   OH211388   7.723   1.793   2.707
 3816TIP3    H111389   7.639   1.754   2.682
 3816TIP3    H211390   7.788   1.734   2.671
 3817TIP3   OH211391   1.855   4.398   2.513
 3817TIP3    H111392   1.818   4.317   2.546
 3817TIP3    H211393   1.878   4.379   2.422
 3818TIP3   OH211394   2.302   6.389   1.059
 3818TIP3    H111395   2.363   6.458   1.086
 3818TIP3    H211396   2.247   6.374   1.136
 3819TIP3   OH211397   2.760   7.531   6.751
 3819TIP3    H111398   2.742   7.573   6.667
 3819TIP3    H211399   2.841   7.573   6.781
 3820TIP3   OH211400   6.865   2.082   5.980
 3820TIP3    H111401   6.934   2.145   5.960
 3820TIP3    H211402   6.819   2.071   5.897
 3821TIP3   OH211403   6.872   7.826   2.793
 3821TIP3    H111404   6.804   7.799   2.731
 3821TIP3    H211405   6.827   7.884   2.854
 3822TIP3   OH211406   3.337   5.547   0.183
 3822TIP3    H111407   3.289   5.580   0.259
 3822TIP3    H211408   3.375   5.625   0.142
 3823TIP3   OH211409   2.291   0.779   4.905
 3823TIP3    H111410   2.210   0.831   4.900
 3823TIP3    H211411   2.350   0.831   4.960
 3824TIP3   OH211412   6.263   6.342   6.262
 3824TIP3    H111413   6.359   6.343   6.269
 3824TIP3    H211414   6.235   6.277   6.326
 3825TIP3   OH211415   7.658   5.628   2.043
 3825TIP3    H111416   7.612   5.627   2.127
 3825TIP3    H211417   7.739   5.675   2.060
 3826TIP3   OH211418   4.974   3.169   5.551
 3826TIP3    H111419   4.903   3.109   5.527
 3826TIP3    H211420   4.984   3.157   5.646
 3827TIP3   OH211421   3.792   6.195   2.859
 3827TIP3    H111422   3.815   6.262   2.796
 3827TIP3    H211423   3.696   6.192   2.858
 3828TIP3   OH211424   0.168   5.857   1.961
 3828TIP3    H111425   0.232   5.923   1.935
 3828TIP3    H211426   0.092   5.907   1.991
 3829TIP3   OH211427   0.773   3.496   4.202
 3829TIP3    H111428   0.719   3.498   4.281
 3829TIP3    H211429   0.853   3.451   4.229
 3830TIP3   OH211430   5.670   7.724   6.666
 3830TIP3    H111431   5.611   7.748   6.738
 3830TIP3    H211432   5.666   7.628   6.664
 3831TIP3   OH211433   2.908   0.887   3.631
 3831TIP3    H111434   2.955   0.805   3.618
 3831TIP3    H211435   2.903   0.925   3.543
 3832TIP3   OH211436   4.405   1.945   5.940
 3832TIP3    H111437   4.314   1.919   5.923
 3832TIP3    H211438   4.412   2.033   5.903
 3833TIP3   OH211439   3.340   5.196   6.069
 3833TIP3    H111440   3.330   5.291   6.080
 3833TIP3    H211441   3.398   5.186   5.994
 3834TIP3   OH211442   4.137   7.850   3.549
 3834TIP3    H111443   4.190   7.821   3.475
 3834TIP3    H211444   4.115   7.769   3.595
 3835TIP3   OH211445   0.826   2.657   0.516
 3835TIP3    H111446   0.840   2.750   0.536
 3835TIP3    H211447   0.740   2.637   0.554
 3836TIP3   OH211448   6.545   7.814   2.793
 3836TIP3    H111449   6.471   7.870   2.819
 3836TIP3    H211450   6.512   7.765   2.718
 3837TIP3   OH211451   6.457   2.689   4.080
 3837TIP3    H111452   6.429   2.609   4.123
 3837TIP3    H211453   6.375   2.734   4.058
 3838TIP3   OH211454   8.136   6.354   5.033
 3838TIP3    H111455   8.161   6.263   5.049
 3838TIP3    H211456   8.041   6.356   5.049
 3839TIP3   OH211457   5.990   1.671   1.402
 3839TIP3    H111458   5.964   1.762   1.415
 3839TIP3    H211459   6.045   1.672   1.324
 3840TIP3   OH211460   4.572   0.996   3.678
 3840TIP3    H111461   4.638   1.063   3.694
 3840TIP3    H211462   4.508   1.037   3.619
 3841TIP3   OH211463   4.403   0.308   1.171
 3841TIP3    H111464   4.492   0.340   1.184
 3841TIP3    H211465   4.350   0.362   1.229
 3842TIP3   OH211466   3.312   0.734   2.394
 3842TIP3    H111467   3.296   0.752   2.487
 3842TIP3    H211468   3.328   0.820   2.355
 3843TIP3   OH211469   4.902   1.921   5.952
 3843TIP3    H111470   4.832   1.892   5.893
 3843TIP3    H211471   4.882   2.012   5.971
 3844TIP3   OH211472   8.304   2.805   5.759
 3844TIP3    H111473   8.272   2.774   5.675
 3844TIP3    H211474   8.225   2.825   5.809
 3845TIP3   OH211475   3.876   4.510   0.848
 3845TIP3    H111476   3.871   4.585   0.789
 3845TIP3    H211477   3.960   4.519   0.892
 3846TIP3   OH211478   3.157   3.266   0.297
 3846TIP3    H111479   3.168   3.217   0.379
 3846TIP3    H211480   3.201   3.350   0.314
 3847TIP3   OH211481   3.379   0.827   0.689
 3847TIP3    H111482   3.332   0.784   0.760
 3847TIP3    H211483   3.441   0.762   0.657
 3848TIP3   OH211484   3.022   0.803   1.802
 3848TIP3    H111485   2.941   0.816   1.851
 3848TIP3    H211486   3.053   0.717   1.829
 3849TIP3   OH211487   0.235   5.190   3.401
 3849TIP3    H111488   0.265   5.244   3.328
 3849TIP3    H211489   0.206   5.252   3.467
 3850TIP3   OH211490   3.099   5.308   5.639
 3850TIP3    H111491   3.062   5.280   5.723
 3850TIP3    H211492   3.112   5.402   5.649
 3851TIP3   OH211493  -0.013   5.904   1.566
 3851TIP3    H111494   0.014   5.813   1.556
 3851TIP3    H211495   0.058   5.945   1.615
 3852TIP3   OH211496   1.982   2.936   3.554
 3852TIP3    H111497   1.985   2.853   3.506
 3852TIP3    H211498   1.890   2.945   3.579
 3853TIP3   OH211499   4.824   4.758   5.782
 3853TIP3    H111500   4.864   4.704   5.714
 3853TIP3    H211501   4.819   4.845   5.743
 3854TIP3   OH211502   2.530   1.606   4.521
 3854TIP3    H111503   2.557   1.649   4.602
 3854TIP3    H211504   2.575   1.521   4.522
 3855TIP3   OH211505   3.876   4.760   6.070
 3855TIP3    H111506   3.816   4.716   6.010
 3855TIP3    H211507   3.957   4.709   6.064
 3856TIP3   OH211508   7.363   7.521   4.777
 3856TIP3    H111509   7.306   7.495   4.850
 3856TIP3    H211510   7.413   7.594   4.811
 3857TIP3   OH211511   6.817   0.367   3.658
 3857TIP3    H111512   6.765   0.396   3.583
 3857TIP3    H211513   6.829   0.273   3.644
 3858TIP3   OH211514   2.773   5.783   3.584
 3858TIP3    H111515   2.826   5.857   3.557
 3858TIP3    H211516   2.726   5.814   3.661
 3859TIP3   OH211517   2.998   0.591   3.572
 3859TIP3    H111518   3.001   0.508   3.620
 3859TIP3    H211519   2.967   0.568   3.485
 3860TIP3   OH211520   3.099   6.638   3.833
 3860TIP3    H111521   3.033   6.570   3.819
 3860TIP3    H211522   3.123   6.628   3.925
 3861TIP3   OH211523   6.386   3.188   2.696
 3861TIP3    H111524   6.342   3.210   2.778
 3861TIP3    H211525   6.319   3.146   2.643
 3862TIP3   OH211526   8.325   2.028   1.183
 3862TIP3    H111527   8.391   1.999   1.120
 3862TIP3    H211528   8.243   1.989   1.151
 3863TIP3   OH211529   1.280   4.381   0.824
 3863TIP3    H111530   1.266   4.417   0.736
 3863TIP3    H211531   1.196   4.344   0.848
 3864TIP3   OH211532   5.402   3.113   5.276
 3864TIP3    H111533   5.326   3.055   5.268
 3864TIP3    H211534   5.468   3.061   5.321
 3865TIP3   OH211535   1.531   5.944   5.232
 3865TIP3    H111536   1.451   5.993   5.253
 3865TIP3    H211537   1.602   6.005   5.254
 3866TIP3   OH211538   3.139   4.450   3.261
 3866TIP3    H111539   3.134   4.465   3.166
 3866TIP3    H211540   3.077   4.379   3.276
 3867TIP3   OH211541   3.536   1.286   2.850
 3867TIP3    H111542   3.490   1.202   2.853
 3867TIP3    H211543   3.490   1.336   2.783
 3868TIP3   OH211544   0.443   3.645   4.992
 3868TIP3    H111545   0.500   3.658   5.068
 3868TIP3    H211546   0.376   3.713   5.001
 3869TIP3   OH211547   5.029   7.461   3.384
 3869TIP3    H111548   5.062   7.463   3.294
 3869TIP3    H211549   5.055   7.375   3.417
 3870TIP3   OH211550   7.080   0.703   2.074
 3870TIP3    H111551   7.094   0.647   2.151
 3870TIP3    H211552   7.048   0.785   2.110
 3871TIP3   OH211553   3.488   1.083   5.222
 3871TIP3    H111554   3.422   1.014   5.227
 3871TIP3    H211555   3.560   1.051   5.276
 3872TIP3   OH211556   8.177   7.355   1.964
 3872TIP3    H111557   8.201   7.446   1.982
 3872TIP3    H211558   8.261   7.308   1.961
 3873TIP3   OH211559   4.344   0.589   3.656
 3873TIP3    H111560   4.256   0.620   3.680
 3873TIP3    H211561   4.378   0.549   3.736
 3874TIP3   OH211562   2.890   2.782   6.375
 3874TIP3    H111563   2.932   2.824   6.300
 3874TIP3    H211564   2.840   2.853   6.417
 3875TIP3   OH211565   1.309   1.171   3.936
 3875TIP3    H111566   1.360   1.121   3.999
 3875TIP3    H211567   1.221   1.173   3.974
 3876TIP3   OH211568   5.219   7.369   6.415
 3876TIP3    H111569   5.200   7.320   6.496
 3876TIP3    H211570   5.135   7.374   6.370
 3877TIP3   OH211571   0.213   2.195   1.791
 3877TIP3    H111572   0.194   2.289   1.784
 3877TIP3    H211573   0.144   2.161   1.848
 3878TIP3   OH211574   5.419   4.431   3.846
 3878TIP3    H111575   5.420   4.498   3.777
 3878TIP3    H211576   5.394   4.350   3.800
 3879TIP3   OH211577   7.858   5.896   1.508
 3879TIP3    H111578   7.920   5.968   1.522
 3879TIP3    H211579   7.847   5.857   1.595
 3880TIP3   OH211580   3.080   0.791   4.326
 3880TIP3    H111581   3.161   0.743   4.311
 3880TIP3    H211582   3.103   0.883   4.313
 3881TIP3   OH211583   5.630   4.991   1.200
 3881TIP3    H111584   5.671   5.023   1.280
 3881TIP3    H211585   5.545   5.035   1.197
 3882TIP3   OH211586   7.340   1.800   4.352
 3882TIP3    H111587   7.255   1.807   4.309
 3882TIP3    H211588   7.323   1.748   4.430
 3883TIP3   OH211589   3.995   6.116   4.315
 3883TIP3    H111590   3.904   6.092   4.334
 3883TIP3    H211591   4.031   6.146   4.398
 3884TIP3   OH211592   5.678   2.939   3.063
 3884TIP3    H111593   5.754   2.882   3.063
 3884TIP3    H211594   5.605   2.883   3.038
 3885TIP3   OH211595   6.659   7.322   6.705
 3885TIP3    H111596   6.746   7.349   6.733
 3885TIP3    H211597   6.642   7.241   6.753
 3886TIP3   OH211598   5.517   6.284   0.546
 3886TIP3    H111599   5.467   6.316   0.470
 3886TIP3    H211600   5.451   6.273   0.615
 3887TIP3   OH211601   4.613   7.555   3.281
 3887TIP3    H111602   4.524   7.583   3.259
 3887TIP3    H211603   4.667   7.632   3.263
 3888TIP3   OH211604   6.790  -0.004   3.277
 3888TIP3    H111605   6.795   0.087   3.308
 3888TIP3    H211606   6.878  -0.038   3.290
 3889TIP3   OH211607   7.208   2.810   0.430
 3889TIP3    H111608   7.165   2.763   0.359
 3889TIP3    H211609   7.231   2.895   0.392
 3890TIP3   OH211610   4.760   4.856   0.508
 3890TIP3    H111611   4.786   4.767   0.486
 3890TIP3    H211612   4.796   4.910   0.438
 3891TIP3   OH211613   0.202   0.569   6.836
 3891TIP3    H111614   0.281   0.622   6.829
 3891TIP3    H211615   0.233   0.484   6.867
 3892TIP3   OH211616   1.221   3.019   3.691
 3892TIP3    H111617   1.240   2.981   3.777
 3892TIP3    H211618   1.292   3.080   3.676
 3893TIP3   OH211619   7.061   3.473   1.928
 3893TIP3    H111620   6.976   3.495   1.965
 3893TIP3    H211621   7.067   3.524   1.847
 3894TIP3   OH211622   7.625   5.078   5.198
 3894TIP3    H111623   7.604   5.128   5.277
 3894TIP3    H211624   7.614   4.987   5.223
 3895TIP3   OH211625   5.123   1.757   3.269
 3895TIP3    H111626   5.081   1.822   3.325
 3895TIP3    H211627   5.178   1.808   3.209
 3896TIP3   OH211628   2.898   6.448   3.859
 3896TIP3    H111629   2.812   6.486   3.878
 3896TIP3    H211630   2.879   6.358   3.833
 3897TIP3   OH211631   6.829   6.501   3.887
 3897TIP3    H111632   6.760   6.524   3.950
 3897TIP3    H211633   6.833   6.406   3.891
 3898TIP3   OH211634   5.752   3.176   3.156
 3898TIP3    H111635   5.740   3.087   3.124
 3898TIP3    H211636   5.665   3.215   3.152
 3899TIP3   OH211637   1.437   0.577   4.227
 3899TIP3    H111638   1.467   0.554   4.139
 3899TIP3    H211639   1.343   0.592   4.216
 3900TIP3   OH211640   7.616   6.047   6.770
 3900TIP3    H111641   7.624   5.964   6.817
 3900TIP3    H211642   7.576   6.024   6.687
 3901TIP3   OH211643   1.152   2.630   6.464
 3901TIP3    H111644   1.190   2.714   6.438
 3901TIP3    H211645   1.057   2.646   6.467
 3902TIP3   OH211646   0.531   3.731   1.851
 3902TIP3    H111647   0.502   3.647   1.817
 3902TIP3    H211648   0.456   3.789   1.839
 3903TIP3   OH211649   4.626   6.710   2.570
 3903TIP3    H111650   4.629   6.796   2.528
 3903TIP3    H211651   4.633   6.648   2.498
 3904TIP3   OH211652   3.567   2.238   4.467
 3904TIP3    H111653   3.516   2.268   4.392
 3904TIP3    H211654   3.651   2.211   4.430
 3905TIP3   OH211655   4.617   7.875   4.746
 3905TIP3    H111656   4.569   7.901   4.825
 3905TIP3    H211657   4.602   7.780   4.740
 3906TIP3   OH211658   3.513   5.729   4.460
 3906TIP3    H111659   3.586   5.788   4.445
 3906TIP3    H211660   3.435   5.784   4.447
 3907TIP3   OH211661   3.751   6.752   0.989
 3907TIP3    H111662   3.787   6.824   1.042
 3907TIP3    H211663   3.671   6.788   0.952
 3908TIP3   OH211664   7.332   6.539   6.019
 3908TIP3    H111665   7.304   6.598   6.090
 3908TIP3    H211666   7.418   6.509   6.047
 3909TIP3   OH211667   0.900   1.974   5.815
 3909TIP3    H111668   0.977   1.954   5.761
 3909TIP3    H211669   0.831   1.919   5.780
 3910TIP3   OH211670   4.381   2.015   6.237
 3910TIP3    H111671   4.439   1.994   6.164
 3910TIP3    H211672   4.317   2.077   6.201
 3911TIP3   OH211673   7.483   2.292   2.068
 3911TIP3    H111674   7.569   2.278   2.108
 3911TIP3    H211675   7.448   2.369   2.112
 3912TIP3   OH211676   4.731   0.911   5.448
 3912TIP3    H111677   4.640   0.907   5.416
 3912TIP3    H211678   4.768   0.825   5.426
 3913TIP3   OH211679   4.653   2.690   4.900
 3913TIP3    H111680   4.657   2.628   4.828
 3913TIP3    H211681   4.588   2.653   4.960
 3914TIP3   OH211682   0.396   7.220   1.129
 3914TIP3    H111683   0.384   7.183   1.216
 3914TIP3    H211684   0.315   7.269   1.113
 3915TIP3   OH211685   0.093   2.859   1.815
 3915TIP3    H111686   0.076   2.942   1.859
 3915TIP3    H211687   0.032   2.858   1.741
 3916TIP3   OH211688   0.572   6.653   2.848
 3916TIP3    H111689   0.532   6.674   2.933
 3916TIP3    H211690   0.661   6.687   2.855
 3917TIP3   OH211691   0.071   2.915   3.564
 3917TIP3    H111692  -0.005   2.894   3.509
 3917TIP3    H211693   0.120   2.980   3.514
 3918TIP3   OH211694   0.041   3.830   2.539
 3918TIP3    H111695   0.136   3.830   2.537
 3918TIP3    H211696   0.015   3.792   2.455
 3919TIP3   OH211697   3.742   7.089   1.473
 3919TIP3    H111698   3.810   7.146   1.435
 3919TIP3    H211699   3.671   7.149   1.495
 3920TIP3   OH211700   2.894   6.852   5.902
 3920TIP3    H111701   2.965   6.801   5.941
 3920TIP3    H211702   2.851   6.791   5.842
 3921TIP3   OH211703   2.366   2.248   5.363
 3921TIP3    H111704   2.411   2.318   5.315
 3921TIP3    H211705   2.351   2.285   5.450
 3922TIP3   OH211706   3.949   0.170   2.813
 3922TIP3    H111707   3.855   0.154   2.810
 3922TIP3    H211708   3.985   0.092   2.855
 3923TIP3   OH211709   4.002   2.070   0.712
 3923TIP3    H111710   3.922   2.122   0.704
 3923TIP3    H211711   3.977   1.982   0.683
 3924TIP3   OH211712   3.483   0.009   2.019
 3924TIP3    H111713   3.534   0.080   2.059
 3924TIP3    H211714   3.535  -0.070   2.037
 3925TIP3   OH211715   1.991   5.689   3.510
 3925TIP3    H111716   2.066   5.747   3.497
 3925TIP3    H211717   2.028   5.600   3.507
 3926TIP3   OH211718   6.383   0.623   5.470
 3926TIP3    H111719   6.413   0.579   5.391
 3926TIP3    H211720   6.288   0.632   5.458
 3927TIP3   OH211721   8.116   2.133   3.335
 3927TIP3    H111722   8.156   2.208   3.379
 3927TIP3    H211723   8.096   2.165   3.247
 3928TIP3   OH211724   8.140   1.054   2.586
 3928TIP3    H111725   8.146   1.036   2.680
 3928TIP3    H211726   8.133   0.967   2.545
 3929TIP3   OH211727   2.869   7.431   6.270
 3929TIP3    H111728   2.913   7.368   6.326
 3929TIP3    H211729   2.788   7.387   6.244
 3930TIP3   OH211730   5.633   0.490   0.489
 3930TIP3    H111731   5.729   0.493   0.484
 3930TIP3    H211732   5.605   0.467   0.401
 3931TIP3   OH211733   6.126   7.145   1.536
 3931TIP3    H111734   6.209   7.127   1.581
 3931TIP3    H211735   6.099   7.061   1.501
 3932TIP3   OH211736   0.582   3.063   4.866
 3932TIP3    H111737   0.524   2.987   4.869
 3932TIP3    H211738   0.602   3.074   4.773
 3933TIP3   OH211739   4.420   2.827   0.240
 3933TIP3    H111740   4.350   2.866   0.187
 3933TIP3    H211741   4.481   2.791   0.176
 3934TIP3   OH211742   2.886   4.368   6.023
 3934TIP3    H111743   2.857   4.450   5.982
 3934TIP3    H211744   2.822   4.303   5.994
 3935TIP3   OH211745   1.271   3.962   1.541
 3935TIP3    H111746   1.271   3.995   1.631
 3935TIP3    H211747   1.363   3.947   1.521
 3936TIP3   OH211748   7.096   0.299   2.063
 3936TIP3    H111749   7.183   0.264   2.043
 3936TIP3    H211750   7.065   0.335   1.980
 3937TIP3   OH211751   0.558   4.167   6.217
 3937TIP3    H111752   0.467   4.148   6.195
 3937TIP3    H211753   0.572   4.123   6.301
 3938TIP3   OH211754   6.987   1.912   4.955
 3938TIP3    H111755   7.002   1.873   5.041
 3938TIP3    H211756   6.898   1.947   4.959
 3939TIP3   OH211757   8.056   1.383   4.252
 3939TIP3    H111758   8.070   1.464   4.202
 3939TIP3    H211759   7.986   1.337   4.205
 3940TIP3   OH211760   6.555   3.752   5.943
 3940TIP3    H111761   6.603   3.791   6.017
 3940TIP3    H211762   6.521   3.827   5.894
 3941TIP3   OH211763   1.200   3.711   6.186
 3941TIP3    H111764   1.138   3.768   6.230
 3941TIP3    H211765   1.245   3.663   6.256
 3942TIP3   OH211766   7.591   6.023   6.160
 3942TIP3    H111767   7.649   5.951   6.136
 3942TIP3    H211768   7.518   6.015   6.098
 3943TIP3   OH211769   5.871   6.462   1.282
 3943TIP3    H111770   5.811   6.518   1.331
 3943TIP3    H211771   5.910   6.405   1.348
 3944TIP3   OH211772   4.690   7.874   6.863
 3944TIP3    H111773   4.602   7.843   6.841
 3944TIP3    H211774   4.736   7.875   6.779
 3945TIP3   OH211775   0.764   1.442   1.959
 3945TIP3    H111776   0.684   1.422   2.009
 3945TIP3    H211777   0.732   1.464   1.872
 3946TIP3   OH211778   2.497   3.083   5.142
 3946TIP3    H111779   2.497   3.038   5.226
 3946TIP3    H211780   2.540   3.022   5.082
 3947TIP3   OH211781   7.304   0.343   4.860
 3947TIP3    H111782   7.308   0.409   4.791
 3947TIP3    H211783   7.215   0.308   4.855
 3948TIP3   OH211784   2.216   3.424   0.211
 3948TIP3    H111785   2.147   3.368   0.247
 3948TIP3    H211786   2.293   3.368   0.208
 3949TIP3   OH211787   6.197   7.237   5.560
 3949TIP3    H111788   6.167   7.146   5.572
 3949TIP3    H211789   6.270   7.230   5.499
 3950TIP3   OH211790   1.379   7.628   1.116
 3950TIP3    H111791   1.444   7.616   1.047
 3950TIP3    H211792   1.364   7.540   1.151
 3951TIP3   OH211793   5.800   0.181   0.057
 3951TIP3    H111794   5.792   0.266   0.014
 3951TIP3    H211795   5.852   0.128  -0.003
 3952TIP3   OH211796   1.057   5.008   0.239
 3952TIP3    H111797   1.134   4.950   0.236
 3952TIP3    H211798   1.069   5.066   0.164
 3953TIP3   OH211799   6.833   3.956   2.084
 3953TIP3    H111800   6.886   3.890   2.041
 3953TIP3    H211801   6.893   4.002   2.143
 3954TIP3   OH211802   0.447   4.517   3.745
 3954TIP3    H111803   0.537   4.548   3.759
 3954TIP3    H211804   0.402   4.592   3.705
 3955TIP3   OH211805   6.767   2.921   3.180
 3955TIP3    H111806   6.835   2.912   3.113
 3955TIP3    H211807   6.807   2.974   3.248
 3956TIP3   OH211808   4.561   6.790   1.355
 3956TIP3    H111809   4.558   6.700   1.322
 3956TIP3    H211810   4.471   6.809   1.380
 3957TIP3   OH211811   5.508   2.910   1.462
 3957TIP3    H111812   5.561   2.949   1.532
 3957TIP3    H211813   5.468   2.985   1.418
 3958TIP3   OH211814   3.446   1.719   2.693
 3958TIP3    H111815   3.368   1.773   2.689
 3958TIP3    H211816   3.473   1.723   2.785
 3959TIP3   OH211817   1.249   7.156   2.221
 3959TIP3    H111818   1.254   7.081   2.280
 3959TIP3    H211819   1.289   7.124   2.139
 3960TIP3   OH211820   1.113   2.769   5.914
 3960TIP3    H111821   1.041   2.725   5.959
 3960TIP3    H211822   1.165   2.697   5.878
 3961TIP3   OH211823   3.127   6.797   4.685
 3961TIP3    H111824   3.148   6.876   4.734
 3961TIP3    H211825   3.191   6.732   4.715
 3962TIP3   OH211826   4.380   2.628   3.824
 3962TIP3    H111827   4.467   2.591   3.843
 3962TIP3    H211828   4.363   2.603   3.734
 3963TIP3   OH211829   7.685   1.212   0.581
 3963TIP3    H111830   7.637   1.251   0.508
 3963TIP3    H211831   7.704   1.123   0.553
 3964TIP3   OH211832   5.628   1.001   2.852
 3964TIP3    H111833   5.663   1.086   2.877
 3964TIP3    H211834   5.687   0.937   2.892
 3965TIP3   OH211835   6.570   5.105   1.126
 3965TIP3    H111836   6.544   5.122   1.036
 3965TIP3    H211837   6.503   5.046   1.160
 3966TIP3   OH211838   7.168   0.075   0.859
 3966TIP3    H111839   7.194   0.148   0.803
 3966TIP3    H211840   7.244   0.016   0.858
 3967TIP3   OH211841   4.057   6.861   3.697
 3967TIP3    H111842   3.971   6.826   3.673
 3967TIP3    H211843   4.037   6.946   3.737
 3968TIP3   OH211844   4.733   0.192   5.791
 3968TIP3    H111845   4.804   0.130   5.773
 3968TIP3    H211846   4.658   0.155   5.745
 3969TIP3   OH211847   4.359   6.291   4.703
 3969TIP3    H111848   4.366   6.324   4.614
 3969TIP3    H211849   4.426   6.338   4.752
 3970TIP3   OH211850   6.756   1.122   4.378
 3970TIP3    H111851   6.780   1.123   4.285
 3970TIP3    H211852   6.681   1.063   4.382
 3971TIP3   OH211853   0.137   5.921   0.001
 3971TIP3    H111854   0.175   5.912   0.088
 3971TIP3    H211855   0.210   5.899  -0.058
 3972TIP3   OH211856   4.658   7.297   4.400
 3972TIP3    H111857   4.747   7.326   4.416
 3972TIP3    H211858   4.665   7.202   4.391
 3973TIP3   OH211859   7.488   6.349   0.429
 3973TIP3    H111860   7.486   6.263   0.472
 3973TIP3    H211861   7.409   6.352   0.376
 3974TIP3   OH211862   2.711   1.302   6.658
 3974TIP3    H111863   2.700   1.248   6.737
 3974TIP3    H211864   2.634   1.359   6.658
 3975TIP3   OH211865   0.037   4.482   3.264
 3975TIP3    H111866   0.095   4.553   3.291
 3975TIP3    H211867   0.076   4.448   3.184
 3976TIP3   OH211868   2.714   3.227   6.266
 3976TIP3    H111869   2.645   3.291   6.286
 3976TIP3    H211870   2.681   3.180   6.189
 3977TIP3   OH211871   2.735   1.906   5.138
 3977TIP3    H111872   2.711   1.901   5.231
 3977TIP3    H211873   2.687   1.833   5.097
 3978TIP3   OH211874   7.839   4.940   0.703
 3978TIP3    H111875   7.796   4.994   0.637
 3978TIP3    H211876   7.852   4.999   0.778
 3979TIP3   OH211877   2.213   2.571   0.421
 3979TIP3    H111878   2.200   2.559   0.515
 3979TIP3    H211879   2.124   2.576   0.385
 3980TIP3   OH211880   5.973   4.888   0.773
 3980TIP3    H111881   5.925   4.805   0.780
 3980TIP3    H211882   5.936   4.943   0.842
 3981TIP3   OH211883   7.675   4.924   4.352
 3981TIP3    H111884   7.645   4.889   4.435
 3981TIP3    H211885   7.697   4.847   4.299
 3982TIP3   OH211886   0.220   4.791   4.571
 3982TIP3    H111887   0.175   4.707   4.556
 3982TIP3    H211888   0.223   4.800   4.666
 3983TIP3   OH211889   0.272   4.437   1.578
 3983TIP3    H111890   0.232   4.453   1.492
 3983TIP3    H211891   0.262   4.519   1.625
 3984TIP3   OH211892   7.476   4.317   0.812
 3984TIP3    H111893   7.527   4.290   0.735
 3984TIP3    H211894   7.385   4.313   0.783
 3985TIP3   OH211895   3.077   4.138   2.552
 3985TIP3    H111896   3.132   4.080   2.500
 3985TIP3    H211897   3.136   4.207   2.582
 3986TIP3   OH211898   7.555   2.420   2.532
 3986TIP3    H111899   7.480   2.369   2.502
 3986TIP3    H211900   7.630   2.379   2.489
 3987TIP3   OH211901   0.184   3.128   3.414
 3987TIP3    H111902   0.162   3.214   3.450
 3987TIP3    H211903   0.136   3.124   3.331
 3988TIP3   OH211904   1.637   2.771   3.200
 3988TIP3    H111905   1.631   2.705   3.131
 3988TIP3    H211906   1.549   2.774   3.238
 3989TIP3   OH211907   7.869   2.515   4.652
 3989TIP3    H111908   7.942   2.571   4.627
 3989TIP3    H211909   7.901   2.426   4.637
 3990TIP3   OH211910   2.212   2.155   4.957
 3990TIP3    H111911   2.303   2.175   4.981
 3990TIP3    H211912   2.211   2.060   4.945
 3991TIP3   OH211913   5.722   6.958   2.707
 3991TIP3    H111914   5.719   7.048   2.740
 3991TIP3    H211915   5.643   6.949   2.654
 3992TIP3   OH211916   4.195   2.247   0.563
 3992TIP3    H111917   4.249   2.170   0.542
 3992TIP3    H211918   4.245   2.293   0.630
 3993TIP3   OH211919   1.483   3.315   1.123
 3993TIP3    H111920   1.518   3.239   1.077
 3993TIP3    H211921   1.416   3.279   1.182
 3994TIP3   OH211922   7.080   5.870   3.548
 3994TIP3    H111923   7.105   5.962   3.549
 3994TIP3    H211924   7.018   5.862   3.475
 3995TIP3   OH211925   1.288   3.519   0.358
 3995TIP3    H111926   1.209   3.535   0.307
 3995TIP3    H211927   1.350   3.586   0.329
 3996TIP3   OH211928   2.262   2.338   5.603
 3996TIP3    H111929   2.329   2.389   5.647
 3996TIP3    H211930   2.191   2.400   5.586
 3997TIP3   OH211931   0.912   4.416   1.318
 3997TIP3    H111932   0.974   4.444   1.385
 3997TIP3    H211933   0.946   4.331   1.288
 3998TIP3   OH211934   2.234   7.522   4.059
 3998TIP3    H111935   2.181   7.570   4.123
 3998TIP3    H211936   2.315   7.571   4.053
 3999TIP3   OH211937   7.011   1.778   5.677
 3999TIP3    H111938   7.095   1.740   5.650
 3999TIP3    H211939   7.014   1.868   5.643
 4000TIP3   OH211940   1.517   6.624   2.926
 4000TIP3    H111941   1.523   6.706   2.975
 4000TIP3    H211942   1.482   6.649   2.841
 4001TIP3   OH211943   6.512   5.222   2.321
 4001TIP3    H111944   6.423   5.206   2.351
 4001TIP3    H211945   6.552   5.135   2.318
 4002TIP3   OH211946   6.000   3.780   4.136
 4002TIP3    H111947   5.934   3.719   4.104
 4002TIP3    H211948   6.083   3.746   4.102
 4003TIP3   OH211949   4.670   0.855   1.161
 4003TIP3    H111950   4.693   0.899   1.078
 4003TIP3    H211951   4.627   0.774   1.134
 4004TIP3   OH211952   5.357   4.497   6.556
 4004TIP3    H111953   5.264   4.496   6.581
 4004TIP3    H211954   5.356   4.525   6.465
 4005TIP3   OH211955   5.567   3.322   1.266
 4005TIP3    H111956   5.624   3.338   1.341
 4005TIP3    H211957   5.540   3.410   1.237
 4006TIP3   OH211958   2.495   5.248   0.289
 4006TIP3    H111959   2.475   5.330   0.244
 4006TIP3    H211960   2.591   5.245   0.292
 4007TIP3   OH211961   4.322   7.866   5.661
 4007TIP3    H111962   4.235   7.905   5.667
 4007TIP3    H211963   4.306   7.778   5.628
 4008TIP3   OH211964   0.331   4.872   4.340
 4008TIP3    H111965   0.248   4.920   4.335
 4008TIP3    H211966   0.343   4.853   4.433
 4009TIP3   OH211967   3.521   4.332   0.266
 4009TIP3    H111968   3.590   4.268   0.245
 4009TIP3    H211969   3.566   4.398   0.319
 4010TIP3   OH211970   6.162   2.259   2.348
 4010TIP3    H111971   6.076   2.300   2.345
 4010TIP3    H211972   6.147   2.173   2.385
 4011TIP3   OH211973   3.756   0.157   0.182
 4011TIP3    H111974   3.815   0.103   0.130
 4011TIP3    H211975   3.813   0.204   0.243
 4012TIP3   OH211976   8.073   6.784   6.122
 4012TIP3    H111977   7.986   6.746   6.126
 4012TIP3    H211978   8.083   6.814   6.032
 4013TIP3   OH211979   4.378   2.311   2.135
 4013TIP3    H111980   4.379   2.363   2.055
 4013TIP3    H211981   4.329   2.364   2.197
 4014TIP3   OH211982   5.340   0.963   3.810
 4014TIP3    H111983   5.283   0.904   3.861
 4014TIP3    H211984   5.428   0.945   3.843
 4015TIP3   OH211985   2.897   3.904   1.255
 4015TIP3    H111986   2.971   3.844   1.245
 4015TIP3    H211987   2.831   3.853   1.302
 4016TIP3   OH211988   3.276   4.185   1.398
 4016TIP3    H111989   3.226   4.155   1.323
 4016TIP3    H211990   3.368   4.174   1.373
 4017TIP3   OH211991   0.382   5.581   5.952
 4017TIP3    H111992   0.437   5.599   6.027
 4017TIP3    H211993   0.317   5.651   5.951
 4018TIP3   OH211994   1.826   3.583   4.035
 4018TIP3    H111995   1.763   3.522   3.996
 4018TIP3    H211996   1.896   3.527   4.069
 4019TIP3   OH211997   3.739   2.450   1.483
 4019TIP3    H111998   3.821   2.421   1.442
 4019TIP3    H211999   3.733   2.400   1.564
 4020TIP3   OH212000   0.267   1.632   4.405
 4020TIP3    H112001   0.346   1.653   4.354
 4020TIP3    H212002   0.232   1.718   4.429
 4021TIP3   OH212003   0.387   2.690   4.384
 4021TIP3    H112004   0.305   2.706   4.337
 4021TIP3    H212005   0.367   2.713   4.475
 4022TIP3   OH212006   2.693   0.363   5.804
 4022TIP3    H112007   2.694   0.391   5.712
 4022TIP3    H212008   2.733   0.276   5.803
 4023TIP3   OH212009   4.473   1.504   4.739
 4023TIP3    H112010   4.433   1.516   4.824
 4023TIP3    H212011   4.417   1.551   4.678
 4024TIP3   OH212012   5.662   1.635   3.055
 4024TIP3    H112013   5.613   1.590   2.986
 4024TIP3    H212014   5.659   1.575   3.130
 4025TIP3   OH212015   6.898   3.943   2.604
 4025TIP3    H112016   6.844   3.880   2.555
 4025TIP3    H212017   6.930   4.004   2.538
 4026TIP3   OH212018   4.685   2.462   3.159
 4026TIP3    H112019   4.711   2.554   3.171
 4026TIP3    H212020   4.754   2.424   3.104
 4027TIP3   OH212021   3.409   6.139   2.410
 4027TIP3    H112022   3.460   6.219   2.418
 4027TIP3    H212023   3.400   6.125   2.316
 4028TIP3   OH212024   3.231   1.942   1.591
 4028TIP3    H112025   3.153   1.995   1.610
 4028TIP3    H212026   3.215   1.859   1.636
 4029TIP3   OH212027   4.828   5.377   5.488
 4029TIP3    H112028   4.839   5.465   5.525
 4029TIP3    H212029   4.870   5.320   5.552
 4030TIP3   OH212030   0.281   1.147   2.901
 4030TIP3    H112031   0.244   1.196   2.975
 4030TIP3    H212032   0.204   1.110   2.857
 4031TIP3   OH212033   2.311   1.194   2.506
 4031TIP3    H112034   2.297   1.137   2.581
 4031TIP3    H212035   2.288   1.281   2.537
 4032TIP3   OH212036   6.683   5.439   6.287
 4032TIP3    H112037   6.704   5.497   6.214
 4032TIP3    H212038   6.679   5.352   6.247
 4033TIP3   OH212039   6.562   6.540   5.471
 4033TIP3    H112040   6.646   6.494   5.474
 4033TIP3    H212041   6.580   6.622   5.425
 4034TIP3   OH212042   5.011   7.410   4.423
 4034TIP3    H112043   4.949   7.480   4.402
 4034TIP3    H212044   5.011   7.407   4.519
 4035TIP3   OH212045   1.450   3.956   3.178
 4035TIP3    H112046   1.391   4.018   3.220
 4035TIP3    H212047   1.392   3.894   3.134
 4036TIP3   OH212048   5.382   3.622   6.523
 4036TIP3    H112049   5.308   3.635   6.464
 4036TIP3    H212050   5.419   3.538   6.498
 4037TIP3   OH212051   5.676   2.168   2.167
 4037TIP3    H112052   5.757   2.118   2.173
 4037TIP3    H212053   5.638   2.143   2.082
 4038TIP3   OH212054   2.387   1.588   1.968
 4038TIP3    H112055   2.471   1.628   1.990
 4038TIP3    H212056   2.348   1.568   2.053
 4039TIP3   OH212057   4.999   7.764   2.702
 4039TIP3    H112058   4.969   7.783   2.613
 4039TIP3    H212059   5.049   7.842   2.727
 4040TIP3   OH212060   8.049   3.364   1.966
 4040TIP3    H112061   8.087   3.299   1.906
 4040TIP3    H212062   8.095   3.445   1.946
 4041TIP3   OH212063   3.181   0.973   2.027
 4041TIP3    H112064   3.219   0.887   2.047
 4041TIP3    H212065   3.086   0.958   2.028
 4042TIP3   OH212066   4.961   6.619   1.989
 4042TIP3    H112067   4.931   6.619   1.898
 4042TIP3    H212068   4.914   6.546   2.030
 4043TIP3   OH212069   6.467   4.040   0.137
 4043TIP3    H112070   6.443   3.977   0.069
 4043TIP3    H212071   6.389   4.094   0.149
 4044TIP3   OH212072   3.741   2.066   3.053
 4044TIP3    H112073   3.735   2.158   3.027
 4044TIP3    H212074   3.827   2.059   3.095
 4045TIP3   OH212075   2.337   5.959   0.627
 4045TIP3    H112076   2.391   6.038   0.628
 4045TIP3    H212077   2.398   5.887   0.610
 4046TIP3   OH212078   0.767   7.459   5.859
 4046TIP3    H112079   0.806   7.511   5.930
 4046TIP3    H212080   0.702   7.517   5.820
 4047TIP3   OH212081   1.728   4.476   6.760
 4047TIP3    H112082   1.669   4.417   6.711
 4047TIP3    H212083   1.771   4.419   6.824
 4048TIP3   OH212084   1.446   4.985   3.663
 4048TIP3    H112085   1.428   5.045   3.734
 4048TIP3    H212086   1.368   4.989   3.607
 4049TIP3   OH212087   1.034   1.160   4.049
 4049TIP3    H112088   0.995   1.073   4.043
 4049TIP3    H212089   1.061   1.167   4.140
 4050TIP3   OH212090   2.671   3.310   5.257
 4050TIP3    H112091   2.638   3.224   5.232
 4050TIP3    H212092   2.697   3.301   5.348
 4051TIP3   OH212093   2.707   1.698   1.635
 4051TIP3    H112094   2.697   1.603   1.629
 4051TIP3    H212095   2.622   1.729   1.665
 4052TIP3   OH212096   4.152   3.887   6.148
 4052TIP3    H112097   4.058   3.882   6.127
 4052TIP3    H212098   4.154   3.906   6.242
 4053TIP3   OH212099   6.877   6.472   4.529
 4053TIP3    H112100   6.858   6.381   4.508
 4053TIP3    H212101   6.871   6.476   4.624
 4054TIP3   OH212102   5.434   4.019   1.285
 4054TIP3    H112103   5.486   4.099   1.295
 4054TIP3    H212104   5.487   3.963   1.229
 4055TIP3   OH212105   3.694   0.206   2.586
 4055TIP3    H112106   3.714   0.145   2.657
 4055TIP3    H212107   3.779   0.233   2.552
 4056TIP3   OH212108   0.974   2.302   6.414
 4056TIP3    H112109   0.929   2.225   6.382
 4056TIP3    H212110   0.933   2.375   6.368
 4057TIP3   OH212111   0.069   3.849   1.855
 4057TIP3    H112112  -0.005   3.883   1.906
 4057TIP3    H212113   0.083   3.760   1.890
 4058TIP3   OH212114   7.389   2.828   4.264
 4058TIP3    H112115   7.463   2.817   4.205
 4058TIP3    H212116   7.319   2.864   4.209
 4059TIP3   OH212117   2.848   6.153   3.904
 4059TIP3    H112118   2.847   6.143   3.999
 4059TIP3    H212119   2.938   6.130   3.879
 4060TIP3   OH212120   6.002   1.495   0.406
 4060TIP3    H112121   6.088   1.465   0.435
 4060TIP3    H212122   5.961   1.529   0.485
 4061TIP3   OH212123   7.792   3.594   0.232
 4061TIP3    H112124   7.845   3.673   0.222
 4061TIP3    H212125   7.773   3.589   0.326
 4062TIP3   OH212126   1.376   2.567   5.123
 4062TIP3    H112127   1.421   2.649   5.140
 4062TIP3    H212128   1.439   2.514   5.075
 4063TIP3   OH212129   7.354   2.268   2.449
 4063TIP3    H112130   7.314   2.341   2.403
 4063TIP3    H212131   7.281   2.211   2.472
 4064TIP3   OH212132   4.150   4.278   3.253
 4064TIP3    H112133   4.138   4.326   3.171
 4064TIP3    H212134   4.225   4.221   3.237
 4065TIP3   OH212135   2.154   7.696   3.058
 4065TIP3    H112136   2.189   7.695   2.969
 4065TIP3    H212137   2.090   7.624   3.060
 4066TIP3   OH212138   1.046   1.746   2.854
 4066TIP3    H112139   1.051   1.693   2.774
 4066TIP3    H212140   1.119   1.714   2.907
 4067TIP3   OH212141   6.908   3.345   4.840
 4067TIP3    H112142   6.877   3.318   4.927
 4067TIP3    H212143   6.908   3.264   4.789
 4068TIP3   OH212144   0.466   6.904   1.950
 4068TIP3    H112145   0.481   6.820   1.908
 4068TIP3    H212146   0.434   6.961   1.880
 4069TIP3   OH212147   8.070   2.020   0.428
 4069TIP3    H112148   7.977   2.033   0.405
 4069TIP3    H212149   8.091   2.095   0.484
 4070TIP3   OH212150   4.968   4.073   0.291
 4070TIP3    H112151   5.007   4.152   0.254
 4070TIP3    H212152   4.974   4.009   0.220
 4071TIP3   OH212153   7.791   1.555   4.242
 4071TIP3    H112154   7.787   1.640   4.197
 4071TIP3    H212155   7.856   1.567   4.310
 4072TIP3   OH212156   2.179   6.896   5.574
 4072TIP3    H112157   2.192   6.985   5.542
 4072TIP3    H212158   2.164   6.843   5.496
 4073TIP3   OH212159   2.616   1.194   2.850
 4073TIP3    H112160   2.616   1.109   2.894
 4073TIP3    H212161   2.601   1.173   2.758
 4074TIP3   OH212162   6.475   1.207   1.369
 4074TIP3    H112163   6.524   1.242   1.443
 4074TIP3    H212164   6.542   1.181   1.305
 4075TIP3   OH212165   2.049   2.386   6.130
 4075TIP3    H112166   2.118   2.340   6.082
 4075TIP3    H212167   2.001   2.317   6.175
 4076TIP3   OH212168   4.751   3.790   2.087
 4076TIP3    H112169   4.762   3.876   2.125
 4076TIP3    H212170   4.798   3.731   2.146
 4077TIP3   OH212171   0.226   1.976   3.293
 4077TIP3    H112172   0.187   1.956   3.378
 4077TIP3    H212173   0.288   1.905   3.277
 4078TIP3   OH212174   8.185   3.523   4.055
 4078TIP3    H112175   8.139   3.521   3.972
 4078TIP3    H212176   8.135   3.464   4.112
 4079TIP3   OH212177   6.277   2.989   3.007
 4079TIP3    H112178   6.304   3.016   3.095
 4079TIP3    H212179   6.240   3.068   2.969
 4080TIP3   OH212180   7.832   1.085   6.301
 4080TIP3    H112181   7.912   1.112   6.345
 4080TIP3    H212182   7.839   0.990   6.293
 4081TIP3   OH212183   5.259   0.985   4.864
 4081TIP3    H112184   5.260   1.079   4.847
 4081TIP3    H212185   5.183   0.972   4.921
 4082TIP3   OH212186   3.986   0.425   0.893
 4082TIP3    H112187   3.962   0.513   0.865
 4082TIP3    H212188   4.081   0.424   0.890
 4083TIP3   OH212189   7.388   6.959   3.840
 4083TIP3    H112190   7.453   6.896   3.811
 4083TIP3    H212191   7.438   7.034   3.872
 4084TIP3   OH212192   8.318   5.573   2.733
 4084TIP3    H112193   8.387   5.508   2.733
 4084TIP3    H212194   8.324   5.615   2.818
 4085TIP3   OH212195   5.485   3.204   0.390
 4085TIP3    H112196   5.440   3.149   0.325
 4085TIP3    H212197   5.573   3.216   0.355
 4086TIP3   OH212198   3.374   5.365   2.889
 4086TIP3    H112199   3.310   5.428   2.921
 4086TIP3    H212200   3.431   5.348   2.964
 4087TIP3   OH212201   6.737   1.966   5.784
 4087TIP3    H112202   6.697   1.895   5.833
 4087TIP3    H212203   6.789   1.923   5.716
 4088TIP3   OH212204   2.186   3.970   2.012
 4088TIP3    H112205   2.204   4.027   1.937
 4088TIP3    H212206   2.091   3.973   2.022
 4089TIP3   OH212207   2.950   3.030   5.322
 4089TIP3    H112208   3.031   3.004   5.366
 4089TIP3    H212209   2.967   3.119   5.292
 4090TIP3   OH212210   7.009   3.747   6.282
 4090TIP3    H112211   7.023   3.732   6.188
 4090TIP3    H212212   6.969   3.833   6.287
 4091TIP3   OH212213   0.672   5.358   4.970
 4091TIP3    H112214   0.708   5.335   4.885
 4091TIP3    H212215   0.685   5.452   4.977
 4092TIP3   OH212216   2.806   0.937   1.115
 4092TIP3    H112217   2.759   1.019   1.128
 4092TIP3    H212218   2.755   0.889   1.050
 4093TIP3   OH212219   2.650   6.210   1.328
 4093TIP3    H112220   2.573   6.172   1.286
 4093TIP3    H212221   2.720   6.146   1.313
 4094TIP3   OH212222   3.433   3.012   4.959
 4094TIP3    H112223   3.374   2.938   4.970
 4094TIP3    H212224   3.499   2.981   4.897
 4095TIP3   OH212225   2.987   5.003   4.248
 4095TIP3    H112226   2.910   4.949   4.231
 4095TIP3    H212227   3.061   4.942   4.241
 4096TIP3   OH212228   4.928   0.273   6.819
 4096TIP3    H112229   4.944   0.181   6.797
 4096TIP3    H212230   4.834   0.284   6.809
 4097TIP3   OH212231   3.027   6.270   6.214
 4097TIP3    H112232   2.971   6.197   6.240
 4097TIP3    H212233   3.029   6.327   6.290
 4098TIP3   OH212234   7.430   5.658   5.984
 4098TIP3    H112235   7.344   5.620   6.002
 4098TIP3    H212236   7.481   5.586   5.948
 4099TIP3   OH212237   4.764   5.836   4.958
 4099TIP3    H112238   4.776   5.842   5.053
 4099TIP3    H212239   4.850   5.857   4.922
 4100TIP3   OH212240   4.451   2.507   5.586
 4100TIP3    H112241   4.446   2.420   5.545
 4100TIP3    H212242   4.450   2.488   5.680
 4101TIP3   OH212243   3.767   2.341   0.449
 4101TIP3    H112244   3.775   2.278   0.521
 4101TIP3    H212245   3.845   2.396   0.456
 4102TIP3   OH212246   0.469   4.864   4.098
 4102TIP3    H112247   0.563   4.849   4.104
 4102TIP3    H212248   0.436   4.844   4.185
 4103TIP3   OH212249   3.125   7.299   4.995
 4103TIP3    H112250   3.122   7.218   4.942
 4103TIP3    H212251   3.033   7.326   5.001
 4104TIP3   OH212252   2.820   7.256   6.639
 4104TIP3    H112253   2.855   7.206   6.713
 4104TIP3    H212254   2.879   7.330   6.630
 4105TIP3   OH212255   4.266   1.561   5.777
 4105TIP3    H112256   4.248   1.477   5.818
 4105TIP3    H212257   4.355   1.582   5.803
 4106TIP3   OH212258   5.521   4.503   0.454
 4106TIP3    H112259   5.563   4.438   0.397
 4106TIP3    H212260   5.471   4.452   0.517
 4107TIP3   OH212261   0.364   1.382   4.629
 4107TIP3    H112262   0.431   1.425   4.681
 4107TIP3    H212263   0.406   1.364   4.545
 4108TIP3   OH212264   0.056   2.226   5.101
 4108TIP3    H112265   0.086   2.163   5.166
 4108TIP3    H212266   0.096   2.309   5.127
 4109TIP3   OH212267   3.028   4.688   2.551
 4109TIP3    H112268   3.116   4.723   2.565
 4109TIP3    H212269   3.013   4.699   2.457
 4110TIP3   OH212270   4.001   4.081   2.871
 4110TIP3    H112271   3.915   4.044   2.891
 4110TIP3    H212272   3.984   4.174   2.857
 4111TIP3   OH212273   6.178   3.965   6.032
 4111TIP3    H112274   6.265   4.005   6.036
 4111TIP3    H212275   6.154   3.950   6.123
 4112TIP3   OH212276   6.176   0.896   4.825
 4112TIP3    H112277   6.195   0.902   4.732
 4112TIP3    H212278   6.239   0.956   4.866
 4113TIP3   OH212279   6.920   6.173   4.291
 4113TIP3    H112280   6.883   6.102   4.239
 4113TIP3    H212281   6.844   6.211   4.336
 4114TIP3   OH212282   2.949   2.758   4.528
 4114TIP3    H112283   2.995   2.676   4.510
 4114TIP3    H212284   2.918   2.749   4.618
 4115TIP3   OH212285   7.591   7.828   1.819
 4115TIP3    H112286   7.569   7.770   1.892
 4115TIP3    H212287   7.542   7.792   1.745
 4116TIP3   OH212288   4.538   4.345   3.566
 4116TIP3    H112289   4.528   4.341   3.471
 4116TIP3    H212290   4.536   4.253   3.594
 4117TIP3   OH212291   3.519   6.260   4.503
 4117TIP3    H112292   3.450   6.258   4.437
 4117TIP3    H212293   3.511   6.177   4.549
 4118TIP3   OH212294   1.174   6.383   5.486
 4118TIP3    H112295   1.101   6.444   5.495
 4118TIP3    H212296   1.143   6.302   5.527
 4119TIP3   OH212297   0.343   2.678   1.795
 4119TIP3    H112298   0.294   2.760   1.794
 4119TIP3    H212299   0.298   2.622   1.732
 4120TIP3   OH212300   8.346   1.863   6.034
 4120TIP3    H112301   8.331   1.769   6.036
 4120TIP3    H212302   8.413   1.875   5.966
 4121TIP3   OH212303   1.604   7.328   6.605
 4121TIP3    H112304   1.679   7.275   6.578
 4121TIP3    H212305   1.528   7.273   6.585
 4122TIP3   OH212306   3.882   0.687   2.304
 4122TIP3    H112307   3.825   0.664   2.377
 4122TIP3    H212308   3.970   0.666   2.334
 4123TIP3   OH212309   2.204   1.378   5.059
 4123TIP3    H112310   2.193   1.461   5.105
 4123TIP3    H212311   2.154   1.389   4.977
 4124TIP3   OH212312   1.525   0.856   2.562
 4124TIP3    H112313   1.539   0.950   2.554
 4124TIP3    H212314   1.605   0.822   2.602
 4125TIP3   OH212315   1.261   7.556   0.719
 4125TIP3    H112316   1.315   7.481   0.744
 4125TIP3    H212317   1.217   7.527   0.639
 4126TIP3   OH212318   1.766   0.065   2.167
 4126TIP3    H112319   1.695   0.081   2.229
 4126TIP3    H212320   1.728   0.007   2.101
 4127TIP3   OH212321   0.437   1.509   6.631
 4127TIP3    H112322   0.361   1.538   6.682
 4127TIP3    H212323   0.499   1.479   6.697
 4128TIP3   OH212324   4.455   5.587   3.818
 4128TIP3    H112325   4.434   5.516   3.879
 4128TIP3    H212326   4.408   5.663   3.853
 4129TIP3   OH212327   4.384   5.646   1.385
 4129TIP3    H112328   4.333   5.699   1.324
 4129TIP3    H212329   4.409   5.707   1.455
 4130TIP3   OH212330   0.661   5.639   4.969
 4130TIP3    H112331   0.701   5.722   4.944
 4130TIP3    H212332   0.578   5.637   4.920
 4131TIP3   OH212333   2.447   6.529   0.339
 4131TIP3    H112334   2.464   6.449   0.388
 4131TIP3    H212335   2.382   6.504   0.274
 4132TIP3   OH212336   0.144   2.924   6.128
 4132TIP3    H112337   0.164   2.830   6.119
 4132TIP3    H212338   0.050   2.926   6.148
 4133TIP3   OH212339   8.357   4.139   4.581
 4133TIP3    H112340   8.438   4.125   4.629
 4133TIP3    H212341   8.338   4.232   4.592
 4134TIP3   OH212342   0.877   5.020   3.393
 4134TIP3    H112343   0.944   5.073   3.349
 4134TIP3    H212344   0.832   5.081   3.451
 4135TIP3   OH212345   6.205   6.212   5.987
 4135TIP3    H112346   6.288   6.207   5.940
 4135TIP3    H212347   6.229   6.235   6.076
 4136TIP3   OH212348   2.522   2.063   5.055
 4136TIP3    H112349   2.474   2.060   5.138
 4136TIP3    H212350   2.612   2.042   5.078
 4137TIP3   OH212351   3.777   4.834   4.329
 4137TIP3    H112352   3.843   4.766   4.315
 4137TIP3    H212353   3.797   4.870   4.415
 4138TIP3   OH212354   0.793   5.434   2.028
 4138TIP3    H112355   0.799   5.470   2.117
 4138TIP3    H212356   0.704   5.400   2.022
 4139TIP3   OH212357   6.801   3.859   5.827
 4139TIP3    H112358   6.753   3.777   5.841
 4139TIP3    H212359   6.800   3.872   5.732
 4140TIP3   OH212360   3.821   7.581   5.747
 4140TIP3    H112361   3.886   7.573   5.677
 4140TIP3    H212362   3.865   7.549   5.825
 4141TIP3   OH212363   5.045   7.629   0.488
 4141TIP3    H112364   5.071   7.542   0.458
 4141TIP3    H212365   4.959   7.644   0.448
 4142TIP3   OH212366   6.307   1.577   5.902
 4142TIP3    H112367   6.249   1.536   5.966
 4142TIP3    H212368   6.358   1.640   5.952
 4143TIP3   OH212369   2.920   6.087   0.502
 4143TIP3    H112370   2.914   6.162   0.561
 4143TIP3    H212371   2.869   6.114   0.425
 4144TIP3   OH212372   4.161   4.894   1.675
 4144TIP3    H112373   4.160   4.816   1.731
 4144TIP3    H212374   4.158   4.858   1.586
 4145TIP3   OH212375   7.829   6.427   3.873
 4145TIP3    H112376   7.772   6.350   3.874
 4145TIP3    H212377   7.858   6.437   3.963
 4146TIP3   OH212378   0.181   1.055   4.329
 4146TIP3    H112379   0.111   1.081   4.269
 4146TIP3    H212380   0.153   1.088   4.415
 4147TIP3   OH212381   0.356   2.478   3.573
 4147TIP3    H112382   0.379   2.571   3.580
 4147TIP3    H212383   0.440   2.432   3.574
 4148TIP3   OH212384   4.431   5.964   2.452
 4148TIP3    H112385   4.442   5.934   2.362
 4148TIP3    H212386   4.458   5.889   2.506
 4149TIP3   OH212387   2.575   4.460   1.573
 4149TIP3    H112388   2.559   4.457   1.479
 4149TIP3    H212389   2.662   4.497   1.582
 4150TIP3   OH212390   5.304   7.693   0.568
 4150TIP3    H112391   5.215   7.662   0.556
 4150TIP3    H212392   5.302   7.785   0.540
 4151TIP3   OH212393   0.177   7.768   5.773
 4151TIP3    H112394   0.183   7.801   5.683
 4151TIP3    H212395   0.241   7.698   5.777
 4152TIP3   OH212396   1.404   2.241   4.584
 4152TIP3    H112397   1.390   2.183   4.659
 4152TIP3    H212398   1.414   2.328   4.622
 4153TIP3   OH212399   2.032   0.929   0.029
 4153TIP3    H112400   2.013   0.959   0.118
 4153TIP3    H212401   2.075   1.003  -0.013
 4154TIP3   OH212402   2.152   3.921   5.017
 4154TIP3    H112403   2.126   3.910   4.925
 4154TIP3    H212404   2.081   3.880   5.067
 4155TIP3   OH212405   0.383   4.495   4.651
 4155TIP3    H112406   0.337   4.508   4.568
 4155TIP3    H212407   0.317   4.461   4.711
 4156TIP3   OH212408   6.100   3.487   2.641
 4156TIP3    H112409   6.063   3.556   2.586
 4156TIP3    H212410   6.136   3.424   2.578
 4157TIP3   OH212411   1.090   5.335   5.482
 4157TIP3    H112412   1.017   5.397   5.480
 4157TIP3    H212413   1.075   5.284   5.562
 4158TIP3   OH212414   4.816   0.042   4.120
 4158TIP3    H112415   4.873   0.038   4.043
 4158TIP3    H212416   4.729   0.063   4.084
 4159TIP3   OH212417   1.622   7.095   3.163
 4159TIP3    H112418   1.587   7.126   3.246
 4159TIP3    H212419   1.695   7.153   3.143
 4160TIP3   OH212420   2.086   6.784   1.106
 4160TIP3    H112421   1.995   6.807   1.087
 4160TIP3    H212422   2.116   6.740   1.026
 4161TIP3   OH212423   8.236   1.259   0.041
 4161TIP3    H112424   8.250   1.310  -0.038
 4161TIP3    H212425   8.197   1.321   0.103
 4162TIP3   OH212426   7.437   1.928   1.537
 4162TIP3    H112427   7.465   1.968   1.455
 4162TIP3    H212428   7.515   1.883   1.570
 4163TIP3   OH212429   1.317   7.840   2.572
 4163TIP3    H112430   1.388   7.856   2.634
 4163TIP3    H212431   1.239   7.830   2.628
 4164TIP3   OH212432   0.869   1.554   1.619
 4164TIP3    H112433   0.907   1.619   1.561
 4164TIP3    H212434   0.784   1.590   1.644
 4165TIP3   OH212435   7.147   5.654   0.862
 4165TIP3    H112436   7.210   5.700   0.806
 4165TIP3    H212437   7.179   5.564   0.866
 4166TIP3   OH212438   0.353   5.691   6.634
 4166TIP3    H112439   0.445   5.705   6.612
 4166TIP3    H212440   0.350   5.697   6.730
 4167TIP3   OH212441   3.700   4.032   5.942
 4167TIP3    H112442   3.684   4.122   5.969
 4167TIP3    H212443   3.673   4.029   5.851
 4168TIP3   OH212444   5.908   0.306   5.068
 4168TIP3    H112445   5.902   0.344   4.981
 4168TIP3    H212446   5.883   0.215   5.057
 4169TIP3   OH212447   1.385   3.689   1.421
 4169TIP3    H112448   1.447   3.617   1.415
 4169TIP3    H212449   1.299   3.648   1.411
 4170TIP3   OH212450   3.962   3.657   5.252
 4170TIP3    H112451   3.914   3.610   5.183
 4170TIP3    H212452   3.938   3.611   5.332
 4171TIP3   OH212453   0.332   6.047   4.019
 4171TIP3    H112454   0.340   5.953   4.001
 4171TIP3    H212455   0.251   6.073   3.975
 4172TIP3   OH212456   3.324   5.356   4.147
 4172TIP3    H112457   3.409   5.376   4.187
 4172TIP3    H212458   3.281   5.299   4.211
 4173TIP3   OH212459  -0.023   2.292   4.845
 4173TIP3    H112460   0.014   2.246   4.920
 4173TIP3    H212461   0.053   2.332   4.802
 4174TIP3   OH212462   1.687   4.670   2.777
 4174TIP3    H112463   1.637   4.634   2.704
 4174TIP3    H212464   1.761   4.609   2.788
 4175TIP3   OH212465   2.527   0.648   5.033
 4175TIP3    H112466   2.529   0.735   5.072
 4175TIP3    H212467   2.464   0.600   5.087
 4176TIP3   OH212468   7.285   5.694   6.289
 4176TIP3    H112469   7.378   5.712   6.296
 4176TIP3    H212470   7.246   5.736   6.366
 4177TIP3   OH212471   6.393   7.839   1.674
 4177TIP3    H112472   6.470   7.895   1.666
 4177TIP3    H212473   6.351   7.866   1.755
 4178TIP3   OH212474   3.058   2.429   1.679
 4178TIP3    H112475   3.152   2.450   1.679
 4178TIP3    H212476   3.055   2.334   1.694
 4179TIP3   OH212477   7.836   6.470   2.696
 4179TIP3    H112478   7.883   6.534   2.644
 4179TIP3    H212479   7.853   6.386   2.654
 4180TIP3   OH212480   4.139   7.503   1.463
 4180TIP3    H112481   4.127   7.558   1.540
 4180TIP3    H212482   4.152   7.414   1.498
 4181TIP3   OH212483   6.602   7.491   0.773
 4181TIP3    H112484   6.542   7.495   0.847
 4181TIP3    H212485   6.676   7.438   0.806
 4182TIP3   OH212486   7.936   6.119   5.865
 4182TIP3    H112487   7.884   6.051   5.823
 4182TIP3    H212488   8.024   6.107   5.829
 4183TIP3   OH212489   3.093   7.206   6.079
 4183TIP3    H112490   3.149   7.241   6.149
 4183TIP3    H212491   3.140   7.229   5.998
 4184TIP3   OH212492   8.220   3.911   4.515
 4184TIP3    H112493   8.250   3.998   4.541
 4184TIP3    H212494   8.300   3.865   4.491
 4185TIP3   OH212495   6.313   4.309   0.399
 4185TIP3    H112496   6.257   4.345   0.467
 4185TIP3    H212497   6.317   4.215   0.418
 4186TIP3   OH212498   0.361   0.590   1.326
 4186TIP3    H112499   0.293   0.531   1.295
 4186TIP3    H212500   0.384   0.643   1.250
 4187TIP3   OH212501   3.666   6.701   4.527
 4187TIP3    H112502   3.683   6.780   4.476
 4187TIP3    H212503   3.715   6.632   4.482
 4188TIP3   OH212504   2.411   2.940   1.334
 4188TIP3    H112505   2.354   3.003   1.380
 4188TIP3    H212506   2.494   2.945   1.381
 4189TIP3   OH212507   1.491   2.713   5.937
 4189TIP3    H112508   1.560   2.775   5.915
 4189TIP3    H212509   1.410   2.760   5.921
 4190TIP3   OH212510   6.577   4.063   3.703
 4190TIP3    H112511   6.587   3.976   3.740
 4190TIP3    H212512   6.541   4.048   3.616
 4191TIP3   OH212513   7.487   2.350   6.582
 4191TIP3    H112514   7.561   2.402   6.550
 4191TIP3    H212515   7.440   2.323   6.503
 4192TIP3   OH212516   1.931   3.356   0.748
 4192TIP3    H112517   1.957   3.441   0.712
 4192TIP3    H212518   1.837   3.365   0.765
 4193TIP3   OH212519   8.158   6.675   4.587
 4193TIP3    H112520   8.241   6.628   4.595
 4193TIP3    H212521   8.181   6.760   4.550
 4194TIP3   OH212522   5.962   5.921   4.830
 4194TIP3    H112523   5.957   5.852   4.764
 4194TIP3    H212524   6.024   5.887   4.895
 4195TIP3   OH212525   7.866   6.662   5.583
 4195TIP3    H112526   7.821   6.741   5.552
 4195TIP3    H212527   7.802   6.618   5.639
 4196TIP3   OH212528   1.587   4.244   2.390
 4196TIP3    H112529   1.552   4.196   2.465
 4196TIP3    H212530   1.555   4.196   2.314
 4197TIP3   OH212531   1.220   4.754   2.109
 4197TIP3    H112532   1.233   4.849   2.118
 4197TIP3    H212533   1.163   4.745   2.032
 4198TIP3   OH212534   8.175   7.381   5.870
 4198TIP3    H112535   8.252   7.438   5.866
 4198TIP3    H212536   8.129   7.398   5.788
 4199TIP3   OH212537   3.983   5.234   6.220
 4199TIP3    H112538   3.973   5.139   6.225
 4199TIP3    H212539   3.906   5.269   6.264
 4200TIP3   OH212540   4.650   7.475   1.493
 4200TIP3    H112541   4.739   7.441   1.493
 4200TIP3    H212542   4.597   7.403   1.458
 4201TIP3   OH212543   0.187   2.629  -0.009
 4201TIP3    H112544   0.151   2.661   0.073
 4201TIP3    H212545   0.274   2.595   0.014
 4202TIP3   OH212546   0.795   6.593   1.818
 4202TIP3    H112547   0.863   6.657   1.835
 4202TIP3    H212548   0.823   6.514   1.864
 4203TIP3   OH212549   2.830   3.245   2.506
 4203TIP3    H112550   2.837   3.202   2.421
 4203TIP3    H212551   2.915   3.288   2.518
 4204TIP3   OH212552   2.228   3.467   0.948
 4204TIP3    H112553   2.202   3.558   0.941
 4204TIP3    H212554   2.146   3.419   0.963
 4205TIP3   OH212555   5.249   1.104   0.083
 4205TIP3    H112556   5.299   1.135   0.159
 4205TIP3    H212557   5.162   1.083   0.119
 4206TIP3   OH212558   3.062   6.070   4.832
 4206TIP3    H112559   3.029   6.085   4.921
 4206TIP3    H212560   3.091   6.157   4.803
 4207TIP3   OH212561   5.807   4.468   3.098
 4207TIP3    H112562   5.800   4.531   3.026
 4207TIP3    H212563   5.854   4.514   3.167
 4208TIP3   OH212564   1.125   4.346   3.240
 4208TIP3    H112565   1.170   4.428   3.258
 4208TIP3    H212566   1.140   4.329   3.147
 4209TIP3   OH212567   0.181   6.434   1.339
 4209TIP3    H112568   0.108   6.469   1.288
 4209TIP3    H212569   0.222   6.511   1.378
 4210TIP3   OH212570   6.796   7.159   5.993
 4210TIP3    H112571   6.720   7.126   6.042
 4210TIP3    H212572   6.837   7.223   6.051
 4211TIP3   OH212573   4.498   5.664   5.286
 4211TIP3    H112574   4.506   5.571   5.264
 4211TIP3    H212575   4.547   5.673   5.368
 4212TIP3   OH212576   5.077   3.094   0.782
 4212TIP3    H112577   5.065   3.189   0.778
 4212TIP3    H212578   5.137   3.075   0.710
 4213TIP3   OH212579   5.769   7.606   5.817
 4213TIP3    H112580   5.795   7.696   5.839
 4213TIP3    H212581   5.713   7.579   5.889
 4214TIP3   OH212582   0.176   2.743   6.473
 4214TIP3    H112583   0.237   2.728   6.545
 4214TIP3    H212584   0.218   2.700   6.398
 4215TIP3   OH212585   0.630   5.739   6.601
 4215TIP3    H112586   0.684   5.781   6.668
 4215TIP3    H212587   0.655   5.647   6.604
 4216TIP3   OH212588   0.691   2.555   1.767
 4216TIP3    H112589   0.780   2.585   1.783
 4216TIP3    H212590   0.636   2.610   1.824
 4217TIP3   OH212591   0.928   6.518   0.943
 4217TIP3    H112592   0.968   6.432   0.927
 4217TIP3    H212593   0.940   6.565   0.861
 4218TIP3   OH212594   6.307   3.831   2.754
 4218TIP3    H112595   6.266   3.864   2.674
 4218TIP3    H212596   6.384   3.783   2.724
 4219TIP3   OH212597   4.431   2.826   5.178
 4219TIP3    H112598   4.461   2.739   5.205
 4219TIP3    H212599   4.497   2.886   5.213
 4220TIP3   OH212600   0.891   1.014   6.468
 4220TIP3    H112601   0.842   1.041   6.391
 4220TIP3    H212602   0.891   0.918   6.465
 4221TIP3   OH212603   3.345   7.171   4.432
 4221TIP3    H112604   3.394   7.239   4.387
 4221TIP3    H212605   3.410   7.126   4.486
 4222TIP3   OH212606   2.238   5.956   0.021
 4222TIP3    H112607   2.176   6.003  -0.036
 4222TIP3    H212608   2.182   5.901   0.076
 4223TIP3   OH212609   8.269   0.081   1.789
 4223TIP3    H112610   8.325   0.055   1.862
 4223TIP3    H212611   8.181   0.054   1.815
 4224TIP3   OH212612   4.113   1.551   1.189
 4224TIP3    H112613   4.077   1.464   1.175
 4224TIP3    H212614   4.192   1.555   1.136
 4225TIP3   OH212615   2.101   4.822   3.203
 4225TIP3    H112616   2.035   4.882   3.237
 4225TIP3    H212617   2.057   4.772   3.135
 4226TIP3   OH212618   5.563   5.834   2.215
 4226TIP3    H112619   5.602   5.921   2.212
 4226TIP3    H212620   5.590   5.793   2.133
 4227TIP3   OH212621   8.255   4.554   1.493
 4227TIP3    H112622   8.298   4.638   1.508
 4227TIP3    H212623   8.237   4.520   1.581
 4228TIP3   OH212624   2.502   0.504   0.793
 4228TIP3    H112625   2.587   0.475   0.760
 4228TIP3    H212626   2.476   0.574   0.733
 4229TIP3   OH212627   7.387   3.381   3.031
 4229TIP3    H112628   7.334   3.364   3.109
 4229TIP3    H212629   7.370   3.472   3.008
 4230TIP3   OH212630   1.125   1.558   1.792
 4230TIP3    H112631   1.046   1.607   1.813
 4230TIP3    H212632   1.149   1.587   1.704
 4231TIP3   OH212633   3.886   4.046   4.749
 4231TIP3    H112634   3.852   4.124   4.794
 4231TIP3    H212635   3.980   4.062   4.743
 4232TIP3   OH212636   2.806   1.786   0.037
 4232TIP3    H112637   2.759   1.725   0.094
 4232TIP3    H212638   2.739   1.846   0.005
 4233TIP3   OH212639   4.410   3.481   4.749
 4233TIP3    H112640   4.359   3.512   4.673
 4233TIP3    H212641   4.348   3.429   4.799
 4234TIP3   OH212642   0.348   2.517   4.125
 4234TIP3    H112643   0.262   2.511   4.166
 4234TIP3    H212644   0.335   2.483   4.037
 4235TIP3   OH212645   4.545   4.398   1.528
 4235TIP3    H112646   4.556   4.382   1.621
 4235TIP3    H212647   4.577   4.488   1.515
 4236TIP3   OH212648   2.591   6.447   0.581
 4236TIP3    H112649   2.527   6.386   0.543
 4236TIP3    H212650   2.657   6.390   0.622
 4237TIP3   OH212651   4.466   1.409   5.037
 4237TIP3    H112652   4.434   1.485   5.086
 4237TIP3    H212653   4.520   1.361   5.100
 4238TIP3   OH212654   7.210   2.531   2.561
 4238TIP3    H112655   7.147   2.598   2.534
 4238TIP3    H212656   7.156   2.455   2.583
 4239TIP3   OH212657   7.325   4.346   4.100
 4239TIP3    H112658   7.305   4.420   4.158
 4239TIP3    H212659   7.242   4.300   4.091
 4240TIP3   OH212660   3.720   5.156   5.540
 4240TIP3    H112661   3.721   5.080   5.482
 4240TIP3    H212662   3.697   5.119   5.626
 4241TIP3   OH212663   1.642   6.669   5.528
 4241TIP3    H112664   1.655   6.764   5.531
 4241TIP3    H212665   1.583   6.651   5.601
 4242TIP3   OH212666   7.353   7.427   2.846
 4242TIP3    H112667   7.307   7.446   2.928
 4242TIP3    H212668   7.443   7.407   2.873
 4243TIP3   OH212669   1.089   0.330   4.082
 4243TIP3    H112670   1.142   0.309   4.005
 4243TIP3    H212671   1.048   0.247   4.106
 4244TIP3   OH212672   6.741   2.251   0.878
 4244TIP3    H112673   6.768   2.170   0.921
 4244TIP3    H212674   6.822   2.300   0.865
 4245TIP3   OH212675   0.207   2.530   1.275
 4245TIP3    H112676   0.114   2.553   1.273
 4245TIP3    H212677   0.211   2.445   1.230
 4246TIP3   OH212678   3.654   2.879   2.994
 4246TIP3    H112679   3.699   2.806   3.036
 4246TIP3    H212680   3.579   2.839   2.949
 4247TIP3   OH212681   1.168   0.680   0.703
 4247TIP3    H112682   1.213   0.607   0.747
 4247TIP3    H212683   1.186   0.667   0.610
 4248TIP3   OH212684   6.355   2.061   2.074
 4248TIP3    H112685   6.321   1.972   2.081
 4248TIP3    H212686   6.277   2.115   2.061
 4249TIP3   OH212687   1.384   3.731   0.203
 4249TIP3    H112688   1.471   3.747   0.168
 4249TIP3    H212689   1.367   3.804   0.262
 4250TIP3   OH212690   1.557   0.655   3.490
 4250TIP3    H112691   1.536   0.689   3.403
 4250TIP3    H212692   1.652   0.647   3.490
 4251TIP3   OH212693   6.089   0.538   5.150
 4251TIP3    H112694   6.004   0.565   5.186
 4251TIP3    H212695   6.075   0.447   5.124
 4252TIP3   OH212696   5.584   7.742   6.414
 4252TIP3    H112697   5.609   7.714   6.501
 4252TIP3    H212698   5.638   7.819   6.397
 4253TIP3   OH212699   5.789   2.883   4.873
 4253TIP3    H112700   5.714   2.896   4.932
 4253TIP3    H212701   5.753   2.831   4.801
 4254TIP3   OH212702   0.365   4.220   4.999
 4254TIP3    H112703   0.302   4.161   5.041
 4254TIP3    H212704   0.439   4.163   4.976
 4255TIP3   OH212705   4.339   1.504   6.154
 4255TIP3    H112706   4.401   1.450   6.105
 4255TIP3    H212707   4.329   1.458   6.237
 4256TIP3   OH212708   0.894   1.187   0.767
 4256TIP3    H112709   0.831   1.121   0.739
 4256TIP3    H212710   0.978   1.142   0.769
 4257TIP3   OH212711   2.613   5.197   1.685
 4257TIP3    H112712   2.557   5.170   1.757
 4257TIP3    H212713   2.558   5.258   1.634
 4258TIP3   OH212714   2.075   6.266   2.767
 4258TIP3    H112715   2.109   6.291   2.681
 4258TIP3    H212716   2.031   6.182   2.752
 4259TIP3   OH212717   4.230   2.944   5.027
 4259TIP3    H112718   4.267   3.029   5.004
 4259TIP3    H212719   4.304   2.893   5.060
 4260TIP3   OH212720   2.020   2.843   0.353
 4260TIP3    H112721   1.947   2.821   0.295
 4260TIP3    H212722   2.059   2.921   0.313
 4261TIP3   OH212723   7.550   0.411   2.219
 4261TIP3    H112724   7.487   0.482   2.209
 4261TIP3    H212725   7.579   0.393   2.129
 4262TIP3   OH212726   6.344   4.170   0.777
 4262TIP3    H112727   6.346   4.131   0.865
 4262TIP3    H212728   6.298   4.105   0.723
 4263TIP3   OH212729   3.446   5.774   2.771
 4263TIP3    H112730   3.522   5.821   2.805
 4263TIP3    H212731   3.407   5.732   2.847
 4264TIP3   OH212732   4.208   1.697   1.413
 4264TIP3    H112733   4.192   1.626   1.475
 4264TIP3    H212734   4.176   1.663   1.329
 4265TIP3   OH212735   1.838   5.920   1.129
 4265TIP3    H112736   1.812   5.849   1.070
 4265TIP3    H212737   1.903   5.880   1.187
 4266TIP3   OH212738   0.308   1.396   1.034
 4266TIP3    H112739   0.280   1.305   1.035
 4266TIP3    H212740   0.392   1.396   0.988
 4267TIP3   OH212741   4.890   2.611   6.562
 4267TIP3    H112742   4.851   2.596   6.648
 4267TIP3    H212743   4.869   2.533   6.512
 4268TIP3   OH212744   2.208   6.558   5.783
 4268TIP3    H112745   2.240   6.576   5.872
 4268TIP3    H212746   2.287   6.555   5.729
 4269TIP3   OH212747   4.594   5.318   3.798
 4269TIP3    H112748   4.549   5.310   3.882
 4269TIP3    H212749   4.659   5.387   3.812
 4270TIP3   OH212750   3.106   6.502   1.456
 4270TIP3    H112751   3.123   6.468   1.368
 4270TIP3    H212752   3.169   6.456   1.512
 4271TIP3   OH212753   7.993   6.298   3.527
 4271TIP3    H112754   8.018   6.374   3.578
 4271TIP3    H212755   8.033   6.311   3.441
 4272TIP3   OH212756   2.731   2.324   5.740
 4272TIP3    H112757   2.787   2.315   5.663
 4272TIP3    H212758   2.645   2.348   5.704
 4273TIP3   OH212759   7.814   6.120   2.759
 4273TIP3    H112760   7.888   6.092   2.812
 4273TIP3    H212761   7.765   6.040   2.741
 4274TIP3   OH212762   0.780   4.969   2.954
 4274TIP3    H112763   0.795   5.027   2.879
 4274TIP3    H212764   0.741   5.025   3.021
 4275TIP3   OH212765   5.603   2.106   0.161
 4275TIP3    H112766   5.630   2.126   0.251
 4275TIP3    H212767   5.511   2.129   0.158
 4276TIP3   OH212768   2.037   2.695   6.205
 4276TIP3    H112769   2.021   2.760   6.136
 4276TIP3    H212770   2.022   2.611   6.162
 4277TIP3   OH212771   6.369   4.999   5.894
 4277TIP3    H112772   6.387   4.925   5.953
 4277TIP3    H212773   6.281   5.028   5.917
 4278TIP3   OH212774   5.537   0.406   6.243
 4278TIP3    H112775   5.585   0.426   6.163
 4278TIP3    H212776   5.592   0.441   6.313
 4279TIP3   OH212777   6.353   2.889   0.220
 4279TIP3    H112778   6.339   2.878   0.314
 4279TIP3    H212779   6.413   2.818   0.196
 4280TIP3   OH212780   1.252   5.702   1.905
 4280TIP3    H112781   1.328   5.662   1.948
 4280TIP3    H212782   1.288   5.777   1.858
 4281TIP3   OH212783   3.620   1.124   5.989
 4281TIP3    H112784   3.622   1.198   6.050
 4281TIP3    H212785   3.686   1.063   6.023
 4282TIP3   OH212786   3.584   4.677   4.617
 4282TIP3    H112787   3.558   4.744   4.681
 4282TIP3    H212788   3.648   4.624   4.664
 4283TIP3   OH212789   3.688   6.941   3.469
 4283TIP3    H112790   3.748   6.873   3.440
 4283TIP3    H212791   3.719   6.964   3.557
 4284TIP3   OH212792   2.797   2.357   0.378
 4284TIP3    H112793   2.803   2.385   0.287
 4284TIP3    H212794   2.704   2.339   0.391
 4285TIP3   OH212795   4.969   5.332   3.930
 4285TIP3    H112796   4.962   5.417   3.886
 4285TIP3    H212797   5.006   5.353   4.016
 4286TIP3   OH212798   6.849   2.041   0.678
 4286TIP3    H112799   6.837   1.963   0.733
 4286TIP3    H212800   6.865   2.112   0.739
 4287TIP3   OH212801   6.539   4.447   6.271
 4287TIP3    H112802   6.598   4.386   6.316
 4287TIP3    H212803   6.597   4.508   6.225
 4288TIP3   OH212804   1.698   1.132   1.418
 4288TIP3    H112805   1.653   1.213   1.441
 4288TIP3    H212806   1.786   1.159   1.392
 4289TIP3   OH212807   5.799   1.183   4.988
 4289TIP3    H112808   5.779   1.275   5.006
 4289TIP3    H212809   5.739   1.134   5.044
 4290TIP3   OH212810   0.212   4.992   0.717
 4290TIP3    H112811   0.195   5.041   0.797
 4290TIP3    H212812   0.298   5.023   0.688
 4291TIP3   OH212813   5.038   3.520   6.282
 4291TIP3    H112814   5.039   3.499   6.189
 4291TIP3    H212815   5.104   3.589   6.292
 4292TIP3   OH212816   2.352   2.878   5.901
 4292TIP3    H112817   2.275   2.852   5.951
 4292TIP3    H212818   2.426   2.840   5.948
 4293TIP3   OH212819   2.344   0.024   6.495
 4293TIP3    H112820   2.287  -0.031   6.549
 4293TIP3    H212821   2.318   0.113   6.516
 4294TIP3   OH212822   4.442   4.838   5.170
 4294TIP3    H112823   4.406   4.771   5.229
 4294TIP3    H212824   4.508   4.791   5.119
 4295TIP3   OH212825   5.288   3.384   1.303
 4295TIP3    H112826   5.211   3.353   1.351
 4295TIP3    H212827   5.346   3.419   1.370
 4296TIP3   OH212828   1.380   5.063   5.117
 4296TIP3    H112829   1.303   5.082   5.170
 4296TIP3    H212830   1.443   5.132   5.140
 4297TIP3   OH212831   1.822   4.131   5.179
 4297TIP3    H112832   1.905   4.145   5.225
 4297TIP3    H212833   1.778   4.216   5.184
 4298TIP3   OH212834   5.316   5.902   2.315
 4298TIP3    H112835   5.293   5.849   2.239
 4298TIP3    H212836   5.410   5.887   2.328
 4299TIP3   OH212837   2.060   5.510   5.517
 4299TIP3    H112838   2.139   5.462   5.543
 4299TIP3    H212839   1.990   5.446   5.523
 4300TIP3   OH212840   1.880   2.779   4.299
 4300TIP3    H112841   1.962   2.777   4.249
 4300TIP3    H212842   1.843   2.865   4.282
 4301TIP3   OH212843   4.980   1.433   3.691
 4301TIP3    H112844   4.914   1.412   3.757
 4301TIP3    H212845   4.956   1.380   3.615
 4302TIP3   OH212846   4.161   2.083   6.675
 4302TIP3    H112847   4.172   2.062   6.767
 4302TIP3    H212848   4.133   2.001   6.634
 4303TIP3   OH212849   7.963   1.834   0.719
 4303TIP3    H112850   7.943   1.868   0.631
 4303TIP3    H212851   8.007   1.907   0.763
 4304TIP3   OH212852   3.897   4.538   3.768
 4304TIP3    H112853   3.918   4.461   3.820
 4304TIP3    H212854   3.819   4.513   3.718
 4305TIP3   OH212855   4.078   3.670   2.382
 4305TIP3    H112856   4.143   3.603   2.401
 4305TIP3    H212857   3.995   3.622   2.378
 4306TIP3   OH212858   3.289   4.517   2.526
 4306TIP3    H112859   3.270   4.569   2.449
 4306TIP3    H212860   3.357   4.566   2.572
 4307TIP3   OH212861   5.062   1.891   2.274
 4307TIP3    H112862   4.980   1.938   2.290
 4307TIP3    H212863   5.091   1.922   2.188
 4308TIP3   OH212864   1.302   7.188   5.931
 4308TIP3    H112865   1.380   7.139   5.956
 4308TIP3    H212866   1.259   7.209   6.014
 4309TIP3   OH212867   7.237   4.521   0.966
 4309TIP3    H112868   7.193   4.532   0.881
 4309TIP3    H212869   7.329   4.541   0.947
 4310TIP3   OH212870   1.098   7.479   5.793
 4310TIP3    H112871   1.180   7.524   5.814
 4310TIP3    H212872   1.033   7.549   5.785
 4311TIP3   OH212873   5.377   4.281   1.882
 4311TIP3    H112874   5.357   4.371   1.860
 4311TIP3    H212875   5.392   4.282   1.977
 4312TIP3   OH212876   0.081   7.593   6.797
 4312TIP3    H112877   0.171   7.585   6.765
 4312TIP3    H212878   0.032   7.621   6.720
 4313TIP3   OH212879   5.251   7.623   4.729
 4313TIP3    H112880   5.213   7.646   4.644
 4313TIP3    H212881   5.201   7.675   4.792
 4314TIP3   OH212882   3.515   5.330   3.136
 4314TIP3    H112883   3.464   5.397   3.181
 4314TIP3    H212884   3.538   5.267   3.204
 4315TIP3   OH212885   4.371   5.422   2.141
 4315TIP3    H112886   4.441   5.438   2.204
 4315TIP3    H212887   4.411   5.435   2.056
 4316TIP3   OH212888   2.992   2.168   0.775
 4316TIP3    H112889   3.032   2.081   0.779
 4316TIP3    H212890   2.982   2.185   0.681
 4317TIP3   OH212891   2.210   3.610   4.945
 4317TIP3    H112892   2.148   3.552   4.900
 4317TIP3    H212893   2.181   3.610   5.036
 4318TIP3   OH212894   3.258   7.189   3.208
 4318TIP3    H112895   3.304   7.211   3.289
 4318TIP3    H212896   3.165   7.200   3.230
 4319TIP3   OH212897   1.973   2.208   6.693
 4319TIP3    H112898   2.040   2.150   6.655
 4319TIP3    H212899   1.944   2.163   6.772
 4320TIP3   OH212900   7.235   3.567   0.805
 4320TIP3    H112901   7.161   3.615   0.768
 4320TIP3    H212902   7.228   3.480   0.767
 4321TIP3   OH212903   2.834   1.476   6.486
 4321TIP3    H112904   2.783   1.497   6.408
 4321TIP3    H212905   2.780   1.413   6.534
 4322TIP3   OH212906   2.434   1.339   6.038
 4322TIP3    H112907   2.422   1.252   6.000
 4322TIP3    H212908   2.349   1.361   6.076
 4323TIP3   OH212909   6.207   0.972   1.596
 4323TIP3    H112910   6.199   0.919   1.517
 4323TIP3    H212911   6.270   1.041   1.573
 4324TIP3   OH212912   7.537   7.322   3.697
 4324TIP3    H112913   7.592   7.349   3.770
 4324TIP3    H212914   7.597   7.313   3.623
 4325TIP3   OH212915   5.054   2.328   5.680
 4325TIP3    H112916   5.102   2.300   5.758
 4325TIP3    H212917   5.075   2.263   5.613
 4326TIP3   OH212918   3.569   2.559   3.875
 4326TIP3    H112919   3.567   2.542   3.969
 4326TIP3    H212920   3.573   2.655   3.868
 4327TIP3   OH212921   2.157   7.412   6.565
 4327TIP3    H112922   2.113   7.460   6.494
 4327TIP3    H212923   2.208   7.479   6.611
 4328TIP3   OH212924   5.377   1.623   5.724
 4328TIP3    H112925   5.389   1.715   5.746
 4328TIP3    H212926   5.466   1.587   5.721
 4329TIP3   OH212927   1.582   4.827   2.329
 4329TIP3    H112928   1.656   4.881   2.303
 4329TIP3    H212929   1.530   4.883   2.386
 4330TIP3   OH212930   4.221   5.870   2.216
 4330TIP3    H112931   4.188   5.818   2.289
 4330TIP3    H212932   4.310   5.837   2.201
 4331TIP3   OH212933   2.312   3.276   5.924
 4331TIP3    H112934   2.317   3.217   6.000
 4331TIP3    H212935   2.269   3.224   5.856
 4332TIP3   OH212936   8.061   1.881   5.481
 4332TIP3    H112937   8.144   1.841   5.506
 4332TIP3    H212938   8.056   1.868   5.386
 4333TIP3   OH212939   7.577   7.111   3.967
 4333TIP3    H112940   7.569   7.198   4.006
 4333TIP3    H212941   7.576   7.051   4.041
 4334TIP3   OH212942   4.433   4.358   4.498
 4334TIP3    H112943   4.418   4.347   4.592
 4334TIP3    H212944   4.483   4.439   4.491
 4335TIP3   OH212945   3.387   3.150   6.301
 4335TIP3    H112946   3.442   3.122   6.374
 4335TIP3    H212947   3.375   3.070   6.249
 4336TIP3   OH212948   8.248   3.009   3.753
 4336TIP3    H112949   8.176   3.052   3.707
 4336TIP3    H212950   8.308   2.982   3.685
 4337TIP3   OH212951   5.696   1.196   1.457
 4337TIP3    H112952   5.715   1.162   1.370
 4337TIP3    H212953   5.747   1.277   1.463
 4338TIP3   OH212954   8.013   3.398   0.552
 4338TIP3    H112955   8.018   3.489   0.522
 4338TIP3    H212956   8.072   3.395   0.627
 4339TIP3   OH212957   7.748   7.631   5.387
 4339TIP3    H112958   7.802   7.665   5.459
 4339TIP3    H212959   7.686   7.701   5.368
 4340TIP3   OH212960   1.990   1.572   3.354
 4340TIP3    H112961   1.982   1.667   3.347
 4340TIP3    H212962   2.062   1.550   3.295
 4341TIP3   OH212963   6.635   3.830   5.262
 4341TIP3    H112964   6.645   3.915   5.219
 4341TIP3    H212965   6.555   3.839   5.314
 4342TIP3   OH212966   2.484   3.582   4.215
 4342TIP3    H112967   2.447   3.541   4.294
 4342TIP3    H212968   2.463   3.521   4.144
 4343TIP3   OH212969   6.913   4.502   6.000
 4343TIP3    H112970   6.969   4.426   6.011
 4343TIP3    H212971   6.870   4.488   5.915
 4344TIP3   OH212972   4.584   2.182   6.556
 4344TIP3    H112973   4.514   2.118   6.559
 4344TIP3    H212974   4.539   2.266   6.542
 4345TIP3   OH212975   3.811   2.599   4.216
 4345TIP3    H112976   3.719   2.582   4.198
 4345TIP3    H212977   3.811   2.662   4.288
 4346TIP3   OH212978   7.251   2.140   2.680
 4346TIP3    H112979   7.267   2.233   2.697
 4346TIP3    H212980   7.230   2.104   2.766
 4347TIP3   OH212981   3.220   0.505   0.661
 4347TIP3    H112982   3.230   0.450   0.583
 4347TIP3    H212983   3.126   0.522   0.666
 4348TIP3   OH212984   0.157   6.723   1.341
 4348TIP3    H112985   0.096   6.796   1.355
 4348TIP3    H212986   0.236   6.763   1.306
 4349TIP3   OH212987   4.272   5.641   6.005
 4349TIP3    H112988   4.329   5.672   6.075
 4349TIP3    H212989   4.245   5.554   6.033
 4350TIP3   OH212990   4.226   7.803   1.128
 4350TIP3    H112991   4.240   7.738   1.059
 4350TIP3    H212992   4.168   7.760   1.191
 4351TIP3   OH212993   6.912   6.524   1.170
 4351TIP3    H112994   6.926   6.581   1.246
 4351TIP3    H212995   6.938   6.437   1.201
 4352TIP3   OH212996   2.917   1.419   3.747
 4352TIP3    H112997   2.874   1.374   3.675
 4352TIP3    H212998   2.917   1.511   3.721
 4353TIP3   OH212999   1.035   5.369   4.050
 4353TIP3    H113000   0.984   5.317   3.987
 4353TIP3    H213001   0.981   5.447   4.066
 4354TIP3   OH213002   2.058   3.224   0.370
 4354TIP3    H113003   1.964   3.238   0.378
 4354TIP3    H213004   2.097   3.277   0.440
 4355TIP3   OH213005   2.623   2.846   3.136
 4355TIP3    H113006   2.683   2.917   3.115
 4355TIP3    H213007   2.643   2.823   3.227
 4356TIP3   OH213008   4.977   3.898   5.483
 4356TIP3    H113009   5.004   3.823   5.536
 4356TIP3    H213010   5.056   3.953   5.479
 4357TIP3   OH213011   3.607   7.653   6.172
 4357TIP3    H113012   3.580   7.707   6.245
 4357TIP3    H213013   3.682   7.699   6.134
 4358TIP3   OH213014   2.290   3.059   1.536
 4358TIP3    H113015   2.219   3.123   1.537
 4358TIP3    H213016   2.367   3.108   1.563
 4359TIP3   OH213017   6.881   2.878   2.273
 4359TIP3    H113018   6.823   2.807   2.247
 4359TIP3    H213019   6.960   2.835   2.305
 4360TIP3   OH213020   7.313   4.591   6.233
 4360TIP3    H113021   7.345   4.502   6.220
 4360TIP3    H213022   7.392   4.643   6.246
 4361TIP3   OH213023   7.963   1.450   4.800
 4361TIP3    H113024   8.026   1.396   4.849
 4361TIP3    H213025   7.894   1.469   4.864
 4362TIP3   OH213026   7.161   2.652   4.285
 4362TIP3    H113027   7.150   2.619   4.196
 4362TIP3    H213028   7.232   2.716   4.278
 4363TIP3   OH213029   1.217   3.212   2.131
 4363TIP3    H113030   1.181   3.150   2.068
 4363TIP3    H213031   1.160   3.289   2.124
 4364TIP3   OH213032   8.104   1.870   5.169
 4364TIP3    H113033   8.009   1.861   5.172
 4364TIP3    H213034   8.136   1.781   5.150
 4365TIP3   OH213035   3.848   5.805   6.656
 4365TIP3    H113036   3.759   5.817   6.691
 4365TIP3    H213037   3.850   5.713   6.629
 4366TIP3   OH213038   4.753   3.155   3.777
 4366TIP3    H113039   4.730   3.120   3.863
 4366TIP3    H213040   4.706   3.099   3.715
 4367TIP3   OH213041   7.951   2.498   5.320
 4367TIP3    H113042   7.876   2.440   5.304
 4367TIP3    H213043   8.014   2.474   5.252
 4368TIP3   OH213044   1.489   6.863   6.611
 4368TIP3    H113045   1.472   6.776   6.647
 4368TIP3    H213046   1.550   6.847   6.539
 4369TIP3   OH213047   6.258   4.497   6.551
 4369TIP3    H113048   6.295   4.475   6.637
 4369TIP3    H213049   6.331   4.537   6.503
 4370TIP3   OH213050   2.665   4.163   2.231
 4370TIP3    H113051   2.728   4.148   2.160
 4370TIP3    H213052   2.719   4.162   2.310
 4371TIP3   OH213053   4.467   5.751   2.194
 4371TIP3    H113054   4.527   5.678   2.177
 4371TIP3    H213055   4.510   5.827   2.155
 4372TIP3   OH213056   1.776   1.721   6.525
 4372TIP3    H113057   1.834   1.788   6.559
 4372TIP3    H213058   1.834   1.664   6.474
 4373TIP3   OH213059   4.477   3.441   1.556
 4373TIP3    H113060   4.503   3.510   1.496
 4373TIP3    H213061   4.556   3.423   1.607
 4374TIP3   OH213062   2.578   5.156   2.178
 4374TIP3    H113063   2.578   5.246   2.145
 4374TIP3    H213064   2.602   5.103   2.103
 4375TIP3   OH213065   3.202   6.377   1.232
 4375TIP3    H113066   3.241   6.372   1.145
 4375TIP3    H213067   3.135   6.308   1.232
 4376TIP3   OH213068   3.497   3.057   5.331
 4376TIP3    H113069   3.478   3.147   5.358
 4376TIP3    H213070   3.556   3.066   5.256
 4377TIP3   OH213071   4.821   7.076   5.740
 4377TIP3    H113072   4.821   6.990   5.782
 4377TIP3    H213073   4.736   7.114   5.763
 4378TIP3   OH213074   3.977   3.796   4.445
 4378TIP3    H113075   3.974   3.738   4.521
 4378TIP3    H213076   3.885   3.816   4.426
 4379TIP3   OH213077   5.529   6.868   1.642
 4379TIP3    H113078   5.584   6.909   1.709
 4379TIP3    H213079   5.502   6.940   1.585
 4380TIP3   OH213080   3.059   5.353   0.688
 4380TIP3    H113081   2.997   5.401   0.743
 4380TIP3    H213082   3.145   5.382   0.718
 4381TIP3   OH213083   5.387   1.913   6.445
 4381TIP3    H113084   5.443   1.929   6.521
 4381TIP3    H213085   5.386   1.818   6.436
 4382TIP3   OH213086   4.866   4.623   0.889
 4382TIP3    H113087   4.822   4.575   0.819
 4382TIP3    H213088   4.937   4.670   0.844
 4383TIP3   OH213089   1.438   0.776   0.781
 4383TIP3    H113090   1.472   0.773   0.691
 4383TIP3    H213091   1.353   0.818   0.773
 4384TIP3   OH213092   4.472   1.640   4.439
 4384TIP3    H113093   4.378   1.623   4.437
 4384TIP3    H213094   4.481   1.716   4.496
 4385TIP3   OH213095   0.699   6.760   3.729
 4385TIP3    H113096   0.730   6.774   3.819
 4385TIP3    H213097   0.769   6.710   3.687
 4386TIP3   OH213098   1.610   0.730   0.991
 4386TIP3    H113099   1.532   0.748   0.938
 4386TIP3    H213100   1.677   0.788   0.955
 4387TIP3   OH213101   4.600   2.348   0.696
 4387TIP3    H113102   4.507   2.369   0.685
 4387TIP3    H213103   4.639   2.363   0.610
 4388TIP3   OH213104   3.900   3.384   1.502
 4388TIP3    H113105   3.872   3.400   1.412
 4388TIP3    H213106   3.962   3.455   1.520
 4389TIP3   OH213107   4.419   3.549   0.869
 4389TIP3    H113108   4.448   3.596   0.948
 4389TIP3    H213109   4.324   3.543   0.879
 4390TIP3   OH213110   8.172   3.206   6.088
 4390TIP3    H113111   8.155   3.143   6.158
 4390TIP3    H213112   8.088   3.247   6.070
 4391TIP3   OH213113   6.843   3.489   0.171
 4391TIP3    H113114   6.852   3.531   0.085
 4391TIP3    H213115   6.926   3.443   0.183
 4392TIP3   OH213116   7.339   2.185   5.065
 4392TIP3    H113117   7.244   2.184   5.077
 4392TIP3    H213118   7.359   2.099   5.028
 4393TIP3   OH213119   3.110   3.014   6.857
 4393TIP3    H113120   3.122   3.052   6.770
 4393TIP3    H213121   3.040   2.950   6.846
 4394TIP3   OH213122   0.190   0.402   1.252
 4394TIP3    H113123   0.255   0.339   1.284
 4394TIP3    H213124   0.110   0.380   1.300
 4395TIP3   OH213125   6.053   1.018   2.903
 4395TIP3    H113126   6.037   1.113   2.907
 4395TIP3    H213127   6.004   0.983   2.978
 4396TIP3   OH213128   3.470   6.214   4.079
 4396TIP3    H113129   3.508   6.142   4.129
 4396TIP3    H213130   3.385   6.180   4.049
 4397TIP3   OH213131   4.379   2.070   1.243
 4397TIP3    H113132   4.317   2.129   1.199
 4397TIP3    H213133   4.451   2.061   1.181
 4398TIP3   OH213134   7.353   7.364   6.398
 4398TIP3    H113135   7.395   7.448   6.381
 4398TIP3    H213136   7.330   7.366   6.491
 4399TIP3   OH213137   1.298   3.822   4.467
 4399TIP3    H113138   1.208   3.854   4.479
 4399TIP3    H213139   1.320   3.846   4.377
 4400TIP3   OH213140   7.482   1.609   5.223
 4400TIP3    H113141   7.504   1.701   5.208
 4400TIP3    H213142   7.559   1.573   5.267
 4401TIP3   OH213143   2.063   3.457   2.036
 4401TIP3    H113144   2.126   3.529   2.041
 4401TIP3    H213145   2.085   3.401   2.111
 4402TIP3   OH213146   3.945   7.431   0.290
 4402TIP3    H113147   3.982   7.427   0.378
 4402TIP3    H213148   3.851   7.416   0.303
 4403TIP3   OH213149   7.816   4.763   0.482
 4403TIP3    H113150   7.857   4.680   0.509
 4403TIP3    H213151   7.829   4.821   0.556
 4404TIP3   OH213152   6.001   5.017   3.565
 4404TIP3    H113153   6.072   5.019   3.630
 4404TIP3    H213154   5.925   4.986   3.614
 4405TIP3   OH213155   2.798   6.481   2.884
 4405TIP3    H113156   2.758   6.517   2.805
 4405TIP3    H213157   2.884   6.523   2.889
 4406TIP3   OH213158   6.911   0.698   3.452
 4406TIP3    H113159   7.000   0.726   3.432
 4406TIP3    H213160   6.919   0.650   3.535
 4407TIP3   OH213161   7.708   1.901   1.552
 4407TIP3    H113162   7.739   1.991   1.559
 4407TIP3    H213163   7.759   1.863   1.480
 4408TIP3   OH213164   4.097   2.426   3.066
 4408TIP3    H113165   4.122   2.513   3.096
 4408TIP3    H213166   4.179   2.378   3.058
 4409TIP3   OH213167   2.058   2.817   5.957
 4409TIP3    H113168   2.004   2.785   5.885
 4409TIP3    H213169   2.043   2.912   5.959
 4410TIP3   OH213170   6.174   2.592   2.286
 4410TIP3    H113171   6.164   2.684   2.311
 4410TIP3    H213172   6.245   2.559   2.341
 4411TIP3   OH213173   3.553   3.152   1.676
 4411TIP3    H113174   3.630   3.174   1.728
 4411TIP3    H213175   3.515   3.076   1.720
 4412TIP3   OH213176   7.744   1.592   2.394
 4412TIP3    H113177   7.736   1.623   2.304
 4412TIP3    H213178   7.719   1.500   2.391
 4413TIP3   OH213179   2.055   7.658   0.125
 4413TIP3    H113180   2.054   7.615   0.039
 4413TIP3    H213181   1.993   7.606   0.178
 4414TIP3   OH213182   3.748   7.719   4.418
 4414TIP3    H113183   3.835   7.732   4.381
 4414TIP3    H213184   3.705   7.804   4.411
 4415TIP3   OH213185   0.196   5.660   4.891
 4415TIP3    H113186   0.117   5.715   4.891
 4415TIP3    H213187   0.177   5.592   4.826
 4416TIP3   OH213188   2.475   1.692   6.576
 4416TIP3    H113189   2.537   1.746   6.624
 4416TIP3    H213190   2.500   1.703   6.484
 4417TIP3   OH213191   6.126   5.921   4.533
 4417TIP3    H113192   6.145   5.828   4.548
 4417TIP3    H213193   6.035   5.931   4.561
 4418TIP3   OH213194   3.515   0.484   0.325
 4418TIP3    H113195   3.555   0.569   0.308
 4418TIP3    H213196   3.570   0.422   0.279
 4419TIP3   OH213197   5.699   5.908   1.672
 4419TIP3    H113198   5.665   5.851   1.742
 4419TIP3    H213199   5.668   5.995   1.696
 4420TIP3   OH213200   4.333   2.304   6.627
 4420TIP3    H113201   4.290   2.227   6.664
 4420TIP3    H213202   4.286   2.320   6.544
 4421TIP3   OH213203   3.039   2.885   6.160
 4421TIP3    H113204   2.983   2.833   6.101
 4421TIP3    H213205   3.062   2.962   6.109
 4422TIP3   OH213206   6.802   2.026   1.477
 4422TIP3    H113207   6.817   2.091   1.408
 4422TIP3    H213208   6.875   2.038   1.538
 4423TIP3   OH213209   6.543   3.028   6.636
 4423TIP3    H113210   6.500   2.956   6.591
 4423TIP3    H213211   6.511   3.023   6.726
 4424TIP3   OH213212   0.130   7.747   4.561
 4424TIP3    H113213   0.195   7.677   4.573
 4424TIP3    H213214   0.144   7.778   4.472
 4425TIP3   OH213215   7.784   5.791   4.749
 4425TIP3    H113216   7.712   5.758   4.803
 4425TIP3    H213217   7.753   5.877   4.719
 4426TIP3   OH213218   4.502   6.606   6.182
 4426TIP3    H113219   4.459   6.668   6.123
 4426TIP3    H213220   4.488   6.641   6.270
 4427TIP3   OH213221   1.607   5.937   6.027
 4427TIP3    H113222   1.694   5.912   6.058
 4427TIP3    H213223   1.589   5.877   5.955
 4428TIP3   OH213224   2.375   2.087   4.531
 4428TIP3    H113225   2.300   2.144   4.545
 4428TIP3    H213226   2.410   2.071   4.619
 4429TIP3   OH213227   0.587   1.882   6.095
 4429TIP3    H113228   0.590   1.964   6.144
 4429TIP3    H213229   0.645   1.823   6.143
 4430TIP3   OH213230   2.469   3.471   3.961
 4430TIP3    H113231   2.494   3.379   3.954
 4430TIP3    H213232   2.373   3.471   3.953
 4431TIP3   OH213233   3.071   5.196   2.793
 4431TIP3    H113234   3.065   5.238   2.707
 4431TIP3    H213235   3.163   5.203   2.817
 4432TIP3   OH213236   5.643   7.920   3.428
 4432TIP3    H113237   5.701   7.942   3.355
 4432TIP3    H213238   5.584   7.854   3.394
 4433TIP3   OH213239   8.033   6.056   2.914
 4433TIP3    H113240   7.969   5.990   2.941
 4433TIP3    H213241   8.117   6.012   2.920
 4434TIP3   OH213242   7.224   3.953   2.632
 4434TIP3    H113243   7.184   3.890   2.691
 4434TIP3    H213244   7.181   4.036   2.652
 4435TIP3   OH213245   3.454   3.614   4.407
 4435TIP3    H113246   3.373   3.567   4.387
 4435TIP3    H213247   3.495   3.561   4.475
 4436TIP3   OH213248   4.067   5.460   4.467
 4436TIP3    H113249   4.062   5.556   4.470
 4436TIP3    H213250   4.053   5.433   4.558
 4437TIP3   OH213251   4.760   2.764   6.222
 4437TIP3    H113252   4.702   2.764   6.298
 4437TIP3    H213253   4.831   2.704   6.245
 4438TIP3   OH213254   2.324   0.315   1.951
 4438TIP3    H113255   2.287   0.228   1.942
 4438TIP3    H213256   2.250   0.374   1.941
 4439TIP3   OH213257   6.746   7.430   3.798
 4439TIP3    H113258   6.784   7.384   3.873
 4439TIP3    H213259   6.654   7.442   3.821
 4440TIP3   OH213260   4.648   2.398   0.427
 4440TIP3    H113261   4.721   2.385   0.367
 4440TIP3    H213262   4.571   2.400   0.370
 4441TIP3   OH213263   6.434   2.020   4.877
 4441TIP3    H113264   6.506   1.957   4.874
 4441TIP3    H213265   6.451   2.071   4.956
 4442TIP3   OH213266   6.036   2.833   5.025
 4442TIP3    H113267   5.962   2.848   4.965
 4442TIP3    H213268   6.058   2.921   5.058
 4443TIP3   OH213269   1.737   6.245   4.812
 4443TIP3    H113270   1.712   6.266   4.722
 4443TIP3    H213271   1.833   6.246   4.811
 4444TIP3   OH213272   7.618   6.698   0.707
 4444TIP3    H113273   7.530   6.659   0.702
 4444TIP3    H213274   7.659   6.673   0.624
 4445TIP3   OH213275   6.139   1.754   3.221
 4445TIP3    H113276   6.127   1.846   3.245
 4445TIP3    H213277   6.065   1.735   3.163
 4446TIP3   OH213278   6.963   3.097   4.766
 4446TIP3    H113279   6.938   3.005   4.775
 4446TIP3    H213280   7.057   3.096   4.747
 4447TIP3   OH213281   2.230   6.334   2.130
 4447TIP3    H113282   2.275   6.342   2.046
 4447TIP3    H213283   2.296   6.300   2.190
 4448TIP3   OH213284   1.236   5.387   3.589
 4448TIP3    H113285   1.270   5.297   3.584
 4448TIP3    H213286   1.312   5.441   3.610
 4449TIP3   OH213287   1.486   2.052   2.771
 4449TIP3    H113288   1.527   2.099   2.844
 4449TIP3    H213289   1.405   2.018   2.807
 4450TIP3   OH213290   1.552   2.889   2.030
 4450TIP3    H113291   1.506   2.940   2.096
 4450TIP3    H213292   1.491   2.884   1.956
 4451TIP3   OH213293   7.954   7.285   6.676
 4451TIP3    H113294   7.895   7.234   6.621
 4451TIP3    H213295   8.041   7.269   6.639
 4452TIP3   OH213296   3.890   6.611   3.293
 4452TIP3    H113297   3.967   6.557   3.273
 4452TIP3    H213298   3.923   6.681   3.348
 4453TIP3   OH213299   3.016   1.247   3.406
 4453TIP3    H113300   2.990   1.168   3.358
 4453TIP3    H213301   2.934   1.280   3.444
 4454TIP3   OH213302   2.161   3.779   4.236
 4454TIP3    H113303   2.144   3.864   4.277
 4454TIP3    H213304   2.189   3.800   4.147
 4455TIP3   OH213305   4.093   3.509   2.770
 4455TIP3    H113306   4.100   3.421   2.806
 4455TIP3    H213307   4.106   3.567   2.845
 4456TIP3   OH213308   2.075   6.869   2.641
 4456TIP3    H113309   2.156   6.919   2.642
 4456TIP3    H213310   2.020   6.911   2.575
 4457TIP3   OH213311   5.797   2.990   4.468
 4457TIP3    H113312   5.724   3.027   4.517
 4457TIP3    H213313   5.811   3.051   4.396
 4458TIP3   OH213314   1.171   1.861   6.661
 4458TIP3    H113315   1.164   1.797   6.732
 4458TIP3    H213316   1.161   1.809   6.581
 4459TIP3   OH213317   1.543   6.400   2.455
 4459TIP3    H113318   1.498   6.372   2.534
 4459TIP3    H213319   1.473   6.421   2.393
 4460TIP3   OH213320   6.026   0.229   4.635
 4460TIP3    H113321   5.959   0.268   4.691
 4460TIP3    H213322   5.978   0.186   4.565
 4461TIP3   OH213323   5.886   3.928   4.640
 4461TIP3    H113324   5.824   3.872   4.594
 4461TIP3    H213325   5.895   3.889   4.727
 4462TIP3   OH213326   3.112   3.341   4.327
 4462TIP3    H113327   3.170   3.287   4.381
 4462TIP3    H213328   3.162   3.357   4.247
 4463TIP3   OH213329   6.077   1.136   0.175
 4463TIP3    H113330   6.065   1.119   0.268
 4463TIP3    H213331   6.156   1.191   0.171
 4464TIP3   OH213332   7.174   7.616   6.789
 4464TIP3    H113333   7.224   7.544   6.751
 4464TIP3    H213334   7.227   7.644   6.864
 4465TIP3   OH213335   3.161   1.042   6.119
 4465TIP3    H113336   3.244   1.018   6.160
 4465TIP3    H213337   3.169   1.137   6.104
 4466TIP3   OH213338   3.151   1.120   5.547
 4466TIP3    H113339   3.164   1.190   5.610
 4466TIP3    H213340   3.180   1.156   5.463
 4467TIP3   OH213341   5.927   0.328   0.642
 4467TIP3    H113342   5.978   0.388   0.588
 4467TIP3    H213343   5.858   0.296   0.585
 4468TIP3   OH213344   2.175   2.156   3.168
 4468TIP3    H113345   2.170   2.182   3.260
 4468TIP3    H213346   2.086   2.128   3.147
 4469TIP3   OH213347   2.034   0.082   3.915
 4469TIP3    H113348   2.109   0.088   3.856
 4469TIP3    H213349   2.038   0.163   3.966
 4470TIP3   OH213350   4.296   5.206   3.430
 4470TIP3    H113351   4.226   5.208   3.495
 4470TIP3    H213352   4.258   5.245   3.352
 4471TIP3   OH213353   6.598   4.285   4.804
 4471TIP3    H113354   6.568   4.357   4.859
 4471TIP3    H213355   6.561   4.305   4.717
 4472TIP3   OH213356   3.315   1.293   0.292
 4472TIP3    H113357   3.391   1.256   0.247
 4472TIP3    H213358   3.351   1.330   0.373
 4473TIP3   OH213359   8.162   6.607   2.663
 4473TIP3    H113360   8.093   6.671   2.648
 4473TIP3    H213361   8.165   6.596   2.758
 4474TIP3   OH213362   3.876   1.048   3.347
 4474TIP3    H113363   3.952   1.008   3.305
 4474TIP3    H213364   3.900   1.056   3.439
 4475TIP3   OH213365   3.321   5.596   5.208
 4475TIP3    H113366   3.364   5.512   5.189
 4475TIP3    H213367   3.227   5.577   5.201
 4476TIP3   OH213368   2.884   0.987   5.575
 4476TIP3    H113369   2.887   0.947   5.662
 4476TIP3    H213370   2.958   1.048   5.575
 4477TIP3   OH213371   4.849   5.897   4.166
 4477TIP3    H113372   4.937   5.915   4.133
 4477TIP3    H213373   4.833   5.966   4.231
 4478TIP3   OH213374   7.061   4.805   4.126
 4478TIP3    H113375   7.127   4.830   4.061
 4478TIP3    H213376   7.084   4.855   4.204
 4479TIP3   OH213377   3.122   4.457   1.561
 4479TIP3    H113378   3.141   4.523   1.495
 4479TIP3    H213379   3.175   4.482   1.636
 4480TIP3   OH213380   7.461   1.840   3.427
 4480TIP3    H113381   7.374   1.801   3.430
 4480TIP3    H213382   7.496   1.814   3.342
 4481TIP3   OH213383   3.277   4.820   2.587
 4481TIP3    H113384   3.302   4.783   2.672
 4481TIP3    H213385   3.357   4.859   2.553
 4482TIP3   OH213386   1.640   1.054   0.006
 4482TIP3    H113387   1.716   1.112   0.009
 4482TIP3    H213388   1.669   0.975   0.052
 4483TIP3   OH213389   4.783   5.116   2.010
 4483TIP3    H113390   4.752   5.148   1.926
 4483TIP3    H213391   4.769   5.022   2.007
 4484TIP3   OH213392   3.796   2.517   3.428
 4484TIP3    H113393   3.740   2.497   3.503
 4484TIP3    H213394   3.741   2.570   3.370
 4485TIP3   OH213395   3.886   5.121   0.259
 4485TIP3    H113396   3.906   5.093   0.170
 4485TIP3    H213397   3.866   5.214   0.251
 4486TIP3   OH213398   1.696   2.409   6.696
 4486TIP3    H113399   1.690   2.489   6.643
 4486TIP3    H213400   1.776   2.421   6.746
 4487TIP3   OH213401   3.259   5.061   2.430
 4487TIP3    H113402   3.302   5.025   2.352
 4487TIP3    H213403   3.216   4.985   2.470
 4488TIP3   OH213404   6.647   0.896   4.083
 4488TIP3    H113405   6.703   0.827   4.120
 4488TIP3    H213406   6.701   0.975   4.087
 4489TIP3   OH213407   0.047   4.533   1.107
 4489TIP3    H113408   0.055   4.475   1.032
 4489TIP3    H213409  -0.032   4.585   1.088
 4490TIP3   OH213410   5.994   3.928   3.064
 4490TIP3    H113411   5.997   3.914   2.970
 4490TIP3    H213412   6.080   3.901   3.096
 4491TIP3   OH213413   5.069   0.694   0.301
 4491TIP3    H113414   5.160   0.722   0.296
 4491TIP3    H213415   5.046   0.671   0.211
 4492TIP3   OH213416   0.129   1.215   6.104
 4492TIP3    H113417   0.217   1.252   6.106
 4492TIP3    H213418   0.087   1.257   6.029
 4493TIP3   OH213419   7.863   0.561   2.208
 4493TIP3    H113420   7.781   0.601   2.237
 4493TIP3    H213421   7.849   0.467   2.219
 4494TIP3   OH213422   4.378   6.720   5.966
 4494TIP3    H113423   4.314   6.791   5.973
 4494TIP3    H213424   4.328   6.641   5.987
 4495TIP3   OH213425   1.577   5.531   0.638
 4495TIP3    H113426   1.523   5.545   0.715
 4495TIP3    H213427   1.531   5.577   0.567
 4496TIP3   OH213428   5.038   1.268   1.710
 4496TIP3    H113429   5.131   1.289   1.700
 4496TIP3    H213430   5.034   1.172   1.709
 4497TIP3   OH213431   2.767   0.077   0.578
 4497TIP3    H113432   2.740  -0.014   0.562
 4497TIP3    H213433   2.698   0.129   0.537
 4498TIP3   OH213434   6.587   3.394   6.276
 4498TIP3    H113435   6.590   3.318   6.335
 4498TIP3    H213436   6.589   3.356   6.188
 4499TIP3   OH213437   5.393   0.099   1.325
 4499TIP3    H113438   5.386   0.183   1.280
 4499TIP3    H213439   5.313   0.053   1.301
 4500TIP3   OH213440   2.557   5.171   1.360
 4500TIP3    H113441   2.616   5.095   1.362
 4500TIP3    H213442   2.471   5.135   1.381
 4501TIP3   OH213443   5.045   1.670   3.768
 4501TIP3    H113444   5.044   1.656   3.863
 4501TIP3    H213445   5.035   1.583   3.731
 4502TIP3   OH213446   2.601   7.773   0.783
 4502TIP3    H113447   2.513   7.739   0.795
 4502TIP3    H213448   2.623   7.753   0.692
 4503TIP3   OH213449   3.473   5.744   4.053
 4503TIP3    H113450   3.429   5.687   4.116
 4503TIP3    H213451   3.564   5.714   4.052
 4504TIP3   OH213452   8.322   6.386   4.264
 4504TIP3    H113453   8.322   6.330   4.186
 4504TIP3    H213454   8.375   6.339   4.328
 4505TIP3   OH213455   8.118   2.827   6.545
 4505TIP3    H113456   8.065   2.848   6.468
 4505TIP3    H213457   8.171   2.905   6.560
 4506TIP3   OH213458   3.145   0.254   4.974
 4506TIP3    H113459   3.217   0.287   4.921
 4506TIP3    H213460   3.106   0.332   5.014
 4507TIP3   OH213461   5.696   2.375   3.973
 4507TIP3    H113462   5.756   2.410   4.038
 4507TIP3    H213463   5.719   2.282   3.967
 4508TIP3   OH213464   1.399   6.729   0.358
 4508TIP3    H113465   1.345   6.783   0.417
 4508TIP3    H213466   1.401   6.778   0.276
 4509TIP3   OH213467   0.031   0.206   3.069
 4509TIP3    H113468   0.068   0.128   3.110
 4509TIP3    H213469   0.013   0.265   3.142
 4510TIP3   OH213470   0.073   5.056   2.871
 4510TIP3    H113471   0.116   5.014   2.797
 4510TIP3    H213472  -0.021   5.042   2.856
 4511TIP3   OH213473   0.643   4.432   1.304
 4511TIP3    H113474   0.738   4.428   1.307
 4511TIP3    H213475   0.615   4.344   1.333
 4512TIP3   OH213476   1.470   4.159   1.222
 4512TIP3    H113477   1.435   4.226   1.281
 4512TIP3    H213478   1.402   4.145   1.157
 4513TIP3   OH213479   3.878   2.923   6.751
 4513TIP3    H113480   3.830   2.844   6.773
 4513TIP3    H213481   3.829   2.962   6.679
 4514TIP3   OH213482   7.204   0.882   3.009
 4514TIP3    H113483   7.192   0.971   3.043
 4514TIP3    H213484   7.254   0.895   2.928
 4515TIP3   OH213485   3.496   0.845   4.939
 4515TIP3    H113486   3.495   0.930   4.895
 4515TIP3    H213487   3.487   0.782   4.868
 4516TIP3   OH213488   3.385   0.130   1.709
 4516TIP3    H113489   3.465   0.117   1.659
 4516TIP3    H213490   3.403   0.208   1.763
 4517TIP3   OH213491   1.326   5.058   6.357
 4517TIP3    H113492   1.272   5.130   6.390
 4517TIP3    H213493   1.319   4.990   6.424
 4518TIP3   OH213494   2.201   5.815   3.907
 4518TIP3    H113495   2.266   5.880   3.934
 4518TIP3    H213496   2.248   5.731   3.909
 4519TIP3   OH213497   6.668   5.256   1.339
 4519TIP3    H113498   6.639   5.189   1.400
 4519TIP3    H213499   6.635   5.227   1.254
 4520TIP3   OH213500   3.844   6.739   3.540
 4520TIP3    H113501   3.750   6.730   3.553
 4520TIP3    H213502   3.879   6.651   3.558
 4521TIP3   OH213503   6.714   4.222   0.102
 4521TIP3    H113504   6.654   4.155   0.069
 4521TIP3    H213505   6.660   4.275   0.161
 4522TIP3   OH213506   1.443   1.721   2.481
 4522TIP3    H113507   1.482   1.737   2.395
 4522TIP3    H213508   1.500   1.767   2.543
 4523TIP3   OH213509   1.913   0.594   4.871
 4523TIP3    H113510   1.990   0.552   4.908
 4523TIP3    H213511   1.840   0.536   4.894
 4524TIP3   OH213512   7.106   1.832   4.224
 4524TIP3    H113513   7.065   1.895   4.165
 4524TIP3    H213514   7.062   1.749   4.204
 4525TIP3   OH213515   1.180   1.806   5.920
 4525TIP3    H113516   1.091   1.791   5.954
 4525TIP3    H213517   1.197   1.899   5.935
 4526TIP3   OH213518   6.997   4.795   0.431
 4526TIP3    H113519   6.954   4.712   0.452
 4526TIP3    H213520   6.938   4.862   0.467
 4527TIP3   OH213521   4.374   5.833   1.150
 4527TIP3    H113522   4.294   5.814   1.102
 4527TIP3    H213523   4.437   5.861   1.084
 4528TIP3   OH213524   0.547   5.041   0.431
 4528TIP3    H113525   0.547   4.965   0.373
 4528TIP3    H213526   0.621   5.026   0.491
 4529TIP3   OH213527   3.377   1.578   0.082
 4529TIP3    H113528   3.297   1.538   0.047
 4529TIP3    H213529   3.397   1.527   0.160
 4530TIP3   OH213530   7.460   3.494   5.384
 4530TIP3    H113531   7.436   3.460   5.471
 4530TIP3    H213532   7.475   3.416   5.331
 4531TIP3   OH213533   2.835   3.212   6.680
 4531TIP3    H113534   2.890   3.276   6.725
 4531TIP3    H213535   2.756   3.260   6.656
 4532TIP3   OH213536   8.335   5.641   0.569
 4532TIP3    H113537   8.416   5.666   0.612
 4532TIP3    H213538   8.352   5.654   0.476
 4533TIP3   OH213539   4.962   2.624   1.698
 4533TIP3    H113540   4.941   2.646   1.607
 4533TIP3    H213541   5.043   2.574   1.692
 4534TIP3   OH213542   0.042   6.076   4.882
 4534TIP3    H113543   0.004   6.161   4.862
 4534TIP3    H213544   0.127   6.096   4.922
 4535TIP3   OH213545   6.325   3.140   5.249
 4535TIP3    H113546   6.371   3.065   5.212
 4535TIP3    H213547   6.389   3.211   5.248
 4536TIP3   OH213548   5.219   3.017   1.141
 4536TIP3    H113549   5.280   2.975   1.080
 4536TIP3    H213550   5.166   3.075   1.086
 4537TIP3   OH213551   6.746   4.392   2.496
 4537TIP3    H113552   6.839   4.407   2.483
 4537TIP3    H213553   6.703   4.467   2.456
 4538TIP3   OH213554   3.973   7.355   5.410
 4538TIP3    H113555   3.977   7.261   5.427
 4538TIP3    H213556   3.971   7.395   5.497
 4539TIP3   OH213557   2.366   0.506   0.105
 4539TIP3    H113558   2.332   0.500   0.016
 4539TIP3    H213559   2.312   0.573   0.147
 4540TIP3   OH213560   3.774   5.346   1.288
 4540TIP3    H113561   3.823   5.263   1.292
 4540TIP3    H213562   3.841   5.413   1.275
 4541TIP3   OH213563   6.135   5.831   1.652
 4541TIP3    H113564   6.177   5.766   1.595
 4541TIP3    H213565   6.061   5.784   1.690
 4542TIP3   OH213566   7.557   4.684   2.435
 4542TIP3    H113567   7.570   4.762   2.381
 4542TIP3    H213568   7.466   4.688   2.463
 4543TIP3   OH213569   0.522   7.180   5.441
 4543TIP3    H113570   0.503   7.261   5.488
 4543TIP3    H213571   0.449   7.122   5.464
 4544TIP3   OH213572   7.459   7.206   2.993
 4544TIP3    H113573   7.433   7.152   2.919
 4544TIP3    H213574   7.524   7.267   2.957
 4545TIP3   OH213575   3.249   7.260   5.257
 4545TIP3    H113576   3.213   7.266   5.168
 4545TIP3    H213577   3.325   7.318   5.256
 4546TIP3   OH213578   7.366   2.323   3.832
 4546TIP3    H113579   7.398   2.255   3.892
 4546TIP3    H213580   7.362   2.280   3.747
 4547TIP3   OH213581   4.551   3.705   0.163
 4547TIP3    H113582   4.545   3.614   0.190
 4547TIP3    H213583   4.600   3.748   0.233
 4548TIP3   OH213584   5.494   1.575   4.952
 4548TIP3    H113585   5.495   1.576   4.857
 4548TIP3    H213586   5.584   1.599   4.977
 4549TIP3   OH213587   1.546   1.751   6.661
 4549TIP3    H113588   1.603   1.751   6.584
 4549TIP3    H213589   1.470   1.698   6.635
 4550TIP3   OH213590   5.348   5.240   3.141
 4550TIP3    H113591   5.343   5.146   3.157
 4550TIP3    H213592   5.263   5.264   3.103
 4551TIP3   OH213593   7.106   0.885   5.228
 4551TIP3    H113594   7.131   0.967   5.188
 4551TIP3    H213595   7.074   0.831   5.155
 4552TIP3   OH213596   2.712   0.766   1.613
 4552TIP3    H113597   2.799   0.794   1.583
 4552TIP3    H213598   2.689   0.828   1.682
 4553TIP3   OH213599   7.999   2.919   2.895
 4553TIP3    H113600   8.051   2.854   2.941
 4553TIP3    H213601   7.951   2.869   2.828
 4554TIP3   OH213602   7.569   1.637   4.006
 4554TIP3    H113603   7.490   1.692   4.010
 4554TIP3    H213604   7.627   1.684   3.946
 4555TIP3   OH213605   1.601   2.800   6.769
 4555TIP3    H113606   1.545   2.722   6.773
 4555TIP3    H213607   1.663   2.781   6.699
 4556TIP3   OH213608   6.898   0.762   2.641
 4556TIP3    H113609   6.846   0.754   2.722
 4556TIP3    H213610   6.917   0.671   2.617
 4557TIP3   OH213611   7.260   1.108   4.433
 4557TIP3    H113612   7.238   1.044   4.366
 4557TIP3    H213613   7.356   1.111   4.432
 4558TIP3   OH213614   2.275   6.857   2.317
 4558TIP3    H113615   2.264   6.875   2.223
 4558TIP3    H213616   2.217   6.920   2.360
 4559TIP3   OH213617   3.546   4.854   1.891
 4559TIP3    H113618   3.451   4.843   1.890
 4559TIP3    H213619   3.567   4.872   1.983
 4560TIP3   OH213620   6.865   7.125   2.916
 4560TIP3    H113621   6.841   7.137   3.008
 4560TIP3    H213622   6.835   7.037   2.895
 4561TIP3   OH213623   5.274   2.224   5.225
 4561TIP3    H113624   5.265   2.311   5.185
 4561TIP3    H213625   5.250   2.163   5.156
 4562TIP3   OH213626   2.822   1.328   5.608
 4562TIP3    H113627   2.773   1.286   5.679
 4562TIP3    H213628   2.912   1.297   5.620
 4563TIP3   OH213629   6.930   1.349   0.507
 4563TIP3    H113630   6.998   1.311   0.451
 4563TIP3    H213631   6.910   1.280   0.570
 4564TIP3   OH213632   3.610   3.592   5.207
 4564TIP3    H113633   3.551   3.645   5.154
 4564TIP3    H213634   3.691   3.588   5.157
 4565TIP3   OH213635   1.562   3.791   4.816
 4565TIP3    H113636   1.646   3.747   4.829
 4565TIP3    H213637   1.554   3.850   4.891
 4566TIP3   OH213638   4.787   6.424   2.742
 4566TIP3    H113639   4.772   6.386   2.656
 4566TIP3    H213640   4.845   6.362   2.787
 4567TIP3   OH213641   6.662   1.088   0.328
 4567TIP3    H113642   6.725   1.016   0.337
 4567TIP3    H213643   6.674   1.120   0.238
 4568TIP3   OH213644   5.995   5.630   3.532
 4568TIP3    H113645   6.069   5.687   3.555
 4568TIP3    H213646   6.036   5.548   3.504
 4569TIP3   OH213647   6.524   1.029   3.736
 4569TIP3    H113648   6.554   1.113   3.770
 4569TIP3    H213649   6.487   1.050   3.650
 4570TIP3   OH213650   1.272   2.608   5.469
 4570TIP3    H113651   1.200   2.667   5.446
 4570TIP3    H213652   1.255   2.528   5.421
 4571TIP3   OH213653   4.505   5.342   5.975
 4571TIP3    H113654   4.540   5.386   5.897
 4571TIP3    H213655   4.431   5.292   5.943
 4572TIP3   OH213656   0.528   5.333   1.975
 4572TIP3    H113657   0.495   5.298   2.058
 4572TIP3    H213658   0.455   5.385   1.941
 4573TIP3   OH213659   2.444   7.924   4.222
 4573TIP3    H113660   2.534   7.895   4.231
 4573TIP3    H213661   2.410   7.875   4.147
 4574TIP3   OH213662   2.735   2.510   5.077
 4574TIP3    H113663   2.830   2.514   5.086
 4574TIP3    H213664   2.710   2.597   5.045
 4575TIP3   OH213665   7.265   3.688   6.277
 4575TIP3    H113666   7.232   3.615   6.224
 4575TIP3    H213667   7.186   3.727   6.314
 4576TIP3   OH213668   7.254   2.417   3.209
 4576TIP3    H113669   7.342   2.383   3.194
 4576TIP3    H213670   7.203   2.385   3.135
 4577TIP3   OH213671   5.356   0.510   5.647
 4577TIP3    H113672   5.351   0.509   5.743
 4577TIP3    H213673   5.266   0.527   5.619
 4578TIP3   OH213674   5.494   1.535   3.650
 4578TIP3    H113675   5.477   1.453   3.697
 4578TIP3    H213676   5.465   1.517   3.560
 4579TIP3   OH213677   2.325   1.186   0.313
 4579TIP3    H113678   2.393   1.249   0.338
 4579TIP3    H213679   2.252   1.204   0.373
 4580TIP3   OH213680   5.505   4.140   6.103
 4580TIP3    H113681   5.432   4.170   6.157
 4580TIP3    H213682   5.542   4.067   6.153
 4581TIP3   OH213683   4.694   3.925   0.808
 4581TIP3    H113684   4.635   3.866   0.761
 4581TIP3    H213685   4.695   3.891   0.898
 4582TIP3   OH213686   8.331   2.070   0.046
 4582TIP3    H113687   8.317   2.122   0.126
 4582TIP3    H213688   8.253   2.015   0.040
 4583TIP3   OH213689   2.589   0.223   2.021
 4583TIP3    H113690   2.642   0.295   2.056
 4583TIP3    H213691   2.500   0.260   2.016
 4584TIP3   OH213692   4.157   6.211   6.420
 4584TIP3    H113693   4.103   6.288   6.437
 4584TIP3    H213694   4.106   6.138   6.458
 4585TIP3   OH213695   7.475   2.038   1.279
 4585TIP3    H113696   7.405   2.038   1.214
 4585TIP3    H213697   7.487   2.130   1.302
 4586TIP3   OH213698   1.034   4.870   2.988
 4586TIP3    H113699   1.050   4.934   2.918
 4586TIP3    H213700   0.940   4.856   2.987
 4587TIP3   OH213701   2.941   1.124   5.112
 4587TIP3    H113702   3.009   1.065   5.080
 4587TIP3    H213703   2.889   1.069   5.171
 4588TIP3   OH213704   7.735   6.797   0.973
 4588TIP3    H113705   7.688   6.763   0.898
 4588TIP3    H213706   7.691   6.879   0.994
 4589TIP3   OH213707   0.577   2.138   0.146
 4589TIP3    H113708   0.568   2.212   0.086
 4589TIP3    H213709   0.541   2.064   0.098
 4590TIP3   OH213710   2.557   5.781   0.632
 4590TIP3    H113711   2.564   5.857   0.690
 4590TIP3    H213712   2.641   5.779   0.586
 4591TIP3   OH213713   6.182   2.346   4.595
 4591TIP3    H113714   6.111   2.282   4.592
 4591TIP3    H213715   6.214   2.350   4.505
 4592TIP3   OH213716   8.308   7.381   2.576
 4592TIP3    H113717   8.317   7.475   2.589
 4592TIP3    H213718   8.224   7.370   2.533
 4593TIP3   OH213719   3.369   2.382   1.676
 4593TIP3    H113720   3.382   2.336   1.593
 4593TIP3    H213721   3.403   2.322   1.742
 4594TIP3   OH213722   3.940   4.151   0.432
 4594TIP3    H113723   3.911   4.235   0.468
 4594TIP3    H213724   4.032   4.145   0.457
 4595TIP3   OH213725   5.599   7.637   3.611
 4595TIP3    H113726   5.535   7.702   3.640
 4595TIP3    H213727   5.554   7.553   3.621
 4596TIP3   OH213728   2.491   4.697   5.714
 4596TIP3    H113729   2.527   4.773   5.759
 4596TIP3    H213730   2.566   4.659   5.667
 4597TIP3   OH213731   3.676   1.721   2.066
 4597TIP3    H113732   3.729   1.663   2.011
 4597TIP3    H213733   3.602   1.667   2.094
 4598TIP3   OH213734   5.874   3.464   4.167
 4598TIP3    H113735   5.858   3.494   4.257
 4598TIP3    H213736   5.963   3.430   4.168
 4599TIP3   OH213737   4.862   3.616   4.429
 4599TIP3    H113738   4.868   3.568   4.511
 4599TIP3    H213739   4.808   3.561   4.372
 4600TIP3   OH213740   3.632   3.359   3.981
 4600TIP3    H113741   3.634   3.274   4.024
 4600TIP3    H213742   3.699   3.353   3.912
 4601TIP3   OH213743   3.493   1.016   0.393
 4601TIP3    H113744   3.469   1.102   0.429
 4601TIP3    H213745   3.580   0.999   0.429
 4602TIP3   OH213746   2.487   7.823   3.719
 4602TIP3    H113747   2.445   7.737   3.723
 4602TIP3    H213748   2.576   7.808   3.748
 4603TIP3   OH213749   5.776   4.138   0.959
 4603TIP3    H113750   5.755   4.074   0.892
 4603TIP3    H213751   5.865   4.166   0.939
 4604TIP3   OH213752   3.542   0.295   5.394
 4604TIP3    H113753   3.460   0.318   5.439
 4604TIP3    H213754   3.609   0.303   5.461
 4605TIP3   OH213755   0.623   0.206   4.757
 4605TIP3    H113756   0.651   0.226   4.846
 4605TIP3    H213757   0.546   0.260   4.742
 4606TIP3   OH213758   4.157   1.838   6.525
 4606TIP3    H113759   4.138   1.805   6.437
 4606TIP3    H213760   4.180   1.760   6.576
 4607TIP3   OH213761   0.241   6.382   4.599
 4607TIP3    H113762   0.250   6.387   4.694
 4607TIP3    H213763   0.331   6.369   4.568
 4608TIP3   OH213764   1.994   4.686   2.143
 4608TIP3    H113765   2.058   4.703   2.212
 4608TIP3    H213766   2.004   4.761   2.083
 4609TIP3   OH213767   0.896   4.544   5.807
 4609TIP3    H113768   0.947   4.601   5.864
 4609TIP3    H213769   0.806   4.574   5.818
 4610TIP3   OH213770   1.782   7.125   6.510
 4610TIP3    H113771   1.741   7.122   6.423
 4610TIP3    H213772   1.786   7.033   6.537
 4611TIP3   OH213773   4.790   7.556   5.346
 4611TIP3    H113774   4.877   7.533   5.313
 4611TIP3    H213775   4.757   7.475   5.385
 4612TIP3   OH213776   6.675   7.455   0.462
 4612TIP3    H113777   6.644   7.537   0.500
 4612TIP3    H213778   6.744   7.482   0.401
 4613TIP3   OH213779   3.711   3.226   0.779
 4613TIP3    H113780   3.795   3.184   0.763
 4613TIP3    H213781   3.691   3.205   0.870
 4614TIP3   OH213782   5.521   3.594   1.149
 4614TIP3    H113783   5.528   3.685   1.121
 4614TIP3    H213784   5.498   3.545   1.070
 4615TIP3   OH213785   1.763   1.183   6.785
 4615TIP3    H113786   1.701   1.117   6.754
 4615TIP3    H213787   1.725   1.267   6.758
 4616TIP3   OH213788   3.526   7.765   3.616
 4616TIP3    H113789   3.547   7.857   3.601
 4616TIP3    H213790   3.434   7.765   3.643
 4617TIP3   OH213791   5.699   2.721   6.802
 4617TIP3    H113792   5.647   2.802   6.799
 4617TIP3    H213793   5.788   2.752   6.816
 4618TIP3   OH213794   1.468   2.551   4.021
 4618TIP3    H113795   1.557   2.587   4.027
 4618TIP3    H213796   1.434   2.558   4.111
 4619TIP3   OH213797   4.582   0.420   6.404
 4619TIP3    H113798   4.508   0.480   6.396
 4619TIP3    H213799   4.575   0.363   6.327
 4620TIP3   OH213800   7.239   3.017   2.516
 4620TIP3    H113801   7.250   2.932   2.557
 4620TIP3    H213802   7.175   3.062   2.571
 4621TIP3   OH213803   6.930   0.037   0.743
 4621TIP3    H113804   6.953  -0.004   0.659
 4621TIP3    H213805   7.013   0.044   0.790
 4622TIP3   OH213806   3.805   6.133   4.797
 4622TIP3    H113807   3.800   6.228   4.789
 4622TIP3    H213808   3.794   6.116   4.890
 4623TIP3   OH213809   2.635   3.192   3.594
 4623TIP3    H113810   2.668   3.166   3.508
 4623TIP3    H213811   2.635   3.112   3.646
 4624TIP3   OH213812   4.144   6.723   5.491
 4624TIP3    H113813   4.093   6.700   5.569
 4624TIP3    H213814   4.088   6.696   5.418
 4625TIP3   OH213815   8.118   6.824   5.550
 4625TIP3    H113816   8.024   6.820   5.567
 4625TIP3    H213817   8.134   6.755   5.486
 4626TIP3   OH213818   6.770   3.503   2.295
 4626TIP3    H113819   6.734   3.584   2.258
 4626TIP3    H213820   6.701   3.438   2.281
 4627TIP3   OH213821   3.654   2.404   3.669
 4627TIP3    H113822   3.719   2.356   3.719
 4627TIP3    H213823   3.607   2.456   3.734
 4628TIP3   OH213824   1.967   1.254   3.147
 4628TIP3    H113825   1.915   1.330   3.174
 4628TIP3    H213826   1.909   1.179   3.162
 4629TIP3   OH213827   1.492   2.993   4.309
 4629TIP3    H113828   1.586   2.974   4.313
 4629TIP3    H213829   1.465   3.004   4.400
 4630TIP3   OH213830   5.813   3.948   3.488
 4630TIP3    H113831   5.733   3.998   3.499
 4630TIP3    H213832   5.838   3.922   3.576
 4631TIP3   OH213833   2.663   7.081   2.793
 4631TIP3    H113834   2.571   7.054   2.791
 4631TIP3    H213835   2.711   7.002   2.769
 4632TIP3   OH213836   5.557   4.321   6.428
 4632TIP3    H113837   5.483   4.303   6.371
 4632TIP3    H213838   5.531   4.397   6.480
 4633TIP3   OH213839   3.788   1.342   3.649
 4633TIP3    H113840   3.789   1.390   3.731
 4633TIP3    H213841   3.699   1.307   3.643
 4634TIP3   OH213842   6.343   2.502   0.262
 4634TIP3    H113843   6.357   2.412   0.233
 4634TIP3    H213844   6.298   2.494   0.346
 4635TIP3   OH213845   7.880   6.387   5.141
 4635TIP3    H113846   7.900   6.397   5.234
 4635TIP3    H213847   7.785   6.386   5.137
 4636TIP3   OH213848   5.625   2.684   0.396
 4636TIP3    H113849   5.568   2.638   0.458
 4636TIP3    H213850   5.714   2.661   0.425
 4637TIP3   OH213851   0.691   1.254   5.299
 4637TIP3    H113852   0.638   1.229   5.223
 4637TIP3    H213853   0.764   1.304   5.262
 4638TIP3   OH213854   7.765   1.272   4.211
 4638TIP3    H113855   7.721   1.256   4.127
 4638TIP3    H213856   7.755   1.367   4.224
 4639TIP3   OH213857   7.626   5.001   3.853
 4639TIP3    H113858   7.674   5.069   3.900
 4639TIP3    H213859   7.680   4.982   3.776
 4640TIP3   OH213860   7.027   6.706   6.128
 4640TIP3    H113861   6.952   6.692   6.070
 4640TIP3    H213862   7.040   6.801   6.128
 4641TIP3   OH213863   0.954   7.577   6.048
 4641TIP3    H113864   0.961   7.671   6.060
 4641TIP3    H213865   0.969   7.540   6.135
 4642TIP3   OH213866   3.912   5.465   5.597
 4642TIP3    H113867   3.916   5.535   5.532
 4642TIP3    H213868   3.819   5.448   5.609
 4643TIP3   OH213869   7.773   4.683   4.262
 4643TIP3    H113870   7.691   4.650   4.225
 4643TIP3    H213871   7.841   4.635   4.215
 4644TIP3   OH213872   7.632   1.033   6.000
 4644TIP3    H113873   7.664   1.019   6.089
 4644TIP3    H213874   7.657   0.954   5.952
 4645TIP3   OH213875   3.920   6.010   0.195
 4645TIP3    H113876   3.831   5.994   0.166
 4645TIP3    H213877   3.947   5.928   0.237
 4646TIP3   OH213878   5.144   4.603   1.434
 4646TIP3    H113879   5.081   4.673   1.450
 4646TIP3    H213880   5.214   4.619   1.498
 4647TIP3   OH213881   3.464   4.779   0.302
 4647TIP3    H113882   3.545   4.825   0.279
 4647TIP3    H213883   3.458   4.708   0.237
 4648TIP3   OH213884   5.107   1.314   4.635
 4648TIP3    H113885   5.150   1.257   4.571
 4648TIP3    H213886   5.137   1.402   4.613
 4649TIP3   OH213887   4.575   1.502   2.347
 4649TIP3    H113888   4.644   1.478   2.286
 4649TIP3    H213889   4.503   1.532   2.291
 4650TIP3   OH213890   4.870   5.307   4.847
 4650TIP3    H113891   4.836   5.358   4.920
 4650TIP3    H213892   4.792   5.268   4.807
 4651TIP3   OH213893   5.827   6.106   4.711
 4651TIP3    H113894   5.891   6.058   4.764
 4651TIP3    H213895   5.881   6.164   4.656
 4652TIP3   OH213896   0.449   0.101   6.072
 4652TIP3    H113897   0.522   0.109   6.011
 4652TIP3    H213898   0.394   0.178   6.053
 4653TIP3   OH213899   0.432   4.080   3.734
 4653TIP3    H113900   0.436   4.146   3.803
 4653TIP3    H213901   0.358   4.024   3.759
 4654TIP3   OH213902   3.936   2.625   1.660
 4654TIP3    H113903   3.942   2.550   1.718
 4654TIP3    H213904   3.965   2.592   1.575
 4655TIP3   OH213905   4.390   4.764   0.126
 4655TIP3    H113906   4.304   4.722   0.126
 4655TIP3    H213907   4.441   4.716   0.191
 4656TIP3   OH213908   0.907   0.421   5.509
 4656TIP3    H113909   0.827   0.464   5.539
 4656TIP3    H213910   0.877   0.337   5.474
 4657TIP3   OH213911   5.615   5.332   1.374
 4657TIP3    H113912   5.708   5.337   1.397
 4657TIP3    H213913   5.592   5.240   1.386
 4658TIP3   OH213914   0.537   1.518   5.570
 4658TIP3    H113915   0.486   1.593   5.540
 4658TIP3    H213916   0.475   1.464   5.619
 4659TIP3   OH213917   2.236   3.118   5.651
 4659TIP3    H113918   2.217   3.135   5.559
 4659TIP3    H213919   2.163   3.064   5.681
 4660TIP3   OH213920   1.469   2.630   0.545
 4660TIP3    H113921   1.420   2.707   0.518
 4660TIP3    H213922   1.423   2.598   0.623
 4661TIP3   OH213923   8.064   2.606   1.062
 4661TIP3    H113924   8.138   2.583   1.005
 4661TIP3    H213925   8.027   2.685   1.023
 4662TIP3   OH213926   4.686   0.717   4.555
 4662TIP3    H113927   4.722   0.730   4.467
 4662TIP3    H213928   4.755   0.672   4.603
 4663TIP3   OH213929   0.657   7.653   0.673
 4663TIP3    H113930   0.683   7.562   0.682
 4663TIP3    H213931   0.571   7.658   0.716
 4664TIP3   OH213932   5.758   1.137   0.572
 4664TIP3    H113933   5.714   1.074   0.514
 4664TIP3    H213934   5.692   1.206   0.586
 4665TIP3   OH213935   4.677   3.978   6.454
 4665TIP3    H113936   4.608   4.016   6.399
 4665TIP3    H213937   4.729   3.924   6.395
 4666TIP3   OH213938   0.160   3.246   2.840
 4666TIP3    H113939   0.071   3.212   2.851
 4666TIP3    H213940   0.170   3.308   2.912
 4667TIP3   OH213941   4.109   5.528   2.077
 4667TIP3    H113942   4.196   5.500   2.107
 4667TIP3    H213943   4.074   5.578   2.151
 4668TIP3   OH213944   7.245   2.829   2.134
 4668TIP3    H113945   7.223   2.915   2.099
 4668TIP3    H213946   7.327   2.806   2.090
 4669TIP3   OH213947   4.373   0.691   5.517
 4669TIP3    H113948   4.442   0.626   5.501
 4669TIP3    H213949   4.295   0.653   5.477
 4670TIP3   OH213950   8.373   7.821   2.359
 4670TIP3    H113951   8.386   7.869   2.441
 4670TIP3    H213952   8.391   7.885   2.290
 4671TIP3   OH213953   7.992   6.293   0.000
 4671TIP3    H113954   8.007   6.278   0.093
 4671TIP3    H213955   7.962   6.383  -0.006
 4672TIP3   OH213956   4.711   6.501   2.360
 4672TIP3    H113957   4.622   6.467   2.351
 4672TIP3    H213958   4.715   6.573   2.297
 4673TIP3   OH213959   3.292   2.047   2.914
 4673TIP3    H113960   3.209   2.012   2.947
 4673TIP3    H213961   3.340   2.074   2.992
 4674TIP3   OH213962   6.367   6.185   0.424
 4674TIP3    H113963   6.285   6.205   0.468
 4674TIP3    H213964   6.434   6.229   0.477
 4675TIP3   OH213965   5.506   0.558   0.908
 4675TIP3    H113966   5.579   0.616   0.886
 4675TIP3    H213967   5.539   0.470   0.890
 4676TIP3   OH213968   3.256   4.855   1.870
 4676TIP3    H113969   3.196   4.896   1.808
 4676TIP3    H213970   3.201   4.798   1.923
 4677TIP3   OH213971   0.647   1.193   0.116
 4677TIP3    H113972   0.704   1.117   0.120
 4677TIP3    H213973   0.644   1.226   0.206
 4678TIP3   OH213974   3.937   6.654   4.821
 4678TIP3    H113975   3.993   6.664   4.743
 4678TIP3    H213976   3.902   6.565   4.813
 4679TIP3   OH213977   7.300   5.575   5.189
 4679TIP3    H113978   7.382   5.601   5.232
 4679TIP3    H213979   7.233   5.593   5.255
 4680TIP3   OH213980   6.467   2.015   3.590
 4680TIP3    H113981   6.495   2.044   3.677
 4680TIP3    H213982   6.542   2.032   3.534
 4681TIP3   OH213983   5.981   3.151   0.393
 4681TIP3    H113984   6.004   3.243   0.383
 4681TIP3    H213985   5.987   3.135   0.488
 4682TIP3   OH213986   0.131   0.184   3.632
 4682TIP3    H113987   0.074   0.148   3.564
 4682TIP3    H213988   0.111   0.278   3.632
 4683TIP3   OH213989   6.475   4.663   5.337
 4683TIP3    H113990   6.391   4.650   5.382
 4683TIP3    H213991   6.461   4.739   5.281
 4684TIP3   OH213992   1.824   7.791   2.414
 4684TIP3    H113993   1.910   7.831   2.421
 4684TIP3    H213994   1.804   7.760   2.502
 4685TIP3   OH213995   1.911   2.506   4.327
 4685TIP3    H113996   1.992   2.467   4.360
 4685TIP3    H213997   1.928   2.600   4.329
 4686TIP3   OH213998   4.238   0.594   6.058
 4686TIP3    H113999   4.206   0.537   6.128
 4686TIP3    H214000   4.186   0.674   6.067
 4687TIP3   OH214001   1.539   3.921   1.471
 4687TIP3    H114002   1.614   3.910   1.413
 4687TIP3    H214003   1.486   3.843   1.458
 4688TIP3   OH214004   2.806   6.012   4.932
 4688TIP3    H114005   2.715   5.984   4.934
 4688TIP3    H214006   2.840   5.978   4.850
 4689TIP3   OH214007   0.036   0.077   1.542
 4689TIP3    H114008   0.094   0.006   1.516
 4689TIP3    H214009  -0.019   0.039   1.611
 4690TIP3   OH214010   1.661   1.848   4.006
 4690TIP3    H114011   1.754   1.855   3.984
 4690TIP3    H214012   1.659   1.845   4.102
 4691TIP3   OH214013   6.506   1.462   3.397
 4691TIP3    H114014   6.475   1.543   3.439
 4691TIP3    H214015   6.591   1.486   3.360
 4692TIP3   OH214016   0.007   7.228   6.311
 4692TIP3    H114017  -0.005   7.153   6.370
 4692TIP3    H214018   0.101   7.242   6.309
 4693TIP3   OH214019   0.254   3.953   6.318
 4693TIP3    H114020   0.219   3.865   6.330
 4693TIP3    H214021   0.312   3.946   6.242
 4694TIP3   OH214022   2.627   5.053   3.695
 4694TIP3    H114023   2.659   5.008   3.773
 4694TIP3    H214024   2.534   5.065   3.710
 4695TIP3   OH214025   7.525   7.870   5.613
 4695TIP3    H114026   7.558   7.830   5.533
 4695TIP3    H214027   7.573   7.952   5.621
 4696TIP3   OH214028   0.461   6.677   5.126
 4696TIP3    H114029   0.520   6.730   5.179
 4696TIP3    H214030   0.495   6.588   5.132
 4697TIP3   OH214031   7.428   1.672   3.709
 4697TIP3    H114032   7.462   1.761   3.718
 4697TIP3    H214033   7.343   1.683   3.666
 4698TIP3   OH214034   0.512   6.518   3.516
 4698TIP3    H114035   0.602   6.503   3.487
 4698TIP3    H214036   0.463   6.443   3.481
 4699TIP3   OH214037   5.470   1.206   6.536
 4699TIP3    H114038   5.485   1.283   6.591
 4699TIP3    H214039   5.527   1.220   6.460
 4700TIP3   OH214040   8.348   7.532   5.532
 4700TIP3    H114041   8.410   7.568   5.469
 4700TIP3    H214042   8.307   7.458   5.486
 4701TIP3   OH214043   3.721   5.182   4.984
 4701TIP3    H114044   3.786   5.124   5.025
 4701TIP3    H214045   3.751   5.270   5.005
 4702TIP3   OH214046   2.811   0.048   3.177
 4702TIP3    H114047   2.762   0.030   3.097
 4702TIP3    H214048   2.762   0.118   3.220
 4703TIP3   OH214049   5.598   3.917   6.236
 4703TIP3    H114050   5.648   3.850   6.189
 4703TIP3    H214051   5.559   3.870   6.310
 4704TIP3   OH214052   1.332   2.082   5.279
 4704TIP3    H114053   1.286   2.049   5.356
 4704TIP3    H214054   1.385   2.008   5.248
 4705TIP3   OH214055   7.187   4.570   0.706
 4705TIP3    H114056   7.182   4.665   0.716
 4705TIP3    H214057   7.248   4.556   0.634
 4706TIP3   OH214058   0.416   2.744   3.596
 4706TIP3    H114059   0.415   2.828   3.551
 4706TIP3    H214060   0.450   2.764   3.683
 4707TIP3   OH214061   5.970   6.635   1.941
 4707TIP3    H114062   6.056   6.612   1.978
 4707TIP3    H214063   5.966   6.586   1.859
 4708TIP3   OH214064   6.030   7.589   1.345
 4708TIP3    H114065   5.963   7.555   1.285
 4708TIP3    H214066   6.078   7.511   1.373
 4709TIP3   OH214067   7.477   7.345   5.075
 4709TIP3    H114068   7.499   7.377   5.163
 4709TIP3    H214069   7.393   7.387   5.055
 4710TIP3   OH214070   6.859   3.769   0.007
 4710TIP3    H114071   6.938   3.726  -0.026
 4710TIP3    H214072   6.890   3.841   0.062
 4711TIP3   OH214073   4.058   0.926   0.925
 4711TIP3    H114074   4.130   0.970   0.970
 4711TIP3    H214075   3.980   0.952   0.975
 4712TIP3   OH214076   7.982   2.290   4.641
 4712TIP3    H114077   7.981   2.220   4.705
 4712TIP3    H214078   7.940   2.252   4.563
 4713TIP3   OH214079   4.779   4.891   0.880
 4713TIP3    H114080   4.789   4.817   0.820
 4713TIP3    H214081   4.755   4.850   0.964
 4714TIP3   OH214082   3.655   2.525   3.013
 4714TIP3    H114083   3.572   2.515   2.965
 4714TIP3    H214084   3.707   2.449   2.987
 4715TIP3   OH214085   0.958   7.097   2.234
 4715TIP3    H114086   0.905   7.129   2.160
 4715TIP3    H214087   1.047   7.123   2.211
 4716TIP3   OH214088   3.330   5.515   5.755
 4716TIP3    H114089   3.413   5.558   5.779
 4716TIP3    H214090   3.341   5.425   5.783
 4717TIP3   OH214091   4.572   6.341   6.164
 4717TIP3    H114092   4.594   6.339   6.257
 4717TIP3    H214093   4.538   6.429   6.149
 4718TIP3   OH214094   2.740   3.702   4.978
 4718TIP3    H114095   2.766   3.610   4.969
 4718TIP3    H214096   2.769   3.744   4.897
 4719TIP3   OH214097   1.695   6.153   6.281
 4719TIP3    H114098   1.615   6.177   6.235
 4719TIP3    H214099   1.712   6.062   6.255
 4720TIP3   OH214100   1.698   3.579   2.759
 4720TIP3    H114101   1.701   3.622   2.674
 4720TIP3    H214102   1.782   3.534   2.767
 4721TIP3   OH214103   2.696   1.571   5.868
 4721TIP3    H114104   2.756   1.625   5.817
 4721TIP3    H214105   2.750   1.499   5.900
 4722TIP3   OH214106   0.848   2.239   5.915
 4722TIP3    H114107   0.849   2.149   5.885
 4722TIP3    H214108   0.757   2.255   5.940
 4723TIP3   OH214109   5.163   6.351   5.650
 4723TIP3    H114110   5.076   6.388   5.635
 4723TIP3    H214111   5.152   6.257   5.637
 4724TIP3   OH214112   4.681   1.299   5.161
 4724TIP3    H114113   4.688   1.257   5.075
 4724TIP3    H214114   4.637   1.235   5.216
 4725TIP3   OH214115   5.656   3.725   6.542
 4725TIP3    H114116   5.563   3.710   6.524
 4725TIP3    H214117   5.659   3.744   6.636
 4726TIP3   OH214118   2.875   6.537   0.944
 4726TIP3    H114119   2.903   6.494   1.024
 4726TIP3    H214120   2.923   6.493   0.874
 4727TIP3   OH214121   2.569   3.713   6.725
 4727TIP3    H114122   2.613   3.791   6.690
 4727TIP3    H214123   2.639   3.650   6.739
 4728TIP3   OH214124   6.314   0.830   2.209
 4728TIP3    H114125   6.403   0.861   2.193
 4728TIP3    H214126   6.320   0.780   2.290
 4729TIP3   OH214127   6.885   0.196   0.403
 4729TIP3    H114128   6.810   0.218   0.458
 4729TIP3    H214129   6.959   0.190   0.464
 4730TIP3   OH214130   3.678   4.360   3.027
 4730TIP3    H114131   3.609   4.370   2.962
 4730TIP3    H214132   3.631   4.341   3.108
 4731TIP3   OH214133   2.765   0.635   3.816
 4731TIP3    H114134   2.763   0.617   3.722
 4731TIP3    H214135   2.708   0.711   3.828
 4732TIP3   OH214136   5.882   6.986   1.017
 4732TIP3    H114137   5.853   7.027   0.936
 4732TIP3    H214138   5.971   6.957   0.999
 4733TIP3   OH214139   8.221   7.868   4.985
 4733TIP3    H114140   8.297   7.916   4.952
 4733TIP3    H214141   8.152   7.934   4.992
 4734TIP3   OH214142   1.415   2.281   2.612
 4734TIP3    H114143   1.341   2.224   2.633
 4734TIP3    H214144   1.493   2.227   2.630
 4735TIP3   OH214145   7.734   5.566   0.900
 4735TIP3    H114146   7.670   5.580   0.969
 4735TIP3    H214147   7.784   5.490   0.928
 4736TIP3   OH214148   2.007   1.043   0.269
 4736TIP3    H114149   2.060   1.121   0.286
 4736TIP3    H214150   2.029   0.983   0.341
 4737TIP3   OH214151   3.881   0.511   0.592
 4737TIP3    H114152   3.908   0.554   0.511
 4737TIP3    H214153   3.922   0.562   0.661
 4738TIP3   OH214154   3.474   5.033   2.823
 4738TIP3    H114155   3.505   4.944   2.841
 4738TIP3    H214156   3.466   5.037   2.727
 4739TIP3   OH214157   1.103   5.592   1.105
 4739TIP3    H114158   1.063   5.560   1.024
 4739TIP3    H214159   1.197   5.581   1.091
 4740TIP3   OH214160   1.236   4.712   3.033
 4740TIP3    H114161   1.159   4.769   3.020
 4740TIP3    H214162   1.201   4.633   3.073
 4741TIP3   OH214163   2.830   4.616   5.893
 4741TIP3    H114164   2.820   4.628   5.798
 4741TIP3    H214165   2.742   4.628   5.928
 4742TIP3   OH214166   4.184   5.856   6.685
 4742TIP3    H114167   4.154   5.938   6.725
 4742TIP3    H214168   4.105   5.820   6.644
 4743TIP3   OH214169   2.896   2.862   5.924
 4743TIP3    H114170   2.859   2.920   5.857
 4743TIP3    H214171   2.954   2.803   5.874
 4744TIP3   OH214172   1.822   1.962   1.702
 4744TIP3    H114173   1.727   1.963   1.718
 4744TIP3    H214174   1.837   1.880   1.655
 4745TIP3   OH214175   4.667   5.065   5.684
 4745TIP3    H114176   4.643   5.153   5.654
 4745TIP3    H214177   4.707   5.024   5.608
 4746TIP3   OH214178   6.544   6.620   2.536
 4746TIP3    H114179   6.554   6.714   2.523
 4746TIP3    H214180   6.451   6.604   2.519
 4747TIP3   OH214181   6.722   6.460   1.449
 4747TIP3    H114182   6.751   6.539   1.404
 4747TIP3    H214183   6.802   6.423   1.488
 4748TIP3   OH214184   3.288   6.048   1.320
 4748TIP3    H114185   3.202   6.090   1.326
 4748TIP3    H214186   3.322   6.049   1.409
 4749TIP3   OH214187   0.167   2.858   5.730
 4749TIP3    H114188   0.162   2.953   5.745
 4749TIP3    H214189   0.081   2.825   5.759
 4750TIP3   OH214190   6.853   4.389   3.536
 4750TIP3    H114191   6.937   4.427   3.562
 4750TIP3    H214192   6.787   4.444   3.578
 4751TIP3   OH214193   5.079   0.666   1.308
 4751TIP3    H114194   5.066   0.705   1.222
 4751TIP3    H214195   5.174   0.672   1.323
 4752TIP3   OH214196   4.957   3.134   6.108
 4752TIP3    H114197   4.998   3.047   6.110
 4752TIP3    H214198   5.027   3.194   6.132
 4753TIP3   OH214199   5.927   5.623   1.902
 4753TIP3    H114200   5.924   5.715   1.928
 4753TIP3    H214201   5.874   5.578   1.967
 4754TIP3   OH214202   4.495   0.413   6.023
 4754TIP3    H114203   4.569   0.471   6.007
 4754TIP3    H214204   4.430   0.469   6.065
 4755TIP3   OH214205   2.496   3.406   1.212
 4755TIP3    H114206   2.590   3.400   1.194
 4755TIP3    H214207   2.455   3.401   1.125
 4756TIP3   OH214208   1.983   5.345   1.310
 4756TIP3    H114209   2.077   5.353   1.326
 4756TIP3    H214210   1.976   5.309   1.222
 4757TIP3   OH214211   6.082   3.067   5.157
 4757TIP3    H114212   6.161   3.094   5.204
 4757TIP3    H214213   6.017   3.053   5.225
 4758TIP3   OH214214   8.127   5.201   4.835
 4758TIP3    H114215   8.100   5.142   4.906
 4758TIP3    H214216   8.164   5.143   4.769
 4759TIP3   OH214217   5.047   4.928   5.633
 4759TIP3    H114218   5.093   4.966   5.708
 4759TIP3    H214219   5.093   4.846   5.615
 4760TIP3   OH214220   4.422   0.655   0.610
 4760TIP3    H114221   4.506   0.701   0.609
 4760TIP3    H214222   4.439   0.574   0.657
 4761TIP3   OH214223   1.927   5.531   2.301
 4761TIP3    H114224   1.985   5.549   2.374
 4761TIP3    H214225   1.938   5.606   2.242
 4762TIP3   OH214226   1.470   6.621   4.395
 4762TIP3    H114227   1.549   6.589   4.351
 4762TIP3    H214228   1.449   6.702   4.348
 4763TIP3   OH214229   0.871   7.657   5.074
 4763TIP3    H114230   0.821   7.584   5.036
 4763TIP3    H214231   0.816   7.733   5.060
 4764TIP3   OH214232   4.723   5.598   3.856
 4764TIP3    H114233   4.748   5.595   3.949
 4764TIP3    H214234   4.631   5.624   3.857
 4765TIP3   OH214235   3.606   1.930   1.874
 4765TIP3    H114236   3.660   1.865   1.919
 4765TIP3    H214237   3.547   1.880   1.819
 4766TIP3   OH214238   3.309   7.427   1.882
 4766TIP3    H114239   3.262   7.370   1.821
 4766TIP3    H214240   3.259   7.509   1.881
 4767TIP3   OH214241   5.398   7.600   5.762
 4767TIP3    H114242   5.372   7.629   5.849
 4767TIP3    H214243   5.347   7.521   5.747
 4768TIP3   OH214244   0.856   6.120   6.612
 4768TIP3    H114245   0.820   6.035   6.638
 4768TIP3    H214246   0.812   6.183   6.669
 4769TIP3   OH214247   4.714   7.397   0.108
 4769TIP3    H114248   4.792   7.402   0.163
 4769TIP3    H214249   4.643   7.373   0.169
 4770TIP3   OH214250   3.993   2.280   4.220
 4770TIP3    H114251   3.934   2.261   4.293
 4770TIP3    H214252   3.939   2.325   4.155
 4771TIP3   OH214253   1.107   5.551   2.100
 4771TIP3    H114254   1.175   5.499   2.057
 4771TIP3    H214255   1.087   5.620   2.037
 4772TIP3   OH214256   4.842   1.382   4.230
 4772TIP3    H114257   4.812   1.453   4.288
 4772TIP3    H214258   4.931   1.407   4.206
 4773TIP3   OH214259   7.055   5.179   1.964
 4773TIP3    H114260   7.062   5.110   2.029
 4773TIP3    H214261   6.964   5.207   1.969
 4774TIP3   OH214262   8.305   7.334   3.670
 4774TIP3    H114263   8.333   7.248   3.637
 4774TIP3    H214264   8.378   7.392   3.651
 4775TIP3   OH214265   0.552   4.383   2.020
 4775TIP3    H114266   0.539   4.357   1.929
 4775TIP3    H214267   0.464   4.404   2.052
 4776TIP3   OH214268  -0.009   7.703   1.234
 4776TIP3    H114269   0.050   7.644   1.281
 4776TIP3    H214270   0.016   7.694   1.142
 4777TIP3   OH214271   6.995   0.616   5.551
 4777TIP3    H114272   7.048   0.539   5.528
 4777TIP3    H214273   6.986   0.611   5.647
 4778TIP3   OH214274   0.197   3.497   3.963
 4778TIP3    H114275   0.234   3.532   4.044
 4778TIP3    H214276   0.161   3.412   3.987
 4779TIP3   OH214277   4.933   6.577   0.604
 4779TIP3    H114278   5.015   6.563   0.651
 4779TIP3    H214279   4.939   6.667   0.572
 4780TIP3   OH214280   7.409   4.333   2.465
 4780TIP3    H114281   7.390   4.384   2.544
 4780TIP3    H214282   7.422   4.244   2.498
 4781TIP3   OH214283   2.726   7.633   4.893
 4781TIP3    H114284   2.659   7.608   4.828
 4781TIP3    H214285   2.802   7.580   4.870
 4782TIP3   OH214286   1.332   2.928   2.459
 4782TIP3    H114287   1.305   2.837   2.468
 4782TIP3    H214288   1.395   2.942   2.529
 4783TIP3   OH214289   6.731   5.839   3.581
 4783TIP3    H114290   6.697   5.795   3.659
 4783TIP3    H214291   6.667   5.819   3.512
 4784TIP3   OH214292   2.048   2.395   1.633
 4784TIP3    H114293   2.100   2.450   1.691
 4784TIP3    H214294   2.031   2.316   1.685
 4785TIP3   OH214295   5.843   0.440   3.964
 4785TIP3    H114296   5.751   0.461   3.946
 4785TIP3    H214297   5.889   0.461   3.883
 4786TIP3   OH214298   5.872   0.053   0.473
 4786TIP3    H114299   5.922   0.014   0.545
 4786TIP3    H214300   5.786   0.011   0.479
 4787TIP3   OH214301   4.219   3.105   0.895
 4787TIP3    H114302   4.170   3.158   0.832
 4787TIP3    H214303   4.282   3.165   0.935
 4788TIP3   OH214304   3.094   4.977   6.562
 4788TIP3    H114305   3.104   5.033   6.638
 4788TIP3    H214306   3.005   4.941   6.570
 4789TIP3   OH214307   3.403   1.944   6.768
 4789TIP3    H114308   3.393   2.028   6.813
 4789TIP3    H214309   3.480   1.956   6.712
 4790TIP3   OH214310   7.536   7.191   6.242
 4790TIP3    H114311   7.508   7.101   6.251
 4790TIP3    H214312   7.477   7.241   6.298
 4791TIP3   OH214313   5.687   6.172   3.892
 4791TIP3    H114314   5.617   6.233   3.869
 4791TIP3    H214315   5.767   6.224   3.885
 4792TIP3   OH214316   7.347   5.324   5.071
 4792TIP3    H114317   7.256   5.301   5.050
 4792TIP3    H214318   7.346   5.420   5.079
 4793TIP3   OH214319   6.051   1.762   5.102
 4793TIP3    H114320   6.108   1.837   5.119
 4793TIP3    H214321   6.110   1.687   5.101
 4794TIP3   OH214322   5.669   5.547   6.625
 4794TIP3    H114323   5.679   5.488   6.551
 4794TIP3    H214324   5.747   5.603   6.623
 4795TIP3   OH214325   1.264   1.546   2.913
 4795TIP3    H114326   1.180   1.500   2.902
 4795TIP3    H214327   1.299   1.511   2.995
 4796TIP3   OH214328   8.275   0.400   1.864
 4796TIP3    H114329   8.203   0.337   1.866
 4796TIP3    H214330   8.283   0.430   1.955
 4797TIP3   OH214331   1.689   6.871   6.020
 4797TIP3    H114332   1.781   6.892   6.035
 4797TIP3    H214333   1.653   6.860   6.108
 4798TIP3   OH214334   5.086   4.960   1.930
 4798TIP3    H114335   5.072   4.875   1.888
 4798TIP3    H214336   5.054   4.948   2.020
 4799TIP3   OH214337   2.951   5.485   0.877
 4799TIP3    H114338   2.996   5.443   0.951
 4799TIP3    H214339   2.868   5.514   0.914
 4800TIP3   OH214340   3.918   0.355   3.676
 4800TIP3    H114341   3.903   0.263   3.656
 4800TIP3    H214342   3.867   0.372   3.755
 4801TIP3   OH214343   4.606   5.849   4.675
 4801TIP3    H114344   4.559   5.805   4.604
 4801TIP3    H214345   4.692   5.807   4.676
 4802TIP3   OH214346   2.164   5.982   4.866
 4802TIP3    H114347   2.189   5.928   4.792
 4802TIP3    H214348   2.125   5.920   4.929
 4803TIP3   OH214349   3.181   3.122   6.597
 4803TIP3    H114350   3.271   3.092   6.608
 4803TIP3    H214351   3.159   3.100   6.507
 4804TIP3   OH214352   6.775   3.099   6.038
 4804TIP3    H114353   6.864   3.131   6.047
 4804TIP3    H214354   6.721   3.177   6.028
 4805TIP3   OH214355   1.092   5.920   5.607
 4805TIP3    H114356   1.168   5.863   5.620
 4805TIP3    H214357   1.068   5.949   5.695
 4806TIP3   OH214358   6.463   7.344   2.103
 4806TIP3    H114359   6.517   7.272   2.071
 4806TIP3    H214360   6.498   7.421   2.060
 4807TIP3   OH214361   7.241   2.130   0.701
 4807TIP3    H114362   7.205   2.070   0.636
 4807TIP3    H214363   7.290   2.194   0.649
 4808TIP3   OH214364   1.122   7.360   3.829
 4808TIP3    H114365   1.129   7.267   3.852
 4808TIP3    H214366   1.148   7.407   3.908
 4809TIP3   OH214367   5.938   7.417   4.506
 4809TIP3    H114368   6.032   7.407   4.498
 4809TIP3    H214369   5.925   7.453   4.594
 4810TIP3   OH214370   8.047   3.503   4.367
 4810TIP3    H114371   7.986   3.456   4.309
 4810TIP3    H214372   8.002   3.585   4.387
 4811TIP3   OH214373   6.491   2.873   5.379
 4811TIP3    H114374   6.441   2.908   5.306
 4811TIP3    H214375   6.425   2.835   5.438
 4812TIP3   OH214376   8.037   0.761   0.763
 4812TIP3    H114377   8.130   0.780   0.760
 4812TIP3    H214378   7.995   0.834   0.717
 4813TIP3   OH214379   2.715   2.297   2.707
 4813TIP3    H114380   2.701   2.375   2.654
 4813TIP3    H214381   2.709   2.224   2.646
 4814TIP3   OH214382   0.993   5.469   1.325
 4814TIP3    H114383   1.026   5.510   1.405
 4814TIP3    H214384   1.041   5.513   1.254
 4815TIP3   OH214385   6.509   4.345   5.465
 4815TIP3    H114386   6.438   4.379   5.520
 4815TIP3    H214387   6.575   4.414   5.465
 4816TIP3   OH214388   0.536   7.539   2.801
 4816TIP3    H114389   0.477   7.615   2.800
 4816TIP3    H214390   0.622   7.576   2.780
 4817TIP3   OH214391   0.875   1.701   2.626
 4817TIP3    H114392   0.933   1.745   2.564
 4817TIP3    H214393   0.832   1.632   2.575
 4818TIP3   OH214394   7.822   2.448   0.781
 4818TIP3    H114395   7.821   2.418   0.689
 4818TIP3    H214396   7.913   2.472   0.797
 4819TIP3   OH214397   8.348   0.086   2.442
 4819TIP3    H114398   8.439   0.066   2.466
 4819TIP3    H214399   8.334   0.175   2.476
 4820TIP3   OH214400   6.877   0.507   6.365
 4820TIP3    H114401   6.948   0.557   6.405
 4820TIP3    H214402   6.806   0.570   6.355
 4821TIP3   OH214403   5.985   0.708   6.129
 4821TIP3    H114404   6.073   0.687   6.161
 4821TIP3    H214405   5.966   0.795   6.166
 4822TIP3   OH214406   0.604   3.278   5.839
 4822TIP3    H114407   0.598   3.235   5.754
 4822TIP3    H214408   0.698   3.290   5.854
 4823TIP3   OH214409   7.443   7.083   2.724
 4823TIP3    H114410   7.410   6.994   2.740
 4823TIP3    H214411   7.538   7.074   2.722
 4824TIP3   OH214412   7.738   1.231   3.011
 4824TIP3    H114413   7.798   1.259   3.081
 4824TIP3    H214414   7.678   1.305   3.000
 4825TIP3   OH214415   4.619   3.301   3.432
 4825TIP3    H114416   4.708   3.265   3.425
 4825TIP3    H214417   4.563   3.235   3.392
 4826TIP3   OH214418   3.811   7.342   3.795
 4826TIP3    H114419   3.805   7.372   3.704
 4826TIP3    H214420   3.792   7.420   3.847
 4827TIP3   OH214421   2.449   7.010   2.037
 4827TIP3    H114422   2.375   6.960   2.003
 4827TIP3    H214423   2.500   7.034   1.959
 4828TIP3   OH214424   1.219   7.669   3.910
 4828TIP3    H114425   1.231   7.630   3.997
 4828TIP3    H214426   1.308   7.685   3.879
 4829TIP3   OH214427   0.368   7.661   6.695
 4829TIP3    H114428   0.343   7.660   6.603
 4829TIP3    H214429   0.337   7.746   6.727
 4830TIP3   OH214430   5.735   0.937   6.133
 4830TIP3    H114431   5.728   0.911   6.225
 4830TIP3    H214432   5.786   0.866   6.092
 4831TIP3   OH214433   0.363   1.192   3.955
 4831TIP3    H114434   0.423   1.259   3.921
 4831TIP3    H214435   0.290   1.242   3.991
 4832TIP3   OH214436   6.858   4.186   0.589
 4832TIP3    H114437   6.774   4.168   0.632
 4832TIP3    H214438   6.903   4.245   0.649
 4833TIP3   OH214439   8.081   0.059   0.497
 4833TIP3    H114440   8.170   0.081   0.523
 4833TIP3    H214441   8.066   0.108   0.417
 4834TIP3   OH214442   0.705   1.469   4.299
 4834TIP3    H114443   0.715   1.429   4.213
 4834TIP3    H214444   0.794   1.474   4.334
 4835TIP3   OH214445   8.337   1.842   1.403
 4835TIP3    H114446   8.431   1.827   1.398
 4835TIP3    H214447   8.317   1.894   1.324
 4836TIP3   OH214448   2.624   2.121   6.494
 4836TIP3    H114449   2.607   2.135   6.588
 4836TIP3    H214450   2.689   2.187   6.472
 4837TIP3   OH214451   4.100   4.642   6.646
 4837TIP3    H114452   4.190   4.651   6.676
 4837TIP3    H214453   4.086   4.548   6.638
 4838TIP3   OH214454   4.720   3.526   5.064
 4838TIP3    H114455   4.758   3.560   5.146
 4838TIP3    H214456   4.697   3.435   5.084
 4839TIP3   OH214457   0.272   0.670   5.671
 4839TIP3    H114458   0.296   0.674   5.764
 4839TIP3    H214459   0.336   0.726   5.627
 4840TIP3   OH214460   6.737   3.586   1.009
 4840TIP3    H114461   6.659   3.578   1.064
 4840TIP3    H214462   6.776   3.499   1.011
 4841TIP3   OH214463   1.591   7.044   4.149
 4841TIP3    H114464   1.500   7.072   4.133
 4841TIP3    H214465   1.605   7.060   4.242
 4842TIP3   OH214466   2.065   2.962   6.601
 4842TIP3    H114467   2.112   2.882   6.579
 4842TIP3    H214468   1.974   2.944   6.577
 4843TIP3   OH214469   0.638   3.722   4.783
 4843TIP3    H114470   0.694   3.766   4.847
 4843TIP3    H214471   0.625   3.634   4.819
 4844TIP3   OH214472   0.685   7.873   4.977
 4844TIP3    H114473   0.661   7.950   5.028
 4844TIP3    H214474   0.603   7.847   4.935
 4845TIP3   OH214475   4.266   4.347   3.741
 4845TIP3    H114476   4.346   4.351   3.689
 4845TIP3    H214477   4.195   4.355   3.677
 4846TIP3   OH214478   2.367   7.218   4.951
 4846TIP3    H114479   2.321   7.139   4.926
 4846TIP3    H214480   2.306   7.289   4.931
 4847TIP3   OH214481   2.377   5.944   1.028
 4847TIP3    H114482   2.304   5.984   0.982
 4847TIP3    H214483   2.338   5.894   1.099
 4848TIP3   OH214484   2.152   7.255   1.077
 4848TIP3    H114485   2.246   7.240   1.093
 4848TIP3    H214486   2.124   7.312   1.147
 4849TIP3   OH214487   4.725   1.497   0.018
 4849TIP3    H114488   4.781   1.426   0.049
 4849TIP3    H214489   4.637   1.459   0.014
 4850TIP3   OH214490   5.985   7.834   0.691
 4850TIP3    H114491   6.048   7.900   0.661
 4850TIP3    H214492   6.038   7.764   0.727
 4851TIP3   OH214493   3.002   0.888   0.764
 4851TIP3    H114494   2.955   0.972   0.765
 4851TIP3    H214495   3.084   0.908   0.718
 4852TIP3   OH214496   4.693   4.603   3.369
 4852TIP3    H114497   4.723   4.654   3.444
 4852TIP3    H214498   4.721   4.513   3.388
 4853TIP3   OH214499   7.887   3.396   3.328
 4853TIP3    H114500   7.936   3.384   3.246
 4853TIP3    H214501   7.826   3.322   3.330
 4854TIP3   OH214502   2.437   4.759   0.098
 4854TIP3    H114503   2.481   4.778   0.182
 4854TIP3    H214504   2.394   4.841   0.075
 4855TIP3   OH214505   5.898   2.669   2.955
 4855TIP3    H114506   5.947   2.749   2.974
 4855TIP3    H214507   5.915   2.613   3.030
 4856TIP3   OH214508   5.801   1.376   4.514
 4856TIP3    H114509   5.786   1.440   4.583
 4856TIP3    H214510   5.850   1.306   4.557
 4857TIP3   OH214511   6.999   3.191   6.768
 4857TIP3    H114512   7.013   3.259   6.703
 4857TIP3    H214513   7.069   3.128   6.753
 4858TIP3   OH214514   7.291   5.737   3.971
 4858TIP3    H114515   7.301   5.763   3.880
 4858TIP3    H214516   7.328   5.810   4.021
 4859TIP3   OH214517   4.538   2.550   5.954
 4859TIP3    H114518   4.497   2.601   5.884
 4859TIP3    H214519   4.494   2.579   6.034
 4860TIP3   OH214520   7.623   7.269   4.730
 4860TIP3    H114521   7.614   7.187   4.779
 4860TIP3    H214522   7.713   7.297   4.746
 4861TIP3   OH214523   5.657   3.158   6.672
 4861TIP3    H114524   5.713   3.225   6.634
 4861TIP3    H214525   5.601   3.206   6.734
 4862TIP3   OH214526   5.700   2.430   1.356
 4862TIP3    H114527   5.689   2.515   1.399
 4862TIP3    H214528   5.611   2.402   1.334
 4863TIP3   OH214529   2.104   5.196   3.548
 4863TIP3    H114530   2.105   5.187   3.452
 4863TIP3    H214531   2.031   5.255   3.566
 4864TIP3   OH214532   3.131   0.119   6.063
 4864TIP3    H114533   3.067   0.173   6.110
 4864TIP3    H214534   3.174   0.068   6.131
 4865TIP3   OH214535   1.333   3.361   5.628
 4865TIP3    H114536   1.416   3.354   5.676
 4865TIP3    H214537   1.357   3.403   5.546
 4866TIP3   OH214538   6.248   5.656   3.352
 4866TIP3    H114539   6.319   5.611   3.306
 4866TIP3    H214540   6.263   5.636   3.444
 4867TIP3   OH214541   2.783   5.172   0.714
 4867TIP3    H114542   2.750   5.255   0.680
 4867TIP3    H214543   2.825   5.195   0.796
 4868TIP3   OH214544   8.239   7.299   4.289
 4868TIP3    H114545   8.255   7.344   4.371
 4868TIP3    H214546   8.203   7.214   4.315
 4869TIP3   OH214547   3.910   3.494   4.216
 4869TIP3    H114548   3.909   3.466   4.125
 4869TIP3    H214549   3.831   3.548   4.226
 4870TIP3   OH214550   3.646   5.038   5.783
 4870TIP3    H114551   3.665   5.050   5.876
 4870TIP3    H214552   3.648   4.943   5.770
 4871TIP3   OH214553   2.843   4.962   2.720
 4871TIP3    H114554   2.838   5.034   2.657
 4871TIP3    H214555   2.897   4.996   2.791
 4872TIP3   OH214556   1.363   1.003   1.207
 4872TIP3    H114557   1.326   0.915   1.213
 4872TIP3    H214558   1.339   1.045   1.290
 4873TIP3   OH214559   0.157   6.249   6.496
 4873TIP3    H114560   0.079   6.274   6.546
 4873TIP3    H214561   0.176   6.327   6.443
 4874TIP3   OH214562   3.028   1.273   0.992
 4874TIP3    H114563   2.941   1.311   0.981
 4874TIP3    H214564   3.066   1.273   0.903
 4875TIP3   OH214565   3.392   0.730   5.491
 4875TIP3    H114566   3.431   0.691   5.569
 4875TIP3    H214567   3.306   0.761   5.520
 4876TIP3   OH214568   4.407   2.898   4.192
 4876TIP3    H114569   4.316   2.900   4.224
 4876TIP3    H214570   4.399   2.907   4.097
 4877TIP3   OH214571   2.297   5.316   3.935
 4877TIP3    H114572   2.219   5.281   3.979
 4877TIP3    H214573   2.315   5.254   3.864
 4878TIP3   OH214574   1.715   2.318   0.230
 4878TIP3    H114575   1.731   2.310   0.136
 4878TIP3    H214576   1.665   2.239   0.253
 4879TIP3   OH214577   6.420   3.400   1.187
 4879TIP3    H114578   6.427   3.359   1.273
 4879TIP3    H214579   6.334   3.440   1.186
 4880TIP3   OH214580   0.391   1.757   2.641
 4880TIP3    H114581   0.325   1.710   2.692
 4880TIP3    H214582   0.434   1.689   2.589
 4881TIP3   OH214583   5.643   2.708   3.475
 4881TIP3    H114584   5.632   2.620   3.437
 4881TIP3    H214585   5.558   2.729   3.513
 4882TIP3   OH214586   5.208   2.701   6.615
 4882TIP3    H114587   5.168   2.704   6.528
 4882TIP3    H214588   5.302   2.700   6.597
 4883TIP3   OH214589   4.992   1.427   6.407
 4883TIP3    H114590   5.064   1.425   6.469
 4883TIP3    H214591   5.033   1.410   6.322
 4884TIP3   OH214592   1.974   1.783   5.579
 4884TIP3    H114593   1.988   1.807   5.671
 4884TIP3    H214594   2.061   1.762   5.546
 4885TIP3   OH214595   2.232   7.293   5.788
 4885TIP3    H114596   2.327   7.293   5.778
 4885TIP3    H214597   2.199   7.266   5.702
 4886TIP3   OH214598   5.304   2.318   2.834
 4886TIP3    H114599   5.330   2.347   2.747
 4886TIP3    H214600   5.244   2.386   2.865
 4887TIP3   OH214601   3.300   6.288   3.425
 4887TIP3    H114602   3.301   6.384   3.425
 4887TIP3    H214603   3.385   6.263   3.388
 4888TIP3   OH214604   6.570   7.404   0.123
 4888TIP3    H114605   6.493   7.355   0.154
 4888TIP3    H214606   6.636   7.336   0.108
 4889TIP3   OH214607   3.767   1.866   1.466
 4889TIP3    H114608   3.796   1.942   1.516
 4889TIP3    H214609   3.843   1.808   1.464
 4890TIP3   OH214610   3.458   2.161   1.782
 4890TIP3    H114611   3.463   2.130   1.692
 4890TIP3    H214612   3.496   2.090   1.834
 4891TIP3   OH214613   7.432   1.265   1.091
 4891TIP3    H114614   7.506   1.319   1.064
 4891TIP3    H214615   7.469   1.201   1.151
 4892TIP3   OH214616   0.360   2.697   6.250
 4892TIP3    H114617   0.432   2.634   6.256
 4892TIP3    H214618   0.344   2.704   6.156
 4893TIP3   OH214619   1.849   0.580   3.467
 4893TIP3    H114620   1.918   0.642   3.445
 4893TIP3    H214621   1.866   0.505   3.410
 4894TIP3   OH214622   5.395   0.949   6.485
 4894TIP3    H114623   5.416   1.036   6.518
 4894TIP3    H214624   5.303   0.954   6.459
 4895TIP3   OH214625   0.874   2.741   1.595
 4895TIP3    H114626   0.805   2.801   1.625
 4895TIP3    H214627   0.826   2.668   1.556
 4896TIP3   OH214628   5.823   6.670   6.598
 4896TIP3    H114629   5.901   6.704   6.641
 4896TIP3    H214630   5.791   6.600   6.655
 4897TIP3   OH214631   2.743   6.473   3.344
 4897TIP3    H114632   2.722   6.384   3.313
 4897TIP3    H214633   2.659   6.509   3.371
 4898TIP3   OH214634   2.154   5.899   3.506
 4898TIP3    H114635   2.213   5.928   3.437
 4898TIP3    H214636   2.164   5.964   3.576
 4899TIP3   OH214637   4.309   7.260   4.605
 4899TIP3    H114638   4.338   7.178   4.644
 4899TIP3    H214639   4.237   7.236   4.547
 4900TIP3   OH214640   6.181   7.621   6.320
 4900TIP3    H114641   6.235   7.557   6.364
 4900TIP3    H214642   6.125   7.569   6.262
 4901TIP3   OH214643   5.498   5.380   6.385
 4901TIP3    H114644   5.478   5.288   6.402
 4901TIP3    H214645   5.462   5.427   6.460
 4902TIP3   OH214646   8.383   7.455   6.139
 4902TIP3    H114647   8.373   7.371   6.183
 4902TIP3    H214648   8.304   7.464   6.086
 4903TIP3   OH214649   0.882   2.094   6.264
 4903TIP3    H114650   0.902   2.011   6.219
 4903TIP3    H214651   0.870   2.157   6.193
 4904TIP3   OH214652   4.178   2.733   4.831
 4904TIP3    H114653   4.085   2.721   4.810
 4904TIP3    H214654   4.182   2.819   4.871
 4905TIP3   OH214655   3.226   6.696   0.830
 4905TIP3    H114656   3.220   6.746   0.749
 4905TIP3    H214657   3.140   6.708   0.872
 4906TIP3   OH214658   6.803   5.277   2.064
 4906TIP3    H114659   6.764   5.363   2.049
 4906TIP3    H214660   6.728   5.218   2.073
 4907TIP3   OH214661   4.362   1.307   1.395
 4907TIP3    H114662   4.349   1.228   1.342
 4907TIP3    H214663   4.278   1.321   1.439
 4908TIP3   OH214664   5.777   2.041   3.152
 4908TIP3    H114665   5.720   2.005   3.084
 4908TIP3    H214666   5.830   2.107   3.108
 4909TIP3   OH214667   3.156   5.622   5.970
 4909TIP3    H114668   3.207   5.598   5.892
 4909TIP3    H214669   3.166   5.547   6.028
 4910TIP3   OH214670   3.078   7.773   2.995
 4910TIP3    H114671   3.122   7.727   2.924
 4910TIP3    H214672   3.028   7.843   2.952
 4911TIP3   OH214673   3.982   3.540   6.619
 4911TIP3    H114674   3.978   3.474   6.549
 4911TIP3    H214675   4.000   3.489   6.699
 4912TIP3   OH214676   7.453   2.528   1.237
 4912TIP3    H114677   7.545   2.555   1.230
 4912TIP3    H214678   7.406   2.609   1.254
 4913TIP3   OH214679   0.159   0.329   0.551
 4913TIP3    H114680   0.184   0.400   0.611
 4913TIP3    H214681   0.065   0.341   0.539
 4914TIP3   OH214682   1.835   0.538   1.824
 4914TIP3    H114683   1.869   0.626   1.839
 4914TIP3    H214684   1.904   0.479   1.856
 4915TIP3   OH214685   6.182   6.348   6.784
 4915TIP3    H114686   6.125   6.364   6.709
 4915TIP3    H214687   6.124   6.310   6.850
 4916TIP3   OH214688   4.095   2.868   3.341
 4916TIP3    H114689   4.080   2.823   3.258
 4916TIP3    H214690   4.146   2.806   3.393
 4917TIP3   OH214691   7.486   5.543   4.664
 4917TIP3    H114692   7.429   5.560   4.740
 4917TIP3    H214693   7.574   5.535   4.701
 4918TIP3   OH214694   1.002   5.318   0.398
 4918TIP3    H114695   0.909   5.298   0.395
 4918TIP3    H214696   1.039   5.249   0.453
 4919TIP3   OH214697   0.826   7.896   5.765
 4919TIP3    H114698   0.872   7.817   5.738
 4919TIP3    H214699   0.748   7.865   5.810
 4920TIP3   OH214700   8.335   2.886  -0.001
 4920TIP3    H114701   8.251   2.929  -0.014
 4920TIP3    H214702   8.381   2.941   0.062
 4921TIP3   OH214703   7.279   7.707   0.145
 4921TIP3    H114704   7.225   7.663   0.079
 4921TIP3    H214705   7.246   7.796   0.148
 4922TIP3   OH214706   3.195   1.888   2.627
 4922TIP3    H114707   3.136   1.838   2.571
 4922TIP3    H214708   3.139   1.923   2.696
 4923TIP3   OH214709   0.472   2.159   2.389
 4923TIP3    H114710   0.550   2.184   2.339
 4923TIP3    H214711   0.427   2.242   2.406
 4924TIP3   OH214712   2.902   1.564   2.925
 4924TIP3    H114713   2.808   1.584   2.923
 4924TIP3    H214714   2.906   1.475   2.960
 4925TIP3   OH214715   0.014   4.839   1.747
 4925TIP3    H114716  -0.038   4.914   1.717
 4925TIP3    H214717   0.078   4.877   1.807
 4926TIP3   OH214718   5.595   0.189   4.344
 4926TIP3    H114719   5.513   0.230   4.317
 4926TIP3    H214720   5.628   0.147   4.265
 4927TIP3   OH214721   5.430   7.592   0.811
 4927TIP3    H114722   5.404   7.631   0.728
 4927TIP3    H214723   5.429   7.665   0.873
 4928TIP3   OH214724   2.067   4.654   1.584
 4928TIP3    H114725   2.080   4.587   1.652
 4928TIP3    H214726   2.005   4.716   1.623
 4929TIP3   OH214727   1.524   4.414   1.588
 4929TIP3    H114728   1.459   4.471   1.631
 4929TIP3    H214729   1.608   4.457   1.605
 4930TIP3   OH214730   0.193   3.752   5.022
 4930TIP3    H114731   0.146   3.836   5.024
 4930TIP3    H214732   0.126   3.688   4.999
 4931TIP3   OH214733   7.060   7.843   2.531
 4931TIP3    H114734   7.131   7.799   2.577
 4931TIP3    H214735   6.991   7.853   2.597
 4932TIP3   OH214736   5.638   5.094   0.845
 4932TIP3    H114737   5.639   5.182   0.807
 4932TIP3    H214738   5.608   5.038   0.774
 4933TIP3   OH214739   6.554   2.032   0.747
 4933TIP3    H114740   6.636   1.986   0.728
 4933TIP3    H214741   6.581   2.124   0.756
 4934TIP3   OH214742   3.928   2.802   2.542
 4934TIP3    H114743   3.934   2.707   2.532
 4934TIP3    H214744   3.993   2.836   2.480
 4935TIP3   OH214745   8.261   0.520   1.608
 4935TIP3    H114746   8.284   0.510   1.700
 4935TIP3    H214747   8.311   0.452   1.563
 4936TIP3   OH214748   8.366   0.868   5.443
 4936TIP3    H114749   8.418   0.937   5.401
 4936TIP3    H214750   8.313   0.915   5.509
 4937TIP3   OH214751   5.729   5.058   2.820
 4937TIP3    H114752   5.651   5.062   2.764
 4937TIP3    H214753   5.706   4.995   2.889
 4938TIP3   OH214754   1.472   4.167   5.560
 4938TIP3    H114755   1.410   4.151   5.488
 4938TIP3    H214756   1.514   4.082   5.574
 4939TIP3   OH214757   2.324   3.280   5.112
 4939TIP3    H114758   2.378   3.357   5.130
 4939TIP3    H214759   2.386   3.207   5.111
 4940TIP3   OH214760   5.006   2.455   4.353
 4940TIP3    H114761   5.043   2.529   4.306
 4940TIP3    H214762   4.990   2.487   4.442
 4941TIP3   OH214763   2.960   7.477   3.671
 4941TIP3    H114764   2.881   7.526   3.694
 4941TIP3    H214765   3.000   7.455   3.756
 4942TIP3   OH214766   5.893   5.631   1.625
 4942TIP3    H114767   5.834   5.706   1.616
 4942TIP3    H214768   5.921   5.634   1.716
 4943TIP3   OH214769   0.170   0.789   0.700
 4943TIP3    H114770   0.122   0.706   0.699
 4943TIP3    H214771   0.212   0.790   0.785
 4944TIP3   OH214772   1.141   5.964   1.245
 4944TIP3    H114773   1.124   6.039   1.188
 4944TIP3    H214774   1.212   5.991   1.302
 4945TIP3   OH214775   0.559   1.721   1.406
 4945TIP3    H114776   0.536   1.800   1.358
 4945TIP3    H214777   0.500   1.654   1.371
 4946TIP3   OH214778   2.015   4.586   2.650
 4946TIP3    H114779   1.974   4.514   2.601
 4946TIP3    H214780   1.986   4.572   2.740
 4947TIP3   OH214781   7.603   6.251   2.857
 4947TIP3    H114782   7.576   6.308   2.785
 4947TIP3    H214783   7.681   6.206   2.824
 4948TIP3   OH214784   6.891   4.906   5.182
 4948TIP3    H114785   6.953   4.841   5.214
 4948TIP3    H214786   6.945   4.972   5.139
 4949TIP3   OH214787   6.924   7.308   6.803
 4949TIP3    H114788   6.969   7.224   6.804
 4949TIP3    H214789   6.869   7.306   6.882
 4950TIP3   OH214790   7.687   4.493   2.577
 4950TIP3    H114791   7.637   4.557   2.526
 4950TIP3    H214792   7.625   4.421   2.592
 4951TIP3   OH214793   6.863   2.698   1.439
 4951TIP3    H114794   6.904   2.633   1.382
 4951TIP3    H214795   6.854   2.776   1.384
 4952TIP3   OH214796   1.995   4.714   2.917
 4952TIP3    H114797   1.939   4.660   2.973
 4952TIP3    H214798   1.954   4.801   2.920
 4953TIP3   OH214799   1.600   7.596   0.966
 4953TIP3    H114800   1.612   7.502   0.979
 4953TIP3    H214801   1.614   7.610   0.873
 4954TIP3   OH214802   3.094   4.555   2.959
 4954TIP3    H114803   3.121   4.530   2.870
 4954TIP3    H214804   3.061   4.645   2.949
 4955TIP3   OH214805   4.820   7.720   0.315
 4955TIP3    H114806   4.813   7.799   0.369
 4955TIP3    H214807   4.731   7.705   0.283
 4956TIP3   OH214808   3.891   0.492   2.023
 4956TIP3    H114809   3.873   0.466   2.113
 4956TIP3    H214810   3.810   0.475   1.975
 4957TIP3   OH214811   5.855   7.234   2.305
 4957TIP3    H114812   5.902   7.187   2.373
 4957TIP3    H214813   5.910   7.310   2.285
 4958TIP3   OH214814   4.011   0.462   4.902
 4958TIP3    H114815   4.044   0.538   4.949
 4958TIP3    H214816   4.090   0.416   4.872
 4959TIP3   OH214817   6.325   1.078   1.181
 4959TIP3    H114818   6.359   1.134   1.250
 4959TIP3    H214819   6.402   1.057   1.127
 4960TIP3   OH214820   5.852   5.069   4.938
 4960TIP3    H114821   5.940   5.071   4.976
 4960TIP3    H214822   5.864   5.094   4.847
 4961TIP3   OH214823   0.669   2.287   2.267
 4961TIP3    H114824   0.651   2.370   2.223
 4961TIP3    H214825   0.703   2.230   2.198
 4962TIP3   OH214826   6.279   6.818   1.879
 4962TIP3    H114827   6.287   6.749   1.812
 4962TIP3    H214828   6.193   6.803   1.918
 4963TIP3   OH214829   0.641   6.447   0.901
 4963TIP3    H114830   0.726   6.458   0.942
 4963TIP3    H214831   0.627   6.529   0.853
 4964TIP3   OH214832   0.082   2.438   1.697
 4964TIP3    H114833   0.004   2.487   1.722
 4964TIP3    H214834   0.131   2.497   1.640
 4965TIP3   OH214835   2.806   6.674   5.686
 4965TIP3    H114836   2.808   6.608   5.617
 4965TIP3    H214837   2.757   6.747   5.647
 4966TIP3   OH214838   5.422   0.742   3.445
 4966TIP3    H114839   5.498   0.686   3.457
 4966TIP3    H214840   5.392   0.723   3.356
 4967TIP3   OH214841   3.322   2.792   1.355
 4967TIP3    H114842   3.336   2.727   1.424
 4967TIP3    H214843   3.410   2.822   1.332
 4968TIP3   OH214844   3.774   2.520   5.132
 4968TIP3    H114845   3.868   2.542   5.135
 4968TIP3    H214846   3.732   2.592   5.178
 4969TIP3   OH214847   7.208   0.144   3.999
 4969TIP3    H114848   7.235   0.233   3.979
 4969TIP3    H214849   7.117   0.151   4.025
 4970TIP3   OH214850   6.394   6.275   2.929
 4970TIP3    H114851   6.473   6.257   2.980
 4970TIP3    H214852   6.322   6.251   2.987
 4971TIP3   OH214853   4.319   2.288   2.987
 4971TIP3    H114854   4.401   2.245   3.010
 4971TIP3    H214855   4.342   2.348   2.916
 4972TIP3   OH214856   6.647   4.998   1.445
 4972TIP3    H114857   6.651   4.953   1.361
 4972TIP3    H214858   6.577   4.952   1.494
 4973TIP3   OH214859   6.452   2.978   3.957
 4973TIP3    H114860   6.386   2.914   3.930
 4973TIP3    H214861   6.463   2.964   4.051
 4974TIP3   OH214862   4.874   5.554   2.464
 4974TIP3    H114863   4.951   5.540   2.520
 4974TIP3    H214864   4.826   5.471   2.467
 4975TIP3   OH214865   4.920   2.420   2.955
 4975TIP3    H114866   4.934   2.346   3.013
 4975TIP3    H214867   4.977   2.489   2.988
 4976TIP3   OH214868   6.644   0.289   3.064
 4976TIP3    H114869   6.691   0.227   3.010
 4976TIP3    H214870   6.554   0.257   3.065
 4977TIP3   OH214871   4.631   2.577   3.929
 4977TIP3    H114872   4.682   2.502   3.960
 4977TIP3    H214873   4.557   2.582   3.990
 4978TIP3   OH214874   1.001   5.048   5.553
 4978TIP3    H114875   0.917   5.095   5.553
 4978TIP3    H214876   1.054   5.094   5.617
 4979TIP3   OH214877   4.923   7.221   2.709
 4979TIP3    H114878   4.995   7.184   2.658
 4979TIP3    H214879   4.913   7.163   2.784
 4980TIP3   OH214880   6.334   0.902   1.834
 4980TIP3    H114881   6.322   0.810   1.857
 4980TIP3    H214882   6.287   0.913   1.751
 4981TIP3   OH214883   5.631   1.314   3.051
 4981TIP3    H114884   5.691   1.283   2.983
 4981TIP3    H214885   5.566   1.366   3.004
 4982TIP3   OH214886   2.904   7.227   0.802
 4982TIP3    H114887   2.891   7.169   0.727
 4982TIP3    H214888   2.910   7.315   0.764
 4983TIP3   OH214889   7.745   7.824   1.578
 4983TIP3    H114890   7.705   7.868   1.653
 4983TIP3    H214891   7.688   7.847   1.504
 4984TIP3   OH214892   1.286   4.936   1.379
 4984TIP3    H114893   1.222   4.881   1.333
 4984TIP3    H214894   1.363   4.936   1.322
 4985TIP3   OH214895   0.549   4.690   0.878
 4985TIP3    H114896   0.458   4.696   0.850
 4985TIP3    H214897   0.598   4.739   0.811
 4986TIP3   OH214898   6.722   0.205   2.621
 4986TIP3    H114899   6.704   0.288   2.666
 4986TIP3    H214900   6.794   0.227   2.561
 4987TIP3   OH214901   3.048   1.139   1.433
 4987TIP3    H114902   3.137   1.172   1.444
 4987TIP3    H214903   3.042   1.117   1.340
 4988TIP3   OH214904   4.418   6.311   5.668
 4988TIP3    H114905   4.398   6.255   5.743
 4988TIP3    H214906   4.391   6.259   5.592
 4989TIP3   OH214907   6.629   1.225   3.155
 4989TIP3    H114908   6.583   1.262   3.080
 4989TIP3    H214909   6.681   1.154   3.119
 4990TIP3   OH214910   1.707   5.455   2.141
 4990TIP3    H114911   1.704   5.501   2.056
 4990TIP3    H214912   1.798   5.465   2.170
 4991TIP3   OH214913   3.334   6.256   4.858
 4991TIP3    H114914   3.374   6.190   4.801
 4991TIP3    H214915   3.359   6.229   4.946
 4992TIP3   OH214916   2.498   5.921   6.744
 4992TIP3    H114917   2.488   5.835   6.703
 4992TIP3    H214918   2.416   5.935   6.791
 4993TIP3   OH214919   5.223   3.320   5.939
 4993TIP3    H114920   5.191   3.256   5.875
 4993TIP3    H214921   5.299   3.277   5.979
 4994TIP3   OH214922   4.934   6.237   0.801
 4994TIP3    H114923   4.854   6.289   0.801
 4994TIP3    H214924   4.996   6.287   0.854
 4995TIP3   OH214925   4.729   2.073   3.294
 4995TIP3    H114926   4.649   2.082   3.242
 4995TIP3    H214927   4.714   1.994   3.346
 4996TIP3   OH214928   3.062   2.807   4.197
 4996TIP3    H114929   3.063   2.713   4.180
 4996TIP3    H214930   3.045   2.846   4.112
 4997TIP3   OH214931   5.169   3.899   2.698
 4997TIP3    H114932   5.121   3.968   2.653
 4997TIP3    H214933   5.119   3.884   2.779
 4998TIP3   OH214934   2.751   3.681   5.254
 4998TIP3    H114935   2.687   3.743   5.289
 4998TIP3    H214936   2.757   3.702   5.161
 4999TIP3   OH214937   1.190   1.522   6.130
 4999TIP3    H114938   1.180   1.615   6.151
 4999TIP3    H214939   1.129   1.506   6.058
 5000TIP3   OH214940   8.327   6.749   3.794
 5000TIP3    H114941   8.370   6.808   3.855
 5000TIP3    H214942   8.234   6.757   3.815
 5001TIP3   OH214943   4.839   4.745   4.483
 5001TIP3    H114944   4.838   4.664   4.535
 5001TIP3    H214945   4.797   4.810   4.539
 5002TIP3   OH214946   5.806   4.766   4.390
 5002TIP3    H114947   5.850   4.757   4.306
 5002TIP3    H214948   5.713   4.759   4.369
 5003TIP3   OH214949   0.557   6.935   2.594
 5003TIP3    H114950   0.578   6.885   2.515
 5003TIP3    H214951   0.636   6.929   2.648
 5004TIP3   OH214952   2.409   7.601   2.637
 5004TIP3    H114953   2.493   7.636   2.606
 5004TIP3    H214954   2.432   7.520   2.682
 5005TIP3   OH214955   4.269   2.372   5.809
 5005TIP3    H114956   4.195   2.427   5.781
 5005TIP3    H214957   4.284   2.397   5.900
 5006TIP3   OH214958   7.172   0.664   0.081
 5006TIP3    H114959   7.149   0.582   0.126
 5006TIP3    H214960   7.221   0.635   0.004
 5007TIP3   OH214961   5.720   1.026   6.728
 5007TIP3    H114962   5.810   0.999   6.748
 5007TIP3    H214963   5.665   0.959   6.769
 5008TIP3   OH214964   2.518   3.806   5.741
 5008TIP3    H114965   2.580   3.792   5.812
 5008TIP3    H214966   2.537   3.736   5.678
 5009TIP3   OH214967   7.604   7.014   0.678
 5009TIP3    H114968   7.600   6.919   0.664
 5009TIP3    H214969   7.600   7.024   0.773
 5010TIP3   OH214970   6.174   3.009   3.542
 5010TIP3    H114971   6.187   3.087   3.595
 5010TIP3    H214972   6.261   2.967   3.540
 5011TIP3   OH214973   5.670   7.234   2.801
 5011TIP3    H114974   5.756   7.273   2.783
 5011TIP3    H214975   5.609   7.290   2.753
 5012TIP3   OH214976   6.530   2.046   1.650
 5012TIP3    H114977   6.564   1.982   1.587
 5012TIP3    H214978   6.543   2.130   1.607
 5013TIP3   OH214979   1.890   4.876   5.925
 5013TIP3    H114980   1.817   4.822   5.955
 5013TIP3    H214981   1.874   4.888   5.832
 5014TIP3   OH214982   6.048   6.301   2.116
 5014TIP3    H114983   6.035   6.246   2.193
 5014TIP3    H214984   6.143   6.313   2.110
 5015TIP3   OH214985   0.727   4.136   1.393
 5015TIP3    H114986   0.766   4.062   1.346
 5015TIP3    H214987   0.784   4.210   1.372
 5016TIP3   OH214988   0.501   1.063   5.437
 5016TIP3    H114989   0.421   1.052   5.386
 5016TIP3    H214990   0.563   1.102   5.375
 5017TIP3   OH214991   0.416   4.716   2.820
 5017TIP3    H114992   0.479   4.744   2.754
 5017TIP3    H214993   0.335   4.761   2.797
 5018TIP3   OH214994   5.708   4.220   5.103
 5018TIP3    H114995   5.652   4.267   5.165
 5018TIP3    H214996   5.700   4.128   5.128
 5019TIP3   OH214997   1.751   7.716   1.983
 5019TIP3    H114998   1.844   7.692   1.981
 5019TIP3    H214999   1.709   7.647   2.035
 5020TIP3   OH215000   5.335   3.082   2.811
 5020TIP3    H115001   5.426   3.101   2.790
 5020TIP3    H215002   5.284   3.139   2.754
 5021TIP3   OH215003   0.099   4.281   3.587
 5021TIP3    H115004   0.131   4.232   3.511
 5021TIP3    H215005   0.004   4.279   3.578
 5022TIP3   OH215006   4.044   0.935   0.406
 5022TIP3    H115007   4.128   0.925   0.361
 5022TIP3    H215008   4.053   0.883   0.486
 5023TIP3   OH215009   2.705   1.499   2.181
 5023TIP3    H115010   2.649   1.552   2.237
 5023TIP3    H215011   2.791   1.502   2.224
 5024TIP3   OH215012   4.908   1.634   4.422
 5024TIP3    H115013   4.973   1.611   4.488
 5024TIP3    H215014   4.830   1.584   4.446
 5025TIP3   OH215015   7.630   0.281   0.878
 5025TIP3    H115016   7.588   0.286   0.792
 5025TIP3    H215017   7.567   0.236   0.933
 5026TIP3   OH215018   2.849   1.030   1.977
 5026TIP3    H115019   2.804   0.967   2.033
 5026TIP3    H215020   2.803   1.112   1.991
 5027TIP3   OH215021   8.098   0.033   2.060
 5027TIP3    H115022   8.091   0.003   1.969
 5027TIP3    H215023   8.057   0.119   2.060
 5028TIP3   OH215024   5.797   5.758   2.985
 5028TIP3    H115025   5.765   5.669   2.972
 5028TIP3    H215026   5.866   5.750   3.050
 5029TIP3   OH215027   5.385   7.269   1.677
 5029TIP3    H115028   5.295   7.260   1.645
 5029TIP3    H215029   5.439   7.253   1.600
 5030TIP3   OH215030   1.733   3.839   1.262
 5030TIP3    H115031   1.690   3.833   1.177
 5030TIP3    H215032   1.761   3.930   1.268
 5031TIP3   OH215033   5.309   5.271   5.110
 5031TIP3    H115034   5.332   5.349   5.060
 5031TIP3    H215035   5.220   5.288   5.141
 5032TIP3   OH215036   3.380   5.058   3.101
 5032TIP3    H115037   3.294   5.089   3.128
 5032TIP3    H215038   3.377   5.059   3.005
 5033TIP3   OH215039   6.425   3.706   4.355
 5033TIP3    H115040   6.368   3.781   4.373
 5033TIP3    H215041   6.422   3.696   4.260
 5034TIP3   OH215042   2.270   5.919   0.374
 5034TIP3    H115043   2.277   5.953   0.463
 5034TIP3    H215044   2.181   5.940   0.347
 5035TIP3   OH215045   1.471   3.478   0.609
 5035TIP3    H115046   1.417   3.492   0.531
 5035TIP3    H215047   1.409   3.447   0.675
 5036TIP3   OH215048   0.341   4.931   3.396
 5036TIP3    H115049   0.298   5.008   3.359
 5036TIP3    H215050   0.428   4.930   3.355
 5037TIP3   OH215051   3.302   1.795   4.531
 5037TIP3    H115052   3.315   1.880   4.491
 5037TIP3    H215053   3.243   1.812   4.605
 5038TIP3   OH215054   0.413   2.832   0.640
 5038TIP3    H115055   0.429   2.916   0.683
 5038TIP3    H215056   0.393   2.772   0.711
 5039TIP3   OH215057   0.457   2.713   3.319
 5039TIP3    H115058   0.450   2.618   3.311
 5039TIP3    H215059   0.403   2.736   3.395
 5040TIP3   OH215060   7.785   3.567   4.711
 5040TIP3    H115061   7.860   3.542   4.655
 5040TIP3    H215062   7.806   3.656   4.740
 5041TIP3   OH215063   2.012   1.644   1.101
 5041TIP3    H115064   1.964   1.635   1.183
 5041TIP3    H215065   2.015   1.738   1.085
 5042TIP3   OH215066   3.581   1.406   1.864
 5042TIP3    H115067   3.636   1.328   1.869
 5042TIP3    H215068   3.491   1.372   1.865
 5043TIP3   OH215069   8.223   3.390   4.599
 5043TIP3    H115070   8.304   3.441   4.600
 5043TIP3    H215071   8.180   3.414   4.516
 5044TIP3   OH215072   2.448   4.873   2.405
 5044TIP3    H115073   2.446   4.781   2.380
 5044TIP3    H215074   2.522   4.879   2.466
 5045TIP3   OH215075   3.437   7.691   0.147
 5045TIP3    H115076   3.528   7.689   0.178
 5045TIP3    H215077   3.439   7.749   0.071
 5046TIP3   OH215078   4.622   4.729   3.958
 5046TIP3    H115079   4.707   4.743   4.000
 5046TIP3    H215080   4.629   4.644   3.915
 5047TIP3   OH215081   2.753   0.672   3.073
 5047TIP3    H115082   2.678   0.614   3.083
 5047TIP3    H215083   2.829   0.614   3.076
 5048TIP3   OH215084   5.939   6.958   4.441
 5048TIP3    H115085   5.878   6.911   4.497
 5048TIP3    H215086   5.954   6.898   4.367
 5049TIP3   OH215087   3.034   2.755   4.878
 5049TIP3    H115088   3.089   2.819   4.833
 5049TIP3    H215089   3.070   2.751   4.967
 5050TIP3   OH215090   5.411   6.434   1.264
 5050TIP3    H115091   5.474   6.379   1.310
 5050TIP3    H215092   5.425   6.413   1.171
 5051TIP3   OH215093   6.953   1.583   1.560
 5051TIP3    H115094   6.891   1.641   1.605
 5051TIP3    H215095   7.032   1.584   1.614
 5052TIP3   OH215096   0.925   6.072   4.157
 5052TIP3    H115097   0.932   6.167   4.150
 5052TIP3    H215098   0.966   6.051   4.240
 5053TIP3   OH215099   1.115   2.516   6.121
 5053TIP3    H115100   1.022   2.503   6.139
 5053TIP3    H215101   1.158   2.498   6.205
 5054TIP3   OH215102   2.600   4.702   6.013
 5054TIP3    H115103   2.567   4.788   5.988
 5054TIP3    H215104   2.524   4.644   6.009
 5055TIP3   OH215105   2.989   1.313   4.783
 5055TIP3    H115106   3.052   1.377   4.749
 5055TIP3    H215107   3.038   1.231   4.786
 5056TIP3   OH215108   0.747   6.012   3.506
 5056TIP3    H115109   0.791   6.094   3.487
 5056TIP3    H215110   0.723   5.977   3.420
 5057TIP3   OH215111   1.805   2.100   0.441
 5057TIP3    H115112   1.719   2.079   0.404
 5057TIP3    H215113   1.786   2.148   0.521
 5058TIP3   OH215114   7.596   1.351   5.165
 5058TIP3    H115115   7.505   1.323   5.163
 5058TIP3    H215116   7.630   1.330   5.078
 5059TIP3   OH215117   1.112   0.582   5.721
 5059TIP3    H115118   1.172   0.510   5.706
 5059TIP3    H215119   1.064   0.591   5.639
 5060TIP3   OH215120   1.020   0.682   1.850
 5060TIP3    H115121   0.963   0.655   1.779
 5060TIP3    H215122   1.045   0.601   1.894
 5061TIP3   OH215123   7.908   0.759   5.703
 5061TIP3    H115124   7.860   0.682   5.732
 5061TIP3    H215125   7.987   0.725   5.661
 5062TIP3   OH215126   2.959   6.502   6.527
 5062TIP3    H115127   2.967   6.527   6.620
 5062TIP3    H215128   2.977   6.408   6.527
 5063TIP3   OH215129   5.272   4.969   5.367
 5063TIP3    H115130   5.234   5.048   5.406
 5063TIP3    H215131   5.206   4.901   5.380
 5064TIP3   OH215132   1.362   6.269   1.869
 5064TIP3    H115133   1.276   6.290   1.906
 5064TIP3    H215134   1.420   6.265   1.945
 5065TIP3   OH215135   0.424   4.107   6.732
 5065TIP3    H115136   0.439   4.118   6.639
 5065TIP3    H215137   0.413   4.197   6.765
 5066TIP3   OH215138   1.549   1.704   4.253
 5066TIP3    H115139   1.611   1.769   4.286
 5066TIP3    H215140   1.604   1.634   4.217
 5067TIP3   OH215141   2.228   7.101   0.612
 5067TIP3    H115142   2.264   7.150   0.538
 5067TIP3    H215143   2.286   7.026   0.621
 5068TIP3   OH215144   0.941   4.550   1.063
 5068TIP3    H115145   0.866   4.609   1.069
 5068TIP3    H215146   0.939   4.500   1.144
 5069TIP3   OH215147   3.480   2.454   0.542
 5069TIP3    H115148   3.463   2.516   0.472
 5069TIP3    H215149   3.574   2.437   0.537
 5070TIP3   OH215150   3.501   4.628   3.100
 5070TIP3    H115151   3.477   4.570   3.027
 5070TIP3    H215152   3.422   4.679   3.117
 5071TIP3   OH215153   4.711   0.102   3.467
 5071TIP3    H115154   4.763   0.036   3.513
 5071TIP3    H215155   4.705   0.175   3.528
 5072TIP3   OH215156   5.689   4.398   6.128
 5072TIP3    H115157   5.618   4.462   6.123
 5072TIP3    H215158   5.650   4.316   6.100
 5073TIP3   OH215159   2.829   7.705   1.482
 5073TIP3    H115160   2.744   7.731   1.517
 5073TIP3    H215161   2.823   7.723   1.388
 5074TIP3   OH215162   1.497   1.765   0.381
 5074TIP3    H115163   1.408   1.752   0.412
 5074TIP3    H215164   1.488   1.777   0.286
 5075TIP3   OH215165   1.590   3.102   2.802
 5075TIP3    H115166   1.587   3.180   2.746
 5075TIP3    H215167   1.679   3.100   2.836
 5076TIP3   OH215168   1.679   2.460   0.484
 5076TIP3    H115169   1.599   2.506   0.511
 5076TIP3    H215170   1.665   2.439   0.392
 5077TIP3   OH215171   3.752   4.158   0.227
 5077TIP3    H115172   3.797   4.114   0.155
 5077TIP3    H215173   3.823   4.187   0.284
 5078TIP3   OH215174   3.871   2.489   4.678
 5078TIP3    H115175   3.913   2.529   4.602
 5078TIP3    H215176   3.836   2.563   4.727
 5079TIP3   OH215177   4.792   4.191   0.748
 5079TIP3    H115178   4.727   4.122   0.755
 5079TIP3    H215179   4.810   4.217   0.839
 5080TIP3   OH215180   3.230   7.604   2.814
 5080TIP3    H115181   3.217   7.532   2.752
 5080TIP3    H215182   3.265   7.561   2.893
 5081TIP3   OH215183   4.256   4.374   5.982
 5081TIP3    H115184   4.321   4.334   5.923
 5081TIP3    H215185   4.174   4.332   5.958
 5082TIP3   OH215186   1.884   0.842   1.882
 5082TIP3    H115187   1.837   0.887   1.812
 5082TIP3    H215188   1.847   0.877   1.963
 5083TIP3   OH215189   2.132   6.411   3.012
 5083TIP3    H115190   2.213   6.363   3.027
 5083TIP3    H215191   2.070   6.345   2.981
 5084TIP3   OH215192   3.293   4.023   6.672
 5084TIP3    H115193   3.253   3.967   6.606
 5084TIP3    H215194   3.358   3.968   6.715
 5085TIP3   OH215195   2.723   1.166   4.269
 5085TIP3    H115196   2.656   1.155   4.202
 5085TIP3    H215197   2.741   1.078   4.301
 5086TIP3   OH215198   5.784   3.648   3.380
 5086TIP3    H115199   5.868   3.688   3.357
 5086TIP3    H215200   5.736   3.645   3.297
 5087TIP3   OH215201   4.698   3.242   5.552
 5087TIP3    H115202   4.730   3.228   5.463
 5087TIP3    H215203   4.606   3.267   5.541
 5088TIP3   OH215204   1.378   2.576   3.460
 5088TIP3    H115205   1.345   2.500   3.508
 5088TIP3    H215206   1.430   2.624   3.525
 5089TIP3   OH215207   6.625   1.169   0.747
 5089TIP3    H115208   6.602   1.099   0.685
 5089TIP3    H215209   6.708   1.203   0.714
 5090TIP3   OH215210   0.492   3.564   4.350
 5090TIP3    H115211   0.514   3.658   4.352
 5090TIP3    H215212   0.466   3.544   4.440
 5091TIP3   OH215213   7.707   7.351   0.566
 5091TIP3    H115214   7.781   7.339   0.626
 5091TIP3    H215215   7.709   7.274   0.510
 5092TIP3   OH215216   7.477   1.364   6.524
 5092TIP3    H115217   7.561   1.365   6.478
 5092TIP3    H215218   7.477   1.283   6.574
 5093TIP3   OH215219   6.500   0.937   6.213
 5093TIP3    H115220   6.473   0.848   6.235
 5093TIP3    H215221   6.567   0.926   6.146
 5094TIP3   OH215222   2.595   0.816   2.734
 5094TIP3    H115223   2.580   0.907   2.711
 5094TIP3    H215224   2.511   0.784   2.766
 5095TIP3   OH215225   2.878   0.602   4.264
 5095TIP3    H115226   2.922   0.560   4.191
 5095TIP3    H215227   2.921   0.687   4.272
 5096TIP3   OH215228   6.294   7.104   4.312
 5096TIP3    H115229   6.342   7.022   4.297
 5096TIP3    H215230   6.352   7.172   4.277
 5097TIP3   OH215231   1.377   1.221   2.849
 5097TIP3    H115232   1.433   1.299   2.847
 5097TIP3    H215233   1.384   1.189   2.939
 5098TIP3   OH215234   3.725   3.719   1.122
 5098TIP3    H115235   3.818   3.730   1.104
 5098TIP3    H215236   3.700   3.639   1.076
 5099TIP3   OH215237   6.994   2.877   5.889
 5099TIP3    H115238   7.004   2.972   5.888
 5099TIP3    H215239   7.079   2.844   5.859
 5100TIP3   OH215240   0.971   4.642   0.803
 5100TIP3    H115241   0.941   4.627   0.892
 5100TIP3    H215242   1.026   4.566   0.783
 5101TIP3   OH215243   1.053   3.729   2.826
 5101TIP3    H115244   1.024   3.817   2.801
 5101TIP3    H215245   1.118   3.706   2.760
 5102TIP3   OH215246   4.922   1.260   0.486
 5102TIP3    H115247   4.979   1.190   0.452
 5102TIP3    H215248   4.836   1.242   0.448
 5103TIP3   OH215249   3.090   1.661   0.316
 5103TIP3    H115250   3.059   1.615   0.238
 5103TIP3    H215251   3.038   1.625   0.387
 5104TIP3   OH215252   0.066   2.486   3.216
 5104TIP3    H115253   0.085   2.407   3.266
 5104TIP3    H215254   0.126   2.482   3.141
 5105TIP3   OH215255   4.931   0.614   4.475
 5105TIP3    H115256   4.885   0.626   4.392
 5105TIP3    H215257   4.990   0.689   4.481
 5106TIP3   OH215258   1.077   1.547   5.347
 5106TIP3    H115259   1.096   1.598   5.426
 5106TIP3    H215260   1.161   1.511   5.320
 5107TIP3   OH215261   5.301   0.248   2.853
 5107TIP3    H115262   5.290   0.249   2.757
 5107TIP3    H215263   5.395   0.244   2.866
 5108TIP3   OH215264   7.531   1.651   0.181
 5108TIP3    H115265   7.616   1.691   0.163
 5108TIP3    H215266   7.482   1.660   0.099
 5109TIP3   OH215267   3.814   2.708   6.374
 5109TIP3    H115268   3.844   2.784   6.324
 5109TIP3    H215269   3.724   2.731   6.399
 5110TIP3   OH215270   7.250   5.398   4.629
 5110TIP3    H115271   7.171   5.447   4.653
 5110TIP3    H215272   7.322   5.459   4.646
 5111TIP3   OH215273   4.530   0.507   1.633
 5111TIP3    H115274   4.589   0.434   1.651
 5111TIP3    H215275   4.475   0.476   1.561
 5112TIP3   OH215276   3.974   3.194   0.353
 5112TIP3    H115277   3.910   3.221   0.419
 5112TIP3    H215278   3.979   3.268   0.293
 5113TIP3   OH215279   1.153   0.314   5.583
 5113TIP3    H115280   1.115   0.226   5.585
 5113TIP3    H215281   1.079   0.372   5.566
 5114TIP3   OH215282   2.399   5.189   1.905
 5114TIP3    H115283   2.358   5.228   1.982
 5114TIP3    H215284   2.405   5.096   1.926
 5115TIP3   OH215285   1.803   3.633   2.202
 5115TIP3    H115286   1.818   3.649   2.109
 5115TIP3    H215287   1.784   3.539   2.206
 5116TIP3   OH215288   7.082   2.678   2.285
 5116TIP3    H115289   7.141   2.739   2.240
 5116TIP3    H215290   7.097   2.594   2.241
 5117TIP3   OH215291   5.969   0.468   1.536
 5117TIP3    H115292   5.917   0.548   1.528
 5117TIP3    H215293   5.906   0.401   1.563
 5118TIP3   OH215294   6.692   1.059   6.368
 5118TIP3    H115295   6.717   1.140   6.324
 5118TIP3    H215296   6.626   1.020   6.311
 5119TIP3   OH215297   1.689   6.550   3.549
 5119TIP3    H115298   1.725   6.476   3.501
 5119TIP3    H215299   1.706   6.529   3.641
 5120TIP3   OH215300   5.078   7.818   5.756
 5120TIP3    H115301   5.087   7.775   5.671
 5120TIP3    H215302   4.985   7.810   5.777
 5121TIP3   OH215303   4.296   5.650   4.899
 5121TIP3    H115304   4.388   5.647   4.925
 5121TIP3    H215305   4.286   5.577   4.838
 5122TIP3   OH215306   2.456   1.402   6.592
 5122TIP3    H115307   2.365   1.378   6.577
 5122TIP3    H215308   2.458   1.497   6.581
 5123TIP3   OH215309   0.908   1.393   5.204
 5123TIP3    H115310   0.962   1.470   5.226
 5123TIP3    H215311   0.969   1.333   5.161
 5124TIP3   OH215312   1.819   1.310   6.064
 5124TIP3    H115313   1.739   1.362   6.077
 5124TIP3    H215314   1.854   1.341   5.980
 5125TIP3   OH215315   2.852   4.534   0.544
 5125TIP3    H115316   2.924   4.571   0.595
 5125TIP3    H215317   2.811   4.609   0.502
 5126TIP3   OH215318   6.585   3.807   3.860
 5126TIP3    H115319   6.622   3.720   3.843
 5126TIP3    H215320   6.641   3.844   3.928
 5127TIP3   OH215321   2.509   6.628   6.183
 5127TIP3    H115322   2.533   6.569   6.255
 5127TIP3    H215323   2.592   6.659   6.149
 5128TIP3   OH215324   7.962   6.067   1.035
 5128TIP3    H115325   7.983   5.974   1.043
 5128TIP3    H215326   7.912   6.074   0.954
 5129TIP3   OH215327   5.337   7.025   2.946
 5129TIP3    H115328   5.298   7.103   2.985
 5129TIP3    H215329   5.414   7.007   3.001
 5130TIP3   OH215330   3.738   3.338   2.848
 5130TIP3    H115331   3.761   3.376   2.763
 5130TIP3    H215332   3.772   3.249   2.845
 5131TIP3   OH215333   7.254   0.081   0.497
 5131TIP3    H115334   7.231   0.154   0.556
 5131TIP3    H215335   7.182   0.019   0.508
 5132TIP3   OH215336   1.553   0.367   0.655
 5132TIP3    H115337   1.471   0.340   0.614
 5132TIP3    H215338   1.591   0.430   0.593
 5133TIP3   OH215339   2.355   6.908   6.647
 5133TIP3    H115340   2.429   6.969   6.642
 5133TIP3    H215341   2.386   6.829   6.605
 5134TIP3   OH215342   0.354   2.021   0.459
 5134TIP3    H115343   0.296   1.974   0.400
 5134TIP3    H215344   0.342   2.113   0.437
 5135TIP3   OH215345   5.982   5.719  -0.006
 5135TIP3    H115346   5.971   5.761   0.079
 5135TIP3    H215347   6.056   5.764  -0.046
 5136TIP3   OH215348   5.094   7.110   1.235
 5136TIP3    H115349   5.121   7.054   1.307
 5136TIP3    H215350   5.059   7.051   1.169
 5137TIP3   OH215351   4.497   3.751   3.195
 5137TIP3    H115352   4.527   3.720   3.110
 5137TIP3    H215353   4.532   3.688   3.258
 5138TIP3   OH215354   7.890   2.971   6.039
 5138TIP3    H115355   7.910   3.060   6.065
 5138TIP3    H215356   7.967   2.943   5.989
 5139TIP3   OH215357   4.469   7.244   3.494
 5139TIP3    H115358   4.560   7.257   3.521
 5139TIP3    H215359   4.418   7.274   3.569
 5140TIP3   OH215360   4.056   7.615   5.166
 5140TIP3    H115361   4.094   7.626   5.079
 5140TIP3    H215362   4.118   7.658   5.225
 5141TIP3   OH215363   8.416   6.799   5.496
 5141TIP3    H115364   8.333   6.845   5.508
 5141TIP3    H215365   8.392   6.711   5.467
 5142TIP3   OH215366   7.642   3.924   6.283
 5142TIP3    H115367   7.681   3.865   6.347
 5142TIP3    H215368   7.607   3.866   6.215
 5143TIP3   OH215369   1.697   1.775   3.677
 5143TIP3    H115370   1.770   1.727   3.637
 5143TIP3    H215371   1.657   1.712   3.737
 5144TIP3   OH215372   7.601   2.458   6.809
 5144TIP3    H115373   7.690   2.424   6.818
 5144TIP3    H215374   7.559   2.399   6.747
 5145TIP3   OH215375   7.950   4.793   5.583
 5145TIP3    H115376   8.021   4.814   5.522
 5145TIP3    H215377   7.946   4.868   5.642
 5146TIP3   OH215378   1.482   7.552   1.821
 5146TIP3    H115379   1.578   7.542   1.824
 5146TIP3    H215380   1.460   7.593   1.905
 5147TIP3   OH215381   6.889   2.618   3.612
 5147TIP3    H115382   6.809   2.586   3.571
 5147TIP3    H215383   6.933   2.669   3.543
 5148TIP3   OH215384   7.087   6.121   1.889
 5148TIP3    H115385   7.096   6.100   1.796
 5148TIP3    H215386   7.058   6.212   1.891
 5149TIP3   OH215387   7.590   3.274   1.293
 5149TIP3    H115388   7.649   3.257   1.220
 5149TIP3    H215389   7.623   3.219   1.364
 5150TIP3   OH215390   8.313   6.204   5.888
 5150TIP3    H115391   8.314   6.166   5.976
 5150TIP3    H215392   8.264   6.140   5.836
 5151TIP3   OH215393   3.974   5.843   6.006
 5151TIP3    H115394   3.958   5.853   6.100
 5151TIP3    H215395   4.035   5.769   6.000
 5152TIP3   OH215396   0.168   7.824   4.280
 5152TIP3    H115397   0.205   7.738   4.299
 5152TIP3    H215398   0.169   7.830   4.184
 5153TIP3   OH215399   5.298   3.678   2.502
 5153TIP3    H115400   5.323   3.751   2.558
 5153TIP3    H215401   5.296   3.603   2.561
 5154TIP3   OH215402   1.721   6.537   6.355
 5154TIP3    H115403   1.686   6.464   6.304
 5154TIP3    H215404   1.802   6.562   6.310
 5155TIP3   OH215405   2.584   0.564   4.433
 5155TIP3    H115406   2.533   0.612   4.368
 5155TIP3    H215407   2.525   0.555   4.508
 5156TIP3   OH215408   4.458   6.734   3.134
 5156TIP3    H115409   4.439   6.648   3.172
 5156TIP3    H215410   4.514   6.715   3.058
 5157TIP3   OH215411   1.193   3.194   6.448
 5157TIP3    H115412   1.149   3.249   6.512
 5157TIP3    H215413   1.276   3.170   6.489
 5158TIP3   OH215414   7.702   6.239   3.451
 5158TIP3    H115415   7.784   6.287   3.466
 5158TIP3    H215416   7.729   6.148   3.441
 5159TIP3   OH215417   3.054   2.171   4.415
 5159TIP3    H115418   3.026   2.230   4.484
 5159TIP3    H215419   2.973   2.144   4.372
 5160TIP3   OH215420   3.465   0.190   1.391
 5160TIP3    H115421   3.540   0.181   1.449
 5160TIP3    H215422   3.410   0.257   1.433
 5161TIP3   OH215423   0.975   0.120   5.536
 5161TIP3    H115424   0.888   0.137   5.571
 5161TIP3    H215425   0.960   0.060   5.463
 5162TIP3   OH215426   8.174   7.004   5.063
 5162TIP3    H115427   8.161   7.031   5.153
 5162TIP3    H215428   8.262   6.965   5.062
 5163TIP3   OH215429   1.379   4.320   4.771
 5163TIP3    H115430   1.418   4.367   4.845
 5163TIP3    H215431   1.451   4.309   4.709
 5164TIP3   OH215432   7.468   5.253   4.149
 5164TIP3    H115433   7.537   5.293   4.096
 5164TIP3    H215434   7.391   5.308   4.135
 5165TIP3   OH215435   6.692   6.756   3.752
 5165TIP3    H115436   6.768   6.733   3.806
 5165TIP3    H215437   6.710   6.846   3.723
 5166TIP3   OH215438   1.363   6.754   1.768
 5166TIP3    H115439   1.329   6.784   1.684
 5166TIP3    H215440   1.430   6.689   1.745
 5167TIP3   OH215441   3.791   3.298   0.522
 5167TIP3    H115442   3.757   3.294   0.611
 5167TIP3    H215443   3.804   3.391   0.506
 5168TIP3   OH215444   6.925   4.483   4.361
 5168TIP3    H115445   6.860   4.440   4.417
 5168TIP3    H215446   6.912   4.576   4.376
 5169TIP3   OH215447   2.392   7.823   1.253
 5169TIP3    H115448   2.317   7.782   1.296
 5169TIP3    H215449   2.365   7.833   1.162
 5170TIP3   OH215450   6.697   4.643   6.112
 5170TIP3    H115451   6.747   4.722   6.094
 5170TIP3    H215452   6.761   4.572   6.104
 5171TIP3   OH215453   7.125   3.955   1.216
 5171TIP3    H115454   7.194   4.019   1.231
 5171TIP3    H215455   7.053   4.006   1.178
 5172TIP3   OH215456   7.056   5.441   5.748
 5172TIP3    H115457   7.082   5.469   5.660
 5172TIP3    H215458   7.017   5.354   5.735
 5173TIP3   OH215459   8.389   7.517   4.423
 5173TIP3    H115460   8.449   7.493   4.493
 5173TIP3    H215461   8.320   7.568   4.466
 5174TIP3   OH215462   3.990   4.879   6.812
 5174TIP3    H115463   4.042   4.808   6.850
 5174TIP3    H215464   4.036   4.959   6.839
 5175TIP3   OH215465   0.433   1.912   5.856
 5175TIP3    H115466   0.466   1.910   5.946
 5175TIP3    H215467   0.422   1.820   5.832
 5176TIP3   OH215468   6.665   2.896   2.843
 5176TIP3    H115469   6.582   2.861   2.811
 5176TIP3    H215470   6.641   2.964   2.905
 5177TIP3   OH215471   4.592   0.540   0.029
 5177TIP3    H115472   4.526   0.475   0.054
 5177TIP3    H215473   4.610   0.587   0.110
 5178TIP3   OH215474   0.593   1.428   1.741
 5178TIP3    H115475   0.519   1.447   1.799
 5178TIP3    H215476   0.561   1.357   1.685
 5179TIP3   OH215477   5.624   4.207   1.420
 5179TIP3    H115478   5.606   4.283   1.475
 5179TIP3    H215479   5.660   4.243   1.339
 5180TIP3   OH215480   6.744   5.497   5.293
 5180TIP3    H115481   6.792   5.518   5.373
 5180TIP3    H215482   6.779   5.411   5.267
 5181TIP3   OH215483   8.096   7.739   6.580
 5181TIP3    H115484   8.056   7.825   6.569
 5181TIP3    H215485   8.036   7.679   6.536
 5182TIP3   OH215486   5.334   6.256   6.665
 5182TIP3    H115487   5.254   6.227   6.707
 5182TIP3    H215488   5.319   6.240   6.571
 5183TIP3   OH215489   1.796   4.006   5.616
 5183TIP3    H115490   1.880   4.042   5.587
 5183TIP3    H215491   1.771   4.062   5.690
 5184TIP3   OH215492   3.402   1.371   2.500
 5184TIP3    H115493   3.343   1.420   2.442
 5184TIP3    H215494   3.489   1.403   2.478
 5185TIP3   OH215495   7.462   3.230   1.935
 5185TIP3    H115496   7.453   3.209   2.028
 5185TIP3    H215497   7.441   3.324   1.929
 5186TIP3   OH215498   2.457   4.842   2.794
 5186TIP3    H115499   2.522   4.882   2.851
 5186TIP3    H215500   2.409   4.781   2.851
 5187TIP3   OH215501   4.686   5.741   2.537
 5187TIP3    H115502   4.757   5.680   2.514
 5187TIP3    H215503   4.727   5.827   2.534
 5188TIP3   OH215504   6.234   0.116   3.614
 5188TIP3    H115505   6.194   0.166   3.686
 5188TIP3    H215506   6.161   0.098   3.555
 5189TIP3   OH215507   4.837   5.749   3.023
 5189TIP3    H115508   4.758   5.788   2.986
 5189TIP3    H215509   4.877   5.702   2.950
 5190TIP3   OH215510   1.385   6.419   6.748
 5190TIP3    H115511   1.440   6.382   6.679
 5190TIP3    H215512   1.357   6.503   6.714
 5191TIP3   OH215513   0.010   0.461   3.252
 5191TIP3    H115514  -0.032   0.393   3.304
 5191TIP3    H215515   0.103   0.441   3.255
 5192TIP3   OH215516   4.157   4.294   4.157
 5192TIP3    H115517   4.211   4.371   4.173
 5192TIP3    H215518   4.138   4.260   4.245
 5193TIP3   OH215519   7.777   5.013   6.657
 5193TIP3    H115520   7.817   5.031   6.742
 5193TIP3    H215521   7.692   5.059   6.660
 5194TIP3   OH215522   1.549   0.709   0.152
 5194TIP3    H115523   1.604   0.787   0.150
 5194TIP3    H215524   1.596   0.648   0.209
 5195TIP3   OH215525   5.619   1.218   6.309
 5195TIP3    H115526   5.666   1.140   6.340
 5195TIP3    H215527   5.633   1.218   6.215
 5196TIP3   OH215528   0.320   1.944   2.446
 5196TIP3    H115529   0.322   1.924   2.540
 5196TIP3    H215530   0.365   2.029   2.439
 5197TIP3   OH215531   2.837   6.707   4.692
 5197TIP3    H115532   2.927   6.737   4.698
 5197TIP3    H215533   2.785   6.787   4.699
 5198TIP3   OH215534   3.992   4.526   2.025
 5198TIP3    H115535   3.951   4.528   2.111
 5198TIP3    H215536   3.976   4.437   1.993
 5199TIP3   OH215537   4.292   3.592   6.844
 5199TIP3    H115538   4.357   3.533   6.808
 5199TIP3    H215539   4.208   3.551   6.825
 5200TIP3   OH215540   4.667   3.787   1.584
 5200TIP3    H115541   4.693   3.778   1.676
 5200TIP3    H215542   4.736   3.842   1.545
 5201TIP3   OH215543   0.800   4.126   2.192
 5201TIP3    H115544   0.837   4.182   2.124
 5201TIP3    H215545   0.743   4.184   2.243
 5202TIP3   OH215546   5.348   2.088   3.270
 5202TIP3    H115547   5.336   2.009   3.217
 5202TIP3    H215548   5.388   2.151   3.210
 5203TIP3   OH215549   2.303   7.070   4.138
 5203TIP3    H115550   2.231   7.103   4.085
 5203TIP3    H215551   2.357   7.147   4.156
 5204TIP3   OH215552   7.816   2.177   1.076
 5204TIP3    H115553   7.859   2.176   0.990
 5204TIP3    H215554   7.812   2.270   1.099
 5205TIP3   OH215555   6.587   4.156   0.633
 5205TIP3    H115556   6.519   4.211   0.671
 5205TIP3    H215557   6.540   4.080   0.598
 5206TIP3   OH215558   5.230   0.384   0.805
 5206TIP3    H115559   5.288   0.341   0.742
 5206TIP3    H215560   5.141   0.365   0.773
 5207TIP3   OH215561   5.447   5.021   5.932
 5207TIP3    H115562   5.473   5.108   5.962
 5207TIP3    H215563   5.486   4.961   5.996
 5208TIP3   OH215564   0.684   5.250   3.310
 5208TIP3    H115565   0.752   5.317   3.315
 5208TIP3    H215566   0.691   5.203   3.393
 5209TIP3   OH215567   6.171   1.631   0.612
 5209TIP3    H115568   6.183   1.541   0.643
 5209TIP3    H215569   6.251   1.676   0.638
 5210TIP3   OH215570   1.505   1.808   1.895
 5210TIP3    H115571   1.531   1.741   1.832
 5210TIP3    H215572   1.416   1.784   1.920
 5211TIP3   OH215573   7.808   5.824   5.560
 5211TIP3    H115574   7.767   5.867   5.635
 5211TIP3    H215575   7.896   5.802   5.590
 5212TIP3   OH215576   3.366   6.692   4.513
 5212TIP3    H115577   3.461   6.680   4.520
 5212TIP3    H215578   3.330   6.643   4.586
 5213TIP3   OH215579   3.456   7.189   6.195
 5213TIP3    H115580   3.480   7.180   6.287
 5213TIP3    H215581   3.444   7.099   6.164
 5214TIP3   OH215582   0.226   0.987   3.681
 5214TIP3    H115583   0.211   1.074   3.718
 5214TIP3    H215584   0.261   0.936   3.754
 5215TIP3   OH215585   8.186   5.301   6.312
 5215TIP3    H115586   8.227   5.311   6.399
 5215TIP3    H215587   8.103   5.349   6.319
 5216TIP3   OH215588   4.361   1.108   3.528
 5216TIP3    H115589   4.298   1.093   3.599
 5216TIP3    H215590   4.394   1.197   3.544
 5217TIP3   OH215591   3.083   1.179   0.276
 5217TIP3    H115592   3.157   1.239   0.276
 5217TIP3    H215593   3.114   1.102   0.323
 5218TIP3   OH215594   5.420   4.898   1.856
 5218TIP3    H115595   5.381   4.944   1.930
 5218TIP3    H215596   5.351   4.837   1.827
 5219TIP3   OH215597   3.596   1.848   2.341
 5219TIP3    H115598   3.616   1.923   2.397
 5219TIP3    H215599   3.607   1.880   2.252
 5220TIP3   OH215600   7.596   0.654   4.100
 5220TIP3    H115601   7.610   0.651   4.005
 5220TIP3    H215602   7.522   0.715   4.111
 5221TIP3   OH215603   0.401   7.042   5.020
 5221TIP3    H115604   0.308   7.062   5.031
 5221TIP3    H215605   0.431   7.104   4.954
 5222TIP3   OH215606   2.802   6.603   0.505
 5222TIP3    H115607   2.895   6.599   0.527
 5222TIP3    H215608   2.763   6.530   0.554
 5223TIP3   OH215609   7.029   2.181   3.731
 5223TIP3    H115610   7.065   2.269   3.737
 5223TIP3    H215611   7.105   2.123   3.738
 5224TIP3   OH215612   1.393   0.670   5.326
 5224TIP3    H115613   1.304   0.638   5.334
 5224TIP3    H215614   1.440   0.628   5.398
 5225TIP3   OH215615   7.788   6.553   3.504
 5225TIP3    H115616   7.752   6.536   3.417
 5225TIP3    H215617   7.713   6.541   3.563
 5226TIP3   OH215618   4.570   4.366   1.802
 5226TIP3    H115619   4.643   4.424   1.824
 5226TIP3    H215620   4.511   4.371   1.877
 5227TIP3   OH215621   3.900   5.576   1.313
 5227TIP3    H115622   3.938   5.547   1.396
 5227TIP3    H215623   3.813   5.609   1.338
 5228TIP3   OH215624   3.190   6.148   6.033
 5228TIP3    H115625   3.145   6.064   6.046
 5228TIP3    H215626   3.143   6.209   6.090
 5229TIP3   OH215627   6.576   2.436   3.069
 5229TIP3    H115628   6.624   2.370   3.120
 5229TIP3    H215629   6.590   2.518   3.118
 5230TIP3   OH215630   5.928   0.315   4.281
 5230TIP3    H115631   5.922   0.401   4.239
 5230TIP3    H215632   5.855   0.313   4.342
 5231TIP3   OH215633   1.210   7.419   0.190
 5231TIP3    H115634   1.155   7.461   0.124
 5231TIP3    H215635   1.299   7.444   0.167
 5232TIP3   OH215636   2.006   1.585   6.437
 5232TIP3    H115637   2.079   1.629   6.480
 5232TIP3    H215638   2.008   1.496   6.472
 5233TIP3   OH215639   2.256   7.340   3.607
 5233TIP3    H115640   2.296   7.345   3.520
 5233TIP3    H215641   2.165   7.316   3.591
 5234TIP3   OH215642   2.992   3.382   3.318
 5234TIP3    H115643   2.984   3.475   3.339
 5234TIP3    H215644   2.993   3.338   3.404
 5235TIP3   OH215645   4.035   2.306   5.295
 5235TIP3    H115646   4.008   2.241   5.231
 5235TIP3    H215647   4.053   2.256   5.374
 5236TIP3   OH215648   4.427   3.982   2.246
 5236TIP3    H115649   4.518   4.008   2.252
 5236TIP3    H215650   4.429   3.896   2.204
 5237TIP3   OH215651   3.909   7.644   0.883
 5237TIP3    H115652   3.985   7.586   0.887
 5237TIP3    H215653   3.941   7.726   0.920
 5238TIP3   OH215654   2.349   0.348   3.728
 5238TIP3    H115655   2.377   0.331   3.818
 5238TIP3    H215656   2.359   0.265   3.684
 5239TIP3   OH215657   7.171   3.239   1.763
 5239TIP3    H115658   7.232   3.268   1.695
 5239TIP3    H215659   7.155   3.316   1.816
 5240TIP3   OH215660   2.716   4.910   3.917
 5240TIP3    H115661   2.797   4.861   3.929
 5240TIP3    H215662   2.713   4.971   3.991
 5241TIP3   OH215663   5.236   1.606   3.459
 5241TIP3    H115664   5.158   1.550   3.460
 5241TIP3    H215665   5.202   1.694   3.443
 5242TIP3   OH215666   2.634   1.482   4.035
 5242TIP3    H115667   2.710   1.433   4.004
 5242TIP3    H215668   2.670   1.554   4.086
 5243TIP3   OH215669   3.594   2.632   1.321
 5243TIP3    H115670   3.638   2.575   1.385
 5243TIP3    H215671   3.588   2.717   1.366
 5244TIP3   OH215672   3.535   0.516   3.607
 5244TIP3    H115673   3.457   0.472   3.640
 5244TIP3    H215674   3.568   0.459   3.538
 5245TIP3   OH215675   7.524   7.033   1.330
 5245TIP3    H115676   7.485   7.013   1.415
 5245TIP3    H215677   7.554   6.948   1.297
 5246TIP3   OH215678   6.538   4.339   3.872
 5246TIP3    H115679   6.490   4.395   3.931
 5246TIP3    H215680   6.542   4.254   3.916
 5247TIP3   OH215681   6.415   7.359   1.608
 5247TIP3    H115682   6.378   7.408   1.682
 5247TIP3    H215683   6.493   7.409   1.583
 5248TIP3   OH215684   0.865   5.293   3.853
 5248TIP3    H115685   0.788   5.343   3.827
 5248TIP3    H215686   0.923   5.295   3.777
 5249TIP3   OH215687   7.739   3.443   0.918
 5249TIP3    H115688   7.694   3.486   0.845
 5249TIP3    H215689   7.760   3.355   0.885
 5250TIP3   OH215690   4.016   6.848   0.400
 5250TIP3    H115691   3.926   6.881   0.409
 5250TIP3    H215692   4.018   6.770   0.455
 5251TIP3   OH215693   8.142   1.002   4.340
 5251TIP3    H115694   8.058   1.047   4.337
 5251TIP3    H215695   8.119   0.909   4.336
 5252TIP3   OH215696   6.203   0.493   2.599
 5252TIP3    H115697   6.279   0.460   2.551
 5252TIP3    H215698   6.133   0.498   2.534
 5253TIP3   OH215699   8.364   1.409   6.296
 5253TIP3    H115700   8.391   1.343   6.232
 5253TIP3    H215701   8.329   1.358   6.369
 5254TIP3   OH215702   6.891   3.996   6.283
 5254TIP3    H115703   6.891   4.073   6.227
 5254TIP3    H215704   6.883   4.031   6.372
 5255TIP3   OH215705   5.972   5.129   5.675
 5255TIP3    H115706   5.952   5.039   5.699
 5255TIP3    H215707   5.887   5.170   5.662
 5256TIP3   OH215708   5.856   6.929   5.515
 5256TIP3    H115709   5.806   6.847   5.517
 5256TIP3    H215710   5.860   6.952   5.423
 5257TIP3   OH215711   2.486   2.795   6.508
 5257TIP3    H115712   2.573   2.827   6.483
 5257TIP3    H215713   2.443   2.870   6.548
 5258TIP3   OH215714   4.080   6.936   4.890
 5258TIP3    H115715   4.054   6.845   4.878
 5258TIP3    H215716   4.002   6.987   4.866
 5259TIP3   OH215717   6.034   2.719   1.175
 5259TIP3    H115718   5.938   2.727   1.177
 5259TIP3    H215719   6.066   2.809   1.180
 5260TIP3   OH215720   2.899   4.184   5.445
 5260TIP3    H115721   2.970   4.245   5.465
 5260TIP3    H215722   2.854   4.223   5.371
 5261TIP3   OH215723   0.288   0.758   2.212
 5261TIP3    H115724   0.340   0.798   2.142
 5261TIP3    H215725   0.232   0.695   2.168
 5262TIP3   OH215726   4.780   4.658   6.725
 5262TIP3    H115727   4.790   4.750   6.751
 5262TIP3    H215728   4.761   4.661   6.632
 5263TIP3   OH215729   5.186   2.843   1.353
 5263TIP3    H115730   5.276   2.814   1.364
 5263TIP3    H215731   5.186   2.894   1.271
 5264TIP3   OH215732   7.647   2.635   3.220
 5264TIP3    H115733   7.691   2.557   3.186
 5264TIP3    H215734   7.708   2.707   3.202
 5265TIP3   OH215735   5.564   6.705   4.321
 5265TIP3    H115736   5.528   6.765   4.386
 5265TIP3    H215737   5.619   6.760   4.265
 5266TIP3   OH215738   3.814   0.098   0.686
 5266TIP3    H115739   3.762   0.175   0.708
 5266TIP3    H215740   3.749   0.030   0.668
 5267TIP3   OH215741   1.198   3.060   4.918
 5267TIP3    H115742   1.119   3.013   4.893
 5267TIP3    H215743   1.266   3.023   4.862
 5268TIP3   OH215744   0.779   3.588   2.857
 5268TIP3    H115745   0.809   3.556   2.772
 5268TIP3    H215746   0.858   3.626   2.897
 5269TIP3   OH215747   2.371   0.016   6.219
 5269TIP3    H115748   2.403   0.086   6.161
 5269TIP3    H215749   2.383   0.051   6.307
 5270TIP3   OH215750   8.227   5.514   4.875
 5270TIP3    H115751   8.199   5.505   4.784
 5270TIP3    H215752   8.276   5.596   4.878
 5271TIP3   OH215753   2.611   6.084   2.772
 5271TIP3    H115754   2.535   6.136   2.798
 5271TIP3    H215755   2.677   6.103   2.839
 5272TIP3   OH215756   0.112   5.599   1.856
 5272TIP3    H115757   0.107   5.687   1.892
 5272TIP3    H215758   0.187   5.559   1.899
 5273TIP3   OH215759   7.971   4.921   2.432
 5273TIP3    H115760   7.928   4.875   2.361
 5273TIP3    H215761   7.927   4.889   2.511
 5274TIP3   OH215762   2.342   5.567   3.851
 5274TIP3    H115763   2.313   5.571   3.760
 5274TIP3    H215764   2.329   5.476   3.877
 5275TIP3   OH215765   7.250   6.692  -0.024
 5275TIP3    H115766   7.236   6.729   0.063
 5275TIP3    H215767   7.241   6.598  -0.012
 5276TIP3   OH215768   1.820   4.996   5.673
 5276TIP3    H115769   1.750   5.058   5.692
 5276TIP3    H215770   1.775   4.921   5.633
 5277TIP3   OH215771   6.433   1.932   5.746
 5277TIP3    H115772   6.424   1.968   5.834
 5277TIP3    H215773   6.356   1.964   5.699
 5278TIP3   OH215774   7.321   2.776   2.635
 5278TIP3    H115775   7.273   2.754   2.715
 5278TIP3    H215776   7.337   2.692   2.592
 5279TIP3   OH215777   6.078   4.446   0.029
 5279TIP3    H115778   6.044   4.413   0.112
 5279TIP3    H215779   6.084   4.541   0.041
 5280TIP3   OH215780   0.322   6.961   6.425
 5280TIP3    H115781   0.325   6.911   6.343
 5280TIP3    H215782   0.229   6.969   6.444
 5281TIP3   OH215783   7.704   5.802   6.035
 5281TIP3    H115784   7.735   5.731   6.091
 5281TIP3    H215785   7.613   5.779   6.016
 5282TIP3   OH215786   5.254   4.707   4.303
 5282TIP3    H115787   5.195   4.763   4.354
 5282TIP3    H215788   5.214   4.620   4.307
 5283TIP3   OH215789   3.023   3.762   0.544
 5283TIP3    H115790   2.946   3.773   0.600
 5283TIP3    H215791   3.097   3.756   0.605
 5284TIP3   OH215792   8.127   2.672   6.054
 5284TIP3    H115793   8.104   2.659   5.962
 5284TIP3    H215794   8.044   2.660   6.101
 5285TIP3   OH215795   4.076   0.635   2.715
 5285TIP3    H115796   4.064   0.717   2.668
 5285TIP3    H215797   4.118   0.660   2.797
 5286TIP3   OH215798   1.173   0.864   3.595
 5286TIP3    H115799   1.209   0.953   3.599
 5286TIP3    H215800   1.221   0.816   3.662
 5287TIP3   OH215801   6.637   2.492   3.812
 5287TIP3    H115802   6.714   2.458   3.858
 5287TIP3    H215803   6.563   2.461   3.865
 5288TIP3   OH215804   4.882   2.897   0.830
 5288TIP3    H115805   4.907   2.820   0.880
 5288TIP3    H215806   4.958   2.956   0.837
 5289TIP3   OH215807   5.950   2.405   6.288
 5289TIP3    H115808   5.924   2.345   6.218
 5289TIP3    H215809   5.916   2.490   6.260
 5290TIP3   OH215810   3.679   3.024   5.800
 5290TIP3    H115811   3.734   3.040   5.722
 5290TIP3    H215812   3.628   2.947   5.777
 5291TIP3   OH215813   0.571   3.668   2.121
 5291TIP3    H115814   0.546   3.700   2.034
 5291TIP3    H215815   0.612   3.744   2.163
 5292TIP3   OH215816   7.481   5.344   1.688
 5292TIP3    H115817   7.436   5.361   1.770
 5292TIP3    H215818   7.414   5.306   1.631
 5293TIP3   OH215819   6.869   2.517   3.257
 5293TIP3    H115820   6.805   2.546   3.321
 5293TIP3    H215821   6.932   2.588   3.252
 5294TIP3   OH215822   3.717   0.070   4.849
 5294TIP3    H115823   3.691   0.148   4.800
 5294TIP3    H215824   3.634   0.031   4.877
 5295TIP3   OH215825   2.614   4.938   0.747
 5295TIP3    H115826   2.605   4.961   0.839
 5295TIP3    H215827   2.633   5.020   0.703
 5296TIP3   OH215828   0.293   4.774   1.099
 5296TIP3    H115829   0.375   4.824   1.097
 5296TIP3    H215830   0.314   4.695   1.149
 5297TIP3   OH215831   6.565   1.108   5.522
 5297TIP3    H115832   6.526   1.192   5.546
 5297TIP3    H215833   6.629   1.090   5.591
 5298TIP3   OH215834   3.946   1.209   5.600
 5298TIP3    H115835   4.006   1.151   5.648
 5298TIP3    H215836   3.931   1.282   5.660
 5299TIP3   OH215837   5.823   4.996   5.953
 5299TIP3    H115838   5.802   4.931   6.019
 5299TIP3    H215839   5.836   4.946   5.872
 5300TIP3   OH215840   4.978   6.063   1.131
 5300TIP3    H115841   5.053   6.096   1.182
 5300TIP3    H215842   4.962   6.131   1.066
 5301TIP3   OH215843   1.013   1.354   0.579
 5301TIP3    H115844   0.956   1.304   0.638
 5301TIP3    H215845   1.095   1.304   0.578
 5302TIP3   OH215846   5.210   4.037   2.999
 5302TIP3    H115847   5.234   4.084   3.079
 5302TIP3    H215848   5.153   4.099   2.952
 5303TIP3   OH215849   0.449   5.697   2.530
 5303TIP3    H115850   0.534   5.698   2.486
 5303TIP3    H215851   0.427   5.790   2.541
 5304TIP3   OH215852   3.113   5.887   6.057
 5304TIP3    H115853   3.202   5.858   6.038
 5304TIP3    H215854   3.058   5.813   6.033
 5305TIP3   OH215855   6.387   5.588   5.606
 5305TIP3    H115856   6.380   5.596   5.511
 5305TIP3    H215857   6.400   5.677   5.637
 5306TIP3   OH215858   5.096   6.206   4.776
 5306TIP3    H115859   5.157   6.196   4.849
 5306TIP3    H215860   5.143   6.262   4.714
 5307TIP3   OH215861   2.971   7.933   0.861
 5307TIP3    H115862   2.978   7.867   0.792
 5307TIP3    H215863   2.966   7.882   0.942
 5308TIP3   OH215864   7.367   4.887   0.638
 5308TIP3    H115865   7.458   4.864   0.660
 5308TIP3    H215866   7.375   4.968   0.588
 5309TIP3   OH215867   4.186   1.361   0.503
 5309TIP3    H115868   4.128   1.288   0.483
 5309TIP3    H215869   4.128   1.432   0.532
 5310TIP3   OH215870   7.940   2.486   6.488
 5310TIP3    H115871   7.925   2.513   6.578
 5310TIP3    H215872   8.028   2.448   6.488
 5311TIP3   OH215873   5.750   5.835   5.679
 5311TIP3    H115874   5.737   5.886   5.600
 5311TIP3    H215875   5.704   5.884   5.747
 5312TIP3   OH215876   2.924   5.079   1.356
 5312TIP3    H115877   2.851   5.082   1.419
 5312TIP3    H215878   2.997   5.119   1.402
 5313TIP3   OH215879   0.352   4.110   5.619
 5313TIP3    H115880   0.368   4.072   5.705
 5313TIP3    H215881   0.313   4.039   5.568
 5314TIP3   OH215882   2.958   5.035   5.129
 5314TIP3    H115883   2.959   5.052   5.223
 5314TIP3    H215884   2.997   5.114   5.090
 5315TIP3   OH215885   5.042   7.700   0.151
 5315TIP3    H115886   5.026   7.624   0.095
 5315TIP3    H215887   4.969   7.701   0.213
 5316TIP3   OH215888   2.769   2.014   3.769
 5316TIP3    H115889   2.831   2.067   3.718
 5316TIP3    H215890   2.817   1.992   3.849
 5317TIP3   OH215891   2.953   0.679   6.385
 5317TIP3    H115892   3.004   0.743   6.434
 5317TIP3    H215893   3.017   0.617   6.351
 5318TIP3   OH215894   8.214   6.288   6.360
 5318TIP3    H115895   8.257   6.339   6.429
 5318TIP3    H215896   8.195   6.352   6.292
 5319TIP3   OH215897   6.764   2.527   5.585
 5319TIP3    H115898   6.846   2.549   5.630
 5319TIP3    H215899   6.706   2.600   5.604
 5320TIP3   OH215900   3.931   1.027   0.696
 5320TIP3    H115901   3.991   0.983   0.756
 5320TIP3    H215902   3.852   1.042   0.747
 5321TIP3   OH215903   3.947   7.790   6.202
 5321TIP3    H115904   3.997   7.740   6.138
 5321TIP3    H215905   3.880   7.835   6.150
 5322TIP3   OH215906   0.372   3.691   3.845
 5322TIP3    H115907   0.338   3.778   3.869
 5322TIP3    H215908   0.312   3.630   3.887
 5323TIP3   OH215909   2.536   7.078   6.310
 5323TIP3    H115910   2.444   7.052   6.302
 5323TIP3    H215911   2.555   7.071   6.404
 5324TIP3   OH215912   5.946   6.867   5.830
 5324TIP3    H115913   5.984   6.937   5.778
 5324TIP3    H215914   5.989   6.788   5.799
 5325TIP3   OH215915   3.664   0.272   4.656
 5325TIP3    H115916   3.695   0.344   4.710
 5325TIP3    H215917   3.592   0.309   4.605
 5326TIP3   OH215918   5.212   3.785   1.112
 5326TIP3    H115919   5.186   3.876   1.095
 5326TIP3    H215920   5.242   3.785   1.203
 5327TIP3   OH215921   6.262   2.763   0.478
 5327TIP3    H115922   6.259   2.703   0.552
 5327TIP3    H215923   6.206   2.723   0.412
 5328TIP3   OH215924   0.693   0.734   4.071
 5328TIP3    H115925   0.757   0.670   4.040
 5328TIP3    H215926   0.665   0.700   4.157
 5329TIP3   OH215927   1.787   2.975   2.168
 5329TIP3    H115928   1.705   2.982   2.121
 5329TIP3    H215929   1.779   2.893   2.218
 5330TIP3   OH215930   0.032   1.794   0.770
 5330TIP3    H115931  -0.026   1.811   0.695
 5330TIP3    H215932   0.118   1.825   0.742
 5331TIP3   OH215933   7.495   4.601   0.535
 5331TIP3    H115934   7.524   4.588   0.626
 5331TIP3    H215935   7.458   4.517   0.509
 5332TIP3   OH215936   0.497   6.118   4.667
 5332TIP3    H115937   0.448   6.087   4.743
 5332TIP3    H215938   0.490   6.046   4.604
 5333TIP3   OH215939   1.280   1.512   4.501
 5333TIP3    H115940   1.287   1.592   4.553
 5333TIP3    H215941   1.262   1.543   4.412
 5334TIP3   OH215942   1.763   0.781   1.594
 5334TIP3    H115943   1.802   0.860   1.632
 5334TIP3    H215944   1.822   0.710   1.621
 5335TIP3   OH215945   6.922   1.403   1.114
 5335TIP3    H115946   7.016   1.419   1.112
 5335TIP3    H215947   6.909   1.351   1.194
 5336TIP3   OH215948   2.171   7.764   2.184
 5336TIP3    H115949   2.260   7.799   2.175
 5336TIP3    H215950   2.131   7.816   2.253
 5337TIP3   OH215951   5.636   6.289   4.770
 5337TIP3    H115952   5.645   6.298   4.675
 5337TIP3    H215953   5.707   6.230   4.795
 5338TIP3   OH215954   3.851   1.304   2.613
 5338TIP3    H115955   3.891   1.231   2.565
 5338TIP3    H215956   3.847   1.275   2.704
 5339TIP3   OH215957   0.481   1.320   4.385
 5339TIP3    H115958   0.566   1.355   4.360
 5339TIP3    H215959   0.445   1.286   4.303
 5340TIP3   OH215960   3.375   2.831   2.623
 5340TIP3    H115961   3.418   2.898   2.570
 5340TIP3    H215962   3.335   2.771   2.559
 5341TIP3   OH215963   7.657   3.116   6.471
 5341TIP3    H115964   7.569   3.080   6.476
 5341TIP3    H215965   7.649   3.193   6.415
 5342TIP3   OH215966   6.564   5.243   3.087
 5342TIP3    H115967   6.631   5.310   3.100
 5342TIP3    H215968   6.593   5.195   3.009
 5343TIP3   OH215969   5.304   0.246   4.340
 5343TIP3    H115970   5.228   0.302   4.350
 5343TIP3    H215971   5.272   0.170   4.292
 5344TIP3   OH215972   6.841   4.711   3.739
 5344TIP3    H115973   6.830   4.793   3.691
 5344TIP3    H215974   6.934   4.709   3.761
 5345TIP3   OH215975   0.779   1.839   2.868
 5345TIP3    H115976   0.858   1.788   2.881
 5345TIP3    H215977   0.786   1.874   2.780
 5346TIP3   OH215978   5.792   6.598   2.167
 5346TIP3    H115979   5.786   6.510   2.203
 5346TIP3    H215980   5.846   6.588   2.088
 5347TIP3   OH215981   0.468   4.904   5.074
 5347TIP3    H115982   0.483   4.930   5.165
 5347TIP3    H215983   0.446   4.986   5.029
 5348TIP3   OH215984   2.457   4.629   1.293
 5348TIP3    H115985   2.480   4.537   1.299
 5348TIP3    H215986   2.362   4.629   1.279
 5349TIP3   OH215987   6.428   4.441   2.822
 5349TIP3    H115988   6.467   4.390   2.752
 5349TIP3    H215989   6.333   4.431   2.810
 5350TIP3   OH215990   4.792   3.161   5.801
 5350TIP3    H115991   4.742   3.192   5.726
 5350TIP3    H215992   4.736   3.096   5.843
 5351TIP3   OH215993   4.173   1.860   3.046
 5351TIP3    H115994   4.170   1.861   2.950
 5351TIP3    H215995   4.266   1.863   3.068
 5352TIP3   OH215996   8.357   7.519   1.684
 5352TIP3    H115997   8.376   7.428   1.662
 5352TIP3    H215998   8.304   7.514   1.763
 5353TIP3   OH215999   2.449   2.502   2.911
 5353TIP3    H116000   2.442   2.438   2.982
 5353TIP3    H216001   2.416   2.584   2.949
 5354TIP3   OH216002   7.211   4.942   3.594
 5354TIP3    H116003   7.182   4.879   3.528
 5354TIP3    H216004   7.145   5.011   3.591
 5355TIP3   OH216005   5.608   3.199   5.125
 5355TIP3    H116006   5.572   3.203   5.036
 5355TIP3    H216007   5.531   3.196   5.182
 5356TIP3   OH216008   3.007   4.005   0.705
 5356TIP3    H116009   3.087   3.953   0.697
 5356TIP3    H216010   2.942   3.944   0.740
 5357TIP3   OH216011   7.177   7.307   5.187
 5357TIP3    H116012   7.229   7.364   5.245
 5357TIP3    H216013   7.186   7.347   5.101
 5358TIP3   OH216014   4.350   1.996   2.837
 5358TIP3    H116015   4.351   2.080   2.791
 5358TIP3    H216016   4.366   1.931   2.768
 5359TIP3   OH216017   2.433   4.219   0.228
 5359TIP3    H116018   2.465   4.157   0.293
 5359TIP3    H216019   2.503   4.284   0.220
 5360TIP3   OH216020   2.372   4.186   1.094
 5360TIP3    H116021   2.368   4.278   1.067
 5360TIP3    H216022   2.309   4.180   1.166
 5361TIP3   OH216023   4.528   1.077   2.825
 5361TIP3    H116024   4.471   1.111   2.756
 5361TIP3    H216025   4.506   0.984   2.830
 5362TIP3   OH216026   4.117   4.835   3.986
 5362TIP3    H116027   4.050   4.891   4.026
 5362TIP3    H216028   4.197   4.889   3.987
 5363TIP3   OH216029   7.081   7.339   4.891
 5363TIP3    H116030   7.122   7.274   4.834
 5363TIP3    H216031   7.089   7.421   4.844
 5364TIP3   OH216032   3.272   0.824   3.064
 5364TIP3    H116033   3.296   0.781   3.146
 5364TIP3    H216034   3.191   0.782   3.037
 5365TIP3   OH216035   3.786   4.231   5.137
 5365TIP3    H116036   3.790   4.137   5.153
 5365TIP3    H216037   3.701   4.257   5.174
 5366TIP3   OH216038   4.522   3.701   0.680
 5366TIP3    H116039   4.481   3.677   0.597
 5366TIP3    H216040   4.470   3.656   0.746
 5367TIP3   OH216041   6.742   0.096   2.889
 5367TIP3    H116042   6.724   0.123   2.799
 5367TIP3    H216043   6.820   0.041   2.883
 5368TIP3   OH216044   5.881   4.139   3.212
 5368TIP3    H116045   5.883   4.195   3.134
 5368TIP3    H216046   5.933   4.063   3.188
 5369TIP3   OH216047   2.006   6.074   5.178
 5369TIP3    H116048   1.955   6.142   5.134
 5369TIP3    H216049   1.979   5.993   5.135
 5370TIP3   OH216050   5.757   0.106   3.469
 5370TIP3    H116051   5.731   0.188   3.511
 5370TIP3    H216052   5.684   0.047   3.484
 5371TIP3   OH216053   5.568   3.849   1.098
 5371TIP3    H116054   5.633   3.908   1.136
 5371TIP3    H216055   5.541   3.892   1.017
 5372TIP3   OH216056   5.582   4.379   3.532
 5372TIP3    H116057   5.637   4.368   3.609
 5372TIP3    H216058   5.612   4.313   3.470
 5373TIP3   OH216059   0.373   4.123   2.970
 5373TIP3    H116060   0.451   4.077   2.940
 5373TIP3    H216061   0.306   4.055   2.979
 5374TIP3   OH216062   0.859   3.700   6.177
 5374TIP3    H116063   0.791   3.639   6.149
 5374TIP3    H216064   0.938   3.670   6.133
 5375TIP3   OH216065   3.855   1.814   0.672
 5375TIP3    H116066   3.774   1.780   0.710
 5375TIP3    H216067   3.848   1.794   0.578
 5376TIP3   OH216068   5.384   4.899   0.028
 5376TIP3    H116069   5.394   4.893   0.123
 5376TIP3    H216070   5.459   4.852  -0.008
 5377TIP3   OH216071   4.863   5.295   6.250
 5377TIP3    H116072   4.783   5.319   6.202
 5377TIP3    H216073   4.934   5.335   6.200
 5378TIP3   OH216074   1.916   7.360   4.800
 5378TIP3    H116075   1.911   7.411   4.718
 5378TIP3    H216076   1.824   7.344   4.823
 5379TIP3   OH216077   3.729   1.605   2.872
 5379TIP3    H116078   3.670   1.586   2.799
 5379TIP3    H216079   3.807   1.643   2.831
 5380TIP3   OH216080   2.723   7.858   4.668
 5380TIP3    H116081   2.716   7.857   4.763
 5380TIP3    H216082   2.733   7.950   4.645
 5381TIP3   OH216083   4.072   2.914   0.308
 5381TIP3    H116084   4.140   2.935   0.244
 5381TIP3    H216085   4.020   2.994   0.315
 5382TIP3   OH216086   4.376   0.960   2.357
 5382TIP3    H116087   4.359   0.880   2.407
 5382TIP3    H216088   4.297   0.974   2.306
 5383TIP3   OH216089   6.203   3.187   4.924
 5383TIP3    H116090   6.179   3.270   4.966
 5383TIP3    H216091   6.163   3.120   4.979
 5384TIP3   OH216092   6.108   4.060   0.253
 5384TIP3    H116093   6.140   3.971   0.243
 5384TIP3    H216094   6.179   4.115   0.219
 5385TIP3   OH216095   2.197   5.783   3.198
 5385TIP3    H116096   2.230   5.734   3.273
 5385TIP3    H216097   2.222   5.730   3.122
 5386TIP3   OH216098   3.570   1.016   1.765
 5386TIP3    H116099   3.557   0.963   1.686
 5386TIP3    H216100   3.581   1.105   1.732
 5387TIP3   OH216101   2.614   5.634   2.224
 5387TIP3    H116102   2.584   5.724   2.236
 5387TIP3    H216103   2.564   5.583   2.288
 5388TIP3   OH216104   5.260   7.245   4.654
 5388TIP3    H116105   5.238   7.153   4.639
 5388TIP3    H216106   5.337   7.261   4.598
 5389TIP3   OH216107   6.644   0.775   0.478
 5389TIP3    H116108   6.669   0.683   0.488
 5389TIP3    H216109   6.703   0.809   0.411
 5390TIP3   OH216110   5.591   1.028   0.956
 5390TIP3    H116111   5.639   0.976   0.892
 5390TIP3    H216112   5.502   1.031   0.921
 5391TIP3   OH216113   2.795   6.597   6.344
 5391TIP3    H116114   2.856   6.576   6.414
 5391TIP3    H216115   2.808   6.691   6.328
 5392TIP3   OH216116   6.099   7.114   5.802
 5392TIP3    H116117   6.156   7.045   5.768
 5392TIP3    H216118   6.137   7.195   5.768
 5393TIP3   OH216119   1.701   7.581   6.850
 5393TIP3    H116120   1.726   7.624   6.768
 5393TIP3    H216121   1.780   7.535   6.878
 5394TIP3   OH216122   5.843   3.376   3.859
 5394TIP3    H116123   5.790   3.407   3.933
 5394TIP3    H216124   5.815   3.429   3.785
 5395TIP3   OH216125   1.049   3.555   1.282
 5395TIP3    H116126   1.077   3.621   1.219
 5395TIP3    H216127   0.995   3.604   1.345
 5396TIP3   OH216128   6.193   5.201   6.739
 5396TIP3    H116129   6.225   5.184   6.827
 5396TIP3    H216130   6.147   5.285   6.746
 5397TIP3   OH216131   3.247   1.473   0.549
 5397TIP3    H116132   3.298   1.475   0.468
 5397TIP3    H216133   3.156   1.479   0.520
 5398TIP3   OH216134   7.583   0.953   6.636
 5398TIP3    H116135   7.639   1.030   6.648
 5398TIP3    H216136   7.592   0.931   6.543
 5399TIP3   OH216137   5.524   5.037   2.630
 5399TIP3    H116138   5.460   5.037   2.559
 5399TIP3    H216139   5.605   5.067   2.590
 5400TIP3   OH216140   0.854   4.134   2.524
 5400TIP3    H116141   0.862   4.146   2.430
 5400TIP3    H216142   0.813   4.215   2.555
 5401TIP3   OH216143   2.840   0.432   0.307
 5401TIP3    H116144   2.745   0.424   0.295
 5401TIP3    H216145   2.875   0.349   0.277
 5402TIP3   OH216146   6.208   2.586   0.688
 5402TIP3    H116147   6.185   2.581   0.781
 5402TIP3    H216148   6.303   2.574   0.686
 5403TIP3   OH216149   5.460   2.435   2.082
 5403TIP3    H116150   5.515   2.385   2.022
 5403TIP3    H216151   5.490   2.526   2.073
 5404TIP3   OH216152   2.874   2.703   2.016
 5404TIP3    H116153   2.842   2.652   1.941
 5404TIP3    H216154   2.967   2.716   1.998
 5405TIP3   OH216155   0.420   1.005   6.471
 5405TIP3    H116156   0.415   1.077   6.408
 5405TIP3    H216157   0.445   0.929   6.419
 5406TIP3   OH216158   4.941   7.184   4.249
 5406TIP3    H116159   4.917   7.200   4.158
 5406TIP3    H216160   4.930   7.269   4.293
 5407TIP3   OH216161   4.514   1.101   4.237
 5407TIP3    H116162   4.445   1.084   4.173
 5407TIP3    H216163   4.574   1.162   4.194
 5408TIP3   OH216164   0.632   7.838   2.744
 5408TIP3    H116165   0.604   7.819   2.655
 5408TIP3    H216166   0.680   7.760   2.771
 5409TIP3   OH216167   6.898   2.363   0.488
 5409TIP3    H116168   6.885   2.447   0.445
 5409TIP3    H216169   6.990   2.343   0.474
 5410TIP3   OH216170   4.091   4.770   2.780
 5410TIP3    H116171   4.164   4.755   2.720
 5410TIP3    H216172   4.133   4.800   2.861
 5411TIP3   OH216173   3.417   2.243   3.941
 5411TIP3    H116174   3.359   2.193   3.998
 5411TIP3    H216175   3.502   2.239   3.984
 5412TIP3   OH216176   2.176   3.025   0.221
 5412TIP3    H116177   2.186   3.075   0.140
 5412TIP3    H216178   2.156   3.092   0.287
 5413TIP3   OH216179   6.051   6.428   6.542
 5413TIP3    H116180   5.971   6.458   6.585
 5413TIP3    H216181   6.020   6.381   6.464
 5414TIP3   OH216182   3.296   3.796   4.714
 5414TIP3    H116183   3.256   3.866   4.663
 5414TIP3    H216184   3.322   3.731   4.649
 5415TIP3   OH216185   2.336   2.139   0.863
 5415TIP3    H116186   2.355   2.065   0.920
 5415TIP3    H216187   2.421   2.182   0.851
 5416TIP3   OH216188   8.281   3.798   5.272
 5416TIP3    H116189   8.202   3.852   5.276
 5416TIP3    H216190   8.297   3.786   5.178
 5417TIP3   OH216191   2.878   1.586   4.914
 5417TIP3    H116192   2.811   1.614   4.852
 5417TIP3    H216193   2.837   1.595   5.000
 5418TIP3   OH216194   1.406   7.284   4.598
 5418TIP3    H116195   1.412   7.366   4.548
 5418TIP3    H216196   1.447   7.304   4.682
 5419TIP3   OH216197   0.422   0.850   1.970
 5419TIP3    H116198   0.367   0.809   1.903
 5419TIP3    H216199   0.508   0.809   1.959
 5420TIP3   OH216200   5.965   4.935   2.719
 5420TIP3    H116201   6.004   4.929   2.806
 5420TIP3    H216202   5.901   5.006   2.727
 5421TIP3   OH216203   0.554   4.908   5.375
 5421TIP3    H116204   0.472   4.941   5.412
 5421TIP3    H216205   0.605   4.880   5.451
 5422TIP3   OH216206   1.443   0.344   1.109
 5422TIP3    H116207   1.459   0.350   1.203
 5422TIP3    H216208   1.530   0.341   1.069
 5423TIP3   OH216209   0.557   1.857   0.535
 5423TIP3    H116210   0.484   1.918   0.524
 5423TIP3    H216211   0.517   1.770   0.532
 5424TIP3   OH216212   2.240   0.032   3.718
 5424TIP3    H116213   2.332   0.007   3.727
 5424TIP3    H216214   2.208  -0.021   3.646
 5425TIP3   OH216215   1.726   4.897   3.535
 5425TIP3    H116216   1.656   4.962   3.543
 5425TIP3    H216217   1.753   4.878   3.625
 5426TIP3   OH216218   1.004   3.870   6.364
 5426TIP3    H116219   0.972   3.835   6.447
 5426TIP3    H216220   0.926   3.880   6.309
 5427TIP3   OH216221   4.095   1.358   6.646
 5427TIP3    H116222   4.044   1.368   6.726
 5427TIP3    H216223   4.056   1.283   6.602
 5428TIP3   OH216224   1.680   4.209   4.160
 5428TIP3    H116225   1.764   4.252   4.175
 5428TIP3    H216226   1.627   4.276   4.116
 5429TIP3   OH216227   6.025   6.873   3.577
 5429TIP3    H116228   6.120   6.869   3.563
 5429TIP3    H216229   6.013   6.941   3.643
 5430TIP3   OH216230   8.018   5.414   2.284
 5430TIP3    H116231   8.029   5.321   2.265
 5430TIP3    H216232   8.046   5.459   2.205
 5431TIP3   OH216233   1.294   4.861   6.552
 5431TIP3    H116234   1.312   4.768   6.564
 5431TIP3    H216235   1.369   4.905   6.592
 5432TIP3   OH216236   4.522   2.330   1.732
 5432TIP3    H116237   4.577   2.402   1.760
 5432TIP3    H216238   4.579   2.253   1.734
 5433TIP3   OH216239   4.799   7.727   1.115
 5433TIP3    H116240   4.856   7.655   1.089
 5433TIP3    H216241   4.777   7.708   1.207
 5434TIP3   OH216242   5.691   3.665   6.192
 5434TIP3    H116243   5.711   3.648   6.100
 5434TIP3    H216244   5.772   3.642   6.239
 5435TIP3   OH216245   2.600   5.134   6.081
 5435TIP3    H116246   2.673   5.191   6.105
 5435TIP3    H216247   2.570   5.098   6.165
 5436TIP3   OH216248   8.088   0.445   3.141
 5436TIP3    H116249   8.168   0.425   3.190
 5436TIP3    H216250   8.078   0.540   3.147
 5437TIP3   OH216251   4.840   2.971   0.574
 5437TIP3    H116252   4.816   2.891   0.527
 5437TIP3    H216253   4.858   2.943   0.663
 5438TIP3   OH216254   7.407   7.622   4.047
 5438TIP3    H116255   7.352   7.668   3.984
 5438TIP3    H216256   7.346   7.591   4.114
 5439TIP3   OH216257   1.437   0.336   0.032
 5439TIP3    H116258   1.507   0.271   0.038
 5439TIP3    H216259   1.472   0.406  -0.022
 5440TIP3   OH216260   2.461   4.563   0.465
 5440TIP3    H116261   2.380   4.525   0.431
 5440TIP3    H216262   2.433   4.645   0.506
 5441TIP3   OH216263   2.556   5.566   6.557
 5441TIP3    H116264   2.564   5.472   6.569
 5441TIP3    H216265   2.563   5.602   6.646
 5442TIP3   OH216266   0.390   4.523   2.216
 5442TIP3    H116267   0.411   4.565   2.299
 5442TIP3    H216268   0.335   4.448   2.240
 5443TIP3   OH216269   0.267   7.252   6.401
 5443TIP3    H116270   0.328   7.179   6.415
 5443TIP3    H216271   0.318   7.330   6.421
 5444TIP3   OH216272   6.339   7.802   1.399
 5444TIP3    H116273   6.355   7.792   1.492
 5444TIP3    H216274   6.404   7.865   1.370
 5445TIP3   OH216275   8.098   0.047   4.435
 5445TIP3    H116276   8.112  -0.011   4.360
 5445TIP3    H216277   8.129  -0.003   4.510
 5446TIP3   OH216278   4.649   0.537   3.769
 5446TIP3    H116279   4.628   0.617   3.816
 5446TIP3    H216280   4.707   0.565   3.698
 5447TIP3   OH216281   0.178   6.572   3.850
 5447TIP3    H116282   0.245   6.639   3.856
 5447TIP3    H216283   0.106   6.615   3.803
 5448TIP3   OH216284   4.603   6.921   0.372
 5448TIP3    H116285   4.543   6.850   0.394
 5448TIP3    H216286   4.573   6.995   0.424
 5449TIP3   OH216287   6.257   4.340   1.340
 5449TIP3    H116288   6.308   4.309   1.415
 5449TIP3    H216289   6.171   4.362   1.377
 5450TIP3   OH216290   1.761   7.007   2.823
 5450TIP3    H116291   1.837   7.059   2.796
 5450TIP3    H216292   1.785   6.917   2.803
 5451TIP3   OH216293   0.887   7.707   1.890
 5451TIP3    H116294   0.820   7.682   1.954
 5451TIP3    H216295   0.964   7.728   1.942
 5452TIP3   OH216296   2.159   7.452   2.164
 5452TIP3    H116297   2.112   7.499   2.233
 5452TIP3    H216298   2.156   7.360   2.192
 5453TIP3   OH216299   4.648   4.512   3.761
 5453TIP3    H116300   4.600   4.456   3.700
 5453TIP3    H216301   4.706   4.453   3.808
 5454TIP3   OH216302   5.952   4.875   0.393
 5454TIP3    H116303   5.930   4.967   0.376
 5454TIP3    H216304   5.974   4.840   0.307
 5455TIP3   OH216305   3.519   0.961   2.077
 5455TIP3    H116306   3.505   0.994   1.988
 5455TIP3    H216307   3.573   0.882   2.065
 5456TIP3   OH216308   6.977   7.352   1.817
 5456TIP3    H116309   6.901   7.404   1.841
 5456TIP3    H216310   6.996   7.300   1.895
 5457TIP3   OH216311   4.568   4.782   1.060
 5457TIP3    H116312   4.549   4.724   0.986
 5457TIP3    H216313   4.636   4.736   1.109
 5458TIP3   OH216314   4.909   0.998   0.970
 5458TIP3    H116315   4.841   0.930   0.964
 5458TIP3    H216316   4.892   1.054   0.894
 5459TIP3   OH216317   4.138   6.090   2.719
 5459TIP3    H116318   4.202   6.031   2.679
 5459TIP3    H216319   4.067   6.033   2.748
 5460TIP3   OH216320   2.467   0.411   3.131
 5460TIP3    H116321   2.464   0.506   3.130
 5460TIP3    H216322   2.433   0.386   3.217
 5461TIP3   OH216323   6.865   7.303   4.020
 5461TIP3    H116324   6.826   7.304   4.108
 5461TIP3    H216325   6.889   7.212   4.006
 5462TIP3   OH216326   4.083   1.571   5.591
 5462TIP3    H116327   4.163   1.588   5.641
 5462TIP3    H216328   4.014   1.568   5.658
 5463TIP3   OH216329   1.797   4.931   1.948
 5463TIP3    H116330   1.709   4.968   1.957
 5463TIP3    H216331   1.839   4.949   2.033
 5464TIP3   OH216332   8.395   5.324   3.183
 5464TIP3    H116333   8.338   5.339   3.108
 5464TIP3    H216334   8.369   5.239   3.216
 5465TIP3   OH216335   0.894   4.504   3.798
 5465TIP3    H116336   0.896   4.471   3.708
 5465TIP3    H216337   0.839   4.582   3.793
 5466TIP3   OH216338   6.920   7.814   4.088
 5466TIP3    H116339   6.954   7.902   4.104
 5466TIP3    H216340   6.839   7.828   4.040
 5467TIP3   OH216341   3.382   0.703   1.808
 5467TIP3    H116342   3.390   0.624   1.756
 5467TIP3    H216343   3.293   0.701   1.843
 5468TIP3   OH216344   6.558   5.566   2.921
 5468TIP3    H116345   6.617   5.500   2.885
 5468TIP3    H216346   6.587   5.648   2.882
 5469TIP3   OH216347   3.176   1.649   2.843
 5469TIP3    H116348   3.084   1.628   2.858
 5469TIP3    H216349   3.175   1.738   2.807
 5470TIP3   OH216350   6.505   0.927   0.656
 5470TIP3    H116351   6.566   0.893   0.591
 5470TIP3    H216352   6.509   0.865   0.728
 5471TIP3   OH216353   2.171   5.889   6.337
 5471TIP3    H116354   2.160   5.959   6.401
 5471TIP3    H216355   2.113   5.913   6.264
 5472TIP3   OH216356   2.243   1.653   4.393
 5472TIP3    H116357   2.276   1.563   4.399
 5472TIP3    H216358   2.268   1.694   4.475
 5473TIP3   OH216359   4.332   0.791   2.562
 5473TIP3    H116360   4.243   0.828   2.563
 5473TIP3    H216361   4.355   0.784   2.655
 5474TIP3   OH216362   4.852   2.733   1.107
 5474TIP3    H116363   4.945   2.710   1.108
 5474TIP3    H216364   4.845   2.807   1.166
 5475TIP3   OH216365   2.786   5.176   2.557
 5475TIP3    H116366   2.826   5.185   2.471
 5475TIP3    H216367   2.692   5.183   2.541
 5476TIP3   OH216368   7.458   1.077   4.853
 5476TIP3    H116369   7.363   1.091   4.848
 5476TIP3    H216370   7.477   1.017   4.781
 5477TIP3   OH216371   4.218   3.628   0.243
 5477TIP3    H116372   4.244   3.572   0.170
 5477TIP3    H216373   4.144   3.679   0.209
 5478TIP3   OH216374   1.633   4.940   3.191
 5478TIP3    H116375   1.598   4.879   3.126
 5478TIP3    H216376   1.573   5.015   3.189
 5479TIP3   OH216377   1.772   5.715   4.427
 5479TIP3    H116378   1.707   5.658   4.469
 5479TIP3    H216379   1.857   5.678   4.452
 5480TIP3   OH216380   5.907   1.931   2.863
 5480TIP3    H116381   5.909   1.864   2.794
 5480TIP3    H216382   5.824   1.977   2.849
 5481TIP3   OH216383   7.742   1.443   6.270
 5481TIP3    H116384   7.673   1.379   6.254
 5481TIP3    H216385   7.809   1.395   6.318
 5482TIP3   OH216386   4.418   7.355   0.651
 5482TIP3    H116387   4.452   7.435   0.691
 5482TIP3    H216388   4.335   7.381   0.610
 5483TIP3   OH216389   3.929   6.653   6.081
 5483TIP3    H116390   3.915   6.565   6.048
 5483TIP3    H216391   3.893   6.653   6.169
 5484TIP3   OH216392   2.875   6.904   1.998
 5484TIP3    H116393   2.850   6.973   2.060
 5484TIP3    H216394   2.923   6.949   1.929
 5485TIP3   OH216395   5.540   4.306   3.096
 5485TIP3    H116396   5.577   4.378   3.147
 5485TIP3    H216397   5.539   4.338   3.006
 5486TIP3   OH216398   2.447   0.830   1.366
 5486TIP3    H116399   2.423   0.787   1.448
 5486TIP3    H216400   2.497   0.763   1.318
 5487TIP3   OH216401   1.499   7.529   5.946
 5487TIP3    H116402   1.498   7.595   6.016
 5487TIP3    H216403   1.579   7.479   5.961
 5488TIP3   OH216404   7.423   3.472   1.304
 5488TIP3    H116405   7.399   3.478   1.211
 5488TIP3    H216406   7.481   3.396   1.309
 5489TIP3   OH216407   1.307   7.067   1.336
 5489TIP3    H116408   1.394   7.100   1.316
 5489TIP3    H216409   1.296   6.990   1.280
 5490TIP3   OH216410   7.582   4.742   0.323
 5490TIP3    H116411   7.535   4.717   0.403
 5490TIP3    H216412   7.669   4.768   0.354
 5491TIP3   OH216413   7.874   1.080   2.127
 5491TIP3    H116414   7.818   1.040   2.193
 5491TIP3    H216415   7.961   1.044   2.143
 5492TIP3   OH216416   7.646   6.510   6.674
 5492TIP3    H116417   7.683   6.434   6.720
 5492TIP3    H216418   7.576   6.474   6.620
 5493TIP3   OH216419   5.483   2.808   0.768
 5493TIP3    H116420   5.567   2.792   0.810
 5493TIP3    H216421   5.505   2.840   0.681
 5494TIP3   OH216422   4.963   0.458   1.440
 5494TIP3    H116423   5.032   0.520   1.417
 5494TIP3    H216424   4.898   0.511   1.487
 5495TIP3   OH216425   1.391   5.942   1.007
 5495TIP3    H116426   1.354   5.862   0.970
 5495TIP3    H216427   1.318   5.981   1.055
 5496TIP3   OH216428   1.922   0.980   4.387
 5496TIP3    H116429   1.953   1.032   4.313
 5496TIP3    H216430   1.831   0.959   4.364
 5497TIP3   OH216431   4.477   3.138   5.800
 5497TIP3    H116432   4.400   3.092   5.833
 5497TIP3    H216433   4.510   3.187   5.876
 5498TIP3   OH216434   5.522   0.590   4.877
 5498TIP3    H116435   5.517   0.570   4.971
 5498TIP3    H216436   5.487   0.678   4.869
 5499TIP3   OH216437   5.720   5.315   0.269
 5499TIP3    H116438   5.732   5.408   0.253
 5499TIP3    H216439   5.655   5.288   0.204
 5500TIP3   OH216440   5.741   3.461   0.350
 5500TIP3    H116441   5.755   3.372   0.318
 5500TIP3    H216442   5.665   3.492   0.300
 5501TIP3   OH216443   6.810   4.817   4.061
 5501TIP3    H116444   6.801   4.887   3.997
 5501TIP3    H216445   6.902   4.818   4.085
 5502TIP3   OH216446   6.640   2.037   2.072
 5502TIP3    H116447   6.696   2.019   1.996
 5502TIP3    H216448   6.555   2.060   2.033
 5503TIP3   OH216449   1.133   5.722   5.402
 5503TIP3    H116450   1.164   5.796   5.454
 5503TIP3    H216451   1.213   5.682   5.368
 5504TIP3   OH216452   8.209   1.735   2.619
 5504TIP3    H116453   8.135   1.744   2.558
 5504TIP3    H216454   8.178   1.673   2.685
 5505TIP3   OH216455   4.147   4.547   1.502
 5505TIP3    H116456   4.111   4.634   1.515
 5505TIP3    H216457   4.242   4.558   1.511
 5506TIP3   OH216458   5.745   3.710   1.323
 5506TIP3    H116459   5.722   3.714   1.416
 5506TIP3    H216460   5.661   3.719   1.277
 5507TIP3   OH216461   0.667   0.392   0.968
 5507TIP3    H116462   0.715   0.407   1.049
 5507TIP3    H216463   0.577   0.378   0.995
 5508TIP3   OH216464   7.712   2.157   5.183
 5508TIP3    H116465   7.647   2.157   5.253
 5508TIP3    H216466   7.796   2.152   5.228
 5509TIP3   OH216467   8.085   2.938   5.861
 5509TIP3    H116468   8.144   3.012   5.854
 5509TIP3    H216469   8.041   2.934   5.776
 5510TIP3   OH216470   2.264   3.544   2.864
 5510TIP3    H116471   2.212   3.575   2.938
 5510TIP3    H216472   2.258   3.614   2.799
 5511TIP3   OH216473   6.785   5.760   2.327
 5511TIP3    H116474   6.821   5.848   2.340
 5511TIP3    H216475   6.699   5.774   2.288
 5512TIP3   OH216476   2.676   1.233   1.752
 5512TIP3    H116477   2.706   1.258   1.840
 5512TIP3    H216478   2.751   1.249   1.695
 5513TIP3   OH216479   3.583   4.718   6.199
 5513TIP3    H116480   3.678   4.720   6.183
 5513TIP3    H216481   3.574   4.728   6.293
 5514TIP3   OH216482   6.599   6.549   4.074
 5514TIP3    H116483   6.605   6.642   4.099
 5514TIP3    H216484   6.510   6.538   4.042
 5515TIP3   OH216485   8.246   4.180   0.654
 5515TIP3    H116486   8.190   4.118   0.609
 5515TIP3    H216487   8.292   4.227   0.585
 5516TIP3   OH216488   8.125   0.781   0.277
 5516TIP3    H116489   8.035   0.772   0.307
 5516TIP3    H216490   8.118   0.790   0.182
 5517TIP3   OH216491   2.980   2.598   5.559
 5517TIP3    H116492   3.051   2.657   5.534
 5517TIP3    H216493   3.021   2.534   5.616
 5518TIP3   OH216494   1.613   5.867   2.461
 5518TIP3    H116495   1.588   5.945   2.511
 5518TIP3    H216496   1.560   5.871   2.381
 5519TIP3   OH216497   7.501   4.439   5.904
 5519TIP3    H116498   7.552   4.455   5.825
 5519TIP3    H216499   7.432   4.506   5.903
 5520TIP3   OH216500   6.129   6.592   3.791
 5520TIP3    H116501   6.179   6.541   3.727
 5520TIP3    H216502   6.038   6.564   3.778
 5521TIP3   OH216503   3.204   3.358   6.355
 5521TIP3    H116504   3.274   3.297   6.333
 5521TIP3    H216505   3.124   3.316   6.323
 5522TIP3   OH216506   3.179   0.787   3.493
 5522TIP3    H116507   3.120   0.714   3.506
 5522TIP3    H216508   3.217   0.804   3.579
 5523TIP3   OH216509   1.708   1.827   5.507
 5523TIP3    H116510   1.797   1.805   5.533
 5523TIP3    H216511   1.661   1.744   5.510
 5524TIP3   OH216512   3.240   0.395   4.149
 5524TIP3    H116513   3.211   0.453   4.079
 5524TIP3    H216514   3.257   0.312   4.106
 5525TIP3   OH216515   0.766   5.078   6.373
 5525TIP3    H116516   0.706   5.151   6.389
 5525TIP3    H216517   0.825   5.078   6.448
 5526TIP3   OH216518   3.036   2.777   5.156
 5526TIP3    H116519   3.078   2.713   5.213
 5526TIP3    H216520   3.030   2.857   5.209
 5527TIP3   OH216521   4.318   0.066   6.741
 5527TIP3    H116522   4.370   0.123   6.685
 5527TIP3    H216523   4.317   0.110   6.826
 5528TIP3   OH216524   4.466   2.895   4.803
 5528TIP3    H116525   4.502   2.838   4.735
 5528TIP3    H216526   4.374   2.906   4.780
 5529TIP3   OH216527   3.691   3.108   0.302
 5529TIP3    H116528   3.700   3.167   0.377
 5529TIP3    H216529   3.745   3.032   0.325
 5530TIP3   OH216530   8.217   1.400   4.492
 5530TIP3    H116531   8.310   1.410   4.472
 5530TIP3    H216532   8.176   1.385   4.406
 5531TIP3   OH216533   0.543   1.383   3.149
 5531TIP3    H116534   0.561   1.328   3.073
 5531TIP3    H216535   0.502   1.324   3.212
 5532TIP3   OH216536   5.876   3.029   2.806
 5532TIP3    H116537   5.919   2.989   2.730
 5532TIP3    H216538   5.924   2.997   2.881
 5533TIP3   OH216539   4.634   6.987   6.501
 5533TIP3    H116540   4.623   6.952   6.413
 5533TIP3    H216541   4.728   7.006   6.507
 5534TIP3   OH216542   4.405   2.683   2.046
 5534TIP3    H116543   4.400   2.617   1.977
 5534TIP3    H216544   4.343   2.653   2.112
 5535TIP3   OH216545   6.946   4.456   1.891
 5535TIP3    H116546   6.909   4.481   1.806
 5535TIP3    H216547   7.039   4.444   1.873
 5536TIP3   OH216548   1.229   5.986   3.098
 5536TIP3    H116549   1.192   6.073   3.086
 5536TIP3    H216550   1.220   5.969   3.192
 5537TIP3   OH216551   2.829   0.648   2.723
 5537TIP3    H116552   2.904   0.699   2.751
 5537TIP3    H216553   2.758   0.712   2.716
 5538TIP3   OH216554   8.130   0.384   6.447
 5538TIP3    H116555   8.151   0.295   6.475
 5538TIP3    H216556   8.174   0.394   6.363
 5539TIP3   OH216557   4.652   0.251   2.536
 5539TIP3    H116558   4.678   0.341   2.554
 5539TIP3    H216559   4.632   0.214   2.623
 5540TIP3   OH216560   7.848   7.609   1.142
 5540TIP3    H116561   7.942   7.626   1.133
 5540TIP3    H216562   7.828   7.632   1.233
 5541TIP3   OH216563   4.710   5.675   3.568
 5541TIP3    H116564   4.711   5.657   3.662
 5541TIP3    H216565   4.729   5.590   3.528
 5542TIP3   OH216566   6.226   2.081   0.808
 5542TIP3    H116567   6.247   2.170   0.780
 5542TIP3    H216568   6.308   2.047   0.844
 5543TIP3   OH216569   7.737   7.065   6.798
 5543TIP3    H116570   7.792   6.993   6.768
 5543TIP3    H216571   7.771   7.087   6.884
 5544TIP3   OH216572   7.370   0.719   5.232
 5544TIP3    H116573   7.391   0.811   5.217
 5544TIP3    H216574   7.287   0.721   5.280
 5545TIP3   OH216575   0.219   4.743   4.011
 5545TIP3    H116576   0.230   4.650   4.035
 5545TIP3    H216577   0.307   4.779   4.016
 5546TIP3   OH216578   0.013   4.814   0.823
 5546TIP3    H116579   0.047   4.757   0.753
 5546TIP3    H216580  -0.059   4.861   0.782
 5547TIP3   OH216581   3.665   7.747   3.100
 5547TIP3    H116582   3.631   7.709   3.019
 5547TIP3    H216583   3.593   7.740   3.162
 5548TIP3   OH216584   1.357   6.159   0.810
 5548TIP3    H116585   1.421   6.106   0.858
 5548TIP3    H216586   1.285   6.099   0.792
 5549TIP3   OH216587   5.407   5.956   0.522
 5549TIP3    H116588   5.325   6.005   0.527
 5549TIP3    H216589   5.448   5.967   0.608
 5550TIP3   OH216590   3.693   1.819   3.714
 5550TIP3    H116591   3.654   1.902   3.685
 5550TIP3    H216592   3.778   1.844   3.752
 5551TIP3   OH216593   1.107   5.566   0.479
 5551TIP3    H116594   1.073   5.635   0.422
 5551TIP3    H216595   1.053   5.489   0.460
 5552TIP3   OH216596   5.727   5.012   6.362
 5552TIP3    H116597   5.802   5.070   6.378
 5552TIP3    H216598   5.676   5.017   6.443
 5553TIP3   OH216599   3.279   6.394   3.851
 5553TIP3    H116600   3.228   6.374   3.772
 5553TIP3    H216601   3.262   6.486   3.869
 5554TIP3   OH216602   5.977   3.636   0.243
 5554TIP3    H116603   5.926   3.704   0.288
 5554TIP3    H216604   5.964   3.558   0.296
 5555TIP3   OH216605   1.729   2.636   3.999
 5555TIP3    H116606   1.821   2.616   3.981
 5555TIP3    H216607   1.716   2.723   3.963
 5556TIP3   OH216608   4.333   3.572   2.636
 5556TIP3    H116609   4.364   3.649   2.682
 5556TIP3    H216610   4.251   3.548   2.681
 5557TIP3   OH216611   8.214   0.502   4.965
 5557TIP3    H116612   8.200   0.424   4.910
 5557TIP3    H216613   8.162   0.485   5.043
 5558TIP3   OH216614   7.455   3.941   5.998
 5558TIP3    H116615   7.493   4.028   5.986
 5558TIP3    H216616   7.407   3.947   6.081
 5559TIP3   OH216617   2.405   7.159   3.745
 5559TIP3    H116618   2.367   7.072   3.742
 5559TIP3    H216619   2.336   7.217   3.713
 5560TIP3   OH216620   1.818   2.206   1.096
 5560TIP3    H116621   1.752   2.267   1.127
 5560TIP3    H216622   1.868   2.182   1.174
 5561TIP3   OH216623   6.771   5.279   4.206
 5561TIP3    H116624   6.861   5.302   4.228
 5561TIP3    H216625   6.769   5.183   4.212
 5562TIP3   OH216626   6.137   3.328   4.148
 5562TIP3    H116627   6.133   3.267   4.222
 5562TIP3    H216628   6.147   3.272   4.071
 5563TIP3   OH216629   7.636   5.528   1.555
 5563TIP3    H116630   7.615   5.458   1.617
 5563TIP3    H216631   7.628   5.488   1.469
 5564TIP3   OH216632   4.327   2.638   2.930
 5564TIP3    H116633   4.373   2.568   2.885
 5564TIP3    H216634   4.371   2.718   2.901
 5565TIP3   OH216635   1.035   2.827   4.882
 5565TIP3    H116636   1.086   2.746   4.878
 5565TIP3    H216637   0.958   2.810   4.828
 5566TIP3   OH216638   6.450   4.845   6.120
 5566TIP3    H116639   6.508   4.866   6.193
 5566TIP3    H216640   6.404   4.766   6.148
 5567TIP3   OH216641   3.810   2.063   0.112
 5567TIP3    H116642   3.857   2.128   0.060
 5567TIP3    H216643   3.843   1.979   0.080
 5568TIP3   OH216644   7.001   4.959   5.612
 5568TIP3    H116645   7.095   4.973   5.611
 5568TIP3    H216646   6.989   4.876   5.565
 5569TIP3   OH216647   8.364   0.742   3.091
 5569TIP3    H116648   8.289   0.785   3.132
 5569TIP3    H216649   8.327   0.684   3.026
 5570TIP3   OH216650   7.683   0.751   6.800
 5570TIP3    H116651   7.708   0.696   6.726
 5570TIP3    H216652   7.645   0.829   6.760
 5571TIP3   OH216653   7.995   6.702   3.327
 5571TIP3    H116654   8.075   6.751   3.346
 5571TIP3    H216655   7.948   6.699   3.411
 5572TIP3   OH216656   2.922   5.065   0.124
 5572TIP3    H116657   3.001   5.101   0.083
 5572TIP3    H216658   2.930   4.970   0.111
 5573TIP3   OH216659   4.351   4.549   6.696
 5573TIP3    H116660   4.368   4.641   6.717
 5573TIP3    H216661   4.333   4.549   6.602
 5574TIP3   OH216662   1.120   0.412   5.280
 5574TIP3    H116663   1.085   0.335   5.326
 5574TIP3    H216664   1.116   0.482   5.345
 5575TIP3   OH216665   5.152   4.748   5.059
 5575TIP3    H116666   5.191   4.834   5.047
 5575TIP3    H216667   5.225   4.692   5.084
 5576TIP3   OH216668   1.672   7.575   2.247
 5576TIP3    H116669   1.728   7.637   2.294
 5576TIP3    H216670   1.714   7.490   2.259
 5577TIP3   OH216671   3.745   1.680   2.570
 5577TIP3    H116672   3.683   1.752   2.565
 5577TIP3    H216673   3.701   1.606   2.528
 5578TIP3   OH216674   0.157   3.315   5.520
 5578TIP3    H116675   0.085   3.377   5.509
 5578TIP3    H216676   0.183   3.293   5.430
 5579TIP3   OH216677   8.014   7.121   3.309
 5579TIP3    H116678   7.934   7.173   3.306
 5579TIP3    H216679   8.006   7.069   3.389
 5580TIP3   OH216680   0.464   7.863   6.252
 5580TIP3    H116681   0.487   7.820   6.335
 5580TIP3    H216682   0.548   7.887   6.213
 5581TIP3   OH216683   7.980   5.272   4.632
 5581TIP3    H116684   8.045   5.260   4.562
 5581TIP3    H216685   8.032   5.273   4.712
 5582TIP3   OH216686   6.116   1.963   2.472
 5582TIP3    H116687   6.156   1.891   2.520
 5582TIP3    H216688   6.068   2.013   2.538
 5583TIP3   OH216689   5.395   1.286   2.789
 5583TIP3    H116690   5.365   1.228   2.860
 5583TIP3    H216691   5.332   1.272   2.719
 5584TIP3   OH216692   1.873   7.573   0.307
 5584TIP3    H116693   1.798   7.515   0.315
 5584TIP3    H216694   1.835   7.660   0.296
 5585TIP3   OH216695   1.647   2.183   3.963
 5585TIP3    H116696   1.669   2.113   3.901
 5585TIP3    H216697   1.731   2.209   4.000
 5586TIP3   OH216698   1.372   2.620   6.650
 5586TIP3    H116699   1.282   2.638   6.625
 5586TIP3    H216700   1.368   2.593   6.741
 5587TIP3   OH216701   2.519   6.024   2.019
 5587TIP3    H116702   2.487   6.035   2.109
 5587TIP3    H216703   2.491   6.104   1.974
 5588TIP3   OH216704   1.277   5.406   0.936
 5588TIP3    H116705   1.227   5.335   0.977
 5588TIP3    H216706   1.315   5.366   0.858
 5589TIP3   OH216707   3.458   5.141   3.940
 5589TIP3    H116708   3.547   5.164   3.912
 5589TIP3    H216709   3.410   5.224   3.936
 5590TIP3   OH216710   8.106   3.998   2.214
 5590TIP3    H116711   8.017   3.984   2.245
 5590TIP3    H216712   8.124   4.090   2.236
 5591TIP3   OH216713   5.024   1.157   5.915
 5591TIP3    H116714   5.052   1.227   5.973
 5591TIP3    H216715   5.105   1.126   5.874
 5592TIP3   OH216716   2.581   7.549   6.225
 5592TIP3    H116717   2.563   7.468   6.176
 5592TIP3    H216718   2.595   7.520   6.315
 5593TIP3   OH216719   1.502   4.522   4.973
 5593TIP3    H116720   1.568   4.554   4.911
 5593TIP3    H216721   1.466   4.602   5.012
 5594TIP3   OH216722   5.934   0.958   2.286
 5594TIP3    H116723   5.993   0.948   2.361
 5594TIP3    H216724   5.988   0.998   2.218
 5595TIP3   OH216725   4.322   5.157   2.178
 5595TIP3    H116726   4.286   5.244   2.190
 5595TIP3    H216727   4.389   5.149   2.247
 5596TIP3   OH216728   3.607   0.846   4.562
 5596TIP3    H116729   3.604   0.919   4.623
 5596TIP3    H216730   3.586   0.769   4.614
 5597TIP3   OH216731   5.767   0.251   1.590
 5597TIP3    H116732   5.674   0.228   1.587
 5597TIP3    H216733   5.799   0.230   1.502
 5598TIP3   OH216734   2.445   2.650   5.048
 5598TIP3    H116735   2.510   2.690   5.106
 5598TIP3    H216736   2.364   2.698   5.067
 5599TIP3   OH216737   6.647   5.262   5.721
 5599TIP3    H116738   6.580   5.227   5.661
 5599TIP3    H216739   6.631   5.217   5.804
 5600TIP3   OH216740   4.704   6.758   2.223
 5600TIP3    H116741   4.666   6.714   2.148
 5600TIP3    H216742   4.652   6.837   2.234
 5601TIP3   OH216743   5.998   2.002   1.011
 5601TIP3    H116744   6.021   2.085   1.053
 5601TIP3    H216745   6.071   1.984   0.952
 5602TIP3   OH216746   3.210   4.628   4.963
 5602TIP3    H116747   3.118   4.627   4.939
 5602TIP3    H216748   3.211   4.601   5.055
 5603TIP3   OH216749   5.529   0.113   5.250
 5603TIP3    H116750   5.477   0.085   5.325
 5603TIP3    H216751   5.553   0.031   5.206
 5604TIP3   OH216752   6.251   0.889   3.505
 5604TIP3    H116753   6.273   0.979   3.483
 5604TIP3    H216754   6.200   0.857   3.430
 5605TIP3   OH216755   1.749   6.362   5.768
 5605TIP3    H116756   1.732   6.413   5.847
 5605TIP3    H216757   1.799   6.421   5.711
 5606TIP3   OH216758   6.909   3.544   6.008
 5606TIP3    H116759   6.951   3.497   5.935
 5606TIP3    H216760   6.955   3.627   6.013
 5607TIP3   OH216761   4.424   3.624   1.123
 5607TIP3    H116762   4.367   3.681   1.174
 5607TIP3    H216763   4.442   3.550   1.181
 5608TIP3   OH216764   2.647   4.914   1.513
 5608TIP3    H116765   2.704   4.929   1.588
 5608TIP3    H216766   2.573   4.865   1.548
 5609TIP3   OH216767   5.474   7.849   2.744
 5609TIP3    H116768   5.545   7.913   2.749
 5609TIP3    H216769   5.516   7.767   2.720
 5610TIP3   OH216770   7.938   2.551   1.747
 5610TIP3    H116771   7.871   2.592   1.692
 5610TIP3    H216772   7.908   2.565   1.836
 5611TIP3   OH216773   5.006   4.828   0.642
 5611TIP3    H116774   4.927   4.843   0.591
 5611TIP3    H216775   5.077   4.832   0.579
 5612TIP3   OH216776   4.335   2.220   2.640
 5612TIP3    H116777   4.399   2.239   2.572
 5612TIP3    H216778   4.273   2.160   2.599
 5613TIP3   OH216779   0.302   0.694   4.708
 5613TIP3    H116780   0.316   0.638   4.784
 5613TIP3    H216781   0.209   0.686   4.689
 5614TIP3   OH216782   0.575   1.028   4.422
 5614TIP3    H116783   0.505   1.044   4.359
 5614TIP3    H216784   0.604   1.116   4.448
 5615TIP3   OH216785   4.604   4.056   4.608
 5615TIP3    H116786   4.639   4.008   4.533
 5615TIP3    H216787   4.659   4.027   4.682
 5616TIP3   OH216788   0.044   5.142   5.819
 5616TIP3    H116789   0.054   5.115   5.910
 5616TIP3    H216790   0.044   5.059   5.770
 5617TIP3   OH216791   7.531   5.728   6.390
 5617TIP3    H116792   7.593   5.675   6.339
 5617TIP3    H216793   7.526   5.684   6.475
 5618TIP3   OH216794   7.378   7.746   3.273
 5618TIP3    H116795   7.439   7.702   3.332
 5618TIP3    H216796   7.293   7.707   3.293
 5619TIP3   OH216797   6.643   7.512   1.556
 5619TIP3    H116798   6.727   7.555   1.567
 5619TIP3    H216799   6.610   7.544   1.472
 5620TIP3   OH216800   2.337  -0.012   0.900
 5620TIP3    H116801   2.353   0.036   0.818
 5620TIP3    H216802   2.360   0.049   0.969
 5621TIP3   OH216803   6.278   1.509   5.641
 5621TIP3    H116804   6.354   1.475   5.593
 5621TIP3    H216805   6.314   1.536   5.726
 5622TIP3   OH216806   7.319   2.607   3.407
 5622TIP3    H116807   7.298   2.545   3.338
 5622TIP3    H216808   7.414   2.596   3.421
 5623TIP3   OH216809   7.775   7.331   1.137
 5623TIP3    H116810   7.798   7.422   1.155
 5623TIP3    H216811   7.855   7.293   1.099
 5624TIP3   OH216812   0.841   1.796   1.470
 5624TIP3    H116813   0.819   1.848   1.547
 5624TIP3    H216814   0.757   1.770   1.434
 5625TIP3   OH216815   1.153   2.340   4.332
 5625TIP3    H116816   1.074   2.386   4.360
 5625TIP3    H216817   1.224   2.401   4.351
 5626TIP3   OH216818   5.558   3.267   1.828
 5626TIP3    H116819   5.493   3.267   1.899
 5626TIP3    H216820   5.511   3.230   1.753
 5627TIP3   OH216821   1.993   3.720   5.958
 5627TIP3    H116822   2.080   3.727   5.997
 5627TIP3    H216823   1.962   3.810   5.952
 5628TIP3   OH216824   0.436   2.157   3.188
 5628TIP3    H116825   0.482   2.186   3.268
 5628TIP3    H216826   0.395   2.075   3.213
 5629TIP3   OH216827   3.324   2.359   5.839
 5629TIP3    H116828   3.403   2.357   5.892
 5629TIP3    H216829   3.260   2.305   5.887
 5630TIP3   OH216830   2.676   3.282   2.716
 5630TIP3    H116831   2.592   3.323   2.699
 5630TIP3    H216832   2.723   3.286   2.632
 5631TIP3   OH216833   0.460   1.081   2.223
 5631TIP3    H116834   0.453   1.086   2.318
 5631TIP3    H216835   0.374   1.108   2.191
 5632TIP3   OH216836   7.639   7.316   4.368
 5632TIP3    H116837   7.646   7.240   4.425
 5632TIP3    H216838   7.554   7.354   4.390
 5633TIP3   OH216839   7.106   6.938   5.299
 5633TIP3    H116840   7.148   6.957   5.215
 5633TIP3    H216841   7.136   7.007   5.358
 5634TIP3   OH216842   5.201   7.875   1.797
 5634TIP3    H116843   5.223   7.849   1.708
 5634TIP3    H216844   5.189   7.793   1.844
 5635TIP3   OH216845   6.577   4.802   6.395
 5635TIP3    H116846   6.540   4.760   6.472
 5635TIP3    H216847   6.664   4.763   6.385
 5636TIP3   OH216848   8.109   6.568   0.192
 5636TIP3    H116849   8.161   6.507   0.140
 5636TIP3    H216850   8.072   6.628   0.128
 5637TIP3   OH216851  -0.007   5.571   2.167
 5637TIP3    H116852   0.089   5.564   2.161
 5637TIP3    H216853  -0.026   5.561   2.260
 5638TIP3   OH216854   7.102   3.320   2.614
 5638TIP3    H116855   7.037   3.369   2.665
 5638TIP3    H216856   7.079   3.338   2.523
 5639TIP3   OH216857   5.816   6.122   5.625
 5639TIP3    H116858   5.832   6.169   5.543
 5639TIP3    H216859   5.904   6.107   5.661
 5640TIP3   OH216860   6.457   4.382   1.610
 5640TIP3    H116861   6.507   4.304   1.635
 5640TIP3    H216862   6.433   4.422   1.694
 5641TIP3   OH216863   2.296   4.766   6.465
 5641TIP3    H116864   2.234   4.703   6.428
 5641TIP3    H216865   2.281   4.761   6.560
 5642TIP3   OH216866   0.874   5.482   2.698
 5642TIP3    H116867   0.810   5.415   2.722
 5642TIP3    H216868   0.867   5.549   2.766
 5643TIP3   OH216869   0.754   4.512   5.445
 5643TIP3    H116870   0.838   4.545   5.478
 5643TIP3    H216871   0.729   4.572   5.376
 5644TIP3   OH216872   3.513   4.109   2.470
 5644TIP3    H116873   3.588   4.162   2.498
 5644TIP3    H216874   3.458   4.171   2.420
 5645TIP3   OH216875   2.798   2.816   0.140
 5645TIP3    H116876   2.892   2.799   0.148
 5645TIP3    H216877   2.758   2.729   0.142
 5646TIP3   OH216878   7.091   3.834   1.471
 5646TIP3    H116879   7.160   3.770   1.486
 5646TIP3    H216880   7.108   3.867   1.383
 5647TIP3   OH216881   8.164   1.545   1.944
 5647TIP3    H116882   8.122   1.627   1.916
 5647TIP3    H216883   8.149   1.542   2.039
 5648TIP3   OH216884   4.084   2.196   1.606
 5648TIP3    H116885   4.176   2.221   1.592
 5648TIP3    H216886   4.044   2.203   1.519
 5649TIP3   OH216887   5.716   6.744   2.907
 5649TIP3    H116888   5.760   6.756   2.991
 5649TIP3    H216889   5.747   6.818   2.854
 5650TIP3   OH216890   6.792   0.739   5.848
 5650TIP3    H116891   6.866   0.775   5.896
 5650TIP3    H216892   6.789   0.647   5.873
 5651TIP3   OH216893   1.174   4.725   1.185
 5651TIP3    H116894   1.245   4.766   1.135
 5651TIP3    H216895   1.118   4.685   1.119
 5652TIP3   OH216896   0.111   3.809   0.963
 5652TIP3    H116897   0.205   3.804   0.977
 5652TIP3    H216898   0.102   3.858   0.881
 5653TIP3   OH216899   4.024   7.612   1.707
 5653TIP3    H116900   4.086   7.672   1.750
 5653TIP3    H216901   3.992   7.557   1.778
 5654TIP3   OH216902   8.061   7.477   2.462
 5654TIP3    H116903   8.093   7.566   2.446
 5654TIP3    H216904   8.060   7.436   2.376
 5655TIP3   OH216905   8.278   4.521   2.662
 5655TIP3    H116906   8.263   4.540   2.754
 5655TIP3    H216907   8.337   4.590   2.632
 5656TIP3   OH216908   5.936   3.220   6.463
 5656TIP3    H116909   5.890   3.299   6.491
 5656TIP3    H216910   5.985   3.192   6.540
 5657TIP3   OH216911   2.238   6.658   0.905
 5657TIP3    H116912   2.266   6.568   0.888
 5657TIP3    H216913   2.233   6.699   0.819
 5658TIP3   OH216914   4.573   1.845   0.583
 5658TIP3    H116915   4.545   1.901   0.511
 5658TIP3    H216916   4.654   1.805   0.553
 5659TIP3   OH216917   7.410   3.363   2.184
 5659TIP3    H116918   7.331   3.322   2.220
 5659TIP3    H216919   7.394   3.457   2.192
 5660TIP3   OH216920   3.632   0.859   1.143
 5660TIP3    H116921   3.633   0.776   1.190
 5660TIP3    H216922   3.611   0.924   1.210
 5661TIP3   OH216923   2.101   3.667   3.038
 5661TIP3    H116924   2.015   3.645   3.075
 5661TIP3    H216925   2.148   3.707   3.111
 5662TIP3   OH216926   4.292   1.085   0.618
 5662TIP3    H116927   4.381   1.112   0.641
 5662TIP3    H216928   4.236   1.129   0.682
 5663TIP3   OH216929   3.495   0.289   0.077
 5663TIP3    H116930   3.411   0.256   0.046
 5663TIP3    H216931   3.548   0.211   0.092
 5664TIP3   OH216932   0.154   2.264   0.372
 5664TIP3    H116933   0.114   2.248   0.287
 5664TIP3    H216934   0.092   2.228   0.435
 5665TIP3   OH216935   3.926   0.218   5.006
 5665TIP3    H116936   3.835   0.236   5.027
 5665TIP3    H216937   3.957   0.297   4.962
 5666TIP3   OH216938   0.210   6.004   6.237
 5666TIP3    H116939   0.124   6.016   6.197
 5666TIP3    H216940   0.263   5.961   6.170
 5667TIP3   OH216941   1.440   0.270   4.117
 5667TIP3    H116942   1.417   0.362   4.126
 5667TIP3    H216943   1.511   0.269   4.052
 5668TIP3   OH216944   4.425   4.119   1.655
 5668TIP3    H116945   4.386   4.171   1.585
 5668TIP3    H216946   4.519   4.131   1.645
 5669TIP3   OH216947   3.547   5.944   3.665
 5669TIP3    H116948   3.521   6.032   3.693
 5669TIP3    H216949   3.499   5.885   3.723
 5670TIP3   OH216950   2.873   0.374   2.758
 5670TIP3    H116951   2.815   0.356   2.832
 5670TIP3    H216952   2.873   0.469   2.749
 5671TIP3   OH216953   3.997   7.061   4.345
 5671TIP3    H116954   4.062   7.114   4.300
 5671TIP3    H216955   3.995   7.095   4.435
 5672TIP3   OH216956   4.203   1.710   2.309
 5672TIP3    H116957   4.187   1.789   2.258
 5672TIP3    H216958   4.118   1.667   2.315
 5673TIP3   OH216959   4.868   2.932   5.462
 5673TIP3    H116960   4.960   2.925   5.438
 5673TIP3    H216961   4.833   2.843   5.450
 5674TIP3   OH216962   0.664   1.092   3.844
 5674TIP3    H116963   0.657   1.117   3.936
 5674TIP3    H216964   0.731   1.151   3.808
 5675TIP3   OH216965   5.467   6.732   0.689
 5675TIP3    H116966   5.458   6.681   0.609
 5675TIP3    H216967   5.535   6.797   0.669
 5676TIP3   OH216968   5.123   1.987   4.683
 5676TIP3    H116969   5.217   2.005   4.673
 5676TIP3    H216970   5.105   1.917   4.621
 5677TIP3   OH216971   1.436   0.808   1.484
 5677TIP3    H116972   1.385   0.868   1.430
 5677TIP3    H216973   1.380   0.789   1.559
 5678TIP3   OH216974   7.837   6.943   6.249
 5678TIP3    H116975   7.789   6.983   6.177
 5678TIP3    H216976   7.816   6.998   6.325
 5679TIP3   OH216977   1.198   1.078   2.691
 5679TIP3    H116978   1.214   1.120   2.607
 5679TIP3    H216979   1.256   1.123   2.752
 5680TIP3   OH216980   6.024   4.671   1.509
 5680TIP3    H116981   6.024   4.578   1.488
 5680TIP3    H216982   5.947   4.684   1.565
 5681TIP3   OH216983   3.141   5.673   1.345
 5681TIP3    H116984   3.115   5.711   1.428
 5681TIP3    H216985   3.082   5.598   1.333
 5682TIP3   OH216986   4.008   0.464   4.631
 5682TIP3    H116987   4.023   0.375   4.600
 5682TIP3    H216988   4.003   0.456   4.726
 5683TIP3   OH216989   2.525   7.449   5.780
 5683TIP3    H116990   2.482   7.363   5.776
 5683TIP3    H216991   2.618   7.429   5.787
 5684TIP3   OH216992   6.336   7.539   5.521
 5684TIP3    H116993   6.310   7.620   5.564
 5684TIP3    H216994   6.269   7.476   5.546
 5685TIP3   OH216995   5.220   6.801   4.968
 5685TIP3    H116996   5.310   6.782   4.994
 5685TIP3    H216997   5.167   6.737   5.015
 5686TIP3   OH216998   1.708   1.230   2.815
 5686TIP3    H116999   1.760   1.310   2.812
 5686TIP3    H217000   1.749   1.172   2.751
 5687TIP3   OH217001   4.271   5.989   0.738
 5687TIP3    H117002   4.349   5.942   0.709
 5687TIP3    H217003   4.244   6.039   0.660
 5688TIP3   OH217004   2.895   6.226   5.107
 5688TIP3    H117005   2.847   6.228   5.025
 5688TIP3    H217006   2.842   6.172   5.165
 5689TIP3   OH217007   7.756   5.539   2.421
 5689TIP3    H117008   7.819   5.539   2.493
 5689TIP3    H217009   7.791   5.476   2.358
 5690TIP3   OH217010   4.040   6.490   3.078
 5690TIP3    H117011   4.059   6.410   3.030
 5690TIP3    H217012   3.967   6.530   3.031
 5691TIP3   OH217013   6.480   0.571   1.568
 5691TIP3    H117014   6.556   0.558   1.624
 5691TIP3    H217015   6.484   0.499   1.505
 5692TIP3   OH217016   6.417   5.517   0.089
 5692TIP3    H117017   6.446   5.598   0.133
 5692TIP3    H217018   6.420   5.538  -0.004
 5693TIP3   OH217019   0.521   0.774   6.334
 5693TIP3    H117020   0.523   0.694   6.387
 5693TIP3    H217021   0.602   0.771   6.282
 5694TIP3   OH217022   0.118   1.596   0.017
 5694TIP3    H117023   0.059   1.565   0.087
 5694TIP3    H217024   0.201   1.612   0.061
 5695TIP3   OH217025   5.792   1.851   3.347
 5695TIP3    H117026   5.706   1.810   3.350
 5695TIP3    H217027   5.782   1.924   3.285
 5696TIP3   OH217028   0.190   6.203   1.524
 5696TIP3    H117029   0.197   6.269   1.456
 5696TIP3    H217030   0.101   6.169   1.516
 5697TIP3   OH217031   5.987   3.686   5.708
 5697TIP3    H117032   6.046   3.738   5.763
 5697TIP3    H217033   6.037   3.671   5.627
 5698TIP3   OH217034   2.873   5.763   0.945
 5698TIP3    H117035   2.795   5.816   0.928
 5698TIP3    H217036   2.921   5.763   0.862
 5699TIP3   OH217037   5.103   7.491   2.698
 5699TIP3    H117038   5.068   7.579   2.685
 5699TIP3    H217039   5.026   7.436   2.712
 5700TIP3   OH217040   5.847   0.055   4.994
 5700TIP3    H117041   5.753   0.034   5.001
 5700TIP3    H217042   5.885  -0.022   4.953
 5701TIP3   OH217043   4.834   7.296   6.065
 5701TIP3    H117044   4.823   7.389   6.044
 5701TIP3    H217045   4.758   7.254   6.025
 5702TIP3   OH217046   2.996   5.540   1.725
 5702TIP3    H117047   3.088   5.529   1.748
 5702TIP3    H217048   2.953   5.562   1.807
 5703TIP3   OH217049   6.980   0.926   1.697
 5703TIP3    H117050   7.059   0.968   1.731
 5703TIP3    H217051   6.918   0.929   1.771
 5704TIP3   OH217052   2.245   0.289   6.574
 5704TIP3    H117053   2.204   0.375   6.581
 5704TIP3    H217054   2.190   0.231   6.627
 5705TIP3   OH217055   2.071   5.449   6.475
 5705TIP3    H117056   2.050   5.359   6.497
 5705TIP3    H217057   2.099   5.488   6.558
 5706TIP3   OH217058   4.066   4.654   1.799
 5706TIP3    H117059   4.076   4.578   1.742
 5706TIP3    H217060   4.062   4.617   1.887
 5707TIP3   OH217061   5.131   6.700   3.233
 5707TIP3    H117062   5.123   6.796   3.235
 5707TIP3    H217063   5.210   6.684   3.180
 5708TIP3   OH217064   7.088   6.828   1.593
 5708TIP3    H117065   7.117   6.737   1.601
 5708TIP3    H217066   7.138   6.875   1.660
 5709TIP3   OH217067   1.676   0.345   0.889
 5709TIP3    H117068   1.613   0.381   0.825
 5709TIP3    H217069   1.743   0.304   0.835
 5710TIP3   OH217070   0.419   7.153   2.588
 5710TIP3    H117071   0.356   7.166   2.659
 5710TIP3    H217072   0.452   7.064   2.601
 5711TIP3   OH217073   0.085   2.498   4.227
 5711TIP3    H117074   0.055   2.423   4.278
 5711TIP3    H217075   0.007   2.528   4.181
 5712TIP3   OH217076   2.574   5.850   4.899
 5712TIP3    H117077   2.603   5.785   4.964
 5712TIP3    H217078   2.569   5.801   4.817
 5713TIP3   OH217079   5.051   2.726   2.111
 5713TIP3    H117080   4.999   2.806   2.105
 5713TIP3    H217081   5.102   2.723   2.030
 5714TIP3   OH217082   5.325   1.633   5.316
 5714TIP3    H117083   5.293   1.654   5.404
 5714TIP3    H217084   5.396   1.695   5.301
 5715TIP3   OH217085   6.160   3.422   6.140
 5715TIP3    H117086   6.222   3.492   6.123
 5715TIP3    H217087   6.207   3.342   6.117
 5716TIP3   OH217088   6.089   0.418   6.166
 5716TIP3    H117089   6.106   0.409   6.073
 5716TIP3    H217090   6.173   0.400   6.208
 5717TIP3   OH217091   2.807   4.038   1.672
 5717TIP3    H117092   2.860   4.046   1.593
 5717TIP3    H217093   2.829   4.115   1.724
 5718TIP3   OH217094   2.893   0.960   4.084
 5718TIP3    H117095   2.983   0.984   4.104
 5718TIP3    H217096   2.871   1.012   4.007
 5719TIP3   OH217097   4.115   3.071   1.128
 5719TIP3    H117098   4.154   3.061   1.041
 5719TIP3    H217099   4.039   3.127   1.114
 5720TIP3   OH217100   7.559   3.617   0.806
 5720TIP3    H117101   7.588   3.707   0.821
 5720TIP3    H217102   7.464   3.620   0.815
 5721TIP3   OH217103   2.571   7.019   5.029
 5721TIP3    H117104   2.477   7.017   5.014
 5721TIP3    H217105   2.593   7.112   5.035
 5722TIP3   OH217106   4.023   7.748   3.021
 5722TIP3    H117107   4.004   7.795   3.102
 5722TIP3    H217108   3.987   7.660   3.034
 5723TIP3   OH217109   2.581   4.775   5.219
 5723TIP3    H117110   2.657   4.779   5.161
 5723TIP3    H217111   2.583   4.687   5.255
 5724TIP3   OH217112   3.953   1.942   3.210
 5724TIP3    H117113   3.886   1.874   3.219
 5724TIP3    H217114   4.016   1.905   3.149
 5725TIP3   OH217115   3.090   4.269   0.759
 5725TIP3    H117116   3.166   4.264   0.701
 5725TIP3    H217117   3.040   4.189   0.740
 5726TIP3   OH217118   6.860   2.134   6.420
 5726TIP3    H117119   6.837   2.063   6.360
 5726TIP3    H217120   6.775   2.170   6.448
 5727TIP3   OH217121   2.398   6.801   3.268
 5727TIP3    H117122   2.316   6.847   3.249
 5727TIP3    H217123   2.417   6.823   3.359
 5728TIP3   OH217124   1.966   0.254   4.266
 5728TIP3    H117125   2.048   0.216   4.296
 5728TIP3    H217126   1.912   0.179   4.242
 5729TIP3   OH217127   8.149   3.088  -0.017
 5729TIP3    H117128   8.081   3.032   0.020
 5729TIP3    H217129   8.125   3.176   0.011
 5730TIP3   OH217130   7.879   5.044   5.781
 5730TIP3    H117131   7.791   5.010   5.792
 5730TIP3    H217132   7.875   5.101   5.704
 5731TIP3   OH217133   5.294   1.219   6.270
 5731TIP3    H117134   5.264   1.139   6.312
 5731TIP3    H217135   5.385   1.229   6.298
 5732TIP3   OH217136   7.675   0.988   1.404
 5732TIP3    H117137   7.607   0.984   1.471
 5732TIP3    H217138   7.742   0.928   1.435
 5733TIP3   OH217139   2.127   3.340   1.321
 5733TIP3    H117140   2.109   3.312   1.411
 5733TIP3    H217141   2.142   3.259   1.273
 5734TIP3   OH217142   2.233   5.864   2.763
 5734TIP3    H117143   2.196   5.925   2.699
 5734TIP3    H217144   2.261   5.789   2.711
 5735TIP3   OH217145   5.117   5.669   4.311
 5735TIP3    H117146   5.033   5.675   4.357
 5735TIP3    H217147   5.116   5.744   4.251
 5736TIP3   OH217148   4.010   1.540   2.458
 5736TIP3    H117149   3.955   1.616   2.477
 5736TIP3    H217150   3.951   1.477   2.418
 5737TIP3   OH217151   3.621   7.889   1.809
 5737TIP3    H117152   3.659   7.889   1.722
 5737TIP3    H217153   3.650   7.806   1.848
 5738TIP3   OH217154   2.973   2.983   2.394
 5738TIP3    H117155   3.019   2.918   2.341
 5738TIP3    H217156   2.974   3.063   2.341
 5739TIP3   OH217157   3.336   7.265   2.096
 5739TIP3    H117158   3.398   7.192   2.101
 5739TIP3    H217159   3.344   7.297   2.006
 5740TIP3   OH217160   6.143   3.045   1.966
 5740TIP3    H117161   6.116   2.959   1.933
 5740TIP3    H217162   6.212   3.073   1.906
 5741TIP3   OH217163   1.156   1.877   3.461
 5741TIP3    H117164   1.143   1.786   3.434
 5741TIP3    H217165   1.096   1.927   3.405
 5742TIP3   OH217166   6.776   1.809   6.613
 5742TIP3    H117167   6.855   1.863   6.609
 5742TIP3    H217168   6.707   1.869   6.642
 5743TIP3   OH217169   8.303   1.984   5.270
 5743TIP3    H117170   8.377   1.959   5.214
 5743TIP3    H217171   8.232   1.925   5.246
 5744TIP3   OH217172   0.720   2.915   3.077
 5744TIP3    H117173   0.691   2.833   3.038
 5744TIP3    H217174   0.747   2.969   3.003
 5745TIP3   OH217175   2.397   5.369   5.807
 5745TIP3    H117176   2.388   5.301   5.874
 5745TIP3    H217177   2.404   5.450   5.857
 5746TIP3   OH217178   3.377   2.823   0.381
 5746TIP3    H117179   3.303   2.872   0.345
 5746TIP3    H217180   3.449   2.840   0.320
 5747TIP3   OH217181   7.961   3.819   3.329
 5747TIP3    H117182   8.047   3.838   3.368
 5747TIP3    H217183   7.982   3.765   3.252
 5748TIP3   OH217184   7.967   1.494   1.070
 5748TIP3    H117185   8.004   1.536   0.993
 5748TIP3    H217186   7.928   1.566   1.120
 5749TIP3   OH217187   0.158   3.947   3.468
 5749TIP3    H117188   0.206   3.980   3.391
 5749TIP3    H217189   0.194   3.860   3.484
 5750TIP3   OH217190   1.525   3.703   3.930
 5750TIP3    H117191   1.618   3.699   3.908
 5750TIP3    H217192   1.498   3.792   3.907
 5751TIP3   OH217193   0.965   7.134   3.360
 5751TIP3    H117194   0.999   7.223   3.366
 5751TIP3    H217195   0.884   7.142   3.309
 5752TIP3   OH217196   7.727   1.225   2.637
 5752TIP3    H117197   7.805   1.221   2.581
 5752TIP3    H217198   7.669   1.286   2.591
 5753TIP3   OH217199   5.025   2.962   3.481
 5753TIP3    H117200   5.010   3.009   3.562
 5753TIP3    H217201   5.090   3.014   3.434
 5754TIP3   OH217202   1.116   7.403   2.389
 5754TIP3    H117203   1.173   7.365   2.323
 5754TIP3    H217204   1.142   7.361   2.471
 5755TIP3   OH217205   4.893   3.256   2.026
 5755TIP3    H117206   4.827   3.275   2.092
 5755TIP3    H217207   4.955   3.198   2.070
 5756TIP3   OH217208   6.841   7.588   1.167
 5756TIP3    H117209   6.801   7.660   1.216
 5756TIP3    H217210   6.848   7.621   1.077
 5757TIP3   OH217211   5.900   6.595   2.754
 5757TIP3    H117212   5.830   6.612   2.816
 5757TIP3    H217213   5.965   6.664   2.771
 5758TIP3   OH217214   0.320   2.298   5.816
 5758TIP3    H117215   0.314   2.278   5.909
 5758TIP3    H217216   0.375   2.376   5.812
 5759TIP3   OH217217   3.366   1.443   3.670
 5759TIP3    H117218   3.325   1.404   3.593
 5759TIP3    H217219   3.408   1.522   3.637
 5760TIP3   OH217220   2.659   2.587   0.162
 5760TIP3    H117221   2.700   2.511   0.121
 5760TIP3    H217222   2.578   2.601   0.113
 5761TIP3   OH217223   5.214   0.206   3.258
 5761TIP3    H117224   5.257   0.158   3.329
 5761TIP3    H217225   5.169   0.139   3.207
 5762TIP3   OH217226   4.152   6.680   4.625
 5762TIP3    H117227   4.210   6.727   4.565
 5762TIP3    H217228   4.209   6.654   4.697
 5763TIP3   OH217229   3.756   0.350   0.775
 5763TIP3    H117230   3.825   0.351   0.841
 5763TIP3    H217231   3.795   0.391   0.698
 5764TIP3   OH217232   1.037   6.982   1.698
 5764TIP3    H117233   1.105   6.949   1.640
 5764TIP3    H217234   1.014   7.068   1.664
 5765TIP3   OH217235   2.341   3.656   4.487
 5765TIP3    H117236   2.383   3.703   4.559
 5765TIP3    H217237   2.253   3.694   4.481
 5766TIP3   OH217238   6.418   5.838   5.721
 5766TIP3    H117239   6.440   5.927   5.749
 5766TIP3    H217240   6.327   5.826   5.749
 5767TIP3   OH217241   1.147   7.314   4.136
 5767TIP3    H117242   1.080   7.382   4.139
 5767TIP3    H217243   1.110   7.241   4.185
 5768TIP3   OH217244   7.190   7.485   3.048
 5768TIP3    H117245   7.152   7.552   2.991
 5768TIP3    H217246   7.203   7.530   3.132
 5769TIP3   OH217247   0.732   2.963   3.508
 5769TIP3    H117248   0.809   2.958   3.566
 5769TIP3    H217249   0.768   2.989   3.423
 5770TIP3   OH217250   0.225   4.555   0.282
 5770TIP3    H117251   0.302   4.592   0.327
 5770TIP3    H217252   0.152   4.573   0.341
 5771TIP3   OH217253   0.394   5.514   1.834
 5771TIP3    H117254   0.383   5.594   1.782
 5771TIP3    H217255   0.442   5.454   1.776
 5772TIP3   OH217256   0.920   7.669   4.415
 5772TIP3    H117257   0.995   7.625   4.456
 5772TIP3    H217258   0.844   7.618   4.442
 5773TIP3   OH217259   2.516   4.047   0.436
 5773TIP3    H117260   2.554   4.034   0.523
 5773TIP3    H217261   2.584   4.016   0.376
 5774TIP3   OH217262   6.676   3.092   5.353
 5774TIP3    H117263   6.608   3.054   5.409
 5774TIP3    H217264   6.635   3.169   5.314
 5775TIP3   OH217265   6.510   7.375   2.831
 5775TIP3    H117266   6.523   7.449   2.772
 5775TIP3    H217267   6.552   7.301   2.787
 5776TIP3   OH217268   4.560   2.207   3.083
 5776TIP3    H117269   4.607   2.287   3.105
 5776TIP3    H217270   4.610   2.168   3.010
 5777TIP3   OH217271   4.819   7.338   1.815
 5777TIP3    H117272   4.859   7.279   1.878
 5777TIP3    H217273   4.788   7.412   1.868
 5778TIP3   OH217274   2.777   3.123   3.338
 5778TIP3    H117275   2.868   3.103   3.319
 5778TIP3    H217276   2.764   3.212   3.303
 5779TIP3   OH217277   0.575   0.880   3.721
 5779TIP3    H117278   0.599   0.953   3.780
 5779TIP3    H217279   0.625   0.896   3.641
 5780TIP3   OH217280   0.157   3.933   5.976
 5780TIP3    H117281   0.110   3.909   5.896
 5780TIP3    H217282   0.119   3.878   6.044
 5781TIP3   OH217283   0.217   2.622   1.542
 5781TIP3    H117284   0.200   2.572   1.462
 5781TIP3    H217285   0.312   2.635   1.543
 5782TIP3   OH217286   2.935   4.839   6.168
 5782TIP3    H117287   2.911   4.768   6.228
 5782TIP3    H217288   2.987   4.899   6.221
 5783TIP3   OH217289   1.845   0.626   0.113
 5783TIP3    H117290   1.901   0.636   0.036
 5783TIP3    H217291   1.827   0.532   0.117
 5784TIP3   OH217292   7.939   1.004   1.069
 5784TIP3    H117293   7.885   0.925   1.069
 5784TIP3    H217294   7.928   1.040   0.980
 5785TIP3   OH217295   0.087   1.752   5.684
 5785TIP3    H117296   0.085   1.672   5.737
 5785TIP3    H217297   0.108   1.822   5.747
 5786TIP3   OH217298   0.431   6.734   4.464
 5786TIP3    H117299   0.416   6.795   4.536
 5786TIP3    H217300   0.523   6.746   4.441
 5787TIP3   OH217301   7.347   0.537   3.039
 5787TIP3    H117302   7.364   0.629   3.016
 5787TIP3    H217303   7.379   0.487   2.964
 5788TIP3   OH217304   8.189   4.684   2.313
 5788TIP3    H117305   8.180   4.595   2.278
 5788TIP3    H217306   8.207   4.738   2.237
 5789TIP3   OH217307   4.835   2.505   0.118
 5789TIP3    H117308   4.916   2.555   0.107
 5789TIP3    H217309   4.848   2.455   0.198
 5790TIP3   OH217310   1.940   7.523   3.034
 5790TIP3    H117311   1.850   7.551   3.023
 5790TIP3    H217312   1.970   7.501   2.946
 5791TIP3   OH217313   7.313   4.288   3.162
 5791TIP3    H117314   7.378   4.222   3.141
 5791TIP3    H217315   7.307   4.286   3.258
 5792TIP3   OH217316   4.402   0.447   1.876
 5792TIP3    H117317   4.434   0.483   1.793
 5792TIP3    H217318   4.476   0.458   1.936
 5793TIP3   OH217319   3.534   1.788   0.265
 5793TIP3    H117320   3.538   1.812   0.172
 5793TIP3    H217321   3.507   1.869   0.309
 5794TIP3   OH217322   2.049   7.330   3.280
 5794TIP3    H117323   2.067   7.424   3.279
 5794TIP3    H217324   1.959   7.323   3.311
 5795TIP3   OH217325   2.146   5.013   6.456
 5795TIP3    H117326   2.202   4.936   6.465
 5795TIP3    H217327   2.060   4.977   6.435
 5796TIP3   OH217328   6.610   1.586   6.581
 5796TIP3    H117329   6.532   1.607   6.633
 5796TIP3    H217330   6.661   1.667   6.580
 5797TIP3   OH217331   2.826   7.699   1.833
 5797TIP3    H117332   2.853   7.622   1.884
 5797TIP3    H217333   2.893   7.764   1.852
 5798TIP3   OH217334   7.774   2.212   2.724
 5798TIP3    H117335   7.740   2.258   2.801
 5798TIP3    H217336   7.697   2.167   2.688
 5799TIP3   OH217337   5.747   3.771   3.970
 5799TIP3    H117338   5.698   3.818   4.037
 5799TIP3    H217339   5.711   3.682   3.972
 5800TIP3   OH217340   1.462   0.400   0.297
 5800TIP3    H117341   1.436   0.390   0.205
 5800TIP3    H217342   1.501   0.315   0.319
 5801TIP3   OH217343   1.934   1.404   0.075
 5801TIP3    H117344   1.949   1.492   0.041
 5801TIP3    H217345   1.868   1.367   0.016
 5802TIP3   OH217346   2.382   1.999   3.245
 5802TIP3    H117347   2.296   2.035   3.224
 5802TIP3    H217348   2.428   1.997   3.162
 5803TIP3   OH217349   7.126   7.053   3.812
 5803TIP3    H117350   7.210   7.012   3.835
 5803TIP3    H217351   7.147   7.113   3.741
 5804TIP3   OH217352   0.591   0.274   0.451
 5804TIP3    H117353   0.524   0.271   0.519
 5804TIP3    H217354   0.673   0.287   0.498
 5805TIP3   OH217355   1.391   2.279   5.491
 5805TIP3    H117356   1.313   2.332   5.505
 5805TIP3    H217357   1.378   2.239   5.405
 5806TIP3   OH217358   7.354   2.179   6.045
 5806TIP3    H117359   7.350   2.218   6.132
 5806TIP3    H217360   7.440   2.137   6.042
 5807TIP3   OH217361   1.666   6.571   0.463
 5807TIP3    H117362   1.575   6.588   0.440
 5807TIP3    H217363   1.687   6.488   0.420
 5808TIP3   OH217364   1.742   7.255   5.346
 5808TIP3    H117365   1.701   7.306   5.416
 5808TIP3    H217366   1.727   7.163   5.371
 5809TIP3   OH217367   7.832   4.508   3.401
 5809TIP3    H117368   7.810   4.526   3.492
 5809TIP3    H217369   7.801   4.419   3.386
 5810TIP3   OH217370   7.810   5.161   2.070
 5810TIP3    H117371   7.733   5.108   2.049
 5810TIP3    H217372   7.804   5.236   2.010
 5811TIP3   OH217373   2.903   3.625   2.551
 5811TIP3    H117374   2.943   3.680   2.619
 5811TIP3    H217375   2.961   3.549   2.544
 5812TIP3   OH217376   1.541   0.278   3.105
 5812TIP3    H117377   1.554   0.282   3.199
 5812TIP3    H217378   1.519   0.187   3.087
 5813TIP3   OH217379   6.353   5.225   5.317
 5813TIP3    H117380   6.269   5.220   5.362
 5813TIP3    H217381   6.399   5.145   5.343
 5814TIP3   OH217382   2.179   1.540   2.943
 5814TIP3    H117383   2.188   1.632   2.919
 5814TIP3    H217384   2.257   1.498   2.908
 5815TIP3   OH217385   8.189   6.368   2.466
 5815TIP3    H117386   8.124   6.313   2.424
 5815TIP3    H217387   8.183   6.346   2.559
 5816TIP3   OH217388   2.183   2.649   5.761
 5816TIP3    H117389   2.152   2.701   5.835
 5816TIP3    H217390   2.250   2.591   5.799
 5817TIP3   OH217391   5.379   6.732   3.136
 5817TIP3    H117392   5.444   6.800   3.149
 5817TIP3    H217393   5.415   6.655   3.181
 5818TIP3   OH217394   6.787   5.051   3.896
 5818TIP3    H117395   6.775   5.007   3.812
 5818TIP3    H217396   6.718   5.118   3.899
 5819TIP3   OH217397   7.489   2.667   3.710
 5819TIP3    H117398   7.482   2.755   3.673
 5819TIP3    H217399   7.531   2.615   3.641
 5820TIP3   OH217400   3.467   6.497   1.313
 5820TIP3    H117401   3.449   6.550   1.235
 5820TIP3    H217402   3.435   6.410   1.291
 5821TIP3   OH217403   3.162   2.215   3.322
 5821TIP3    H117404   3.254   2.223   3.347
 5821TIP3    H217405   3.144   2.294   3.271
 5822TIP3   OH217406   1.742   0.737   3.915
 5822TIP3    H117407   1.722   0.705   3.827
 5822TIP3    H217408   1.656   0.750   3.955
 5823TIP3   OH217409   5.084   4.678   3.955
 5823TIP3    H117410   5.138   4.730   4.015
 5823TIP3    H217411   5.052   4.606   4.009
 5824TIP3   OH217412   4.248   6.710   6.708
 5824TIP3    H117413   4.224   6.796   6.743
 5824TIP3    H217414   4.220   6.648   6.775
 5825TIP3   OH217415   6.095   3.646   3.138
 5825TIP3    H117416   6.062   3.668   3.225
 5825TIP3    H217417   6.156   3.717   3.116
 5826TIP3   OH217418   0.892   1.654   5.999
 5826TIP3    H117419   0.953   1.585   5.974
 5826TIP3    H217420   0.819   1.645   5.937
 5827TIP3   OH217421   0.592   6.207   5.736
 5827TIP3    H117422   0.660   6.145   5.708
 5827TIP3    H217423   0.631   6.293   5.720
 5828TIP3   OH217424   6.191   2.691   3.076
 5828TIP3    H117425   6.236   2.682   3.161
 5828TIP3    H217426   6.221   2.775   3.043
 5829TIP3   OH217427   0.304   5.833   2.213
 5829TIP3    H117428   0.274   5.914   2.253
 5829TIP3    H217429   0.259   5.828   2.129
 5830TIP3   OH217430   5.005   1.274   4.884
 5830TIP3    H117431   4.910   1.261   4.889
 5830TIP3    H217432   5.018   1.322   4.802
 5831TIP3   OH217433   7.963   3.098   0.748
 5831TIP3    H117434   8.032   3.133   0.804
 5831TIP3    H217435   8.010   3.059   0.674
 5832TIP3   OH217436   2.907   0.135   0.983
 5832TIP3    H117437   2.892   0.112   1.074
 5832TIP3    H217438   2.822   0.164   0.951
 5833TIP3   OH217439   0.783   7.626   2.700
 5833TIP3    H117440   0.802   7.533   2.692
 5833TIP3    H217441   0.854   7.670   2.653
 5834TIP3   OH217442   3.485   0.587   5.266
 5834TIP3    H117443   3.468   0.594   5.360
 5834TIP3    H217444   3.408   0.626   5.225
 5835TIP3   OH217445   6.127   2.056   6.301
 5835TIP3    H117446   6.087   2.098   6.225
 5835TIP3    H217447   6.096   2.107   6.376
 5836TIP3   OH217448   5.938   1.583   2.423
 5836TIP3    H117449   5.909   1.643   2.491
 5836TIP3    H217450   5.950   1.499   2.469
 5837TIP3   OH217451   1.409   3.003   4.641
 5837TIP3    H117452   1.404   3.080   4.698
 5837TIP3    H217453   1.321   2.994   4.604
 5838TIP3   OH217454   4.374   3.935   1.000
 5838TIP3    H117455   4.347   3.844   0.988
 5838TIP3    H217456   4.321   3.966   1.074
 5839TIP3   OH217457   6.037   0.657   5.850
 5839TIP3    H117458   6.108   0.717   5.829
 5839TIP3    H217459   6.012   0.681   5.940
 5840TIP3   OH217460   2.042   7.806   6.451
 5840TIP3    H117461   2.056   7.847   6.537
 5840TIP3    H217462   2.083   7.866   6.389
 5841TIP3   OH217463   5.897   3.189   1.390
 5841TIP3    H117464   5.878   3.248   1.318
 5841TIP3    H217465   5.835   3.213   1.458
 5842TIP3   OH217466   4.761   1.650   6.130
 5842TIP3    H117467   4.857   1.649   6.136
 5842TIP3    H217468   4.733   1.696   6.209
 5843TIP3   OH217469   6.317   5.078   3.436
 5843TIP3    H117470   6.283   5.027   3.510
 5843TIP3    H217471   6.298   5.025   3.359
 5844TIP3   OH217472   8.409   3.839   2.254
 5844TIP3    H117473   8.345   3.908   2.236
 5844TIP3    H217474   8.386   3.769   2.192
 5845TIP3   OH217475   7.580   5.232   2.972
 5845TIP3    H117476   7.520   5.176   3.021
 5845TIP3    H217477   7.667   5.195   2.990
 5846TIP3   OH217478   4.867   2.180   4.504
 5846TIP3    H117479   4.805   2.178   4.577
 5846TIP3    H217480   4.889   2.089   4.488
 5847TIP3   OH217481   7.449   0.314   6.179
 5847TIP3    H117482   7.415   0.402   6.165
 5847TIP3    H217483   7.401   0.281   6.255
 5848TIP3   OH217484   4.273   4.513   4.249
 5848TIP3    H117485   4.276   4.504   4.345
 5848TIP3    H217486   4.308   4.601   4.233
 5849TIP3   OH217487   7.509   5.775   4.483
 5849TIP3    H117488   7.507   5.701   4.544
 5849TIP3    H217489   7.445   5.753   4.416
 5850TIP3   OH217490   5.171   4.058   5.588
 5850TIP3    H117491   5.249   4.115   5.588
 5850TIP3    H217492   5.171   4.017   5.674
 5851TIP3   OH217493   2.493   2.368   6.250
 5851TIP3    H117494   2.533   2.440   6.202
 5851TIP3    H217495   2.480   2.402   6.338
 5852TIP3   OH217496   1.039   0.154   5.017
 5852TIP3    H117497   1.114   0.096   5.028
 5852TIP3    H217498   1.048   0.188   4.928
 5853TIP3   OH217499   2.427   0.676   3.179
 5853TIP3    H117500   2.459   0.719   3.258
 5853TIP3    H217501   2.363   0.737   3.142
 5854TIP3   OH217502   4.500   1.755   5.719
 5854TIP3    H117503   4.415   1.796   5.702
 5854TIP3    H217504   4.556   1.827   5.749
 5855TIP3   OH217505   5.354   6.412   4.072
 5855TIP3    H117506   5.425   6.401   4.009
 5855TIP3    H217507   5.291   6.469   4.027
 5856TIP3   OH217508   7.059   6.198   6.038
 5856TIP3    H117509   7.108   6.121   6.066
 5856TIP3    H217510   7.086   6.267   6.098
 5857TIP3   OH217511   0.566   5.628   5.232
 5857TIP3    H117512   0.507   5.557   5.256
 5857TIP3    H217513   0.600   5.603   5.146
 5858TIP3   OH217514   3.497   5.208   2.493
 5858TIP3    H117515   3.415   5.169   2.463
 5858TIP3    H217516   3.556   5.199   2.418
 5859TIP3   OH217517   1.803   3.558   6.725
 5859TIP3    H117518   1.890   3.565   6.685
 5859TIP3    H217519   1.821   3.539   6.817
 5860TIP3   OH217520   2.772   1.365   3.517
 5860TIP3    H117521   2.683   1.330   3.523
 5860TIP3    H217522   2.771   1.418   3.437
 5861TIP3   OH217523   3.509   4.717   5.148
 5861TIP3    H117524   3.446   4.785   5.124
 5861TIP3    H217525   3.470   4.675   5.225
 5862TIP3   OH217526   4.262   0.145   0.642
 5862TIP3    H117527   4.207   0.066   0.643
 5862TIP3    H217528   4.343   0.118   0.685
 5863TIP3   OH217529   8.177   0.958   4.954
 5863TIP3    H117530   8.231   0.879   4.951
 5863TIP3    H217531   8.093   0.931   4.919
 5864TIP3   OH217532   1.038   5.800   0.389
 5864TIP3    H117533   1.024   5.848   0.307
 5864TIP3    H217534   1.116   5.840   0.428
 5865TIP3   OH217535   3.006   4.889   0.831
 5865TIP3    H117536   2.984   4.951   0.761
 5865TIP3    H217537   3.055   4.941   0.895
 5866TIP3   OH217538   1.208   3.190   5.135
 5866TIP3    H117539   1.211   3.114   5.193
 5866TIP3    H217540   1.197   3.152   5.048
 5867TIP3   OH217541   8.014   6.731   2.925
 5867TIP3    H117542   7.968   6.646   2.925
 5867TIP3    H217543   8.087   6.718   2.985
 5868TIP3   OH217544   1.171   6.346   5.218
 5868TIP3    H117545   1.079   6.344   5.194
 5868TIP3    H217546   1.172   6.385   5.306
 5869TIP3   OH217547   3.735   0.037   3.069
 5869TIP3    H117548   3.746   0.021   2.975
 5869TIP3    H217549   3.824   0.030   3.104
 5870TIP3   OH217550   4.120   7.420   6.268
 5870TIP3    H117551   4.128   7.341   6.214
 5870TIP3    H217552   4.033   7.454   6.247
 5871TIP3   OH217553   3.051   1.946   3.135
 5871TIP3    H117554   2.995   1.899   3.197
 5871TIP3    H217555   3.055   2.036   3.170
 5872TIP3   OH217556   5.813   3.991   0.730
 5872TIP3    H117557   5.854   3.908   0.705
 5872TIP3    H217558   5.838   4.052   0.661
 5873TIP3   OH217559   4.749   1.042   1.672
 5873TIP3    H117560   4.752   1.101   1.747
 5873TIP3    H217561   4.663   1.001   1.678
 5874TIP3   OH217562   8.127   3.462   5.937
 5874TIP3    H117563   8.115   3.511   5.856
 5874TIP3    H217564   8.044   3.416   5.950
 5875TIP3   OH217565   0.403   5.785   6.316
 5875TIP3    H117566   0.309   5.782   6.335
 5875TIP3    H217567   0.438   5.850   6.377
 5876TIP3   OH217568   8.168   5.628   6.671
 5876TIP3    H117569   8.179   5.719   6.643
 5876TIP3    H217570   8.257   5.596   6.686
 5877TIP3   OH217571   0.835   5.404   0.637
 5877TIP3    H117572   0.924   5.378   0.661
 5877TIP3    H217573   0.820   5.365   0.551
 5878TIP3   OH217574   7.231   3.016   6.133
 5878TIP3    H117575   7.229   3.012   6.229
 5878TIP3    H217576   7.184   3.097   6.112
 5879TIP3   OH217577   0.974   6.672   1.589
 5879TIP3    H117578   1.024   6.739   1.543
 5879TIP3    H217579   0.891   6.714   1.610
 5880TIP3   OH217580   5.983   6.396   1.015
 5880TIP3    H117581   6.016   6.473   0.970
 5880TIP3    H217582   5.949   6.430   1.098
 5881TIP3   OH217583   1.561   7.150   1.240
 5881TIP3    H117584   1.581   7.097   1.162
 5881TIP3    H217585   1.645   7.165   1.282
 5882TIP3   OH217586   8.279   2.107   4.660
 5882TIP3    H117587   8.252   2.026   4.703
 5882TIP3    H217588   8.294   2.169   4.732
 5883TIP3   OH217589   7.770   3.634   3.450
 5883TIP3    H117590   7.843   3.694   3.433
 5883TIP3    H217591   7.783   3.564   3.386
 5884TIP3   OH217592   4.619   6.603   3.777
 5884TIP3    H117593   4.536   6.578   3.737
 5884TIP3    H217594   4.679   6.613   3.703
 5885TIP3   OH217595   3.656   0.917   5.638
 5885TIP3    H117596   3.702   0.919   5.554
 5885TIP3    H217597   3.612   0.832   5.638
 5886TIP3   OH217598   7.321   1.933   5.846
 5886TIP3    H117599   7.376   1.998   5.889
 5886TIP3    H217600   7.296   1.872   5.915
 5887TIP3   OH217601   7.352   3.360   1.599
 5887TIP3    H117602   7.332   3.405   1.517
 5887TIP3    H217603   7.427   3.407   1.635
 5888TIP3   OH217604   7.265   6.549   2.099
 5888TIP3    H117605   7.290   6.468   2.142
 5888TIP3    H217606   7.262   6.528   2.005
 5889TIP3   OH217607   8.340   6.988   6.099
 5889TIP3    H117608   8.302   6.982   6.011
 5889TIP3    H217609   8.421   7.038   6.087
 5890TIP3   OH217610   5.296   0.713   2.714
 5890TIP3    H117611   5.254   0.645   2.661
 5890TIP3    H217612   5.351   0.664   2.775
 5891TIP3   OH217613   0.569   5.755   3.020
 5891TIP3    H117614   0.520   5.723   2.945
 5891TIP3    H217615   0.537   5.844   3.035
 5892TIP3   OH217616   2.798   5.646   1.566
 5892TIP3    H117617   2.868   5.594   1.605
 5892TIP3    H217618   2.795   5.618   1.475
 5893TIP3   OH217619   2.449   3.449   2.671
 5893TIP3    H117620   2.495   3.529   2.648
 5893TIP3    H217621   2.398   3.471   2.749
 5894TIP3   OH217622   4.591   4.401   4.254
 5894TIP3    H117623   4.565   4.372   4.167
 5894TIP3    H217624   4.515   4.382   4.310
 5895TIP3   OH217625   6.664   0.245   4.152
 5895TIP3    H117626   6.580   0.207   4.177
 5895TIP3    H217627   6.641   0.315   4.091
 5896TIP3   OH217628   3.935   4.621   4.076
 5896TIP3    H117629   3.974   4.707   4.096
 5896TIP3    H217630   3.976   4.595   3.994
 5897TIP3   OH217631   1.076   6.281   2.752
 5897TIP3    H117632   1.095   6.373   2.769
 5897TIP3    H217633   1.039   6.280   2.663
 5898TIP3   OH217634   0.867   4.532   4.719
 5898TIP3    H117635   0.900   4.617   4.688
 5898TIP3    H217636   0.945   4.488   4.755
 5899TIP3   OH217637   0.502   0.029   0.395
 5899TIP3    H117638   0.573  -0.003   0.450
 5899TIP3    H217639   0.523   0.121   0.380
 5900TIP3   OH217640   7.233   2.802   6.488
 5900TIP3    H117641   7.204   2.810   6.397
 5900TIP3    H217642   7.205   2.714   6.514
 5901TIP3   OH217643   0.039   0.868   1.795
 5901TIP3    H117644   0.050   0.935   1.728
 5901TIP3    H217645  -0.049   0.834   1.781
 5902TIP3   OH217646   2.622   0.296   2.609
 5902TIP3    H117647   2.693   0.350   2.646
 5902TIP3    H217648   2.542   0.339   2.639
 5903TIP3   OH217649   7.130   5.687   5.380
 5903TIP3    H117650   7.056   5.654   5.430
 5903TIP3    H217651   7.101   5.773   5.349
 5904TIP3   OH217652   4.422   3.579   1.845
 5904TIP3    H117653   4.481   3.537   1.783
 5904TIP3    H217654   4.425   3.522   1.923
 5905TIP3   OH217655   6.825   0.392   2.298
 5905TIP3    H117656   6.893   0.403   2.231
 5905TIP3    H217657   6.823   0.298   2.314
 5906TIP3   OH217658   6.438   2.101   4.616
 5906TIP3    H117659   6.473   2.178   4.570
 5906TIP3    H217660   6.420   2.133   4.705
 5907TIP3   OH217661   2.172   7.709   3.810
 5907TIP3    H117662   2.238   7.639   3.812
 5907TIP3    H217663   2.107   7.682   3.875
 5908TIP3   OH217664   0.961   3.329   5.705
 5908TIP3    H117665   0.937   3.406   5.652
 5908TIP3    H217666   0.953   3.358   5.795
 5909TIP3   OH217667   0.509   7.765   2.498
 5909TIP3    H117668   0.531   7.719   2.416
 5909TIP3    H217669   0.418   7.742   2.514
 5910TIP3   OH217670   7.370   2.618   1.989
 5910TIP3    H117671   7.412   2.698   1.958
 5910TIP3    H217672   7.292   2.609   1.935
 5911TIP3   OH217673   5.933   4.329   4.932
 5911TIP3    H117674   5.851   4.305   4.977
 5911TIP3    H217675   5.952   4.255   4.876
 5912TIP3   OH217676   5.548   3.101   4.584
 5912TIP3    H117677   5.550   3.187   4.626
 5912TIP3    H217678   5.506   3.044   4.649
 5913TIP3   OH217679   3.335   6.464   6.590
 5913TIP3    H117680   3.318   6.528   6.659
 5913TIP3    H217681   3.378   6.514   6.520
 5914TIP3   OH217682   4.999   2.420   0.898
 5914TIP3    H117683   4.973   2.470   0.821
 5914TIP3    H217684   4.917   2.397   0.941
 5915TIP3   OH217685   3.602   7.701   2.645
 5915TIP3    H117686   3.540   7.648   2.595
 5915TIP3    H217687   3.594   7.669   2.735
 5916TIP3   OH217688   0.658   0.946   1.853
 5916TIP3    H117689   0.708   1.027   1.845
 5916TIP3    H217690   0.586   0.968   1.913
 5917TIP3   OH217691   0.124   4.757   1.470
 5917TIP3    H117692   0.174   4.694   1.418
 5917TIP3    H217693   0.158   4.748   1.558
 5918TIP3   OH217694   8.244   1.479   3.205
 5918TIP3    H117695   8.153   1.508   3.208
 5918TIP3    H217696   8.294   1.555   3.236
 5919TIP3   OH217697   7.635   6.551   3.738
 5919TIP3    H117698   7.590   6.567   3.821
 5919TIP3    H217699   7.722   6.520   3.764
 5920TIP3   OH217700   0.393   2.165   4.258
 5920TIP3    H117701   0.369   2.217   4.334
 5920TIP3    H217702   0.460   2.217   4.213
 5921TIP3   OH217703   0.828   3.171   4.906
 5921TIP3    H117704   0.863   3.159   4.818
 5921TIP3    H217705   0.742   3.130   4.905
 5922TIP3   OH217706   3.966   0.383   6.167
 5922TIP3    H117707   3.947   0.310   6.226
 5922TIP3    H217708   3.988   0.456   6.225
 5923TIP3   OH217709   2.883   3.229   0.592
 5923TIP3    H117710   2.938   3.201   0.665
 5923TIP3    H217711   2.796   3.238   0.629
 5924TIP3   OH217712   6.026   3.770   1.306
 5924TIP3    H117713   5.931   3.761   1.313
 5924TIP3    H217714   6.060   3.738   1.390
 5925TIP3   OH217715   1.665   2.106   3.209
 5925TIP3    H117716   1.667   2.013   3.184
 5925TIP3    H217717   1.572   2.130   3.205
 5926TIP3   OH217718   0.283   0.146   3.324
 5926TIP3    H117719   0.244   0.233   3.322
 5926TIP3    H217720   0.357   0.154   3.384
 5927TIP3   OH217721   7.891   0.754   1.350
 5927TIP3    H117722   7.977   0.763   1.309
 5927TIP3    H217723   7.895   0.669   1.395
 5928TIP3   OH217724   5.228   3.857   0.575
 5928TIP3    H117725   5.304   3.826   0.624
 5928TIP3    H217726   5.187   3.777   0.541
 5929TIP3   OH217727   4.137   4.685   0.180
 5929TIP3    H117728   4.102   4.748   0.116
 5929TIP3    H217729   4.063   4.663   0.235
 5930TIP3   OH217730   5.849   6.754   0.571
 5930TIP3    H117731   5.804   6.750   0.487
 5930TIP3    H217732   5.858   6.847   0.590
 5931TIP3   OH217733   7.272   2.959   0.660
 5931TIP3    H117734   7.342   2.896   0.681
 5931TIP3    H217735   7.217   2.913   0.596
 5932TIP3   OH217736   6.796   3.284   0.377
 5932TIP3    H117737   6.743   3.329   0.443
 5932TIP3    H217738   6.773   3.327   0.294
 5933TIP3   OH217739   6.550   5.704   2.161
 5933TIP3    H117740   6.503   5.652   2.226
 5933TIP3    H217741   6.482   5.739   2.104
 5934TIP3   OH217742   5.598   0.693   1.682
 5934TIP3    H117743   5.675   0.656   1.725
 5934TIP3    H217744   5.554   0.744   1.751
 5935TIP3   OH217745   0.466   2.926   6.363
 5935TIP3    H117746   0.421   2.856   6.316
 5935TIP3    H217747   0.557   2.920   6.334
 5936TIP3   OH217748   5.196   2.435   2.016
 5936TIP3    H117749   5.287   2.451   2.040
 5936TIP3    H217750   5.160   2.522   1.999
 5937TIP3   OH217751   5.393   5.882   1.616
 5937TIP3    H117752   5.308   5.844   1.592
 5937TIP3    H217753   5.436   5.814   1.668
 5938TIP3   OH217754   3.882   3.256   5.854
 5938TIP3    H117755   3.802   3.241   5.804
 5938TIP3    H217756   3.875   3.347   5.883
 5939TIP3   OH217757   7.530   3.839   3.991
 5939TIP3    H117758   7.463   3.900   4.024
 5939TIP3    H217759   7.604   3.851   4.051
 5940TIP3   OH217760   2.211   3.665   0.586
 5940TIP3    H117761   2.238   3.574   0.593
 5940TIP3    H217762   2.120   3.666   0.615
 5941TIP3   OH217763   4.433   0.945   1.651
 5941TIP3    H117764   4.388   1.029   1.659
 5941TIP3    H217765   4.478   0.950   1.567
 5942TIP3   OH217766   0.395   6.081   5.892
 5942TIP3    H117767   0.456   6.115   5.825
 5942TIP3    H217768   0.308   6.099   5.856
 5943TIP3   OH217769   2.150   2.686   4.267
 5943TIP3    H117770   2.216   2.734   4.217
 5943TIP3    H217771   2.166   2.708   4.358
 5944TIP3   OH217772   0.490   1.438   2.268
 5944TIP3    H117773   0.518   1.391   2.189
 5944TIP3    H217774   0.410   1.484   2.240
 5945TIP3   OH217775   3.030   0.292   1.520
 5945TIP3    H117776   3.072   0.375   1.541
 5945TIP3    H217777   2.987   0.308   1.436
 5946TIP3   OH217778   4.970   0.259   5.214
 5946TIP3    H117779   4.904   0.257   5.145
 5946TIP3    H217780   5.001   0.168   5.219
 5947TIP3   OH217781  -0.002   1.651   4.275
 5947TIP3    H117782   0.028   1.563   4.298
 5947TIP3    H217783   0.044   1.672   4.194
 5948TIP3   OH217784   3.353   2.275   1.052
 5948TIP3    H117785   3.356   2.234   1.139
 5948TIP3    H217786   3.391   2.362   1.066
 5949TIP3   OH217787   5.165   4.740   5.491
 5949TIP3    H117788   5.111   4.691   5.429
 5949TIP3    H217789   5.251   4.698   5.486
 5950TIP3   OH217790   7.533   3.042   0.352
 5950TIP3    H117791   7.620   3.072   0.325
 5950TIP3    H217792   7.520   2.962   0.302
 5951TIP3   OH217793   2.733   5.630   0.322
 5951TIP3    H117794   2.739   5.691   0.396
 5951TIP3    H217795   2.824   5.617   0.294
 5952TIP3   OH217796   5.040   0.999   0.403
 5952TIP3    H117797   5.003   0.968   0.321
 5952TIP3    H217798   5.078   0.921   0.444
 5953TIP3   OH217799   3.848   2.183   2.701
 5953TIP3    H117800   3.908   2.149   2.768
 5953TIP3    H217801   3.844   2.115   2.635
 5954TIP3   OH217802   4.373   0.483   4.231
 5954TIP3    H117803   4.453   0.432   4.237
 5954TIP3    H217804   4.399   0.563   4.184
 5955TIP3   OH217805   7.165   2.105   4.845
 5955TIP3    H117806   7.098   2.151   4.795
 5955TIP3    H217807   7.120   2.029   4.882
 5956TIP3   OH217808   7.555   4.287   5.568
 5956TIP3    H117809   7.590   4.357   5.513
 5956TIP3    H217810   7.507   4.231   5.507
 5957TIP3   OH217811   1.015   0.936   1.277
 5957TIP3    H117812   1.088   0.875   1.277
 5957TIP3    H217813   0.967   0.917   1.197
 5958TIP3   OH217814   4.312   2.392   0.761
 5958TIP3    H117815   4.367   2.464   0.791
 5958TIP3    H217816   4.284   2.348   0.841
 5959TIP3   OH217817   1.650   0.849   6.151
 5959TIP3    H117818   1.733   0.896   6.152
 5959TIP3    H217819   1.613   0.867   6.065
 5960TIP3   OH217820   5.830   4.942   2.178
 5960TIP3    H117821   5.835   4.880   2.251
 5960TIP3    H217822   5.800   5.024   2.218
 5961TIP3   OH217823   1.242   4.936   3.269
 5961TIP3    H117824   1.265   4.876   3.197
 5961TIP3    H217825   1.153   4.964   3.250
 5962TIP3   OH217826   7.827   2.845   4.616
 5962TIP3    H117827   7.789   2.791   4.546
 5962TIP3    H217828   7.918   2.815   4.622
 5963TIP3   OH217829   0.409   7.395   1.503
 5963TIP3    H117830   0.380   7.396   1.594
 5963TIP3    H217831   0.461   7.474   1.494
 5964TIP3   OH217832   1.671   6.792   2.514
 5964TIP3    H117833   1.736   6.770   2.581
 5964TIP3    H217834   1.588   6.764   2.551
 5965TIP3   OH217835   1.967   2.216   3.987
 5965TIP3    H117836   1.928   2.299   4.016
 5965TIP3    H217837   1.991   2.171   4.067
 5966TIP3   OH217838   7.990   6.323   1.778
 5966TIP3    H117839   7.983   6.395   1.716
 5966TIP3    H217840   8.083   6.314   1.795
 5967TIP3   OH217841   7.082   3.858   1.949
 5967TIP3    H117842   7.047   3.804   1.878
 5967TIP3    H217843   7.109   3.794   2.015
 5968TIP3   OH217844   3.185   6.952   2.193
 5968TIP3    H117845   3.148   6.871   2.226
 5968TIP3    H217846   3.110   7.010   2.180
 5969TIP3   OH217847   6.094   6.874   6.495
 5969TIP3    H117848   6.163   6.811   6.472
 5969TIP3    H217849   6.096   6.879   6.590
 5970TIP3   OH217850   3.282   6.236   0.643
 5970TIP3    H117851   3.308   6.291   0.717
 5970TIP3    H217852   3.359   6.183   0.624
 5971TIP3   OH217853   3.349   1.020   1.130
 5971TIP3    H117854   3.258   1.052   1.128
 5971TIP3    H217855   3.346   0.943   1.186
 5972TIP3   OH217856   2.846   5.368   5.880
 5972TIP3    H117857   2.759   5.359   5.840
 5972TIP3    H217858   2.878   5.278   5.888
 5973TIP3   OH217859   2.364   4.309   4.166
 5973TIP3    H117860   2.322   4.359   4.236
 5973TIP3    H217861   2.435   4.262   4.209
 5974TIP3   OH217862   4.639   6.599   0.520
 5974TIP3    H117863   4.603   6.688   0.522
 5974TIP3    H217864   4.733   6.611   0.523
 5975TIP3   OH217865   5.715   7.606   3.333
 5975TIP3    H117866   5.687   7.650   3.413
 5975TIP3    H217867   5.800   7.567   3.356
 5976TIP3   OH217868   2.629   6.717   1.955
 5976TIP3    H117869   2.721   6.740   1.961
 5976TIP3    H217870   2.583   6.788   1.998
 5977TIP3   OH217871   6.499   7.592   1.342
 5977TIP3    H117872   6.414   7.633   1.358
 5977TIP3    H217873   6.537   7.641   1.269
 5978TIP3   OH217874   6.030   6.578   2.294
 5978TIP3    H117875   6.061   6.512   2.232
 5978TIP3    H217876   5.949   6.611   2.256
 5979TIP3   OH217877   3.462   6.442   4.213
 5979TIP3    H117878   3.465   6.358   4.169
 5979TIP3    H217879   3.371   6.452   4.241
 5980TIP3   OH217880   4.897   5.944   6.271
 5980TIP3    H117881   4.954   5.888   6.323
 5980TIP3    H217882   4.941   5.952   6.187
 5981TIP3   OH217883   5.731   3.148   0.296
 5981TIP3    H117884   5.798   3.129   0.362
 5981TIP3    H217885   5.776   3.138   0.213
 5982TIP3   OH217886   0.526   4.301   0.206
 5982TIP3    H117887   0.487   4.389   0.213
 5982TIP3    H217888   0.562   4.299   0.118
 5983TIP3   OH217889   4.477   5.285   5.018
 5983TIP3    H117890   4.469   5.220   5.088
 5983TIP3    H217891   4.535   5.352   5.055
 5984TIP3   OH217892   0.518   5.990   5.161
 5984TIP3    H117893   0.580   5.980   5.234
 5984TIP3    H217894   0.461   6.062   5.188
 5985TIP3   OH217895   5.136   4.619   6.013
 5985TIP3    H117896   5.164   4.636   6.103
 5985TIP3    H217897   5.040   4.624   6.016
 5986TIP3   OH217898   2.451   6.260   2.284
 5986TIP3    H117899   2.449   6.292   2.374
 5986TIP3    H217900   2.543   6.266   2.258
 5987TIP3   OH217901   6.843   6.857   2.778
 5987TIP3    H117902   6.757   6.819   2.797
 5987TIP3    H217903   6.876   6.885   2.863
 5988TIP3   OH217904   0.695   2.505   4.500
 5988TIP3    H117905   0.645   2.546   4.570
 5988TIP3    H217906   0.713   2.416   4.532
 5989TIP3   OH217907   2.178   2.272   4.561
 5989TIP3    H117908   2.190   2.325   4.482
 5989TIP3    H217909   2.218   2.325   4.631
 5990TIP3   OH217910   0.629   7.920   3.221
 5990TIP3    H117911   0.711   7.892   3.262
 5990TIP3    H217912   0.560   7.887   3.279
 5991TIP3   OH217913   3.090   7.439   3.897
 5991TIP3    H117914   3.163   7.382   3.921
 5991TIP3    H217915   3.059   7.474   3.981
 5992TIP3   OH217916   0.296   2.717   5.292
 5992TIP3    H117917   0.382   2.676   5.279
 5992TIP3    H217918   0.280   2.710   5.386
 5993TIP3   OH217919   6.541   5.646   0.583
 5993TIP3    H117920   6.627   5.636   0.542
 5993TIP3    H217921   6.518   5.558   0.612
 5994TIP3   OH217922   4.129   7.356   3.286
 5994TIP3    H117923   4.127   7.262   3.268
 5994TIP3    H217924   4.194   7.391   3.224
 5995TIP3   OH217925   8.366   7.122   3.380
 5995TIP3    H117926   8.349   7.050   3.319
 5995TIP3    H217927   8.347   7.086   3.466
 5996TIP3   OH217928   2.372   6.710   5.378
 5996TIP3    H117929   2.437   6.649   5.343
 5996TIP3    H217930   2.373   6.693   5.473
 5997TIP3   OH217931   7.102   4.867   0.706
 5997TIP3    H117932   7.069   4.928   0.640
 5997TIP3    H217933   7.197   4.882   0.707
 5998TIP3   OH217934   1.478   1.598   3.176
 5998TIP3    H117935   1.489   1.527   3.240
 5998TIP3    H217936   1.494   1.556   3.091
 5999TIP3   OH217937   7.374   0.651   2.634
 5999TIP3    H117938   7.466   0.659   2.606
 5999TIP3    H217939   7.363   0.720   2.699
 6000TIP3   OH217940   7.202   4.294   4.445
 6000TIP3    H117941   7.137   4.363   4.433
 6000TIP3    H217942   7.286   4.336   4.427
 6001TIP3   OH217943   3.400   5.435   2.617
 6001TIP3    H117944   3.396   5.402   2.707
 6001TIP3    H217945   3.439   5.364   2.566
 6002TIP3   OH217946   2.788   1.715   3.986
 6002TIP3    H117947   2.823   1.680   3.904
 6002TIP3    H217948   2.841   1.794   4.003
 6003TIP3   OH217949   2.943   6.885   2.887
 6003TIP3    H117950   2.896   6.888   2.803
 6003TIP3    H217951   2.920   6.968   2.930
 6004TIP3   OH217952   6.969   2.062   6.676
 6004TIP3    H117953   6.934   2.081   6.589
 6004TIP3    H217954   7.016   2.142   6.701
 6005TIP3   OH217955   0.511   4.978   1.814
 6005TIP3    H117956   0.536   4.920   1.741
 6005TIP3    H217957   0.587   5.036   1.825
 6006TIP3   OH217958   4.942   5.084   1.503
 6006TIP3    H117959   4.998   5.074   1.580
 6006TIP3    H217960   4.887   5.005   1.503
 6007TIP3   OH217961   6.132   4.339   6.257
 6007TIP3    H117962   6.112   4.255   6.217
 6007TIP3    H217963   6.048   4.370   6.291
 6008TIP3   OH217964   6.315   3.730   2.273
 6008TIP3    H117965   6.346   3.815   2.303
 6008TIP3    H217966   6.301   3.743   2.179
 6009TIP3   OH217967   2.900   5.319   1.961
 6009TIP3    H117968   2.931   5.409   1.950
 6009TIP3    H217969   2.816   5.328   2.006
 6010TIP3   OH217970   7.055   6.784   1.899
 6010TIP3    H117971   7.062   6.875   1.929
 6010TIP3    H217972   7.144   6.750   1.903
 6011TIP3   OH217973   4.886   5.319   1.327
 6011TIP3    H117974   4.838   5.401   1.333
 6011TIP3    H217975   4.872   5.276   1.411
 6012TIP3   OH217976   7.704   6.540   5.760
 6012TIP3    H117977   7.707   6.588   5.843
 6012TIP3    H217978   7.644   6.468   5.777
 6013TIP3   OH217979   0.741   0.326   1.586
 6013TIP3    H117980   0.663   0.366   1.546
 6013TIP3    H217981   0.706   0.277   1.660
 6014TIP3   OH217982   6.612   0.560   2.386
 6014TIP3    H117983   6.534   0.547   2.438
 6014TIP3    H217984   6.672   0.491   2.415
 6015TIP3   OH217985   1.620   2.719   2.795
 6015TIP3    H117986   1.599   2.635   2.754
 6015TIP3    H217987   1.604   2.784   2.727
 6016TIP3   OH217988   7.837   0.383   4.710
 6016TIP3    H117989   7.870   0.342   4.630
 6016TIP3    H217990   7.757   0.334   4.731
 6017TIP3   OH217991   5.099   1.529   1.442
 6017TIP3    H117992   5.127   1.440   1.421
 6017TIP3    H217993   5.147   1.585   1.380
 6018TIP3   OH217994   2.295   3.128   0.899
 6018TIP3    H117995   2.323   3.037   0.886
 6018TIP3    H217996   2.201   3.127   0.882
 6019TIP3   OH217997   5.511   3.601   3.799
 6019TIP3    H117998   5.549   3.553   3.873
 6019TIP3    H217999   5.524   3.544   3.724
 6020TIP3   OH218000   1.850   4.575   1.410
 6020TIP3    H118001   1.869   4.665   1.387
 6020TIP3    H218002   1.892   4.563   1.496
 6021TIP3   OH218003   6.897   4.559   0.497
 6021TIP3    H118004   6.804   4.537   0.501
 6021TIP3    H218005   6.937   4.507   0.567
 6022TIP3   OH218006   7.382   5.027   3.190
 6022TIP3    H118007   7.333   5.043   3.109
 6022TIP3    H218008   7.359   4.938   3.214
 6023TIP3   OH218009   0.996   4.768   1.956
 6023TIP3    H118010   0.954   4.780   2.041
 6023TIP3    H218011   0.938   4.707   1.909
 6024TIP3   OH218012   6.786   3.383   5.698
 6024TIP3    H118013   6.871   3.423   5.715
 6024TIP3    H218014   6.725   3.432   5.752
 6025TIP3   OH218015   8.229   6.288   5.553
 6025TIP3    H118016   8.187   6.331   5.627
 6025TIP3    H218017   8.279   6.357   5.510
 6026TIP3   OH218018   2.922   3.830   0.300
 6026TIP3    H118019   2.929   3.761   0.234
 6026TIP3    H218020   2.953   3.789   0.381
 6027TIP3   OH218021   0.586   3.109   0.404
 6027TIP3    H118022   0.645   3.104   0.479
 6027TIP3    H218023   0.567   3.203   0.395
 6028TIP3   OH218024   4.888   0.250   0.187
 6028TIP3    H118025   4.903   0.158   0.164
 6028TIP3    H218026   4.969   0.277   0.231
 6029TIP3   OH218027   7.241   3.363   3.299
 6029TIP3    H118028   7.190   3.330   3.373
 6029TIP3    H218029   7.217   3.456   3.293
 6030TIP3   OH218030   1.315   1.098   1.449
 6030TIP3    H118031   1.363   1.145   1.517
 6030TIP3    H218032   1.224   1.099   1.478
 6031TIP3   OH218033   4.847   5.531   5.271
 6031TIP3    H118034   4.799   5.483   5.339
 6031TIP3    H218035   4.923   5.567   5.317
 6032TIP3   OH218036   6.692   1.828   3.035
 6032TIP3    H118037   6.768   1.833   2.977
 6032TIP3    H218038   6.659   1.738   3.023
 6033TIP3   OH218039   0.186   7.478   3.168
 6033TIP3    H118040   0.225   7.543   3.227
 6033TIP3    H218041   0.167   7.403   3.225
 6034TIP3   OH218042   1.089   2.606   1.187
 6034TIP3    H118043   1.179   2.639   1.188
 6034TIP3    H218044   1.069   2.593   1.094
 6035TIP3   OH218045   7.367   4.863   0.997
 6035TIP3    H118046   7.346   4.872   1.090
 6035TIP3    H218047   7.367   4.769   0.980
 6036TIP3   OH218048   7.102   3.727   3.493
 6036TIP3    H118049   7.078   3.819   3.499
 6036TIP3    H218050   7.047   3.683   3.558
 6037TIP3   OH218051   1.198   4.230   2.646
 6037TIP3    H118052   1.148   4.270   2.575
 6037TIP3    H218053   1.221   4.303   2.703
 6038TIP3   OH218054   6.003   4.970   1.972
 6038TIP3    H118055   6.008   5.062   1.944
 6038TIP3    H218056   5.957   4.973   2.055
 6039TIP3   OH218057   7.236   5.116   6.591
 6039TIP3    H118058   7.171   5.149   6.653
 6039TIP3    H218059   7.212   5.024   6.579
 6040TIP3   OH218060   2.019   3.659   6.600
 6040TIP3    H118061   2.049   3.674   6.511
 6040TIP3    H218062   2.099   3.660   6.653
 6041TIP3   OH218063   6.718   2.027   2.364
 6041TIP3    H118064   6.640   2.075   2.391
 6041TIP3    H218065   6.703   2.008   2.271
 6042TIP3   OH218066   2.388   6.150   1.198
 6042TIP3    H118067   2.400   6.086   1.128
 6042TIP3    H218068   2.353   6.227   1.153
 6043TIP3   OH218069   0.781   1.412   5.504
 6043TIP3    H118070   0.712   1.477   5.520
 6043TIP3    H218071   0.737   1.340   5.459
 6044TIP3   OH218072   7.402   1.981   6.365
 6044TIP3    H118073   7.457   1.986   6.443
 6044TIP3    H218074   7.465   1.985   6.292
 6045TIP3   OH218075   4.472   0.052   3.025
 6045TIP3    H118076   4.547   0.068   3.082
 6045TIP3    H218077   4.405   0.114   3.055
 6046TIP3   OH218078   3.715   1.442   5.653
 6046TIP3    H118079   3.775   1.443   5.728
 6046TIP3    H218080   3.759   1.494   5.586
 6047TIP3   OH218081   1.794   7.349   3.399
 6047TIP3    H118082   1.716   7.404   3.390
 6047TIP3    H218083   1.840   7.386   3.475
 6048TIP3   OH218084   2.686   3.992   0.216
 6048TIP3    H118085   2.683   3.998   0.121
 6048TIP3    H218086   2.763   3.937   0.235
 6049TIP3   OH218087   1.579   0.461   4.848
 6049TIP3    H118088   1.575   0.556   4.863
 6049TIP3    H218089   1.624   0.451   4.765
 6050TIP3   OH218090   0.291   6.852   2.649
 6050TIP3    H118091   0.384   6.872   2.635
 6050TIP3    H218092   0.290   6.763   2.684
 6051TIP3   OH218093   6.683   5.807   2.884
 6051TIP3    H118094   6.636   5.843   2.959
 6051TIP3    H218095   6.775   5.830   2.899
 6052TIP3   OH218096   1.378   4.355   5.875
 6052TIP3    H118097   1.355   4.272   5.916
 6052TIP3    H218098   1.366   4.339   5.781
 6053TIP3   OH218099   0.709   2.901   5.987
 6053TIP3    H118100   0.763   2.944   5.920
 6053TIP3    H218101   0.619   2.913   5.957
 6054TIP3   OH218102   5.850   7.469   2.935
 6054TIP3    H118103   5.855   7.445   2.842
 6054TIP3    H218104   5.936   7.505   2.956
 6055TIP3   OH218105   5.575   4.801   1.001
 6055TIP3    H118106   5.606   4.885   1.034
 6055TIP3    H218107   5.540   4.821   0.914
 6056TIP3   OH218108   4.127   7.861   1.859
 6056TIP3    H118109   4.216   7.839   1.831
 6056TIP3    H218110   4.135   7.876   1.953
 6057TIP3   OH218111   0.914   2.249   6.703
 6057TIP3    H118112   0.985   2.190   6.729
 6057TIP3    H218113   0.949   2.294   6.626
 6058TIP3   OH218114   4.377   4.948   1.917
 6058TIP3    H118115   4.400   4.986   1.832
 6058TIP3    H218116   4.406   5.013   1.981
 6059TIP3   OH218117   4.020   0.761   2.988
 6059TIP3    H118118   3.935   0.722   3.011
 6059TIP3    H218119   3.997   0.847   2.952
 6060TIP3   OH218120   5.207   0.797   0.032
 6060TIP3    H118121   5.270   0.823  -0.035
 6060TIP3    H218122   5.196   0.875   0.086
 6061TIP3   OH218123   7.553   4.924   1.764
 6061TIP3    H118124   7.595   5.008   1.742
 6061TIP3    H218125   7.461   4.938   1.743
 6062TIP3   OH218126   7.539   4.109   1.253
 6062TIP3    H118127   7.502   4.093   1.166
 6062TIP3    H218128   7.473   4.074   1.314
 6063TIP3   OH218129   8.102   4.141   0.911
 6063TIP3    H118130   8.164   4.077   0.947
 6063TIP3    H218131   8.145   4.176   0.833
 6064TIP3   OH218132   3.427   6.542   2.251
 6064TIP3    H118133   3.439   6.479   2.322
 6064TIP3    H218134   3.516   6.560   2.220
 6065TIP3   OH218135   7.475   6.250   4.059
 6065TIP3    H118136   7.509   6.276   4.145
 6065TIP3    H218137   7.396   6.303   4.047
 6066TIP3   OH218138   2.022   3.516   6.261
 6066TIP3    H118139   1.980   3.464   6.192
 6066TIP3    H218140   1.996   3.474   6.343
 6067TIP3   OH218141   4.383   1.509   3.395
 6067TIP3    H118142   4.420   1.442   3.453
 6067TIP3    H218143   4.289   1.505   3.410
 6068TIP3   OH218144   7.435   3.296   3.883
 6068TIP3    H118145   7.489   3.253   3.949
 6068TIP3    H218146   7.445   3.390   3.902
 6069TIP3   OH218147   2.434   3.878   4.303
 6069TIP3    H118148   2.483   3.812   4.254
 6069TIP3    H218149   2.342   3.862   4.280
 6070TIP3   OH218150   4.255   3.963   5.825
 6070TIP3    H118151   4.186   4.029   5.838
 6070TIP3    H218152   4.262   3.919   5.910
 6071TIP3   OH218153   4.345   7.709   1.779
 6071TIP3    H118154   4.439   7.714   1.797
 6071TIP3    H218155   4.326   7.615   1.773
 6072TIP3   OH218156   6.412   5.437   4.656
 6072TIP3    H118157   6.447   5.487   4.582
 6072TIP3    H218158   6.346   5.494   4.694
 6073TIP3   OH218159   3.565   1.845   3.394
 6073TIP3    H118160   3.636   1.909   3.399
 6073TIP3    H218161   3.508   1.877   3.325
 6074TIP3   OH218162   7.602   2.625   2.242
 6074TIP3    H118163   7.616   2.657   2.332
 6074TIP3    H218164   7.669   2.669   2.191
 6075TIP3   OH218165   6.599   5.140   0.558
 6075TIP3    H118166   6.655   5.154   0.634
 6075TIP3    H218167   6.639   5.193   0.489
 6076TIP3   OH218168   7.500   2.309   4.867
 6076TIP3    H118169   7.437   2.281   4.933
 6076TIP3    H218170   7.449   2.319   4.787
 6077TIP3   OH218171   0.932   5.773   1.249
 6077TIP3    H118172   0.978   5.856   1.252
 6077TIP3    H218173   0.988   5.716   1.197
 6078TIP3   OH218174   2.884   3.833   5.723
 6078TIP3    H118175   2.821   3.901   5.700
 6078TIP3    H218176   2.969   3.873   5.707
 6079TIP3   OH218177   4.779   0.543   1.856
 6079TIP3    H118178   4.731   0.626   1.848
 6079TIP3    H218179   4.869   0.566   1.836
 6080TIP3   OH218180   7.836   7.149   6.465
 6080TIP3    H118181   7.841   7.214   6.395
 6080TIP3    H218182   7.743   7.134   6.479
 6081TIP3   OH218183   7.476   6.843   5.328
 6081TIP3    H118184   7.441   6.913   5.273
 6081TIP3    H218185   7.428   6.765   5.299
 6082TIP3   OH218186   0.831   3.064   0.245
 6082TIP3    H118187   0.820   3.015   0.164
 6082TIP3    H218188   0.746   3.061   0.288
 6083TIP3   OH218189   3.412   4.884   1.580
 6083TIP3    H118190   3.428   4.799   1.541
 6083TIP3    H218191   3.329   4.874   1.627
 6084TIP3   OH218192   8.239   5.951   3.040
 6084TIP3    H118193   8.226   5.856   3.036
 6084TIP3    H218194   8.229   5.973   3.132
 6085TIP3   OH218195   1.231   2.155   1.733
 6085TIP3    H118196   1.207   2.062   1.729
 6085TIP3    H218197   1.262   2.168   1.823
 6086TIP3   OH218198   3.758   7.825   0.009
 6086TIP3    H118199   3.729   7.898   0.063
 6086TIP3    H218200   3.787   7.758   0.071
 6087TIP3   OH218201   4.338   2.591   1.609
 6087TIP3    H118202   4.401   2.544   1.555
 6087TIP3    H218203   4.354   2.683   1.590
 6088TIP3   OH218204   5.730   6.491   4.407
 6088TIP3    H118205   5.677   6.539   4.344
 6088TIP3    H218206   5.818   6.493   4.370
 6089TIP3   OH218207   0.451   3.364   0.354
 6089TIP3    H118208   0.452   3.454   0.386
 6089TIP3    H218209   0.459   3.372   0.259
 6090TIP3   OH218210   7.078   2.773   0.795
 6090TIP3    H118211   7.040   2.691   0.826
 6090TIP3    H218212   7.163   2.778   0.838
 6091TIP3   OH218213   4.765   0.637   4.286
 6091TIP3    H118214   4.750   0.579   4.211
 6091TIP3    H218215   4.744   0.725   4.253
 6092TIP3   OH218216   2.152   7.735   0.494
 6092TIP3    H118217   2.183   7.664   0.550
 6092TIP3    H218218   2.178   7.708   0.406
 6093TIP3   OH218219   4.082   2.105   0.152
 6093TIP3    H118220   4.030   2.087   0.231
 6093TIP3    H218221   4.027   2.165   0.102
 6094TIP3   OH218222   2.595   0.303   2.909
 6094TIP3    H118223   2.530   0.356   2.955
 6094TIP3    H218224   2.572   0.212   2.931
 6095TIP3   OH218225   1.049   0.106   1.264
 6095TIP3    H118226   1.001   0.126   1.344
 6095TIP3    H218227   1.103   0.184   1.249
 6096TIP3   OH218228   7.069   4.752   3.456
 6096TIP3    H118229   6.983   4.784   3.429
 6096TIP3    H218230   7.050   4.679   3.515
 6097TIP3   OH218231   1.896   0.907   5.656
 6097TIP3    H118232   1.830   0.889   5.723
 6097TIP3    H218233   1.863   0.865   5.577
 6098TIP3   OH218234   3.554   1.132   3.948
 6098TIP3    H118235   3.592   1.196   4.007
 6098TIP3    H218236   3.567   1.168   3.860
 6099TIP3   OH218237   6.173   7.862   3.675
 6099TIP3    H118238   6.126   7.794   3.628
 6099TIP3    H218239   6.185   7.827   3.764
 6100TIP3   OH218240   5.376   0.978   2.745
 6100TIP3    H118241   5.346   0.887   2.748
 6100TIP3    H218242   5.459   0.978   2.794
 6101TIP3   OH218243   6.487   6.303   5.597
 6101TIP3    H118244   6.514   6.373   5.537
 6101TIP3    H218245   6.499   6.222   5.546
 6102TIP3   OH218246   6.650   5.217   3.662
 6102TIP3    H118247   6.639   5.275   3.737
 6102TIP3    H218248   6.742   5.191   3.665
 6103TIP3   OH218249   5.331   1.467   3.236
 6103TIP3    H118250   5.417   1.427   3.249
 6103TIP3    H218251   5.327   1.538   3.300
 6104TIP3   OH218252   0.539   6.696   1.784
 6104TIP3    H118253   0.614   6.640   1.802
 6104TIP3    H218254   0.562   6.742   1.703
 6105TIP3   OH218255   4.557   3.810   5.045
 6105TIP3    H118256   4.601   3.729   5.018
 6105TIP3    H218257   4.464   3.792   5.033
 6106TIP3   OH218258   7.355   5.226   0.138
 6106TIP3    H118259   7.349   5.257   0.048
 6106TIP3    H218260   7.449   5.227   0.158
 6107TIP3   OH218261   1.437   1.697   0.963
 6107TIP3    H118262   1.529   1.697   0.990
 6107TIP3    H218263   1.437   1.652   0.878
 6108TIP3   OH218264   5.861   1.633   6.087
 6108TIP3    H118265   5.843   1.577   6.011
 6108TIP3    H218266   5.775   1.652   6.123
 6109TIP3   OH218267   1.485   2.763   6.432
 6109TIP3    H118268   1.498   2.698   6.501
 6109TIP3    H218269   1.571   2.770   6.390
 6110TIP3   OH218270   3.644   4.787   5.651
 6110TIP3    H118271   3.664   4.808   5.560
 6110TIP3    H218272   3.549   4.780   5.654
 6111TIP3   OH218273   2.487   6.711   3.013
 6111TIP3    H118274   2.502   6.715   3.107
 6111TIP3    H218275   2.464   6.801   2.989
 6112TIP3   OH218276   5.256   2.763   3.704
 6112TIP3    H118277   5.284   2.844   3.662
 6112TIP3    H218278   5.292   2.694   3.649
 6113TIP3   OH218279   5.643   1.508   5.706
 6113TIP3    H118280   5.707   1.566   5.666
 6113TIP3    H218281   5.675   1.420   5.686
 6114TIP3   OH218282   2.937   2.062   5.887
 6114TIP3    H118283   2.860   2.112   5.916
 6114TIP3    H218284   2.903   1.975   5.867
 6115TIP3   OH218285   7.765   0.614   0.054
 6115TIP3    H118286   7.816   0.547   0.100
 6115TIP3    H218287   7.690   0.631   0.112
 6116TIP3   OH218288   4.457   2.463   2.771
 6116TIP3    H118289   4.431   2.438   2.682
 6116TIP3    H218290   4.552   2.449   2.772
 6117TIP3   OH218291   2.104   1.155   0.671
 6117TIP3    H118292   2.050   1.175   0.748
 6117TIP3    H218293   2.194   1.155   0.704
 6118TIP3   OH218294   1.708   4.150   3.318
 6118TIP3    H118295   1.729   4.188   3.233
 6118TIP3    H218296   1.615   4.168   3.331
 6119TIP3   OH218297   4.993   6.430   0.019
 6119TIP3    H118298   4.986   6.403   0.111
 6119TIP3    H218299   5.052   6.505   0.021
 6120TIP3   OH218300   4.694   6.725   0.863
 6120TIP3    H118301   4.728   6.797   0.811
 6120TIP3    H218302   4.603   6.749   0.882
 6121TIP3   OH218303   2.290   2.216   6.090
 6121TIP3    H118304   2.341   2.281   6.140
 6121TIP3    H218305   2.303   2.134   6.137
 6122TIP3   OH218306   1.560   2.485   4.930
 6122TIP3    H118307   1.563   2.502   4.836
 6122TIP3    H218308   1.641   2.523   4.964
 6123TIP3   OH218309   7.866   3.268   5.171
 6123TIP3    H118310   7.961   3.280   5.169
 6123TIP3    H218311   7.832   3.353   5.197
 6124TIP3   OH218312   5.328   6.679   1.305
 6124TIP3    H118313   5.325   6.589   1.275
 6124TIP3    H218314   5.419   6.706   1.293
 6125TIP3   OH218315   4.589   3.232   6.041
 6125TIP3    H118316   4.629   3.151   6.073
 6125TIP3    H218317   4.660   3.296   6.043
 6126TIP3   OH218318   1.435   4.418   2.997
 6126TIP3    H118319   1.376   4.354   3.037
 6126TIP3    H218320   1.449   4.385   2.908
 6127TIP3   OH218321   1.605   1.387   1.993
 6127TIP3    H118322   1.567   1.460   2.043
 6127TIP3    H218323   1.554   1.384   1.912
 6128TIP3   OH218324   7.032   4.502   2.532
 6128TIP3    H118325   7.059   4.581   2.577
 6128TIP3    H218326   7.056   4.517   2.440
 6129TIP3   OH218327   1.714   7.248   0.793
 6129TIP3    H118328   1.806   7.249   0.769
 6129TIP3    H218329   1.703   7.321   0.854
 6130TIP3   OH218330   2.568   5.827   1.327
 6130TIP3    H118331   2.588   5.844   1.419
 6130TIP3    H218332   2.641   5.867   1.279
 6131TIP3   OH218333   7.624   6.636   2.197
 6131TIP3    H118334   7.550   6.592   2.154
 6131TIP3    H218335   7.614   6.614   2.290
 6132TIP3   OH218336   6.595   2.195   6.492
 6132TIP3    H118337   6.566   2.234   6.574
 6132TIP3    H218338   6.596   2.267   6.429
 6133TIP3   OH218339   1.128   6.305   2.047
 6133TIP3    H118340   1.118   6.400   2.036
 6133TIP3    H218341   1.056   6.281   2.106
 6134TIP3   OH218342   0.459   6.003   6.716
 6134TIP3    H118343   0.505   5.978   6.796
 6134TIP3    H218344   0.376   6.040   6.746
 6135TIP3   OH218345   7.289   0.030   2.952
 6135TIP3    H118346   7.304  -0.064   2.937
 6135TIP3    H218347   7.203   0.047   2.912
 6136TIP3   OH218348   4.429   3.832   6.271
 6136TIP3    H118349   4.380   3.904   6.233
 6136TIP3    H218350   4.372   3.797   6.339
 6137TIP3   OH218351   3.179   7.157   0.799
 6137TIP3    H118352   3.202   7.098   0.727
 6137TIP3    H218353   3.083   7.162   0.796
 6138TIP3   OH218354   2.954   4.925   1.984
 6138TIP3    H118355   3.008   5.002   1.998
 6138TIP3    H218356   2.980   4.864   2.054
 6139TIP3   OH218357   4.986   6.015   4.463
 6139TIP3    H118358   4.991   6.049   4.374
 6139TIP3    H218359   5.076   6.018   4.495
 6140TIP3   OH218360   0.771   7.519   0.215
 6140TIP3    H118361   0.725   7.565   0.285
 6140TIP3    H218362   0.794   7.587   0.152
 6141TIP3   OH218363   5.911   0.883   4.124
 6141TIP3    H118364   5.941   0.920   4.041
 6141TIP3    H218365   5.849   0.949   4.158
 6142TIP3   OH218366   1.814   1.176   2.527
 6142TIP3    H118367   1.720   1.191   2.526
 6142TIP3    H218368   1.847   1.226   2.452
 6143TIP3   OH218369   5.214   5.758   0.554
 6143TIP3    H118370   5.236   5.815   0.480
 6143TIP3    H218371   5.258   5.798   0.629
 6144TIP3   OH218372   0.599   5.864   0.287
 6144TIP3    H118373   0.658   5.939   0.296
 6144TIP3    H218374   0.562   5.853   0.374
 6145TIP3   OH218375   6.906   6.019   3.400
 6145TIP3    H118376   6.892   6.112   3.420
 6145TIP3    H218377   6.854   5.972   3.466
 6146TIP3   OH218378   6.763   4.077   3.186
 6146TIP3    H118379   6.853   4.106   3.195
 6146TIP3    H218380   6.712   4.159   3.180
 6147TIP3   OH218381   0.515   2.111   6.273
 6147TIP3    H118382   0.512   2.139   6.364
 6147TIP3    H218383   0.559   2.183   6.227
 6148TIP3   OH218384   2.226   5.313   0.502
 6148TIP3    H118385   2.312   5.299   0.462
 6148TIP3    H218386   2.182   5.229   0.493
 6149TIP3   OH218387   0.570   4.844   1.587
 6149TIP3    H118388   0.621   4.779   1.538
 6149TIP3    H218389   0.490   4.855   1.535
 6150TIP3   OH218390   3.499   5.780   5.337
 6150TIP3    H118391   3.443   5.708   5.309
 6150TIP3    H218392   3.588   5.745   5.334
 6151TIP3   OH218393   5.467   2.766   4.450
 6151TIP3    H118394   5.389   2.770   4.505
 6151TIP3    H218395   5.436   2.787   4.362
 6152TIP3   OH218396   5.930   2.508   4.119
 6152TIP3    H118397   5.871   2.494   4.192
 6152TIP3    H218398   5.946   2.603   4.119
 6153TIP3   OH218399   3.753   6.942   4.367
 6153TIP3    H118400   3.709   7.021   4.398
 6153TIP3    H218401   3.846   6.965   4.368
 6154TIP3   OH218402   1.222   0.337   4.673
 6154TIP3    H118403   1.209   0.246   4.700
 6154TIP3    H218404   1.252   0.381   4.753
 6155TIP3   OH218405   1.068   5.619   4.507
 6155TIP3    H118406   1.147   5.651   4.550
 6155TIP3    H218407   1.045   5.539   4.554
 6156TIP3   OH218408   6.070   5.059   6.471
 6156TIP3    H118409   6.147   5.014   6.436
 6156TIP3    H218410   6.042   5.005   6.545
 6157TIP3   OH218411   6.561   3.491   5.806
 6157TIP3    H118412   6.574   3.568   5.862
 6157TIP3    H218413   6.473   3.503   5.770
 6158TIP3   OH218414   4.281   2.655   2.601
 6158TIP3    H118415   4.234   2.595   2.659
 6158TIP3    H218416   4.326   2.715   2.659
 6159TIP3   OH218417   3.644   5.486   1.832
 6159TIP3    H118418   3.649   5.442   1.748
 6159TIP3    H218419   3.579   5.555   1.820
 6160TIP3   OH218420   1.015   6.406   6.133
 6160TIP3    H118421   1.064   6.480   6.169
 6160TIP3    H218422   0.932   6.407   6.180
 6161TIP3   OH218423   4.193   0.162   5.075
 6161TIP3    H118424   4.199   0.177   4.981
 6161TIP3    H218425   4.106   0.194   5.099
 6162TIP3   OH218426   5.245   6.749   3.602
 6162TIP3    H118427   5.177   6.817   3.609
 6162TIP3    H218428   5.208   6.685   3.541
 6163TIP3   OH218429   6.449   0.382   1.353
 6163TIP3    H118430   6.522   0.322   1.339
 6163TIP3    H218431   6.378   0.347   1.299
 6164TIP3   OH218432   1.505   4.212   0.568
 6164TIP3    H118433   1.548   4.129   0.587
 6164TIP3    H218434   1.496   4.255   0.653
 6165TIP3   OH218435   3.166   2.456   1.301
 6165TIP3    H118436   3.189   2.512   1.227
 6165TIP3    H218437   3.108   2.389   1.263
 6166TIP3   OH218438   7.421   2.124   4.035
 6166TIP3    H118439   7.414   2.085   4.122
 6166TIP3    H218440   7.427   2.050   3.975
 6167TIP3   OH218441   7.553   5.462   4.417
 6167TIP3    H118442   7.529   5.498   4.502
 6167TIP3    H218443   7.530   5.370   4.423
 6168TIP3   OH218444   6.846   4.747   6.360
 6168TIP3    H118445   6.854   4.824   6.304
 6168TIP3    H218446   6.910   4.684   6.325
 6169TIP3   OH218447   4.299   5.080   6.109
 6169TIP3    H118448   4.222   5.046   6.064
 6169TIP3    H218449   4.265   5.154   6.160
 6170TIP3   OH218450   8.375   2.805   1.572
 6170TIP3    H118451   8.298   2.753   1.596
 6170TIP3    H218452   8.445   2.741   1.562
 6171TIP3   OH218453   5.665   3.906   4.212
 6171TIP3    H118454   5.601   3.876   4.277
 6171TIP3    H218455   5.741   3.934   4.264
 6172TIP3   OH218456   0.630   5.306   1.375
 6172TIP3    H118457   0.659   5.246   1.306
 6172TIP3    H218458   0.640   5.257   1.456
 6173TIP3   OH218459   4.615   0.405   4.287
 6173TIP3    H118460   4.653   0.490   4.311
 6173TIP3    H218461   4.645   0.345   4.355
 6174TIP3   OH218462   4.873   7.656   2.984
 6174TIP3    H118463   4.966   7.637   2.971
 6174TIP3    H218464   4.827   7.583   2.943
 6175TIP3   OH218465   5.657   4.137   6.610
 6175TIP3    H118466   5.634   4.206   6.548
 6175TIP3    H218467   5.612   4.059   6.578
 6176TIP3   OH218468   3.596   6.287   1.511
 6176TIP3    H118469   3.588   6.363   1.454
 6176TIP3    H218470   3.515   6.238   1.499
 6177TIP3   OH218471   6.145   1.390   4.820
 6177TIP3    H118472   6.154   1.367   4.912
 6177TIP3    H218473   6.101   1.315   4.780
 6178TIP3   OH218474   2.451   1.126   5.865
 6178TIP3    H118475   2.507   1.050   5.853
 6178TIP3    H218476   2.366   1.100   5.829
 6179TIP3   OH218477   1.385   4.601   6.632
 6179TIP3    H118478   1.294   4.587   6.658
 6179TIP3    H218479   1.431   4.523   6.664
 6180TIP3   OH218480   8.036   6.081   1.615
 6180TIP3    H118481   8.004   6.118   1.696
 6180TIP3    H218482   8.107   6.139   1.588
 6181TIP3   OH218483   8.018   5.397   3.983
 6181TIP3    H118484   7.974   5.345   4.050
 6181TIP3    H218485   8.039   5.480   4.026
 6182TIP3   OH218486   5.513   7.251   4.521
 6182TIP3    H118487   5.594   7.234   4.474
 6182TIP3    H218488   5.509   7.183   4.588
 6183TIP3   OH218489   4.766   2.534   6.780
 6183TIP3    H118490   4.788   2.457   6.834
 6183TIP3    H218491   4.680   2.514   6.745
 6184TIP3   OH218492   1.832   4.295   2.261
 6184TIP3    H118493   1.745   4.318   2.296
 6184TIP3    H218494   1.826   4.201   2.241
 6185TIP3   OH218495   6.244   0.688   6.176
 6185TIP3    H118496   6.293   0.727   6.104
 6185TIP3    H218497   6.300   0.700   6.253
 6186TIP3   OH218498   3.859   4.500   3.412
 6186TIP3    H118499   3.882   4.583   3.370
 6186TIP3    H218500   3.810   4.526   3.490
 6187TIP3   OH218501   5.546   3.549   0.179
 6187TIP3    H118502   5.602   3.591   0.113
 6187TIP3    H218503   5.494   3.486   0.129
 6188TIP3   OH218504   7.051   0.973   1.201
 6188TIP3    H118505   7.123   0.911   1.200
 6188TIP3    H218506   6.973   0.919   1.218
 6189TIP3   OH218507   0.214   4.055   4.706
 6189TIP3    H118508   0.265   3.976   4.685
 6189TIP3    H218509   0.227   4.067   4.800
 6190TIP3   OH218510   0.386   3.526   6.184
 6190TIP3    H118511   0.302   3.545   6.143
 6190TIP3    H218512   0.399   3.432   6.171
 6191TIP3   OH218513   2.500   5.219   0.859
 6191TIP3    H118514   2.570   5.182   0.913
 6191TIP3    H218515   2.546   5.263   0.787
 6192TIP3   OH218516   7.302   6.489   0.982
 6192TIP3    H118517   7.245   6.566   0.988
 6192TIP3    H218518   7.248   6.422   0.940
 6193TIP3   OH218519   0.755   1.133   1.457
 6193TIP3    H118520   0.781   1.204   1.516
 6193TIP3    H218521   0.720   1.177   1.380
 6194TIP3   OH218522   1.559   0.294   3.729
 6194TIP3    H118523   1.489   0.357   3.712
 6194TIP3    H218524   1.639   0.340   3.701
 6195TIP3   OH218525   4.831   1.558   3.110
 6195TIP3    H118526   4.821   1.474   3.065
 6195TIP3    H218527   4.903   1.545   3.171
 6196TIP3   OH218528   0.959   1.299   4.869
 6196TIP3    H118529   1.019   1.326   4.939
 6196TIP3    H218530   1.003   1.325   4.789
 6197TIP3   OH218531   1.063   4.735   5.918
 6197TIP3    H118532   1.128   4.754   5.986
 6197TIP3    H218533   1.055   4.817   5.870
 6198TIP3   OH218534   1.833   3.317   5.708
 6198TIP3    H118535   1.910   3.289   5.659
 6198TIP3    H218536   1.831   3.412   5.699
 6199TIP3   OH218537   8.057   7.098   6.023
 6199TIP3    H118538   8.095   7.066   6.105
 6199TIP3    H218539   7.985   7.155   6.052
 6200TIP3   OH218540   1.207   4.107   4.702
 6200TIP3    H118541   1.238   4.177   4.759
 6200TIP3    H218542   1.236   4.133   4.615
 6201TIP3   OH218543   1.276   3.565   6.419
 6201TIP3    H118544   1.347   3.627   6.432
 6201TIP3    H218545   1.312   3.481   6.448
 6202TIP3   OH218546   1.806   0.492   5.685
 6202TIP3    H118547   1.718   0.475   5.652
 6202TIP3    H218548   1.864   0.469   5.613
 6203TIP3   OH218549   0.444   1.253   1.592
 6203TIP3    H118550   0.396   1.186   1.642
 6203TIP3    H218551   0.402   1.255   1.507
 6204TIP3   OH218552   5.692   4.290   2.040
 6204TIP3    H118553   5.619   4.293   2.102
 6204TIP3    H218554   5.678   4.210   1.991
 6205TIP3   OH218555   8.363   3.243   3.217
 6205TIP3    H118556   8.309   3.236   3.295
 6205TIP3    H218557   8.382   3.153   3.192
 6206TIP3   OH218558   3.859   5.761   1.613
 6206TIP3    H118559   3.791   5.807   1.662
 6206TIP3    H218560   3.937   5.815   1.624
 6207TIP3   OH218561   7.069   7.241   3.100
 6207TIP3    H118562   7.119   7.320   3.076
 6207TIP3    H218563   7.036   7.207   3.017
 6208TIP3   OH218564   0.357   1.752   3.673
 6208TIP3    H118565   0.284   1.789   3.623
 6208TIP3    H218566   0.327   1.666   3.701
 6209TIP3   OH218567   1.623   4.852   1.207
 6209TIP3    H118568   1.530   4.836   1.189
 6209TIP3    H218569   1.624   4.892   1.294
 6210TIP3   OH218570   5.737   6.127   0.660
 6210TIP3    H118571   5.718   6.040   0.695
 6210TIP3    H218572   5.651   6.164   0.641
 6211TIP3   OH218573   8.201   4.446   2.146
 6211TIP3    H118574   8.256   4.368   2.154
 6211TIP3    H218575   8.258   4.511   2.104
 6212TIP3   OH218576   4.470   1.597   1.888
 6212TIP3    H118577   4.440   1.628   1.973
 6212TIP3    H218578   4.554   1.641   1.874
 6213TIP3   OH218579   2.226   2.059   6.691
 6213TIP3    H118580   2.213   1.986   6.751
 6213TIP3    H218581   2.266   2.127   6.745
 6214TIP3   OH218582   6.336   3.649   0.057
 6214TIP3    H118583   6.307   3.566   0.019
 6214TIP3    H218584   6.431   3.650   0.043
 6215TIP3   OH218585   3.894   1.448   4.293
 6215TIP3    H118586   3.896   1.353   4.281
 6215TIP3    H218587   3.952   1.465   4.367
 6216TIP3   OH218588   0.187   0.078   6.594
 6216TIP3    H118589   0.145   0.003   6.637
 6216TIP3    H218590   0.148   0.080   6.507
 6217TIP3   OH218591   0.778   1.181   1.886
 6217TIP3    H118592   0.824   1.167   1.968
 6217TIP3    H218593   0.701   1.234   1.911
 6218TIP3   OH218594   4.367   5.868   1.860
 6218TIP3    H118595   4.414   5.908   1.934
 6218TIP3    H218596   4.288   5.830   1.899
 6219TIP3   OH218597   3.460   5.256   4.819
 6219TIP3    H118598   3.405   5.257   4.897
 6219TIP3    H218599   3.540   5.211   4.846
 6220TIP3   OH218600   2.025   5.770   2.932
 6220TIP3    H118601   2.114   5.792   2.905
 6220TIP3    H218602   1.969   5.819   2.873
 6221TIP3   OH218603   2.651   1.676   4.255
 6221TIP3    H118604   2.606   1.621   4.320
 6221TIP3    H218605   2.744   1.664   4.273
 6222TIP3   OH218606   0.809   1.521   4.889
 6222TIP3    H118607   0.817   1.427   4.906
 6222TIP3    H218608   0.896   1.556   4.907
 6223TIP3   OH218609   3.845   0.758   4.867
 6223TIP3    H118610   3.937   0.762   4.839
 6223TIP3    H218611   3.850   0.744   4.961
 6224TIP3   OH218612   3.397   4.428   2.951
 6224TIP3    H118613   3.393   4.379   3.032
 6224TIP3    H218614   3.361   4.369   2.885
 6225TIP3   OH218615   3.711   0.704   0.931
 6225TIP3    H118616   3.648   0.634   0.946
 6225TIP3    H218617   3.693   0.767   1.001
 6226TIP3   OH218618   5.531   6.596   3.348
 6226TIP3    H118619   5.526   6.658   3.421
 6226TIP3    H218620   5.616   6.612   3.308
 6227TIP3   OH218621   5.218   7.504   3.159
 6227TIP3    H118622   5.280   7.541   3.222
 6227TIP3    H218623   5.194   7.577   3.103
 6228TIP3   OH218624   8.215   1.775   2.149
 6228TIP3    H118625   8.178   1.693   2.182
 6228TIP3    H218626   8.158   1.843   2.186
 6229TIP3   OH218627   5.788   5.048   4.277
 6229TIP3    H118628   5.828   5.112   4.218
 6229TIP3    H218629   5.834   4.966   4.258
 6230TIP3   OH218630   6.623   0.441   2.714
 6230TIP3    H118631   6.537   0.472   2.744
 6230TIP3    H218632   6.684   0.509   2.742
 6231TIP3   OH218633   5.530   0.453   0.240
 6231TIP3    H118634   5.495   0.504   0.167
 6231TIP3    H218635   5.558   0.371   0.200
 6232TIP3   OH218636   0.085   0.111   2.821
 6232TIP3    H118637   0.170   0.154   2.813
 6232TIP3    H218638   0.065   0.115   2.914
 6233TIP3   OH218639   1.092   6.286   6.628
 6233TIP3    H118640   1.045   6.363   6.659
 6233TIP3    H218641   1.024   6.228   6.595
 6234TIP3   OH218642   1.319   0.378   2.220
 6234TIP3    H118643   1.408   0.403   2.194
 6234TIP3    H218644   1.321   0.380   2.316
 6235TIP3   OH218645   4.228   6.855   2.988
 6235TIP3    H118646   4.304   6.816   3.032
 6235TIP3    H218647   4.239   6.829   2.896
 6236TIP3   OH218648   6.926   5.511   2.275
 6236TIP3    H118649   6.854   5.574   2.283
 6236TIP3    H218650   6.891   5.430   2.311
 6237TIP3   OH218651   3.708   2.977   0.580
 6237TIP3    H118652   3.724   2.884   0.561
 6237TIP3    H218653   3.790   3.007   0.620
 6238TIP3   OH218654   3.278   5.209   1.810
 6238TIP3    H118655   3.235   5.144   1.753
 6238TIP3    H218656   3.365   5.173   1.826
 6239TIP3   OH218657   8.246   4.930   0.466
 6239TIP3    H118658   8.233   5.022   0.488
 6239TIP3    H218659   8.180   4.883   0.516
 6240TIP3   OH218660   7.743   2.621   1.561
 6240TIP3    H118661   7.681   2.599   1.491
 6240TIP3    H218662   7.762   2.714   1.548
 6241TIP3   OH218663   0.319   6.794   0.201
 6241TIP3    H118664   0.368   6.723   0.243
 6241TIP3    H218665   0.363   6.874   0.231
 6242TIP3   OH218666   4.625   5.029   6.571
 6242TIP3    H118667   4.694   4.990   6.517
 6242TIP3    H218668   4.575   5.083   6.510
 6243TIP3   OH218669   0.584   0.150   1.717
 6243TIP3    H118670   0.658   0.090   1.720
 6243TIP3    H218671   0.507   0.094   1.711
 6244TIP3   OH218672   6.012   4.066   6.288
 6244TIP3    H118673   5.991   4.135   6.351
 6244TIP3    H218674   5.981   3.985   6.330
 6245TIP3   OH218675   2.249   3.648   3.490
 6245TIP3    H118676   2.202   3.575   3.449
 6245TIP3    H218677   2.274   3.615   3.577
 6246TIP3   OH218678   4.663   3.473   1.745
 6246TIP3    H118679   4.708   3.399   1.786
 6246TIP3    H218680   4.705   3.550   1.784
 6247TIP3   OH218681   0.336   5.326   5.441
 6247TIP3    H118682   0.375   5.395   5.494
 6247TIP3    H218683   0.376   5.335   5.355
 6248TIP3   OH218684   4.115   7.278   1.880
 6248TIP3    H118685   4.149   7.350   1.932
 6248TIP3    H218686   4.020   7.290   1.879
 6249TIP3   OH218687   3.312   3.641   5.072
 6249TIP3    H118688   3.348   3.721   5.034
 6249TIP3    H218689   3.221   3.638   5.042
 6250TIP3   OH218690   5.710   4.598   0.111
 6250TIP3    H118691   5.762   4.559   0.041
 6250TIP3    H218692   5.621   4.567   0.095
 6251TIP3   OH218693   6.103   6.534   6.171
 6251TIP3    H118694   6.152   6.462   6.210
 6251TIP3    H218695   6.028   6.547   6.228
 6252TIP3   OH218696   3.655   0.758   3.710
 6252TIP3    H118697   3.586   0.802   3.760
 6252TIP3    H218698   3.612   0.681   3.672
 6253TIP3   OH218699   6.784   7.143   6.358
 6253TIP3    H118700   6.834   7.212   6.313
 6253TIP3    H218701   6.706   7.187   6.389
 6254TIP3   OH218702   0.283   6.006   2.999
 6254TIP3    H118703   0.372   6.026   3.028
 6254TIP3    H218704   0.286   6.018   2.904
 6255TIP3   OH218705   1.368   5.306   0.685
 6255TIP3    H118706   1.462   5.310   0.703
 6255TIP3    H218707   1.362   5.269   0.597
 6256TIP3   OH218708   2.774   6.020   2.989
 6256TIP3    H118709   2.711   6.006   3.059
 6256TIP3    H218710   2.778   5.936   2.943
 6257TIP3   OH218711   2.619   5.409   2.080
 6257TIP3    H118712   2.629   5.489   2.131
 6257TIP3    H218713   2.606   5.439   1.990
 6258TIP3   OH218714   7.501   0.672   3.610
 6258TIP3    H118715   7.476   0.600   3.553
 6258TIP3    H218716   7.440   0.742   3.589
 6259TIP3   OH218717   7.870   3.005   3.425
 6259TIP3    H118718   7.917   2.984   3.344
 6259TIP3    H218719   7.810   3.076   3.400
 6260TIP3   OH218720   3.667   2.728   1.662
 6260TIP3    H118721   3.746   2.676   1.681
 6260TIP3    H218722   3.638   2.758   1.748
 6261TIP3   OH218723   4.702   4.871   4.280
 6261TIP3    H118724   4.753   4.817   4.339
 6261TIP3    H218725   4.699   4.822   4.198
 6262TIP3   OH218726   3.586   5.514   6.700
 6262TIP3    H118727   3.635   5.469   6.769
 6262TIP3    H218728   3.558   5.444   6.641
 6263TIP3   OH218729   5.116   2.824   5.670
 6263TIP3    H118730   5.140   2.755   5.608
 6263TIP3    H218731   5.102   2.777   5.753
 6264TIP3   OH218732   4.573   5.108   5.248
 6264TIP3    H118733   4.532   5.027   5.217
 6264TIP3    H218734   4.505   5.149   5.302
 6265TIP3   OH218735   7.914   1.381   5.579
 6265TIP3    H118736   7.912   1.298   5.530
 6265TIP3    H218737   7.993   1.425   5.546
 6266TIP3   OH218738   1.267   7.834   4.300
 6266TIP3    H118739   1.189   7.874   4.262
 6266TIP3    H218740   1.272   7.748   4.259
 6267TIP3   OH218741   2.863   5.178   6.414
 6267TIP3    H118742   2.788   5.186   6.355
 6267TIP3    H218743   2.880   5.084   6.419
 6268TIP3   OH218744   5.131   4.698   4.676
 6268TIP3    H118745   5.044   4.726   4.706
 6268TIP3    H218746   5.112   4.634   4.607
 6269TIP3   OH218747   4.753   4.458   0.716
 6269TIP3    H118748   4.759   4.512   0.637
 6269TIP3    H218749   4.792   4.374   0.690
 6270TIP3   OH218750   8.413   7.794   1.616
 6270TIP3    H118751   8.338   7.842   1.650
 6270TIP3    H218752   8.394   7.703   1.637
 6271TIP3   OH218753   7.302   6.035   3.943
 6271TIP3    H118754   7.227   6.044   3.885
 6271TIP3    H218755   7.359   6.108   3.920
 6272TIP3   OH218756   5.351   1.586   0.842
 6272TIP3    H118757   5.367   1.493   0.861
 6272TIP3    H218758   5.438   1.626   0.846
 6273TIP3   OH218759   5.946   5.895   5.231
 6273TIP3    H118760   6.031   5.909   5.273
 6273TIP3    H218761   5.901   5.979   5.237
 6274TIP3   OH218762   8.166   0.960   5.613
 6274TIP3    H118763   8.106   0.995   5.679
 6274TIP3    H218764   8.164   0.866   5.627
 6275TIP3   OH218765   5.949   7.158   1.218
 6275TIP3    H118766   5.901   7.135   1.139
 6275TIP3    H218767   5.956   7.076   1.267
 6276TIP3   OH218768   4.875   7.189   6.523
 6276TIP3    H118769   4.924   7.106   6.517
 6276TIP3    H218770   4.906   7.241   6.449
 6277TIP3   OH218771   6.613   6.088   5.116
 6277TIP3    H118772   6.551   6.134   5.173
 6277TIP3    H218773   6.575   6.001   5.103
 6278TIP3   OH218774   0.229   5.073   2.595
 6278TIP3    H118775   0.304   5.100   2.648
 6278TIP3    H218776   0.200   5.154   2.551
 6279TIP3   OH218777   0.059   2.470   5.467
 6279TIP3    H118778   0.004   2.461   5.544
 6279TIP3    H218779   0.007   2.520   5.405
 6280TIP3   OH218780   3.125   3.636   4.356
 6280TIP3    H118781   3.049   3.666   4.306
 6280TIP3    H218782   3.129   3.542   4.340
 6281TIP3   OH218783   7.518   5.661   2.297
 6281TIP3    H118784   7.600   5.635   2.340
 6281TIP3    H218785   7.536   5.749   2.264
 6282TIP3   OH218786   0.118   4.222   0.517
 6282TIP3    H118787   0.171   4.234   0.438
 6282TIP3    H218788   0.180   4.185   0.581
 6283TIP3   OH218789   1.872   4.739   0.139
 6283TIP3    H118790   1.951   4.731   0.086
 6283TIP3    H218791   1.876   4.666   0.201
 6284TIP3   OH218792   6.991   5.926   2.996
 6284TIP3    H118793   7.012   5.835   2.974
 6284TIP3    H218794   7.027   5.938   3.084
 6285TIP3   OH218795   8.334   6.747   6.297
 6285TIP3    H118796   8.273   6.725   6.367
 6285TIP3    H218797   8.280   6.788   6.229
 6286TIP3   OH218798   6.919   2.912   2.955
 6286TIP3    H118799   6.843   2.894   2.899
 6286TIP3    H218800   6.980   2.959   2.899
 6287TIP3   OH218801   5.583   6.310   1.509
 6287TIP3    H118802   5.609   6.258   1.585
 6287TIP3    H218803   5.664   6.323   1.459
 6288TIP3   OH218804   5.614   2.724   4.719
 6288TIP3    H118805   5.596   2.630   4.727
 6288TIP3    H218806   5.594   2.745   4.628
 6289TIP3   OH218807   3.234   2.998   5.322
 6289TIP3    H118808   3.230   3.033   5.233
 6289TIP3    H218809   3.321   3.022   5.353
 6290TIP3   OH218810   3.379   6.467   0.805
 6290TIP3    H118811   3.427   6.448   0.886
 6290TIP3    H218812   3.296   6.505   0.835
 6291TIP3   OH218813   7.339   0.813   6.737
 6291TIP3    H118814   7.300   0.725   6.731
 6291TIP3    H218815   7.342   0.831   6.830
 6292TIP3   OH218816   5.406   5.183   2.269
 6292TIP3    H118817   5.373   5.136   2.192
 6292TIP3    H218818   5.400   5.119   2.340
 6293TIP3   OH218819   5.624   4.372   4.011
 6293TIP3    H118820   5.545   4.399   3.964
 6293TIP3    H218821   5.624   4.277   4.007
 6294TIP3   OH218822   4.545   5.998   2.721
 6294TIP3    H118823   4.482   6.058   2.761
 6294TIP3    H218824   4.551   6.027   2.630
 6295TIP3   OH218825   2.055   6.414   5.029
 6295TIP3    H118826   2.134   6.359   5.034
 6295TIP3    H218827   2.073   6.475   4.957
 6296TIP3   OH218828   7.338   6.020   1.562
 6296TIP3    H118829   7.327   5.930   1.590
 6296TIP3    H218830   7.433   6.035   1.567
 6297TIP3   OH218831   6.110   4.458   0.911
 6297TIP3    H118832   6.166   4.509   0.970
 6297TIP3    H218833   6.064   4.397   0.968
 6298TIP3   OH218834   6.799   2.962   6.776
 6298TIP3    H118835   6.868   3.028   6.767
 6298TIP3    H218836   6.717   3.010   6.759
 6299TIP3   OH218837   8.010   1.087   5.137
 6299TIP3    H118838   8.088   1.061   5.087
 6299TIP3    H218839   7.969   1.005   5.161
 6300TIP3   OH218840   0.608   6.999   6.403
 6300TIP3    H118841   0.519   6.973   6.379
 6300TIP3    H218842   0.653   6.916   6.419
 6301TIP3   OH218843   2.229   4.118   4.011
 6301TIP3    H118844   2.255   4.159   3.929
 6301TIP3    H218845   2.267   4.174   4.079
 6302TIP3   OH218846   8.228   3.213   4.245
 6302TIP3    H118847   8.203   3.294   4.201
 6302TIP3    H218848   8.146   3.179   4.280
 6303TIP3   OH218849   6.678   5.522   1.477
 6303TIP3    H118850   6.615   5.547   1.408
 6303TIP3    H218851   6.690   5.428   1.465
 6304TIP3   OH218852   7.090   2.269   2.349
 6304TIP3    H118853   7.047   2.184   2.349
 6304TIP3    H218854   7.066   2.308   2.434
 6305TIP3   OH218855   0.410   2.411   4.432
 6305TIP3    H118856   0.490   2.443   4.472
 6305TIP3    H218857   0.372   2.487   4.389
 6306TIP3   OH218858   3.886   5.292   3.822
 6306TIP3    H118859   3.814   5.354   3.836
 6306TIP3    H218860   3.920   5.314   3.736
 6307TIP3   OH218861   7.652   7.850   2.611
 6307TIP3    H118862   7.656   7.899   2.528
 6307TIP3    H218863   7.581   7.787   2.597
 6308TIP3   OH218864   5.424   0.057   5.949
 6308TIP3    H118865   5.345   0.062   5.894
 6308TIP3    H218866   5.391   0.059   6.039
 6309TIP3   OH218867   8.137   5.546   4.610
 6309TIP3    H118868   8.051   5.581   4.632
 6309TIP3    H218869   8.119   5.484   4.540
 6310TIP3   OH218870   1.316   1.847   4.120
 6310TIP3    H118871   1.404   1.809   4.127
 6310TIP3    H218872   1.273   1.824   4.203
 6311TIP3   OH218873   1.422   7.119   6.574
 6311TIP3    H118874   1.371   7.079   6.502
 6311TIP3    H218875   1.478   7.048   6.605
 6312TIP3   OH218876   4.551   5.607   4.298
 6312TIP3    H118877   4.641   5.614   4.266
 6312TIP3    H218878   4.539   5.513   4.313
 6313TIP3   OH218879   3.726   0.391   2.327
 6313TIP3    H118880   3.680   0.429   2.402
 6313TIP3    H218881   3.774   0.317   2.363
 6314TIP3   OH218882   0.372   1.580   3.044
 6314TIP3    H118883   0.433   1.513   3.076
 6314TIP3    H218884   0.428   1.648   3.007
 6315TIP3   OH218885   3.043   5.074   1.040
 6315TIP3    H118886   3.118   5.133   1.030
 6315TIP3    H218887   3.027   5.071   1.134
 6316TIP3   OH218888   8.286   7.292   2.282
 6316TIP3    H118889   8.196   7.298   2.250
 6316TIP3    H218890   8.324   7.378   2.265
 6317TIP3   OH218891   5.420   3.741   1.657
 6317TIP3    H118892   5.428   3.751   1.562
 6317TIP3    H218893   5.501   3.778   1.692
 6318TIP3   OH218894   7.962   1.623   3.712
 6318TIP3    H118895   7.983   1.699   3.766
 6318TIP3    H218896   7.867   1.616   3.716
 6319TIP3   OH218897   4.814   7.863   1.944
 6319TIP3    H118898   4.816   7.770   1.923
 6319TIP3    H218899   4.743   7.898   1.890
 6320TIP3   OH218900   2.133   6.051   5.819
 6320TIP3    H118901   2.132   5.955   5.822
 6320TIP3    H218902   2.041   6.076   5.822
 6321TIP3   OH218903   7.283   3.765   6.805
 6321TIP3    H118904   7.339   3.842   6.804
 6321TIP3    H218905   7.341   3.693   6.778
 6322TIP3   OH218906   7.001   6.638   3.354
 6322TIP3    H118907   6.962   6.554   3.378
 6322TIP3    H218908   7.041   6.669   3.435
 6323TIP3   OH218909   5.497   6.399   1.855
 6323TIP3    H118910   5.539   6.482   1.834
 6323TIP3    H218911   5.487   6.400   1.950
 6324TIP3   OH218912   7.989   7.152   2.389
 6324TIP3    H118913   7.924   7.101   2.341
 6324TIP3    H218914   7.984   7.239   2.349
 6325TIP3   OH218915   6.389   1.506   4.516
 6325TIP3    H118916   6.417   1.513   4.607
 6325TIP3    H218917   6.308   1.557   4.511
 6326TIP3   OH218918   7.701   7.839   3.127
 6326TIP3    H118919   7.781   7.791   3.148
 6326TIP3    H218920   7.729   7.929   3.112
 6327TIP3   OH218921   6.086   0.500   2.880
 6327TIP3    H118922   6.118   0.493   2.790
 6327TIP3    H218923   6.149   0.451   2.932
 6328TIP3   OH218924   0.792   7.636   1.069
 6328TIP3    H118925   0.729   7.690   1.115
 6328TIP3    H218926   0.746   7.553   1.052
 6329TIP3   OH218927   1.011   7.072   3.622
 6329TIP3    H118928   0.983   7.093   3.533
 6329TIP3    H218929   1.068   6.996   3.613
 6330TIP3   OH218930   1.414   4.114   2.536
 6330TIP3    H118931   1.397   4.044   2.473
 6330TIP3    H218932   1.330   4.130   2.579
 6331TIP3   OH218933   6.694   3.127   1.469
 6331TIP3    H118934   6.766   3.155   1.526
 6331TIP3    H218935   6.617   3.126   1.527
 6332TIP3   OH218936   5.174   7.449   2.175
 6332TIP3    H118937   5.209   7.368   2.213
 6332TIP3    H218938   5.208   7.518   2.231
 6333TIP3   OH218939   7.632   0.812   2.214
 6333TIP3    H118940   7.670   0.828   2.300
 6333TIP3    H218941   7.597   0.896   2.187
 6334TIP3   OH218942   6.969   0.131   3.756
 6334TIP3    H118943   7.016   0.087   3.826
 6334TIP3    H218944   6.946   0.062   3.694
 6335TIP3   OH218945   7.362   1.850   3.964
 6335TIP3    H118946   7.345   1.789   3.892
 6335TIP3    H218947   7.290   1.834   4.026
 6336TIP3   OH218948   8.311   1.509   3.509
 6336TIP3    H118949   8.217   1.505   3.526
 6336TIP3    H218950   8.324   1.591   3.463
 6337TIP3   OH218951   0.674   1.183   5.685
 6337TIP3    H118952   0.593   1.226   5.713
 6337TIP3    H218953   0.644   1.107   5.634
 6338TIP3   OH218954   7.518   6.059   4.465
 6338TIP3    H118955   7.448   6.103   4.513
 6338TIP3    H218956   7.531   5.977   4.512
 6339TIP3   OH218957   7.049   1.173   6.336
 6339TIP3    H118958   7.078   1.260   6.362
 6339TIP3    H218959   6.957   1.184   6.313
 6340TIP3   OH218960   4.909   4.855   6.018
 6340TIP3    H118961   4.890   4.822   5.930
 6340TIP3    H218962   4.870   4.942   6.020
 6341TIP3   OH218963   2.616   6.222   3.274
 6341TIP3    H118964   2.634   6.129   3.263
 6341TIP3    H218965   2.531   6.226   3.318
 6342TIP3   OH218966   0.636   6.502   2.595
 6342TIP3    H118967   0.630   6.556   2.674
 6342TIP3    H218968   0.599   6.418   2.620
 6343TIP3   OH218969   6.588   3.127   4.958
 6343TIP3    H118970   6.679   3.102   4.975
 6343TIP3    H218971   6.590   3.223   4.954
 6344TIP3   OH218972   8.160   0.813   1.817
 6344TIP3    H118973   8.091   0.863   1.860
 6344TIP3    H218974   8.131   0.805   1.726
 6345TIP3   OH218975   1.551   3.158   1.566
 6345TIP3    H118976   1.473   3.207   1.593
 6345TIP3    H218977   1.584   3.118   1.646
 6346TIP3   OH218978   7.002   7.662   2.310
 6346TIP3    H118979   6.937   7.720   2.272
 6346TIP3    H218980   7.037   7.710   2.385
 6347TIP3   OH218981   5.807   6.853   2.279
 6347TIP3    H118982   5.785   6.837   2.370
 6347TIP3    H218983   5.784   6.771   2.234
 6348TIP3   OH218984   5.229   0.881   3.567
 6348TIP3    H118985   5.255   0.944   3.634
 6348TIP3    H218986   5.311   0.845   3.534
 6349TIP3   OH218987   0.042   3.391   5.202
 6349TIP3    H118988   0.130   3.392   5.164
 6349TIP3    H218989   0.036   3.306   5.244
 6350TIP3   OH218990   4.437   1.294   0.428
 6350TIP3    H118991   4.496   1.351   0.476
 6350TIP3    H218992   4.351   1.308   0.469
 6351TIP3   OH218993   2.284   5.359   5.557
 6351TIP3    H118994   2.322   5.356   5.646
 6351TIP3    H218995   2.346   5.308   5.504
 6352TIP3   OH218996   8.084   3.545   5.652
 6352TIP3    H118997   8.135   3.522   5.574
 6352TIP3    H218998   8.022   3.472   5.662
 6353TIP3   OH218999   8.276   5.721   0.297
 6353TIP3    H119000   8.253   5.811   0.275
 6353TIP3    H219001   8.324   5.689   0.221
 6354TIP3   OH219002   5.250   1.513   6.281
 6354TIP3    H119003   5.283   1.565   6.354
 6354TIP3    H219004   5.294   1.429   6.290
 6355TIP3   OH219005   0.142   7.020   1.109
 6355TIP3    H119006   0.224   7.003   1.157
 6355TIP3    H219007   0.076   7.028   1.177
 6356TIP3   OH219008   3.459   0.533   2.805
 6356TIP3    H119009   3.498   0.620   2.811
 6356TIP3    H219010   3.496   0.495   2.725
 6357TIP3   OH219011   6.692   3.567   6.810
 6357TIP3    H119012   6.735   3.585   6.726
 6357TIP3    H219013   6.617   3.626   6.812
 6358TIP3   OH219014   3.846   3.433   1.250
 6358TIP3    H119015   3.827   3.505   1.189
 6358TIP3    H219016   3.910   3.379   1.204
 6359TIP3   OH219017   7.930   1.694   5.670
 6359TIP3    H119018   8.006   1.742   5.703
 6359TIP3    H219019   7.961   1.650   5.590
 6360TIP3   OH219020   6.513   0.268   1.765
 6360TIP3    H119021   6.425   0.236   1.787
 6360TIP3    H219022   6.529   0.233   1.677
 6361TIP3   OH219023   6.788   6.513   0.179
 6361TIP3    H119024   6.737   6.552   0.250
 6361TIP3    H219025   6.829   6.588   0.136
 6362TIP3   OH219026   3.564   3.594   2.477
 6362TIP3    H119027   3.509   3.590   2.556
 6362TIP3    H219028   3.583   3.502   2.458
 6363TIP3   OH219029   5.065   2.044   1.632
 6363TIP3    H119030   5.096   2.102   1.701
 6363TIP3    H219031   5.116   1.964   1.644
 6364TIP3   OH219032   6.546   7.641   4.938
 6364TIP3    H119033   6.477   7.683   4.990
 6364TIP3    H219034   6.509   7.558   4.911
 6365TIP3   OH219035   3.671   6.930   3.799
 6365TIP3    H119036   3.614   6.995   3.759
 6365TIP3    H219037   3.613   6.856   3.820
 6366TIP3   OH219038   7.984   3.966   5.027
 6366TIP3    H119039   8.040   4.002   5.096
 6366TIP3    H219040   7.902   4.015   5.034
 6367TIP3   OH219041   0.218   1.576   6.785
 6367TIP3    H119042   0.218   1.585   6.881
 6367TIP3    H219043   0.138   1.619   6.756
 6368TIP3   OH219044   0.960   7.895   4.260
 6368TIP3    H119045   0.944   7.838   4.336
 6368TIP3    H219046   0.949   7.984   4.293
 6369TIP3   OH219047   1.359   6.795   4.817
 6369TIP3    H119048   1.327   6.873   4.772
 6369TIP3    H219049   1.286   6.734   4.814
 6370TIP3   OH219050   1.874   7.185   3.068
 6370TIP3    H119051   1.954   7.235   3.084
 6370TIP3    H219052   1.867   7.181   2.973
 6371TIP3   OH219053   7.679   6.140   0.303
 6371TIP3    H119054   7.749   6.081   0.328
 6371TIP3    H219055   7.632   6.158   0.384
 6372TIP3   OH219056   4.751   2.693   5.503
 6372TIP3    H119057   4.714   2.604   5.501
 6372TIP3    H219058   4.677   2.749   5.527
 6373TIP3   OH219059   3.349   7.499   0.671
 6373TIP3    H119060   3.377   7.588   0.690
 6373TIP3    H219061   3.419   7.444   0.705
 6374TIP3   OH219062   3.592   7.130   4.087
 6374TIP3    H119063   3.546   7.138   4.003
 6374TIP3    H219064   3.605   7.036   4.098
 6375TIP3   OH219065   1.113   2.311   5.659
 6375TIP3    H119066   1.047   2.296   5.591
 6375TIP3    H219067   1.090   2.250   5.729
 6376TIP3   OH219068   0.738   2.092   3.681
 6376TIP3    H119069   0.733   2.172   3.733
 6376TIP3    H219070   0.647   2.066   3.666
 6377TIP3   OH219071   0.426   3.841   2.312
 6377TIP3    H119072   0.482   3.876   2.242
 6377TIP3    H219073   0.441   3.746   2.309
 6378TIP3   OH219074   7.261   5.910   1.287
 6378TIP3    H119075   7.171   5.932   1.312
 6378TIP3    H219076   7.314   5.936   1.362
 6379TIP3   OH219077   2.149   4.992   6.817
 6379TIP3    H119078   2.159   4.904   6.781
 6379TIP3    H219079   2.237   5.029   6.815
 6380TIP3   OH219080   8.265   1.894   3.015
 6380TIP3    H119081   8.177   1.863   3.035
 6380TIP3    H219082   8.257   1.934   2.928
 6381TIP3   OH219083   1.509   4.971   6.654
 6381TIP3    H119084   1.494   5.065   6.646
 6381TIP3    H219085   1.593   4.965   6.700
 6382TIP3   OH219086   5.830   0.017   5.780
 6382TIP3    H119087   5.924   0.004   5.786
 6382TIP3    H219088   5.819   0.112   5.780
 6383TIP3   OH219089   1.923   2.602   4.613
 6383TIP3    H119090   1.972   2.526   4.644
 6383TIP3    H219091   1.870   2.628   4.688
 6384TIP3   OH219092   1.304   5.706   1.409
 6384TIP3    H119093   1.357   5.689   1.331
 6384TIP3    H219094   1.230   5.758   1.377
 6385TIP3   OH219095   3.021   2.472   3.545
 6385TIP3    H119096   3.100   2.520   3.567
 6385TIP3    H219097   3.018   2.474   3.449
 6386TIP3   OH219098   1.173   0.200   3.819
 6386TIP3    H119099   1.102   0.145   3.785
 6386TIP3    H219100   1.248   0.140   3.825
 6387TIP3   OH219101   1.881   7.821   0.572
 6387TIP3    H119102   1.926   7.851   0.650
 6387TIP3    H219103   1.951   7.792   0.513
 6388TIP3   OH219104   4.119   0.380   4.149
 6388TIP3    H119105   4.097   0.440   4.079
 6388TIP3    H219106   4.200   0.415   4.187
 6389TIP3   OH219107   5.362   6.914   1.100
 6389TIP3    H119108   5.321   6.878   1.178
 6389TIP3    H219109   5.293   6.965   1.057
 6390TIP3   OH219110   5.197   3.304   6.751
 6390TIP3    H119111   5.194   3.308   6.656
 6390TIP3    H219112   5.144   3.227   6.773
 6391TIP3   OH219113   6.965   3.698   0.870
 6391TIP3    H119114   7.019   3.721   0.945
 6391TIP3    H219115   6.886   3.660   0.908
 6392TIP3   OH219116   3.223   1.340   1.193
 6392TIP3    H119117   3.150   1.307   1.140
 6392TIP3    H219118   3.236   1.429   1.162
 6393TIP3   OH219119   3.259   7.702   3.668
 6393TIP3    H119120   3.205   7.780   3.654
 6393TIP3    H219121   3.234   7.642   3.597
 6394TIP3   OH219122   6.049   5.164   4.537
 6394TIP3    H119123   6.115   5.170   4.607
 6394TIP3    H219124   6.083   5.098   4.477
 6395TIP3   OH219125   1.408   3.230   4.175
 6395TIP3    H119126   1.444   3.157   4.225
 6395TIP3    H219127   1.316   3.206   4.161
 6396TIP3   OH219128   7.730   2.183   4.889
 6396TIP3    H119129   7.653   2.238   4.872
 6396TIP3    H219130   7.733   2.175   4.984
 6397TIP3   OH219131   6.672   3.874   5.555
 6397TIP3    H119132   6.740   3.824   5.509
 6397TIP3    H219133   6.658   3.951   5.501
 6398TIP3   OH219134   4.090   3.908   4.215
 6398TIP3    H119135   4.014   3.947   4.172
 6398TIP3    H219136   4.054   3.866   4.293
 6399TIP3   OH219137   8.164   2.467   4.799
 6399TIP3    H119138   8.114   2.432   4.725
 6399TIP3    H219139   8.219   2.393   4.827
 6400TIP3   OH219140   8.088   1.521   6.765
 6400TIP3    H119141   8.062   1.613   6.777
 6400TIP3    H219142   8.119   1.494   6.852
 6401TIP3   OH219143   2.367   5.255   6.044
 6401TIP3    H119144   2.454   5.220   6.024
 6401TIP3    H219145   2.364   5.257   6.139
 6402TIP3   OH219146   2.072   6.379   0.274
 6402TIP3    H119147   1.999   6.328   0.307
 6402TIP3    H219148   2.040   6.416   0.191
 6403TIP3   OH219149   3.779   3.724   6.600
 6403TIP3    H119150   3.803   3.782   6.672
 6403TIP3    H219151   3.857   3.671   6.586
 6404TIP3   OH219152   8.234   4.384   4.644
 6404TIP3    H119153   8.170   4.361   4.711
 6404TIP3    H219154   8.181   4.415   4.570
 6405TIP3   OH219155   2.905   1.821   6.717
 6405TIP3    H119156   2.967   1.749   6.704
 6405TIP3    H219157   2.919   1.847   6.808
 6406TIP3   OH219158   6.650   0.094   4.755
 6406TIP3    H119159   6.578   0.144   4.717
 6406TIP3    H219160   6.622   0.076   4.845
 6407TIP3   OH219161   4.297   6.269   6.758
 6407TIP3    H119162   4.220   6.214   6.742
 6407TIP3    H219163   4.371   6.207   6.761
 6408TIP3   OH219164   7.177   7.151   1.289
 6408TIP3    H119165   7.099   7.195   1.322
 6408TIP3    H219166   7.179   7.173   1.196
 6409TIP3   OH219167   0.771   3.735   4.003
 6409TIP3    H119168   0.858   3.770   3.983
 6409TIP3    H219169   0.710   3.795   3.961
 6410TIP3   OH219170   1.737   7.542   6.481
 6410TIP3    H119171   1.684   7.480   6.531
 6410TIP3    H219172   1.704   7.536   6.391
 6411TIP3   OH219173   8.137   4.692   1.784
 6411TIP3    H119174   8.201   4.764   1.780
 6411TIP3    H219175   8.191   4.613   1.795
 6412TIP3   OH219176   4.302   0.511   4.933
 6412TIP3    H119177   4.323   0.425   4.896
 6412TIP3    H219178   4.348   0.573   4.877
 6413TIP3   OH219179   0.932   1.708   1.908
 6413TIP3    H119180   0.914   1.676   1.996
 6413TIP3    H219181   0.846   1.720   1.868
 6414TIP3   OH219182   0.684   3.211   0.958
 6414TIP3    H119183   0.669   3.215   1.053
 6414TIP3    H219184   0.725   3.126   0.944
 6415TIP3   OH219185   2.822   1.852   6.069
 6415TIP3    H119186   2.809   1.914   6.141
 6415TIP3    H219187   2.733   1.833   6.038
 6416TIP3   OH219188   2.697   1.221   1.238
 6416TIP3    H119189   2.693   1.153   1.305
 6416TIP3    H219190   2.722   1.300   1.286
 6417TIP3   OH219191   4.634   3.562   3.319
 6417TIP3    H119192   4.623   3.474   3.356
 6417TIP3    H219193   4.716   3.556   3.269
 6418TIP3   OH219194   5.179   4.975   2.673
 6418TIP3    H119195   5.251   4.976   2.736
 6418TIP3    H219196   5.113   5.033   2.712
 6419TIP3   OH219197   5.442   3.369   6.405
 6419TIP3    H119198   5.390   3.302   6.361
 6419TIP3    H219199   5.532   3.338   6.400
 6420TIP3   OH219200   3.418   1.861   6.420
 6420TIP3    H119201   3.371   1.944   6.428
 6420TIP3    H219202   3.355   1.802   6.377
 6421TIP3   OH219203   4.327   4.582   2.319
 6421TIP3    H119204   4.320   4.660   2.375
 6421TIP3    H219205   4.258   4.524   2.350
 6422TIP3   OH219206   8.006   4.474   3.683
 6422TIP3    H119207   7.929   4.514   3.722
 6422TIP3    H219208   7.995   4.380   3.698
 6423TIP3   OH219209   0.102   5.662   1.124
 6423TIP3    H119210   0.106   5.758   1.124
 6423TIP3    H219211   0.020   5.641   1.169
 6424TIP3   OH219212   0.778   0.315   6.200
 6424TIP3    H119213   0.824   0.285   6.121
 6424TIP3    H219214   0.761   0.235   6.249
 6425TIP3   OH219215   6.790   4.979   3.634
 6425TIP3    H119216   6.733   4.991   3.558
 6425TIP3    H219217   6.875   5.013   3.605
 6426TIP3   OH219218   8.131   4.366   5.696
 6426TIP3    H119219   8.077   4.320   5.761
 6426TIP3    H219220   8.126   4.458   5.722
 6427TIP3   OH219221   2.819   1.191   0.345
 6427TIP3    H119222   2.905   1.201   0.304
 6427TIP3    H219223   2.834   1.133   0.420
 6428TIP3   OH219224   7.908   5.315   5.617
 6428TIP3    H119225   7.995   5.337   5.585
 6428TIP3    H219226   7.862   5.399   5.619
 6429TIP3   OH219227   7.948   3.724   6.525
 6429TIP3    H119228   7.987   3.658   6.583
 6429TIP3    H219229   8.018   3.745   6.463
 6430TIP3   OH219230   6.369   2.428   2.415
 6430TIP3    H119231   6.295   2.376   2.384
 6430TIP3    H219232   6.404   2.378   2.489
 6431TIP3   OH219233   3.161   3.376   1.720
 6431TIP3    H119234   3.174   3.306   1.784
 6431TIP3    H219235   3.081   3.352   1.674
 6432TIP3   OH219236   7.785   0.142   1.839
 6432TIP3    H119237   7.719   0.075   1.859
 6432TIP3    H219238   7.866   0.093   1.825
 6433TIP3   OH219239   4.542   5.978   2.027
 6433TIP3    H119240   4.551   6.069   2.053
 6433TIP3    H219241   4.631   5.953   1.999
 6434TIP3   OH219242   1.208   6.614   6.595
 6434TIP3    H119243   1.136   6.623   6.532
 6434TIP3    H219244   1.287   6.623   6.543
 6435TIP3   OH219245   7.725   7.739   4.394
 6435TIP3    H119246   7.698   7.691   4.472
 6435TIP3    H219247   7.812   7.772   4.415
 6436TIP3   OH219248   8.050   0.300   4.910
 6436TIP3    H119249   8.064   0.227   4.850
 6436TIP3    H219250   7.967   0.338   4.883
 6437TIP3   OH219251   1.266   1.159   1.022
 6437TIP3    H119252   1.222   1.226   1.074
 6437TIP3    H219253   1.287   1.090   1.085
 6438TIP3   OH219254   3.041   2.575   5.909
 6438TIP3    H119255   3.090   2.540   5.984
 6438TIP3    H219256   3.107   2.621   5.857
 6439TIP3   OH219257   6.871   4.040   1.134
 6439TIP3    H119258   6.799   3.984   1.104
 6439TIP3    H219259   6.838   4.129   1.122
 6440TIP3   OH219260   7.202   7.127   5.476
 6440TIP3    H119261   7.167   7.061   5.536
 6440TIP3    H219262   7.248   7.189   5.532
 6441TIP3   OH219263   6.971   4.313   5.518
 6441TIP3    H119264   6.996   4.278   5.603
 6441TIP3    H219265   7.029   4.269   5.456
 6442TIP3   OH219266   5.867   2.222   1.809
 6442TIP3    H119267   5.912   2.306   1.821
 6442TIP3    H219268   5.896   2.191   1.723
 6443TIP3   OH219269   1.324   1.595   5.758
 6443TIP3    H119270   1.408   1.599   5.803
 6443TIP3    H219271   1.274   1.668   5.794
 6444TIP3   OH219272   2.507   5.115   4.140
 6444TIP3    H119273   2.586   5.074   4.174
 6444TIP3    H219274   2.482   5.180   4.206
 6445TIP3   OH219275   8.254   1.928   4.422
 6445TIP3    H119276   8.312   1.853   4.410
 6445TIP3    H219277   8.265   1.952   4.514
 6446TIP3   OH219278   3.178   7.277   1.676
 6446TIP3    H119279   3.132   7.335   1.616
 6446TIP3    H219280   3.172   7.190   1.636
 6447TIP3   OH219281   5.712   3.635   0.839
 6447TIP3    H119282   5.743   3.610   0.752
 6447TIP3    H219283   5.648   3.568   0.863
 6448TIP3   OH219284   2.066   3.997   0.585
 6448TIP3    H119285   1.977   3.985   0.551
 6448TIP3    H219286   2.120   4.012   0.507
 6449TIP3   OH219287   1.073   1.487   0.335
 6449TIP3    H119288   1.045   1.424   0.401
 6449TIP3    H219289   1.127   1.550   0.382
 6450TIP3   OH219290   3.732   2.814   3.458
 6450TIP3    H119291   3.818   2.856   3.470
 6450TIP3    H219292   3.710   2.829   3.366
 6451TIP3   OH219293   5.757   7.811   5.198
 6451TIP3    H119294   5.832   7.797   5.256
 6451TIP3    H219295   5.738   7.905   5.207
 6452TIP3   OH219296   8.149   5.926   1.383
 6452TIP3    H119297   8.086   5.932   1.455
 6452TIP3    H219298   8.234   5.918   1.425
 6453TIP3   OH219299   1.173   5.648   0.052
 6453TIP3    H119300   1.114   5.577   0.079
 6453TIP3    H219301   1.170   5.646  -0.044
 6454TIP3   OH219302   0.458   2.935   0.114
 6454TIP3    H119303   0.465   2.883   0.194
 6454TIP3    H219304   0.549   2.945   0.084
 6455TIP3   OH219305   4.393   5.328   2.989
 6455TIP3    H119306   4.445   5.367   3.059
 6455TIP3    H219307   4.416   5.378   2.911
 6456TIP3   OH219308   7.333   3.521   3.610
 6456TIP3    H119309   7.247   3.480   3.613
 6456TIP3    H219310   7.332   3.586   3.681
 6457TIP3   OH219311   3.100   5.737   3.935
 6457TIP3    H119312   3.101   5.644   3.914
 6457TIP3    H219313   3.167   5.775   3.878
 6458TIP3   OH219314   0.636   2.903   1.336
 6458TIP3    H119315   0.713   2.855   1.307
 6458TIP3    H219316   0.632   2.979   1.279
 6459TIP3   OH219317   4.798   6.164   6.408
 6459TIP3    H119318   4.851   6.117   6.344
 6459TIP3    H219319   4.740   6.097   6.444
 6460TIP3   OH219320   2.031   7.774   1.656
 6460TIP3    H119321   1.974   7.850   1.645
 6460TIP3    H219322   2.037   7.735   1.569
 6461TIP3   OH219323   5.140   1.010   2.008
 6461TIP3    H119324   5.140   1.020   2.103
 6461TIP3    H219325   5.225   0.972   1.987
 6462TIP3   OH219326   3.350   7.336   2.786
 6462TIP3    H119327   3.306   7.314   2.704
 6462TIP3    H219328   3.429   7.283   2.786
 6463TIP3   OH219329   0.617   4.979   5.993
 6463TIP3    H119330   0.596   4.980   5.900
 6463TIP3    H219331   0.563   5.049   6.030
 6464TIP3   OH219332   6.020   5.416   5.438
 6464TIP3    H119333   6.069   5.494   5.461
 6464TIP3    H219334   6.077   5.343   5.461
 6465TIP3   OH219335   2.661   4.768   2.592
 6465TIP3    H119336   2.720   4.834   2.629
 6465TIP3    H219337   2.588   4.764   2.654
 6466TIP3   OH219338   5.293   6.733   5.604
 6466TIP3    H119339   5.226   6.801   5.598
 6466TIP3    H219340   5.303   6.701   5.514
 6467TIP3   OH219341   6.510   1.829   2.211
 6467TIP3    H119342   6.571   1.895   2.178
 6467TIP3    H219343   6.478   1.783   2.133
 6468TIP3   OH219344   6.011   4.714   3.920
 6468TIP3    H119345   5.988   4.622   3.905
 6468TIP3    H219346   6.106   4.716   3.915
 6469TIP3   OH219347   0.569   5.781   2.211
 6469TIP3    H119348   0.555   5.688   2.195
 6469TIP3    H219349   0.482   5.815   2.233
 6470TIP3   OH219350   8.340   2.333   3.690
 6470TIP3    H119351   8.253   2.292   3.695
 6470TIP3    H219352   8.331   2.415   3.738
 6471TIP3   OH219353   8.096   5.708   2.908
 6471TIP3    H119354   8.079   5.747   2.822
 6471TIP3    H219355   8.010   5.708   2.951
 6472TIP3   OH219356   7.876   0.712   0.318
 6472TIP3    H119357   7.782   0.730   0.323
 6472TIP3    H219358   7.882   0.617   0.309
 6473TIP3   OH219359   6.337   2.895   5.612
 6473TIP3    H119360   6.409   2.946   5.650
 6473TIP3    H219361   6.262   2.912   5.670
 6474TIP3   OH219362   6.449   5.315   3.338
 6474TIP3    H119363   6.501   5.250   3.290
 6474TIP3    H219364   6.392   5.263   3.395
 6475TIP3   OH219365   2.085   1.442   2.510
 6475TIP3    H119366   2.098   1.522   2.459
 6475TIP3    H219367   2.026   1.389   2.457
 6476TIP3   OH219368   5.606   4.697   5.258
 6476TIP3    H119369   5.649   4.776   5.223
 6476TIP3    H219370   5.601   4.638   5.183
 6477TIP3   OH219371   4.651   7.034   1.825
 6477TIP3    H119372   4.647   7.125   1.855
 6477TIP3    H219373   4.639   7.039   1.730
 6478TIP3   OH219374   8.302   4.749   2.840
 6478TIP3    H119375   8.226   4.692   2.854
 6478TIP3    H219376   8.369   4.716   2.901
 6479TIP3   OH219377   7.092   7.190   2.011
 6479TIP3    H119378   7.117   7.257   2.075
 6479TIP3    H219379   7.032   7.133   2.059
 6480TIP3   OH219380   2.623   2.681   0.694
 6480TIP3    H119381   2.632   2.647   0.605
 6480TIP3    H219382   2.712   2.687   0.727
 6481TIP3   OH219383   6.680   2.944   0.311
 6481TIP3    H119384   6.655   2.852   0.323
 6481TIP3    H219385   6.701   2.975   0.398
 6482TIP3   OH219386   3.331   5.879   6.606
 6482TIP3    H119387   3.423   5.902   6.591
 6482TIP3    H219388   3.281   5.944   6.558
 6483TIP3   OH219389   7.525   4.301   3.454
 6483TIP3    H119390   7.497   4.211   3.469
 6483TIP3    H219391   7.598   4.295   3.393
 6484TIP3   OH219392   4.345   0.507   3.937
 6484TIP3    H119393   4.304   0.433   3.892
 6484TIP3    H219394   4.413   0.469   3.991
 6485TIP3   OH219395   4.969   5.416   0.832
 6485TIP3    H119396   4.981   5.428   0.738
 6485TIP3    H219397   4.917   5.336   0.840
 6486TIP3   OH219398   7.548   6.942   0.259
 6486TIP3    H119399   7.585   6.863   0.220
 6486TIP3    H219400   7.468   6.913   0.303
 6487TIP3   OH219401   0.335   4.519   6.013
 6487TIP3    H119402   0.242   4.508   6.031
 6487TIP3    H219403   0.353   4.459   5.941
 6488TIP3   OH219404   2.614   7.654   5.955
 6488TIP3    H119405   2.591   7.703   6.034
 6488TIP3    H219406   2.695   7.608   5.978
 6489TIP3   OH219407   4.441   1.479   1.616
 6489TIP3    H119408   4.351   1.451   1.636
 6489TIP3    H219409   4.470   1.525   1.694
 6490TIP3   OH219410   5.422   1.069   4.495
 6490TIP3    H119411   5.337   1.112   4.503
 6490TIP3    H219412   5.472   1.100   4.571
 6491TIP3   OH219413   6.208   0.378   1.643
 6491TIP3    H119414   6.133   0.410   1.593
 6491TIP3    H219415   6.284   0.399   1.588
 6492TIP3   OH219416   2.536   3.536   0.157
 6492TIP3    H119417   2.632   3.535   0.162
 6492TIP3    H219418   2.507   3.522   0.247
 6493TIP3   OH219419   7.852   4.809   2.149
 6493TIP3    H119420   7.761   4.806   2.119
 6493TIP3    H219421   7.901   4.840   2.072
 6494TIP3   OH219422   6.517   6.756   6.675
 6494TIP3    H119423   6.456   6.746   6.602
 6494TIP3    H219424   6.495   6.685   6.735
 6495TIP3   OH219425   0.962   0.517   1.639
 6495TIP3    H119426   0.899   0.444   1.637
 6495TIP3    H219427   1.029   0.493   1.575
 6496TIP3   OH219428   5.103   5.541   2.630
 6496TIP3    H119429   5.175   5.490   2.592
 6496TIP3    H219430   5.132   5.632   2.621
 6497TIP3   OH219431   6.007   3.492   0.024
 6497TIP3    H119432   5.988   3.552   0.096
 6497TIP3    H219433   6.024   3.550  -0.051
 6498TIP3   OH219434   3.845   4.912   4.823
 6498TIP3    H119435   3.819   4.920   4.914
 6498TIP3    H219436   3.937   4.886   4.826
 6499TIP3   OH219437   2.004   5.710   0.668
 6499TIP3    H119438   2.059   5.691   0.743
 6499TIP3    H219439   2.043   5.660   0.596
 6500TIP3   OH219440   1.428   5.474   5.957
 6500TIP3    H119441   1.420   5.548   6.018
 6500TIP3    H219442   1.443   5.398   6.014
 6501TIP3   OH219443   5.650   5.582   2.106
 6501TIP3    H119444   5.658   5.490   2.082
 6501TIP3    H219445   5.563   5.607   2.075
 6502TIP3   OH219446   2.112   7.097   5.998
 6502TIP3    H119447   2.123   7.016   5.947
 6502TIP3    H219448   2.165   7.161   5.951
 6503TIP3   OH219449   0.221   3.559   3.263
 6503TIP3    H119450   0.283   3.494   3.295
 6503TIP3    H219451   0.270   3.640   3.260
 6504TIP3   OH219452   7.278   5.641   3.279
 6504TIP3    H119453   7.310   5.728   3.254
 6504TIP3    H219454   7.343   5.608   3.341
 6505TIP3   OH219455   0.187   6.617   5.121
 6505TIP3    H119456   0.280   6.638   5.114
 6505TIP3    H219457   0.182   6.556   5.196
 6506TIP3   OH219458   4.331   3.744   5.993
 6506TIP3    H119459   4.387   3.684   6.042
 6506TIP3    H219460   4.281   3.791   6.060
 6507TIP3   OH219461   5.010   3.186   3.657
 6507TIP3    H119462   5.063   3.252   3.703
 6507TIP3    H219463   4.932   3.175   3.712
 6508TIP3   OH219464   7.125   1.400   2.359
 6508TIP3    H119465   7.157   1.475   2.409
 6508TIP3    H219466   7.033   1.421   2.341
 6509TIP3   OH219467   4.843   7.512   6.792
 6509TIP3    H119468   4.912   7.510   6.725
 6509TIP3    H219469   4.884   7.474   6.870
 6510TIP3   OH219470   5.817   5.889   1.954
 6510TIP3    H119471   5.724   5.871   1.941
 6510TIP3    H219472   5.830   5.977   1.916
 6511TIP3   OH219473   1.666   0.122   6.788
 6511TIP3    H119474   1.577   0.099   6.760
 6511TIP3    H219475   1.676   0.077   6.872
 6512TIP3   OH219476   7.355   3.701   2.862
 6512TIP3    H119477   7.288   3.644   2.899
 6512TIP3    H219478   7.418   3.642   2.821
 6513TIP3   OH219479   5.339   2.603   4.865
 6513TIP3    H119480   5.304   2.645   4.786
 6513TIP3    H219481   5.380   2.674   4.914
 6514TIP3   OH219482   6.898   1.159   3.412
 6514TIP3    H119483   6.828   1.098   3.390
 6514TIP3    H219484   6.858   1.246   3.404
 6515TIP3   OH219485   8.122   0.073   4.755
 6515TIP3    H119486   8.039   0.033   4.729
 6515TIP3    H219487   8.181  -0.002   4.768
 6516TIP3   OH219488   7.739   2.920   0.590
 6516TIP3    H119489   7.690   2.933   0.509
 6516TIP3    H219490   7.799   2.995   0.594
 6517TIP3   OH219491   1.334   5.310   0.414
 6517TIP3    H119492   1.293   5.274   0.336
 6517TIP3    H219493   1.309   5.402   0.415
 6518TIP3   OH219494   5.846   2.935   2.029
 6518TIP3    H119495   5.769   2.894   2.068
 6518TIP3    H219496   5.818   3.023   2.005
 6519TIP3   OH219497   1.681   3.192   6.002
 6519TIP3    H119498   1.772   3.206   6.029
 6519TIP3    H219499   1.629   3.241   6.065
 6520TIP3   OH219500   3.917   5.947   2.216
 6520TIP3    H119501   3.898   6.028   2.169
 6520TIP3    H219502   3.861   5.882   2.174
 6521TIP3   OH219503   5.681   5.117   6.722
 6521TIP3    H119504   5.749   5.174   6.687
 6521TIP3    H219505   5.610   5.123   6.658
 6522TIP3   OH219506   6.695   0.384   4.835
 6522TIP3    H119507   6.646   0.455   4.795
 6522TIP3    H219508   6.678   0.308   4.780
 6523TIP3   OH219509   7.863   5.551   2.998
 6523TIP3    H119510   7.896   5.465   2.971
 6523TIP3    H219511   7.827   5.535   3.085
 6524TIP3   OH219512   1.091   6.299   0.916
 6524TIP3    H119513   1.160   6.320   0.853
 6524TIP3    H219514   1.137   6.261   0.991
 6525TIP3   OH219515   6.311   5.551   0.398
 6525TIP3    H119516   6.329   5.513   0.312
 6525TIP3    H219517   6.355   5.492   0.460
 6526TIP3   OH219518   1.566   3.309   3.223
 6526TIP3    H119519   1.551   3.247   3.294
 6526TIP3    H219520   1.660   3.330   3.229
 6527TIP3   OH219521   4.539   3.369   0.441
 6527TIP3    H119522   4.561   3.277   0.430
 6527TIP3    H219523   4.536   3.404   0.352
 6528TIP3   OH219524   5.420   2.503   6.547
 6528TIP3    H119525   5.438   2.597   6.554
 6528TIP3    H219526   5.340   2.497   6.494
 6529TIP3   OH219527   5.156   3.740   6.418
 6529TIP3    H119528   5.138   3.821   6.370
 6529TIP3    H219529   5.135   3.761   6.509
 6530TIP3   OH219530   6.181   6.891   4.752
 6530TIP3    H119531   6.135   6.953   4.810
 6530TIP3    H219532   6.181   6.934   4.667
 6531TIP3   OH219533   0.160   7.291   2.462
 6531TIP3    H119534   0.079   7.329   2.494
 6531TIP3    H219535   0.167   7.208   2.509
 6532TIP3   OH219536   3.564   6.873   2.464
 6532TIP3    H119537   3.512   6.937   2.416
 6532TIP3    H219538   3.619   6.925   2.523
 6533TIP3   OH219539   5.947   0.300   2.240
 6533TIP3    H119540   5.923   0.289   2.148
 6533TIP3    H219541   5.962   0.394   2.249
 6534TIP3   OH219542   8.252   4.678   0.241
 6534TIP3    H119543   8.261   4.694   0.335
 6534TIP3    H219544   8.176   4.620   0.233
 6535TIP3   OH219545   4.435   1.125   2.568
 6535TIP3    H119546   4.363   1.172   2.526
 6535TIP3    H219547   4.426   1.035   2.538
 6536TIP3   OH219548   0.799   7.656   3.087
 6536TIP3    H119549   0.720   7.604   3.103
 6536TIP3    H219550   0.779   7.743   3.123
 6537TIP3   OH219551   0.897   6.518   6.677
 6537TIP3    H119552   0.944   6.568   6.610
 6537TIP3    H219553   0.809   6.508   6.642
 6538TIP3   OH219554   7.528   0.879   4.680
 6538TIP3    H119555   7.500   0.794   4.713
 6538TIP3    H219556   7.611   0.862   4.636
 6539TIP3   OH219557   4.524   7.618   2.093
 6539TIP3    H119558   4.525   7.701   2.045
 6539TIP3    H219559   4.449   7.626   2.153
 6540TIP3   OH219560   5.576   5.269   5.215
 6540TIP3    H119561   5.487   5.253   5.183
 6540TIP3    H219562   5.628   5.286   5.137
 6541TIP3   OH219563   7.762   5.058   0.229
 6541TIP3    H119564   7.710   5.010   0.164
 6541TIP3    H219565   7.849   5.020   0.223
 6542TIP3   OH219566   6.777   7.244   2.177
 6542TIP3    H119567   6.765   7.334   2.207
 6542TIP3    H219568   6.732   7.241   2.093
 6543TIP3   OH219569   1.551   6.934   1.050
 6543TIP3    H119570   1.493   6.972   0.983
 6543TIP3    H219571   1.496   6.869   1.095
 6544TIP3   OH219572   7.801   3.763   5.176
 6544TIP3    H119573   7.783   3.857   5.176
 6544TIP3    H219574   7.738   3.727   5.113
 6545TIP3   OH219575   5.010   2.115   6.389
 6545TIP3    H119576   4.934   2.156   6.346
 6545TIP3    H219577   5.007   2.148   6.479
 6546TIP3   OH219578   0.836   5.257   5.169
 6546TIP3    H119579   0.776   5.289   5.101
 6546TIP3    H219580   0.800   5.172   5.195
 6547TIP3   OH219581   2.181   1.960   1.628
 6547TIP3    H119582   2.131   2.038   1.652
 6547TIP3    H219583   2.187   1.964   1.533
 6548TIP3   OH219584   4.102   0.432   3.297
 6548TIP3    H119585   4.028   0.372   3.303
 6548TIP3    H219586   4.064   0.519   3.312
 6549TIP3   OH219587   3.859   4.240   3.300
 6549TIP3    H119588   3.946   4.260   3.265
 6549TIP3    H219589   3.829   4.322   3.339
 6550TIP3   OH219590   5.711   4.022   2.995
 6550TIP3    H119591   5.640   4.056   3.050
 6550TIP3    H219592   5.767   4.098   2.978
 6551TIP3   OH219593   3.698   4.792   3.789
 6551TIP3    H119594   3.757   4.866   3.803
 6551TIP3    H219595   3.710   4.768   3.697
 6552TIP3   OH219596   4.529   4.873   2.522
 6552TIP3    H119597   4.554   4.906   2.609
 6552TIP3    H219598   4.578   4.791   2.512
 6553TIP3   OH219599   5.998   3.073   1.064
 6553TIP3    H119600   5.922   3.129   1.081
 6553TIP3    H219601   6.037   3.110   0.985
 6554TIP3   OH219602   0.965   6.754   0.725
 6554TIP3    H119603   0.894   6.815   0.704
 6554TIP3    H219604   0.955   6.682   0.663
 6555TIP3   OH219605   4.816   5.974   5.908
 6555TIP3    H119606   4.904   5.997   5.938
 6555TIP3    H219607   4.766   6.055   5.919
 6556TIP3   OH219608   7.529   6.494   1.130
 6556TIP3    H119609   7.464   6.475   1.062
 6556TIP3    H219610   7.496   6.572   1.174
 6557TIP3   OH219611   6.389   6.714   5.842
 6557TIP3    H119612   6.458   6.688   5.903
 6557TIP3    H219613   6.429   6.782   5.788
 6558TIP3   OH219614   7.460   0.683   4.424
 6558TIP3    H119615   7.504   0.699   4.508
 6558TIP3    H219616   7.508   0.609   4.386
 6559TIP3   OH219617   1.177   0.316   1.996
 6559TIP3    H119618   1.224   0.339   2.075
 6559TIP3    H219619   1.183   0.394   1.940
 6560TIP3   OH219620   6.754   7.700   5.500
 6560TIP3    H119621   6.842   7.712   5.535
 6560TIP3    H219622   6.697   7.704   5.577
 6561TIP3   OH219623   0.526   6.184   1.571
 6561TIP3    H119624   0.515   6.237   1.493
 6561TIP3    H219625   0.520   6.246   1.644
 6562TIP3   OH219626   7.597   7.881   0.158
 6562TIP3    H119627   7.659   7.930   0.104
 6562TIP3    H219628   7.604   7.791   0.126
 6563TIP3   OH219629   1.319   4.612   2.589
 6563TIP3    H119630   1.413   4.596   2.593
 6563TIP3    H219631   1.303   4.643   2.500
 6564TIP3   OH219632   3.550   0.241   3.138
 6564TIP3    H119633   3.502   0.170   3.180
 6564TIP3    H219634   3.636   0.204   3.119
 6565TIP3   OH219635   3.106   0.801   5.970
 6565TIP3    H119636   3.112   0.886   6.014
 6565TIP3    H219637   3.021   0.766   5.995
 6566TIP3   OH219638   1.477   6.156   2.913
 6566TIP3    H119639   1.485   6.115   2.999
 6566TIP3    H219640   1.462   6.249   2.933
 6567TIP3   OH219641   3.395   3.377   3.448
 6567TIP3    H119642   3.307   3.386   3.484
 6567TIP3    H219643   3.451   3.428   3.507
 6568TIP3   OH219644   2.768   6.300   2.623
 6568TIP3    H119645   2.720   6.357   2.683
 6568TIP3    H219646   2.842   6.353   2.592
 6569TIP3   OH219647   1.846   7.566   4.145
 6569TIP3    H119648   1.863   7.483   4.191
 6569TIP3    H219649   1.836   7.540   4.053
 6570TIP3   OH219650   2.639   0.035   5.350
 6570TIP3    H119651   2.628  -0.056   5.320
 6570TIP3    H219652   2.574   0.084   5.299
 6571TIP3   OH219653   2.084   4.263   2.766
 6571TIP3    H119654   2.092   4.286   2.673
 6571TIP3    H219655   2.056   4.172   2.766
 6572TIP3   OH219656   6.099   2.299   0.163
 6572TIP3    H119657   6.080   2.293   0.257
 6572TIP3    H219658   6.082   2.391   0.141
 6573TIP3   OH219659   3.328   3.992   1.139
 6573TIP3    H119660   3.411   3.949   1.119
 6573TIP3    H219661   3.317   4.057   1.069
 6574TIP3   OH219662   2.878   3.479   1.362
 6574TIP3    H119663   2.887   3.444   1.451
 6574TIP3    H219664   2.967   3.477   1.326
 6575TIP3   OH219665   5.875   0.968   1.546
 6575TIP3    H119666   5.946   1.025   1.576
 6575TIP3    H219667   5.817   1.025   1.496
 6576TIP3   OH219668   1.842   3.511   1.882
 6576TIP3    H119669   1.910   3.486   1.945
 6576TIP3    H219670   1.881   3.494   1.797
 6577TIP3   OH219671   7.829   7.181   0.173
 6577TIP3    H119672   7.816   7.124   0.249
 6577TIP3    H219673   7.804   7.128   0.098
 6578TIP3   OH219674   4.834   3.930   6.237
 6578TIP3    H119675   4.922   3.964   6.224
 6578TIP3    H219676   4.819   3.872   6.162
 6579TIP3   OH219677   6.497   2.636   6.250
 6579TIP3    H119678   6.403   2.656   6.250
 6579TIP3    H219679   6.539   2.722   6.248
 6580TIP3   OH219680   0.374   6.866   2.205
 6580TIP3    H119681   0.406   6.876   2.116
 6580TIP3    H219682   0.365   6.956   2.238
 6581TIP3   OH219683   4.313   1.434   3.072
 6581TIP3    H119684   4.395   1.476   3.096
 6581TIP3    H219685   4.267   1.423   3.156
 6582TIP3   OH219686   2.353   4.957   3.364
 6582TIP3    H119687   2.324   4.872   3.398
 6582TIP3    H219688   2.429   4.935   3.309
 6583TIP3   OH219689   1.562   6.541   4.910
 6583TIP3    H119690   1.588   6.587   4.830
 6583TIP3    H219691   1.510   6.467   4.879
 6584TIP3   OH219692   5.481   4.263   2.230
 6584TIP3    H119693   5.435   4.324   2.288
 6584TIP3    H219694   5.420   4.190   2.218
 6585TIP3   OH219695   3.504   5.592   3.463
 6585TIP3    H119696   3.583   5.630   3.427
 6585TIP3    H219697   3.534   5.514   3.510
 6586TIP3   OH219698   4.840   4.501   0.097
 6586TIP3    H119699   4.758   4.531   0.058
 6586TIP3    H219700   4.907   4.524   0.033
 6587TIP3   OH219701   6.412   3.448   3.253
 6587TIP3    H119702   6.451   3.516   3.197
 6587TIP3    H219703   6.458   3.457   3.336
 6588TIP3   OH219704   5.367   0.357   4.815
 6588TIP3    H119705   5.409   0.442   4.825
 6588TIP3    H219706   5.292   0.360   4.875
 6589TIP3   OH219707   3.352   2.969   2.353
 6589TIP3    H119708   3.415   2.905   2.321
 6589TIP3    H219709   3.273   2.953   2.301
 6590TIP3   OH219710   7.469   3.894   1.491
 6590TIP3    H119711   7.533   3.948   1.537
 6590TIP3    H219712   7.508   3.806   1.489
 6591TIP3   OH219713   5.837   4.614   0.395
 6591TIP3    H119714   5.866   4.704   0.409
 6591TIP3    H219715   5.758   4.622   0.343
 6592TIP3   OH219716   6.070   4.407   5.595
 6592TIP3    H119717   6.104   4.325   5.632
 6592TIP3    H219718   5.993   4.380   5.544
 6593TIP3   OH219719   5.201   3.604   0.910
 6593TIP3    H119720   5.180   3.655   0.833
 6593TIP3    H219721   5.208   3.668   0.981
 6594TIP3   OH219722   0.458   0.180   6.577
 6594TIP3    H119723   0.441   0.237   6.503
 6594TIP3    H219724   0.403   0.103   6.561
 6595TIP3   OH219725   6.934   2.388   6.250
 6595TIP3    H119726   7.023   2.390   6.285
 6595TIP3    H219727   6.900   2.302   6.277
 6596TIP3   OH219728   0.381   5.648   2.833
 6596TIP3    H119729   0.353   5.579   2.893
 6596TIP3    H219730   0.315   5.649   2.764
 6597TIP3   OH219731   4.519   3.051   3.311
 6597TIP3    H119732   4.541   2.960   3.330
 6597TIP3    H219733   4.467   3.048   3.231
 6598TIP3   OH219734   6.480   2.667   0.093
 6598TIP3    H119735   6.477   2.630   0.005
 6598TIP3    H219736   6.437   2.602   0.148
 6599TIP3   OH219737   4.331   5.394   1.302
 6599TIP3    H119738   4.364   5.379   1.214
 6599TIP3    H219739   4.374   5.475   1.330
 6600TIP3   OH219740   1.790   7.103   3.988
 6600TIP3    H119741   1.847   7.027   4.002
 6600TIP3    H219742   1.720   7.093   4.053
 6601TIP3   OH219743   2.690   0.868   6.357
 6601TIP3    H119744   2.674   0.959   6.381
 6601TIP3    H219745   2.784   0.863   6.341
 6602TIP3   OH219746   2.998   3.201   6.260
 6602TIP3    H119747   3.008   3.147   6.182
 6602TIP3    H219748   2.905   3.194   6.283
 6603TIP3   OH219749   2.086   0.209   5.068
 6603TIP3    H119750   2.152   0.218   5.000
 6603TIP3    H219751   2.106   0.278   5.131
 6604TIP3   OH219752   0.153   0.634   0.388
 6604TIP3    H119753   0.223   0.623   0.325
 6604TIP3    H219754   0.197   0.652   0.471
 6605TIP3   OH219755   5.227   2.242   0.473
 6605TIP3    H119756   5.176   2.317   0.506
 6605TIP3    H219757   5.281   2.216   0.547
 6606TIP3   OH219758   1.934   3.914   6.372
 6606TIP3    H119759   1.867   3.952   6.429
 6606TIP3    H219760   1.914   3.949   6.285
 6607TIP3   OH219761   6.225   3.110   6.549
 6607TIP3    H119762   6.288   3.177   6.577
 6607TIP3    H219763   6.143   3.136   6.590
 6608TIP3   OH219764   7.554   1.675   4.792
 6608TIP3    H119765   7.476   1.649   4.742
 6608TIP3    H219766   7.627   1.639   4.742
 6609TIP3   OH219767   2.063   4.622   4.458
 6609TIP3    H119768   1.993   4.567   4.424
 6609TIP3    H219769   2.019   4.684   4.515
 6610TIP3   OH219770   5.418   1.880   0.795
 6610TIP3    H119771   5.344   1.819   0.786
 6610TIP3    H219772   5.383   1.964   0.767
 6611TIP3   OH219773   3.729   0.960   3.069
 6611TIP3    H119774   3.765   0.879   3.104
 6611TIP3    H219775   3.716   1.015   3.146
 6612TIP3   OH219776   4.816   5.119   1.161
 6612TIP3    H119777   4.849   5.031   1.174
 6612TIP3    H219778   4.856   5.171   1.231
 6613TIP3   OH219779   5.664   0.847   4.663
 6613TIP3    H119780   5.601   0.859   4.734
 6613TIP3    H219781   5.700   0.935   4.649
 6614TIP3   OH219782   3.443   2.481   2.795
 6614TIP3    H119783   3.353   2.446   2.794
 6614TIP3    H219784   3.498   2.405   2.779
 6615TIP3   OH219785   7.738   4.565   6.194
 6615TIP3    H119786   7.668   4.619   6.230
 6615TIP3    H219787   7.818   4.610   6.220
 6616TIP3   OH219788   1.431   1.254   4.955
 6616TIP3    H119789   1.521   1.247   4.986
 6616TIP3    H219790   1.437   1.295   4.869
 6617TIP3   OH219791   5.908   5.861   4.276
 6617TIP3    H119792   5.912   5.946   4.233
 6617TIP3    H219793   6.000   5.840   4.296
 6618TIP3   OH219794   0.732   6.406   4.807
 6618TIP3    H119795   0.782   6.445   4.879
 6618TIP3    H219796   0.640   6.423   4.829
 6619TIP3   OH219797   7.946   3.994  -0.023
 6619TIP3    H119798   7.953   3.975   0.070
 6619TIP3    H219799   7.978   4.084  -0.032
 6620TIP3   OH219800   6.435   1.685   1.986
 6620TIP3    H119801   6.350   1.710   2.022
 6620TIP3    H219802   6.435   1.724   1.898
 6621TIP3   OH219803   6.622   6.847   6.068
 6621TIP3    H119804   6.642   6.804   6.151
 6621TIP3    H219805   6.675   6.799   6.004
 6622TIP3   OH219806   5.283   7.806   6.318
 6622TIP3    H119807   5.234   7.807   6.235
 6622TIP3    H219808   5.370   7.774   6.294
 6623TIP3   OH219809   0.687   2.965   5.121
 6623TIP3    H119810   0.746   2.891   5.103
 6623TIP3    H219811   0.673   3.005   5.035
 6624TIP3   OH219812   2.160   0.228   5.366
 6624TIP3    H119813   2.156   0.315   5.327
 6624TIP3    H219814   2.118   0.238   5.452
 6625TIP3   OH219815   1.726   1.669   5.144
 6625TIP3    H119816   1.783   1.744   5.155
 6625TIP3    H219817   1.760   1.603   5.205
 6626TIP3   OH219818   8.377   6.916   0.480
 6626TIP3    H119819   8.400   6.901   0.389
 6626TIP3    H219820   8.281   6.918   0.481
 6627TIP3   OH219821   2.284   4.788   5.201
 6627TIP3    H119822   2.288   4.760   5.109
 6627TIP3    H219823   2.375   4.787   5.230
 6628TIP3   OH219824   0.878   0.474   3.469
 6628TIP3    H119825   0.843   0.478   3.557
 6628TIP3    H219826   0.921   0.388   3.464
 6629TIP3   OH219827   6.697   2.279   6.086
 6629TIP3    H119828   6.620   2.262   6.140
 6629TIP3    H219829   6.726   2.192   6.057
 6630TIP3   OH219830   3.547   2.716   6.165
 6630TIP3    H119831   3.454   2.726   6.185
 6630TIP3    H219832   3.576   2.802   6.135
 6631TIP3   OH219833   8.159   5.655   2.020
 6631TIP3    H119834   8.177   5.714   1.947
 6631TIP3    H219835   8.240   5.655   2.071
 6632TIP3   OH219836   6.236   4.958   5.286
 6632TIP3    H119837   6.166   4.899   5.313
 6632TIP3    H219838   6.295   4.904   5.234
 6633TIP3   OH219839   7.566   3.247   5.971
 6633TIP3    H119840   7.594   3.256   6.062
 6633TIP3    H219841   7.552   3.337   5.942
 6634TIP3   OH219842   4.869   1.553   1.609
 6634TIP3    H119843   4.942   1.546   1.548
 6634TIP3    H219844   4.893   1.626   1.666
 6635TIP3   OH219845   0.898   5.103   4.916
 6635TIP3    H119846   0.865   5.014   4.926
 6635TIP3    H219847   0.993   5.093   4.909
 6636TIP3   OH219848   5.632   2.510   0.003
 6636TIP3    H119849   5.624   2.497   0.098
 6636TIP3    H219850   5.726   2.517  -0.012
 6637TIP3   OH219851   0.926   1.913   4.335
 6637TIP3    H119852   0.912   1.821   4.311
 6637TIP3    H219853   1.013   1.914   4.375
 6638TIP3   OH219854   1.305   3.758   2.671
 6638TIP3    H119855   1.338   3.838   2.711
 6638TIP3    H219856   1.373   3.692   2.690
 6639TIP3   OH219857   5.662   1.838   0.036
 6639TIP3    H119858   5.748   1.835   0.079
 6639TIP3    H219859   5.651   1.751  -0.003
 6640TIP3   OH219860   6.483   0.280   4.644
 6640TIP3    H119861   6.529   0.290   4.561
 6640TIP3    H219862   6.401   0.328   4.633
 6641TIP3   OH219863   1.947   2.514   0.325
 6641TIP3    H119864   1.925   2.593   0.275
 6641TIP3    H219865   1.868   2.460   0.320
 6642TIP3   OH219866   1.058   4.198   6.026
 6642TIP3    H119867   1.006   4.120   6.045
 6642TIP3    H219868   1.011   4.242   5.956
 6643TIP3   OH219869   2.441   0.333   6.383
 6643TIP3    H119870   2.396   0.390   6.320
 6643TIP3    H219871   2.384   0.331   6.460
 6644TIP3   OH219872   8.162   7.497   2.877
 6644TIP3    H119873   8.141   7.403   2.882
 6644TIP3    H219874   8.095   7.533   2.819
 6645TIP3   OH219875   1.456   5.536   3.668
 6645TIP3    H119876   1.516   5.578   3.730
 6645TIP3    H219877   1.393   5.604   3.645
 6646TIP3   OH219878   5.919   2.693   5.607
 6646TIP3    H119879   5.880   2.688   5.694
 6646TIP3    H219880   6.011   2.673   5.620
 6647TIP3   OH219881   6.305   3.214   6.241
 6647TIP3    H119882   6.292   3.250   6.329
 6647TIP3    H219883   6.397   3.187   6.240
 6648TIP3   OH219884   3.121   6.164   1.931
 6648TIP3    H119885   3.210   6.132   1.916
 6648TIP3    H219886   3.132   6.238   1.991
 6649TIP3   OH219887   6.320   7.786   5.052
 6649TIP3    H119888   6.262   7.861   5.065
 6649TIP3    H219889   6.310   7.734   5.132
 6650TIP3   OH219890   2.765   4.798   0.552
 6650TIP3    H119891   2.835   4.861   0.536
 6650TIP3    H219892   2.729   4.823   0.637
 6651TIP3   OH219893   5.124   6.887   2.582
 6651TIP3    H119894   5.145   6.820   2.517
 6651TIP3    H219895   5.146   6.970   2.540
 6652TIP3   OH219896   1.563   3.476   1.362
 6652TIP3    H119897   1.638   3.416   1.370
 6652TIP3    H219898   1.531   3.463   1.273
 6653TIP3   OH219899   4.305   4.262   0.836
 6653TIP3    H119900   4.290   4.340   0.890
 6653TIP3    H219901   4.243   4.272   0.763
 6654TIP3   OH219902   8.049   5.846   3.903
 6654TIP3    H119903   7.984   5.876   3.967
 6654TIP3    H219904   8.124   5.904   3.915
 6655TIP3   OH219905   1.729   3.784   0.246
 6655TIP3    H119906   1.780   3.836   0.183
 6655TIP3    H219907   1.786   3.711   0.269
 6656TIP3   OH219908   6.084   1.176   4.639
 6656TIP3    H119909   6.134   1.098   4.662
 6656TIP3    H219910   6.123   1.206   4.557
 6657TIP3   OH219911   3.718   1.271   3.271
 6657TIP3    H119912   3.772   1.201   3.308
 6657TIP3    H219913   3.778   1.323   3.219
 6658TIP3   OH219914   0.144   0.508   0.991
 6658TIP3    H119915   0.118   0.600   0.993
 6658TIP3    H219916   0.150   0.483   1.084
 6659TIP3   OH219917   0.153   5.367   5.975
 6659TIP3    H119918   0.240   5.374   5.936
 6659TIP3    H219919   0.109   5.298   5.925
 6660TIP3   OH219920   3.002   7.176   2.337
 6660TIP3    H119921   2.940   7.103   2.325
 6660TIP3    H219922   2.969   7.222   2.414
 6661TIP3   OH219923   5.697   5.248   6.166
 6661TIP3    H119924   5.617   5.219   6.123
 6661TIP3    H219925   5.752   5.169   6.168
 6662TIP3   OH219926   1.506   7.791   5.766
 6662TIP3    H119927   1.507   7.735   5.844
 6662TIP3    H219928   1.413   7.804   5.748
 6663TIP3   OH219929   7.743   4.495   1.855
 6663TIP3    H119930   7.683   4.549   1.906
 6663TIP3    H219931   7.806   4.558   1.819
 6664TIP3   OH219932   5.122   3.393   3.201
 6664TIP3    H119933   5.115   3.378   3.295
 6664TIP3    H219934   5.173   3.318   3.169
 6665TIP3   OH219935   2.395   3.727   4.775
 6665TIP3    H119936   2.390   3.819   4.802
 6665TIP3    H219937   2.336   3.682   4.834
 6666TIP3   OH219938   5.163   6.710   4.695
 6666TIP3    H119939   5.211   6.744   4.770
 6666TIP3    H219940   5.219   6.640   4.661
 6667TIP3   OH219941   0.460   6.795   3.065
 6667TIP3    H119942   0.505   6.868   3.022
 6667TIP3    H219943   0.476   6.809   3.159
 6668TIP3   OH219944   0.006   6.883   4.032
 6668TIP3    H119945   0.066   6.957   4.032
 6668TIP3    H219946   0.042   6.824   4.099
 6669TIP3   OH219947   1.355   4.180   3.586
 6669TIP3    H119948   1.392   4.250   3.533
 6669TIP3    H219949   1.263   4.177   3.562
 6670TIP3   OH219950   5.915   6.285   1.489
 6670TIP3    H119951   5.933   6.196   1.519
 6670TIP3    H219952   5.882   6.330   1.566
 6671TIP3   OH219953   1.856   5.331   5.577
 6671TIP3    H119954   1.772   5.288   5.595
 6671TIP3    H219955   1.921   5.270   5.612
 6672TIP3   OH219956   4.568   0.194   6.233
 6672TIP3    H119957   4.497   0.167   6.175
 6672TIP3    H219958   4.629   0.240   6.176
 6673TIP3   OH219959   4.678   6.744   4.707
 6673TIP3    H119960   4.591   6.772   4.678
 6673TIP3    H219961   4.665   6.656   4.742
 6674TIP3   OH219962   0.975   0.831   4.564
 6674TIP3    H119963   1.016   0.918   4.561
 6674TIP3    H219964   0.920   0.834   4.643
 6675TIP3   OH219965   5.749   0.631   2.455
 6675TIP3    H119966   5.780   0.565   2.517
 6675TIP3    H219967   5.730   0.708   2.509
 6676TIP3   OH219968   7.997   7.871   2.699
 6676TIP3    H119969   7.951   7.953   2.677
 6676TIP3    H219970   8.060   7.896   2.766
 6677TIP3   OH219971   4.778   5.923   1.941
 6677TIP3    H119972   4.855   5.888   1.986
 6677TIP3    H219973   4.810   6.002   1.896
 6678TIP3   OH219974   2.153   6.114   1.660
 6678TIP3    H119975   2.210   6.133   1.585
 6678TIP3    H219976   2.155   6.019   1.668
 6679TIP3   OH219977   6.244   7.179   4.017
 6679TIP3    H119978   6.235   7.270   4.044
 6679TIP3    H219979   6.154   7.148   4.009
 6680TIP3   OH219980   8.024   2.578   2.045
 6680TIP3    H119981   7.956   2.643   2.026
 6680TIP3    H219982   8.025   2.572   2.140
 6681TIP3   OH219983   1.416   2.243   3.282
 6681TIP3    H119984   1.371   2.241   3.367
 6681TIP3    H219985   1.471   2.322   3.286
 6682TIP3   OH219986   4.797   5.178   0.866
 6682TIP3    H119987   4.771   5.099   0.912
 6682TIP3    H219988   4.739   5.246   0.900
 6683TIP3   OH219989   5.946   4.034   6.621
 6683TIP3    H119990   5.867   4.079   6.651
 6683TIP3    H219991   6.005   4.105   6.596
 6684TIP3   OH219992   7.925   4.734   6.305
 6684TIP3    H119993   7.878   4.810   6.339
 6684TIP3    H219994   7.929   4.672   6.378
 6685TIP3   OH219995   7.827   4.168   3.072
 6685TIP3    H119996   7.834   4.172   2.977
 6685TIP3    H219997   7.904   4.118   3.100
 6686TIP3   OH219998   2.045   1.660   1.414
 6686TIP3    H119999   1.960   1.688   1.448
 6686TIP3    H220000   2.092   1.742   1.398
 6687TIP3   OH220001   0.305   1.492   0.642
 6687TIP3    H120002   0.368   1.431   0.679
 6687TIP3    H220003   0.271   1.540   0.718
 6688TIP3   OH220004   5.328   1.759   2.532
 6688TIP3    H120005   5.352   1.839   2.579
 6688TIP3    H220006   5.315   1.787   2.441
 6689TIP3   OH220007   7.782   7.616   2.479
 6689TIP3    H120008   7.863   7.582   2.518
 6689TIP3    H220009   7.727   7.638   2.555
 6690TIP3   OH220010   3.792   6.738   2.424
 6690TIP3    H120011   3.831   6.787   2.351
 6690TIP3    H220012   3.704   6.776   2.434
 6691TIP3   OH220013   6.357   7.165   6.283
 6691TIP3    H120014   6.274   7.128   6.252
 6691TIP3    H220015   6.357   7.146   6.377
 6692TIP3   OH220016   3.172   6.070   4.092
 6692TIP3    H120017   3.137   6.071   4.003
 6692TIP3    H220018   3.155   5.982   4.124
 6693TIP3   OH220019   2.094   7.723   5.971
 6693TIP3    H120020   2.048   7.639   5.975
 6693TIP3    H220021   2.143   7.728   6.053
 6694TIP3   OH220022   3.073   1.750   0.602
 6694TIP3    H120023   2.981   1.724   0.598
 6694TIP3    H220024   3.083   1.813   0.530
 6695TIP3   OH220025   3.577   2.080   4.162
 6695TIP3    H120026   3.576   2.061   4.256
 6695TIP3    H220027   3.515   2.017   4.124
 6696TIP3   OH220028   4.385   0.955   4.747
 6696TIP3    H120029   4.423   1.033   4.787
 6696TIP3    H220030   4.449   0.927   4.682
 6697TIP3   OH220031   3.804   7.125   2.352
 6697TIP3    H120032   3.819   7.180   2.275
 6697TIP3    H220033   3.873   7.059   2.348
 6698TIP3   OH220034   8.046   7.602   0.349
 6698TIP3    H120035   8.050   7.514   0.312
 6698TIP3    H220036   7.956   7.610   0.383
 6699TIP3   OH220037   1.549   1.672   1.399
 6699TIP3    H120038   1.491   1.737   1.439
 6699TIP3    H220039   1.500   1.639   1.324
 6700TIP3   OH220040   2.042   1.399   3.596
 6700TIP3    H120041   1.993   1.445   3.528
 6700TIP3    H220042   2.007   1.434   3.678
 6701TIP3   OH220043   2.599   5.362   4.992
 6701TIP3    H120044   2.550   5.407   5.061
 6701TIP3    H220045   2.533   5.331   4.931
 6702TIP3   OH220046   4.863   2.284   1.968
 6702TIP3    H120047   4.829   2.373   1.979
 6702TIP3    H220048   4.839   2.239   2.049
 6703TIP3   OH220049   2.579   4.330   6.549
 6703TIP3    H120050   2.604   4.298   6.636
 6703TIP3    H220051   2.550   4.421   6.564
 6704TIP3   OH220052   6.103   6.102   4.323
 6704TIP3    H120053   6.126   6.048   4.399
 6704TIP3    H220054   6.172   6.168   4.318
 6705TIP3   OH220055   8.072   2.894   0.484
 6705TIP3    H120056   8.050   2.817   0.432
 6705TIP3    H220057   8.047   2.969   0.429
 6706TIP3   OH220058   7.013   2.531   5.369
 6706TIP3    H120059   6.943   2.526   5.434
 6706TIP3    H220060   7.094   2.526   5.420
 6707TIP3   OH220061   7.435   0.962   5.430
 6707TIP3    H120062   7.363   1.010   5.471
 6707TIP3    H220063   7.498   1.029   5.403
 6708TIP3   OH220064   3.274   0.327   5.478
 6708TIP3    H120065   3.256   0.330   5.572
 6708TIP3    H220066   3.197   0.365   5.437
 6709TIP3   OH220067   5.012   4.009   4.397
 6709TIP3    H120068   5.097   4.052   4.393
 6709TIP3    H220069   4.948   4.080   4.389
 6710TIP3   OH220070   6.439   4.498   1.907
 6710TIP3    H120071   6.353   4.488   1.948
 6710TIP3    H220072   6.500   4.458   1.969
 6711TIP3   OH220073   4.941   3.888   0.066
 6711TIP3    H120074   4.921   3.811   0.119
 6711TIP3    H220075   5.020   3.864   0.017
 6712TIP3   OH220076   5.827   5.600   4.242
 6712TIP3    H120077   5.761   5.585   4.310
 6712TIP3    H220078   5.874   5.678   4.271
 6713TIP3   OH220079   0.337   1.737   5.561
 6713TIP3    H120080   0.277   1.731   5.636
 6713TIP3    H220081   0.339   1.830   5.540
 6714TIP3   OH220082   3.406   5.430   4.450
 6714TIP3    H120083   3.386   5.481   4.529
 6714TIP3    H220084   3.444   5.349   4.483
 6715TIP3   OH220085   1.689   6.792   3.799
 6715TIP3    H120086   1.753   6.777   3.868
 6715TIP3    H220087   1.741   6.819   3.723
 6716TIP3   OH220088   4.219   4.412   4.791
 6716TIP3    H120089   4.210   4.501   4.759
 6716TIP3    H220090   4.275   4.420   4.869
 6717TIP3   OH220091   4.373   2.515   5.027
 6717TIP3    H120092   4.319   2.578   4.980
 6717TIP3    H220093   4.349   2.526   5.119
 6718TIP3   OH220094   6.745   7.498   1.869
 6718TIP3    H120095   6.651   7.516   1.878
 6718TIP3    H220096   6.765   7.522   1.778
 6719TIP3   OH220097   2.518   1.772   3.294
 6719TIP3    H120098   2.444   1.826   3.322
 6719TIP3    H220099   2.550   1.814   3.215
 6720TIP3   OH220100   4.033   2.151   3.375
 6720TIP3    H120101   4.006   2.090   3.307
 6720TIP3    H220102   4.102   2.106   3.422
 6721TIP3   OH220103   4.132   4.923   3.239
 6721TIP3    H120104   4.213   4.946   3.284
 6721TIP3    H220105   4.160   4.891   3.154
 6722TIP3   OH220106   2.103   5.012   1.737
 6722TIP3    H120107   2.093   5.005   1.832
 6722TIP3    H220108   2.015   5.027   1.704
 6723TIP3   OH220109   7.305   1.650   5.934
 6723TIP3    H120110   7.249   1.619   5.863
 6723TIP3    H220111   7.330   1.571   5.982
 6724TIP3   OH220112   0.432   0.646   0.264
 6724TIP3    H120113   0.440   0.678   0.354
 6724TIP3    H220114   0.430   0.726   0.211
 6725TIP3   OH220115   1.953   6.318   1.530
 6725TIP3    H120116   2.014   6.253   1.566
 6725TIP3    H220117   2.006   6.397   1.519
 6726TIP3   OH220118   1.335   6.693   3.228
 6726TIP3    H120119   1.271   6.646   3.174
 6726TIP3    H220120   1.372   6.626   3.286
 6727TIP3   OH220121   6.351   1.913   6.260
 6727TIP3    H120122   6.279   1.976   6.257
 6727TIP3    H220123   6.331   1.856   6.334
 6728TIP3   OH220124   5.584   7.270   3.227
 6728TIP3    H120125   5.674   7.270   3.194
 6728TIP3    H220126   5.533   7.305   3.154
 6729TIP3   OH220127   6.352   6.583   1.731
 6729TIP3    H120128   6.379   6.491   1.726
 6729TIP3    H220129   6.406   6.627   1.665
 6730TIP3   OH220130   2.198   6.783   0.108
 6730TIP3    H120131   2.103   6.783   0.096
 6730TIP3    H220132   2.233   6.749   0.025
 6731TIP3   OH220133   5.531   1.390   5.413
 6731TIP3    H120134   5.463   1.458   5.407
 6731TIP3    H220135   5.611   1.439   5.432
 6732TIP3   OH220136   0.956   0.033   5.266
 6732TIP3    H120137   0.953   0.074   5.179
 6732TIP3    H220138   1.033  -0.024   5.262
 6733TIP3   OH220139   7.298   4.702   3.301
 6733TIP3    H120140   7.234   4.726   3.367
 6733TIP3    H220141   7.246   4.668   3.228
 6734TIP3   OH220142   5.104   1.426   4.144
 6734TIP3    H120143   5.127   1.396   4.056
 6734TIP3    H220144   5.187   1.429   4.191
 6735TIP3   OH220145   8.064   7.335   0.273
 6735TIP3    H120146   7.993   7.288   0.231
 6735TIP3    H220147   8.072   7.294   0.360
 6736TIP3   OH220148   2.418   0.079   2.248
 6736TIP3    H120149   2.474   0.141   2.294
 6736TIP3    H220150   2.331   0.118   2.251
 6737TIP3   OH220151   4.540   6.335   4.490
 6737TIP3    H120152   4.622   6.342   4.538
 6737TIP3    H220153   4.518   6.425   4.468
 6738TIP3   OH220154   7.225   2.400   5.772
 6738TIP3    H120155   7.308   2.436   5.805
 6738TIP3    H220156   7.180   2.368   5.851
 6739TIP3   OH220157   6.711   4.919   6.623
 6739TIP3    H120158   6.738   5.010   6.634
 6739TIP3    H220159   6.682   4.913   6.531
 6740TIP3   OH220160   8.221   0.859   1.104
 6740TIP3    H120161   8.154   0.926   1.095
 6740TIP3    H220162   8.175   0.784   1.143
 6741TIP3   OH220163   2.235   4.718   3.437
 6741TIP3    H120164   2.177   4.743   3.364
 6741TIP3    H220165   2.247   4.624   3.426
 6742TIP3   OH220166   1.269   2.642   4.567
 6742TIP3    H120167   1.279   2.691   4.485
 6742TIP3    H220168   1.182   2.665   4.598
 6743TIP3   OH220169   3.508   3.040   0.961
 6743TIP3    H120170   3.414   3.020   0.951
 6743TIP3    H220171   3.551   2.955   0.952
 6744TIP3   OH220172   4.813   2.008   1.508
 6744TIP3    H120173   4.839   1.978   1.421
 6744TIP3    H220174   4.896   2.029   1.551
 6745TIP3   OH220175   6.461   0.660   4.353
 6745TIP3    H120176   6.424   0.626   4.271
 6745TIP3    H220177   6.556   0.650   4.342
 6746TIP3   OH220178   2.180   5.752   5.929
 6746TIP3    H120179   2.175   5.734   6.023
 6746TIP3    H220180   2.180   5.665   5.889
 6747TIP3   OH220181   4.323   0.299   3.431
 6747TIP3    H120182   4.385   0.368   3.453
 6747TIP3    H220183   4.254   0.343   3.382
 6748TIP3   OH220184   6.213   3.358   1.579
 6748TIP3    H120185   6.173   3.300   1.513
 6748TIP3    H220186   6.306   3.355   1.560
 6749TIP3   OH220187   5.672   4.615   2.059
 6749TIP3    H120188   5.641   4.554   1.992
 6749TIP3    H220189   5.766   4.621   2.045
 6750TIP3   OH220190   4.076   1.434   3.557
 6750TIP3    H120191   3.988   1.469   3.571
 6750TIP3    H220192   4.080   1.357   3.613
 6751TIP3   OH220193   1.263   3.262   4.576
 6751TIP3    H120194   1.209   3.314   4.636
 6751TIP3    H220195   1.258   3.310   4.493
 6752TIP3   OH220196   2.700   7.230   6.181
 6752TIP3    H120197   2.770   7.166   6.171
 6752TIP3    H220198   2.635   7.186   6.236
 6753TIP3   OH220199   4.583   7.560   3.804
 6753TIP3    H120200   4.634   7.480   3.806
 6753TIP3    H220201   4.518   7.545   3.735
 6754TIP3   OH220202   4.176   5.866   3.485
 6754TIP3    H120203   4.199   5.773   3.486
 6754TIP3    H220204   4.218   5.902   3.563
 6755TIP3   OH220205   7.730   1.140   3.594
 6755TIP3    H120206   7.663   1.093   3.644
 6755TIP3    H220207   7.766   1.203   3.656
 6756TIP3   OH220208   4.521   1.902   2.118
 6756TIP3    H120209   4.552   1.951   2.195
 6756TIP3    H220210   4.518   1.967   2.048
 6757TIP3   OH220211   7.390   7.134   4.931
 6757TIP3    H120212   7.438   7.201   4.980
 6757TIP3    H220213   7.459   7.083   4.888
 6758TIP3   OH220214   3.725   6.939   0.730
 6758TIP3    H120215   3.806   6.959   0.777
 6758TIP3    H220216   3.663   6.913   0.799
 6759TIP3   OH220217   6.457   6.509   0.941
 6759TIP3    H120218   6.514   6.553   1.004
 6759TIP3    H220219   6.471   6.416   0.958
 6760TIP3   OH220220   5.071   3.084   5.835
 6760TIP3    H120221   4.985   3.108   5.869
 6760TIP3    H220222   5.057   2.997   5.796
 6761TIP3   OH220223   2.946   5.254   4.420
 6761TIP3    H120224   2.947   5.349   4.434
 6761TIP3    H220225   3.034   5.225   4.441
 6762TIP3   OH220226   7.884   6.011   4.443
 6762TIP3    H120227   7.864   6.042   4.354
 6762TIP3    H220228   7.898   5.917   4.433
 6763TIP3   OH220229   7.512   6.743   4.482
 6763TIP3    H120230   7.452   6.694   4.539
 6763TIP3    H220231   7.582   6.771   4.540
 6764TIP3   OH220232   5.447   6.339   3.527
 6764TIP3    H120233   5.451   6.435   3.521
 6764TIP3    H220234   5.456   6.310   3.436
 6765TIP3   OH220235   7.934   5.498   1.201
 6765TIP3    H120236   7.943   5.449   1.119
 6765TIP3    H220237   7.854   5.464   1.240
 6766TIP3   OH220238   7.306   1.801   1.000
 6766TIP3    H120239   7.360   1.730   1.034
 6766TIP3    H220240   7.298   1.782   0.906
 6767TIP3   OH220241   0.455   5.130   0.709
 6767TIP3    H120242   0.484   5.220   0.726
 6767TIP3    H220243   0.487   5.112   0.620
 6768TIP3   OH220244   2.674   7.043   1.364
 6768TIP3    H120245   2.676   6.950   1.384
 6768TIP3    H220246   2.672   7.048   1.269
 6769TIP3   OH220247   6.389   4.403   4.104
 6769TIP3    H120248   6.368   4.476   4.162
 6769TIP3    H220249   6.364   4.325   4.153
 6770TIP3   OH220250   0.826   3.999   1.133
 6770TIP3    H120251   0.905   4.047   1.106
 6770TIP3    H220252   0.859   3.929   1.189
 6771TIP3   OH220253   1.482   2.366   6.472
 6771TIP3    H120254   1.404   2.337   6.424
 6771TIP3    H220255   1.454   2.449   6.513
 6772TIP3   OH220256   5.001   2.184   3.915
 6772TIP3    H120257   5.057   2.108   3.905
 6772TIP3    H220258   4.934   2.158   3.978
 6773TIP3   OH220259   1.699   2.549   3.015
 6773TIP3    H120260   1.604   2.544   3.025
 6773TIP3    H220261   1.712   2.609   2.942
 6774TIP3   OH220262   1.998   0.923   1.394
 6774TIP3    H120263   1.921   0.874   1.366
 6774TIP3    H220264   1.983   0.943   1.486
 6775TIP3   OH220265   0.819   4.297   3.360
 6775TIP3    H120266   0.750   4.300   3.293
 6775TIP3    H220267   0.884   4.237   3.325
 6776TIP3   OH220268   1.288   2.791   4.339
 6776TIP3    H120269   1.211   2.837   4.306
 6776TIP3    H220270   1.357   2.858   4.341
 6777TIP3   OH220271   0.347   5.172   1.017
 6777TIP3    H120272   0.306   5.247   1.060
 6777TIP3    H220273   0.339   5.190   0.924
 6778TIP3   OH220274   6.567   5.194   5.956
 6778TIP3    H120275   6.505   5.268   5.956
 6778TIP3    H220276   6.511   5.116   5.954
 6779TIP3   OH220277   6.933   4.790   4.468
 6779TIP3    H120278   6.961   4.863   4.522
 6779TIP3    H220279   6.837   4.795   4.467
 6780TIP3   OH220280   1.600   0.577   0.467
 6780TIP3    H120281   1.581   0.667   0.440
 6780TIP3    H220282   1.579   0.524   0.391
 6781TIP3   OH220283   5.341   5.585   4.148
 6781TIP3    H120284   5.323   5.648   4.078
 6781TIP3    H220285   5.292   5.617   4.223
 6782TIP3   OH220286   7.638   0.879   1.106
 6782TIP3    H120287   7.706   0.830   1.061
 6782TIP3    H220288   7.666   0.881   1.197
 6783TIP3   OH220289   1.804   3.311   5.362
 6783TIP3    H120290   1.789   3.359   5.280
 6783TIP3    H220291   1.873   3.361   5.406
 6784TIP3   OH220292   3.074   4.516   6.613
 6784TIP3    H120293   3.137   4.553   6.550
 6784TIP3    H220294   3.126   4.502   6.692
 6785TIP3   OH220295   2.180   1.954   2.252
 6785TIP3    H120296   2.175   2.050   2.248
 6785TIP3    H220297   2.089   1.926   2.250
 6786TIP3   OH220298   5.643   4.951   4.625
 6786TIP3    H120299   5.663   4.895   4.550
 6786TIP3    H220300   5.550   4.937   4.641
 6787TIP3   OH220301   7.403   0.130   3.481
 6787TIP3    H120302   7.372   0.142   3.391
 6787TIP3    H220303   7.493   0.101   3.472
 6788TIP3   OH220304   3.029   3.227   0.838
 6788TIP3    H120305   2.989   3.291   0.898
 6788TIP3    H220306   3.102   3.274   0.798
 6789TIP3   OH220307   4.779   5.577   6.760
 6789TIP3    H120308   4.823   5.662   6.766
 6789TIP3    H220309   4.787   5.552   6.668
 6790TIP3   OH220310   1.725   1.176   0.287
 6790TIP3    H120311   1.820   1.173   0.292
 6790TIP3    H220312   1.703   1.268   0.303
 6791TIP3   OH220313   6.472   6.035   3.490
 6791TIP3    H120314   6.402   6.007   3.431
 6791TIP3    H220315   6.461   5.979   3.567
 6792TIP3   OH220316   8.261   4.985   5.223
 6792TIP3    H120317   8.334   4.932   5.191
 6792TIP3    H220318   8.286   5.008   5.312
 6793TIP3   OH220319   7.168   7.137   0.870
 6793TIP3    H120320   7.099   7.179   0.819
 6793TIP3    H220321   7.247   7.185   0.849
 6794TIP3   OH220322   0.296   2.446   1.923
 6794TIP3    H120323   0.317   2.533   1.889
 6794TIP3    H220324   0.202   2.450   1.942
 6795TIP3   OH220325   0.303   5.468   0.468
 6795TIP3    H120326   0.367   5.500   0.405
 6795TIP3    H220327   0.245   5.411   0.417
 6796TIP3   OH220328   7.566   0.259   4.778
 6796TIP3    H120329   7.474   0.281   4.795
 6796TIP3    H220330   7.598   0.225   4.861
 6797TIP3   OH220331   4.451   5.456   3.575
 6797TIP3    H120332   4.541   5.462   3.608
 6797TIP3    H220333   4.397   5.459   3.654
 6798TIP3   OH220334   5.105   2.158   3.378
 6798TIP3    H120335   5.175   2.143   3.315
 6798TIP3    H220336   5.089   2.071   3.416
 6799TIP3   OH220337   2.655   0.419   1.105
 6799TIP3    H120338   2.615   0.333   1.094
 6799TIP3    H220339   2.583   0.481   1.094
 6800TIP3   OH220340   2.972   3.014   3.612
 6800TIP3    H120341   2.946   3.093   3.565
 6800TIP3    H220342   2.973   2.946   3.545
 6801TIP3   OH220343   3.003   2.345   0.553
 6801TIP3    H120344   3.011   2.273   0.490
 6801TIP3    H220345   2.942   2.406   0.511
 6802TIP3   OH220346   1.502   5.236   6.706
 6802TIP3    H120347   1.444   5.312   6.713
 6802TIP3    H220348   1.573   5.255   6.767
 6803TIP3   OH220349   7.047   6.415   1.869
 6803TIP3    H120350   7.110   6.475   1.830
 6803TIP3    H220351   7.001   6.468   1.935
 6804TIP3   OH220352   7.926   2.515   6.749
 6804TIP3    H120353   7.953   2.459   6.822
 6804TIP3    H220354   7.940   2.604   6.781
 6805TIP3   OH220355   7.073   6.632   0.974
 6805TIP3    H120356   7.007   6.688   0.932
 6805TIP3    H220357   7.027   6.593   1.049
 6806TIP3   OH220358   6.783   0.934   4.922
 6806TIP3    H120359   6.768   0.963   5.012
 6806TIP3    H220360   6.697   0.939   4.881
 6807TIP3   OH220361   2.910   5.597   5.575
 6807TIP3    H120362   2.848   5.525   5.570
 6807TIP3    H220363   2.994   5.559   5.548
 6808TIP3   OH220364   5.698   3.295   6.304
 6808TIP3    H120365   5.768   3.229   6.306
 6808TIP3    H220366   5.663   3.291   6.215
 6809TIP3   OH220367   1.989   1.218   3.836
 6809TIP3    H120368   1.969   1.210   3.743
 6809TIP3    H220369   1.959   1.306   3.860
 6810TIP3   OH220370   6.515   5.635   4.500
 6810TIP3    H120371   6.569   5.590   4.436
 6810TIP3    H220372   6.475   5.708   4.451
 6811TIP3   OH220373   6.664   1.904   4.709
 6811TIP3    H120374   6.748   1.874   4.675
 6811TIP3    H220375   6.653   1.858   4.792
 6812TIP3   OH220376   1.593   4.026   6.245
 6812TIP3    H120377   1.564   3.937   6.226
 6812TIP3    H220378   1.541   4.052   6.321
 6813TIP3   OH220379   6.264   5.648   4.116
 6813TIP3    H120380   6.345   5.686   4.082
 6813TIP3    H220381   6.196   5.711   4.093
 6814TIP3   OH220382   1.419   7.489   0.036
 6814TIP3    H120383   1.483   7.425   0.005
 6814TIP3    H220384   1.410   7.551  -0.036
 6815TIP3   OH220385   6.663   4.520   3.690
 6815TIP3    H120386   6.702   4.605   3.710
 6815TIP3    H220387   6.633   4.486   3.775
 6816TIP3   OH220388   7.544   3.708   5.558
 6816TIP3    H120389   7.545   3.636   5.495
 6816TIP3    H220390   7.628   3.751   5.546
 6817TIP3   OH220391   3.759   0.133   3.598
 6817TIP3    H120392   3.802   0.060   3.642
 6817TIP3    H220393   3.666   0.121   3.618
 6818TIP3   OH220394   8.043   0.864   1.571
 6818TIP3    H120395   8.018   0.954   1.592
 6818TIP3    H220396   7.967   0.828   1.525
 6819TIP3   OH220397   5.072   0.384   4.381
 6819TIP3    H120398   5.025   0.373   4.299
 6819TIP3    H220399   5.014   0.438   4.435
 6820TIP3   OH220400   8.108   6.968   0.092
 6820TIP3    H120401   8.017   6.957   0.121
 6820TIP3    H220402   8.102   6.980  -0.003
 6821TIP3   OH220403   0.972   1.180   5.516
 6821TIP3    H120404   1.004   1.262   5.479
 6821TIP3    H220405   0.887   1.203   5.554
 6822TIP3   OH220406   6.507   2.092   2.996
 6822TIP3    H120407   6.478   2.163   2.939
 6822TIP3    H220408   6.597   2.075   2.970
 6823TIP3   OH220409   0.626   7.818   5.407
 6823TIP3    H120410   0.612   7.887   5.342
 6823TIP3    H220411   0.718   7.793   5.396
 6824TIP3   OH220412   0.567   2.589   0.654
 6824TIP3    H120413   0.503   2.644   0.609
 6824TIP3    H220414   0.537   2.500   0.640
 6825TIP3   OH220415   2.634   0.975   1.759
 6825TIP3    H120416   2.653   1.069   1.761
 6825TIP3    H220417   2.614   0.952   1.850
 6826TIP3   OH220418   6.155   2.901   5.832
 6826TIP3    H120419   6.061   2.884   5.821
 6826TIP3    H220420   6.160   2.961   5.906
 6827TIP3   OH220421   1.514   7.808   0.199
 6827TIP3    H120422   1.451   7.874   0.169
 6827TIP3    H220423   1.536   7.758   0.121
 6828TIP3   OH220424   1.259   6.078   4.847
 6828TIP3    H120425   1.240   6.045   4.759
 6828TIP3    H220426   1.347   6.115   4.840
 6829TIP3   OH220427   2.191   5.887   2.250
 6829TIP3    H120428   2.141   5.969   2.245
 6829TIP3    H220429   2.203   5.872   2.343
 6830TIP3   OH220430   6.962   6.453   2.670
 6830TIP3    H120431   6.908   6.479   2.596
 6830TIP3    H220432   6.902   6.457   2.745
 6831TIP3   OH220433   7.834   7.356   6.288
 6831TIP3    H120434   7.851   7.350   6.194
 6831TIP3    H220435   7.739   7.350   6.296
 6832TIP3   OH220436   3.357   5.060   5.514
 6832TIP3    H120437   3.333   5.047   5.606
 6832TIP3    H220438   3.372   5.155   5.507
 6833TIP3   OH220439   5.782   1.054   6.465
 6833TIP3    H120440   5.751   1.029   6.552
 6833TIP3    H220441   5.833   0.978   6.436
 6834TIP3   OH220442   8.073   3.611   2.587
 6834TIP3    H120443   8.151   3.565   2.556
 6834TIP3    H220444   8.027   3.547   2.640
 6835TIP3   OH220445   3.607   7.496   5.437
 6835TIP3    H120446   3.692   7.506   5.395
 6835TIP3    H220447   3.601   7.570   5.497
 6836TIP3   OH220448   4.825   7.130   0.460
 6836TIP3    H120449   4.735   7.164   0.466
 6836TIP3    H220450   4.830   7.091   0.373
 6837TIP3   OH220451   1.264   1.108   3.511
 6837TIP3    H120452   1.205   1.127   3.438
 6837TIP3    H220453   1.269   1.190   3.560
 6838TIP3   OH220454   5.219   1.805   0.558
 6838TIP3    H120455   5.154   1.766   0.616
 6838TIP3    H220456   5.273   1.732   0.528
 6839TIP3   OH220457   2.875   6.998   5.333
 6839TIP3    H120458   2.852   6.994   5.425
 6839TIP3    H220459   2.910   6.910   5.313
 6840TIP3   OH220460   7.965   6.502   4.102
 6840TIP3    H120461   8.035   6.552   4.061
 6840TIP3    H220462   7.987   6.501   4.195
 6841TIP3   OH220463   8.137   4.363   2.503
 6841TIP3    H120464   8.174   4.433   2.557
 6841TIP3    H220465   8.208   4.300   2.493
 6842TIP3   OH220466   3.710   0.221   2.077
 6842TIP3    H120467   3.797   0.200   2.110
 6842TIP3    H220468   3.667   0.266   2.150
 6843TIP3   OH220469   0.907   6.646   4.845
 6843TIP3    H120470   0.917   6.707   4.772
 6843TIP3    H220471   0.897   6.701   4.922
 6844TIP3   OH220472   0.150   4.860   2.029
 6844TIP3    H120473   0.140   4.932   2.091
 6844TIP3    H220474   0.244   4.847   2.022
 6845TIP3   OH220475   2.875   1.469   0.848
 6845TIP3    H120476   2.884   1.533   0.919
 6845TIP3    H220477   2.941   1.495   0.784
 6846TIP3   OH220478   2.775   4.648   1.545
 6846TIP3    H120479   2.802   4.684   1.630
 6846TIP3    H220480   2.807   4.712   1.481
 6847TIP3   OH220481   7.069   1.792   3.071
 6847TIP3    H120482   7.149   1.763   3.115
 6847TIP3    H220483   7.023   1.845   3.137
 6848TIP3   OH220484   2.872   6.792   3.791
 6848TIP3    H120485   2.948   6.736   3.775
 6848TIP3    H220486   2.875   6.810   3.885
 6849TIP3   OH220487   3.819   5.407   3.384
 6849TIP3    H120488   3.812   5.479   3.322
 6849TIP3    H220489   3.730   5.372   3.391
 6850TIP3   OH220490   2.312   1.930   0.379
 6850TIP3    H120491   2.274   1.849   0.413
 6850TIP3    H220492   2.237   1.987   0.365
 6851TIP3   OH220493   6.864   0.882   0.635
 6851TIP3    H120494   6.792   0.860   0.576
 6851TIP3    H220495   6.918   0.943   0.586
 6852TIP3   OH220496   5.821   0.798   0.530
 6852TIP3    H120497   5.782   0.855   0.464
 6852TIP3    H220498   5.910   0.782   0.499
 6853TIP3   OH220499   5.536   6.879   5.350
 6853TIP3    H120500   5.533   6.838   5.263
 6853TIP3    H220501   5.545   6.972   5.332
 6854TIP3   OH220502   7.605   3.271   5.637
 6854TIP3    H120503   7.516   3.303   5.651
 6854TIP3    H220504   7.637   3.248   5.724
 6855TIP3   OH220505   3.252   0.838   2.642
 6855TIP3    H120506   3.169   0.827   2.689
 6855TIP3    H220507   3.288   0.920   2.675
 6856TIP3   OH220508   1.202   0.486   0.085
 6856TIP3    H120509   1.277   0.437   0.053
 6856TIP3    H220510   1.126   0.444   0.043
 6857TIP3   OH220511   7.406   0.867   1.907
 6857TIP3    H120512   7.342   0.808   1.945
 6857TIP3    H220513   7.362   0.952   1.905
 6858TIP3   OH220514   6.272   0.681   0.442
 6858TIP3    H120515   6.334   0.749   0.470
 6858TIP3    H220516   6.210   0.726   0.386
 6859TIP3   OH220517   4.408   5.476   2.767
 6859TIP3    H120518   4.458   5.418   2.711
 6859TIP3    H220519   4.388   5.552   2.712
 6860TIP3   OH220520   6.108   2.577   0.942
 6860TIP3    H120521   6.051   2.500   0.932
 6860TIP3    H220522   6.061   2.633   1.004
 6861TIP3   OH220523   1.409   7.587   2.114
 6861TIP3    H120524   1.493   7.580   2.159
 6861TIP3    H220525   1.344   7.570   2.181
 6862TIP3   OH220526   1.256   4.132   1.754
 6862TIP3    H120527   1.211   4.112   1.836
 6862TIP3    H220528   1.324   4.196   1.778
 6863TIP3   OH220529   5.112   4.461   1.077
 6863TIP3    H120530   5.067   4.529   1.027
 6863TIP3    H220531   5.175   4.423   1.015
 6864TIP3   OH220532   8.276   1.413   3.934
 6864TIP3    H120533   8.360   1.398   3.978
 6864TIP3    H220534   8.221   1.454   4.001
 6865TIP3   OH220535   7.653   5.701   2.942
 6865TIP3    H120536   7.574   5.647   2.948
 6865TIP3    H220537   7.725   5.640   2.959
 6866TIP3   OH220538   3.114   5.798   0.066
 6866TIP3    H120539   3.195   5.815   0.114
 6866TIP3    H220540   3.134   5.723   0.011
 6867TIP3   OH220541   6.277   5.247   2.489
 6867TIP3    H120542   6.236   5.295   2.417
 6867TIP3    H220543   6.240   5.286   2.568
 6868TIP3   OH220544   7.332   6.860   6.038
 6868TIP3    H120545   7.249   6.907   6.036
 6868TIP3    H220546   7.356   6.847   5.946
 6869TIP3   OH220547   6.165   5.004   4.375
 6869TIP3    H120548   6.240   5.057   4.403
 6869TIP3    H220549   6.187   4.977   4.286
 6870TIP3   OH220550   7.133   2.951   1.656
 6870TIP3    H120551   7.171   2.967   1.742
 6870TIP3    H220552   7.096   3.036   1.631
 6871TIP3   OH220553   7.930   1.969   2.735
 6871TIP3    H120554   7.886   2.040   2.688
 6871TIP3    H220555   7.858   1.913   2.766
 6872TIP3   OH220556   5.586   0.041   4.971
 6872TIP3    H120557   5.572   0.135   4.973
 6872TIP3    H220558   5.498   0.003   4.976
 6873TIP3   OH220559   6.754   6.595   6.058
 6873TIP3    H120560   6.735   6.570   5.968
 6873TIP3    H220561   6.771   6.512   6.102
 6874TIP3   OH220562   7.578   3.839   1.140
 6874TIP3    H120563   7.585   3.906   1.209
 6874TIP3    H220564   7.652   3.781   1.157
 6875TIP3   OH220565   7.359   5.504   4.115
 6875TIP3    H120566   7.328   5.575   4.059
 6875TIP3    H220567   7.412   5.548   4.182
 6876TIP3   OH220568   1.114   0.082   6.833
 6876TIP3    H120569   1.068   0.163   6.812
 6876TIP3    H220570   1.198   0.110   6.868
 6877TIP3   OH220571   4.565   4.401   6.757
 6877TIP3    H120572   4.592   4.378   6.668
 6877TIP3    H220573   4.504   4.474   6.746
 6878TIP3   OH220574   4.291   7.356   5.486
 6878TIP3    H120575   4.201   7.380   5.506
 6878TIP3    H220576   4.298   7.364   5.391
 6879TIP3   OH220577   6.363   7.414   3.136
 6879TIP3    H120578   6.287   7.448   3.089
 6879TIP3    H220579   6.437   7.461   3.098
 6880TIP3   OH220580   3.854   7.875   3.921
 6880TIP3    H120581   3.806   7.805   3.964
 6880TIP3    H220582   3.803   7.954   3.939
 6881TIP3   OH220583   3.813   4.088   3.781
 6881TIP3    H120584   3.719   4.085   3.799
 6881TIP3    H220585   3.846   4.004   3.814
 6882TIP3   OH220586   5.999   6.567   4.518
 6882TIP3    H120587   5.937   6.531   4.581
 6882TIP3    H220588   6.074   6.594   4.571
 6883TIP3   OH220589   6.778   5.072   1.695
 6883TIP3    H120590   6.872   5.090   1.694
 6883TIP3    H220591   6.757   5.045   1.606
 6884TIP3   OH220592   6.345   0.874   0.096
 6884TIP3    H120593   6.275   0.915   0.046
 6884TIP3    H220594   6.364   0.793   0.049
 6885TIP3   OH220595   7.560   1.085   2.123
 6885TIP3    H120596   7.525   1.127   2.044
 6885TIP3    H220597   7.493   1.100   2.190
 6886TIP3   OH220598   0.600   1.278   1.271
 6886TIP3    H120599   0.531   1.279   1.337
 6886TIP3    H220600   0.568   1.219   1.203
 6887TIP3   OH220601   7.801   3.568   1.354
 6887TIP3    H120602   7.809   3.632   1.283
 6887TIP3    H220603   7.889   3.530   1.362
 6888TIP3   OH220604   1.672   3.664   0.548
 6888TIP3    H120605   1.600   3.615   0.588
 6888TIP3    H220606   1.697   3.611   0.472
 6889TIP3   OH220607   2.928   4.181   6.469
 6889TIP3    H120608   3.020   4.204   6.481
 6889TIP3    H220609   2.929   4.087   6.452
 6890TIP3   OH220610   1.530   4.265   0.825
 6890TIP3    H120611   1.593   4.318   0.873
 6890TIP3    H220612   1.447   4.310   0.836
 6891TIP3   OH220613   0.728   6.784   1.069
 6891TIP3    H120614   0.799   6.842   1.044
 6891TIP3    H220615   0.649   6.837   1.061
 6892TIP3   OH220616   0.996   7.783   2.282
 6892TIP3    H120617   0.961   7.871   2.296
 6892TIP3    H220618   0.924   7.735   2.241
 6893TIP3   OH220619   4.762   0.000   1.048
 6893TIP3    H120620   4.681   0.051   1.046
 6893TIP3    H220621   4.823   0.052   1.100
 6894TIP3   OH220622   0.856   6.394   3.849
 6894TIP3    H120623   0.769   6.433   3.836
 6894TIP3    H220624   0.916   6.455   3.806
 6895TIP3   OH220625   7.917   4.773   4.627
 6895TIP3    H120626   7.977   4.826   4.573
 6895TIP3    H220627   7.847   4.833   4.650
 6896TIP3   OH220628   5.234   3.069   3.350
 6896TIP3    H120629   5.253   3.058   3.257
 6896TIP3    H220630   5.292   3.140   3.378
 6897TIP3   OH220631   7.481   2.050   4.321
 6897TIP3    H120632   7.424   1.975   4.337
 6897TIP3    H220633   7.565   2.025   4.359
 6898TIP3   OH220634   3.683   1.962   4.387
 6898TIP3    H120635   3.753   1.901   4.411
 6898TIP3    H220636   3.633   1.973   4.468
 6899TIP3   OH220637   8.101   4.641   5.782
 6899TIP3    H120638   8.059   4.703   5.722
 6899TIP3    H220639   8.142   4.696   5.848
 6900TIP3   OH220640   5.001   6.376   4.121
 6900TIP3    H120641   5.008   6.469   4.142
 6900TIP3    H220642   4.958   6.374   4.035
 6901TIP3   OH220643   6.622   3.920   3.024
 6901TIP3    H120644   6.702   3.942   3.072
 6901TIP3    H220645   6.634   3.959   2.938
 6902TIP3   OH220646   6.207   4.704   1.105
 6902TIP3    H120647   6.229   4.718   1.013
 6902TIP3    H220648   6.115   4.729   1.112
 6903TIP3   OH220649   5.921   3.137   1.724
 6903TIP3    H120650   6.012   3.166   1.730
 6903TIP3    H220651   5.886   3.148   1.812
 6904TIP3   OH220652   4.906   1.215   3.113
 6904TIP3    H120653   4.991   1.207   3.158
 6904TIP3    H220654   4.848   1.158   3.163
 6905TIP3   OH220655   8.208   1.467   0.665
 6905TIP3    H120656   8.210   1.405   0.592
 6905TIP3    H220657   8.283   1.443   0.720
 6906TIP3   OH220658   6.865   0.941   1.924
 6906TIP3    H120659   6.778   0.905   1.907
 6906TIP3    H220660   6.867   0.955   2.018
 6907TIP3   OH220661   3.038   2.703   0.141
 6907TIP3    H120662   3.096   2.662   0.205
 6907TIP3    H220663   3.024   2.635   0.075
 6908TIP3   OH220664   1.006   6.175   5.499
 6908TIP3    H120665   1.044   6.087   5.492
 6908TIP3    H220666   0.976   6.195   5.410
 6909TIP3   OH220667   2.625   4.586   0.763
 6909TIP3    H120668   2.626   4.649   0.692
 6909TIP3    H220669   2.569   4.515   0.732
 6910TIP3   OH220670   7.476   4.174   1.982
 6910TIP3    H120671   7.533   4.101   2.006
 6910TIP3    H220672   7.388   4.137   1.984
 6911TIP3   OH220673   2.024   6.984   2.373
 6911TIP3    H120674   1.956   6.943   2.319
 6911TIP3    H220675   1.981   7.061   2.411
 6912TIP3   OH220676   5.349   6.214   2.290
 6912TIP3    H120677   5.266   6.248   2.255
 6912TIP3    H220678   5.336   6.213   2.385
 6913TIP3   OH220679   2.926   6.853   3.260
 6913TIP3    H120680   2.870   6.804   3.200
 6913TIP3    H220681   2.904   6.819   3.347
 6914TIP3   OH220682   2.845   0.890   5.271
 6914TIP3    H120683   2.935   0.879   5.242
 6914TIP3    H220684   2.852   0.922   5.361
 6915TIP3   OH220685   6.662   2.582   3.442
 6915TIP3    H120686   6.602   2.643   3.485
 6915TIP3    H220687   6.631   2.577   3.352
 6916TIP3   OH220688   5.415   6.112   1.387
 6916TIP3    H120689   5.474   6.169   1.435
 6916TIP3    H220690   5.448   6.024   1.404
 6917TIP3   OH220691   0.571   0.209   6.859
 6917TIP3    H120692   0.513   0.204   6.783
 6917TIP3    H220693   0.622   0.289   6.844
 6918TIP3   OH220694   3.943   3.219   3.162
 6918TIP3    H120695   4.001   3.265   3.101
 6918TIP3    H220696   3.858   3.261   3.151
 6919TIP3   OH220697   4.452   5.007   0.233
 6919TIP3    H120698   4.419   4.923   0.202
 6919TIP3    H220699   4.398   5.072   0.188
 6920TIP3   OH220700   6.440   2.011   1.008
 6920TIP3    H120701   6.454   1.936   1.067
 6920TIP3    H220702   6.496   1.994   0.933
 6921TIP3   OH220703   6.460   3.747   1.837
 6921TIP3    H120704   6.392   3.754   1.903
 6921TIP3    H220705   6.413   3.729   1.755
 6922TIP3   OH220706   6.507   1.026   0.958
 6922TIP3    H120707   6.541   1.077   0.884
 6922TIP3    H220708   6.536   0.937   0.940
 6923TIP3   OH220709   0.410   7.002   3.713
 6923TIP3    H120710   0.347   7.074   3.711
 6923TIP3    H220711   0.441   6.996   3.623
 6924TIP3   OH220712   6.958   1.708   1.325
 6924TIP3    H120713   6.939   1.643   1.392
 6924TIP3    H220714   7.000   1.780   1.372
 6925TIP3   OH220715   2.019   2.143   1.764
 6925TIP3    H120716   1.941   2.105   1.722
 6925TIP3    H220717   1.999   2.141   1.858
 6926TIP3   OH220718   3.665   6.373   3.587
 6926TIP3    H120719   3.686   6.456   3.630
 6926TIP3    H220720   3.634   6.399   3.500
 6927TIP3   OH220721   0.922   4.712   6.166
 6927TIP3    H120722   0.968   4.661   6.099
 6927TIP3    H220723   0.989   4.773   6.199
 6928TIP3   OH220724   5.310   4.742   2.290
 6928TIP3    H120725   5.265   4.698   2.362
 6928TIP3    H220726   5.318   4.675   2.222
 6929TIP3   OH220727   7.375   0.373   5.157
 6929TIP3    H120728   7.346   0.328   5.078
 6929TIP3    H220729   7.429   0.309   5.203
 6930TIP3   OH220730   8.191   4.184   6.867
 6930TIP3    H120731   8.145   4.108   6.830
 6930TIP3    H220732   8.165   4.257   6.809
 6931TIP3   OH220733   1.263   0.653   6.659
 6931TIP3    H120734   1.233   0.630   6.572
 6931TIP3    H220735   1.299   0.572   6.695
 6932TIP3   OH220736   8.201   1.828   4.171
 6932TIP3    H120737   8.169   1.877   4.247
 6932TIP3    H220738   8.277   1.780   4.203
 6933TIP3   OH220739   4.798   2.096   6.734
 6933TIP3    H120740   4.803   2.181   6.777
 6933TIP3    H220741   4.739   2.110   6.659
 6934TIP3   OH220742   3.122   6.034   2.248
 6934TIP3    H120743   3.040   5.983   2.247
 6934TIP3    H220744   3.105   6.104   2.311
 6935TIP3   OH220745   1.920   3.880   6.728
 6935TIP3    H120746   1.957   3.801   6.688
 6935TIP3    H220747   1.855   3.911   6.664
 6936TIP3   OH220748   0.683   0.950   3.137
 6936TIP3    H120749   0.656   1.014   3.072
 6936TIP3    H220750   0.746   0.894   3.091
 6937TIP3   OH220751   6.986   2.539   1.259
 6937TIP3    H120752   6.914   2.533   1.198
 6937TIP3    H220753   7.061   2.500   1.213
 6938TIP3   OH220754   6.881   7.506   2.953
 6938TIP3    H120755   6.960   7.555   2.930
 6938TIP3    H220756   6.880   7.431   2.894
 6939TIP3   OH220757   2.536   3.026   5.746
 6939TIP3    H120758   2.461   2.974   5.775
 6939TIP3    H220759   2.501   3.115   5.738
 6940TIP3   OH220760   1.173   4.915   4.194
 6940TIP3    H120761   1.102   4.914   4.131
 6940TIP3    H220762   1.145   4.855   4.263
 6941TIP3   OH220763   2.416   1.109   4.889
 6941TIP3    H120764   2.342   1.105   4.828
 6941TIP3    H220765   2.462   1.190   4.864
 6942TIP3   OH220766   4.293   4.455   6.426
 6942TIP3    H120767   4.293   4.418   6.337
 6942TIP3    H220768   4.206   4.433   6.461
 6943TIP3   OH220769   1.038   6.167   0.504
 6943TIP3    H120770   1.103   6.106   0.538
 6943TIP3    H220771   0.981   6.186   0.578
 6944TIP3   OH220772   7.050   5.733   2.425
 6944TIP3    H120773   6.958   5.752   2.409
 6944TIP3    H220774   7.085   5.707   2.339
 6945TIP3   OH220775   2.824   2.948   6.765
 6945TIP3    H120776   2.789   2.947   6.854
 6945TIP3    H220777   2.821   3.040   6.739
 6946TIP3   OH220778   0.248   1.762   6.168
 6946TIP3    H120779   0.218   1.851   6.185
 6946TIP3    H220780   0.340   1.771   6.146
 6947TIP3   OH220781   0.184   1.021   3.410
 6947TIP3    H120782   0.105   1.075   3.408
 6947TIP3    H220783   0.196   0.999   3.502
 6948TIP3   OH220784   7.483   5.742   1.633
 6948TIP3    H120785   7.542   5.755   1.559
 6948TIP3    H220786   7.523   5.672   1.684
 6949TIP3   OH220787   4.276   7.068   5.863
 6949TIP3    H120788   4.218   7.095   5.791
 6949TIP3    H220789   4.364   7.072   5.825
 6950TIP3   OH220790   6.298   2.636   5.323
 6950TIP3    H120791   6.242   2.667   5.393
 6950TIP3    H220792   6.360   2.577   5.366
 6951TIP3   OH220793   0.095   1.605   6.441
 6951TIP3    H120794   0.059   1.530   6.394
 6951TIP3    H220795   0.173   1.629   6.391
 6952TIP3   OH220796   7.424   2.982   2.305
 6952TIP3    H120797   7.372   2.945   2.234
 6952TIP3    H220798   7.366   2.979   2.381
 6953TIP3   OH220799   1.867   2.909   3.184
 6953TIP3    H120800   1.852   3.003   3.179
 6953TIP3    H220801   1.781   2.872   3.205
 6954TIP3   OH220802   5.456   7.789   4.559
 6954TIP3    H120803   5.526   7.794   4.494
 6954TIP3    H220804   5.483   7.719   4.618
 6955TIP3   OH220805   2.588   7.366   1.243
 6955TIP3    H120806   2.658   7.369   1.178
 6955TIP3    H220807   2.579   7.456   1.273
 6956TIP3   OH220808   1.771   1.561   1.229
 6956TIP3    H120809   1.783   1.468   1.211
 6956TIP3    H220810   1.715   1.563   1.307
 6957TIP3   OH220811   1.782   4.039   2.225
 6957TIP3    H120812   1.772   3.974   2.294
 6957TIP3    H220813   1.693   4.055   2.194
 6958TIP3   OH220814   4.753   6.076   1.513
 6958TIP3    H120815   4.669   6.049   1.551
 6958TIP3    H220816   4.731   6.149   1.456
 6959TIP3   OH220817   7.808   2.356   0.093
 6959TIP3    H120818   7.847   2.399   0.018
 6959TIP3    H220819   7.714   2.371   0.083
 6960TIP3   OH220820   7.044   4.554   3.997
 6960TIP3    H120821   7.029   4.632   4.050
 6960TIP3    H220822   6.957   4.527   3.968
 6961TIP3   OH220823   3.660   2.080   6.197
 6961TIP3    H120824   3.639   2.157   6.143
 6961TIP3    H220825   3.624   2.101   6.283
 6962TIP3   OH220826   0.287   2.295   1.180
 6962TIP3    H120827   0.316   2.220   1.128
 6962TIP3    H220828   0.228   2.257   1.246
 6963TIP3   OH220829   5.424   3.605   6.201
 6963TIP3    H120830   5.439   3.541   6.271
 6963TIP3    H220831   5.511   3.638   6.180
 6964TIP3   OH220832   7.647   6.639   2.776
 6964TIP3    H120833   7.597   6.665   2.699
 6964TIP3    H220834   7.707   6.572   2.745
 6965TIP3   OH220835   6.534   2.262   0.119
 6965TIP3    H120836   6.548   2.175   0.156
 6965TIP3    H220837   6.616   2.308   0.134
 6966TIP3   OH220838   1.514   3.695   1.688
 6966TIP3    H120839   1.428   3.704   1.648
 6966TIP3    H220840   1.575   3.710   1.616
 6967TIP3   OH220841   0.370   3.805   3.149
 6967TIP3    H120842   0.424   3.754   3.088
 6967TIP3    H220843   0.432   3.840   3.213
 6968TIP3   OH220844   5.406   5.643   1.966
 6968TIP3    H120845   5.373   5.565   1.921
 6968TIP3    H220846   5.345   5.656   2.039
 6969TIP3   OH220847   7.616   4.931   5.774
 6969TIP3    H120848   7.592   4.969   5.859
 6969TIP3    H220849   7.567   4.981   5.710
 6970TIP3   OH220850   7.207   6.850   0.186
 6970TIP3    H120851   7.150   6.919   0.219
 6970TIP3    H220852   7.241   6.806   0.264
 6971TIP3   OH220853   3.732   6.940   6.070
 6971TIP3    H120854   3.711   6.984   5.987
 6971TIP3    H220855   3.765   7.010   6.126
 6972TIP3   OH220856   3.719   5.067   6.046
 6972TIP3    H120857   3.638   5.066   6.097
 6972TIP3    H220858   3.788   5.054   6.110
 6973TIP3   OH220859   0.644   5.842   1.749
 6973TIP3    H120860   0.682   5.892   1.677
 6973TIP3    H220861   0.576   5.788   1.708
 6974TIP3   OH220862   7.928   7.514   6.828
 6974TIP3    H120863   7.866   7.534   6.757
 6974TIP3    H220864   7.970   7.432   6.800
 6975TIP3   OH220865   7.533   0.489   0.318
 6975TIP3    H120866   7.499   0.578   0.325
 6975TIP3    H220867   7.535   0.471   0.223
 6976TIP3   OH220868   7.756   7.352   1.983
 6976TIP3    H120869   7.717   7.424   2.034
 6976TIP3    H220870   7.787   7.393   1.903
 6977TIP3   OH220871   7.035   7.384   4.439
 6977TIP3    H120872   7.030   7.405   4.533
 6977TIP3    H220873   7.005   7.293   4.434
 6978TIP3   OH220874   2.076   0.383   3.726
 6978TIP3    H120875   2.085   0.476   3.705
 6978TIP3    H220876   2.166   0.352   3.738
 6979TIP3   OH220877   0.558   0.109   4.489
 6979TIP3    H120878   0.567   0.173   4.560
 6979TIP3    H220879   0.541   0.026   4.533
 6980TIP3   OH220880   5.318   6.735   1.789
 6980TIP3    H120881   5.398   6.750   1.740
 6980TIP3    H220882   5.248   6.770   1.733
 6981TIP3   OH220883   0.249   0.125   2.481
 6981TIP3    H120884   0.275   0.202   2.532
 6981TIP3    H220885   0.262   0.052   2.541
 6982TIP3   OH220886   4.041   1.318   0.160
 6982TIP3    H120887   3.986   1.378   0.109
 6982TIP3    H220888   3.988   1.297   0.237
 6983TIP3   OH220889   4.907   3.648   3.213
 6983TIP3    H120890   4.893   3.728   3.263
 6983TIP3    H220891   4.985   3.608   3.252
 6984TIP3   OH220892   1.670   0.340   3.993
 6984TIP3    H120893   1.736   0.326   4.060
 6984TIP3    H220894   1.714   0.320   3.911
 6985TIP3   OH220895   2.841   4.948   3.590
 6985TIP3    H120896   2.756   4.987   3.613
 6985TIP3    H220897   2.819   4.880   3.526
 6986TIP3   OH220898   2.059   3.244   1.569
 6986TIP3    H120899   2.049   3.227   1.663
 6986TIP3    H220900   1.970   3.242   1.535
 6987TIP3   OH220901   1.333   6.450   0.260
 6987TIP3    H120902   1.309   6.512   0.190
 6987TIP3    H220903   1.421   6.422   0.238
 6988TIP3   OH220904   3.475   1.714   1.724
 6988TIP3    H120905   3.430   1.671   1.796
 6988TIP3    H220906   3.561   1.672   1.721
 6989TIP3   OH220907   1.417   1.994   6.668
 6989TIP3    H120908   1.336   1.944   6.659
 6989TIP3    H220909   1.487   1.930   6.653
 6990TIP3   OH220910   3.827   1.313   4.894
 6990TIP3    H120911   3.782   1.347   4.817
 6990TIP3    H220912   3.775   1.345   4.968
 6991TIP3   OH220913   3.641   4.464   2.773
 6991TIP3    H120914   3.632   4.484   2.680
 6991TIP3    H220915   3.684   4.540   2.811
 6992TIP3   OH220916   0.369   6.023   1.883
 6992TIP3    H120917   0.351   6.011   1.790
 6992TIP3    H220918   0.432   6.095   1.887
 6993TIP3   OH220919   6.163   6.360   3.314
 6993TIP3    H120920   6.177   6.451   3.340
 6993TIP3    H220921   6.105   6.365   3.238
 6994TIP3   OH220922   8.131   3.561   1.449
 6994TIP3    H120923   8.147   3.466   1.446
 6994TIP3    H220924   8.066   3.573   1.518
 6995TIP3   OH220925   6.544   3.209   1.703
 6995TIP3    H120926   6.536   3.288   1.756
 6995TIP3    H220927   6.593   3.148   1.757
 6996TIP3   OH220928   8.197   2.628   5.017
 6996TIP3    H120929   8.292   2.642   5.009
 6996TIP3    H220930   8.177   2.564   4.949
 6997TIP3   OH220931   1.237   2.722   2.096
 6997TIP3    H120932   1.287   2.674   2.163
 6997TIP3    H220933   1.304   2.750   2.033
 6998TIP3   OH220934   8.388   2.678   4.557
 6998TIP3    H120935   8.334   2.609   4.595
 6998TIP3    H220936   8.338   2.709   4.481
 6999TIP3   OH220937   2.772   6.204   5.795
 6999TIP3    H120938   2.679   6.216   5.776
 6999TIP3    H220939   2.795   6.281   5.847
 7000TIP3   OH220940   5.474   6.697   5.092
 7000TIP3    H120941   5.507   6.607   5.086
 7000TIP3    H220942   5.433   6.703   5.178
 7001TIP3   OH220943   2.571   6.881   2.248
 7001TIP3    H120944   2.502   6.919   2.192
 7001TIP3    H220945   2.540   6.896   2.337
 7002TIP3   OH220946   5.438   1.690   4.017
 7002TIP3    H120947   5.384   1.697   3.938
 7002TIP3    H220948   5.424   1.600   4.046
 7003TIP3   OH220949   1.189   4.438   0.474
 7003TIP3    H120950   1.170   4.488   0.394
 7003TIP3    H220951   1.117   4.375   0.480
 7004TIP3   OH220952   4.147   6.399   0.482
 7004TIP3    H120953   4.118   6.362   0.398
 7004TIP3    H220954   4.082   6.465   0.503
 7005TIP3   OH220955   3.558   5.756   2.421
 7005TIP3    H120956   3.591   5.798   2.501
 7005TIP3    H220957   3.463   5.763   2.429
 7006TIP3   OH220958   6.269   2.775   6.172
 7006TIP3    H120959   6.211   2.846   6.144
 7006TIP3    H220960   6.308   2.742   6.091
 7007TIP3   OH220961   6.786   2.361   5.374
 7007TIP3    H120962   6.878   2.337   5.387
 7007TIP3    H220963   6.760   2.403   5.456
 7008TIP3   OH220964   7.438   4.844   5.372
 7008TIP3    H120965   7.415   4.833   5.464
 7008TIP3    H220966   7.371   4.904   5.338
 7009TIP3   OH220967   6.773   7.253   1.564
 7009TIP3    H120968   6.832   7.315   1.607
 7009TIP3    H220969   6.686   7.289   1.578
 7010TIP3   OH220970   4.030   1.169   5.900
 7010TIP3    H120971   3.953   1.114   5.883
 7010TIP3    H220972   4.030   1.181   5.995
 7011TIP3   OH220973   7.882   5.901   6.632
 7011TIP3    H120974   7.932   5.979   6.655
 7011TIP3    H220975   7.889   5.896   6.537
 7012TIP3   OH220976   3.674   5.760   0.826
 7012TIP3    H120977   3.726   5.840   0.822
 7012TIP3    H220978   3.661   5.745   0.920
 7013TIP3   OH220979   1.546   0.837   4.096
 7013TIP3    H120980   1.519   0.928   4.096
 7013TIP3    H220981   1.464   0.787   4.100
 7014TIP3   OH220982   8.376   2.260   6.311
 7014TIP3    H120983   8.320   2.239   6.385
 7014TIP3    H220984   8.317   2.299   6.246
 7015TIP3   OH220985   0.035   0.641   4.701
 7015TIP3    H120986  -0.011   0.723   4.683
 7015TIP3    H220987   0.017   0.586   4.625
 7016TIP3   OH220988   1.111   5.119   2.403
 7016TIP3    H120989   1.118   5.187   2.470
 7016TIP3    H220990   1.018   5.119   2.379
 7017TIP3   OH220991   5.679   4.970   1.931
 7017TIP3    H120992   5.595   4.925   1.939
 7017TIP3    H220993   5.726   4.946   2.012
 7018TIP3   OH220994   1.264   5.190   2.842
 7018TIP3    H120995   1.293   5.275   2.875
 7018TIP3    H220996   1.340   5.156   2.794
 7019TIP3   OH220997   4.049   7.086   3.236
 7019TIP3    H120998   3.988   7.119   3.303
 7019TIP3    H220999   4.005   7.011   3.198
 7020TIP3   OH221000   2.873   2.741   3.943
 7020TIP3    H121001   2.839   2.694   4.020
 7020TIP3    H221002   2.902   2.671   3.884
 7021TIP3   OH221003   1.799   1.744   1.505
 7021TIP3    H121004   1.795   1.674   1.570
 7021TIP3    H221005   1.719   1.733   1.454
 7022TIP3   OH221006   3.429   1.884   3.994
 7022TIP3    H121007   3.441   1.879   3.899
 7022TIP3    H221008   3.449   1.796   4.026
 7023TIP3   OH221009   8.148   5.169   6.613
 7023TIP3    H121010   8.093   5.237   6.654
 7023TIP3    H221011   8.173   5.111   6.685
 7024TIP3   OH221012   3.447   4.335   2.139
 7024TIP3    H121013   3.480   4.412   2.091
 7024TIP3    H221014   3.406   4.372   2.217
 7025TIP3   OH221015   0.569   7.197   6.568
 7025TIP3    H121016   0.539   7.273   6.519
 7025TIP3    H221017   0.591   7.132   6.501
 7026TIP3   OH221018   5.732   7.469   6.695
 7026TIP3    H121019   5.797   7.438   6.759
 7026TIP3    H221020   5.657   7.410   6.707
 7027TIP3   OH221021   6.834   6.419   5.483
 7027TIP3    H121022   6.868   6.384   5.401
 7027TIP3    H221023   6.817   6.342   5.538
 7028TIP3   OH221024   6.449   4.416   0.750
 7028TIP3    H121025   6.462   4.421   0.845
 7028TIP3    H221026   6.387   4.344   0.738
 7029TIP3   OH221027   4.946   7.606   5.045
 7029TIP3    H121028   4.887   7.532   5.060
 7029TIP3    H221029   5.032   7.573   5.072
 7030TIP3   OH221030   3.999   5.240   2.137
 7030TIP3    H121031   4.003   5.283   2.223
 7030TIP3    H221032   4.066   5.171   2.142
 7031TIP3   OH221033   7.032   2.063   1.633
 7031TIP3    H121034   7.087   2.017   1.697
 7031TIP3    H221035   7.051   2.156   1.648
 7032TIP3   OH221036   1.587   0.788   5.600
 7032TIP3    H121037   1.512   0.749   5.645
 7032TIP3    H221038   1.561   0.879   5.584
 7033TIP3   OH221039   0.055   4.160   6.339
 7033TIP3    H121040   0.130   4.100   6.335
 7033TIP3    H221041  -0.019   4.103   6.360
 7034TIP3   OH221042   8.049   5.423   2.548
 7034TIP3    H121043   8.020   5.431   2.457
 7034TIP3    H221044   8.057   5.328   2.562
 7035TIP3   OH221045   5.488   0.954   3.110
 7035TIP3    H121046   5.467   1.030   3.057
 7035TIP3    H221047   5.446   0.881   3.065
 7036TIP3   OH221048   6.536   7.781   6.832
 7036TIP3    H121049   6.610   7.842   6.825
 7036TIP3    H221050   6.538   7.733   6.749
 7037TIP3   OH221051   8.357   1.667   5.065
 7037TIP3    H121052   8.266   1.636   5.063
 7037TIP3    H221053   8.404   1.599   5.113
 7038TIP3   OH221054   7.676   4.680   0.743
 7038TIP3    H121055   7.679   4.761   0.691
 7038TIP3    H221056   7.766   4.647   0.743
 7039TIP3   OH221057   3.811   0.156   3.941
 7039TIP3    H121058   3.744   0.218   3.913
 7039TIP3    H221059   3.771   0.107   4.013
 7040TIP3   OH221060   2.804   6.166   0.272
 7040TIP3    H121061   2.755   6.089   0.242
 7040TIP3    H221062   2.769   6.238   0.219
 7041TIP3   OH221063   1.580   3.213   2.079
 7041TIP3    H121064   1.538   3.291   2.043
 7041TIP3    H221065   1.509   3.168   2.125
 7042TIP3   OH221066   1.861   2.132   5.504
 7042TIP3    H121067   1.852   2.196   5.574
 7042TIP3    H221068   1.909   2.059   5.544
 7043TIP3   OH221069   1.888   2.690   0.553
 7043TIP3    H121070   1.925   2.746   0.485
 7043TIP3    H221071   1.845   2.619   0.505
 7044TIP3   OH221072   6.835   4.124   1.857
 7044TIP3    H121073   6.880   4.184   1.915
 7044TIP3    H221074   6.787   4.065   1.915
 7045TIP3   OH221075   6.239   7.227   3.550
 7045TIP3    H121076   6.273   7.139   3.565
 7045TIP3    H221077   6.313   7.275   3.514
 7046TIP3   OH221078   3.424   0.249   2.245
 7046TIP3    H121079   3.334   0.215   2.242
 7046TIP3    H221080   3.422   0.313   2.316
 7047TIP3   OH221081   4.271   1.066   6.325
 7047TIP3    H121082   4.251   1.036   6.236
 7047TIP3    H221083   4.261   0.988   6.379
 7048TIP3   OH221084   6.900   2.260   5.741
 7048TIP3    H121085   6.983   2.251   5.789
 7048TIP3    H221086   6.896   2.353   5.719
 7049TIP3   OH221087   0.371   2.603   2.535
 7049TIP3    H121088   0.418   2.629   2.456
 7049TIP3    H221089   0.317   2.679   2.557
 7050TIP3   OH221090   0.926   6.605   3.665
 7050TIP3    H121091   0.964   6.574   3.583
 7050TIP3    H221092   0.987   6.673   3.695
 7051TIP3   OH221093   2.761   4.760   3.387
 7051TIP3    H121094   2.801   4.673   3.378
 7051TIP3    H221095   2.691   4.760   3.322
 7052TIP3   OH221096   1.861   0.238   3.780
 7052TIP3    H121097   1.939   0.293   3.766
 7052TIP3    H221098   1.894   0.163   3.830
 7053TIP3   OH221099   6.387   6.687   5.246
 7053TIP3    H121100   6.389   6.733   5.162
 7053TIP3    H221101   6.406   6.754   5.311
 7054TIP3   OH221102   2.748   5.108   5.725
 7054TIP3    H121103   2.706   5.042   5.670
 7054TIP3    H221104   2.761   5.065   5.809
 7055TIP3   OH221105   8.354   7.244   1.403
 7055TIP3    H121106   8.296   7.270   1.331
 7055TIP3    H221107   8.419   7.315   1.408
 7056TIP3   OH221108   2.923   7.244   4.062
 7056TIP3    H121109   2.830   7.220   4.067
 7056TIP3    H221110   2.922   7.338   4.044
 7057TIP3   OH221111   7.964   2.444   0.289
 7057TIP3    H121112   7.900   2.397   0.236
 7057TIP3    H221113   7.912   2.501   0.346
 7058TIP3   OH221114   1.478   5.419   4.956
 7058TIP3    H121115   1.499   5.328   4.939
 7058TIP3    H221116   1.539   5.469   4.901
 7059TIP3   OH221117   4.375   2.070   3.461
 7059TIP3    H121118   4.342   2.159   3.472
 7059TIP3    H221119   4.461   2.071   3.502
 7060TIP3   OH221120   5.680   4.449   0.921
 7060TIP3    H121121   5.643   4.364   0.896
 7060TIP3    H221122   5.603   4.501   0.945
 7061TIP3   OH221123   2.226   3.395   5.426
 7061TIP3    H121124   2.313   3.416   5.393
 7061TIP3    H221125   2.208   3.307   5.394
 7062TIP3   OH221126   3.646   2.953   6.074
 7062TIP3    H121127   3.655   3.036   6.120
 7062TIP3    H221128   3.668   2.973   5.983
 7063TIP3   OH221129   0.740   2.768   2.583
 7063TIP3    H121130   0.679   2.834   2.550
 7063TIP3    H221131   0.687   2.711   2.638
 7064TIP3   OH221132   2.440   1.727   5.243
 7064TIP3    H121133   2.453   1.641   5.204
 7064TIP3    H221134   2.492   1.726   5.323
 7065TIP3   OH221135   3.117   4.260   4.445
 7065TIP3    H121136   3.186   4.217   4.395
 7065TIP3    H221137   3.108   4.207   4.525
 7066TIP3   OH221138   3.376   0.103   4.267
 7066TIP3    H121139   3.367   0.054   4.348
 7066TIP3    H221140   3.442   0.170   4.286
 7067TIP3   OH221141   1.701   2.687   3.492
 7067TIP3    H121142   1.665   2.707   3.406
 7067TIP3    H221143   1.783   2.642   3.474
 7068TIP3   OH221144   2.976   0.881   1.525
 7068TIP3    H121145   2.992   0.969   1.491
 7068TIP3    H221146   3.008   0.884   1.616
 7069TIP3   OH221147   2.595   1.677   2.403
 7069TIP3    H121148   2.543   1.645   2.476
 7069TIP3    H221149   2.540   1.744   2.362
 7070TIP3   OH221150   0.140   3.646   0.425
 7070TIP3    H121151   0.046   3.666   0.421
 7070TIP3    H221152   0.153   3.578   0.358
 7071TIP3   OH221153   1.337   0.510   0.856
 7071TIP3    H121154   1.357   0.509   0.949
 7071TIP3    H221155   1.387   0.584   0.821
 7072TIP3   OH221156   8.120   2.119   5.674
 7072TIP3    H121157   8.032   2.149   5.652
 7072TIP3    H221158   8.166   2.116   5.590
 7073TIP3   OH221159   1.161   6.567   5.892
 7073TIP3    H121160   1.200   6.612   5.968
 7073TIP3    H221161   1.226   6.502   5.867
 7074TIP3   OH221162   7.242   6.108   6.726
 7074TIP3    H121163   7.324   6.072   6.690
 7074TIP3    H221164   7.197   6.032   6.761
 7075TIP3   OH221165   2.568   2.681   2.720
 7075TIP3    H121166   2.550   2.611   2.782
 7075TIP3    H221167   2.643   2.649   2.669
 7076TIP3   OH221168   2.215   0.080   1.931
 7076TIP3    H121169   2.262   0.008   1.971
 7076TIP3    H221170   2.156   0.038   1.868
 7077TIP3   OH221171   6.455   5.348   1.147
 7077TIP3    H121172   6.368   5.328   1.114
 7077TIP3    H221173   6.505   5.268   1.133
 7078TIP3   OH221174   6.179   3.584   4.055
 7078TIP3    H121175   6.273   3.599   4.047
 7078TIP3    H221176   6.171   3.510   4.115
 7079TIP3   OH221177   6.375   2.322   0.742
 7079TIP3    H121178   6.458   2.361   0.717
 7079TIP3    H221179   6.349   2.367   0.822
 7080TIP3   OH221180   2.547   1.920   5.700
 7080TIP3    H121181   2.516   1.936   5.789
 7080TIP3    H221182   2.618   1.983   5.687
 7081TIP3   OH221183   4.689   6.915   1.132
 7081TIP3    H121184   4.682   6.841   1.071
 7081TIP3    H221185   4.655   6.881   1.215
 7082TIP3   OH221186   1.458   0.848   0.479
 7082TIP3    H121187   1.534   0.907   0.485
 7082TIP3    H221188   1.392   0.899   0.431
 7083TIP3   OH221189   6.830   6.203   4.582
 7083TIP3    H121190   6.867   6.128   4.536
 7083TIP3    H221191   6.743   6.214   4.544
 7084TIP3   OH221192   4.241   7.438   0.047
 7084TIP3    H121193   4.265   7.350   0.020
 7084TIP3    H221194   4.151   7.448   0.017
 7085TIP3   OH221195   5.798   2.463   1.096
 7085TIP3    H121196   5.811   2.473   1.191
 7085TIP3    H221197   5.716   2.415   1.088
 7086TIP3   OH221198   0.203   6.501   5.911
 7086TIP3    H121199   0.121   6.549   5.913
 7086TIP3    H221200   0.230   6.503   5.819
 7087TIP3   OH221201   5.950   5.936   3.801
 7087TIP3    H121202   5.869   5.917   3.754
 7087TIP3    H221203   5.945   6.030   3.820
 7088TIP3   OH221204   0.761   7.138   2.447
 7088TIP3    H121205   0.688   7.079   2.432
 7088TIP3    H221206   0.813   7.133   2.366
 7089TIP3   OH221207   7.298   4.099   1.401
 7089TIP3    H121208   7.340   4.021   1.437
 7089TIP3    H221209   7.303   4.163   1.472
 7090TIP3   OH221210   6.264   1.663   0.960
 7090TIP3    H121211   6.283   1.585   1.012
 7090TIP3    H221212   6.340   1.672   0.902
 7091TIP3   OH221213   2.737   3.449   0.357
 7091TIP3    H121214   2.664   3.441   0.418
 7091TIP3    H221215   2.784   3.366   0.366
 7092TIP3   OH221216   5.939   4.200   2.134
 7092TIP3    H121217   5.895   4.132   2.185
 7092TIP3    H221218   5.869   4.239   2.081
 7093TIP3   OH221219   3.221   3.913   4.956
 7093TIP3    H121220   3.205   3.873   4.871
 7093TIP3    H221221   3.272   3.992   4.936
 7094TIP3   OH221222   6.750   6.747   3.114
 7094TIP3    H121223   6.776   6.772   3.203
 7094TIP3    H221224   6.830   6.716   3.073
 7095TIP3   OH221225   6.824   0.847   0.291
 7095TIP3    H121226   6.862   0.818   0.208
 7095TIP3    H221227   6.897   0.889   0.336
 7096TIP3   OH221228   4.746   0.211   4.430
 7096TIP3    H121229   4.822   0.174   4.386
 7096TIP3    H221230   4.684   0.138   4.438
 7097TIP3   OH221231   4.783   6.784   4.176
 7097TIP3    H121232   4.847   6.747   4.237
 7097TIP3    H221233   4.834   6.840   4.118
 7098TIP3   OH221234   0.554   6.841   5.838
 7098TIP3    H121235   0.593   6.811   5.756
 7098TIP3    H221236   0.628   6.853   5.897
 7099TIP3   OH221237   5.272   0.248   1.919
 7099TIP3    H121238   5.341   0.275   1.980
 7099TIP3    H221239   5.194   0.294   1.948
 7100TIP3   OH221240   1.132   4.700   5.170
 7100TIP3    H121241   1.047   4.743   5.158
 7100TIP3    H221242   1.166   4.737   5.252
 7101TIP3   OH221243   4.847   6.050   2.810
 7101TIP3    H121244   4.792   6.011   2.878
 7101TIP3    H221245   4.801   6.031   2.728
 7102TIP3   OH221246   6.501   6.652   1.512
 7102TIP3    H121247   6.449   6.648   1.431
 7102TIP3    H221248   6.580   6.603   1.492
 7103TIP3   OH221249   8.298   6.232   1.260
 7103TIP3    H121250   8.238   6.261   1.191
 7103TIP3    H221251   8.264   6.274   1.339
 7104TIP3   OH221252   6.225   5.653   5.346
 7104TIP3    H121253   6.284   5.580   5.325
 7104TIP3    H221254   6.162   5.653   5.274
 7105TIP3   OH221255   0.054   4.897   5.686
 7105TIP3    H121256  -0.007   4.869   5.754
 7105TIP3    H221257   0.089   4.816   5.649
 7106TIP3   OH221258   8.224   0.225   0.073
 7106TIP3    H121259   8.265   0.141   0.095
 7106TIP3    H221260   8.262   0.248  -0.012
 7107TIP3   OH221261   6.086   1.674   4.079
 7107TIP3    H121262   6.108   1.651   3.989
 7107TIP3    H221263   6.117   1.764   4.090
 7108TIP3   OH221264   2.826   1.008   3.375
 7108TIP3    H121265   2.760   1.025   3.442
 7108TIP3    H221266   2.776   0.992   3.295
 7109TIP3   OH221267   6.434   6.119   3.896
 7109TIP3    H121268   6.462   6.181   3.829
 7109TIP3    H221269   6.443   6.033   3.854
 7110TIP3   OH221270   3.560   4.417   3.931
 7110TIP3    H121271   3.638   4.398   3.880
 7110TIP3    H221272   3.570   4.509   3.958
 7111TIP3   OH221273   3.306   7.638   6.844
 7111TIP3    H121274   3.311   7.670   6.754
 7111TIP3    H221275   3.260   7.554   6.837
 7112TIP3   OH221276   3.355   7.830   1.822
 7112TIP3    H121277   3.373   7.841   1.729
 7112TIP3    H221278   3.423   7.881   1.866
 7113TIP3   OH221279   3.324   1.611   3.087
 7113TIP3    H121280   3.257   1.589   3.022
 7113TIP3    H221281   3.378   1.677   3.044
 7114TIP3   OH221282   4.957   6.936   1.029
 7114TIP3    H121283   4.945   6.942   0.934
 7114TIP3    H221284   4.869   6.941   1.065
 7115TIP3   OH221285   1.820   7.323   2.266
 7115TIP3    H121286   1.903   7.290   2.301
 7115TIP3    H221287   1.754   7.260   2.296
 7116TIP3   OH221288   0.308   4.344   0.815
 7116TIP3    H121289   0.316   4.256   0.779
 7116TIP3    H221290   0.346   4.337   0.903
 7117TIP3   OH221291   0.651   7.055   5.161
 7117TIP3    H121292   0.701   7.014   5.090
 7117TIP3    H221293   0.560   7.051   5.131
 7118TIP3   OH221294   2.698   1.404   4.489
 7118TIP3    H121295   2.782   1.444   4.466
 7118TIP3    H221296   2.701   1.317   4.450
 7119TIP3   OH221297   3.274   3.529   1.510
 7119TIP3    H121298   3.242   3.479   1.584
 7119TIP3    H221299   3.219   3.502   1.436
 7120TIP3   OH221300   8.101   7.502   0.728
 7120TIP3    H121301   8.016   7.539   0.754
 7120TIP3    H221302   8.079   7.438   0.660
 7121TIP3   OH221303   8.138   6.127   5.290
 7121TIP3    H121304   8.050   6.113   5.324
 7121TIP3    H221305   8.133   6.100   5.198
 7122TIP3   OH221306   3.225   6.628   4.067
 7122TIP3    H121307   3.193   6.569   4.136
 7122TIP3    H221308   3.241   6.711   4.112
 7123TIP3   OH221309   4.525   4.516   0.221
 7123TIP3    H121310   4.567   4.437   0.254
 7123TIP3    H221311   4.593   4.583   0.226
 7124TIP3   OH221312   5.200   7.285   5.161
 7124TIP3    H121313   5.194   7.192   5.142
 7124TIP3    H221314   5.281   7.313   5.120
 7125TIP3   OH221315   0.660   1.583   0.732
 7125TIP3    H121316   0.753   1.600   0.748
 7125TIP3    H221317   0.647   1.602   0.640
 7126TIP3   OH221318   0.426   0.326   1.024
 7126TIP3    H121319   0.342   0.306   0.984
 7126TIP3    H221320   0.422   0.286   1.111
 7127TIP3   OH221321   0.770   5.100   0.790
 7127TIP3    H121322   0.707   5.037   0.823
 7127TIP3    H221323   0.747   5.182   0.833
 7128TIP3   OH221324   1.855   5.350   3.538
 7128TIP3    H121325   1.830   5.364   3.629
 7128TIP3    H221326   1.775   5.367   3.488
 7129TIP3   OH221327   1.963   4.983   1.429
 7129TIP3    H121328   2.043   4.963   1.476
 7129TIP3    H221329   1.915   5.043   1.486
 7130TIP3   OH221330   7.160   7.689   3.955
 7130TIP3    H121331   7.152   7.722   3.865
 7130TIP3    H221332   7.077   7.713   3.997
 7131TIP3   OH221333   0.721   0.356   4.132
 7131TIP3    H121334   0.670   0.326   4.057
 7131TIP3    H221335   0.749   0.276   4.176
 7132TIP3   OH221336   3.931   0.679   3.374
 7132TIP3    H121337   3.895   0.709   3.458
 7132TIP3    H221338   3.973   0.756   3.337
 7133TIP3   OH221339   0.995   5.130   1.982
 7133TIP3    H121340   1.016   5.038   2.002
 7133TIP3    H221341   1.078   5.167   1.951
 7134TIP3   OH221342   1.827   3.310   0.490
 7134TIP3    H121343   1.757   3.253   0.459
 7134TIP3    H221344   1.835   3.291   0.583
 7135TIP3   OH221345   0.400   0.768   6.836
 7135TIP3    H121346   0.372   0.859   6.827
 7135TIP3    H221347   0.468   0.758   6.770
 7136TIP3   OH221348   4.400   4.867   4.631
 7136TIP3    H121349   4.317   4.857   4.585
 7136TIP3    H221350   4.459   4.903   4.565
 7137TIP3   OH221351   1.934   3.152   2.561
 7137TIP3    H121352   1.984   3.232   2.546
 7137TIP3    H221353   1.984   3.104   2.628
 7138TIP3   OH221354   4.062   6.378   2.122
 7138TIP3    H121355   3.992   6.432   2.160
 7138TIP3    H221356   4.067   6.302   2.180
 7139TIP3   OH221357   4.533   1.902   5.029
 7139TIP3    H121358   4.560   1.815   5.058
 7139TIP3    H221359   4.440   1.907   5.051
 7140TIP3   OH221360   1.742   2.247   2.628
 7140TIP3    H121361   1.756   2.164   2.584
 7140TIP3    H221362   1.799   2.244   2.705
 7141TIP3   OH221363   1.072   1.742   0.181
 7141TIP3    H121364   1.062   1.668   0.241
 7141TIP3    H221365   1.138   1.713   0.118
 7142TIP3   OH221366   1.571   1.091   3.027
 7142TIP3    H121367   1.634   1.075   3.096
 7142TIP3    H221368   1.623   1.100   2.947
 7143TIP3   OH221369   7.239   4.725   1.472
 7143TIP3    H121370   7.309   4.664   1.496
 7143TIP3    H221371   7.166   4.703   1.530
 7144TIP3   OH221372   4.860   0.239   6.531
 7144TIP3    H121373   4.769   0.258   6.554
 7144TIP3    H221374   4.912   0.288   6.595
 7145TIP3   OH221375   1.525   5.456   6.353
 7145TIP3    H121376   1.554   5.367   6.373
 7145TIP3    H221377   1.546   5.468   6.261
 7146TIP3   OH221378   5.142   7.659   1.965
 7146TIP3    H121379   5.145   7.596   2.037
 7146TIP3    H221380   5.134   7.605   1.887
 7147TIP3   OH221381   7.408   1.174   2.649
 7147TIP3    H121382   7.355   1.254   2.640
 7147TIP3    H221383   7.490   1.204   2.687
 7148TIP3   OH221384   7.173   7.389   3.486
 7148TIP3    H121385   7.082   7.380   3.513
 7148TIP3    H221386   7.222   7.396   3.568
 7149TIP3   OH221387   4.676   6.431   5.693
 7149TIP3    H121388   4.585   6.400   5.694
 7149TIP3    H221389   4.668   6.525   5.711
 7150TIP3   OH221390   6.713   1.114   4.641
 7150TIP3    H121391   6.689   1.030   4.680
 7150TIP3    H221392   6.761   1.092   4.561
 7151TIP3   OH221393   6.423   5.381   1.527
 7151TIP3    H121394   6.472   5.306   1.559
 7151TIP3    H221395   6.383   5.419   1.606
 7152TIP3   OH221396   0.044   5.376   3.988
 7152TIP3    H121397  -0.009   5.364   3.909
 7152TIP3    H221398   0.108   5.305   3.985
 7153TIP3   OH221399   2.575   1.725   4.995
 7153TIP3    H121400   2.552   1.640   5.033
 7153TIP3    H221401   2.494   1.776   5.001
 7154TIP3   OH221402   1.226   1.825   4.390
 7154TIP3    H121403   1.211   1.916   4.418
 7154TIP3    H221404   1.280   1.787   4.460
 7155TIP3   OH221405   2.794   1.281   3.944
 7155TIP3    H121406   2.756   1.209   3.894
 7155TIP3    H221407   2.845   1.330   3.879
 7156TIP3   OH221408   7.295   3.178   4.410
 7156TIP3    H121409   7.366   3.194   4.472
 7156TIP3    H221410   7.330   3.205   4.326
 7157TIP3   OH221411   1.720   5.948   2.045
 7157TIP3    H121412   1.652   5.903   2.094
 7157TIP3    H221413   1.709   5.916   1.955
 7158TIP3   OH221414   4.978   3.452   4.025
 7158TIP3    H121415   4.996   3.433   4.117
 7158TIP3    H221416   5.063   3.443   3.981
 7159TIP3   OH221417   7.528   4.929   2.865
 7159TIP3    H121418   7.593   4.912   2.934
 7159TIP3    H221419   7.473   4.851   2.865
 7160TIP3   OH221420   0.258   4.582   5.219
 7160TIP3    H121421   0.330   4.553   5.163
 7160TIP3    H221422   0.249   4.675   5.199
 7161TIP3   OH221423   1.050   5.007   2.756
 7161TIP3    H121424   0.999   5.050   2.687
 7161TIP3    H221425   1.119   4.960   2.709
 7162TIP3   OH221426   6.095   6.023   0.368
 7162TIP3    H121427   6.150   5.946   0.376
 7162TIP3    H221428   6.111   6.073   0.448
 7163TIP3   OH221429   4.099   3.399   4.691
 7163TIP3    H121430   4.125   3.474   4.638
 7163TIP3    H221431   4.158   3.329   4.664
 7164TIP3   OH221432   8.166   6.197   0.711
 7164TIP3    H121433   8.078   6.159   0.718
 7164TIP3    H221434   8.160   6.257   0.637
 7165TIP3   OH221435   1.937   7.468   0.834
 7165TIP3    H121436   1.875   7.472   0.762
 7165TIP3    H221437   1.891   7.423   0.904
 7166TIP3   OH221438   2.345   2.804   0.475
 7166TIP3    H121439   2.276   2.757   0.429
 7166TIP3    H221440   2.414   2.739   0.488
 7167TIP3   OH221441   4.501   4.610   4.407
 7167TIP3    H121442   4.447   4.678   4.366
 7167TIP3    H221443   4.555   4.575   4.337
 7168TIP3   OH221444   3.562   1.059   6.394
 7168TIP3    H121445   3.638   1.091   6.345
 7168TIP3    H221446   3.509   1.013   6.328
 7169TIP3   OH221447   3.548   7.268   1.225
 7169TIP3    H121448   3.614   7.329   1.259
 7169TIP3    H221449   3.511   7.314   1.150
 7170TIP3   OH221450   4.115   0.362   2.859
 7170TIP3    H121451   4.057   0.290   2.833
 7170TIP3    H221452   4.055   0.428   2.896
 7171TIP3   OH221453   2.360   4.882   4.024
 7171TIP3    H121454   2.391   4.814   3.965
 7171TIP3    H221455   2.437   4.936   4.041
 7172TIP3   OH221456   3.335   6.187   6.509
 7172TIP3    H121457   3.341   6.282   6.514
 7172TIP3    H221458   3.415   6.155   6.551
 7173TIP3   OH221459   5.198   3.723   4.809
 7173TIP3    H121460   5.229   3.639   4.845
 7173TIP3    H221461   5.104   3.722   4.823
 7174TIP3   OH221462   5.938   5.222   5.213
 7174TIP3    H121463   5.929   5.267   5.129
 7174TIP3    H221464   5.901   5.283   5.277
 7175TIP3   OH221465   8.229   2.880   5.436
 7175TIP3    H121466   8.152   2.873   5.491
 7175TIP3    H221467   8.195   2.874   5.346
 7176TIP3   OH221468   2.933   4.244   1.030
 7176TIP3    H121469   3.012   4.242   0.976
 7176TIP3    H221470   2.892   4.327   1.008
 7177TIP3   OH221471   8.247   6.217   1.805
 7177TIP3    H121472   8.257   6.153   1.875
 7177TIP3    H221473   8.332   6.260   1.798
 7178TIP3   OH221474   0.257   6.670   2.346
 7178TIP3    H121475   0.315   6.731   2.300
 7178TIP3    H221476   0.228   6.609   2.278
 7179TIP3   OH221477   0.563   7.622   1.471
 7179TIP3    H121478   0.543   7.698   1.418
 7179TIP3    H221479   0.549   7.651   1.561
 7180TIP3   OH221480   2.954   2.267   1.271
 7180TIP3    H121481   2.949   2.305   1.183
 7180TIP3    H221482   2.865   2.272   1.304
 7181TIP3   OH221483   5.074   6.095   5.592
 7181TIP3    H121484   5.060   6.011   5.636
 7181TIP3    H221485   5.099   6.071   5.503
 7182TIP3   OH221486   5.024   5.805   0.002
 7182TIP3    H121487   5.064   5.796   0.088
 7182TIP3    H221488   5.038   5.721  -0.040
 7183TIP3   OH221489   1.780   0.333   0.163
 7183TIP3    H121490   1.747   0.369   0.081
 7183TIP3    H221491   1.721   0.259   0.182
 7184TIP3   OH221492   4.627   3.007   5.298
 7184TIP3    H121493   4.659   2.987   5.211
 7184TIP3    H221494   4.703   2.996   5.355
 7185TIP3   OH221495   1.202   1.807   2.577
 7185TIP3    H121496   1.191   1.712   2.585
 7185TIP3    H221497   1.272   1.817   2.512
 7186TIP3   OH221498   8.338   2.780   0.895
 7186TIP3    H121499   8.364   2.811   0.983
 7186TIP3    H221500   8.243   2.771   0.900
 7187TIP3   OH221501   8.240   1.894   6.348
 7187TIP3    H121502   8.266   1.972   6.398
 7187TIP3    H221503   8.285   1.822   6.390
 7188TIP3   OH221504   7.995   1.918   2.228
 7188TIP3    H121505   7.973   1.909   2.135
 7188TIP3    H221506   7.959   2.003   2.253
 7189TIP3   OH221507   7.135   5.086   1.172
 7189TIP3    H121508   7.084   5.095   1.252
 7189TIP3    H221509   7.203   5.023   1.194
 7190TIP3   OH221510   4.687   4.364   5.933
 7190TIP3    H121511   4.745   4.340   5.861
 7190TIP3    H221512   4.694   4.292   5.995
 7191TIP3   OH221513   0.117   0.642   4.259
 7191TIP3    H121514   0.177   0.681   4.323
 7191TIP3    H221515   0.138   0.686   4.177
 7192TIP3   OH221516   0.203   7.280   3.374
 7192TIP3    H121517   0.128   7.221   3.382
 7192TIP3    H221518   0.217   7.313   3.462
 7193TIP3   OH221519   7.098   2.619   4.032
 7193TIP3    H121520   7.188   2.636   4.006
 7193TIP3    H221521   7.063   2.563   3.962
 7194TIP3   OH221522   7.680   6.237   5.491
 7194TIP3    H121523   7.670   6.265   5.582
 7194TIP3    H221524   7.723   6.311   5.448
 7195TIP3   OH221525   0.850   1.427   1.260
 7195TIP3    H121526   0.842   1.512   1.304
 7195TIP3    H221527   0.761   1.407   1.230
 7196TIP3   OH221528   1.251   2.529   0.717
 7196TIP3    H121529   1.283   2.521   0.807
 7196TIP3    H221530   1.218   2.618   0.711
 7197TIP3   OH221531   5.466   1.424   1.227
 7197TIP3    H121532   5.547   1.432   1.176
 7197TIP3    H221533   5.450   1.330   1.231
 7198TIP3   OH221534   7.093   2.296   4.000
 7198TIP3    H121535   7.117   2.324   4.089
 7198TIP3    H221536   7.171   2.314   3.948
 7199TIP3   OH221537   2.949   5.356   0.421
 7199TIP3    H121538   2.994   5.324   0.499
 7199TIP3    H221539   3.019   5.368   0.356
 7200TIP3   OH221540   7.458   4.601   1.786
 7200TIP3    H121541   7.514   4.625   1.712
 7200TIP3    H221542   7.378   4.653   1.773
 7201TIP3   OH221543   0.645   6.260   2.993
 7201TIP3    H121544   0.563   6.290   3.034
 7201TIP3    H221545   0.712   6.316   3.031
 7202TIP3   OH221546   6.891   3.455   1.480
 7202TIP3    H121547   6.893   3.434   1.387
 7202TIP3    H221548   6.896   3.370   1.524
 7203TIP3   OH221549   4.232   3.753   1.245
 7203TIP3    H121550   4.189   3.717   1.323
 7203TIP3    H221551   4.228   3.848   1.257
 7204TIP3   OH221552   2.201   6.141   0.926
 7204TIP3    H121553   2.227   6.226   0.962
 7204TIP3    H221554   2.109   6.153   0.901
 7205TIP3   OH221555   2.072   6.758   5.341
 7205TIP3    H121556   2.150   6.704   5.342
 7205TIP3    H221557   2.001   6.698   5.321
 7206TIP3   OH221558   5.247   4.476   3.203
 7206TIP3    H121559   5.231   4.384   3.182
 7206TIP3    H221560   5.172   4.501   3.257
 7207TIP3   OH221561   0.104   1.289   3.468
 7207TIP3    H121562   0.030   1.349   3.474
 7207TIP3    H221563   0.152   1.317   3.391
 7208TIP3   OH221564   1.288   1.088   4.744
 7208TIP3    H121565   1.237   1.061   4.820
 7208TIP3    H221566   1.350   1.153   4.778
 7209TIP3   OH221567   2.579   2.301   4.448
 7209TIP3    H121568   2.492   2.264   4.434
 7209TIP3    H221569   2.612   2.317   4.360
 7210TIP3   OH221570   4.364   5.394   6.732
 7210TIP3    H121571   4.456   5.366   6.725
 7210TIP3    H221572   4.368   5.489   6.726
 7211TIP3   OH221573   2.324   0.341   1.362
 7211TIP3    H121574   2.240   0.324   1.319
 7211TIP3    H221575   2.371   0.399   1.302
 7212TIP3   OH221576   1.642   1.173   2.163
 7212TIP3    H121577   1.568   1.176   2.223
 7212TIP3    H221578   1.626   1.244   2.101
 7213TIP3   OH221579   4.338   0.033   1.424
 7213TIP3    H121580   4.317   0.049   1.332
 7213TIP3    H221581   4.261  -0.011   1.460
 7214TIP3   OH221582   8.379   3.289   3.715
 7214TIP3    H121583   8.312   3.293   3.784
 7214TIP3    H221584   8.435   3.217   3.741
 7215TIP3   OH221585   2.325   2.063   2.867
 7215TIP3    H121586   2.333   2.158   2.876
 7215TIP3    H221587   2.295   2.050   2.777
 7216TIP3   OH221588   2.132   2.098   5.319
 7216TIP3    H121589   2.194   2.171   5.329
 7216TIP3    H221590   2.045   2.140   5.323
 7217TIP3   OH221591   5.677   2.741   5.141
 7217TIP3    H121592   5.720   2.685   5.207
 7217TIP3    H221593   5.666   2.684   5.065
 7218TIP3   OH221594   2.183   5.572   6.213
 7218TIP3    H121595   2.132   5.496   6.241
 7218TIP3    H221596   2.229   5.600   6.293
 7219TIP3   OH221597   3.039   5.367   1.110
 7219TIP3    H121598   3.134   5.368   1.115
 7219TIP3    H221599   3.011   5.444   1.160
 7220TIP3   OH221600   3.008   1.982   1.324
 7220TIP3    H121601   2.969   2.068   1.341
 7220TIP3    H221602   2.969   1.925   1.390
 7221TIP3   OH221603   1.155   1.567   3.748
 7221TIP3    H121604   1.130   1.659   3.735
 7221TIP3    H221605   1.166   1.558   3.843
 7222TIP3   OH221606   3.975   0.821   4.117
 7222TIP3    H121607   4.008   0.758   4.053
 7222TIP3    H221608   4.055   0.860   4.154
 7223TIP3   OH221609   4.579   7.598   6.768
 7223TIP3    H121610   4.569   7.523   6.710
 7223TIP3    H221611   4.672   7.597   6.792
 7224TIP3   OH221612   4.295   0.767   5.826
 7224TIP3    H121613   4.293   0.723   5.911
 7224TIP3    H221614   4.286   0.696   5.762
 7225TIP3   OH221615   7.196   5.166   4.424
 7225TIP3    H121616   7.203   5.234   4.358
 7225TIP3    H221617   7.220   5.210   4.506
 7226TIP3   OH221618   5.828   5.900   2.754
 7226TIP3    H121619   5.792   5.843   2.821
 7226TIP3    H221620   5.906   5.938   2.795
 7227TIP3   OH221621   4.411   1.124   0.191
 7227TIP3    H121622   4.373   1.048   0.235
 7227TIP3    H221623   4.400   1.196   0.253
 7228TIP3   OH221624   3.817   1.439   3.071
 7228TIP3    H121625   3.906   1.473   3.066
 7228TIP3    H221626   3.766   1.496   3.014
 7229TIP3   OH221627   7.765   0.510   0.869
 7229TIP3    H121628   7.738   0.419   0.883
 7229TIP3    H221629   7.834   0.505   0.804
 7230TIP3   OH221630   0.145   6.043   2.289
 7230TIP3    H121631   0.105   6.121   2.328
 7230TIP3    H221632   0.088   6.021   2.215
 7231TIP3   OH221633   1.879   7.810   3.760
 7231TIP3    H121634   1.973   7.828   3.758
 7231TIP3    H221635   1.868   7.734   3.703
 7232TIP3   OH221636   1.327   1.261   4.374
 7232TIP3    H121637   1.231   1.259   4.375
 7232TIP3    H221638   1.349   1.332   4.435
 7233TIP3   OH221639   2.592   6.320   3.007
 7233TIP3    H121640   2.632   6.296   3.091
 7233TIP3    H221641   2.664   6.362   2.958
 7234TIP3   OH221642   1.873   7.902   6.866
 7234TIP3    H121643   1.827   7.823   6.836
 7234TIP3    H221644   1.956   7.899   6.819
 7235TIP3   OH221645   5.637   4.185   3.351
 7235TIP3    H121646   5.600   4.235   3.278
 7235TIP3    H221647   5.717   4.146   3.316
 7236TIP3   OH221648   0.709   3.711   3.148
 7236TIP3    H121649   0.785   3.679   3.099
 7236TIP3    H221650   0.635   3.663   3.111
 7237TIP3   OH221651   4.785   1.694   2.361
 7237TIP3    H121652   4.707   1.641   2.344
 7237TIP3    H221653   4.816   1.720   2.274
 7238TIP3   OH221654   6.981   5.755   1.786
 7238TIP3    H121655   6.920   5.752   1.860
 7238TIP3    H221656   7.059   5.798   1.820
 7239TIP3   OH221657   2.304   3.748   2.684
 7239TIP3    H121658   2.343   3.814   2.627
 7239TIP3    H221659   2.210   3.756   2.670
 7240TIP3   OH221660   8.135   6.501   6.170
 7240TIP3    H121661   8.102   6.470   6.086
 7240TIP3    H221662   8.158   6.593   6.154
 7241TIP3   OH221663   2.807   6.498   5.444
 7241TIP3    H121664   2.766   6.415   5.466
 7241TIP3    H221665   2.888   6.474   5.398
 7242TIP3   OH221666   3.175   7.198   6.686
 7242TIP3    H121667   3.160   7.122   6.630
 7242TIP3    H221668   3.231   7.255   6.635
 7243TIP3   OH221669   4.097   5.894   5.763
 7243TIP3    H121670   4.043   5.921   5.689
 7243TIP3    H221671   4.035   5.861   5.828
 7244TIP3   OH221672   0.901   1.695   6.324
 7244TIP3    H121673   0.995   1.700   6.311
 7244TIP3    H221674   0.881   1.768   6.383
 7245TIP3   OH221675   0.346   0.531   0.728
 7245TIP3    H121676   0.383   0.442   0.724
 7245TIP3    H221677   0.254   0.517   0.753
 7246TIP3   OH221678   4.690   7.831   3.247
 7246TIP3    H121679   4.605   7.874   3.255
 7246TIP3    H221680   4.747   7.899   3.211
 7247TIP3   OH221681   5.071   1.630   2.931
 7247TIP3    H121682   5.163   1.626   2.904
 7247TIP3    H221683   5.069   1.697   2.999
 7248TIP3   OH221684   4.277   0.994   6.035
 7248TIP3    H121685   4.311   0.939   5.964
 7248TIP3    H221686   4.191   0.957   6.054
 7249TIP3   OH221687   7.631   4.650   5.725
 7249TIP3    H121688   7.698   4.616   5.785
 7249TIP3    H221689   7.620   4.742   5.750
 7250TIP3   OH221690   3.429   3.442   1.894
 7250TIP3    H121691   3.395   3.389   1.822
 7250TIP3    H221692   3.352   3.481   1.935
 7251TIP3   OH221693   2.217   7.640   6.228
 7251TIP3    H121694   2.260   7.671   6.307
 7251TIP3    H221695   2.134   7.602   6.259
 7252TIP3   OH221696   3.361   4.662   2.798
 7252TIP3    H121697   3.367   4.581   2.848
 7252TIP3    H221698   3.451   4.692   2.790
 7253TIP3   OH221699   5.073   2.143   4.314
 7253TIP3    H121700   5.002   2.187   4.361
 7253TIP3    H221701   5.145   2.206   4.314
 7254TIP3   OH221702   4.829   2.550   2.059
 7254TIP3    H121703   4.898   2.617   2.054
 7254TIP3    H221704   4.865   2.484   2.118
 7255TIP3   OH221705   1.094   5.241   0.645
 7255TIP3    H121706   1.153   5.308   0.611
 7255TIP3    H221707   1.143   5.199   0.715
 7256TIP3   OH221708   4.941   6.884   2.282
 7256TIP3    H121709   4.959   6.830   2.359
 7256TIP3    H221710   4.854   6.858   2.253
 7257TIP3   OH221711   5.606   1.884   2.356
 7257TIP3    H121712   5.667   1.832   2.304
 7257TIP3    H221713   5.657   1.911   2.433
 7258TIP3   OH221714   8.169   1.135   2.164
 7258TIP3    H121715   8.245   1.164   2.215
 7258TIP3    H221716   8.182   1.174   2.077
 7259TIP3   OH221717   1.707   1.578   2.810
 7259TIP3    H121718   1.636   1.642   2.809
 7259TIP3    H221719   1.724   1.560   2.717
 7260TIP3   OH221720   7.496   1.910   0.330
 7260TIP3    H121721   7.466   1.822   0.309
 7260TIP3    H221722   7.455   1.966   0.263
 7261TIP3   OH221723   7.731   7.544   4.215
 7261TIP3    H121724   7.724   7.469   4.273
 7261TIP3    H221725   7.747   7.618   4.273
 7262TIP3   OH221726   1.357   5.463   2.037
 7262TIP3    H121727   1.392   5.388   2.085
 7262TIP3    H221728   1.430   5.492   1.982
 7263TIP3   OH221729   0.706   0.637   1.470
 7263TIP3    H121730   0.791   0.613   1.508
 7263TIP3    H221731   0.679   0.714   1.520
 7264TIP3   OH221732   2.633   6.306   6.048
 7264TIP3    H121733   2.545   6.339   6.028
 7264TIP3    H221734   2.629   6.283   6.141
 7265TIP3   OH221735   3.777   3.624   1.736
 7265TIP3    H121736   3.684   3.611   1.716
 7265TIP3    H221737   3.806   3.688   1.671
 7266TIP3   OH221738   2.463   2.163   1.962
 7266TIP3    H121739   2.386   2.221   1.963
 7266TIP3    H221740   2.427   2.076   1.981
 7267TIP3   OH221741   7.933   7.045   3.591
 7267TIP3    H121742   7.855   7.012   3.547
 7267TIP3    H221743   7.903   7.076   3.676
 7268TIP3   OH221744   4.341   7.356   3.986
 7268TIP3    H121745   4.352   7.287   4.051
 7268TIP3    H221746   4.406   7.422   4.010
 7269TIP3   OH221747   0.852   1.909   6.489
 7269TIP3    H121748   0.903   1.931   6.567
 7269TIP3    H221749   0.843   1.992   6.442
 7270TIP3   OH221750   3.941   2.244   4.746
 7270TIP3    H121751   3.929   2.332   4.712
 7270TIP3    H221752   4.026   2.245   4.788
 7271TIP3   OH221753   4.748   2.135   5.634
 7271TIP3    H121754   4.770   2.221   5.668
 7271TIP3    H221755   4.748   2.146   5.539
 7272TIP3   OH221756   4.922   6.814   1.713
 7272TIP3    H121757   4.857   6.861   1.766
 7272TIP3    H221758   4.886   6.813   1.625
 7273TIP3   OH221759   2.508   7.726   3.075
 7273TIP3    H121760   2.530   7.816   3.055
 7273TIP3    H221761   2.586   7.690   3.117
 7274TIP3   OH221762   1.992   2.829   5.382
 7274TIP3    H121763   1.915   2.779   5.356
 7274TIP3    H221764   2.062   2.764   5.385
 7275TIP3   OH221765   7.865   7.755   4.026
 7275TIP3    H121766   7.905   7.714   3.949
 7275TIP3    H221767   7.850   7.683   4.087
 7276TIP3   OH221768   1.289   6.451   1.505
 7276TIP3    H121769   1.259   6.470   1.594
 7276TIP3    H221770   1.346   6.374   1.515
 7277TIP3   OH221771   2.469   0.292   3.963
 7277TIP3    H121772   2.427   0.234   4.026
 7277TIP3    H221773   2.553   0.249   3.943
 7278TIP3   OH221774   4.865   0.023   5.042
 7278TIP3    H121775   4.922  -0.053   5.041
 7278TIP3    H221776   4.893   0.076   4.967
 7279TIP3   OH221777   3.625   4.862   3.168
 7279TIP3    H121778   3.554   4.924   3.154
 7279TIP3    H221779   3.584   4.776   3.165
 7280TIP3   OH221780   6.044   1.027   2.036
 7280TIP3    H121781   6.051   1.122   2.033
 7280TIP3    H221782   5.964   1.007   1.988
 7281TIP3   OH221783   0.538   2.225   3.430
 7281TIP3    H121784   0.521   2.164   3.502
 7281TIP3    H221785   0.616   2.274   3.457
 7282TIP3   OH221786   4.868   1.316   0.170
 7282TIP3    H121787   4.802   1.270   0.222
 7282TIP3    H221788   4.930   1.351   0.234
 7283TIP3   OH221789   1.634   5.846   5.494
 7283TIP3    H121790   1.671   5.784   5.431
 7283TIP3    H221791   1.646   5.932   5.453
 7284TIP3   OH221792   4.942   3.258   0.475
 7284TIP3    H121793   4.987   3.189   0.523
 7284TIP3    H221794   4.885   3.299   0.540
 7285TIP3   OH221795   0.854   3.101   4.644
 7285TIP3    H121796   0.787   3.034   4.636
 7285TIP3    H221797   0.831   3.166   4.577
 7286TIP3   OH221798   7.683   2.749   3.873
 7286TIP3    H121799   7.737   2.674   3.896
 7286TIP3    H221800   7.606   2.712   3.830
 7287TIP3   OH221801   3.518   3.029   3.987
 7287TIP3    H121802   3.516   3.039   3.892
 7287TIP3    H221803   3.430   3.053   4.015
 7288TIP3   OH221804   6.093   7.851   1.320
 7288TIP3    H121805   6.060   7.764   1.339
 7288TIP3    H221806   6.179   7.854   1.362
 7289TIP3   OH221807   5.004   5.069   4.829
 7289TIP3    H121808   4.997   5.162   4.850
 7289TIP3    H221809   5.091   5.059   4.791
 7290TIP3   OH221810   3.239   0.245   3.479
 7290TIP3    H121811   3.268   0.296   3.403
 7290TIP3    H221812   3.211   0.161   3.442
 7291TIP3   OH221813   3.112   1.862   5.073
 7291TIP3    H121814   3.050   1.923   5.032
 7291TIP3    H221815   3.085   1.858   5.164
 7292TIP3   OH221816   3.344   5.866   5.802
 7292TIP3    H121817   3.379   5.807   5.735
 7292TIP3    H221818   3.250   5.850   5.802
 7293TIP3   OH221819   4.767   2.877   1.342
 7293TIP3    H121820   4.769   2.938   1.416
 7293TIP3    H221821   4.699   2.911   1.284
 7294TIP3   OH221822   7.677   3.338   1.595
 7294TIP3    H121823   7.707   3.390   1.520
 7294TIP3    H221824   7.731   3.368   1.668
 7295TIP3   OH221825   6.646   5.776   6.811
 7295TIP3    H121826   6.586   5.802   6.742
 7295TIP3    H221827   6.602   5.704   6.855
 7296TIP3   OH221828   6.687   5.007   4.284
 7296TIP3    H121829   6.740   4.928   4.299
 7296TIP3    H221830   6.598   4.974   4.270
 7297TIP3   OH221831   1.530   1.417   3.380
 7297TIP3    H121832   1.460   1.456   3.434
 7297TIP3    H221833   1.499   1.329   3.361
 7298TIP3   OH221834   6.082   3.275   5.699
 7298TIP3    H121835   6.073   3.231   5.614
 7298TIP3    H221836   6.155   3.335   5.688
 7299TIP3   OH221837   6.062   0.288   6.580
 7299TIP3    H121838   6.036   0.329   6.662
 7299TIP3    H221839   5.987   0.302   6.521
 7300TIP3   OH221840   2.735   2.763   2.260
 7300TIP3    H121841   2.791   2.719   2.195
 7300TIP3    H221842   2.652   2.715   2.256
 7301TIP3   OH221843   5.197   0.339   6.097
 7301TIP3    H121844   5.111   0.325   6.136
 7301TIP3    H221845   5.258   0.297   6.156
 7302TIP3   OH221846   2.675   4.214   5.248
 7302TIP3    H121847   2.672   4.241   5.157
 7302TIP3    H221848   2.699   4.121   5.245
 7303TIP3   OH221849   4.964   6.321   3.158
 7303TIP3    H121850   4.934   6.404   3.121
 7303TIP3    H221851   4.945   6.327   3.251
 7304TIP3   OH221852   1.144   6.767   3.776
 7304TIP3    H121853   1.130   6.744   3.868
 7304TIP3    H221854   1.238   6.778   3.768
 7305TIP3   OH221855   6.029   2.951   4.637
 7305TIP3    H121856   5.940   2.953   4.604
 7305TIP3    H221857   6.022   2.982   4.727
 7306TIP3   OH221858   3.244   5.495   1.823
 7306TIP3    H121859   3.300   5.551   1.878
 7306TIP3    H221860   3.270   5.406   1.846
 7307TIP3   OH221861   6.289   4.832   2.853
 7307TIP3    H121862   6.277   4.927   2.857
 7307TIP3    H221863   6.376   4.821   2.815
 7308TIP3   OH221864   7.454   4.704   6.543
 7308TIP3    H121865   7.542   4.688   6.576
 7308TIP3    H221866   7.405   4.624   6.565
 7309TIP3   OH221867   1.834   4.560   0.353
 7309TIP3    H121868   1.793   4.473   0.356
 7309TIP3    H221869   1.880   4.568   0.437
 7310TIP3   OH221870   7.621   2.975   4.379
 7310TIP3    H121871   7.669   3.032   4.319
 7310TIP3    H221872   7.532   2.974   4.346
 7311TIP3   OH221873   4.464   7.215   6.231
 7311TIP3    H121874   4.532   7.174   6.178
 7311TIP3    H221875   4.394   7.150   6.236
 7312TIP3   OH221876   1.367   2.686   1.150
 7312TIP3    H121877   1.352   2.780   1.156
 7312TIP3    H221878   1.462   2.677   1.152
 7313TIP3   OH221879   2.681   1.036   4.656
 7313TIP3    H121880   2.637   1.098   4.715
 7313TIP3    H221881   2.646   0.951   4.681
 7314TIP3   OH221882   7.233   0.230   1.065
 7314TIP3    H121883   7.197   0.179   0.992
 7314TIP3    H221884   7.184   0.312   1.064
 7315TIP3   OH221885   0.221   6.942   3.170
 7315TIP3    H121886   0.288   6.895   3.119
 7315TIP3    H221887   0.202   7.020   3.117
 7316TIP3   OH221888   2.211   1.495   0.593
 7316TIP3    H121889   2.217   1.428   0.661
 7316TIP3    H221890   2.118   1.499   0.572
 7317TIP3   OH221891   8.057   6.472   4.366
 7317TIP3    H121892   8.053   6.446   4.458
 7317TIP3    H221893   8.143   6.442   4.337
 7318TIP3   OH221894   1.194   4.855   3.636
 7318TIP3    H121895   1.106   4.827   3.613
 7318TIP3    H221896   1.202   4.836   3.730
 7319TIP3   OH221897   8.140   7.926   5.748
 7319TIP3    H121898   8.137   7.839   5.788
 7319TIP3    H221899   8.233   7.941   5.731
 7320TIP3   OH221900   4.805   4.592   0.430
 7320TIP3    H121901   4.813   4.497   0.422
 7320TIP3    H221902   4.795   4.623   0.340
 7321TIP3   OH221903   6.386   7.191   2.303
 7321TIP3    H121904   6.387   7.099   2.278
 7321TIP3    H221905   6.414   7.238   2.225
 7322TIP3   OH221906   0.777   3.401   3.929
 7322TIP3    H121907   0.854   3.370   3.881
 7322TIP3    H221908   0.703   3.368   3.880
 7323TIP3   OH221909   3.937   5.865   5.120
 7323TIP3    H121910   3.933   5.777   5.158
 7323TIP3    H221911   3.935   5.850   5.026
 7324TIP3   OH221912   7.655   4.292   4.025
 7324TIP3    H121913   7.601   4.316   3.950
 7324TIP3    H221914   7.691   4.375   4.055
 7325TIP3   OH221915   6.072   2.483   1.816
 7325TIP3    H121916   6.164   2.462   1.798
 7325TIP3    H221917   6.069   2.493   1.912
 7326TIP3   OH221918   6.097   7.046   6.178
 7326TIP3    H121919   6.053   7.068   6.096
 7326TIP3    H221920   6.039   6.983   6.221
 7327TIP3   OH221921   2.220   3.499   6.024
 7327TIP3    H121922   2.234   3.411   5.990
 7327TIP3    H221923   2.177   3.485   6.108
 7328TIP3   OH221924   3.370   2.385   2.142
 7328TIP3    H121925   3.349   2.466   2.096
 7328TIP3    H221926   3.334   2.316   2.086
 7329TIP3   OH221927   0.352   4.778   5.916
 7329TIP3    H121928   0.333   4.759   6.007
 7329TIP3    H221929   0.316   4.704   5.867
 7330TIP3   OH221930   5.814   0.266   6.781
 7330TIP3    H121931   5.752   0.305   6.842
 7330TIP3    H221932   5.761   0.234   6.709
 7331TIP3   OH221933   3.658   1.901   6.579
 7331TIP3    H121934   3.737   1.955   6.571
 7331TIP3    H221935   3.619   1.902   6.491
 7332TIP3   OH221936   5.962   2.924   1.390
 7332TIP3    H121937   6.034   2.926   1.453
 7332TIP3    H221938   5.942   3.016   1.374
 7333TIP3   OH221939   0.754   5.036   2.551
 7333TIP3    H121940   0.700   4.958   2.566
 7333TIP3    H221941   0.787   5.025   2.461
 7334TIP3   OH221942   0.487   2.846   5.520
 7334TIP3    H121943   0.527   2.787   5.456
 7334TIP3    H221944   0.417   2.795   5.560
 7335TIP3   OH221945   2.139   5.475   5.821
 7335TIP3    H121946   2.093   5.420   5.884
 7335TIP3    H221947   2.206   5.418   5.784
 7336TIP3   OH221948   3.990   4.831   2.325
 7336TIP3    H121949   3.958   4.827   2.235
 7336TIP3    H221950   4.081   4.862   2.316
 7337TIP3   OH221951   0.457   5.306   3.493
 7337TIP3    H121952   0.364   5.286   3.496
 7337TIP3    H221953   0.481   5.295   3.401
 7338TIP3   OH221954   3.935   1.090   3.611
 7338TIP3    H121955   3.881   1.162   3.645
 7338TIP3    H221956   4.023   1.109   3.644
 7339TIP3   OH221957   3.222   7.789   6.117
 7339TIP3    H121958   3.189   7.747   6.197
 7339TIP3    H221959   3.222   7.718   6.052
 7340TIP3   OH221960   5.191   7.625   1.053
 7340TIP3    H121961   5.162   7.701   1.003
 7340TIP3    H221962   5.287   7.630   1.051
 7341TIP3   OH221963   3.678   0.728   5.125
 7341TIP3    H121964   3.597   0.691   5.161
 7341TIP3    H221965   3.650   0.776   5.047
 7342TIP3   OH221966   4.085   7.128   5.625
 7342TIP3    H121967   4.008   7.076   5.646
 7342TIP3    H221968   4.094   7.120   5.530
 7343TIP3   OH221969   1.327   2.450   2.117
 7343TIP3    H121970   1.383   2.477   2.045
 7343TIP3    H221971   1.240   2.443   2.079
 7344TIP3   OH221972   5.411   7.559   3.364
 7344TIP3    H121973   5.397   7.501   3.439
 7344TIP3    H221974   5.506   7.565   3.355
 7345TIP3   OH221975   1.472   2.684   3.725
 7345TIP3    H121976   1.445   2.604   3.769
 7345TIP3    H221977   1.561   2.699   3.755
 7346TIP3   OH221978   3.320   4.128   3.898
 7346TIP3    H121979   3.403   4.098   3.860
 7346TIP3    H221980   3.268   4.156   3.823
 7347TIP3   OH221981   3.687   2.288   5.037
 7347TIP3    H121982   3.599   2.296   5.074
 7347TIP3    H221983   3.733   2.366   5.070
 7348TIP3   OH221984   2.958   2.394   6.344
 7348TIP3    H121985   2.895   2.369   6.277
 7348TIP3    H221986   2.924   2.356   6.425
 7349TIP3   OH221987   6.550   7.891   2.015
 7349TIP3    H121988   6.587   7.938   2.090
 7349TIP3    H221989   6.623   7.879   1.955
 7350TIP3   OH221990   1.700   2.578   5.612
 7350TIP3    H121991   1.671   2.490   5.638
 7350TIP3    H221992   1.620   2.631   5.613
 7351TIP3   OH221993   5.720   3.291   3.445
 7351TIP3    H121994   5.752   3.201   3.451
 7351TIP3    H221995   5.766   3.328   3.370
 7352TIP3   OH221996   1.724   0.373   2.370
 7352TIP3    H121997   1.672   0.416   2.437
 7352TIP3    H221998   1.798   0.335   2.417
 7353TIP3   OH221999   7.430   2.895   3.295
 7353TIP3    H122000   7.423   2.981   3.254
 7353TIP3    H222001   7.415   2.833   3.224
 7354TIP3   OH222002   1.995   5.579   0.258
 7354TIP3    H122003   1.904   5.564   0.285
 7354TIP3    H222004   2.026   5.493   0.231
 7355TIP3   OH222005   6.992   6.352   4.125
 7355TIP3    H122006   6.951   6.306   4.052
 7355TIP3    H222007   6.998   6.287   4.194
 7356TIP3   OH222008   4.495   0.540   2.400
 7356TIP3    H122009   4.486   0.476   2.329
 7356TIP3    H222010   4.466   0.623   2.362
 7357TIP3   OH222011   2.324   0.166   5.688
 7357TIP3    H122012   2.362   0.245   5.650
 7357TIP3    H222013   2.398   0.119   5.726
 7358TIP3   OH222014   2.820   0.023   6.628
 7358TIP3    H122015   2.793   0.005   6.538
 7358TIP3    H222016   2.765   0.096   6.655
 7359TIP3   OH222017   7.338   1.006   0.425
 7359TIP3    H122018   7.423   0.967   0.402
 7359TIP3    H222019   7.340   1.092   0.383
 7360TIP3   OH222020   5.209   2.431   6.364
 7360TIP3    H122021   5.172   2.435   6.276
 7360TIP3    H222022   5.217   2.338   6.382
 7361TIP3   OH222023   1.919   1.843   5.238
 7361TIP3    H122024   2.014   1.839   5.229
 7361TIP3    H222025   1.904   1.848   5.332
 7362TIP3   OH222026   0.673   6.471   5.580
 7362TIP3    H122027   0.621   6.547   5.554
 7362TIP3    H222028   0.638   6.399   5.529
 7363TIP3   OH222029   6.567   4.960   3.467
 7363TIP3    H122030   6.510   5.036   3.461
 7363TIP3    H222031   6.562   4.919   3.380
 7364TIP3   OH222032   5.211   6.547   1.994
 7364TIP3    H122033   5.122   6.580   2.009
 7364TIP3    H222034   5.257   6.621   1.954
 7365TIP3   OH222035   2.384   0.505   1.059
 7365TIP3    H122036   2.358   0.597   1.059
 7365TIP3    H222037   2.395   0.483   0.966
 7366TIP3   OH222038   2.545   3.586   5.568
 7366TIP3    H122039   2.473   3.555   5.623
 7366TIP3    H222040   2.521   3.560   5.479
 7367TIP3   OH222041   1.122   1.198   0.079
 7367TIP3    H122042   1.068   1.119   0.073
 7367TIP3    H222043   1.170   1.189   0.161
 7368TIP3   OH222044   3.607   2.753   4.087
 7368TIP3    H122045   3.547   2.693   4.132
 7368TIP3    H222046   3.557   2.833   4.075
 7369TIP3   OH222047   3.005   7.302   1.291
 7369TIP3    H122048   2.954   7.318   1.212
 7369TIP3    H222049   3.090   7.270   1.259
 7370TIP3   OH222050   0.685   0.618   5.081
 7370TIP3    H122051   0.772   0.598   5.113
 7370TIP3    H222052   0.670   0.709   5.106
 7371TIP3   OH222053   0.490   1.786   2.891
 7371TIP3    H122054   0.583   1.798   2.875
 7371TIP3    H222055   0.450   1.788   2.804
 7372TIP3   OH222056   0.905   4.078   1.758
 7372TIP3    H122057   0.940   4.131   1.830
 7372TIP3    H222058   0.938   4.120   1.679
 7373TIP3   OH222059   3.502   7.117   6.460
 7373TIP3    H122060   3.449   7.043   6.489
 7373TIP3    H222061   3.490   7.184   6.528
 7374TIP3   OH222062   3.183   7.809   3.280
 7374TIP3    H122063   3.153   7.764   3.359
 7374TIP3    H222064   3.133   7.769   3.209
 7375TIP3   OH222065   0.415   2.954   1.495
 7375TIP3    H122066   0.346   2.983   1.434
 7375TIP3    H222067   0.491   2.938   1.439
 7376TIP3   OH222068   4.721   6.160   5.633
 7376TIP3    H122069   4.700   6.253   5.634
 7376TIP3    H222070   4.816   6.157   5.643
 7377TIP3   OH222071   0.272   7.695   1.808
 7377TIP3    H122072   0.278   7.668   1.899
 7377TIP3    H222073   0.262   7.614   1.758
 7378TIP3   OH222074   4.972   7.536   1.205
 7378TIP3    H122075   5.020   7.560   1.285
 7378TIP3    H222076   5.030   7.565   1.134
 7379TIP3   OH222077   6.506   2.537   2.178
 7379TIP3    H122078   6.424   2.577   2.206
 7379TIP3    H222079   6.522   2.468   2.242
 7380TIP3   OH222080   7.579   3.901   2.785
 7380TIP3    H122081   7.635   3.870   2.856
 7380TIP3    H222082   7.503   3.842   2.787
 7381TIP3   OH222083   7.495   3.682   3.451
 7381TIP3    H122084   7.585   3.659   3.473
 7381TIP3    H222085   7.442   3.639   3.518
 7382TIP3   OH222086   0.927   1.033   2.656
 7382TIP3    H122087   0.931   0.938   2.641
 7382TIP3    H222088   1.018   1.061   2.658
 7383TIP3   OH222089   7.124   3.637   5.670
 7383TIP3    H122090   7.217   3.651   5.681
 7383TIP3    H222091   7.106   3.557   5.719
 7384TIP3   OH222092   4.235   4.843   2.994
 7384TIP3    H122093   4.288   4.763   3.002
 7384TIP3    H222094   4.299   4.914   2.995
 7385TIP3   OH222095   6.790   5.890   3.980
 7385TIP3    H122096   6.838   5.861   4.057
 7385TIP3    H222097   6.843   5.858   3.906
 7386TIP3   OH222098   6.447   5.596   0.883
 7386TIP3    H122099   6.519   5.655   0.905
 7386TIP3    H222100   6.489   5.509   0.880
 7387TIP3   OH222101   1.025   1.396   2.049
 7387TIP3    H122102   0.936   1.419   2.022
 7387TIP3    H222103   1.079   1.416   1.972
 7388TIP3   OH222104   1.652   7.554   6.223
 7388TIP3    H122105   1.612   7.620   6.167
 7388TIP3    H222106   1.636   7.471   6.177
 7389TIP3   OH222107   1.081   0.139   2.185
 7389TIP3    H122108   1.098   0.226   2.149
 7389TIP3    H222109   1.085   0.152   2.280
 7390TIP3   OH222110   1.847   7.083   3.393
 7390TIP3    H122111   1.850   7.074   3.298
 7390TIP3    H222112   1.825   7.175   3.408
 7391TIP3   OH222113   7.238   0.463   1.697
 7391TIP3    H122114   7.218   0.496   1.785
 7391TIP3    H222115   7.332   0.479   1.687
 7392TIP3   OH222116   8.308   5.835   4.286
 7392TIP3    H122117   8.291   5.804   4.375
 7392TIP3    H222118   8.402   5.823   4.274
 7393TIP3   OH222119   4.033   1.577   0.650
 7393TIP3    H122120   3.975   1.636   0.601
 7393TIP3    H222121   3.985   1.558   0.730
 7394TIP3   OH222122   2.432   1.392   2.926
 7394TIP3    H122123   2.450   1.391   3.020
 7394TIP3    H222124   2.479   1.316   2.891
 7395TIP3   OH222125   1.086   5.326   5.120
 7395TIP3    H122126   0.991   5.321   5.116
 7395TIP3    H222127   1.111   5.251   5.174
 7396TIP3   OH222128   4.394   4.882   3.937
 7396TIP3    H122129   4.465   4.819   3.926
 7396TIP3    H222130   4.393   4.932   3.855
 7397TIP3   OH222131   7.254   7.835   1.930
 7397TIP3    H122132   7.194   7.770   1.894
 7397TIP3    H222133   7.251   7.908   1.869
 7398TIP3   OH222134   2.328   2.057   6.438
 7398TIP3    H122135   2.421   2.075   6.452
 7398TIP3    H222136   2.292   2.044   6.525
 7399TIP3   OH222137   0.936   2.592   5.567
 7399TIP3    H122138   0.944   2.536   5.644
 7399TIP3    H222139   0.892   2.671   5.599
 7400TIP3   OH222140   7.205   4.398   1.862
 7400TIP3    H122141   7.263   4.447   1.803
 7400TIP3    H222142   7.249   4.402   1.947
 7401TIP3   OH222143   0.757   3.864   1.708
 7401TIP3    H122144   0.789   3.954   1.711
 7401TIP3    H222145   0.720   3.849   1.795
 7402TIP3   OH222146   2.769   7.718   3.182
 7402TIP3    H122147   2.799   7.805   3.207
 7402TIP3    H222148   2.808   7.660   3.247
 7403TIP3   OH222149   6.449   2.374   4.714
 7403TIP3    H122150   6.354   2.365   4.713
 7403TIP3    H222151   6.471   2.410   4.628
 7404TIP3   OH222152   7.750   4.110   5.668
 7404TIP3    H122153   7.819   4.163   5.629
 7404TIP3    H222154   7.672   4.165   5.662
 7405TIP3   OH222155   8.138   7.693   6.127
 7405TIP3    H122156   8.113   7.774   6.170
 7405TIP3    H222157   8.102   7.624   6.183
 7406TIP3   OH222158   1.457   3.968   0.300
 7406TIP3    H122159   1.426   4.057   0.316
 7406TIP3    H222160   1.500   3.972   0.215
 7407TIP3   OH222161   6.909   0.488   2.554
 7407TIP3    H122162   6.994   0.452   2.579
 7407TIP3    H222163   6.905   0.475   2.459
 7408TIP3   OH222164   4.934   4.860   2.461
 7408TIP3    H122165   4.885   4.786   2.497
 7408TIP3    H222166   4.924   4.929   2.526
 7409TIP3   OH222167   2.329   3.239   3.575
 7409TIP3    H122168   2.415   3.276   3.559
 7409TIP3    H222169   2.346   3.154   3.615
 7410TIP3   OH222170   2.217   5.229   1.599
 7410TIP3    H122171   2.155   5.179   1.652
 7410TIP3    H222172   2.244   5.169   1.530
 7411TIP3   OH222173   3.481   7.466   6.000
 7411TIP3    H122174   3.555   7.406   5.995
 7411TIP3    H222175   3.492   7.512   6.082
 7412TIP3   OH222176   3.284   7.677   6.553
 7412TIP3    H122177   3.203   7.672   6.503
 7412TIP3    H222178   3.336   7.744   6.509
 7413TIP3   OH222179   1.020   7.314   6.320
 7413TIP3    H122180   1.114   7.325   6.332
 7413TIP3    H222181   1.010   7.291   6.227
 7414TIP3   OH222182   2.883   5.170   1.725
 7414TIP3    H122183   2.788   5.155   1.719
 7414TIP3    H222184   2.896   5.195   1.817
 7415TIP3   OH222185   0.448   7.124   1.442
 7415TIP3    H122186   0.535   7.099   1.472
 7415TIP3    H222187   0.446   7.219   1.450
 7416TIP3   OH222188   5.849   0.161   1.346
 7416TIP3    H122189   5.910   0.114   1.289
 7416TIP3    H222190   5.770   0.171   1.292
 7417TIP3   OH222191   0.754   4.099   0.677
 7417TIP3    H122192   0.681   4.150   0.643
 7417TIP3    H222193   0.800   4.068   0.599
 7418TIP3   OH222194   0.961   0.936   1.919
 7418TIP3    H122195   0.997   0.849   1.901
 7418TIP3    H222196   0.867   0.927   1.905
 7419TIP3   OH222197   0.478   2.661   1.460
 7419TIP3    H122198   0.523   2.742   1.482
 7419TIP3    H222199   0.460   2.667   1.367
 7420TIP3   OH222200   5.319   7.280   4.286
 7420TIP3    H122201   5.383   7.332   4.335
 7420TIP3    H222202   5.314   7.197   4.334
 7421TIP3   OH222203   4.997   3.781   3.579
 7421TIP3    H122204   4.909   3.819   3.584
 7421TIP3    H222205   5.040   3.809   3.660
 7422TIP3   OH222206   6.904   1.826   2.855
 7422TIP3    H122207   6.962   1.797   2.925
 7422TIP3    H222208   6.962   1.856   2.786
 7423TIP3   OH222209  -0.010   6.501   5.417
 7423TIP3    H122210   0.077   6.472   5.388
 7423TIP3    H222211  -0.063   6.499   5.337
 7424TIP3   OH222212   0.086   4.454   1.355
 7424TIP3    H122213   0.070   4.481   1.264
 7424TIP3    H222214   0.000   4.457   1.397
 7425TIP3   OH222215   5.509   2.455   6.196
 7425TIP3    H122216   5.551   2.535   6.163
 7425TIP3    H222217   5.459   2.484   6.272
 7426TIP3   OH222218   5.976   0.570   2.276
 7426TIP3    H122219   6.014   0.635   2.217
 7426TIP3    H222220   5.903   0.615   2.318
 7427TIP3   OH222221   5.535   1.567   4.656
 7427TIP3    H122222   5.529   1.647   4.604
 7427TIP3    H222223   5.623   1.568   4.693
 7428TIP3   OH222224   8.099   6.569   3.134
 7428TIP3    H122225   8.040   6.499   3.107
 7428TIP3    H222226   8.049   6.619   3.198
 7429TIP3   OH222227   3.507   6.153   0.272
 7429TIP3    H122228   3.430   6.116   0.315
 7429TIP3    H222229   3.536   6.224   0.329
 7430TIP3   OH222230   4.725   0.306   1.723
 7430TIP3    H122231   4.771   0.376   1.769
 7430TIP3    H222232   4.789   0.235   1.717
 7431TIP3   OH222233   2.561   0.840   3.919
 7431TIP3    H122234   2.520   0.755   3.937
 7431TIP3    H222235   2.568   0.882   4.004
 7432TIP3   OH222236   0.727   1.267   0.970
 7432TIP3    H122237   0.699   1.177   0.987
 7432TIP3    H222238   0.791   1.259   0.899
 7433TIP3   OH222239   2.200   5.296   2.376
 7433TIP3    H122240   2.174   5.257   2.460
 7433TIP3    H222241   2.176   5.389   2.384
 7434TIP3   OH222242   4.311   6.658   1.801
 7434TIP3    H122243   4.384   6.652   1.739
 7434TIP3    H222244   4.236   6.625   1.752
 7435TIP3   OH222245   7.146   7.367   4.011
 7435TIP3    H122246   7.123   7.459   4.000
 7435TIP3    H222247   7.063   7.320   4.002
 7436TIP3   OH222248   1.753   3.870   3.689
 7436TIP3    H122249   1.720   3.959   3.704
 7436TIP3    H222250   1.835   3.882   3.642
 7437TIP3   OH222251   7.329   1.843   5.571
 7437TIP3    H122252   7.412   1.797   5.585
 7437TIP3    H222253   7.303   1.872   5.658
 7438TIP3   OH222254   2.634   2.902   3.433
 7438TIP3    H122255   2.686   2.964   3.382
 7438TIP3    H222256   2.698   2.840   3.468
 7439TIP3   OH222257   5.775   4.409   4.431
 7439TIP3    H122258   5.781   4.474   4.501
 7439TIP3    H222259   5.824   4.334   4.464
 7440TIP3   OH222260   3.343   4.964   0.496
 7440TIP3    H122261   3.361   4.897   0.430
 7440TIP3    H222262   3.253   4.991   0.479
 7441TIP3   OH222263   2.097   0.968   6.588
 7441TIP3    H122264   2.009   0.985   6.554
 7441TIP3    H222265   2.124   1.050   6.627
 7442TIP3   OH222266   1.849   5.429   0.742
 7442TIP3    H122267   1.764   5.398   0.774
 7442TIP3    H222268   1.835   5.522   0.723
 7443TIP3   OH222269   3.102   0.233   3.100
 7443TIP3    H122270   3.090   0.153   3.048
 7443TIP3    H222271   3.174   0.212   3.160
 7444TIP3   OH222272   8.365   6.268   3.652
 7444TIP3    H122273   8.322   6.227   3.727
 7444TIP3    H222274   8.453   6.229   3.651
 7445TIP3   OH222275   1.936   7.612   3.513
 7445TIP3    H122276   1.890   7.687   3.475
 7445TIP3    H222277   2.015   7.603   3.459
 7446TIP3   OH222278   0.040   4.302   0.892
 7446TIP3    H122279   0.129   4.327   0.868
 7446TIP3    H222280  -0.004   4.286   0.808
 7447TIP3   OH222281   1.494   3.188   5.065
 7447TIP3    H122282   1.497   3.171   5.159
 7447TIP3    H222283   1.401   3.194   5.044
 7448TIP3   OH222284   3.720   1.026   0.856
 7448TIP3    H122285   3.664   1.061   0.926
 7448TIP3    H222286   3.672   0.950   0.823
 7449TIP3   OH222287   5.724   6.140   0.338
 7449TIP3    H122288   5.778   6.113   0.413
 7449TIP3    H222289   5.644   6.175   0.377
 7450TIP3   OH222290   7.429   3.972   1.767
 7450TIP3    H122291   7.345   3.990   1.809
 7450TIP3    H222292   7.460   4.058   1.737
 7451TIP3   OH222293   1.120   3.028   4.614
 7451TIP3    H122294   1.027   3.049   4.622
 7451TIP3    H222295   1.162   3.112   4.593
 7452TIP3   OH222296   8.289   1.007   3.493
 7452TIP3    H122297   8.224   1.007   3.563
 7452TIP3    H222298   8.359   0.951   3.525
 7453TIP3   OH222299   6.871   4.423  -0.017
 7453TIP3    H122300   6.903   4.458   0.067
 7453TIP3    H222301   6.820   4.346   0.008
 7454TIP3   OH222302   8.185   4.041   5.852
 7454TIP3    H122303   8.171   4.135   5.864
 7454TIP3    H222304   8.118   4.015   5.788
 7455TIP3   OH222305   2.813   5.948   1.273
 7455TIP3    H122306   2.849   5.927   1.359
 7455TIP3    H222307   2.887   5.940   1.213
 7456TIP3   OH222308   7.536   0.253   4.093
 7456TIP3    H122309   7.540   0.162   4.123
 7456TIP3    H222310   7.579   0.252   4.007
 7457TIP3   OH222311   5.809   4.639   1.699
 7457TIP3    H122312   5.764   4.723   1.690
 7457TIP3    H222313   5.751   4.587   1.754
 7458TIP3   OH222314   7.713   7.058   2.694
 7458TIP3    H122315   7.800   7.075   2.657
 7458TIP3    H222316   7.724   6.978   2.746
 7459TIP3   OH222317   3.445   3.553   2.708
 7459TIP3    H122318   3.351   3.538   2.718
 7459TIP3    H222319   3.482   3.534   2.794
 7460TIP3   OH222320   0.258   7.255   3.690
 7460TIP3    H122321   0.216   7.341   3.686
 7460TIP3    H222322   0.349   7.275   3.714
 7461TIP3   OH222323   1.729   6.315   1.928
 7461TIP3    H122324   1.663   6.272   1.981
 7461TIP3    H222325   1.805   6.257   1.932
 7462TIP3   OH222326   2.824   6.260   4.184
 7462TIP3    H122327   2.889   6.326   4.160
 7462TIP3    H222328   2.742   6.309   4.194
 7463TIP3   OH222329   1.232   5.092   3.503
 7463TIP3    H122330   1.261   5.068   3.415
 7463TIP3    H222331   1.189   5.013   3.536
 7464TIP3   OH222332   8.335   7.637   2.549
 7464TIP3    H122333   8.290   7.712   2.589
 7464TIP3    H222334   8.363   7.670   2.463
 7465TIP3   OH222335   8.359   0.478   4.435
 7465TIP3    H122336   8.427   0.537   4.402
 7465TIP3    H222337   8.345   0.415   4.364
 7466TIP3   OH222338   4.934   4.720   2.699
 7466TIP3    H122339   4.876   4.721   2.775
 7466TIP3    H222340   5.013   4.675   2.730
 7467TIP3   OH222341   5.311   2.170   6.409
 7467TIP3    H122342   5.235   2.179   6.467
 7467TIP3    H222343   5.318   2.076   6.393
 7468TIP3   OH222344   7.803   1.589   2.951
 7468TIP3    H122345   7.833   1.566   2.864
 7468TIP3    H222346   7.733   1.527   2.971
 7469TIP3   OH222347   5.997   1.932   4.346
 7469TIP3    H122348   5.963   1.994   4.411
 7469TIP3    H222349   5.969   1.967   4.262
 7470TIP3   OH222350   4.450   5.070   0.728
 7470TIP3    H122351   4.479   5.142   0.672
 7470TIP3    H222352   4.440   5.110   0.814
 7471TIP3   OH222353   7.442   2.692   3.019
 7471TIP3    H122354   7.526   2.679   3.063
 7471TIP3    H222355   7.406   2.604   3.010
 7472TIP3   OH222356   7.091   3.549   3.914
 7472TIP3    H122357   7.103   3.549   4.009
 7472TIP3    H222358   7.171   3.591   3.880
 7473TIP3   OH222359   1.017   0.117   4.422
 7473TIP3    H122360   1.060   0.035   4.401
 7473TIP3    H222361   1.083   0.184   4.403
 7474TIP3   OH222362   1.897   7.308   4.234
 7474TIP3    H122363   1.808   7.304   4.268
 7474TIP3    H222364   1.949   7.258   4.297
 7475TIP3   OH222365   2.961   5.458   6.254
 7475TIP3    H122366   2.972   5.553   6.257
 7475TIP3    H222367   3.001   5.427   6.335
 7476TIP3   OH222368   1.761   6.001   0.410
 7476TIP3    H122369   1.734   6.026   0.322
 7476TIP3    H222370   1.770   5.905   0.406
 7477TIP3   OH222371   4.022   4.734   3.547
 7477TIP3    H122372   3.993   4.744   3.456
 7477TIP3    H222373   3.947   4.697   3.592
 7478TIP3   OH222374   2.005   3.499   4.795
 7478TIP3    H122375   1.975   3.460   4.713
 7478TIP3    H222376   1.939   3.564   4.817
 7479TIP3   OH222377   7.817   1.539   2.665
 7479TIP3    H122378   7.801   1.534   2.571
 7479TIP3    H222379   7.895   1.485   2.679
 7480TIP3   OH222380   0.441   6.623   0.376
 7480TIP3    H122381   0.483   6.536   0.374
 7480TIP3    H222382   0.389   6.623   0.456
 7481TIP3   OH222383   3.157   0.207   5.794
 7481TIP3    H122384   3.135   0.149   5.867
 7481TIP3    H222385   3.096   0.280   5.802
 7482TIP3   OH222386   8.305   4.473   1.820
 7482TIP3    H122387   8.303   4.380   1.842
 7482TIP3    H222388   8.349   4.514   1.895
 7483TIP3   OH222389   6.581   7.078   3.113
 7483TIP3    H122390   6.666   7.050   3.149
 7483TIP3    H222391   6.586   7.173   3.114
 7484TIP3   OH222392   7.761   6.637   4.440
 7484TIP3    H122393   7.676   6.668   4.409
 7484TIP3    H222394   7.825   6.689   4.392
 7485TIP3   OH222395   2.127   2.841   6.874
 7485TIP3    H122396   2.215   2.805   6.863
 7485TIP3    H222397   2.106   2.879   6.788
 7486TIP3   OH222398   0.883   1.417   6.453
 7486TIP3    H122399   0.799   1.420   6.501
 7486TIP3    H222400   0.883   1.496   6.400
 7487TIP3   OH222401   5.795   4.105   6.075
 7487TIP3    H122402   5.872   4.080   6.126
 7487TIP3    H222403   5.721   4.075   6.128
 7488TIP3   OH222404   0.592   2.290   6.028
 7488TIP3    H122405   0.510   2.255   6.062
 7488TIP3    H222406   0.596   2.380   6.062
 7489TIP3   OH222407   6.402   0.176   4.229
 7489TIP3    H122408   6.394   0.114   4.302
 7489TIP3    H222409   6.339   0.246   4.250
 7490TIP3   OH222410   0.603   3.299   2.737
 7490TIP3    H122411   0.624   3.306   2.831
 7490TIP3    H222412   0.638   3.213   2.712
 7491TIP3   OH222413   8.303   2.160   0.319
 7491TIP3    H122414   8.236   2.205   0.267
 7491TIP3    H222415   8.283   2.184   0.409
 7492TIP3   OH222416   3.664   3.808   5.382
 7492TIP3    H122417   3.652   3.730   5.328
 7492TIP3    H222418   3.688   3.775   5.468
 7493TIP3   OH222419   1.052   3.844   3.227
 7493TIP3    H122420   1.066   3.937   3.246
 7493TIP3    H222421   1.077   3.799   3.307
 7494TIP3   OH222422   0.396   5.110   3.714
 7494TIP3    H122423   0.311   5.147   3.737
 7494TIP3    H222424   0.380   5.063   3.632
 7495TIP3   OH222425   7.232   6.709   5.530
 7495TIP3    H122426   7.216   6.764   5.606
 7495TIP3    H222427   7.168   6.737   5.465
 7496TIP3   OH222428   2.872   5.826   4.126
 7496TIP3    H122429   2.853   5.732   4.130
 7496TIP3    H222430   2.931   5.835   4.051
 7497TIP3   OH222431   5.028   1.910   3.482
 7497TIP3    H122432   5.063   1.927   3.569
 7497TIP3    H222433   4.938   1.883   3.496
 7498TIP3   OH222434   7.445   6.091   0.137
 7498TIP3    H122435   7.506   6.127   0.202
 7498TIP3    H222436   7.502   6.048   0.072
 7499TIP3   OH222437   7.273   3.133   0.883
 7499TIP3    H122438   7.304   3.072   0.950
 7499TIP3    H222439   7.250   3.078   0.808
 7500TIP3   OH222440   1.742   3.386   3.892
 7500TIP3    H122441   1.653   3.352   3.889
 7500TIP3    H222442   1.784   3.350   3.813
 7501TIP3   OH222443   3.483   1.610   4.944
 7501TIP3    H122444   3.439   1.578   5.023
 7501TIP3    H222445   3.447   1.698   4.931
 7502TIP3   OH222446   7.513   6.135   4.869
 7502TIP3    H122447   7.604   6.145   4.898
 7502TIP3    H222448   7.501   6.205   4.805
 7503TIP3   OH222449   0.306   3.497   0.062
 7503TIP3    H122450   0.252   3.530   0.134
 7503TIP3    H222451   0.252   3.429   0.021
 7504TIP3   OH222452   5.896   2.326   2.401
 7504TIP3    H122453   5.926   2.409   2.440
 7504TIP3    H222454   5.803   2.323   2.419
 7505TIP3   OH222455   4.990   1.948   5.648
 7505TIP3    H122456   4.947   1.871   5.685
 7505TIP3    H222457   4.938   2.022   5.679
 7506TIP3   OH222458   0.873   4.954   5.833
 7506TIP3    H122459   0.878   4.967   5.927
 7506TIP3    H222460   0.867   5.042   5.796
 7507TIP3   OH222461   6.625   2.216   5.660
 7507TIP3    H122462   6.642   2.292   5.714
 7507TIP3    H222463   6.698   2.156   5.679
 7508TIP3   OH222464   0.585   6.698   4.168
 7508TIP3    H122465   0.652   6.706   4.100
 7508TIP3    H222466   0.624   6.639   4.233
 7509TIP3   OH222467   6.393   3.755   0.429
 7509TIP3    H122468   6.467   3.725   0.375
 7509TIP3    H222469   6.323   3.773   0.365
 7510TIP3   OH222470   3.045   4.580   1.136
 7510TIP3    H122471   2.966   4.626   1.107
 7510TIP3    H222472   3.080   4.539   1.057
 7511TIP3   OH222473   7.648   6.289   4.407
 7511TIP3    H122474   7.587   6.356   4.375
 7511TIP3    H222475   7.597   6.208   4.406
 7512TIP3   OH222476   3.260   3.241   4.963
 7512TIP3    H122477   3.249   3.245   4.868
 7512TIP3    H222478   3.318   3.166   4.977
 7513TIP3   OH222479   1.721   2.896   6.326
 7513TIP3    H122480   1.717   2.833   6.254
 7513TIP3    H222481   1.649   2.956   6.309
 7514TIP3   OH222482   4.133   2.985   4.714
 7514TIP3    H122483   4.125   2.950   4.625
 7514TIP3    H222484   4.044   2.981   4.749
 7515TIP3   OH222485   7.207   0.096   6.560
 7515TIP3    H122486   7.290   0.115   6.604
 7515TIP3    H222487   7.233   0.050   6.480
 7516TIP3   OH222488   7.444   4.389   4.433
 7516TIP3    H122489   7.417   4.460   4.374
 7516TIP3    H222490   7.531   4.414   4.462
 7517TIP3   OH222491   2.408   4.472   6.014
 7517TIP3    H122492   2.316   4.445   6.008
 7517TIP3    H222493   2.456   4.391   6.029
 7518TIP3   OH222494   4.218   7.794   2.824
 7518TIP3    H122495   4.148   7.784   2.888
 7518TIP3    H222496   4.234   7.705   2.792
 7519TIP3   OH222497   7.416   4.531   1.490
 7519TIP3    H122498   7.437   4.507   1.400
 7519TIP3    H222499   7.487   4.590   1.516
 7520TIP3   OH222500   6.934   2.810   5.376
 7520TIP3    H122501   6.910   2.857   5.296
 7520TIP3    H222502   6.966   2.725   5.345
 7521TIP3   OH222503   2.559   6.443   5.012
 7521TIP3    H122504   2.652   6.467   5.018
 7521TIP3    H222505   2.514   6.513   5.059
 7522TIP3   OH222506   4.101   4.978   0.333
 7522TIP3    H122507   4.016   5.020   0.327
 7522TIP3    H222508   4.160   5.037   0.285
 7523TIP3   OH222509   6.741   2.572   6.169
 7523TIP3    H122510   6.766   2.480   6.178
 7523TIP3    H222511   6.648   2.574   6.193
 7524TIP3   OH222512   3.315   5.827   5.019
 7524TIP3    H122513   3.283   5.841   5.108
 7524TIP3    H222514   3.307   5.732   5.005
 7525TIP3   OH222515   4.371   2.543   3.205
 7525TIP3    H122516   4.433   2.474   3.182
 7525TIP3    H222517   4.345   2.581   3.122
 7526TIP3   OH222518   2.386   2.771   2.991
 7526TIP3    H122519   2.471   2.791   3.029
 7526TIP3    H222520   2.382   2.823   2.911
 7527TIP3   OH222521   3.305   3.956   4.230
 7527TIP3    H122522   3.249   4.032   4.212
 7527TIP3    H222523   3.271   3.888   4.171
 7528TIP3   OH222524   7.723   2.298   1.803
 7528TIP3    H122525   7.786   2.264   1.739
 7528TIP3    H222526   7.645   2.244   1.792
 7529TIP3   OH222527   7.681   3.869   5.858
 7529TIP3    H122528   7.626   3.903   5.928
 7529TIP3    H222529   7.697   3.945   5.801
 7530TIP3   OH222530   5.107   6.670   6.407
 7530TIP3    H122531   5.143   6.606   6.346
 7530TIP3    H222532   5.012   6.659   6.400
 7531TIP3   OH222533   1.083   3.636   3.670
 7531TIP3    H122534   0.999   3.648   3.625
 7531TIP3    H222535   1.131   3.717   3.654
 7532TIP3   OH222536   2.012   0.340   5.897
 7532TIP3    H122537   2.033   0.311   5.986
 7532TIP3    H222538   1.916   0.341   5.895
 7533TIP3   OH222539   7.075   4.795   5.844
 7533TIP3    H122540   7.031   4.872   5.881
 7533TIP3    H222541   7.012   4.724   5.856
 7534TIP3   OH222542   1.782   1.426   3.238
 7534TIP3    H122543   1.689   1.430   3.260
 7534TIP3    H222544   1.819   1.505   3.278
 7535TIP3   OH222545   2.326   2.265   2.310
 7535TIP3    H122546   2.370   2.317   2.378
 7535TIP3    H222547   2.288   2.330   2.251
 7536TIP3   OH222548   2.555   4.482   5.318
 7536TIP3    H122549   2.613   4.405   5.320
 7536TIP3    H222550   2.535   4.495   5.225
 7537TIP3   OH222551   0.719   7.065   1.723
 7537TIP3    H122552   0.769   7.109   1.654
 7537TIP3    H222553   0.703   6.977   1.688
 7538TIP3   OH222554   4.931   5.474   0.567
 7538TIP3    H122555   5.025   5.488   0.554
 7538TIP3    H222556   4.901   5.435   0.484
 7539TIP3   OH222557   2.453   2.490   2.472
 7539TIP3    H122558   2.455   2.570   2.418
 7539TIP3    H222559   2.545   2.468   2.485
 7540TIP3   OH222560   7.931   4.529   6.478
 7540TIP3    H122561   7.866   4.474   6.522
 7540TIP3    H222562   8.009   4.473   6.472
 7541TIP3   OH222563   3.188   5.372   1.371
 7541TIP3    H122564   3.119   5.330   1.422
 7541TIP3    H222565   3.248   5.408   1.437
 7542TIP3   OH222566   5.437   7.393   1.919
 7542TIP3    H122567   5.400   7.342   1.846
 7542TIP3    H222568   5.399   7.354   1.997
 7543TIP3   OH222569   6.620   7.397   6.097
 7543TIP3    H122570   6.630   7.304   6.114
 7543TIP3    H222571   6.583   7.434   6.177
 7544TIP3   OH222572   2.201   7.675   5.003
 7544TIP3    H122573   2.239   7.597   5.043
 7544TIP3    H222574   2.220   7.667   4.910
 7545TIP3   OH222575   4.115   6.196   0.864
 7545TIP3    H122576   4.194   6.143   0.874
 7545TIP3    H222577   4.126   6.267   0.928
 7546TIP3   OH222578   4.982   7.223   1.979
 7546TIP3    H122579   4.998   7.201   2.071
 7546TIP3    H222580   5.054   7.180   1.932
 7547TIP3   OH222581   4.112   2.597   5.789
 7547TIP3    H122582   4.133   2.587   5.696
 7547TIP3    H222583   4.078   2.686   5.795
 7548TIP3   OH222584   0.379   1.496   1.876
 7548TIP3    H122585   0.397   1.569   1.935
 7548TIP3    H222586   0.287   1.474   1.892
 7549TIP3   OH222587   1.447   4.003   6.674
 7549TIP3    H122588   1.491   3.927   6.712
 7549TIP3    H222589   1.355   3.978   6.669
 7550TIP3   OH222590   2.778   2.300   3.269
 7550TIP3    H122591   2.803   2.241   3.197
 7550TIP3    H222592   2.717   2.249   3.322
 7551TIP3   OH222593   3.036   5.856   2.643
 7551TIP3    H122594   2.965   5.795   2.661
 7551TIP3    H222595   3.116   5.802   2.650
 7552TIP3   OH222596   1.625   7.131   3.695
 7552TIP3    H122597   1.635   7.104   3.786
 7552TIP3    H222598   1.688   7.077   3.646
 7553TIP3   OH222599   7.995   3.979   1.239
 7553TIP3    H122600   8.082   4.020   1.237
 7553TIP3    H222601   7.934   4.052   1.232
 7554TIP3   OH222602   0.061   4.215   3.318
 7554TIP3    H122603   0.072   4.310   3.323
 7554TIP3    H222604  -0.033   4.202   3.302
 7555TIP3   OH222605   2.259   6.604   3.846
 7555TIP3    H122606   2.175   6.602   3.891
 7555TIP3    H222607   2.236   6.599   3.753
 7556TIP3   OH222608   6.387   4.474   5.859
 7556TIP3    H122609   6.453   4.543   5.867
 7556TIP3    H222610   6.353   4.483   5.770
 7557TIP3   OH222611   4.564   0.953   1.407
 7557TIP3    H122612   4.562   0.862   1.377
 7557TIP3    H222613   4.651   0.985   1.382
 7558TIP3   OH222614   1.427   3.910   1.816
 7558TIP3    H122615   1.469   3.829   1.788
 7558TIP3    H222616   1.496   3.976   1.810
 7559TIP3   OH222617   2.163   7.217   1.584
 7559TIP3    H122618   2.132   7.307   1.574
 7559TIP3    H222619   2.254   7.219   1.555
 7560TIP3   OH222620   0.715   6.806   4.449
 7560TIP3    H122621   0.722   6.717   4.412
 7560TIP3    H222622   0.724   6.793   4.543
 7561TIP3   OH222623   3.027   2.382   5.041
 7561TIP3    H122624   2.976   2.303   5.057
 7561TIP3    H222625   3.019   2.397   4.946
 7562TIP3   OH222626   8.357   6.132   0.893
 7562TIP3    H122627   8.331   6.054   0.942
 7562TIP3    H222628   8.276   6.166   0.857
 7563TIP3   OH222629   7.766   4.240   3.339
 7563TIP3    H122630   7.791   4.167   3.396
 7563TIP3    H222631   7.804   4.216   3.254
 7564TIP3   OH222632   3.845   2.055   1.673
 7564TIP3    H122633   3.928   2.103   1.668
 7564TIP3    H222634   3.779   2.123   1.686
 7565TIP3   OH222635   3.103   4.136   3.688
 7565TIP3    H122636   3.088   4.056   3.638
 7565TIP3    H222637   3.068   4.206   3.633
 7566TIP3   OH222638   0.230   1.277   3.138
 7566TIP3    H122639   0.249   1.370   3.122
 7566TIP3    H222640   0.291   1.252   3.207
 7567TIP3   OH222641   2.371   5.040   0.180
 7567TIP3    H122642   2.408   5.119   0.219
 7567TIP3    H222643   2.345   4.986   0.255
 7568TIP3   OH222644   7.775   7.278   5.664
 7568TIP3    H122645   7.697   7.251   5.614
 7568TIP3    H222646   7.741   7.333   5.735
 7569TIP3   OH222647   1.680   6.534   0.933
 7569TIP3    H122648   1.757   6.545   0.876
 7569TIP3    H222649   1.621   6.478   0.884
 7570TIP3   OH222650   6.895   3.928   5.192
 7570TIP3    H122651   6.824   3.876   5.228
 7570TIP3    H222652   6.951   3.865   5.147
 7571TIP3   OH222653   6.143   4.448   3.436
 7571TIP3    H122654   6.166   4.511   3.505
 7571TIP3    H222655   6.064   4.484   3.396
 7572TIP3   OH222656   5.669   0.438   5.906
 7572TIP3    H122657   5.737   0.407   5.846
 7572TIP3    H222658   5.587   0.408   5.867
 7573TIP3   OH222659   5.953   6.595   1.668
 7573TIP3    H122660   5.895   6.626   1.599
 7573TIP3    H222661   6.024   6.550   1.622
 7574TIP3   OH222662   7.105   3.546   0.445
 7574TIP3    H122663   7.159   3.473   0.414
 7574TIP3    H222664   7.018   3.529   0.406
 7575TIP3   OH222665   5.786   6.750   3.704
 7575TIP3    H122666   5.718   6.734   3.638
 7575TIP3    H222667   5.835   6.825   3.670
 7576TIP3   OH222668   2.921   6.991   5.012
 7576TIP3    H122669   2.859   6.944   5.067
 7576TIP3    H222670   3.000   6.997   5.066
 7577TIP3   OH222671   3.986   5.353   0.980
 7577TIP3    H122672   3.934   5.312   1.049
 7577TIP3    H222673   4.050   5.407   1.026
 7578TIP3   OH222674   6.243   4.804   6.462
 7578TIP3    H122675   6.318   4.752   6.491
 7578TIP3    H222676   6.214   4.761   6.381
 7579TIP3   OH222677   2.795   5.593   6.044
 7579TIP3    H122678   2.853   5.523   6.015
 7579TIP3    H222679   2.781   5.647   5.966
 7580TIP3   OH222680   1.736   5.552   2.669
 7580TIP3    H122681   1.708   5.604   2.744
 7580TIP3    H222682   1.661   5.553   2.610
 7581TIP3   OH222683   5.943   5.128   1.680
 7581TIP3    H122684   5.888   5.145   1.604
 7581TIP3    H222685   5.912   5.043   1.712
 7582TIP3   OH222686   2.863   1.540   2.412
 7582TIP3    H122687   2.773   1.566   2.394
 7582TIP3    H222688   2.895   1.606   2.475
 7583TIP3   OH222689   7.784   7.737   6.634
 7583TIP3    H122690   7.821   7.674   6.572
 7583TIP3    H222691   7.699   7.699   6.659
 7584TIP3   OH222692   3.017   5.042   2.304
 7584TIP3    H122693   2.942   5.101   2.292
 7584TIP3    H222694   3.077   5.092   2.359
 7585TIP3   OH222695   7.629   3.941   1.957
 7585TIP3    H122696   7.559   3.924   1.894
 7585TIP3    H222697   7.708   3.948   1.904
 7586TIP3   OH222698   0.504   1.431   5.027
 7586TIP3    H122699   0.545   1.460   5.108
 7586TIP3    H222700   0.571   1.378   4.984
 7587TIP3   OH222701   1.473   1.858   3.243
 7587TIP3    H122702   1.456   1.768   3.215
 7587TIP3    H222703   1.446   1.860   3.335
 7588TIP3   OH222704   5.311   4.965   2.128
 7588TIP3    H122705   5.303   4.902   2.199
 7588TIP3    H222706   5.224   4.967   2.088
 7589TIP3   OH222707   5.662   2.693   4.106
 7589TIP3    H122708   5.625   2.764   4.159
 7589TIP3    H222709   5.676   2.622   4.169
 7590TIP3   OH222710   0.513   1.384   0.845
 7590TIP3    H122711   0.555   1.460   0.806
 7590TIP3    H222712   0.585   1.332   0.880
 7591TIP3   OH222713   6.258   6.649   3.297
 7591TIP3    H122714   6.321   6.630   3.228
 7591TIP3    H222715   6.191   6.703   3.256
 7592TIP3   OH222716   1.056   2.363   1.998
 7592TIP3    H122717   1.124   2.304   1.966
 7592TIP3    H222718   0.975   2.312   1.992
 7593TIP3   OH222719   7.493   2.568   5.832
 7593TIP3    H122720   7.501   2.600   5.922
 7593TIP3    H222721   7.445   2.637   5.786
 7594TIP3   OH222722   5.386   7.153   0.060
 7594TIP3    H122723   5.457   7.107   0.103
 7594TIP3    H222724   5.336   7.085   0.015
 7595TIP3   OH222725   7.869   6.495   2.986
 7595TIP3    H122726   7.883   6.407   3.019
 7595TIP3    H222727   7.846   6.483   2.894
 7596TIP3   OH222728   2.814   0.676   4.570
 7596TIP3    H122729   2.738   0.692   4.626
 7596TIP3    H222730   2.884   0.727   4.611
 7597TIP3   OH222731   2.391   0.822   6.709
 7597TIP3    H122732   2.409   0.890   6.644
 7597TIP3    H222733   2.447   0.845   6.783
 7598TIP3   OH222734   5.524   4.376   2.836
 7598TIP3    H122735   5.574   4.453   2.807
 7598TIP3    H222736   5.434   4.395   2.809
 7599TIP3   OH222737   2.940   3.648   6.249
 7599TIP3    H122738   2.923   3.668   6.157
 7599TIP3    H222739   2.906   3.559   6.260
 7600TIP3   OH222740   0.736   7.413   6.264
 7600TIP3    H122741   0.782   7.438   6.345
 7600TIP3    H222742   0.790   7.344   6.226
 7601TIP3   OH222743   7.440   5.926   5.964
 7601TIP3    H122744   7.351   5.949   5.990
 7601TIP3    H222745   7.434   5.835   5.935
 7602TIP3   OH222746   8.353   7.646   6.572
 7602TIP3    H122747   8.274   7.692   6.601
 7602TIP3    H222748   8.385   7.697   6.498
 7603TIP3   OH222749   3.708   2.113   4.843
 7603TIP3    H122750   3.691   2.169   4.919
 7603TIP3    H222751   3.771   2.162   4.791
 7604TIP3   OH222752   8.335   1.403   5.439
 7604TIP3    H122753   8.375   1.438   5.359
 7604TIP3    H222754   8.296   1.319   5.411
 7605TIP3   OH222755   3.160   3.044   1.341
 7605TIP3    H122756   3.171   3.078   1.252
 7605TIP3    H222757   3.217   2.968   1.344
 7606TIP3   OH222758   6.330   4.955   0.062
 7606TIP3    H122759   6.409   4.998   0.095
 7606TIP3    H222760   6.314   4.997  -0.023
 7607TIP3   OH222761   5.538   4.623   6.113
 7607TIP3    H122762   5.577   4.710   6.121
 7607TIP3    H222763   5.489   4.626   6.031
 7608TIP3   OH222764   8.094   5.466   3.273
 7608TIP3    H122765   8.135   5.450   3.188
 7608TIP3    H222766   8.119   5.556   3.296
 7609TIP3   OH222767   3.943   5.119   3.358
 7609TIP3    H122768   3.974   5.041   3.313
 7609TIP3    H222769   3.986   5.192   3.312
 7610TIP3   OH222770   7.282   7.461   1.378
 7610TIP3    H122771   7.204   7.514   1.394
 7610TIP3    H222772   7.259   7.409   1.301
 7611TIP3   OH222773   0.111   5.555   6.630
 7611TIP3    H122774   0.158   5.623   6.581
 7611TIP3    H222775   0.092   5.487   6.565
 7612TIP3   OH222776   8.013   4.287   0.005
 7612TIP3    H122777   7.920   4.308   0.016
 7612TIP3    H222778   8.054   4.319   0.085
 7613TIP3   OH222779   7.196   2.552   0.640
 7613TIP3    H122780   7.235   2.494   0.575
 7613TIP3    H222781   7.163   2.626   0.588
 7614TIP3   OH222782   4.987   1.355   2.271
 7614TIP3    H122783   5.014   1.446   2.282
 7614TIP3    H222784   5.000   1.337   2.178
 7615TIP3   OH222785   3.030   6.673   2.060
 7615TIP3    H122786   3.022   6.639   2.149
 7615TIP3    H222787   2.970   6.747   2.057
 7616TIP3   OH222788   0.874   2.997   6.659
 7616TIP3    H122789   0.962   2.959   6.668
 7616TIP3    H222790   0.831   2.943   6.593
 7617TIP3   OH222791   4.643   6.918   3.181
 7617TIP3    H122792   4.558   6.876   3.194
 7617TIP3    H222793   4.700   6.876   3.246
 7618TIP3   OH222794   0.449   2.540   5.813
 7618TIP3    H122795   0.441   2.599   5.887
 7618TIP3    H222796   0.486   2.594   5.743
 7619TIP3   OH222797   1.908   1.609   2.230
 7619TIP3    H122798   1.998   1.591   2.258
 7619TIP3    H222799   1.910   1.699   2.199
 7620TIP3   OH222800   6.187   2.929   1.548
 7620TIP3    H122801   6.181   2.837   1.575
 7620TIP3    H222802   6.199   2.977   1.630
 7621TIP3   OH222803   6.728   2.798   5.174
 7621TIP3    H122804   6.670   2.839   5.238
 7621TIP3    H222805   6.685   2.811   5.089
 7622TIP3   OH222806   2.503   6.296   5.715
 7622TIP3    H122807   2.448   6.236   5.664
 7622TIP3    H222808   2.452   6.314   5.794
 7623TIP3   OH222809   7.938   7.307   3.965
 7623TIP3    H122810   8.030   7.288   3.986
 7623TIP3    H222811   7.892   7.300   4.048
 7624TIP3   OH222812   1.131   6.641   4.405
 7624TIP3    H122813   1.169   6.726   4.388
 7624TIP3    H222814   1.205   6.580   4.399
 7625TIP3   OH222815   8.134   6.889   4.134
 7625TIP3    H122816   8.224   6.902   4.104
 7625TIP3    H222817   8.082   6.885   4.053
 7626TIP3   OH222818   8.070   1.628   5.017
 7626TIP3    H122819   8.020   1.615   4.936
 7626TIP3    H222820   8.010   1.600   5.086
 7627TIP3   OH222821   5.337   0.908   1.149
 7627TIP3    H122822   5.243   0.923   1.140
 7627TIP3    H222823   5.364   0.875   1.064
 7628TIP3   OH222824   5.889   6.913   5.219
 7628TIP3    H122825   5.945   6.991   5.220
 7628TIP3    H222826   5.827   6.929   5.148
 7629TIP3   OH222827   1.325   1.631   6.506
 7629TIP3    H122828   1.360   1.643   6.418
 7629TIP3    H222829   1.274   1.550   6.500
 7630TIP3   OH222830   7.435   7.248   0.308
 7630TIP3    H122831   7.392   7.290   0.233
 7630TIP3    H222832   7.450   7.158   0.280
 7631TIP3   OH222833   2.179   5.652   5.278
 7631TIP3    H122834   2.179   5.606   5.363
 7631TIP3    H222835   2.245   5.721   5.289
 7632TIP3   OH222836   3.931   3.380   0.974
 7632TIP3    H122837   3.865   3.438   0.935
 7632TIP3    H222838   3.882   3.302   0.999
 7633TIP3   OH222839   4.983   0.971   0.125
 7633TIP3    H122840   4.912   1.033   0.108
 7633TIP3    H222841   4.949   0.887   0.095
 7634TIP3   OH222842   1.058   2.168   3.215
 7634TIP3    H122843   1.044   2.148   3.308
 7634TIP3    H222844   0.975   2.209   3.188
 7635TIP3   OH222845   6.890   6.986   2.079
 7635TIP3    H122846   6.874   7.021   1.991
 7635TIP3    H222847   6.819   7.022   2.132
 7636TIP3   OH222848   2.287   5.525   6.697
 7636TIP3    H122849   2.304   5.550   6.606
 7636TIP3    H222850   2.365   5.552   6.745
 7637TIP3   OH222851   6.011   6.651   5.198
 7637TIP3    H122852   5.996   6.600   5.278
 7637TIP3    H222853   6.018   6.742   5.228
 7638TIP3   OH222854   0.446   5.813   0.538
 7638TIP3    H122855   0.507   5.746   0.568
 7638TIP3    H222856   0.360   5.783   0.568
 7639TIP3   OH222857   4.531   5.575   1.694
 7639TIP3    H122858   4.606   5.627   1.720
 7639TIP3    H222859   4.517   5.514   1.767
 7640TIP3   OH222860   3.627   0.088   2.335
 7640TIP3    H122861   3.549   0.134   2.306
 7640TIP3    H222862   3.646   0.124   2.422
 7641TIP3   OH222863   6.545   5.988   6.386
 7641TIP3    H122864   6.539   5.990   6.291
 7641TIP3    H222865   6.570   6.078   6.410
 7642TIP3   OH222866   2.869   4.518   3.690
 7642TIP3    H122867   2.886   4.515   3.784
 7642TIP3    H222868   2.786   4.566   3.683
 7643TIP3   OH222869   0.938   2.031   4.659
 7643TIP3    H122870   0.915   1.945   4.622
 7643TIP3    H222871   1.021   2.054   4.617
 7644TIP3   OH222872   6.260   2.786   3.898
 7644TIP3    H122873   6.175   2.829   3.903
 7644TIP3    H222874   6.243   2.702   3.855
 7645TIP3   OH222875   0.994   5.188   4.252
 7645TIP3    H122876   1.067   5.237   4.217
 7645TIP3    H222877   0.965   5.132   4.180
 7646TIP3   OH222878   5.001   0.179   1.125
 7646TIP3    H122879   5.072   0.168   1.188
 7646TIP3    H222880   5.017   0.112   1.059
 7647TIP3   OH222881   8.396   3.917   5.751
 7647TIP3    H122882   8.395   3.950   5.661
 7647TIP3    H222883   8.308   3.936   5.784
 7648TIP3   OH222884   2.267   1.839   4.615
 7648TIP3    H122885   2.313   1.841   4.698
 7648TIP3    H222886   2.307   1.910   4.563
 7649TIP3   OH222887   7.999   5.763   6.064
 7649TIP3    H122888   7.985   5.764   6.159
 7649TIP3    H222889   7.964   5.678   6.036
 7650TIP3   OH222890   5.112   2.201   6.628
 7650TIP3    H122891   5.097   2.118   6.674
 7650TIP3    H222892   5.157   2.256   6.693
 7651TIP3   OH222893   0.394   0.522   4.902
 7651TIP3    H122894   0.431   0.536   4.990
 7651TIP3    H222895   0.311   0.477   4.918
 7652TIP3   OH222896   8.353   2.975   5.058
 7652TIP3    H122897   8.270   2.938   5.087
 7652TIP3    H222898   8.402   2.900   5.023
 7653TIP3   OH222899   7.902   4.012   2.410
 7653TIP3    H122900   7.832   3.949   2.427
 7653TIP3    H222901   7.978   3.977   2.456
 7654TIP3   OH222902   3.155   1.752   3.915
 7654TIP3    H122903   3.235   1.783   3.873
 7654TIP3    H222904   3.185   1.713   3.997
 7655TIP3   OH222905   0.983   1.816   3.159
 7655TIP3    H122906   0.906   1.868   3.137
 7655TIP3    H222907   1.057   1.869   3.131
 7656TIP3   OH222908   4.259   3.431   2.380
 7656TIP3    H122909   4.246   3.343   2.415
 7656TIP3    H222910   4.352   3.448   2.388
 7657TIP3   OH222911   6.696   4.113   1.596
 7657TIP3    H122912   6.738   4.124   1.682
 7657TIP3    H222913   6.737   4.035   1.559
 7658TIP3   OH222914   6.415   5.685   6.140
 7658TIP3    H122915   6.389   5.742   6.068
 7658TIP3    H222916   6.332   5.652   6.175
 7659TIP3   OH222917   2.292   5.587   3.003
 7659TIP3    H122918   2.254   5.575   2.916
 7659TIP3    H222919   2.285   5.500   3.044
 7660TIP3   OH222920   0.332   2.238   6.082
 7660TIP3    H122921   0.297   2.295   6.150
 7660TIP3    H222922   0.272   2.163   6.081
 7661TIP3   OH222923   8.112   4.699   4.215
 7661TIP3    H122924   8.081   4.787   4.196
 7661TIP3    H222925   8.110   4.654   4.131
 7662TIP3   OH222926   4.529   4.538   6.102
 7662TIP3    H122927   4.457   4.581   6.055
 7662TIP3    H222928   4.566   4.477   6.038
 7663TIP3   OH222929   5.973   4.873   3.237
 7663TIP3    H122930   6.014   4.827   3.163
 7663TIP3    H222931   6.044   4.883   3.301
 7664TIP3   OH222932   1.841   3.102   2.892
 7664TIP3    H122933   1.894   3.102   2.813
 7664TIP3    H222934   1.894   3.149   2.957
 7665TIP3   OH222935   3.988   3.736   1.104
 7665TIP3    H122936   4.059   3.734   1.168
 7665TIP3    H222937   4.003   3.817   1.055
 7666TIP3   OH222938   2.737   3.365   5.860
 7666TIP3    H122939   2.793   3.382   5.935
 7666TIP3    H222940   2.741   3.446   5.809
 7667TIP3   OH222941   1.052   4.611   4.316
 7667TIP3    H122942   1.053   4.588   4.223
 7667TIP3    H222943   0.960   4.617   4.339
 7668TIP3   OH222944   1.789   4.418   5.150
 7668TIP3    H122945   1.703   4.435   5.189
 7668TIP3    H222946   1.798   4.482   5.080
 7669TIP3   OH222947   2.196   1.852   5.236
 7669TIP3    H122948   2.278   1.815   5.267
 7669TIP3    H222949   2.192   1.939   5.278
 7670TIP3   OH222950   8.087   2.258   3.770
 7670TIP3    H122951   8.105   2.184   3.827
 7670TIP3    H222952   8.056   2.327   3.829
 7671TIP3   OH222953   5.737   6.642   3.954
 7671TIP3    H122954   5.712   6.704   4.023
 7671TIP3    H222955   5.766   6.697   3.881
 7672TIP3   OH222956   2.834   2.118   0.521
 7672TIP3    H122957   2.848   2.203   0.480
 7672TIP3    H222958   2.802   2.062   0.450
 7673TIP3   OH222959   4.987   0.023   4.409
 7673TIP3    H122960   5.026  -0.020   4.332
 7673TIP3    H222961   5.061   0.069   4.450
 7674TIP3   OH222962   2.304   2.685   1.355
 7674TIP3    H122963   2.226   2.680   1.300
 7674TIP3    H222964   2.325   2.778   1.357
 7675TIP3   OH222965   7.791   4.158   2.810
 7675TIP3    H122966   7.734   4.081   2.808
 7675TIP3    H222967   7.869   4.131   2.763
 7676TIP3   OH222968   8.146   6.024   4.548
 7676TIP3    H122969   8.058   6.024   4.509
 7676TIP3    H222970   8.145   6.098   4.609
 7677TIP3   OH222971   5.491   4.661   6.383
 7677TIP3    H122972   5.509   4.637   6.292
 7677TIP3    H222973   5.577   4.661   6.425
 7678TIP3   OH222974   6.072   1.472   1.555
 7678TIP3    H122975   6.167   1.481   1.544
 7678TIP3    H222976   6.035   1.546   1.507
 7679TIP3   OH222977   6.221   0.919   5.832
 7679TIP3    H122978   6.314   0.895   5.827
 7679TIP3    H222979   6.218   0.992   5.894
 7680TIP3   OH222980   7.180   0.585   6.537
 7680TIP3    H122981   7.255   0.540   6.498
 7680TIP3    H222982   7.166   0.539   6.620
 7681TIP3   OH222983   5.809   6.844   0.304
 7681TIP3    H122984   5.785   6.894   0.226
 7681TIP3    H222985   5.898   6.812   0.285
 7682TIP3   OH222986   5.704   4.952   1.666
 7682TIP3    H122987   5.642   4.881   1.650
 7682TIP3    H222988   5.704   4.963   1.761
 7683TIP3   OH222989   0.468   7.573   6.046
 7683TIP3    H122990   0.397   7.529   6.092
 7683TIP3    H222991   0.519   7.615   6.115
 7684TIP3   OH222992   6.797   6.518   0.643
 7684TIP3    H122993   6.810   6.450   0.709
 7684TIP3    H222994   6.854   6.590   0.671
 7685TIP3   OH222995   2.419   1.308   5.354
 7685TIP3    H122996   2.352   1.329   5.419
 7685TIP3    H222997   2.430   1.390   5.305
 7686TIP3   OH222998   6.345   0.648   4.615
 7686TIP3    H122999   6.399   0.640   4.536
 7686TIP3    H223000   6.258   0.667   4.582
 7687TIP3   OH223001   5.424   2.006   3.521
 7687TIP3    H123002   5.393   2.017   3.431
 7687TIP3    H223003   5.344   2.004   3.573
 7688TIP3   OH223004   5.729   1.878   6.213
 7688TIP3    H123005   5.689   1.962   6.193
 7688TIP3    H223006   5.657   1.815   6.207
 7689TIP3   OH223007   5.145   3.372   5.477
 7689TIP3    H123008   5.088   3.302   5.509
 7689TIP3    H223009   5.178   3.414   5.556
 7690TIP3   OH223010   0.930   3.177   1.672
 7690TIP3    H123011   1.010   3.129   1.693
 7690TIP3    H223012   0.939   3.200   1.580
 7691TIP3   OH223013   4.847   0.763   6.437
 7691TIP3    H123014   4.941   0.768   6.451
 7691TIP3    H223015   4.834   0.800   6.349
 7692TIP3   OH223016   3.064   3.584   4.968
 7692TIP3    H123017   2.984   3.535   4.988
 7692TIP3    H223018   3.056   3.606   4.875
 7693TIP3   OH223019   7.975   3.341   4.124
 7693TIP3    H123020   7.939   3.301   4.045
 7693TIP3    H223021   7.927   3.300   4.196
 7694TIP3   OH223022   8.134   6.390   0.513
 7694TIP3    H123023   8.180   6.456   0.462
 7694TIP3    H223024   8.059   6.436   0.550
 7695TIP3   OH223025   4.895   0.189   1.963
 7695TIP3    H123026   4.926   0.190   1.873
 7695TIP3    H223027   4.857   0.102   1.974
 7696TIP3   OH223028   6.765   5.514   3.978
 7696TIP3    H123029   6.817   5.559   4.044
 7696TIP3    H223030   6.829   5.474   3.919
 7697TIP3   OH223031   5.591   7.230   6.754
 7697TIP3    H123032   5.632   7.168   6.815
 7697TIP3    H223033   5.503   7.243   6.789
 7698TIP3   OH223034   4.292   3.626   5.010
 7698TIP3    H123035   4.227   3.666   4.952
 7698TIP3    H223036   4.294   3.534   4.984
 7699TIP3   OH223037   2.467   0.482   5.927
 7699TIP3    H123038   2.542   0.431   5.896
 7699TIP3    H223039   2.423   0.511   5.848
 7700TIP3   OH223040   4.498   0.723   4.839
 7700TIP3    H123041   4.583   0.757   4.868
 7700TIP3    H223042   4.444   0.801   4.826
 7701TIP3   OH223043   4.363   5.921   4.894
 7701TIP3    H123044   4.312   5.974   4.954
 7701TIP3    H223045   4.339   5.831   4.915
 7702TIP3   OH223046   0.747   6.026   1.585
 7702TIP3    H123047   0.710   6.115   1.586
 7702TIP3    H223048   0.727   5.994   1.497
 7703TIP3   OH223049   6.634   4.131   4.043
 7703TIP3    H123050   6.716   4.083   4.037
 7703TIP3    H223051   6.640   4.180   4.125
 7704TIP3   OH223052   4.074   7.670   6.007
 7704TIP3    H123053   4.124   7.605   5.958
 7704TIP3    H223054   4.061   7.742   5.945
 7705TIP3   OH223055   7.427   0.970   3.464
 7705TIP3    H123056   7.444   0.971   3.558
 7705TIP3    H223057   7.350   1.025   3.453
 7706TIP3   OH223058   6.001   1.037   3.523
 7706TIP3    H123059   5.996   1.053   3.428
 7706TIP3    H223060   6.094   1.024   3.540
 7707TIP3   OH223061   6.831   4.491   2.146
 7707TIP3    H123062   6.865   4.488   2.057
 7707TIP3    H223063   6.875   4.420   2.192
 7708TIP3   OH223064   4.761   2.209   1.712
 7708TIP3    H123065   4.810   2.223   1.793
 7708TIP3    H223066   4.824   2.172   1.651
 7709TIP3   OH223067   0.969   4.274   5.772
 7709TIP3    H123068   0.918   4.346   5.810
 7709TIP3    H223069   0.972   4.293   5.679
 7710TIP3   OH223070   4.444   0.068   3.383
 7710TIP3    H123071   4.401   0.149   3.409
 7710TIP3    H223072   4.537   0.089   3.382
 7711TIP3   OH223073   7.622   4.618   3.584
 7711TIP3    H123074   7.554   4.553   3.572
 7711TIP3    H223075   7.584   4.682   3.644
 7712TIP3   OH223076   1.501   2.933   4.035
 7712TIP3    H123077   1.489   2.956   4.127
 7712TIP3    H223078   1.413   2.909   4.004
 7713TIP3   OH223079   8.334   4.177   2.182
 7713TIP3    H123080   8.414   4.160   2.131
 7713TIP3    H223081   8.363   4.171   2.273
 7714TIP3   OH223082   7.070   4.267   0.996
 7714TIP3    H123083   7.103   4.213   0.925
 7714TIP3    H223084   6.975   4.268   0.983
 7715TIP3   OH223085   4.806   7.821   3.893
 7715TIP3    H123086   4.844   7.768   3.963
 7715TIP3    H223087   4.713   7.827   3.916
 7716TIP3   OH223088   1.639   3.890   2.532
 7716TIP3    H123089   1.558   3.868   2.487
 7716TIP3    H223090   1.699   3.819   2.509
 7717TIP3   OH223091   0.552   5.047   4.647
 7717TIP3    H123092   0.534   5.040   4.741
 7717TIP3    H223093   0.495   4.980   4.607
 7718TIP3   OH223094   1.466   0.553   3.941
 7718TIP3    H123095   1.557   0.530   3.957
 7718TIP3    H223096   1.448   0.521   3.853
 7719TIP3   OH223097   4.702   7.167   1.041
 7719TIP3    H123098   4.752   7.183   1.121
 7719TIP3    H223099   4.656   7.085   1.058
 7720TIP3   OH223100   2.035   0.374   1.496
 7720TIP3    H123101   2.059   0.337   1.411
 7720TIP3    H223102   2.009   0.464   1.477
 7721TIP3   OH223103   7.803   3.109   4.554
 7721TIP3    H123104   7.708   3.123   4.555
 7721TIP3    H223105   7.816   3.031   4.608
 7722TIP3   OH223106   4.548   1.236   4.479
 7722TIP3    H123107   4.555   1.171   4.549
 7722TIP3    H223108   4.550   1.185   4.398
 7723TIP3   OH223109   7.887   6.086   5.375
 7723TIP3    H123110   7.830   6.137   5.433
 7723TIP3    H223111   7.833   6.011   5.348
 7724TIP3   OH223112   1.392   7.686   5.023
 7724TIP3    H123113   1.418   7.689   5.115
 7724TIP3    H223114   1.330   7.757   5.013
 7725TIP3   OH223115   6.366  -0.014   4.731
 7725TIP3    H123116   6.417   0.027   4.800
 7725TIP3    H223117   6.275   0.006   4.754
 7726TIP3   OH223118   1.182   5.149   5.307
 7726TIP3    H123119   1.144   5.063   5.324
 7726TIP3    H223120   1.146   5.205   5.376
 7727TIP3   OH223121   6.754   0.675   1.471
 7727TIP3    H123122   6.733   0.596   1.521
 7727TIP3    H223123   6.697   0.743   1.508
 7728TIP3   OH223124   7.594   6.433   6.080
 7728TIP3    H123125   7.600   6.471   6.167
 7728TIP3    H223126   7.677   6.385   6.068
 7729TIP3   OH223127   1.803   0.232   6.566
 7729TIP3    H123128   1.746   0.200   6.636
 7729TIP3    H223129   1.800   0.328   6.575
 7730TIP3   OH223130   7.236   3.539   6.049
 7730TIP3    H123131   7.276   3.612   6.001
 7730TIP3    H223132   7.180   3.496   5.984
 7731TIP3   OH223133   6.577   7.124   1.984
 7731TIP3    H123134   6.485   7.111   1.963
 7731TIP3    H223135   6.625   7.083   1.912
 7732TIP3   OH223136   3.944   4.174   0.815
 7732TIP3    H123137   4.001   4.214   0.749
 7732TIP3    H223138   3.968   4.217   0.897
 7733TIP3   OH223139   6.664   2.388   4.145
 7733TIP3    H123140   6.721   2.458   4.176
 7733TIP3    H223141   6.718   2.338   4.083
 7734TIP3   OH223142   5.562   6.117   2.151
 7734TIP3    H123143   5.501   6.069   2.096
 7734TIP3    H223144   5.508   6.157   2.219
 7735TIP3   OH223145   1.341   6.147   5.271
 7735TIP3    H123146   1.408   6.203   5.231
 7735TIP3    H223147   1.266   6.205   5.284
 7736TIP3   OH223148   0.745   2.561   1.398
 7736TIP3    H123149   0.779   2.490   1.453
 7736TIP3    H223150   0.671   2.523   1.352
 7737TIP3   OH223151   1.894   4.634   4.178
 7737TIP3    H123152   1.988   4.638   4.197
 7737TIP3    H223153   1.884   4.555   4.125
 7738TIP3   OH223154   5.868  -0.003   6.605
 7738TIP3    H123155   5.896   0.000   6.514
 7738TIP3    H223156   5.778   0.027   6.604
 7739TIP3   OH223157   6.252   7.473   1.159
 7739TIP3    H123158   6.158   7.462   1.143
 7739TIP3    H223159   6.264   7.445   1.250
 7740TIP3   OH223160   7.627   6.729   6.832
 7740TIP3    H123161   7.617   6.642   6.792
 7740TIP3    H223162   7.707   6.764   6.794
 7741TIP3   OH223163   4.610   5.276   4.751
 7741TIP3    H123164   4.563   5.289   4.833
 7741TIP3    H223165   4.544   5.243   4.690
 7742TIP3   OH223166   6.104   6.001   6.584
 7742TIP3    H123167   6.114   5.909   6.560
 7742TIP3    H223168   6.032   6.001   6.647
 7743TIP3   OH223169   0.781   4.683   4.422
 7743TIP3    H123170   0.823   4.769   4.422
 7743TIP3    H223171   0.723   4.684   4.498
 7744TIP3   OH223172   2.975   0.431   1.840
 7744TIP3    H123173   2.938   0.452   1.755
 7744TIP3    H223174   2.983   0.335   1.840
 7745TIP3   OH223175   2.425   3.071   6.180
 7745TIP3    H123176   2.332   3.068   6.157
 7745TIP3    H223177   2.463   2.994   6.136
 7746TIP3   OH223178   6.587   7.177   5.655
 7746TIP3    H123179   6.525   7.218   5.716
 7746TIP3    H223180   6.540   7.170   5.573
 7747TIP3   OH223181   0.039   7.056   2.185
 7747TIP3    H123182  -0.004   7.095   2.261
 7747TIP3    H223183   0.110   7.004   2.221
 7748TIP3   OH223184   2.421   6.501   4.448
 7748TIP3    H123185   2.491   6.472   4.389
 7748TIP3    H223186   2.467   6.543   4.521
 7749TIP3   OH223187   3.048   2.628   2.458
 7749TIP3    H123188   3.127   2.672   2.428
 7749TIP3    H223189   2.999   2.609   2.378
 7750TIP3   OH223190   7.782   3.826   4.831
 7750TIP3    H123191   7.751   3.896   4.773
 7750TIP3    H223192   7.811   3.871   4.910
 7751TIP3   OH223193   3.004   1.284   6.359
 7751TIP3    H123194   3.001   1.352   6.427
 7751TIP3    H223195   3.068   1.315   6.295
 7752TIP3   OH223196   8.025   4.663   2.545
 7752TIP3    H123197   8.107   4.674   2.499
 7752TIP3    H223198   7.960   4.649   2.476
 7753TIP3   OH223199   2.729   6.867   6.389
 7753TIP3    H123200   2.639   6.893   6.370
 7753TIP3    H223201   2.782   6.917   6.327
 7754TIP3   OH223202   7.963   5.153   6.038
 7754TIP3    H123203   7.926   5.116   5.957
 7754TIP3    H223204   7.997   5.077   6.085
 7755TIP3   OH223205   3.230   0.355   4.415
 7755TIP3    H123206   3.181   0.278   4.443
 7755TIP3    H223207   3.231   0.350   4.319
 7756TIP3   OH223208   7.169   6.425   6.764
 7756TIP3    H123209   7.225   6.355   6.730
 7756TIP3    H223210   7.084   6.410   6.722
 7757TIP3   OH223211   3.088   4.588   1.962
 7757TIP3    H123212   3.142   4.576   1.883
 7757TIP3    H223213   3.008   4.537   1.944
 7758TIP3   OH223214   7.356   1.511   4.996
 7758TIP3    H123215   7.400   1.554   5.070
 7758TIP3    H223216   7.422   1.508   4.927
 7759TIP3   OH223217   8.357   6.705   5.851
 7759TIP3    H123218   8.287   6.770   5.862
 7759TIP3    H223219   8.438   6.757   5.852
 7760TIP3   OH223220   1.990   1.982   0.582
 7760TIP3    H123221   1.917   2.013   0.529
 7760TIP3    H223222   2.029   2.061   0.618
 7761TIP3   OH223223   7.172   5.716   0.169
 7761TIP3    H123224   7.191   5.623   0.155
 7761TIP3    H223225   7.170   5.726   0.264
 7762TIP3   OH223226   6.836   2.044   3.209
 7762TIP3    H123227   6.889   2.116   3.243
 7762TIP3    H223228   6.807   2.075   3.123
 7763TIP3   OH223229   3.176   2.776   5.480
 7763TIP3    H123230   3.201   2.865   5.454
 7763TIP3    H223231   3.250   2.721   5.452
 7764TIP3   OH223232   4.077   0.621   3.705
 7764TIP3    H123233   4.028   0.699   3.678
 7764TIP3    H223234   4.022   0.547   3.677
 7765TIP3   OH223235   6.362   0.769   1.273
 7765TIP3    H123236   6.288   0.759   1.333
 7765TIP3    H223237   6.326   0.813   1.196
 7766TIP3   OH223238   6.239   2.968   1.204
 7766TIP3    H123239   6.255   2.986   1.111
 7766TIP3    H223240   6.158   3.014   1.224
 7767TIP3   OH223241   2.663   5.448   0.127
 7767TIP3    H123242   2.666   5.500   0.207
 7767TIP3    H223243   2.700   5.364   0.152
 7768TIP3   OH223244   5.176   2.037   2.526
 7768TIP3    H123245   5.131   1.989   2.456
 7768TIP3    H223246   5.261   2.060   2.489
 7769TIP3   OH223247   6.674   1.840   3.920
 7769TIP3    H123248   6.612   1.912   3.935
 7769TIP3    H223249   6.745   1.880   3.871
 7770TIP3   OH223250   6.171   2.572   3.743
 7770TIP3    H123251   6.116   2.616   3.679
 7770TIP3    H223252   6.112   2.509   3.786
 7771TIP3   OH223253   0.717   3.307   3.355
 7771TIP3    H123254   0.762   3.385   3.322
 7771TIP3    H223255   0.777   3.235   3.336
 7772TIP3   OH223256   0.651   3.506   2.542
 7772TIP3    H123257   0.562   3.514   2.507
 7772TIP3    H223258   0.646   3.431   2.602
 7773TIP3   OH223259   7.822   0.467   3.744
 7773TIP3    H123260   7.819   0.382   3.788
 7773TIP3    H223261   7.823   0.446   3.651
 7774TIP3   OH223262   7.189   2.274   4.251
 7774TIP3    H123263   7.179   2.194   4.303
 7774TIP3    H223264   7.274   2.310   4.279
 7775TIP3   OH223265   0.557   4.906   6.779
 7775TIP3    H123266   0.537   4.883   6.689
 7775TIP3    H223267   0.507   4.986   6.796
 7776TIP3   OH223268   7.056   1.918   2.639
 7776TIP3    H123269   7.016   1.976   2.574
 7776TIP3    H223270   7.119   1.974   2.684
 7777TIP3   OH223271   4.966   5.554   2.860
 7777TIP3    H123272   5.033   5.532   2.925
 7777TIP3    H223273   5.014   5.559   2.778
 7778TIP3   OH223274   1.892   7.217   0.452
 7778TIP3    H123275   1.908   7.174   0.537
 7778TIP3    H223276   1.958   7.286   0.447
 7779TIP3   OH223277   6.645   7.238   3.468
 7779TIP3    H123278   6.611   7.279   3.547
 7779TIP3    H223279   6.572   7.240   3.406
 7780TIP3   OH223280   6.785   2.935   1.017
 7780TIP3    H123281   6.723   2.996   1.057
 7780TIP3    H223282   6.808   2.875   1.088
 7781TIP3   OH223283   5.992   1.819   5.523
 7781TIP3    H123284   5.913   1.765   5.528
 7781TIP3    H223285   6.033   1.808   5.609
 7782TIP3   OH223286   1.037   3.385   2.079
 7782TIP3    H123287   1.097   3.439   2.028
 7782TIP3    H223288   0.963   3.444   2.098
 7783TIP3   OH223289   3.686   5.887   1.768
 7783TIP3    H123290   3.701   5.974   1.731
 7783TIP3    H223291   3.593   5.889   1.794
 7784TIP3   OH223292   0.127   1.480   5.251
 7784TIP3    H123293   0.199   1.542   5.258
 7784TIP3    H223294   0.152   1.424   5.177
 7785TIP3   OH223295   8.212   2.221   2.741
 7785TIP3    H123296   8.259   2.223   2.657
 7785TIP3    H223297   8.214   2.129   2.767
 7786TIP3   OH223298   3.128   3.434   1.025
 7786TIP3    H123299   3.063   3.502   1.042
 7786TIP3    H223300   3.171   3.461   0.944
 7787TIP3   OH223301   4.370   4.195   5.025
 7787TIP3    H123302   4.315   4.119   5.004
 7787TIP3    H223303   4.308   4.261   5.055
 7788TIP3   OH223304   5.636   1.259   3.721
 7788TIP3    H123305   5.667   1.311   3.646
 7788TIP3    H223306   5.680   1.175   3.711
 7789TIP3   OH223307   1.502   4.977   5.833
 7789TIP3    H123308   1.555   5.032   5.890
 7789TIP3    H223309   1.563   4.909   5.802
 7790TIP3   OH223310   7.425   7.812   6.688
 7790TIP3    H123311   7.356   7.763   6.643
 7790TIP3    H223312   7.381   7.889   6.723
 7791TIP3   OH223313   0.317   5.262   4.773
 7791TIP3    H123314   0.352   5.286   4.688
 7791TIP3    H223315   0.241   5.318   4.785
 7792TIP3   OH223316   1.972   4.727   5.122
 7792TIP3    H123317   1.950   4.819   5.104
 7792TIP3    H223318   1.922   4.678   5.057
 7793TIP3   OH223319   5.170   2.646   2.658
 7793TIP3    H123320   5.185   2.714   2.591
 7793TIP3    H223321   5.184   2.691   2.741
 7794TIP3   OH223322   2.221   2.789   5.102
 7794TIP3    H123323   2.174   2.863   5.063
 7794TIP3    H223324   2.218   2.806   5.196
 7795TIP3   OH223325   5.303   5.808   6.257
 7795TIP3    H123326   5.278   5.868   6.187
 7795TIP3    H223327   5.394   5.784   6.237
 7796TIP3   OH223328   2.793   0.098   2.139
 7796TIP3    H123329   2.700   0.102   2.120
 7796TIP3    H223330   2.834   0.078   2.054
 7797TIP3   OH223331   7.578   2.476   4.618
 7797TIP3    H123332   7.665   2.513   4.604
 7797TIP3    H223333   7.575   2.454   4.711
 7798TIP3   OH223334   5.836   2.850   5.830
 7798TIP3    H123335   5.838   2.926   5.889
 7798TIP3    H223336   5.744   2.844   5.802
 7799TIP3   OH223337   3.587   5.734   0.206
 7799TIP3    H123338   3.658   5.790   0.239
 7799TIP3    H223339   3.518   5.795   0.183
 7800TIP3   OH223340   8.230   7.312   6.861
 7800TIP3    H123341   8.226   7.327   6.767
 7800TIP3    H223342   8.296   7.243   6.871
 7801TIP3   OH223343   5.177   4.934   6.130
 7801TIP3    H123344   5.182   4.844   6.163
 7801TIP3    H223345   5.098   4.935   6.075
 7802TIP3   OH223346   2.600   5.124   4.639
 7802TIP3    H123347   2.567   5.058   4.700
 7802TIP3    H223348   2.603   5.079   4.555
 7803TIP3   OH223349   6.964   2.277   3.263
 7803TIP3    H123350   6.902   2.350   3.262
 7803TIP3    H223351   7.031   2.304   3.327
 7804TIP3   OH223352   2.235   6.411   6.130
 7804TIP3    H123353   2.157   6.460   6.103
 7804TIP3    H223354   2.302   6.478   6.143
 7805TIP3   OH223355   5.537   4.458   4.658
 7805TIP3    H123356   5.629   4.482   4.651
 7805TIP3    H223357   5.494   4.534   4.697
 7806TIP3   OH223358   0.732   5.437   5.425
 7806TIP3    H123359   0.804   5.500   5.434
 7806TIP3    H223360   0.752   5.390   5.344
 7807TIP3   OH223361   7.045   1.314   4.073
 7807TIP3    H123362   7.111   1.335   4.139
 7807TIP3    H223363   7.073   1.231   4.036
 7808TIP3   OH223364   4.026   3.135   3.419
 7808TIP3    H123365   4.034   3.041   3.398
 7808TIP3    H223366   3.993   3.175   3.339
 7809TIP3   OH223367   6.184   6.693   2.914
 7809TIP3    H123368   6.273   6.728   2.911
 7809TIP3    H223369   6.128   6.768   2.893
 7810TIP3   OH223370   6.285   0.078   3.974
 7810TIP3    H123371   6.305   0.117   4.059
 7810TIP3    H223372   6.324  -0.009   3.978
 7811TIP3   OH223373   1.553   7.851   2.821
 7811TIP3    H123374   1.549   7.928   2.764
 7811TIP3    H223375   1.614   7.876   2.890
 7812TIP3   OH223376   6.083   7.634   0.464
 7812TIP3    H123377   6.035   7.717   0.460
 7812TIP3    H223378   6.142   7.636   0.388
 7813TIP3   OH223379   4.076   7.798   2.495
 7813TIP3    H123380   4.156   7.747   2.507
 7813TIP3    H223381   4.017   7.766   2.563
 7814TIP3   OH223382   2.546   6.732   4.563
 7814TIP3    H123383   2.459   6.735   4.522
 7814TIP3    H223384   2.587   6.815   4.540
 7815TIP3   OH223385   7.598   6.996   4.817
 7815TIP3    H123386   7.656   6.961   4.885
 7815TIP3    H223387   7.522   6.937   4.818
 7816TIP3   OH223388   3.595   0.147   6.075
 7816TIP3    H123389   3.531   0.084   6.041
 7816TIP3    H223390   3.546   0.229   6.083
 7817TIP3   OH223391   3.385   5.237   6.686
 7817TIP3    H123392   3.414   5.212   6.774
 7817TIP3    H223393   3.301   5.280   6.701
 7818TIP3   OH223394   7.094   0.566   5.821
 7818TIP3    H123395   7.159   0.636   5.812
 7818TIP3    H223396   7.093   0.546   5.914
 7819TIP3   OH223397   5.566   5.406   2.516
 7819TIP3    H123398   5.614   5.481   2.479
 7819TIP3    H223399   5.631   5.336   2.523
 7820TIP3   OH223400   1.423   3.059   6.528
 7820TIP3    H123401   1.471   2.986   6.566
 7820TIP3    H223402   1.457   3.068   6.439
 7821TIP3   OH223403   6.019   0.125   0.803
 7821TIP3    H123404   5.936   0.078   0.812
 7821TIP3    H223405   5.998   0.200   0.747
 7822TIP3   OH223406   4.103   0.501   1.337
 7822TIP3    H123407   4.056   0.445   1.400
 7822TIP3    H223408   4.070   0.475   1.252
 7823TIP3   OH223409   1.519   3.912   5.592
 7823TIP3    H123410   1.594   3.856   5.571
 7823TIP3    H223411   1.537   3.943   5.681
 7824TIP3   OH223412   5.667   6.978   1.849
 7824TIP3    H123413   5.662   7.069   1.818
 7824TIP3    H223414   5.735   6.978   1.915
 7825TIP3   OH223415   1.562   0.137   0.328
 7825TIP3    H123416   1.508   0.061   0.350
 7825TIP3    H223417   1.651   0.111   0.351
 7826TIP3   OH223418   5.756   2.686   1.441
 7826TIP3    H123419   5.715   2.766   1.475
 7826TIP3    H223420   5.846   2.691   1.471
 7827TIP3   OH223421   1.497   3.710   2.013
 7827TIP3    H123422   1.406   3.738   2.003
 7827TIP3    H223423   1.546   3.762   1.949
 7828TIP3   OH223424   3.453   7.154   3.426
 7828TIP3    H123425   3.548   7.153   3.433
 7828TIP3    H223426   3.426   7.069   3.462
 7829TIP3   OH223427   4.333   3.906   0.153
 7829TIP3    H123428   4.260   3.890   0.213
 7829TIP3    H223429   4.342   3.825   0.104
 7830TIP3   OH223430   2.442   6.268   0.448
 7830TIP3    H123431   2.486   6.201   0.397
 7830TIP3    H223432   2.351   6.237   0.456
 7831TIP3   OH223433   7.995   0.049   2.787
 7831TIP3    H123434   8.091   0.045   2.781
 7831TIP3    H223435   7.978   0.096   2.868
 7832TIP3   OH223436   6.770   0.483   0.240
 7832TIP3    H123437   6.691   0.534   0.224
 7832TIP3    H223438   6.787   0.493   0.334
 7833TIP3   OH223439   3.407   0.298   1.935
 7833TIP3    H123440   3.473   0.347   1.984
 7833TIP3    H223441   3.421   0.207   1.959
 7834TIP3   OH223442   1.359   1.849   5.552
 7834TIP3    H123443   1.379   1.813   5.465
 7834TIP3    H223444   1.445   1.872   5.589
 7835TIP3   OH223445   2.863   2.687   2.692
 7835TIP3    H123446   2.954   2.707   2.669
 7835TIP3    H223447   2.817   2.769   2.677
 7836TIP3   OH223448   5.702   6.582   1.454
 7836TIP3    H123449   5.675   6.600   1.544
 7836TIP3    H223450   5.647   6.640   1.401
 7837TIP3   OH223451   2.471   6.146   4.344
 7837TIP3    H123452   2.381   6.151   4.376
 7837TIP3    H223453   2.467   6.085   4.270
 7838TIP3   OH223454   2.360   2.495   5.937
 7838TIP3    H123455   2.441   2.529   5.901
 7838TIP3    H223456   2.338   2.555   6.008
 7839TIP3   OH223457   3.139   7.578   3.472
 7839TIP3    H123458   3.210   7.527   3.433
 7839TIP3    H223459   3.105   7.522   3.542
 7840TIP3   OH223460   5.163   0.057   5.178
 7840TIP3    H123461   5.232   0.030   5.238
 7840TIP3    H223462   5.111  -0.022   5.164
 7841TIP3   OH223463   7.536   1.933   3.658
 7841TIP3    H123464   7.459   1.985   3.681
 7841TIP3    H223465   7.513   1.890   3.576
 7842TIP3   OH223466   2.262   6.105   3.954
 7842TIP3    H123467   2.236   6.125   3.864
 7842TIP3    H223468   2.195   6.145   4.008
 7843TIP3   OH223469   1.593   4.753   3.023
 7843TIP3    H123470   1.513   4.703   3.037
 7843TIP3    H223471   1.615   4.739   2.931
 7844TIP3   OH223472   3.167   5.434   3.944
 7844TIP3    H123473   3.202   5.388   4.020
 7844TIP3    H223474   3.077   5.401   3.935
 7845TIP3   OH223475   4.406   7.345   6.503
 7845TIP3    H123476   4.491   7.339   6.548
 7845TIP3    H223477   4.418   7.296   6.422
 7846TIP3   OH223478   2.540   2.708   3.953
 7846TIP3    H123479   2.472   2.640   3.947
 7846TIP3    H223480   2.610   2.677   3.896
 7847TIP3   OH223481   2.059   4.947   4.435
 7847TIP3    H123482   2.114   4.958   4.513
 7847TIP3    H223483   1.990   4.887   4.463
 7848TIP3   OH223484   5.482   0.844   4.856
 7848TIP3    H123485   5.406   0.903   4.858
 7848TIP3    H223486   5.536   0.872   4.929
 7849TIP3   OH223487   1.800   7.636   5.652
 7849TIP3    H123488   1.784   7.678   5.737
 7849TIP3    H223489   1.763   7.697   5.588
 7850TIP3   OH223490   6.803   5.289   2.386
 7850TIP3    H123491   6.737   5.232   2.345
 7850TIP3    H223492   6.876   5.230   2.406
 7851TIP3   OH223493   5.249   6.653   4.276
 7851TIP3    H123494   5.228   6.737   4.236
 7851TIP3    H223495   5.345   6.648   4.274
 7852TIP3   OH223496   1.732   0.533   3.719
 7852TIP3    H123497   1.760   0.563   3.632
 7852TIP3    H223498   1.810   0.492   3.756
 7853TIP3   OH223499   2.940   3.579   0.187
 7853TIP3    H123500   3.007   3.522   0.150
 7853TIP3    H223501   2.878   3.520   0.230
 7854TIP3   OH223502   7.632   3.652   6.666
 7854TIP3    H123503   7.658   3.563   6.644
 7854TIP3    H223504   7.556   3.669   6.611
 7855TIP3   OH223505   2.938   4.363   2.733
 7855TIP3    H123506   2.927   4.458   2.731
 7855TIP3    H223507   2.978   4.342   2.648
 7856TIP3   OH223508   1.201   6.603   2.529
 7856TIP3    H123509   1.162   6.581   2.614
 7856TIP3    H223510   1.127   6.611   2.470
 7857TIP3   OH223511   2.263   2.669   3.612
 7857TIP3    H123512   2.295   2.662   3.522
 7857TIP3    H223513   2.341   2.664   3.666
 7858TIP3   OH223514   5.983   4.593   6.615
 7858TIP3    H123515   6.062   4.544   6.592
 7858TIP3    H223516   6.011   4.684   6.617
 7859TIP3   OH223517   3.745   1.257   4.138
 7859TIP3    H123518   3.796   1.223   4.211
 7859TIP3    H223519   3.700   1.334   4.174
 7860TIP3   OH223520   3.604   6.384   5.960
 7860TIP3    H123521   3.564   6.320   5.901
 7860TIP3    H223522   3.539   6.398   6.028
 7861TIP3   OH223523   3.181   1.464   1.796
 7861TIP3    H123524   3.237   1.388   1.780
 7861TIP3    H223525   3.106   1.428   1.843
 7862TIP3   OH223526   2.913   7.798   5.454
 7862TIP3    H123527   2.851   7.739   5.411
 7862TIP3    H223528   2.998   7.773   5.419
 7863TIP3   OH223529   0.810   2.245   1.966
 7863TIP3    H123530   0.784   2.166   1.919
 7863TIP3    H223531   0.732   2.301   1.966
 7864TIP3   OH223532   7.050   5.352   0.149
 7864TIP3    H123533   7.108   5.424   0.172
 7864TIP3    H223534   7.099   5.273   0.176
 7865TIP3   OH223535   2.717   5.019   4.978
 7865TIP3    H123536   2.803   5.026   5.021
 7865TIP3    H223537   2.663   5.085   5.021
 7866TIP3   OH223538   7.655   7.527   0.886
 7866TIP3    H123539   7.728   7.564   0.837
 7866TIP3    H223540   7.697   7.473   0.953
 7867TIP3   OH223541   5.973   5.392   6.733
 7867TIP3    H123542   5.971   5.477   6.689
 7867TIP3    H223543   5.947   5.329   6.666
 7868TIP3   OH223544   3.329   6.627   1.092
 7868TIP3    H123545   3.257   6.584   1.139
 7868TIP3    H223546   3.287   6.698   1.044
 7869TIP3   OH223547   3.237   2.392   5.431
 7869TIP3    H123548   3.220   2.327   5.499
 7869TIP3    H223549   3.310   2.443   5.464
 7870TIP3   OH223550   2.042   6.965   3.195
 7870TIP3    H123551   2.071   6.964   3.104
 7870TIP3    H223552   1.948   6.948   3.191
 7871TIP3   OH223553   1.295   0.207   6.462
 7871TIP3    H123554   1.288   0.300   6.484
 7871TIP3    H223555   1.214   0.187   6.416
 7872TIP3   OH223556   0.591   1.289   6.552
 7872TIP3    H123557   0.535   1.363   6.578
 7872TIP3    H223558   0.552   1.256   6.472
 7873TIP3   OH223559   6.279   4.086   1.671
 7873TIP3    H123560   6.202   4.141   1.685
 7873TIP3    H223561   6.314   4.113   1.586
 7874TIP3   OH223562   4.269   2.061   2.195
 7874TIP3    H123563   4.352   2.029   2.228
 7874TIP3    H223564   4.289   2.148   2.159
 7875TIP3   OH223565   6.951   2.048   5.550
 7875TIP3    H123566   7.022   2.108   5.528
 7875TIP3    H223567   6.909   2.087   5.627
 7876TIP3   OH223568   0.978   4.299   4.162
 7876TIP3    H123569   0.971   4.210   4.127
 7876TIP3    H223570   0.953   4.291   4.254
 7877TIP3   OH223571   4.080   6.270   2.931
 7877TIP3    H123572   3.993   6.248   2.899
 7877TIP3    H223573   4.139   6.209   2.885
 7878TIP3   OH223574   0.193   5.971   4.363
 7878TIP3    H123575   0.217   5.927   4.281
 7878TIP3    H223576   0.185   6.063   4.338
 7879TIP3   OH223577   3.075   5.838   5.772
 7879TIP3    H123578   3.014   5.764   5.762
 7879TIP3    H223579   3.031   5.897   5.833
 7880TIP3   OH223580   7.325   3.944   6.537
 7880TIP3    H123581   7.233   3.968   6.546
 7880TIP3    H223582   7.370   4.026   6.518
 7881TIP3   OH223583   5.874   1.522   4.129
 7881TIP3    H123584   5.952   1.572   4.105
 7881TIP3    H223585   5.836   1.495   4.045
 7882TIP3   OH223586   8.312   0.519   6.698
 7882TIP3    H123587   8.236   0.506   6.641
 7882TIP3    H223588   8.370   0.446   6.677
 7883TIP3   OH223589   6.472   0.215   6.738
 7883TIP3    H123590   6.402   0.269   6.700
 7883TIP3    H223591   6.539   0.278   6.764
 7884TIP3   OH223592   7.643   7.416   0.152
 7884TIP3    H123593   7.588   7.350   0.195
 7884TIP3    H223594   7.729   7.375   0.147
 7885TIP3   OH223595   3.597   7.743   3.950
 7885TIP3    H123596   3.549   7.676   3.902
 7885TIP3    H223597   3.619   7.702   4.033
 7886TIP3   OH223598   7.277   1.530   6.228
 7886TIP3    H123599   7.361   1.512   6.270
 7886TIP3    H223600   7.275   1.625   6.217
 7887TIP3   OH223601   6.165   3.265   4.625
 7887TIP3    H123602   6.178   3.217   4.707
 7887TIP3    H223603   6.247   3.312   4.612
 7888TIP3   OH223604   7.094   6.049   4.734
 7888TIP3    H123605   7.009   6.008   4.722
 7888TIP3    H223606   7.157   5.980   4.712
 7889TIP3   OH223607   5.629   7.562   1.414
 7889TIP3    H123608   5.546   7.514   1.406
 7889TIP3    H223609   5.696   7.495   1.400
 7890TIP3   OH223610   5.885   6.590   6.321
 7890TIP3    H123611   5.853   6.605   6.410
 7890TIP3    H223612   5.813   6.547   6.276
 7891TIP3   OH223613   2.542   1.707   3.699
 7891TIP3    H123614   2.471   1.717   3.636
 7891TIP3    H223615   2.590   1.790   3.696
 7892TIP3   OH223616   2.260   6.829   4.535
 7892TIP3    H123617   2.297   6.837   4.447
 7892TIP3    H223618   2.173   6.792   4.520
 7893TIP3   OH223619   5.033   7.853   2.421
 7893TIP3    H123620   5.034   7.856   2.325
 7893TIP3    H223621   5.123   7.870   2.446
 7894TIP3   OH223622   6.233   5.097   2.877
 7894TIP3    H123623   6.257   5.188   2.862
 7894TIP3    H223624   6.178   5.100   2.956
 7895TIP3   OH223625   1.875   0.853   2.918
 7895TIP3    H123626   1.919   0.927   2.877
 7895TIP3    H223627   1.899   0.860   3.011
 7896TIP3   OH223628   0.113   4.633   5.594
 7896TIP3    H123629   0.065   4.625   5.511
 7896TIP3    H223630   0.139   4.543   5.615
 7897TIP3   OH223631   6.075   0.072   5.932
 7897TIP3    H123632   6.163   0.054   5.898
 7897TIP3    H223633   6.065   0.011   6.006
 7898TIP3   OH223634   7.361   5.459   0.511
 7898TIP3    H123635   7.445   5.472   0.556
 7898TIP3    H223636   7.301   5.520   0.554
 7899TIP3   OH223637   2.777   0.887   0.074
 7899TIP3    H123638   2.809   0.826   0.141
 7899TIP3    H223639   2.843   0.957   0.073
 7900TIP3   OH223640   7.262   6.015   5.155
 7900TIP3    H123641   7.325   6.047   5.218
 7900TIP3    H223642   7.315   5.972   5.088
 7901TIP3   OH223643   2.640   4.923   2.984
 7901TIP3    H123644   2.629   4.829   3.001
 7901TIP3    H223645   2.734   4.937   2.992
 7902TIP3   OH223646   8.253   1.856   0.569
 7902TIP3    H123647   8.187   1.790   0.548
 7902TIP3    H223648   8.252   1.916   0.495
 7903TIP3   OH223649   4.633   3.090   0.463
 7903TIP3    H123650   4.710   3.059   0.511
 7903TIP3    H223651   4.559   3.049   0.508
 7904TIP3   OH223652   6.424   7.762   4.434
 7904TIP3    H123653   6.518   7.748   4.423
 7904TIP3    H223654   6.418   7.840   4.490
 7905TIP3   OH223655   8.304   6.521   3.592
 7905TIP3    H123656   8.217   6.537   3.629
 7905TIP3    H223657   8.327   6.433   3.621
 7906TIP3   OH223658   1.820   0.094   2.866
 7906TIP3    H123659   1.815   0.122   2.958
 7906TIP3    H223660   1.913   0.076   2.852
 7907TIP3   OH223661   4.404   4.968   3.325
 7907TIP3    H123662   4.370   5.054   3.350
 7907TIP3    H223663   4.459   4.986   3.248
 7908TIP3   OH223664   2.415   5.910   5.864
 7908TIP3    H123665   2.407   5.978   5.797
 7908TIP3    H223666   2.325   5.877   5.874
 7909TIP3   OH223667   3.239   0.080   2.084
 7909TIP3    H123668   3.186   0.000   2.078
 7909TIP3    H223669   3.318   0.060   2.034
 7910TIP3   OH223670   1.329   6.452   3.696
 7910TIP3    H123671   1.279   6.510   3.753
 7910TIP3    H223672   1.390   6.407   3.755
 7911TIP3   OH223673   1.310   5.861   2.859
 7911TIP3    H123674   1.309   5.919   2.935
 7911TIP3    H223675   1.249   5.902   2.797
 7912TIP3   OH223676   5.108   5.556   3.720
 7912TIP3    H123677   5.082   5.644   3.746
 7912TIP3    H223678   5.164   5.525   3.792
 7913TIP3   OH223679   5.027   4.066   2.057
 7913TIP3    H123680   5.071   4.061   1.971
 7913TIP3    H223681   5.033   3.977   2.092
 7914TIP3   OH223682   6.922   4.757   0.110
 7914TIP3    H123683   6.906   4.835   0.164
 7914TIP3    H223684   6.963   4.695   0.170
 7915TIP3   OH223685   0.545   1.528   4.769
 7915TIP3    H123686   0.499   1.504   4.849
 7915TIP3    H223687   0.638   1.516   4.790
 7916TIP3   OH223688   7.709   6.262   0.024
 7916TIP3    H123689   7.797   6.285  -0.006
 7916TIP3    H223690   7.720   6.239   0.116
 7917TIP3   OH223691   6.747   1.835   0.843
 7917TIP3    H123692   6.714   1.789   0.921
 7917TIP3    H223693   6.808   1.773   0.803
 7918TIP3   OH223694   1.835   1.491   0.909
 7918TIP3    H123695   1.905   1.552   0.929
 7918TIP3    H223696   1.815   1.448   0.992
 7919TIP3   OH223697   6.408   2.555   1.488
 7919TIP3    H123698   6.441   2.639   1.458
 7919TIP3    H223699   6.345   2.528   1.421
 7920TIP3   OH223700   4.867   1.510   4.668
 7920TIP3    H123701   4.820   1.469   4.596
 7920TIP3    H223702   4.798   1.534   4.731
 7921TIP3   OH223703   7.922   5.487   5.377
 7921TIP3    H123704   7.935   5.419   5.311
 7921TIP3    H223705   8.010   5.509   5.407
 7922TIP3   OH223706   1.823   6.071   0.131
 7922TIP3    H123707   1.781   6.030   0.056
 7922TIP3    H223708   1.767   6.145   0.153
 7923TIP3   OH223709   0.240   2.669   4.648
 7923TIP3    H123710   0.156   2.656   4.603
 7923TIP3    H223711   0.241   2.763   4.669
 7924TIP3   OH223712   4.553   5.073   1.080
 7924TIP3    H123713   4.634   5.079   1.131
 7924TIP3    H223714   4.547   4.981   1.055
 7925TIP3   OH223715   0.891   4.739   3.331
 7925TIP3    H123716   0.899   4.823   3.285
 7925TIP3    H223717   0.883   4.763   3.423
 7926TIP3   OH223718   1.290   0.438   4.945
 7926TIP3    H123719   1.380   0.463   4.926
 7926TIP3    H223720   1.298   0.365   5.007
 7927TIP3   OH223721   0.714   3.374   0.056
 7927TIP3    H123722   0.798   3.328   0.064
 7927TIP3    H223723   0.652   3.319   0.105
 7928TIP3   OH223724   8.136   0.071   6.729
 7928TIP3    H123725   8.074   0.135   6.764
 7928TIP3    H223726   8.152   0.099   6.639
 7929TIP3   OH223727   0.996   2.370   2.330
 7929TIP3    H123728   1.073   2.410   2.370
 7929TIP3    H223729   0.953   2.441   2.284
 7930TIP3   OH223730   1.024   7.392   2.744
 7930TIP3    H123731   1.119   7.380   2.741
 7930TIP3    H223732   1.003   7.396   2.837
 7931TIP3   OH223733   5.438   1.287   2.117
 7931TIP3    H123734   5.389   1.349   2.063
 7931TIP3    H223735   5.522   1.277   2.073
 7932TIP3   OH223736   6.615   4.518   1.428
 7932TIP3    H123737   6.560   4.522   1.350
 7932TIP3    H223738   6.558   4.483   1.496
 7933TIP3   OH223739   2.381   4.453   1.021
 7933TIP3    H123740   2.288   4.474   1.028
 7933TIP3    H223741   2.425   4.538   1.018
 7934TIP3   OH223742   3.911   2.287   3.824
 7934TIP3    H123743   3.965   2.213   3.798
 7934TIP3    H223744   3.966   2.364   3.804
 7935TIP3   OH223745   6.813   2.042   1.843
 7935TIP3    H123746   6.735   2.047   1.787
 7935TIP3    H223747   6.882   2.012   1.784
 7936TIP3   OH223748   5.431   3.257   0.650
 7936TIP3    H123749   5.343   3.295   0.649
 7936TIP3    H223750   5.457   3.256   0.558
 7937TIP3   OH223751   1.234   7.168   0.647
 7937TIP3    H123752   1.225   7.176   0.742
 7937TIP3    H223753   1.321   7.204   0.628
 7938TIP3   OH223754   5.367   5.319   1.178
 7938TIP3    H123755   5.297   5.322   1.113
 7938TIP3    H223756   5.372   5.226   1.202
 7939TIP3   OH223757   7.696   2.786   3.470
 7939TIP3    H123758   7.601   2.795   3.473
 7939TIP3    H223759   7.728   2.873   3.448
 7940TIP3   OH223760   1.031   2.236   0.347
 7940TIP3    H123761   1.031   2.314   0.403
 7940TIP3    H223762   0.939   2.218   0.330
 7941TIP3   OH223763   0.060   3.714   6.170
 7941TIP3    H123764   0.064   3.621   6.148
 7941TIP3    H223765  -0.029   3.740   6.148
 7942TIP3   OH223766  -0.009   4.189   5.251
 7942TIP3    H123767   0.078   4.218   5.222
 7942TIP3    H223768  -0.020   4.231   5.336
 7943TIP3   OH223769   0.668   5.882   3.811
 7943TIP3    H123770   0.605   5.915   3.747
 7943TIP3    H223771   0.743   5.941   3.802
 7944TIP3   OH223772   0.974   0.497   2.757
 7944TIP3    H123773   1.004   0.487   2.847
 7944TIP3    H223774   0.878   0.500   2.764
 7945TIP3   OH223775   5.070   6.062   6.610
 7945TIP3    H123776   5.146   6.027   6.658
 7945TIP3    H223777   5.108   6.108   6.535
 7946TIP3   OH223778   7.015   3.891   4.420
 7946TIP3    H123779   7.079   3.918   4.354
 7946TIP3    H223780   6.970   3.972   4.444
 7947TIP3   OH223781   7.693   7.640   2.808
 7947TIP3    H123782   7.687   7.721   2.757
 7947TIP3    H223783   7.621   7.645   2.871
 7948TIP3   OH223784   3.108   6.276   3.666
 7948TIP3    H123785   3.021   6.289   3.629
 7948TIP3    H223786   3.164   6.257   3.591
 7949TIP3   OH223787   5.023   2.694   3.452
 7949TIP3    H123788   4.973   2.677   3.532
 7949TIP3    H223789   5.038   2.788   3.453
 7950TIP3   OH223790   6.142   2.369   2.783
 7950TIP3    H123791   6.191   2.447   2.807
 7950TIP3    H223792   6.051   2.389   2.804
 7951TIP3   OH223793   2.409   0.873   2.463
 7951TIP3    H123794   2.344   0.874   2.392
 7951TIP3    H223795   2.461   0.795   2.446
 7952TIP3   OH223796   4.926   4.189   1.004
 7952TIP3    H123797   5.007   4.228   0.971
 7952TIP3    H223798   4.881   4.260   1.049
 7953TIP3   OH223799   8.155   1.295   5.974
 7953TIP3    H123800   8.089   1.265   6.038
 7953TIP3    H223801   8.103   1.339   5.906
 7954TIP3   OH223802   2.619   5.887   0.914
 7954TIP3    H123803   2.536   5.904   0.958
 7954TIP3    H223804   2.667   5.970   0.921
 7955TIP3   OH223805   5.743   4.921   5.157
 7955TIP3    H123806   5.769   4.987   5.094
 7955TIP3    H223807   5.743   4.967   5.241
 7956TIP3   OH223808   2.572   0.347   0.190
 7956TIP3    H123809   2.493   0.401   0.179
 7956TIP3    H223810   2.600   0.328   0.101
 7957TIP3   OH223811   5.238   7.369   5.665
 7957TIP3    H123812   5.185   7.293   5.689
 7957TIP3    H223813   5.296   7.338   5.596
 7958TIP3   OH223814   1.588   0.480   1.867
 7958TIP3    H123815   1.600   0.454   1.958
 7958TIP3    H223816   1.674   0.510   1.838
 7959TIP3   OH223817   4.945   2.216   2.584
 7959TIP3    H123818   4.902   2.138   2.619
 7959TIP3    H223819   5.038   2.194   2.582
 7960TIP3   OH223820   2.323   6.682   2.530
 7960TIP3    H123821   2.294   6.732   2.454
 7960TIP3    H223822   2.308   6.741   2.604
 7961TIP3   OH223823   4.661   2.251   6.197
 7961TIP3    H123824   4.687   2.174   6.247
 7961TIP3    H223825   4.700   2.238   6.111
 7962TIP3   OH223826   2.926   7.319   2.564
 7962TIP3    H123827   2.831   7.320   2.574
 7962TIP3    H223828   2.958   7.275   2.643
 7963TIP3   OH223829   5.177   5.811   3.322
 7963TIP3    H123830   5.112   5.745   3.345
 7963TIP3    H223831   5.141   5.854   3.244
 7964TIP3   OH223832   0.932   1.933   4.912
 7964TIP3    H123833   0.841   1.907   4.904
 7964TIP3    H223834   0.952   1.975   4.829
 7965TIP3   OH223835   6.113   1.535   6.120
 7965TIP3    H123836   6.022   1.562   6.105
 7965TIP3    H223837   6.107   1.470   6.191
 7966TIP3   OH223838   4.622   1.360   2.591
 7966TIP3    H123839   4.578   1.287   2.549
 7966TIP3    H223840   4.622   1.429   2.525
 7967TIP3   OH223841   5.683   1.377   4.252
 7967TIP3    H123842   5.716   1.371   4.342
 7967TIP3    H223843   5.744   1.437   4.208
 7968TIP3   OH223844   2.831   2.134   3.032
 7968TIP3    H123845   2.856   2.222   3.006
 7968TIP3    H223846   2.822   2.086   2.950
 7969TIP3   OH223847   6.509   4.617   1.164
 7969TIP3    H123848   6.489   4.533   1.122
 7969TIP3    H223849   6.425   4.664   1.165
 7970TIP3   OH223850   6.379   4.024   0.511
 7970TIP3    H123851   6.443   3.975   0.460
 7970TIP3    H223852   6.325   3.957   0.552
 7971TIP3   OH223853   3.521   5.495   1.294
 7971TIP3    H123854   3.493   5.478   1.384
 7971TIP3    H223855   3.581   5.423   1.274
 7972TIP3   OH223856   0.594   5.591   6.354
 7972TIP3    H123857   0.583   5.666   6.413
 7972TIP3    H223858   0.580   5.627   6.266
 7973TIP3   OH223859   4.100   4.571   0.980
 7973TIP3    H123860   4.098   4.642   1.045
 7973TIP3    H223861   4.187   4.533   0.988
 7974TIP3   OH223862   2.383   3.211   0.267
 7974TIP3    H123863   2.365   3.136   0.323
 7974TIP3    H223864   2.459   3.185   0.215
 7975TIP3   OH223865   2.127   3.976   5.371
 7975TIP3    H123866   2.190   4.048   5.372
 7975TIP3    H223867   2.179   3.898   5.392
 7976TIP3   OH223868   4.044   7.650   1.256
 7976TIP3    H123869   4.031   7.597   1.178
 7976TIP3    H223870   4.114   7.605   1.305
 7977TIP3   OH223871   5.093   7.565   5.541
 7977TIP3    H123872   5.170   7.509   5.551
 7977TIP3    H223873   5.077   7.565   5.447
 7978TIP3   OH223874   7.046   0.434   0.136
 7978TIP3    H123875   6.954   0.459   0.133
 7978TIP3    H223876   7.062   0.392   0.051
 7979TIP3   OH223877   0.521   3.656   0.327
 7979TIP3    H123878   0.579   3.667   0.402
 7979TIP3    H223879   0.581   3.641   0.253
 7980TIP3   OH223880   3.426   1.014   4.256
 7980TIP3    H123881   3.393   1.100   4.229
 7980TIP3    H223882   3.520   1.019   4.241
 7981TIP3   OH223883   6.651   2.670   1.655
 7981TIP3    H123884   6.699   2.682   1.573
 7981TIP3    H223885   6.683   2.586   1.689
 7982TIP3   OH223886   4.546   1.616   3.126
 7982TIP3    H123887   4.530   1.703   3.162
 7982TIP3    H223888   4.639   1.614   3.107
 7983TIP3   OH223889   3.061   4.647   0.668
 7983TIP3    H123890   3.133   4.682   0.616
 7983TIP3    H223891   3.023   4.724   0.711
 7984TIP3   OH223892   1.022   6.788   4.603
 7984TIP3    H123893   1.010   6.867   4.549
 7984TIP3    H223894   1.029   6.717   4.539
 7985TIP3   OH223895   3.801   3.040   2.812
 7985TIP3    H123896   3.768   2.999   2.731
 7985TIP3    H223897   3.736   3.016   2.878
 7986TIP3   OH223898   7.625   3.632   0.479
 7986TIP3    H123899   7.593   3.549   0.516
 7986TIP3    H223900   7.547   3.675   0.446
 7987TIP3   OH223901   0.443   2.316   0.517
 7987TIP3    H123902   0.537   2.328   0.506
 7987TIP3    H223903   0.405   2.341   0.433
 7988TIP3   OH223904   4.695   3.516   4.793
 7988TIP3    H123905   4.702   3.520   4.889
 7988TIP3    H223906   4.603   3.532   4.775
 7989TIP3   OH223907   2.136   4.796   0.721
 7989TIP3    H123908   2.100   4.759   0.641
 7989TIP3    H223909   2.084   4.755   0.791
 7990TIP3   OH223910   2.906   1.501   3.263
 7990TIP3    H123911   2.865   1.441   3.200
 7990TIP3    H223912   3.000   1.492   3.248
 7991TIP3   OH223913   7.048   1.328   5.692
 7991TIP3    H123914   7.114   1.396   5.673
 7991TIP3    H223915   7.019   1.299   5.605
 7992TIP3   OH223916   4.350   2.988   2.518
 7992TIP3    H123917   4.297   2.909   2.521
 7992TIP3    H223918   4.435   2.962   2.553
 7993TIP3   OH223919   6.963   3.147   3.315
 7993TIP3    H123920   6.996   3.151   3.225
 7993TIP3    H223921   6.895   3.213   3.319
 7994TIP3   OH223922   7.730   0.941   0.518
 7994TIP3    H123923   7.673   0.903   0.451
 7994TIP3    H223924   7.704   0.898   0.599
 7995TIP3   OH223925   7.266   5.393   2.945
 7995TIP3    H123926   7.285   5.302   2.966
 7995TIP3    H223927   7.246   5.393   2.852
 7996TIP3   OH223928   4.789   3.619   5.320
 7996TIP3    H123929   4.767   3.696   5.373
 7996TIP3    H223930   4.732   3.550   5.353
 7997TIP3   OH223931   2.376   0.161   4.947
 7997TIP3    H123932   2.345   0.086   4.897
 7997TIP3    H223933   2.390   0.229   4.882
 7998TIP3   OH223934   0.465   2.996   2.859
 7998TIP3    H123935   0.551   3.015   2.897
 7998TIP3    H223936   0.455   2.901   2.868
 7999TIP3   OH223937   3.186   0.132   5.311
 7999TIP3    H123938   3.264   0.160   5.358
 7999TIP3    H223939   3.125   0.206   5.317
 8000TIP3   OH223940   5.774   2.074   1.162
 8000TIP3    H123941   5.820   2.006   1.114
 8000TIP3    H223942   5.742   2.134   1.095
 8001TIP3   OH223943   1.845   0.061   1.100
 8001TIP3    H123944   1.906  -0.010   1.078
 8001TIP3    H223945   1.899   0.127   1.143
 8002TIP3   OH223946   2.278   5.665   2.147
 8002TIP3    H123947   2.254   5.752   2.179
 8002TIP3    H223948   2.354   5.679   2.092
 8003TIP3   OH223949   0.470   2.067   3.873
 8003TIP3    H123950   0.402   2.019   3.921
 8003TIP3    H223951   0.546   2.065   3.931
 8004TIP3   OH223952   6.108   1.909   3.721
 8004TIP3    H123953   6.166   1.935   3.649
 8004TIP3    H223954   6.020   1.928   3.689
 8005TIP3   OH223955   3.748   7.072   5.230
 8005TIP3    H123956   3.820   7.012   5.207
 8005TIP3    H223957   3.785   7.159   5.219
 8006TIP3   OH223958   1.944   6.749   0.041
 8006TIP3    H123959   1.894   6.674   0.073
 8006TIP3    H223960   1.921   6.755  -0.051
 8007TIP3   OH223961   4.281   4.733   2.572
 8007TIP3    H123962   4.265   4.806   2.513
 8007TIP3    H223963   4.372   4.743   2.599
 8008TIP3   OH223964   5.315  -0.012   6.609
 8008TIP3    H123965   5.266  -0.004   6.691
 8008TIP3    H223966   5.258   0.028   6.543
 8009TIP3   OH223967   2.489   2.460   3.186
 8009TIP3    H123968   2.406   2.459   3.233
 8009TIP3    H223969   2.523   2.371   3.195
 8010TIP3   OH223970   7.624   6.029   1.573
 8010TIP3    H123971   7.709   6.005   1.537
 8010TIP3    H223972   7.644   6.096   1.639
 8011TIP3   OH223973   3.291   0.219   6.755
 8011TIP3    H123974   3.209   0.181   6.785
 8011TIP3    H223975   3.274   0.313   6.754
 8012TIP3   OH223976   3.924   1.289   1.092
 8012TIP3    H123977   3.858   1.335   1.144
 8012TIP3    H223978   3.893   1.199   1.087
 8013TIP3   OH223979   4.074   2.859   5.773
 8013TIP3    H123980   4.044   2.903   5.852
 8013TIP3    H223981   4.040   2.912   5.701
 8014TIP3   OH223982   1.067   3.438   5.013
 8014TIP3    H123983   1.099   3.429   4.923
 8014TIP3    H223984   1.029   3.526   5.017
 8015TIP3   OH223985   1.375   1.437   1.042
 8015TIP3    H123986   1.324   1.400   0.970
 8015TIP3    H223987   1.380   1.531   1.022
 8016TIP3   OH223988   5.700   0.811   2.189
 8016TIP3    H123989   5.768   0.875   2.166
 8016TIP3    H223990   5.682   0.829   2.281
 8017TIP3   OH223991   5.818   3.269   2.320
 8017TIP3    H123992   5.797   3.247   2.411
 8017TIP3    H223993   5.734   3.288   2.279
 8018TIP3   OH223994   6.024   4.203   3.434
 8018TIP3    H123995   6.071   4.283   3.411
 8018TIP3    H223996   5.985   4.173   3.352
 8019TIP3   OH223997   1.833   3.965   0.429
 8019TIP3    H123998   1.834   3.891   0.369
 8019TIP3    H223999   1.745   3.964   0.467
 8020TIP3   OH224000   2.047   6.755   3.424
 8020TIP3    H124001   2.064   6.823   3.359
 8020TIP3    H224002   1.996   6.689   3.377
 8021TIP3   OH224003   1.492   0.744   4.841
 8021TIP3    H124004   1.551   0.819   4.848
 8021TIP3    H224005   1.404   0.782   4.839
 8022TIP3   OH224006   4.216   4.139   0.436
 8022TIP3    H124007   4.226   4.045   0.447
 8022TIP3    H224008   4.277   4.162   0.366
 8023TIP3   OH224009   7.851   0.256   2.212
 8023TIP3    H124010   7.795   0.179   2.221
 8023TIP3    H224011   7.906   0.238   2.136
 8024TIP3   OH224012   7.417   6.024   3.568
 8024TIP3    H124013   7.498   6.018   3.517
 8024TIP3    H224014   7.418   6.112   3.604
 8025TIP3   OH224015   3.259   6.038   0.342
 8025TIP3    H124016   3.204   5.996   0.408
 8025TIP3    H224017   3.197   6.084   0.285
 8026TIP3   OH224018   7.781   6.409   1.043
 8026TIP3    H124019   7.749   6.337   0.989
 8026TIP3    H224020   7.709   6.428   1.103
 8027TIP3   OH224021   7.373   7.583   0.950
 8027TIP3    H124022   7.335   7.650   0.892
 8027TIP3    H224023   7.462   7.571   0.917
 8028TIP3   OH224024   4.540   2.689   4.305
 8028TIP3    H124025   4.478   2.617   4.317
 8028TIP3    H224026   4.485   2.763   4.279
 8029TIP3   OH224027   0.599   6.695   0.772
 8029TIP3    H124028   0.522   6.681   0.718
 8029TIP3    H224029   0.633   6.781   0.744
 8030TIP3   OH224030   3.918   6.716   2.139
 8030TIP3    H124031   3.891   6.632   2.177
 8030TIP3    H224032   3.844   6.743   2.086
 8031TIP3   OH224033   0.401   0.766   1.537
 8031TIP3    H124034   0.392   0.681   1.494
 8031TIP3    H224035   0.380   0.748   1.629
 8032TIP3   OH224036   4.609   6.753   1.790
 8032TIP3    H124037   4.667   6.731   1.717
 8032TIP3    H224038   4.612   6.849   1.796
 8033TIP3   OH224039   5.022   0.265   5.585
 8033TIP3    H124040   4.969   0.190   5.558
 8033TIP3    H224041   5.099   0.226   5.627
 8034TIP3   OH224042   1.097   7.439   0.437
 8034TIP3    H124043   1.072   7.347   0.438
 8034TIP3    H224044   1.133   7.453   0.349
 8035TIP3   OH224045   2.014   5.202   6.607
 8035TIP3    H124046   2.058   5.122   6.579
 8035TIP3    H224047   1.922   5.177   6.614
 8036TIP3   OH224048   4.279   0.950  -0.002
 8036TIP3    H124049   4.190   0.961   0.032
 8036TIP3    H224050   4.314   1.039  -0.009
 8037TIP3   OH224051   0.064   5.058   6.083
 8037TIP3    H124052   0.106   5.092   6.163
 8037TIP3    H224053   0.088   4.965   6.082
 8038TIP3   OH224054   4.207   3.912   3.390
 8038TIP3    H124055   4.172   3.845   3.332
 8038TIP3    H224056   4.138   3.926   3.455
 8039TIP3   OH224057   8.208   3.705   6.053
 8039TIP3    H124058   8.228   3.687   5.961
 8039TIP3    H224059   8.172   3.623   6.086
 8040TIP3   OH224060   5.062   3.352   6.480
 8040TIP3    H124061   5.071   3.417   6.410
 8040TIP3    H224062   4.967   3.343   6.492
 8041TIP3   OH224063   6.434   5.500   5.292
 8041TIP3    H124064   6.449   5.410   5.323
 8041TIP3    H224065   6.517   5.526   5.253
 8042TIP3   OH224066   4.946   5.585   3.264
 8042TIP3    H124067   4.885   5.518   3.297
 8042TIP3    H224068   4.893   5.665   3.260
 8043TIP3   OH224069   0.352   0.482   5.458
 8043TIP3    H124070   0.276   0.488   5.400
 8043TIP3    H224071   0.317   0.505   5.545
 8044TIP3   OH224072   7.424   6.306   3.656
 8044TIP3    H124073   7.373   6.358   3.717
 8044TIP3    H224074   7.427   6.358   3.576
 8045TIP3   OH224075   5.944   2.323   1.391
 8045TIP3    H124076   5.864   2.365   1.358
 8045TIP3    H224077   5.914   2.239   1.426
 8046TIP3   OH224078   0.097   5.004   3.570
 8046TIP3    H124079   0.148   5.053   3.505
 8046TIP3    H224080   0.019   4.976   3.523
 8047TIP3   OH224081   7.599   5.298   0.254
 8047TIP3    H124082   7.660   5.224   0.261
 8047TIP3    H224083   7.655   5.373   0.238
 8048TIP3   OH224084   1.027   7.593   6.859
 8048TIP3    H124085   1.065   7.551   6.782
 8048TIP3    H224086   1.091   7.659   6.884
 8049TIP3   OH224087   1.985   2.809   2.952
 8049TIP3    H124088   1.937   2.845   3.027
 8049TIP3    H224089   2.028   2.884   2.912
 8050TIP3   OH224090   1.431   2.381   6.157
 8050TIP3    H124091   1.403   2.422   6.075
 8050TIP3    H224092   1.350   2.376   6.209
 8051TIP3   OH224093   1.426   7.541   3.610
 8051TIP3    H124094   1.493   7.576   3.551
 8051TIP3    H224095   1.438   7.588   3.692
 8052TIP3   OH224096   0.954   0.175   0.094
 8052TIP3    H124097   0.883   0.235   0.116
 8052TIP3    H224098   1.004   0.165   0.175
 8053TIP3   OH224099   3.693   6.238   0.833
 8053TIP3    H124100   3.747   6.274   0.763
 8053TIP3    H224101   3.735   6.155   0.855
 8054TIP3   OH224102   6.982   6.548   5.791
 8054TIP3    H124103   6.974   6.636   5.827
 8054TIP3    H224104   6.896   6.508   5.803
 8055TIP3   OH224105   6.395   4.077   1.033
 8055TIP3    H124106   6.320   4.039   1.078
 8055TIP3    H224107   6.467   4.017   1.052
 8056TIP3   OH224108   4.330   5.194   0.966
 8056TIP3    H124109   4.341   5.276   1.013
 8056TIP3    H224110   4.376   5.129   1.019
 8057TIP3   OH224111   4.187   0.817   0.626
 8057TIP3    H124112   4.222   0.906   0.628
 8057TIP3    H224113   4.264   0.762   0.611
 8058TIP3   OH224114   5.130   5.299   1.486
 8058TIP3    H124115   5.163   5.369   1.431
 8058TIP3    H224116   5.064   5.255   1.433
 8059TIP3   OH224117   8.286   0.435   6.213
 8059TIP3    H124118   8.319   0.411   6.126
 8059TIP3    H224119   8.366   0.451   6.264
 8060TIP3   OH224120   7.707   5.865   2.463
 8060TIP3    H124121   7.691   5.854   2.557
 8060TIP3    H224122   7.673   5.952   2.443
 8061TIP3   OH224123   4.323   6.793   4.157
 8061TIP3    H124124   4.383   6.835   4.219
 8061TIP3    H224125   4.287   6.866   4.107
 8062TIP3   OH224126   3.300   4.428   0.353
 8062TIP3    H124127   3.263   4.366   0.416
 8062TIP3    H224128   3.358   4.374   0.298
 8063TIP3   OH224129   3.533   4.131   1.363
 8063TIP3    H124130   3.526   4.038   1.385
 8063TIP3    H224131   3.597   4.134   1.291
 8064TIP3   OH224132   2.040   7.161   4.422
 8064TIP3    H124133   2.120   7.135   4.467
 8064TIP3    H224134   1.972   7.103   4.457
 8065TIP3   OH224135   7.077   0.325   3.279
 8065TIP3    H124136   7.074   0.416   3.248
 8065TIP3    H224137   6.985   0.297   3.278
 8066TIP3   OH224138   5.288   3.190   3.072
 8066TIP3    H124139   5.362   3.250   3.077
 8066TIP3    H224140   5.305   3.136   2.995
 8067TIP3   OH224141   5.911   7.009   3.351
 8067TIP3    H124142   5.965   6.962   3.414
 8067TIP3    H224143   5.933   7.101   3.364
 8068TIP3   OH224144   1.723   1.252   4.327
 8068TIP3    H124145   1.687   1.163   4.324
 8068TIP3    H224146   1.809   1.244   4.287
 8069TIP3   OH224147   4.833   2.969   2.652
 8069TIP3    H124148   4.901   2.913   2.689
 8069TIP3    H224149   4.863   2.988   2.563
 8070TIP3   OH224150   6.251   6.269   1.293
 8070TIP3    H124151   6.271   6.189   1.341
 8070TIP3    H224152   6.259   6.245   1.200
 8071TIP3   OH224153   2.644   5.197   3.337
 8071TIP3    H124154   2.734   5.173   3.361
 8071TIP3    H224155   2.654   5.273   3.280
 8072TIP3   OH224156   1.498   2.585   0.096
 8072TIP3    H124157   1.531   2.511   0.045
 8072TIP3    H224158   1.438   2.545   0.159
 8073TIP3   OH224159   7.187   0.839   4.520
 8073TIP3    H124160   7.109   0.860   4.572
 8073TIP3    H224161   7.258   0.834   4.583
 8074TIP3   OH224162   7.891   6.127   0.762
 8074TIP3    H124163   7.860   6.057   0.703
 8074TIP3    H224164   7.815   6.183   0.775
 8075TIP3   OH224165   8.184   2.081   5.010
 8075TIP3    H124166   8.271   2.098   5.047
 8075TIP3    H224167   8.153   2.005   5.059
 8076TIP3   OH224168   6.673   3.296   6.649
 8076TIP3    H124169   6.657   3.338   6.734
 8076TIP3    H224170   6.588   3.258   6.626
 8077TIP3   OH224171   1.089   4.126   3.526
 8077TIP3    H124172   1.017   4.073   3.492
 8077TIP3    H224173   1.049   4.209   3.550
 8078TIP3   OH224174   6.922   1.064   5.997
 8078TIP3    H124175   6.985   0.992   5.993
 8078TIP3    H224176   6.971   1.136   6.038
 8079TIP3   OH224177   0.316   4.005   1.510
 8079TIP3    H124178   0.403   4.022   1.547
 8079TIP3    H224179   0.328   3.928   1.455
 8080TIP3   OH224180   1.900   1.980   6.366
 8080TIP3    H124181   1.926   1.946   6.452
 8080TIP3    H224182   1.946   1.924   6.304
 8081TIP3   OH224183   5.196   5.450   0.170
 8081TIP3    H124184   5.168   5.461   0.261
 8081TIP3    H224185   5.261   5.519   0.157
 8082TIP3   OH224186   0.943   6.971   1.108
 8082TIP3    H124187   0.915   7.017   1.187
 8082TIP3    H224188   0.966   7.040   1.047
 8083TIP3   OH224189   7.180   3.529   5.126
 8083TIP3    H124190   7.107   3.567   5.176
 8083TIP3    H224191   7.207   3.599   5.067
 8084TIP3   OH224192   6.724   5.446   2.738
 8084TIP3    H124193   6.671   5.388   2.684
 8084TIP3    H224194   6.730   5.527   2.687
 8085TIP3   OH224195   4.584   3.372   6.418
 8085TIP3    H124196   4.511   3.433   6.425
 8085TIP3    H224197   4.642   3.412   6.353
 8086TIP3   OH224198   4.813   3.383   5.973
 8086TIP3    H124199   4.804   3.301   5.925
 8086TIP3    H224200   4.877   3.433   5.922
 8087TIP3   OH224201   7.787   7.094   2.234
 8087TIP3    H124202   7.763   7.003   2.214
 8087TIP3    H224203   7.841   7.121   2.160
 8088TIP3   OH224204   5.983   1.133   3.876
 8088TIP3    H124205   5.974   1.155   3.969
 8088TIP3    H224206   6.038   1.202   3.840
 8089TIP3   OH224207   0.815   1.689   5.332
 8089TIP3    H124208   0.850   1.605   5.361
 8089TIP3    H224209   0.882   1.724   5.273
 8090TIP3   OH224210   5.993   2.876   3.824
 8090TIP3    H124211   5.983   2.948   3.886
 8090TIP3    H224212   5.950   2.906   3.744
 8091TIP3   OH224213   7.820   6.042   2.150
 8091TIP3    H124214   7.892   6.019   2.091
 8091TIP3    H224215   7.808   6.136   2.138
 8092TIP3   OH224216   7.291   4.486   6.594
 8092TIP3    H124217   7.232   4.417   6.566
 8092TIP3    H224218   7.247   4.525   6.670
 8093TIP3   OH224219   5.838   7.842   2.292
 8093TIP3    H124220   5.750   7.812   2.270
 8093TIP3    H224221   5.824   7.929   2.329
 8094TIP3   OH224222   5.694   5.518   6.105
 8094TIP3    H124223   5.657   5.433   6.129
 8094TIP3    H224224   5.782   5.498   6.074
 8095TIP3   OH224225   2.909   5.589   4.811
 8095TIP3    H124226   2.930   5.671   4.765
 8095TIP3    H224227   2.814   5.591   4.822
 8096TIP3   OH224228   7.850   3.812   0.897
 8096TIP3    H124229   7.846   3.762   0.816
 8096TIP3    H224230   7.883   3.898   0.871
 8097TIP3   OH224231   5.941   3.369   5.932
 8097TIP3    H124232   5.987   3.364   6.016
 8097TIP3    H224233   6.007   3.347   5.867
 8098TIP3   OH224234   4.469   4.823   2.221
 8098TIP3    H124235   4.559   4.847   2.239
 8098TIP3    H224236   4.469   4.728   2.216
 8099TIP3   OH224237   1.511   1.688   4.958
 8099TIP3    H124238   1.474   1.600   4.970
 8099TIP3    H224239   1.583   1.692   5.021
 8100TIP3   OH224240   1.207   6.661   0.060
 8100TIP3    H124241   1.197   6.749   0.023
 8100TIP3    H224242   1.241   6.608  -0.011
 8101TIP3   OH224243   0.808   4.578   6.849
 8101TIP3    H124244   0.850   4.496   6.821
 8101TIP3    H224245   0.719   4.571   6.816
 8102TIP3   OH224246   5.884   6.519   4.760
 8102TIP3    H124247   5.881   6.576   4.837
 8102TIP3    H224248   5.794   6.488   4.750
 8103TIP3   OH224249   2.302   3.303   3.231
 8103TIP3    H124250   2.376   3.270   3.180
 8103TIP3    H224251   2.313   3.266   3.318
 8104TIP3   OH224252   1.300   2.184   0.237
 8104TIP3    H124253   1.327   2.276   0.234
 8104TIP3    H224254   1.222   2.184   0.292
 8105TIP3   OH224255   1.853   1.052   6.525
 8105TIP3    H124256   1.766   1.012   6.516
 8105TIP3    H224257   1.863   1.105   6.446
 8106TIP3   OH224258   3.824   7.505   4.078
 8106TIP3    H124259   3.906   7.522   4.033
 8106TIP3    H224260   3.834   7.417   4.114
 8107TIP3   OH224261   8.338   0.730   5.971
 8107TIP3    H124262   8.349   0.639   5.944
 8107TIP3    H224263   8.298   0.725   6.058
 8108TIP3   OH224264   1.408   3.399   0.876
 8108TIP3    H124265   1.351   3.326   0.851
 8108TIP3    H224266   1.441   3.374   0.963
 8109TIP3   OH224267   4.227   5.533   1.616
 8109TIP3    H124268   4.313   5.575   1.612
 8109TIP3    H224269   4.212   5.500   1.528
 8110TIP3   OH224270   4.105   0.629   3.969
 8110TIP3    H124271   4.085   0.632   3.875
 8110TIP3    H224272   4.198   0.607   3.972
 8111TIP3   OH224273   5.960   2.055   5.098
 8111TIP3    H124274   5.923   2.029   5.013
 8111TIP3    H224275   6.027   2.120   5.076
 8112TIP3   OH224276   7.081   7.570   4.685
 8112TIP3    H124277   7.152   7.589   4.623
 8112TIP3    H224278   7.090   7.636   4.753
 8113TIP3   OH224279   1.149   5.189   1.404
 8113TIP3    H124280   1.071   5.187   1.349
 8113TIP3    H224281   1.189   5.103   1.393
 8114TIP3   OH224282   5.308   3.371   5.243
 8114TIP3    H124283   5.260   3.399   5.320
 8114TIP3    H224284   5.321   3.277   5.256
 8115TIP3   OH224285   5.403   4.606   3.641
 8115TIP3    H124286   5.397   4.544   3.568
 8115TIP3    H224287   5.365   4.687   3.607
 8116TIP3   OH224288   5.105   0.066   6.453
 8116TIP3    H124289   5.099   0.104   6.365
 8116TIP3    H224290   5.120   0.142   6.510
 8117TIP3   OH224291   1.051   7.072   2.577
 8117TIP3    H124292   1.036   7.064   2.483
 8117TIP3    H224293   1.129   7.129   2.584
 8118TIP3   OH224294   4.708   3.816   2.560
 8118TIP3    H124295   4.739   3.730   2.531
 8118TIP3    H224296   4.741   3.824   2.650
 8119TIP3   OH224297   7.599   2.506   1.907
 8119TIP3    H124298   7.508   2.498   1.935
 8119TIP3    H224299   7.630   2.416   1.897
 8120TIP3   OH224300   7.304   5.681   4.804
 8120TIP3    H124301   7.373   5.719   4.859
 8120TIP3    H224302   7.227   5.681   4.860
 8121TIP3   OH224303   1.935   7.400   2.018
 8121TIP3    H124304   1.879   7.367   2.089
 8121TIP3    H224305   2.020   7.412   2.059
 8122TIP3   OH224306   4.608   2.879   6.670
 8122TIP3    H124307   4.604   2.974   6.683
 8122TIP3    H224308   4.539   2.845   6.727
 8123TIP3   OH224309   5.390   2.050   1.784
 8123TIP3    H124310   5.398   2.048   1.689
 8123TIP3    H224311   5.472   2.089   1.814
 8124TIP3   OH224312   2.003   5.590   4.476
 8124TIP3    H124313   2.093   5.620   4.491
 8124TIP3    H224314   1.989   5.523   4.543
 8125TIP3   OH224315   3.297   7.266   5.873
 8125TIP3    H124316   3.336   7.342   5.918
 8125TIP3    H224317   3.372   7.223   5.830
 8126TIP3   OH224318   7.966   3.579   0.954
 8126TIP3    H124319   7.883   3.532   0.956
 8126TIP3    H224320   7.942   3.671   0.946
 8127TIP3   OH224321   3.100   6.834   6.212
 8127TIP3    H124322   3.130   6.806   6.298
 8127TIP3    H224323   3.081   6.752   6.166
 8128TIP3   OH224324   4.193   5.782   0.425
 8128TIP3    H124325   4.273   5.768   0.376
 8128TIP3    H224326   4.189   5.876   0.439
 8129TIP3   OH224327   7.905   2.411   1.435
 8129TIP3    H124328   7.847   2.486   1.453
 8129TIP3    H224329   7.991   2.440   1.464
 8130TIP3   OH224330   1.470   4.003   4.978
 8130TIP3    H124331   1.374   4.005   4.972
 8130TIP3    H224332   1.494   4.093   5.004
 8131TIP3   OH224333   6.789   3.905   0.529
 8131TIP3    H124334   6.854   3.974   0.533
 8131TIP3    H224335   6.764   3.901   0.436
 8132TIP3   OH224336   7.477   6.618   3.987
 8132TIP3    H124337   7.533   6.640   4.062
 8132TIP3    H224338   7.404   6.569   4.025
 8133TIP3   OH224339   4.688   6.109   1.140
 8133TIP3    H124340   4.766   6.054   1.151
 8133TIP3    H224341   4.629   6.057   1.086
 8134TIP3   OH224342   6.064   7.824   1.011
 8134TIP3    H124343   6.119   7.829   1.089
 8134TIP3    H224344   5.979   7.796   1.043
 8135TIP3   OH224345   3.946   4.969   5.412
 8135TIP3    H124346   4.034   4.964   5.450
 8135TIP3    H224347   3.919   4.877   5.402
 8136TIP3   OH224348   1.099   3.225   6.723
 8136TIP3    H124349   1.058   3.138   6.715
 8136TIP3    H224350   1.138   3.226   6.810
 8137TIP3   OH224351   5.583   2.287   1.040
 8137TIP3    H124352   5.589   2.254   0.951
 8137TIP3    H224353   5.539   2.372   1.032
 8138TIP3   OH224354   4.157   3.273   0.677
 8138TIP3    H124355   4.204   3.354   0.699
 8138TIP3    H224356   4.088   3.300   0.617
 8139TIP3   OH224357   4.632   1.435   5.668
 8139TIP3    H124358   4.604   1.463   5.755
 8139TIP3    H224359   4.687   1.358   5.683
 8140TIP3   OH224360   7.637   3.828   3.067
 8140TIP3    H124361   7.583   3.750   3.055
 8140TIP3    H224362   7.615   3.860   3.154
 8141TIP3   OH224363   4.090   1.096   1.897
 8141TIP3    H124364   4.035   1.038   1.843
 8141TIP3    H224365   4.159   1.126   1.838
 8142TIP3   OH224366   3.510   3.616   5.672
 8142TIP3    H124367   3.484   3.539   5.722
 8142TIP3    H224368   3.444   3.623   5.603
 8143TIP3   OH224369   2.373   2.787   4.168
 8143TIP3    H124370   2.415   2.764   4.085
 8143TIP3    H224371   2.420   2.736   4.234
 8144TIP3   OH224372   0.212   2.751   2.211
 8144TIP3    H124373   0.272   2.712   2.275
 8144TIP3    H224374   0.228   2.845   2.218
 8145TIP3   OH224375   7.578   3.175   2.430
 8145TIP3    H124376   7.502   3.130   2.393
 8145TIP3    H224377   7.624   3.211   2.354
 8146TIP3   OH224378   4.839   2.399   2.314
 8146TIP3    H124379   4.881   2.450   2.384
 8146TIP3    H224380   4.887   2.316   2.312
 8147TIP3   OH224381   1.057   1.943   0.387
 8147TIP3    H124382   1.085   1.888   0.313
 8147TIP3    H224383   1.055   2.031   0.351
 8148TIP3   OH224384   4.601   7.713   5.184
 8148TIP3    H124385   4.605   7.801   5.221
 8148TIP3    H224386   4.675   7.666   5.223
 8149TIP3   OH224387   4.512   7.611   2.922
 8149TIP3    H124388   4.438   7.585   2.867
 8149TIP3    H224389   4.589   7.584   2.873
 8150TIP3   OH224390   5.099   1.992   0.341
 8150TIP3    H124391   5.007   2.007   0.362
 8150TIP3    H224392   5.140   1.977   0.426
 8151TIP3   OH224393   0.542   6.978   1.039
 8151TIP3    H124394   0.526   7.063   1.081
 8151TIP3    H224395   0.521   6.993   0.946
 8152TIP3   OH224396   2.564   5.501   4.071
 8152TIP3    H124397   2.536   5.468   3.986
 8152TIP3    H224398   2.505   5.460   4.134
 8153TIP3   OH224399   7.646   4.289   5.071
 8153TIP3    H124400   7.661   4.195   5.057
 8153TIP3    H224401   7.731   4.323   5.099
 8154TIP3   OH224402   7.954   4.364   0.926
 8154TIP3    H124403   7.929   4.364   1.019
 8154TIP3    H224404   8.002   4.282   0.914
 8155TIP3   OH224405   0.340   2.969   5.180
 8155TIP3    H124406   0.329   2.885   5.225
 8155TIP3    H224407   0.295   3.032   5.237
 8156TIP3   OH224408   7.112   6.278   1.035
 8156TIP3    H124409   7.139   6.288   1.126
 8156TIP3    H224410   7.147   6.193   1.009
 8157TIP3   OH224411   1.060   6.947   6.373
 8157TIP3    H124412   1.079   6.971   6.464
 8157TIP3    H224413   0.978   6.993   6.353
 8158TIP3   OH224414   5.565   1.744   3.408
 8158TIP3    H124415   5.524   1.812   3.461
 8158TIP3    H224416   5.554   1.663   3.458
 8159TIP3   OH224417   7.549   7.096   6.569
 8159TIP3    H124418   7.488   7.048   6.513
 8159TIP3    H224419   7.543   7.053   6.654
 8160TIP3   OH224420   5.668   1.703   3.839
 8160TIP3    H124421   5.630   1.768   3.781
 8160TIP3    H224422   5.594   1.671   3.891
 8161TIP3   OH224423   3.117   1.533   4.598
 8161TIP3    H124424   3.036   1.530   4.548
 8161TIP3    H224425   3.116   1.619   4.640
 8162TIP3   OH224426   5.426   1.973   2.732
 8162TIP3    H124427   5.458   2.063   2.741
 8162TIP3    H224428   5.336   1.976   2.766
 8163TIP3   OH224429   3.075   6.189   0.203
 8163TIP3    H124430   3.092   6.191   0.109
 8163TIP3    H224431   2.980   6.177   0.210
 8164TIP3   OH224432   5.321   5.825   5.133
 8164TIP3    H124433   5.349   5.820   5.042
 8164TIP3    H224434   5.286   5.737   5.152
 8165TIP3   OH224435   6.313   1.148   3.486
 8165TIP3    H124436   6.405   1.174   3.492
 8165TIP3    H224437   6.264   1.229   3.499
 8166TIP3   OH224438   2.102   5.563   4.054
 8166TIP3    H124439   2.080   5.484   4.104
 8166TIP3    H224440   2.086   5.538   3.963
 8167TIP3   OH224441   0.380   1.105   1.891
 8167TIP3    H124442   0.368   1.073   1.802
 8167TIP3    H224443   0.371   1.027   1.946
 8168TIP3   OH224444   6.093   1.706   0.231
 8168TIP3    H124445   6.188   1.693   0.232
 8168TIP3    H224446   6.060   1.638   0.290
 8169TIP3   OH224447   6.639   6.339   1.700
 8169TIP3    H124448   6.640   6.354   1.605
 8169TIP3    H224449   6.661   6.425   1.737
 8170TIP3   OH224450   0.465   0.227   5.355
 8170TIP3    H124451   0.445   0.316   5.384
 8170TIP3    H224452   0.393   0.205   5.295
 8171TIP3   OH224453   5.356   5.474   4.905
 8171TIP3    H124454   5.397   5.552   4.867
 8171TIP3    H224455   5.264   5.498   4.913
 8172TIP3   OH224456   7.027   4.175   5.760
 8172TIP3    H124457   6.932   4.169   5.772
 8172TIP3    H224458   7.060   4.088   5.779
 8173TIP3   OH224459   1.924   3.865   5.246
 8173TIP3    H124460   1.986   3.918   5.296
 8173TIP3    H224461   1.861   3.928   5.210
 8174TIP3   OH224462   3.565   4.125   0.503
 8174TIP3    H124463   3.507   4.118   0.427
 8174TIP3    H224464   3.613   4.207   0.489
 8175TIP3   OH224465   7.498   5.254   1.087
 8175TIP3    H124466   7.441   5.261   1.011
 8175TIP3    H224467   7.444   5.284   1.160
 8176TIP3   OH224468   4.143   3.269   1.575
 8176TIP3    H124469   4.139   3.207   1.502
 8176TIP3    H224470   4.054   3.304   1.581
 8177TIP3   OH224471   7.925   0.282   4.471
 8177TIP3    H124472   7.949   0.303   4.381
 8177TIP3    H224473   7.972   0.201   4.491
 8178TIP3   OH224474   4.831   0.056   6.242
 8178TIP3    H124475   4.748   0.039   6.286
 8178TIP3    H224476   4.824   0.146   6.210
 8179TIP3   OH224477   3.181   4.259   6.536
 8179TIP3    H124478   3.159   4.337   6.586
 8179TIP3    H224479   3.203   4.193   6.602
 8180TIP3   OH224480   5.823   3.128   5.565
 8180TIP3    H124481   5.878   3.064   5.521
 8180TIP3    H224482   5.859   3.134   5.654
 8181TIP3   OH224483   7.060   1.465   3.595
 8181TIP3    H124484   7.134   1.492   3.541
 8181TIP3    H224485   7.047   1.537   3.656
 8182TIP3   OH224486   8.018   4.638   1.358
 8182TIP3    H124487   8.089   4.588   1.398
 8182TIP3    H224488   8.021   4.724   1.399
 8183TIP3   OH224489   6.935   5.887   4.230
 8183TIP3    H124490   7.021   5.923   4.207
 8183TIP3    H224491   6.950   5.840   4.312
 8184TIP3   OH224492   3.086   4.604   4.177
 8184TIP3    H124493   3.013   4.587   4.237
 8184TIP3    H224494   3.163   4.569   4.222
 8185TIP3   OH224495   4.594   4.890   2.801
 8185TIP3    H124496   4.553   4.804   2.796
 8185TIP3    H224497   4.675   4.874   2.849
 8186TIP3   OH224498   2.595   0.982   5.549
 8186TIP3    H124499   2.570   0.932   5.627
 8186TIP3    H224500   2.688   1.003   5.563
 8187TIP3   OH224501   4.010   2.903   1.729
 8187TIP3    H124502   4.057   2.898   1.812
 8187TIP3    H224503   3.983   2.812   1.711
 8188TIP3   OH224504   4.435   4.545   3.257
 8188TIP3    H124505   4.474   4.459   3.274
 8188TIP3    H224506   4.505   4.607   3.278
 8189TIP3   OH224507   4.747   2.897   5.759
 8189TIP3    H124508   4.809   2.922   5.691
 8189TIP3    H224509   4.665   2.879   5.712
 8190TIP3   OH224510   5.330   4.200   4.943
 8190TIP3    H124511   5.358   4.117   4.904
 8190TIP3    H224512   5.384   4.208   5.022
 8191TIP3   OH224513   5.445   1.153   1.214
 8191TIP3    H124514   5.531   1.126   1.246
 8191TIP3    H224515   5.420   1.085   1.151
 8192TIP3   OH224516   0.006   6.259   0.247
 8192TIP3    H124517  -0.020   6.296   0.163
 8192TIP3    H224518   0.047   6.332   0.294
 8193TIP3   OH224519   5.484   7.432   3.988
 8193TIP3    H124520   5.432   7.493   3.936
 8193TIP3    H224521   5.524   7.486   4.056
 8194TIP3   OH224522   8.185   1.287   0.934
 8194TIP3    H124523   8.274   1.287   0.901
 8194TIP3    H224524   8.184   1.356   1.000
 8195TIP3   OH224525   8.199   3.513   3.313
 8195TIP3    H124526   8.146   3.485   3.239
 8195TIP3    H224527   8.219   3.433   3.361
 8196TIP3   OH224528   2.883   5.552   2.961
 8196TIP3    H124529   2.921   5.543   3.048
 8196TIP3    H224530   2.819   5.482   2.955
 8197TIP3   OH224531   4.138   3.830   0.791
 8197TIP3    H124532   4.218   3.877   0.769
 8197TIP3    H224533   4.104   3.875   0.869
 8198TIP3   OH224534   6.467   0.142   0.147
 8198TIP3    H124535   6.434   0.120   0.234
 8198TIP3    H224536   6.390   0.176   0.100
 8199TIP3   OH224537   5.567   6.445   3.887
 8199TIP3    H124538   5.641   6.502   3.911
 8199TIP3    H224539   5.509   6.501   3.835
 8200TIP3   OH224540   8.263   3.317   6.499
 8200TIP3    H124541   8.314   3.239   6.523
 8200TIP3    H224542   8.317   3.361   6.434
 8201TIP3   OH224543   6.832   2.599   6.519
 8201TIP3    H124544   6.875   2.640   6.444
 8201TIP3    H224545   6.891   2.616   6.593
 8202TIP3   OH224546   1.061   6.629   5.319
 8202TIP3    H124547   1.120   6.672   5.381
 8202TIP3    H224548   1.102   6.640   5.234
 8203TIP3   OH224549   1.795   5.272   2.970
 8203TIP3    H124550   1.874   5.224   2.945
 8203TIP3    H224551   1.724   5.209   2.958
 8204TIP3   OH224552   2.855   6.163   2.002
 8204TIP3    H124553   2.939   6.171   1.957
 8204TIP3    H224554   2.800   6.114   1.941
 8205TIP3   OH224555   1.084   2.385   1.683
 8205TIP3    H124556   1.130   2.462   1.715
 8205TIP3    H224557   1.117   2.313   1.738
 8206TIP3   OH224558   7.173   5.350   4.227
 8206TIP3    H124559   7.234   5.405   4.177
 8206TIP3    H224560   7.099   5.338   4.167
 8207TIP3   OH224561   0.670   6.531   6.495
 8207TIP3    H124562   0.606   6.466   6.524
 8207TIP3    H224563   0.701   6.499   6.411
 8208TIP3   OH224564   3.779   7.151   2.022
 8208TIP3    H124565   3.871   7.127   2.007
 8208TIP3    H224566   3.742   7.158   1.934
 8209TIP3   OH224567   5.297   0.388   3.723
 8209TIP3    H124568   5.270   0.391   3.815
 8209TIP3    H224569   5.298   0.480   3.695
 8210TIP3   OH224570   3.691   5.393   4.718
 8210TIP3    H124571   3.631   5.345   4.775
 8210TIP3    H224572   3.703   5.477   4.762
 8211TIP3   OH224573   7.989   0.562   6.797
 8211TIP3    H124574   8.004   0.638   6.853
 8211TIP3    H224575   7.934   0.503   6.850
 8212TIP3   OH224576   6.818   1.319   5.824
 8212TIP3    H124577   6.896   1.372   5.811
 8212TIP3    H224578   6.850   1.230   5.831
 8213TIP3   OH224579   1.749   4.465   3.461
 8213TIP3    H124580   1.759   4.423   3.376
 8213TIP3    H224581   1.808   4.540   3.458
 8214TIP3   OH224582   6.908   1.172   5.236
 8214TIP3    H124583   6.816   1.148   5.223
 8214TIP3    H224584   6.945   1.175   5.148
 8215TIP3   OH224585   5.917   0.910   4.963
 8215TIP3    H124586   5.959   0.899   4.878
 8215TIP3    H224587   5.907   1.004   4.973
 8216TIP3   OH224588   1.192   2.918   2.927
 8216TIP3    H124589   1.236   2.974   2.863
 8216TIP3    H224590   1.122   2.972   2.963
 8217TIP3   OH224591   0.572   7.438   4.925
 8217TIP3    H124592   0.548   7.503   4.859
 8217TIP3    H224593   0.506   7.449   4.994
 8218TIP3   OH224594   4.546   6.284   0.710
 8218TIP3    H124595   4.470   6.339   0.693
 8218TIP3    H224596   4.610   6.343   0.750
 8219TIP3   OH224597   2.635   1.167   0.128
 8219TIP3    H124598   2.582   1.106   0.179
 8219TIP3    H224599   2.709   1.188   0.184
 8220TIP3   OH224600   1.984   4.285   4.193
 8220TIP3    H124601   1.992   4.200   4.150
 8220TIP3    H224602   2.008   4.348   4.125
 8221TIP3   OH224603   4.286   6.960   1.067
 8221TIP3    H124604   4.298   7.055   1.072
 8221TIP3    H224605   4.227   6.946   0.993
 8222TIP3   OH224606   7.819   0.429   1.195
 8222TIP3    H124607   7.761   0.452   1.267
 8222TIP3    H224608   7.761   0.395   1.127
 8223TIP3   OH224609   2.439   0.433   5.607
 8223TIP3    H124610   2.502   0.407   5.541
 8223TIP3    H224611   2.362   0.461   5.557
 8224TIP3   OH224612   3.572   3.300   1.025
 8224TIP3    H124613   3.544   3.209   1.024
 8224TIP3    H224614   3.544   3.333   1.111
 8225TIP3   OH224615   4.990   5.251   5.964
 8225TIP3    H124616   4.922   5.192   5.997
 8225TIP3    H224617   4.945   5.306   5.900
 8226TIP3   OH224618   2.273   3.411   0.657
 8226TIP3    H124619   2.258   3.432   0.749
 8226TIP3    H224620   2.259   3.316   0.651
 8227TIP3   OH224621   5.972   4.714   2.340
 8227TIP3    H124622   6.044   4.770   2.370
 8227TIP3    H224623   6.014   4.630   2.320
 8228TIP3   OH224624   6.664   6.708   4.804
 8228TIP3    H124625   6.681   6.619   4.774
 8228TIP3    H224626   6.569   6.715   4.806
 8229TIP3   OH224627   5.422   5.694   5.627
 8229TIP3    H124628   5.433   5.613   5.578
 8229TIP3    H224629   5.429   5.764   5.562
 8230TIP3   OH224630   4.864   3.704   6.060
 8230TIP3    H124631   4.815   3.665   5.988
 8230TIP3    H224632   4.943   3.650   6.068
 8231TIP3   OH224633   1.444   7.703   5.307
 8231TIP3    H124634   1.385   7.666   5.373
 8231TIP3    H224635   1.410   7.791   5.290
 8232TIP3   OH224636   6.349   1.928   4.015
 8232TIP3    H124637   6.363   1.916   4.109
 8232TIP3    H224638   6.430   1.970   3.984
 8233TIP3   OH224639   1.710   7.562   4.514
 8233TIP3    H124640   1.679   7.594   4.599
 8233TIP3    H224641   1.797   7.528   4.532
 8234TIP3   OH224642   5.874   0.619   2.741
 8234TIP3    H124643   5.948   0.602   2.800
 8234TIP3    H224644   5.833   0.533   2.728
 8235TIP3   OH224645   6.801   0.973   5.648
 8235TIP3    H124646   6.850   0.989   5.567
 8235TIP3    H224647   6.842   0.895   5.685
 8236TIP3   OH224648   6.599   5.791   1.442
 8236TIP3    H124649   6.577   5.726   1.376
 8236TIP3    H224650   6.686   5.766   1.472
 8237TIP3   OH224651   3.457   6.624   2.586
 8237TIP3    H124652   3.482   6.699   2.531
 8237TIP3    H224653   3.440   6.662   2.672
 8238TIP3   OH224654   0.140   1.697   4.022
 8238TIP3    H124655   0.077   1.656   3.962
 8238TIP3    H224656   0.222   1.652   4.006
 8239TIP3   OH224657   8.098   4.923   2.888
 8239TIP3    H124658   8.183   4.904   2.847
 8239TIP3    H224659   8.041   4.852   2.858
 8240TIP3   OH224660   1.692   4.593   2.076
 8240TIP3    H124661   1.766   4.639   2.115
 8240TIP3    H224662   1.732   4.532   2.013
 8241TIP3   OH224663   6.790   6.126   1.511
 8241TIP3    H124664   6.720   6.171   1.464
 8241TIP3    H224665   6.762   6.127   1.603
 8242TIP3   OH224666   7.744   2.262   4.358
 8242TIP3    H124667   7.689   2.253   4.436
 8242TIP3    H224668   7.821   2.208   4.377
 8243TIP3   OH224669   7.867   2.405   3.583
 8243TIP3    H124670   7.916   2.427   3.662
 8243TIP3    H224671   7.889   2.314   3.565
 8244TIP3   OH224672   2.724   3.920   4.570
 8244TIP3    H124673   2.749   3.897   4.481
 8244TIP3    H224674   2.703   3.837   4.613
 8245TIP3   OH224675   0.441   6.159   6.134
 8245TIP3    H124676   0.438   6.142   6.040
 8245TIP3    H224677   0.415   6.251   6.143
 8246TIP3   OH224678   5.337   1.162   3.018
 8246TIP3    H124679   5.309   1.213   3.093
 8246TIP3    H224680   5.258   1.112   2.993
 8247TIP3   OH224681   2.244   1.722   5.484
 8247TIP3    H124682   2.330   1.718   5.441
 8247TIP3    H224683   2.249   1.798   5.541
 8248TIP3   OH224684   2.430   5.715  -0.001
 8248TIP3    H124685   2.407   5.805  -0.021
 8248TIP3    H224686   2.387   5.697   0.083
 8249TIP3   OH224687   2.676   3.612   2.377
 8249TIP3    H124688   2.672   3.707   2.381
 8249TIP3    H224689   2.754   3.589   2.428
 8250TIP3   OH224690   7.474   7.709   1.563
 8250TIP3    H124691   7.473   7.756   1.480
 8250TIP3    H224692   7.537   7.638   1.550
 8251TIP3   OH224693   3.416   2.397   0.232
 8251TIP3    H124694   3.478   2.469   0.223
 8251TIP3    H224695   3.463   2.320   0.200
 8252TIP3   OH224696   6.653   2.331   0.595
 8252TIP3    H124697   6.694   2.310   0.679
 8252TIP3    H224698   6.722   2.314   0.530
 8253TIP3   OH224699   2.842   5.246   4.712
 8253TIP3    H124700   2.902   5.208   4.648
 8253TIP3    H224701   2.759   5.200   4.697
 8254TIP3   OH224702   1.367   2.978   5.622
 8254TIP3    H124703   1.282   2.933   5.625
 8254TIP3    H224704   1.345   3.069   5.602
 8255TIP3   OH224705   4.122   0.249   1.804
 8255TIP3    H124706   4.088   0.163   1.828
 8255TIP3    H224707   4.128   0.297   1.886
 8256TIP3   OH224708   6.825   2.310   3.928
 8256TIP3    H124709   6.916   2.332   3.950
 8256TIP3    H224710   6.824   2.306   3.833
 8257TIP3   OH224711   4.372   4.658   1.610
 8257TIP3    H124712   4.381   4.748   1.578
 8257TIP3    H224713   4.433   4.653   1.684
 8258TIP3   OH224714   4.744   0.420   4.639
 8258TIP3    H124715   4.720   0.355   4.572
 8258TIP3    H224716   4.830   0.452   4.611
 8259TIP3   OH224717   7.723   6.793   5.933
 8259TIP3    H124718   7.671   6.865   5.968
 8259TIP3    H224719   7.751   6.744   6.010
 8260TIP3   OH224720   5.921   1.730   3.049
 8260TIP3    H124721   5.914   1.815   3.005
 8260TIP3    H224722   5.831   1.706   3.070
 8261TIP3   OH224723   6.970   7.343   6.113
 8261TIP3    H124724   7.035   7.374   6.050
 8261TIP3    H224725   6.924   7.422   6.141
 8262TIP3   OH224726   7.610   1.786   5.628
 8262TIP3    H124727   7.633   1.794   5.721
 8262TIP3    H224728   7.688   1.816   5.581
 8263TIP3   OH224729   2.528   7.159   5.811
 8263TIP3    H124730   2.623   7.163   5.818
 8263TIP3    H224731   2.512   7.098   5.739
 8264TIP3   OH224732   7.546   6.292   5.737
 8264TIP3    H124733   7.547   6.270   5.830
 8264TIP3    H224734   7.456   6.274   5.709
 8265TIP3   OH224735   1.608   4.116   4.744
 8265TIP3    H124736   1.599   4.053   4.672
 8265TIP3    H224737   1.530   4.101   4.798
 8266TIP3   OH224738   6.381   4.940   1.237
 8266TIP3    H124739   6.306   4.920   1.181
 8266TIP3    H224740   6.344   4.996   1.306
 8267TIP3   OH224741   0.630   3.923   3.858
 8267TIP3    H124742   0.586   3.983   3.798
 8267TIP3    H224743   0.675   3.980   3.920
 8268TIP3   OH224744   4.892   5.586   4.447
 8268TIP3    H124745   4.841   5.641   4.507
 8268TIP3    H224746   4.898   5.501   4.492
 8269TIP3   OH224747   7.821   1.437   0.759
 8269TIP3    H124748   7.843   1.346   0.740
 8269TIP3    H224749   7.854   1.452   0.847
 8270TIP3   OH224750   6.385   0.586   2.803
 8270TIP3    H124751   6.360   0.663   2.854
 8270TIP3    H224752   6.302   0.549   2.773
 8271TIP3   OH224753   2.917   5.350   3.809
 8271TIP3    H124754   2.841   5.333   3.753
 8271TIP3    H224755   2.946   5.263   3.837
 8272TIP3   OH224756   2.251   4.341   0.422
 8272TIP3    H124757   2.227   4.323   0.513
 8272TIP3    H224758   2.265   4.254   0.384
 8273TIP3   OH224759   1.976   0.929   3.939
 8273TIP3    H124760   1.981   0.969   3.852
 8273TIP3    H224761   1.924   0.850   3.926
 8274TIP3   OH224762   3.217   1.375   5.060
 8274TIP3    H124763   3.206   1.440   4.990
 8274TIP3    H224764   3.294   1.406   5.108
 8275TIP3   OH224765   6.941   5.194   1.370
 8275TIP3    H124766   6.849   5.204   1.348
 8275TIP3    H224767   6.958   5.261   1.436
 8276TIP3   OH224768   1.110   6.324   4.900
 8276TIP3    H124769   1.178   6.273   4.945
 8276TIP3    H224770   1.049   6.259   4.866
 8277TIP3   OH224771   3.013   4.057   1.511
 8277TIP3    H124772   3.041   4.103   1.432
 8277TIP3    H224773   3.091   4.057   1.567
 8278TIP3   OH224774   7.843   1.080   4.386
 8278TIP3    H124775   7.835   0.989   4.358
 8278TIP3    H224776   7.786   1.129   4.327
 8279TIP3   OH224777   3.274   3.123   4.093
 8279TIP3    H124778   3.286   3.216   4.111
 8279TIP3    H224779   3.212   3.121   4.020
 8280TIP3   OH224780   6.351   5.305   5.037
 8280TIP3    H124781   6.352   5.283   5.130
 8280TIP3    H224782   6.433   5.353   5.023
 8281TIP3   OH224783   4.432   3.382   3.614
 8281TIP3    H124784   4.366   3.376   3.544
 8281TIP3    H224785   4.516   3.383   3.568
 8282TIP3   OH224786   0.946   0.765   2.664
 8282TIP3    H124787   1.004   0.772   2.589
 8282TIP3    H224788   0.966   0.679   2.702
 8283TIP3   OH224789   0.672   3.344   6.686
 8283TIP3    H124790   0.740   3.294   6.733
 8283TIP3    H224791   0.649   3.414   6.747
 8284TIP3   OH224792   7.023   1.625   5.376
 8284TIP3    H124793   6.935   1.599   5.405
 8284TIP3    H224794   7.007   1.701   5.319
 8285TIP3   OH224795   6.078   7.710   2.376
 8285TIP3    H124796   5.985   7.718   2.352
 8285TIP3    H224797   6.090   7.617   2.392
 8286TIP3   OH224798   0.269   5.531   2.119
 8286TIP3    H124799   0.332   5.576   2.062
 8286TIP3    H224800   0.299   5.549   2.208
 8287TIP3   OH224801   4.317   0.125   2.618
 8287TIP3    H124802   4.371   0.131   2.538
 8287TIP3    H224803   4.243   0.183   2.600
 8288TIP3   OH224804   1.745   1.739   0.470
 8288TIP3    H124805   1.652   1.734   0.450
 8288TIP3    H224806   1.778   1.810   0.415
 8289TIP3   OH224807   0.665   7.778   3.841
 8289TIP3    H124808   0.692   7.771   3.933
 8289TIP3    H224809   0.735   7.735   3.792
 8290TIP3   OH224810   3.307   4.464   4.289
 8290TIP3    H124811   3.334   4.384   4.334
 8290TIP3    H224812   3.385   4.520   4.292
 8291TIP3   OH224813   3.852   3.563   3.004
 8291TIP3    H124814   3.837   3.473   2.976
 8291TIP3    H224815   3.880   3.609   2.925
 8292TIP3   OH224816   3.705   5.925   4.417
 8292TIP3    H124817   3.784   5.896   4.463
 8292TIP3    H224818   3.668   5.993   4.474
 8293TIP3   OH224819   6.621   3.245   2.837
 8293TIP3    H124820   6.596   3.194   2.914
 8293TIP3    H224821   6.558   3.220   2.769
 8294TIP3   OH224822   7.960   4.213   5.501
 8294TIP3    H124823   8.003   4.292   5.533
 8294TIP3    H224824   8.029   4.146   5.502
 8295TIP3   OH224825   1.288   1.359   6.629
 8295TIP3    H124826   1.312   1.358   6.722
 8295TIP3    H224827   1.203   1.314   6.627
 8296TIP3   OH224828   4.875   3.924   3.307
 8296TIP3    H124829   4.968   3.934   3.326
 8296TIP3    H224830   4.868   3.934   3.212
 8297TIP3   OH224831   3.378   7.877   5.100
 8297TIP3    H124832   3.410   7.799   5.055
 8297TIP3    H224833   3.320   7.919   5.037
 8298TIP3   OH224834   1.218   1.972   3.110
 8298TIP3    H124835   1.305   1.960   3.149
 8298TIP3    H224836   1.186   2.054   3.149
 8299TIP3   OH224837   4.237   1.634   4.682
 8299TIP3    H124838   4.211   1.707   4.737
 8299TIP3    H224839   4.210   1.660   4.593
 8300TIP3   OH224840   2.158   3.732   0.946
 8300TIP3    H124841   2.077   3.771   0.914
 8300TIP3    H224842   2.175   3.777   1.029
 8301TIP3   OH224843   3.036   6.686   4.415
 8301TIP3    H124844   3.059   6.717   4.502
 8301TIP3    H224845   2.981   6.756   4.378
 8302TIP3   OH224846   0.682   1.140   2.715
 8302TIP3    H124847   0.704   1.233   2.708
 8302TIP3    H224848   0.765   1.094   2.702
 8303TIP3   OH224849   3.364   2.389   2.422
 8303TIP3    H124850   3.365   2.365   2.329
 8303TIP3    H224851   3.304   2.328   2.463
 8304TIP3   OH224852   4.487   1.007   5.632
 8304TIP3    H124853   4.471   0.991   5.539
 8304TIP3    H224854   4.434   0.941   5.677
 8305TIP3   OH224855   7.760   1.971   1.249
 8305TIP3    H124856   7.780   2.032   1.178
 8305TIP3    H224857   7.665   1.968   1.253
 8306TIP3   OH224858   1.286   7.043   4.657
 8306TIP3    H124859   1.215   7.083   4.708
 8306TIP3    H224860   1.337   7.118   4.626
 8307TIP3   OH224861   5.166   2.935   4.015
 8307TIP3    H124862   5.193   2.844   3.999
 8307TIP3    H224863   5.091   2.948   3.958
 8308TIP3   OH224864   1.791   5.036   0.769
 8308TIP3    H124865   1.879   5.073   0.777
 8308TIP3    H224866   1.764   5.056   0.679
 8309TIP3   OH224867   1.698   4.300   6.505
 8309TIP3    H124868   1.692   4.389   6.471
 8309TIP3    H224869   1.625   4.253   6.464
 8310TIP3   OH224870   1.791   6.334   3.395
 8310TIP3    H124871   1.861   6.331   3.460
 8310TIP3    H224872   1.765   6.242   3.383
 8311TIP3   OH224873   6.968   7.938   3.099
 8311TIP3    H124874   6.903   7.922   3.031
 8311TIP3    H224875   6.966   7.859   3.153
 8312TIP3   OH224876   2.872   0.453   2.303
 8312TIP3    H124877   2.947   0.413   2.260
 8312TIP3    H224878   2.856   0.398   2.380
 8313TIP3   OH224879   2.151   1.407   1.114
 8313TIP3    H124880   2.153   1.409   1.210
 8313TIP3    H224881   2.129   1.496   1.088
 8314TIP3   OH224882   2.575   5.002   6.588
 8314TIP3    H124883   2.545   5.002   6.497
 8314TIP3    H224884   2.671   5.002   6.581
 8315TIP3   OH224885   5.495   2.287   5.739
 8315TIP3    H124886   5.513   2.215   5.678
 8315TIP3    H224887   5.410   2.266   5.777
 8316TIP3   OH224888   3.295   1.420   2.768
 8316TIP3    H124889   3.313   1.411   2.674
 8316TIP3    H224890   3.251   1.505   2.775
 8317TIP3   OH224891   3.801   6.122   1.661
 8317TIP3    H124892   3.882   6.104   1.709
 8317TIP3    H224893   3.813   6.081   1.576
 8318TIP3   OH224894   3.947   5.917   4.551
 8318TIP3    H124895   3.983   6.005   4.561
 8318TIP3    H224896   4.021   5.859   4.571
 8319TIP3   OH224897   0.629   2.436   3.608
 8319TIP3    H124898   0.633   2.532   3.609
 8319TIP3    H224899   0.675   2.409   3.687
 8320TIP3   OH224900   3.242   2.054   4.084
 8320TIP3    H124901   3.199   2.010   4.157
 8320TIP3    H224902   3.305   1.989   4.052
 8321TIP3   OH224903   1.981   2.626   3.881
 8321TIP3    H124904   2.010   2.717   3.874
 8321TIP3    H224905   1.964   2.599   3.791
 8322TIP3   OH224906   2.544   0.438   3.460
 8322TIP3    H124907   2.593   0.418   3.539
 8322TIP3    H224908   2.460   0.471   3.490
 8323TIP3   OH224909   6.567   2.715   3.220
 8323TIP3    H124910   6.627   2.786   3.195
 8323TIP3    H224911   6.514   2.752   3.290
 8324TIP3   OH224912   8.014   0.999   5.833
 8324TIP3    H124913   7.975   1.046   5.906
 8324TIP3    H224914   7.957   0.923   5.820
 8325TIP3   OH224915   2.577   2.270   0.785
 8325TIP3    H124916   2.601   2.326   0.859
 8325TIP3    H224917   2.636   2.297   0.715
 8326TIP3   OH224918   0.778   5.872   6.808
 8326TIP3    H124919   0.864   5.838   6.833
 8326TIP3    H224920   0.734   5.891   6.891
 8327TIP3   OH224921   4.155   0.902   2.216
 8327TIP3    H124922   4.121   0.976   2.165
 8327TIP3    H224923   4.123   0.824   2.170
 8328TIP3   OH224924   1.179   6.633   6.235
 8328TIP3    H124925   1.261   6.609   6.280
 8328TIP3    H224926   1.196   6.721   6.200
 8329TIP3   OH224927   7.285   6.550   1.829
 8329TIP3    H124928   7.361   6.493   1.816
 8329TIP3    H224929   7.315   6.636   1.800
 8330TIP3   OH224930   5.770   5.578   3.264
 8330TIP3    H124931   5.854   5.589   3.219
 8330TIP3    H224932   5.793   5.539   3.349
 8331TIP3   OH224933   0.353   3.081   5.465
 8331TIP3    H124934   0.267   3.041   5.451
 8331TIP3    H224935   0.409   3.009   5.494
 8332TIP3   OH224936   4.812   5.922   3.613
 8332TIP3    H124937   4.764   5.844   3.584
 8332TIP3    H224938   4.807   5.920   3.708
 8333TIP3   OH224939   2.083   7.103   3.827
 8333TIP3    H124940   1.988   7.105   3.818
 8333TIP3    H224941   2.102   7.154   3.905
 8334TIP3   OH224942   1.540   0.149   2.766
 8334TIP3    H124943   1.623   0.106   2.789
 8334TIP3    H224944   1.507   0.098   2.691
 8335TIP3   OH224945   6.435   2.943   5.098
 8335TIP3    H124946   6.400   2.885   5.030
 8335TIP3    H224947   6.487   3.008   5.050
 8336TIP3   OH224948   3.444   0.302   6.375
 8336TIP3    H124949   3.384   0.332   6.443
 8336TIP3    H224950   3.410   0.341   6.294
 8337TIP3   OH224951   0.786   7.355   2.615
 8337TIP3    H124952   0.865   7.363   2.668
 8337TIP3    H224953   0.798   7.274   2.565
 8338TIP3   OH224954   4.335   2.658   4.635
 8338TIP3    H124955   4.289   2.712   4.571
 8338TIP3    H224956   4.283   2.665   4.715
 8339TIP3   OH224957   0.198   2.976   4.401
 8339TIP3    H124958   0.205   2.899   4.344
 8339TIP3    H224959   0.141   2.947   4.473
 8340TIP3   OH224960   4.912   6.123   1.809
 8340TIP3    H124961   4.996   6.167   1.824
 8340TIP3    H224962   4.915   6.097   1.717
 8341TIP3   OH224963   7.613   0.064   2.556
 8341TIP3    H124964   7.693   0.042   2.509
 8341TIP3    H224965   7.557   0.104   2.490
 8342TIP3   OH224966   5.853   0.355   4.809
 8342TIP3    H124967   5.769   0.314   4.790
 8342TIP3    H224968   5.845   0.444   4.774
 8343TIP3   OH224969   2.030   1.145   5.657
 8343TIP3    H124970   2.001   1.054   5.657
 8343TIP3    H224971   1.963   1.192   5.607
 8344TIP3   OH224972   1.545   3.601   6.153
 8344TIP3    H124973   1.631   3.628   6.185
 8344TIP3    H224974   1.497   3.682   6.139
 8345TIP3   OH224975   3.501   2.023   2.737
 8345TIP3    H124976   3.420   2.033   2.788
 8345TIP3    H224977   3.539   1.941   2.769
 8346TIP3   OH224978   7.511   1.739   2.524
 8346TIP3    H124979   7.436   1.775   2.476
 8346TIP3    H224980   7.582   1.739   2.459
 8347TIP3   OH224981   0.844   4.303   1.963
 8347TIP3    H124982   0.843   4.387   2.009
 8347TIP3    H224983   0.764   4.304   1.910
 8348TIP3   OH224984   5.419   5.455   2.778
 8348TIP3    H124985   5.381   5.379   2.821
 8348TIP3    H224986   5.450   5.423   2.694
 8349TIP3   OH224987   6.553   6.604   6.376
 8349TIP3    H124988   6.646   6.585   6.365
 8349TIP3    H224989   6.545   6.698   6.360
 8350TIP3   OH224990   1.023   6.628   2.295
 8350TIP3    H124991   0.985   6.686   2.228
 8350TIP3    H224992   0.991   6.541   2.272
 8351TIP3   OH224993   5.784   6.385   2.336
 8351TIP3    H124994   5.875   6.394   2.364
 8351TIP3    H224995   5.733   6.416   2.411
 8352TIP3   OH224996   0.966   3.788   0.376
 8352TIP3    H124997   0.924   3.723   0.433
 8352TIP3    H224998   0.895   3.848   0.351
 8353TIP3   OH224999   4.533   2.828   5.598
 8353TIP3    H125000   4.478   2.896   5.559
 8353TIP3    H225001   4.472   2.774   5.648
 8354TIP3   OH225002   7.998   1.180   2.801
 8354TIP3    H125003   8.063   1.126   2.847
 8354TIP3    H225004   7.917   1.129   2.808
 8355TIP3   OH225005   5.164   4.301   5.258
 8355TIP3    H125006   5.095   4.235   5.253
 8355TIP3    H225007   5.155   4.338   5.346
 8356TIP3   OH225008   3.443   7.643   1.322
 8356TIP3    H125009   3.350   7.621   1.316
 8356TIP3    H225010   3.445   7.737   1.337
 8357TIP3   OH225011   5.840   1.981   3.617
 8357TIP3    H125012   5.825   1.961   3.525
 8357TIP3    H225013   5.755   1.963   3.659
 8358TIP3   OH225014   6.569   5.019   6.863
 8358TIP3    H125015   6.593   5.062   6.780
 8358TIP3    H225016   6.492   4.967   6.841
 8359TIP3   OH225017   0.330   6.428   6.160
 8359TIP3    H125018   0.300   6.442   6.249
 8359TIP3    H225019   0.258   6.459   6.105
 8360TIP3   OH225020   0.840   7.577   3.736
 8360TIP3    H125021   0.790   7.532   3.668
 8360TIP3    H225022   0.905   7.512   3.765
 8361TIP3   OH225023   6.566   3.621   6.431
 8361TIP3    H125024   6.632   3.625   6.500
 8361TIP3    H225025   6.591   3.545   6.378
 8362TIP3   OH225026   1.816   1.701   0.166
 8362TIP3    H125027   1.766   1.698   0.084
 8362TIP3    H225028   1.755   1.667   0.232
 8363TIP3   OH225029   4.684   4.657   2.480
 8363TIP3    H125030   4.686   4.565   2.510
 8363TIP3    H225031   4.682   4.651   2.385
 8364TIP3   OH225032   5.804   1.445   1.375
 8364TIP3    H125033   5.865   1.519   1.371
 8364TIP3    H225034   5.781   1.428   1.284
 8365TIP3   OH225035   6.171   1.937   6.817
 8365TIP3    H125036   6.163   1.908   6.908
 8365TIP3    H225037   6.241   2.002   6.819
 8366TIP3   OH225038   4.512   3.478   4.346
 8366TIP3    H125039   4.560   3.495   4.265
 8366TIP3    H225040   4.491   3.384   4.342
 8367TIP3   OH225041   7.358   3.734   5.767
 8367TIP3    H125042   7.404   3.777   5.840
 8367TIP3    H225043   7.424   3.727   5.698
 8368TIP3   OH225044   6.963   6.841   1.210
 8368TIP3    H125045   6.963   6.908   1.142
 8368TIP3    H225046   7.054   6.836   1.239
 8369TIP3   OH225047   3.033   5.179   5.917
 8369TIP3    H125048   3.089   5.181   5.994
 8369TIP3    H225049   2.976   5.104   5.931
 8370TIP3   OH225050   2.109   2.860   2.523
 8370TIP3    H125051   2.017   2.844   2.505
 8370TIP3    H225052   2.149   2.773   2.522
 8371TIP3   OH225053   0.393   3.161   1.667
 8371TIP3    H125054   0.393   3.080   1.616
 8371TIP3    H225055   0.374   3.132   1.756
 8372TIP3   OH225056   3.985   2.861   0.562
 8372TIP3    H125057   4.011   2.869   0.471
 8372TIP3    H225058   4.034   2.785   0.594
 8373TIP3   OH225059   1.539   7.213   0.184
 8373TIP3    H125060   1.470   7.172   0.132
 8373TIP3    H225061   1.522   7.307   0.175
 8374TIP3   OH225062   1.961   4.202   1.818
 8374TIP3    H125063   1.915   4.188   1.735
 8374TIP3    H225064   1.938   4.126   1.871
 8375TIP3   OH225065   8.063   1.817   3.854
 8375TIP3    H125066   8.140   1.865   3.825
 8375TIP3    H225067   8.032   1.864   3.932
 8376TIP3   OH225068   1.001   5.794   4.307
 8376TIP3    H125069   1.068   5.861   4.321
 8376TIP3    H225070   1.014   5.732   4.378
 8377TIP3   OH225071   0.345   2.752   3.076
 8377TIP3    H125072   0.317   2.665   3.047
 8377TIP3    H225073   0.366   2.741   3.169
 8378TIP3   OH225074   0.177   2.784   4.211
 8378TIP3    H125075   0.160   2.691   4.197
 8378TIP3    H225076   0.136   2.828   4.136
 8379TIP3   OH225077   0.441   7.740   0.283
 8379TIP3    H125078   0.437   7.776   0.372
 8379TIP3    H225079   0.525   7.694   0.280
 8380TIP3   OH225080   1.400   5.655   0.203
 8380TIP3    H125081   1.476   5.627   0.152
 8380TIP3    H225082   1.326   5.645   0.143
 8381TIP3   OH225083   7.125   7.687   6.031
 8381TIP3    H125084   7.132   7.609   5.977
 8381TIP3    H225085   7.034   7.686   6.062
 8382TIP3   OH225086   2.762   7.906   5.647
 8382TIP3    H125087   2.817   7.932   5.721
 8382TIP3    H225088   2.822   7.862   5.587
 8383TIP3   OH225089   2.533   5.506   2.452
 8383TIP3    H125090   2.486   5.424   2.437
 8383TIP3    H225091   2.540   5.512   2.547
 8384TIP3   OH225092   7.782   7.412   3.574
 8384TIP3    H125093   7.827   7.365   3.503
 8384TIP3    H225094   7.718   7.468   3.529
 8385TIP3   OH225095   2.417   6.489   2.865
 8385TIP3    H125096   2.468   6.566   2.894
 8385TIP3    H225097   2.453   6.417   2.916
 8386TIP3   OH225098   3.002   2.498   4.797
 8386TIP3    H125099   3.001   2.574   4.855
 8386TIP3    H225100   3.088   2.500   4.755
 8387TIP3   OH225101   7.301   7.354   1.074
 8387TIP3    H125102   7.392   7.329   1.088
 8387TIP3    H225103   7.305   7.424   1.009
 8388TIP3   OH225104   3.248   7.815   3.911
 8388TIP3    H125105   3.304   7.881   3.870
 8388TIP3    H225106   3.214   7.764   3.837
 8389TIP3   OH225107   1.527   1.376   4.730
 8389TIP3    H125108   1.555   1.375   4.638
 8389TIP3    H225109   1.577   1.448   4.769
 8390TIP3   OH225110   3.749   5.948   2.630
 8390TIP3    H125111   3.665   5.993   2.637
 8390TIP3    H225112   3.774   5.929   2.720
 8391TIP3   OH225113   0.194   1.181   2.152
 8391TIP3    H125114   0.110   1.217   2.179
 8391TIP3    H225115   0.171   1.105   2.098
 8392TIP3   OH225116   0.007   0.944   0.097
 8392TIP3    H125117   0.001   0.994   0.179
 8392TIP3    H225118   0.080   0.884   0.112
 8393TIP3   OH225119   1.726   4.114   1.286
 8393TIP3    H125120   1.749   4.196   1.242
 8393TIP3    H225121   1.634   4.099   1.263
 8394TIP3   OH225122   2.921   4.625   4.874
 8394TIP3    H125123   2.864   4.684   4.825
 8394TIP3    H225124   2.922   4.545   4.821
 8395TIP3   OH225125   4.846   0.533   0.387
 8395TIP3    H125126   4.839   0.489   0.471
 8395TIP3    H225127   4.934   0.572   0.387
 8396TIP3   OH225128   7.258   7.572   5.318
 8396TIP3    H125129   7.199   7.586   5.392
 8396TIP3    H225130   7.275   7.660   5.284
 8397TIP3   OH225131   0.102   3.239   4.024
 8397TIP3    H125132   0.133   3.167   3.969
 8397TIP3    H225133   0.028   3.202   4.072
 8398TIP3   OH225134   2.996   2.764   3.171
 8398TIP3    H125135   2.917   2.747   3.119
 8398TIP3    H225136   3.039   2.836   3.126
 8399TIP3   OH225137   5.199   2.835   4.482
 8399TIP3    H125138   5.155   2.791   4.409
 8399TIP3    H225139   5.221   2.922   4.448
 8400TIP3   OH225140   7.720   4.006   5.120
 8400TIP3    H125141   7.640   3.994   5.069
 8400TIP3    H225142   7.689   4.029   5.208
 8401TIP3   OH225143   7.248   6.789   1.214
 8401TIP3    H125144   7.320   6.847   1.241
 8401TIP3    H225145   7.287   6.702   1.215
 8402TIP3   OH225146   0.570   4.028   1.571
 8402TIP3    H125147   0.644   4.074   1.532
 8402TIP3    H225148   0.609   3.950   1.612
 8403TIP3   OH225149   2.747   7.309   1.942
 8403TIP3    H125150   2.728   7.324   1.849
 8403TIP3    H225151   2.827   7.358   1.959
 8404TIP3   OH225152   2.185   4.248   3.767
 8404TIP3    H125153   2.098   4.270   3.735
 8404TIP3    H225154   2.215   4.178   3.709
 8405TIP3   OH225155   4.845   4.342   6.752
 8405TIP3    H125156   4.847   4.260   6.801
 8405TIP3    H225157   4.756   4.374   6.762
 8406TIP3   OH225158   7.516   6.567   5.549
 8406TIP3    H125159   7.586   6.577   5.614
 8406TIP3    H225160   7.558   6.525   5.474
 8407TIP3   OH225161   0.013   6.783   4.756
 8407TIP3    H125162   0.076   6.851   4.734
 8407TIP3    H225163   0.026   6.715   4.690
 8408TIP3   OH225164   8.330   0.771   1.514
 8408TIP3    H125165   8.254   0.828   1.503
 8408TIP3    H225166   8.292   0.685   1.534
 8409TIP3   OH225167   1.059   3.731   4.973
 8409TIP3    H125168   1.146   3.721   5.012
 8409TIP3    H225169   1.076   3.768   4.886
 8410TIP3   OH225170   1.240   3.746   3.435
 8410TIP3    H125171   1.239   3.655   3.403
 8410TIP3    H225172   1.333   3.767   3.444
 8411TIP3   OH225173   6.091   0.836   3.279
 8411TIP3    H125174   6.008   0.857   3.235
 8411TIP3    H225175   6.153   0.822   3.207
 8412TIP3   OH225176   5.586   0.326   5.085
 8412TIP3    H125177   5.586   0.255   5.149
 8412TIP3    H225178   5.610   0.404   5.135
 8413TIP3   OH225179   5.095   6.343   0.485
 8413TIP3    H125180   5.129   6.348   0.396
 8413TIP3    H225181   5.044   6.422   0.496
 8414TIP3   OH225182   1.783   2.874   5.010
 8414TIP3    H125183   1.690   2.893   5.005
 8414TIP3    H225184   1.817   2.933   5.077
 8415TIP3   OH225185   1.566   4.606   5.309
 8415TIP3    H125186   1.509   4.675   5.277
 8415TIP3    H225187   1.509   4.548   5.359
 8416TIP3   OH225188   2.431   0.668   6.381
 8416TIP3    H125189   2.399   0.604   6.317
 8416TIP3    H225190   2.519   0.690   6.350
 8417TIP3   OH225191   7.871   7.642   0.785
 8417TIP3    H125192   7.900   7.692   0.862
 8417TIP3    H225193   7.854   7.709   0.719
 8418TIP3   OH225194   5.300   1.610   1.620
 8418TIP3    H125195   5.335   1.683   1.568
 8418TIP3    H225196   5.218   1.587   1.576
 8419TIP3   OH225197   7.919   2.538   2.315
 8419TIP3    H125198   7.900   2.478   2.386
 8419TIP3    H225199   8.014   2.549   2.317
 8420TIP3   OH225200   1.418   5.180   4.318
 8420TIP3    H125201   1.338   5.133   4.341
 8420TIP3    H225202   1.403   5.269   4.348
 8421TIP3   OH225203   5.901   7.501   0.822
 8421TIP3    H125204   5.886   7.454   0.740
 8421TIP3    H225205   5.866   7.588   0.807
 8422TIP3   OH225206   6.488   4.868   1.614
 8422TIP3    H125207   6.424   4.814   1.569
 8422TIP3    H225208   6.540   4.806   1.666
 8423TIP3   OH225209   3.615   0.740   2.884
 8423TIP3    H125210   3.577   0.808   2.940
 8423TIP3    H225211   3.658   0.680   2.945
 8424TIP3   OH225212   0.274   5.380   3.219
 8424TIP3    H125213   0.298   5.403   3.129
 8424TIP3    H225214   0.183   5.352   3.214
 8425TIP3   OH225215   4.761   5.405   3.491
 8425TIP3    H125216   4.717   5.326   3.458
 8425TIP3    H225217   4.849   5.375   3.514
 8426TIP3   OH225218   7.239   1.503   1.963
 8426TIP3    H125219   7.263   1.543   2.046
 8426TIP3    H225220   7.296   1.426   1.956
 8427TIP3   OH225221   1.501   6.514   1.742
 8427TIP3    H125222   1.500   6.425   1.776
 8427TIP3    H225223   1.543   6.507   1.656
 8428TIP3   OH225224   0.014   1.784   1.737
 8428TIP3    H125225   0.047   1.798   1.825
 8428TIP3    H225226   0.091   1.755   1.687
 8429TIP3   OH225227   6.270   0.546   4.193
 8429TIP3    H125228   6.265   0.478   4.259
 8429TIP3    H225229   6.181   0.557   4.162
 8430TIP3   OH225230   7.910   7.321   2.682
 8430TIP3    H125231   7.910   7.407   2.725
 8430TIP3    H225232   7.961   7.334   2.603
 8431TIP3   OH225233   6.929   3.513   3.063
 8431TIP3    H125234   6.883   3.486   2.983
 8431TIP3    H225235   6.862   3.560   3.114
 8432TIP3   OH225236   3.678   2.042   5.822
 8432TIP3    H125237   3.670   2.130   5.858
 8432TIP3    H225238   3.666   2.053   5.727
 8433TIP3   OH225239   0.231   1.887   0.269
 8433TIP3    H125240   0.302   1.914   0.212
 8433TIP3    H225241   0.189   1.815   0.222
 8434TIP3   OH225242   6.057   4.263   2.767
 8434TIP3    H125243   6.061   4.231   2.677
 8434TIP3    H225244   6.129   4.218   2.812
 8435TIP3   OH225245   1.619   3.042   5.614
 8435TIP3    H125246   1.524   3.040   5.605
 8435TIP3    H225247   1.641   3.134   5.627
 8436TIP3   OH225248   2.906   4.725   6.438
 8436TIP3    H125249   2.830   4.769   6.476
 8436TIP3    H225250   2.903   4.636   6.472
 8437TIP3   OH225251   6.575   3.459   0.806
 8437TIP3    H125252   6.609   3.441   0.718
 8437TIP3    H225253   6.638   3.521   0.843
 8438TIP3   OH225254   2.561   5.405   4.660
 8438TIP3    H125255   2.644   5.385   4.703
 8438TIP3    H225256   2.530   5.321   4.627
 8439TIP3   OH225257   1.144   0.143   6.183
 8439TIP3    H125258   1.230   0.187   6.179
 8439TIP3    H225259   1.091   0.200   6.239
 8440TIP3   OH225260   4.522   4.512   0.847
 8440TIP3    H125261   4.615   4.500   0.826
 8440TIP3    H225262   4.482   4.539   0.764
 8441TIP3   OH225263   3.804   3.383   4.497
 8441TIP3    H125264   3.875   3.369   4.561
 8441TIP3    H225265   3.802   3.477   4.484
 8442TIP3   OH225266   6.863   6.865   4.873
 8442TIP3    H125267   6.812   6.946   4.870
 8442TIP3    H225268   6.812   6.802   4.822
 8443TIP3   OH225269   6.418   3.775   5.503
 8443TIP3    H125270   6.380   3.859   5.531
 8443TIP3    H225271   6.511   3.783   5.523
 8444TIP3   OH225272   8.214   5.040   1.758
 8444TIP3    H125273   8.126   5.069   1.735
 8444TIP3    H225274   8.237   5.090   1.836
 8445TIP3   OH225275   7.949   2.706   6.266
 8445TIP3    H125276   7.941   2.801   6.281
 8445TIP3    H225277   7.873   2.669   6.311
 8446TIP3   OH225278   3.804   1.235   2.867
 8446TIP3    H125279   3.829   1.307   2.925
 8446TIP3    H225280   3.710   1.246   2.853
 8447TIP3   OH225281   7.253   6.331   0.220
 8447TIP3    H125282   7.172   6.377   0.245
 8447TIP3    H225283   7.239   6.241   0.250
 8448TIP3   OH225284   1.963   0.521   4.367
 8448TIP3    H125285   1.956   0.584   4.295
 8448TIP3    H225286   1.961   0.435   4.324
 8449TIP3   OH225287   8.093   4.270   2.862
 8449TIP3    H125288   8.051   4.186   2.846
 8449TIP3    H225289   8.024   4.335   2.846
 8450TIP3   OH225290   5.694   1.526   0.175
 8450TIP3    H125291   5.626   1.483   0.124
 8450TIP3    H225292   5.766   1.463   0.177
 8451TIP3   OH225293   7.507   7.531   1.985
 8451TIP3    H125294   7.442   7.530   2.055
 8451TIP3    H225295   7.457   7.517   1.905
 8452TIP3   OH225296   7.124   4.761   3.779
 8452TIP3    H125297   7.174   4.797   3.706
 8452TIP3    H225298   7.145   4.817   3.853
 8453TIP3   OH225299   6.224   5.431   1.318
 8453TIP3    H125300   6.304   5.419   1.368
 8453TIP3    H225301   6.184   5.344   1.315
 8454TIP3   OH225302   4.086   6.303   1.407
 8454TIP3    H125303   4.060   6.324   1.318
 8454TIP3    H225304   4.040   6.222   1.427
 8455TIP3   OH225305   4.560   3.604   5.636
 8455TIP3    H125306   4.533   3.528   5.583
 8455TIP3    H225307   4.613   3.657   5.576
 8456TIP3   OH225308   6.205   0.037   6.530
 8456TIP3    H125309   6.164   0.121   6.551
 8456TIP3    H225310   6.277   0.030   6.593
 8457TIP3   OH225311   8.177   3.535   3.787
 8457TIP3    H125312   8.202   3.547   3.696
 8457TIP3    H225313   8.255   3.499   3.829
 8458TIP3   OH225314   8.151   5.083   4.524
 8458TIP3    H125315   8.219   5.016   4.519
 8458TIP3    H225316   8.084   5.054   4.461
 8459TIP3   OH225317   0.328   4.472   3.022
 8459TIP3    H125318   0.241   4.454   2.987
 8459TIP3    H225319   0.344   4.402   3.085
 8460TIP3   OH225320   3.394   7.713   0.448
 8460TIP3    H125321   3.404   7.701   0.353
 8460TIP3    H225322   3.400   7.625   0.485
 8461TIP3   OH225323   3.073   0.574   1.520
 8461TIP3    H125324   3.061   0.617   1.435
 8461TIP3    H225325   3.073   0.647   1.583
 8462TIP3   OH225326   8.295   2.775   0.364
 8462TIP3    H125327   8.213   2.739   0.329
 8462TIP3    H225328   8.351   2.698   0.374
 8463TIP3   OH225329   2.589   4.000   0.698
 8463TIP3    H125330   2.496   3.980   0.689
 8463TIP3    H225331   2.593   4.062   0.770
 8464TIP3   OH225332   3.819   6.157   3.160
 8464TIP3    H125333   3.809   6.064   3.180
 8464TIP3    H225334   3.818   6.162   3.065
 8465TIP3   OH225335   3.774   6.334   4.353
 8465TIP3    H125336   3.801   6.374   4.435
 8465TIP3    H225337   3.686   6.300   4.370
 8466TIP3   OH225338   3.103   1.442   2.325
 8466TIP3    H125339   3.102   1.357   2.371
 8466TIP3    H225340   3.018   1.481   2.346
 8467TIP3   OH225341   2.653   6.578   2.669
 8467TIP3    H125342   2.680   6.598   2.579
 8467TIP3    H225343   2.574   6.525   2.659
 8468TIP3   OH225344   2.541   0.014   1.686
 8468TIP3    H125345   2.460   0.064   1.679
 8468TIP3    H225346   2.608   0.079   1.703
 8469TIP3   OH225347   4.227   5.750   2.946
 8469TIP3    H125348   4.207   5.833   2.990
 8469TIP3    H225349   4.223   5.772   2.853
 8470TIP3   OH225350   5.644   2.318   0.388
 8470TIP3    H125351   5.657   2.233   0.430
 8470TIP3    H225352   5.730   2.360   0.390
 8471TIP3   OH225353   3.929   2.563   6.035
 8471TIP3    H125354   3.970   2.574   5.949
 8471TIP3    H225355   3.883   2.646   6.050
 8472TIP3   OH225356   6.615   2.302   4.917
 8472TIP3    H125357   6.574   2.342   4.993
 8472TIP3    H225358   6.554   2.318   4.845
 8473TIP3   OH225359   7.598   6.326   5.110
 8473TIP3    H125360   7.525   6.385   5.126
 8473TIP3    H225361   7.557   6.242   5.091
 8474TIP3   OH225362   6.132   2.044   2.954
 8474TIP3    H125363   6.216   2.012   2.922
 8474TIP3    H225364   6.068   1.987   2.911
 8475TIP3   OH225365   6.151   5.168   5.474
 8475TIP3    H125366   6.089   5.150   5.545
 8475TIP3    H225367   6.145   5.091   5.417
 8476TIP3   OH225368   1.632   4.351   0.361
 8476TIP3    H125369   1.574   4.426   0.367
 8476TIP3    H225370   1.580   4.277   0.393
 8477TIP3   OH225371   2.840   0.741   5.005
 8477TIP3    H125372   2.780   0.806   4.967
 8477TIP3    H225373   2.926   0.783   5.002
 8478TIP3   OH225374   4.429   7.444   1.678
 8478TIP3    H125375   4.516   7.432   1.640
 8478TIP3    H225376   4.370   7.399   1.618
 8479TIP3   OH225377   0.447   0.473   5.160
 8479TIP3    H125378   0.530   0.521   5.154
 8479TIP3    H225379   0.409   0.501   5.243
 8480TIP3   OH225380   7.319   3.379   6.256
 8480TIP3    H125381   7.414   3.370   6.254
 8480TIP3    H225382   7.297   3.425   6.175
 8481TIP3   OH225383   0.462   7.814   3.652
 8481TIP3    H125384   0.517   7.838   3.726
 8481TIP3    H225385   0.524   7.797   3.581
 8482TIP3   OH225386   7.791   7.116   3.800
 8482TIP3    H125387   7.699   7.114   3.828
 8482TIP3    H225388   7.831   7.182   3.857
 8483TIP3   OH225389   2.543   1.732   5.503
 8483TIP3    H125390   2.539   1.806   5.562
 8483TIP3    H225391   2.530   1.655   5.559
 8484TIP3   OH225392   0.692   3.315   3.020
 8484TIP3    H125393   0.730   3.240   3.065
 8484TIP3    H225394   0.764   3.352   2.968
 8485TIP3   OH225395   0.517   7.719   4.412
 8485TIP3    H125396   0.495   7.716   4.319
 8485TIP3    H225397   0.529   7.627   4.437
 8486TIP3   OH225398   1.032   4.240   1.089
 8486TIP3    H125399   1.112   4.189   1.077
 8486TIP3    H225400   1.040   4.311   1.026
 8487TIP3   OH225401   5.542   3.285   4.121
 8487TIP3    H125402   5.506   3.232   4.192
 8487TIP3    H225403   5.606   3.227   4.078
 8488TIP3   OH225404   0.706   6.306   6.800
 8488TIP3    H125405   0.691   6.247   6.874
 8488TIP3    H225406   0.799   6.329   6.806
 8489TIP3   OH225407   2.484   5.554   6.140
 8489TIP3    H125408   2.401   5.507   6.134
 8489TIP3    H225409   2.497   5.592   6.053
 8490TIP3   OH225410   1.615   1.340   3.645
 8490TIP3    H125411   1.521   1.337   3.666
 8490TIP3    H225412   1.623   1.415   3.586
 8491TIP3   OH225413   4.469   7.607   1.086
 8491TIP3    H125414   4.385   7.576   1.054
 8491TIP3    H225415   4.482   7.691   1.044
 8492TIP3   OH225416   4.592   3.762   5.854
 8492TIP3    H125417   4.517   3.811   5.886
 8492TIP3    H225418   4.557   3.709   5.782
 8493TIP3   OH225419   7.759   2.162   6.143
 8493TIP3    H125420   7.835   2.203   6.101
 8493TIP3    H225421   7.699   2.234   6.160
 8494TIP3   OH225422   5.552   6.158   0.997
 8494TIP3    H125423   5.517   6.230   0.946
 8494TIP3    H225424   5.613   6.199   1.059
 8495TIP3   OH225425   0.189   6.297   0.633
 8495TIP3    H125426   0.103   6.306   0.674
 8495TIP3    H225427   0.184   6.350   0.554
 8496TIP3   OH225428   1.749   3.351   2.245
 8496TIP3    H125429   1.760   3.307   2.329
 8496TIP3    H225430   1.695   3.291   2.194
 8497TIP3   OH225431   6.156   6.822   1.003
 8497TIP3    H125432   6.158   6.809   0.908
 8497TIP3    H225433   6.095   6.756   1.036
 8498TIP3   OH225434   3.110   0.877   6.515
 8498TIP3    H125435   3.068   0.956   6.549
 8498TIP3    H225436   3.204   0.895   6.524
 8499TIP3   OH225437   7.942   4.982   4.380
 8499TIP3    H125438   7.951   4.953   4.289
 8499TIP3    H225439   7.847   4.988   4.394
 8500TIP3   OH225440   0.660   5.901   4.935
 8500TIP3    H125441   0.703   5.984   4.917
 8500TIP3    H225442   0.613   5.915   5.017
 8501TIP3   OH225443   4.507   6.787   3.939
 8501TIP3    H125444   4.542   6.700   3.919
 8501TIP3    H225445   4.488   6.783   4.033
 8502TIP3   OH225446   2.600   2.867   6.052
 8502TIP3    H125447   2.624   2.796   5.992
 8502TIP3    H225448   2.655   2.940   6.026
 8503TIP3   OH225449   6.843   0.233   1.553
 8503TIP3    H125450   6.895   0.313   1.544
 8503TIP3    H225451   6.813   0.233   1.643
 8504TIP3   OH225452   7.999   3.130   6.524
 8504TIP3    H125453   7.927   3.114   6.586
 8504TIP3    H225454   8.074   3.149   6.580
 8505TIP3   OH225455   3.803   5.334   2.465
 8505TIP3    H125456   3.895   5.343   2.490
 8505TIP3    H225457   3.766   5.275   2.530
 8506TIP3   OH225458   6.590   7.779   1.152
 8506TIP3    H125459   6.586   7.809   1.061
 8506TIP3    H225460   6.612   7.858   1.202
 8507TIP3   OH225461   6.256   1.577   5.215
 8507TIP3    H125462   6.245   1.653   5.271
 8507TIP3    H225463   6.346   1.583   5.183
 8508TIP3   OH225464   0.022   0.616   5.565
 8508TIP3    H125465   0.108   0.638   5.603
 8508TIP3    H225466   0.008   0.682   5.498
 8509TIP3   OH225467   1.860   2.538   3.258
 8509TIP3    H125468   1.796   2.524   3.189
 8509TIP3    H225469   1.945   2.529   3.215
 8510TIP3   OH225470   7.221   0.040   3.669
 8510TIP3    H125471   7.297   0.079   3.626
 8510TIP3    H225472   7.161   0.113   3.683
 8511TIP3   OH225473   2.524   3.979   1.000
 8511TIP3    H125474   2.452   4.025   1.043
 8511TIP3    H225475   2.604   4.019   1.036
 8512TIP3   OH225476   0.293   7.672   1.055
 8512TIP3    H125477   0.347   7.741   1.093
 8512TIP3    H225478   0.329   7.658   0.967
 8513TIP3   OH225479   0.876   1.286   1.661
 8513TIP3    H125480   0.914   1.374   1.666
 8513TIP3    H225481   0.834   1.273   1.746
 8514TIP3   OH225482   6.671   4.049   6.772
 8514TIP3    H125483   6.591   4.100   6.763
 8514TIP3    H225484   6.722   4.070   6.694
 8515TIP3   OH225485   5.783   5.392   5.543
 8515TIP3    H125486   5.863   5.397   5.492
 8515TIP3    H225487   5.787   5.468   5.601
 8516TIP3   OH225488   4.787   4.302   4.809
 8516TIP3    H125489   4.735   4.230   4.844
 8516TIP3    H225490   4.782   4.370   4.877
 8517TIP3   OH225491   6.733   7.585   5.908
 8517TIP3    H125492   6.785   7.662   5.929
 8517TIP3    H225493   6.732   7.535   5.990
 8518TIP3   OH225494   0.670   4.617   5.971
 8518TIP3    H125495   0.587   4.662   5.982
 8518TIP3    H225496   0.713   4.623   6.056
 8519TIP3   OH225497   2.448   5.365   1.570
 8519TIP3    H125498   2.474   5.362   1.478
 8519TIP3    H225499   2.353   5.358   1.568
 8520TIP3   OH225500   6.484   7.568   1.951
 8520TIP3    H125501   6.486   7.662   1.972
 8520TIP3    H225502   6.408   7.559   1.893
 8521TIP3   OH225503   0.042   3.301   0.485
 8521TIP3    H125504   0.000   3.219   0.508
 8521TIP3    H225505   0.048   3.299   0.390
 8522TIP3   OH225506   7.998   2.267   6.039
 8522TIP3    H125507   8.033   2.314   6.115
 8522TIP3    H225508   8.059   2.194   6.026
 8523TIP3   OH225509   6.776   0.329   0.933
 8523TIP3    H125510   6.827   0.365   0.862
 8523TIP3    H225511   6.839   0.277   0.984
 8524TIP3   OH225512   0.525   2.721   4.121
 8524TIP3    H125513   0.453   2.658   4.117
 8524TIP3    H225514   0.507   2.773   4.199
 8525TIP3   OH225515   6.495   7.626   4.142
 8525TIP3    H125516   6.570   7.677   4.170
 8525TIP3    H225517   6.429   7.640   4.210
 8526TIP3   OH225518   6.811   7.796   1.353
 8526TIP3    H125519   6.898   7.836   1.353
 8526TIP3    H225520   6.750   7.869   1.359
 8527TIP3   OH225521   0.472   4.272   3.928
 8527TIP3    H125522   0.550   4.286   3.983
 8527TIP3    H225523   0.450   4.359   3.896
 8528TIP3   OH225524   8.011   5.927   1.999
 8528TIP3    H125525   8.041   5.894   1.914
 8528TIP3    H225526   8.091   5.955   2.043
 8529TIP3   OH225527   1.214   3.025   5.344
 8529TIP3    H125528   1.153   2.952   5.361
 8529TIP3    H225529   1.195   3.088   5.413
 8530TIP3   OH225530   4.402   3.148   4.965
 8530TIP3    H125531   4.356   3.231   4.954
 8530TIP3    H225532   4.471   3.150   4.899
 8531TIP3   OH225533   6.670   5.531   5.683
 8531TIP3    H125534   6.680   5.436   5.694
 8531TIP3    H225535   6.577   5.543   5.664
 8532TIP3   OH225536   5.486   2.695   1.267
 8532TIP3    H125537   5.570   2.650   1.261
 8532TIP3    H225538   5.504   2.774   1.317
 8533TIP3   OH225539   6.449   3.074   3.533
 8533TIP3    H125540   6.533   3.078   3.487
 8533TIP3    H225541   6.472   3.080   3.626
 8534TIP3   OH225542   3.458   4.305   3.203
 8534TIP3    H125543   3.456   4.209   3.198
 8534TIP3    H225544   3.399   4.327   3.276
 8535TIP3   OH225545   2.225   1.024   0.925
 8535TIP3    H125546   2.151   1.065   0.967
 8535TIP3    H225547   2.302   1.067   0.963
 8536TIP3   OH225548   4.058   0.022   5.379
 8536TIP3    H125549   3.971   0.028   5.339
 8536TIP3    H225550   4.105   0.098   5.344
 8537TIP3   OH225551   7.940   4.718   0.046
 8537TIP3    H125552   8.000   4.710  -0.028
 8537TIP3    H225553   7.857   4.685   0.012
 8538TIP3   OH225554   6.976   2.669   2.552
 8538TIP3    H125555   6.995   2.668   2.458
 8538TIP3    H225556   6.932   2.754   2.567
 8539TIP3   OH225557   4.759   4.715   3.628
 8539TIP3    H125558   4.712   4.640   3.665
 8539TIP3    H225559   4.844   4.714   3.672
 8540TIP3   OH225560   2.135   6.453   4.597
 8540TIP3    H125561   2.203   6.404   4.552
 8540TIP3    H225562   2.181   6.526   4.638
 8541TIP3   OH225563   4.698   2.645   2.532
 8541TIP3    H125564   4.682   2.630   2.439
 8541TIP3    H225565   4.760   2.577   2.557
 8542TIP3   OH225566   6.090   0.820   1.369
 8542TIP3    H125567   6.048   0.893   1.325
 8542TIP3    H225568   6.031   0.797   1.440
 8543TIP3   OH225569   1.367   1.060   2.185
 8543TIP3    H125570   1.448   1.076   2.137
 8543TIP3    H225571   1.341   0.972   2.158
 8544TIP3   OH225572   3.538   2.426   5.447
 8544TIP3    H125573   3.509   2.362   5.382
 8544TIP3    H225574   3.624   2.394   5.474
 8545TIP3   OH225575   3.987   2.185   2.008
 8545TIP3    H125576   4.044   2.176   2.085
 8545TIP3    H225577   3.899   2.167   2.041
 8546TIP3   OH225578   3.096   6.052   3.826
 8546TIP3    H125579   3.124   6.140   3.800
 8546TIP3    H225580   3.112   5.998   3.749
 8547TIP3   OH225581   5.981   7.033   2.992
 8547TIP3    H125582   5.897   7.017   3.036
 8547TIP3    H225583   5.987   6.963   2.926
 8548TIP3   OH225584   2.448   2.101   1.293
 8548TIP3    H125585   2.479   2.088   1.203
 8548TIP3    H225586   2.436   2.012   1.327
 8549TIP3   OH225587   1.363   4.645   1.614
 8549TIP3    H125588   1.316   4.630   1.533
 8549TIP3    H225589   1.422   4.718   1.595
 8550TIP3   OH225590   3.703   4.584   1.338
 8550TIP3    H125591   3.658   4.538   1.409
 8550TIP3    H225592   3.638   4.647   1.306
 8551TIP3   OH225593   6.975   6.289   5.276
 8551TIP3    H125594   7.069   6.301   5.261
 8551TIP3    H225595   6.954   6.207   5.231
 8552TIP3   OH225596   1.916   5.826   3.893
 8552TIP3    H125597   1.901   5.858   3.982
 8552TIP3    H225598   2.010   5.810   3.889
 8553TIP3   OH225599   0.050   0.777   2.615
 8553TIP3    H125600   0.118   0.830   2.573
 8553TIP3    H225601   0.090   0.748   2.697
 8554TIP3   OH225602   1.776   0.782   0.606
 8554TIP3    H125603   1.781   0.688   0.586
 8554TIP3    H225604   1.837   0.822   0.544
 8555TIP3   OH225605   6.598   0.767   2.180
 8555TIP3    H125606   6.589   0.725   2.265
 8555TIP3    H225607   6.685   0.808   2.183
 8556TIP3   OH225608   1.408   3.027   2.214
 8556TIP3    H125609   1.412   2.989   2.302
 8556TIP3    H225610   1.330   3.082   2.216
 8557TIP3   OH225611   7.509   3.630   5.136
 8557TIP3    H125612   7.481   3.610   5.225
 8557TIP3    H225613   7.572   3.562   5.114
 8558TIP3   OH225614   5.351   0.062   5.451
 8558TIP3    H125615   5.317  -0.018   5.413
 8558TIP3    H225616   5.400   0.033   5.528
 8559TIP3   OH225617   4.478   4.273   4.776
 8559TIP3    H125618   4.509   4.198   4.725
 8559TIP3    H225619   4.440   4.234   4.855
 8560TIP3   OH225620   0.791   3.156   0.580
 8560TIP3    H125621   0.833   3.165   0.666
 8560TIP3    H225622   0.847   3.205   0.521
 8561TIP3   OH225623   3.900   0.181   6.339
 8561TIP3    H125624   3.814   0.208   6.370
 8561TIP3    H225625   3.950   0.163   6.418
 8562TIP3   OH225626   2.172   3.406   3.950
 8562TIP3    H125627   2.169   3.461   4.028
 8562TIP3    H225628   2.143   3.320   3.980
 8563TIP3   OH225629   5.242   6.456   2.891
 8563TIP3    H125630   5.155   6.415   2.898
 8563TIP3    H225631   5.295   6.413   2.958
 8564TIP3   OH225632   6.983   5.297   5.409
 8564TIP3    H125633   6.972   5.328   5.499
 8564TIP3    H225634   6.932   5.215   5.407
 8565TIP3   OH225635   7.907   1.424   5.238
 8565TIP3    H125636   8.001   1.432   5.249
 8565TIP3    H225637   7.890   1.329   5.241
 8566TIP3   OH225638   7.161   6.608   2.774
 8566TIP3    H125639   7.138   6.699   2.794
 8566TIP3    H225640   7.086   6.575   2.726
 8567TIP3   OH225641   2.229   1.468   3.213
 8567TIP3    H125642   2.323   1.477   3.224
 8567TIP3    H225643   2.214   1.486   3.120
 8568TIP3   OH225644   0.560   3.878   1.171
 8568TIP3    H125645   0.610   3.802   1.139
 8568TIP3    H225646   0.626   3.938   1.204
 8569TIP3   OH225647   1.473   4.419   3.423
 8569TIP3    H125648   1.422   4.491   3.384
 8569TIP3    H225649   1.563   4.450   3.421
 8570TIP3   OH225650   4.816   5.326   2.781
 8570TIP3    H125651   4.821   5.283   2.867
 8570TIP3    H225652   4.857   5.411   2.795
 8571TIP3   OH225653   8.236   6.913   4.479
 8571TIP3    H125654   8.263   6.991   4.528
 8571TIP3    H225655   8.311   6.892   4.423
 8572TIP3   OH225656   1.283   6.925   2.354
 8572TIP3    H125657   1.360   6.953   2.404
 8572TIP3    H225658   1.237   6.865   2.413
 8573TIP3   OH225659   1.015   2.899   0.745
 8573TIP3    H125660   0.932   2.861   0.774
 8573TIP3    H225661   1.015   2.988   0.780
 8574TIP3   OH225662   6.853   2.402   4.832
 8574TIP3    H125663   6.860   2.447   4.917
 8574TIP3    H225664   6.762   2.374   4.827
 8575TIP3   OH225665   2.539   4.920   6.316
 8575TIP3    H125666   2.572   4.832   6.300
 8575TIP3    H225667   2.447   4.917   6.290
 8576TIP3   OH225668   3.983   4.264   1.650
 8576TIP3    H125669   3.963   4.333   1.586
 8576TIP3    H225670   3.934   4.188   1.619
 8577TIP3   OH225671   0.506   1.643   3.388
 8577TIP3    H125672   0.580   1.657   3.447
 8577TIP3    H225673   0.506   1.721   3.332
 8578TIP3   OH225674   4.555   5.253   2.707
 8578TIP3    H125675   4.633   5.261   2.762
 8578TIP3    H225676   4.589   5.251   2.617
 8579TIP3   OH225677   6.538   4.569   4.849
 8579TIP3    H125678   6.574   4.646   4.893
 8579TIP3    H225679   6.444   4.576   4.862
 8580TIP3   OH225680   2.978   3.205   4.131
 8580TIP3    H125681   2.974   3.113   4.104
 8580TIP3    H225682   3.021   3.203   4.216
 8581TIP3   OH225683   5.069   5.518   1.905
 8581TIP3    H125684   5.088   5.424   1.909
 8581TIP3    H225685   4.992   5.529   1.961
 8582TIP3   OH225686   6.098   5.316   1.870
 8582TIP3    H125687   6.162   5.369   1.823
 8582TIP3    H225688   6.032   5.294   1.805
 8583TIP3   OH225689   4.606   2.500   1.527
 8583TIP3    H125690   4.563   2.415   1.538
 8583TIP3    H225691   4.651   2.516   1.610
 8584TIP3   OH225692   3.169   7.638   0.147
 8584TIP3    H125693   3.259   7.673   0.153
 8584TIP3    H225694   3.152   7.602   0.233
 8585TIP3   OH225695   6.767   7.918   3.531
 8585TIP3    H125696   6.829   7.924   3.604
 8585TIP3    H225697   6.765   7.824   3.509
 8586TIP3   OH225698   0.471   7.410   5.605
 8586TIP3    H125699   0.447   7.490   5.559
 8586TIP3    H225700   0.436   7.420   5.693
 8587TIP3   OH225701   3.882   3.942   6.116
 8587TIP3    H125702   3.819   3.978   6.053
 8587TIP3    H225703   3.830   3.927   6.195
 8588TIP3   OH225704   5.235   3.250   0.165
 8588TIP3    H125705   5.282   3.168   0.152
 8588TIP3    H225706   5.276   3.311   0.104
 8589TIP3   OH225707   7.441   2.869   1.915
 8589TIP3    H125708   7.411   2.959   1.920
 8589TIP3    H225709   7.519   2.872   1.859
 8590TIP3   OH225710   6.591   2.756   6.515
 8590TIP3    H125711   6.640   2.711   6.446
 8590TIP3    H225712   6.658   2.798   6.569
 8591TIP3   OH225713   0.703   0.218   3.508
 8591TIP3    H125714   0.773   0.200   3.445
 8591TIP3    H225715   0.679   0.309   3.492
 8592TIP3   OH225716   7.838   6.530   0.244
 8592TIP3    H125717   7.832   6.501   0.153
 8592TIP3    H225718   7.905   6.474   0.283
 8593TIP3   OH225719   1.488   0.411   4.528
 8593TIP3    H125720   1.407   0.382   4.569
 8593TIP3    H225721   1.478   0.506   4.520
 8594TIP3   OH225722   5.737   0.453   4.437
 8594TIP3    H125723   5.757   0.545   4.452
 8594TIP3    H225724   5.642   0.448   4.441
 8595TIP3   OH225725   4.396   0.702   0.193
 8595TIP3    H125726   4.341   0.624   0.194
 8595TIP3    H225727   4.477   0.675   0.237
 8596TIP3   OH225728   8.085   2.664   4.134
 8596TIP3    H125729   8.104   2.593   4.073
 8596TIP3    H225730   8.132   2.640   4.214
 8597TIP3   OH225731   1.195   5.571   4.157
 8597TIP3    H125732   1.160   5.491   4.118
 8597TIP3    H225733   1.139   5.641   4.123
 8598TIP3   OH225734   3.792   1.721   3.226
 8598TIP3    H125735   3.704   1.711   3.262
 8598TIP3    H225736   3.804   1.643   3.170
 8599TIP3   OH225737   4.577   3.424   2.875
 8599TIP3    H125738   4.623   3.371   2.810
 8599TIP3    H225739   4.534   3.361   2.933
 8600TIP3   OH225740   1.394   1.905   1.381
 8600TIP3    H125741   1.446   1.950   1.315
 8600TIP3    H225742   1.305   1.936   1.367
 8601TIP3   OH225743   1.172   3.413   3.055
 8601TIP3    H125744   1.237   3.479   3.031
 8601TIP3    H225745   1.090   3.461   3.061
 8602TIP3   OH225746   4.866   7.635   1.784
 8602TIP3    H125747   4.810   7.595   1.851
 8602TIP3    H225748   4.938   7.573   1.772
 8603TIP3   OH225749   2.502   2.037   0.539
 8603TIP3    H125750   2.418   2.036   0.493
 8603TIP3    H225751   2.506   1.952   0.584
 8604TIP3   OH225752   5.209   5.967   4.595
 8604TIP3    H125753   5.183   5.884   4.635
 8604TIP3    H225754   5.297   5.983   4.629
 8605TIP3   OH225755   6.493   3.979   5.760
 8605TIP3    H125756   6.574   3.974   5.709
 8605TIP3    H225757   6.506   4.051   5.821
 8606TIP3   OH225758   5.148   2.468   0.610
 8606TIP3    H125759   5.072   2.439   0.659
 8606TIP3    H225760   5.112   2.514   0.534
 8607TIP3   OH225761   2.297   2.409   4.340
 8607TIP3    H125762   2.326   2.495   4.309
 8607TIP3    H225763   2.291   2.356   4.261
 8608TIP3   OH225764   0.062   5.349   6.467
 8608TIP3    H125765   0.144   5.324   6.424
 8608TIP3    H225766   0.047   5.280   6.531
 8609TIP3   OH225767   3.709   4.762   0.996
 8609TIP3    H125768   3.727   4.855   0.984
 8609TIP3    H225769   3.779   4.717   0.949
 8610TIP3   OH225770   3.845   5.538   2.059
 8610TIP3    H125771   3.817   5.568   2.146
 8610TIP3    H225772   3.791   5.589   1.998
 8611TIP3   OH225773   6.251   3.870   0.674
 8611TIP3    H125774   6.179   3.807   0.670
 8611TIP3    H225775   6.313   3.832   0.737
 8612TIP3   OH225776   0.872   5.346   6.120
 8612TIP3    H125777   0.872   5.253   6.144
 8612TIP3    H225778   0.840   5.348   6.030
 8613TIP3   OH225779   6.296   0.639   1.792
 8613TIP3    H125780   6.358   0.622   1.721
 8613TIP3    H225781   6.301   0.561   1.847
 8614TIP3   OH225782   3.531   6.269   5.445
 8614TIP3    H125783   3.486   6.189   5.421
 8614TIP3    H225784   3.593   6.284   5.374
 8615TIP3   OH225785   1.157   7.150   5.713
 8615TIP3    H125786   1.220   7.151   5.785
 8615TIP3    H225787   1.077   7.186   5.750
 8616TIP3   OH225788   4.192   5.065   2.722
 8616TIP3    H125789   4.253   5.137   2.739
 8616TIP3    H225790   4.163   5.036   2.809
 8617TIP3   OH225791   7.978   6.284   0.285
 8617TIP3    H125792   8.060   6.293   0.333
 8617TIP3    H225793   7.929   6.217   0.334
 8618TIP3   OH225794   2.334   1.800   2.420
 8618TIP3    H125795   2.282   1.720   2.413
 8618TIP3    H225796   2.308   1.853   2.345
 8619TIP3   OH225797   2.436   0.586   3.950
 8619TIP3    H125798   2.346   0.610   3.927
 8619TIP3    H225799   2.436   0.490   3.948
 8620TIP3   OH225800   2.695   3.845   4.093
 8620TIP3    H125801   2.626   3.804   4.042
 8620TIP3    H225802   2.704   3.933   4.056
 8621TIP3   OH225803   2.067   6.514   0.517
 8621TIP3    H125804   2.041   6.464   0.439
 8621TIP3    H225805   2.106   6.594   0.482
 8622TIP3   OH225806   4.400   6.568   5.531
 8622TIP3    H125807   4.311   6.559   5.498
 8622TIP3    H225808   4.407   6.499   5.598
 8623TIP3   OH225809   0.475   4.482   5.058
 8623TIP3    H125810   0.487   4.488   4.963
 8623TIP3    H225811   0.443   4.393   5.072
 8624TIP3   OH225812   1.851   3.762   5.521
 8624TIP3    H125813   1.889   3.786   5.436
 8624TIP3    H225814   1.830   3.846   5.562
 8625TIP3   OH225815   3.317   0.354   3.241
 8625TIP3    H125816   3.388   0.299   3.207
 8625TIP3    H225817   3.279   0.395   3.164
 8626TIP3   OH225818   0.081   1.398   4.395
 8626TIP3    H125819   0.088   1.312   4.437
 8626TIP3    H225820   0.140   1.454   4.446
 8627TIP3   OH225821   7.196   3.292   4.093
 8627TIP3    H125822   7.276   3.262   4.135
 8627TIP3    H225823   7.187   3.383   4.121
 8628TIP3   OH225824   6.191   0.765   0.800
 8628TIP3    H125825   6.147   0.756   0.885
 8628TIP3    H225826   6.235   0.682   0.787
 8629TIP3   OH225827   1.887   5.505   4.213
 8629TIP3    H125828   1.945   5.498   4.289
 8629TIP3    H225829   1.897   5.596   4.183
 8630TIP3   OH225830   3.295   4.528   1.787
 8630TIP3    H125831   3.354   4.468   1.832
 8630TIP3    H225832   3.350   4.603   1.765
 8631TIP3   OH225833   6.682   3.884   0.248
 8631TIP3    H125834   6.610   3.945   0.234
 8631TIP3    H225835   6.751   3.913   0.188
 8632TIP3   OH225836   5.090   6.252   5.912
 8632TIP3    H125837   5.125   6.165   5.931
 8632TIP3    H225838   5.139   6.281   5.835
 8633TIP3   OH225839   4.753   4.078   3.897
 8633TIP3    H125840   4.820   4.092   3.965
 8633TIP3    H225841   4.776   3.994   3.858
 8634TIP3   OH225842   2.995   2.075   6.682
 8634TIP3    H125843   2.950   1.992   6.695
 8634TIP3    H225844   2.959   2.133   6.750
 8635TIP3   OH225845   0.627   7.301   4.153
 8635TIP3    H125846   0.678   7.230   4.192
 8635TIP3    H225847   0.590   7.348   4.227
 8636TIP3   OH225848   8.143   4.112   4.193
 8636TIP3    H125849   8.198   4.189   4.178
 8636TIP3    H225850   8.092   4.103   4.112
 8637TIP3   OH225851   7.885   7.624   1.500
 8637TIP3    H125852   7.833   7.691   1.544
 8637TIP3    H225853   7.967   7.668   1.478
 8638TIP3   OH225854   6.449   0.987   4.250
 8638TIP3    H125855   6.371   0.971   4.197
 8638TIP3    H225856   6.516   0.930   4.211
 8639TIP3   OH225857   5.554   6.258   5.371
 8639TIP3    H125858   5.544   6.348   5.400
 8639TIP3    H225859   5.466   6.231   5.345
 8640TIP3   OH225860   6.577   6.242   3.348
 8640TIP3    H125861   6.544   6.318   3.396
 8640TIP3    H225862   6.529   6.168   3.386
 8641TIP3   OH225863   1.689   2.030   1.369
 8641TIP3    H125864   1.710   1.954   1.315
 8641TIP3    H225865   1.635   1.996   1.440
 8642TIP3   OH225866   1.979   0.056   0.590
 8642TIP3    H125867   1.972  -0.030   0.632
 8642TIP3    H225868   1.917   0.111   0.638
 8643TIP3   OH225869   0.967   0.975   2.208
 8643TIP3    H125870   0.981   0.958   2.115
 8643TIP3    H225871   1.023   0.911   2.253
 8644TIP3   OH225872   3.207   3.161   1.101
 8644TIP3    H125873   3.178   3.234   1.046
 8644TIP3    H225874   3.211   3.086   1.042
 8645TIP3   OH225875   1.434   1.829   3.624
 8645TIP3    H125876   1.428   1.747   3.575
 8645TIP3    H225877   1.526   1.837   3.646
 8646TIP3   OH225878   6.790   1.725   1.751
 8646TIP3    H125879   6.709   1.677   1.765
 8646TIP3    H225880   6.819   1.749   1.839
 8647TIP3   OH225881   6.062   4.212   2.471
 8647TIP3    H125882   6.105   4.241   2.390
 8647TIP3    H225883   5.970   4.200   2.447
 8648TIP3   OH225884   5.039   5.440   4.672
 8648TIP3    H125885   4.979   5.389   4.726
 8648TIP3    H225886   5.059   5.517   4.724
 8649TIP3   OH225887   2.987   0.340   5.345
 8649TIP3    H125888   2.948   0.396   5.278
 8649TIP3    H225889   2.914   0.290   5.380
 8650TIP3   OH225890   8.128   1.356   3.711
 8650TIP3    H125891   8.181   1.388   3.785
 8650TIP3    H225892   8.066   1.295   3.751
 8651TIP3   OH225893   0.308   1.229   1.329
 8651TIP3    H125894   0.335   1.139   1.310
 8651TIP3    H225895   0.223   1.238   1.286
 8652TIP3   OH225896   6.303   5.342   3.030
 8652TIP3    H125897   6.241   5.290   3.082
 8652TIP3    H225898   6.389   5.314   3.062
 8653TIP3   OH225899   1.482   3.864   6.070
 8653TIP3    H125900   1.444   3.952   6.063
 8653TIP3    H225901   1.445   3.816   5.996
 8654TIP3   OH225902   5.025   3.517   3.500
 8654TIP3    H125903   5.007   3.606   3.530
 8654TIP3    H225904   5.072   3.476   3.573
 8655TIP3   OH225905   8.233   5.866   6.593
 8655TIP3    H125906   8.311   5.901   6.636
 8655TIP3    H225907   8.179   5.943   6.577
 8656TIP3   OH225908   7.138   7.134   6.355
 8656TIP3    H125909   7.189   7.211   6.378
 8656TIP3    H225910   7.168   7.066   6.416
 8657TIP3   OH225911   4.588   3.619   1.390
 8657TIP3    H125912   4.673   3.608   1.346
 8657TIP3    H225913   4.604   3.687   1.455
 8658TIP3   OH225914   6.951   3.780   5.481
 8658TIP3    H125915   7.002   3.749   5.556
 8658TIP3    H225916   7.017   3.811   5.418
 8659TIP3   OH225917   3.944   1.041   5.237
 8659TIP3    H125918   4.040   1.049   5.233
 8659TIP3    H225919   3.916   1.050   5.146
 8660TIP3   OH225920   1.141   2.106   6.763
 8660TIP3    H125921   1.182   2.033   6.716
 8660TIP3    H225922   1.183   2.104   6.849
 8661TIP3   OH225923   1.046   3.288   2.662
 8661TIP3    H125924   1.039   3.358   2.596
 8661TIP3    H225925   1.035   3.207   2.612
 8662TIP3   OH225926   5.284   1.296   5.979
 8662TIP3    H125927   5.293   1.261   6.068
 8662TIP3    H225928   5.296   1.220   5.923
 8663TIP3   OH225929   3.190   7.012   3.439
 8663TIP3    H125930   3.116   7.072   3.433
 8663TIP3    H225931   3.204   6.981   3.350
 8664TIP3   OH225932   2.978   1.596   6.164
 8664TIP3    H125933   3.014   1.665   6.108
 8664TIP3    H225934   2.941   1.642   6.239
 8665TIP3   OH225935   5.117   4.625   2.461
 8665TIP3    H125936   5.098   4.597   2.550
 8665TIP3    H225937   5.068   4.707   2.451
 8666TIP3   OH225938   0.264   6.292   2.777
 8666TIP3    H125939   0.288   6.342   2.699
 8666TIP3    H225940   0.266   6.201   2.749
 8667TIP3   OH225941   2.191   2.803   0.865
 8667TIP3    H125942   2.158   2.837   0.782
 8667TIP3    H225943   2.270   2.754   0.841
 8668TIP3   OH225944   0.053   0.756   3.601
 8668TIP3    H125945   0.078   0.685   3.661
 8668TIP3    H225946   0.124   0.819   3.608
 8669TIP3   OH225947   5.393   4.051   0.904
 8669TIP3    H125948   5.377   3.965   0.864
 8669TIP3    H225949   5.453   4.094   0.844
 8670TIP3   OH225950   3.004   5.585   0.198
 8670TIP3    H125951   3.068   5.584   0.269
 8670TIP3    H225952   3.025   5.663   0.147
 8671TIP3   OH225953   7.083   1.686   4.525
 8671TIP3    H125954   7.161   1.641   4.558
 8671TIP3    H225955   7.062   1.639   4.444
 8672TIP3   OH225956   1.195   2.448   6.782
 8672TIP3    H125957   1.248   2.371   6.762
 8672TIP3    H225958   1.222   2.475   6.869
 8673TIP3   OH225959   8.238   4.890   3.477
 8673TIP3    H125960   8.263   4.809   3.522
 8673TIP3    H225961   8.159   4.868   3.429
 8674TIP3   OH225962   4.687   0.840   0.524
 8674TIP3    H125963   4.713   0.811   0.437
 8674TIP3    H225964   4.702   0.934   0.524
 8675TIP3   OH225965   6.616   6.533   5.016
 8675TIP3    H125966   6.619   6.452   4.965
 8675TIP3    H225967   6.528   6.567   5.002
 8676TIP3   OH225968   0.834   5.127   6.639
 8676TIP3    H125969   0.871   5.210   6.609
 8676TIP3    H225970   0.740   5.142   6.643
 8677TIP3   OH225971   0.598   3.149   5.297
 8677TIP3    H125972   0.610   3.065   5.251
 8677TIP3    H225973   0.503   3.157   5.307
 8678TIP3   OH225974   0.166   7.092   2.689
 8678TIP3    H125975   0.087   7.090   2.743
 8678TIP3    H225976   0.207   7.006   2.704
 8679TIP3   OH225977   3.953   4.044   6.545
 8679TIP3    H125978   3.993   4.042   6.632
 8679TIP3    H225979   3.864   4.011   6.559
 8680TIP3   OH225980   6.986   1.153   0.153
 8680TIP3    H125981   6.926   1.194   0.091
 8680TIP3    H225982   7.024   1.079   0.105
 8681TIP3   OH225983   8.373   2.302   4.410
 8681TIP3    H125984   8.393   2.229   4.351
 8681TIP3    H225985   8.342   2.260   4.490
 8682TIP3   OH225986   7.800   5.397   1.912
 8682TIP3    H125987   7.753   5.476   1.939
 8682TIP3    H225988   7.890   5.412   1.940
 8683TIP3   OH225989   7.957   0.369   0.705
 8683TIP3    H125990   7.890   0.352   0.639
 8683TIP3    H225991   7.990   0.282   0.728
 8684TIP3   OH225992   6.850   1.306   2.981
 8684TIP3    H125993   6.816   1.338   3.064
 8684TIP3    H225994   6.814   1.218   2.972
 8685TIP3   OH225995   7.337   4.079   3.937
 8685TIP3    H125996   7.244   4.067   3.955
 8685TIP3    H225997   7.358   4.164   3.975
 8686TIP3   OH225998   0.759   3.710   0.781
 8686TIP3    H125999   0.847   3.722   0.746
 8686TIP3    H226000   0.732   3.797   0.809
 8687TIP3   OH226001   1.847   4.645   3.158
 8687TIP3    H126002   1.885   4.559   3.178
 8687TIP3    H226003   1.753   4.634   3.172
 8688TIP3   OH226004   6.332   0.403   6.608
 8688TIP3    H126005   6.363   0.395   6.517
 8688TIP3    H226006   6.243   0.368   6.606
 8689TIP3   OH226007   5.700   5.903   5.419
 8689TIP3    H126008   5.765   5.963   5.381
 8689TIP3    H226009   5.674   5.847   5.346
 8690TIP3   OH226010   5.019   7.151   2.247
 8690TIP3    H126011   5.104   7.136   2.289
 8690TIP3    H226012   4.975   7.066   2.251
 8691TIP3   OH226013   4.766   4.824   1.964
 8691TIP3    H126014   4.818   4.772   1.902
 8691TIP3    H226015   4.801   4.801   2.050
 8692TIP3   OH226016   2.069   4.269   4.854
 8692TIP3    H126017   2.002   4.208   4.884
 8692TIP3    H226018   2.108   4.227   4.777
 8693TIP3   OH226019   6.027   4.184   0.881
 8693TIP3    H126020   6.038   4.093   0.852
 8693TIP3    H226021   6.084   4.235   0.824
 8694TIP3   OH226022   6.863   6.616   6.376
 8694TIP3    H126023   6.949   6.649   6.347
 8694TIP3    H226024   6.805   6.691   6.367
 8695TIP3   OH226025   7.648   0.673   3.830
 8695TIP3    H126026   7.673   0.581   3.821
 8695TIP3    H226027   7.581   0.686   3.763
 8696TIP3   OH226028   6.776   5.169   0.776
 8696TIP3    H126029   6.842   5.135   0.835
 8696TIP3    H226030   6.745   5.250   0.818
 8697TIP3   OH226031   3.166   1.473   1.432
 8697TIP3    H126032   3.174   1.413   1.357
 8697TIP3    H226033   3.245   1.457   1.484
 8698TIP3   OH226034   2.366   4.059   5.105
 8698TIP3    H126035   2.280   4.031   5.074
 8698TIP3    H226036   2.356   4.152   5.122
 8699TIP3   OH226037   4.742   0.539   2.528
 8699TIP3    H126038   4.661   0.562   2.483
 8699TIP3    H226039   4.794   0.620   2.525
 8700TIP3   OH226040   1.863   2.519   1.101
 8700TIP3    H126041   1.770   2.503   1.087
 8700TIP3    H226042   1.874   2.515   1.196
 8701TIP3   OH226043   6.987   4.391   0.732
 8701TIP3    H126044   7.076   4.408   0.702
 8701TIP3    H226045   6.963   4.468   0.783
 8702TIP3   OH226046   4.883   1.910   3.777
 8702TIP3    H126047   4.944   1.837   3.770
 8702TIP3    H226048   4.860   1.914   3.870
 8703TIP3   OH226049   6.852   1.684   5.074
 8703TIP3    H126050   6.889   1.739   5.144
 8703TIP3    H226051   6.926   1.634   5.041
 8704TIP3   OH226052   6.194   3.817   0.235
 8704TIP3    H126053   6.121   3.761   0.261
 8704TIP3    H226054   6.243   3.765   0.171
 8705TIP3   OH226055   0.538   6.372   0.366
 8705TIP3    H126056   0.475   6.334   0.305
 8705TIP3    H226057   0.623   6.358   0.325
 8706TIP3   OH226058   7.216   2.420   1.527
 8706TIP3    H126059   7.169   2.504   1.530
 8706TIP3    H226060   7.251   2.409   1.615
 8707TIP3   OH226061   8.338   6.648   4.165
 8707TIP3    H126062   8.285   6.633   4.087
 8707TIP3    H226063   8.348   6.561   4.205
 8708TIP3   OH226064   8.315   3.470   2.531
 8708TIP3    H126065   8.404   3.493   2.557
 8708TIP3    H226066   8.318   3.468   2.435
 8709TIP3   OH226067   6.192   6.489   0.079
 8709TIP3    H126068   6.237   6.535   0.008
 8709TIP3    H226069   6.260   6.434   0.119
 8710TIP3   OH226070   1.015   1.986   1.950
 8710TIP3    H126071   0.983   1.898   1.969
 8710TIP3    H226072   0.990   2.038   2.026
 8711TIP3   OH226073   2.138   3.184   4.792
 8711TIP3    H126074   2.125   3.278   4.805
 8711TIP3    H226075   2.050   3.149   4.781
 8712TIP3   OH226076   0.294   0.416   3.309
 8712TIP3    H126077   0.354   0.470   3.256
 8712TIP3    H226078   0.319   0.435   3.399
 8713TIP3   OH226079   8.144   3.500   5.149
 8713TIP3    H126080   8.233   3.465   5.146
 8713TIP3    H226081   8.152   3.590   5.118
 8714TIP3   OH226082   6.849   3.316   0.950
 8714TIP3    H126083   6.894   3.232   0.947
 8714TIP3    H226084   6.821   3.332   0.860
 8715TIP3   OH226085   6.084   3.138   4.363
 8715TIP3    H126086   6.068   3.140   4.457
 8715TIP3    H226087   6.111   3.048   4.345
 8716TIP3   OH226088   3.446   3.016   1.959
 8716TIP3    H126089   3.516   3.056   2.010
 8716TIP3    H226090   3.372   3.076   1.969
 8717TIP3   OH226091   6.791   4.124   6.530
 8717TIP3    H126092   6.714   4.101   6.477
 8717TIP3    H226093   6.823   4.205   6.491
 8718TIP3   OH226094   7.464   2.703   0.417
 8718TIP3    H126095   7.491   2.613   0.436
 8718TIP3    H226096   7.425   2.734   0.499
 8719TIP3   OH226097   0.486   3.127   6.599
 8719TIP3    H126098   0.411   3.156   6.651
 8719TIP3    H226099   0.451   3.058   6.543
 8720TIP3   OH226100   7.165   5.053   0.221
 8720TIP3    H126101   7.238   5.097   0.178
 8720TIP3    H226102   7.203   4.975   0.262
 8721TIP3   OH226103   0.095   2.637   6.114
 8721TIP3    H126104   0.016   2.650   6.168
 8721TIP3    H226105   0.075   2.560   6.061
 8722TIP3   OH226106   2.433   4.421   2.489
 8722TIP3    H126107   2.477   4.362   2.429
 8722TIP3    H226108   2.369   4.366   2.535
 8723TIP3   OH226109   4.858   0.715   0.040
 8723TIP3    H126110   4.853   0.619   0.044
 8723TIP3    H226111   4.881   0.733  -0.051
 8724TIP3   OH226112   2.635   4.645   6.293
 8724TIP3    H126113   2.634   4.658   6.198
 8724TIP3    H226114   2.710   4.588   6.308
 8725TIP3   OH226115   1.835   1.907   4.880
 8725TIP3    H126116   1.907   1.850   4.853
 8725TIP3    H226117   1.840   1.908   4.976
 8726TIP3   OH226118   2.951   1.539   4.385
 8726TIP3    H126119   3.011   1.600   4.342
 8726TIP3    H226120   2.932   1.473   4.319
 8727TIP3   OH226121   3.425   4.904   3.839
 8727TIP3    H126122   3.510   4.862   3.830
 8727TIP3    H226123   3.441   4.981   3.893
 8728TIP3   OH226124   2.729   0.400   0.688
 8728TIP3    H126125   2.752   0.338   0.619
 8728TIP3    H226126   2.806   0.456   0.697
 8729TIP3   OH226127   7.088   4.217   4.690
 8729TIP3    H126128   7.090   4.220   4.594
 8729TIP3    H226129   7.146   4.144   4.713
 8730TIP3   OH226130   0.672   3.085   6.810
 8730TIP3    H126131   0.616   3.090   6.733
 8730TIP3    H226132   0.761   3.081   6.775
 8731TIP3   OH226133   5.389   2.863   6.186
 8731TIP3    H126134   5.460   2.847   6.249
 8731TIP3    H226135   5.390   2.785   6.130
 8732TIP3   OH226136   7.237   2.581   3.659
 8732TIP3    H126137   7.326   2.595   3.693
 8732TIP3    H226138   7.247   2.585   3.564
 8733TIP3   OH226139   3.272   4.949   1.260
 8733TIP3    H126140   3.265   4.894   1.182
 8733TIP3    H226141   3.357   4.992   1.252
 8734TIP3   OH226142   8.178   2.286   0.122
 8734TIP3    H126143   8.134   2.367   0.149
 8734TIP3    H226144   8.236   2.313   0.051
 8735TIP3   OH226145   1.643   1.389   0.694
 8735TIP3    H126146   1.671   1.297   0.691
 8735TIP3    H226147   1.697   1.428   0.763
 8736TIP3   OH226148   4.688   2.690   3.663
 8736TIP3    H126149   4.714   2.780   3.646
 8736TIP3    H226150   4.701   2.679   3.757
 8737TIP3   OH226151   2.718   6.680   6.038
 8737TIP3    H126152   2.780   6.754   6.035
 8737TIP3    H226153   2.746   6.623   5.967
 8738TIP3   OH226154   6.148   4.939   6.175
 8738TIP3    H126155   6.128   4.989   6.096
 8738TIP3    H226156   6.158   4.849   6.144
 8739TIP3   OH226157   6.391   3.333   6.651
 8739TIP3    H126158   6.390   3.421   6.615
 8739TIP3    H226159   6.353   3.341   6.738
 8740TIP3   OH226160   7.078   7.643   1.856
 8740TIP3    H126161   7.090   7.556   1.818
 8740TIP3    H226162   7.066   7.701   1.781
 8741TIP3   OH226163   3.223   1.937   2.005
 8741TIP3    H126164   3.281   1.988   2.061
 8741TIP3    H226165   3.269   1.854   1.992
 8742TIP3   OH226166   3.899   3.893   5.627
 8742TIP3    H126167   3.856   3.809   5.610
 8742TIP3    H226168   3.947   3.912   5.547
 8743TIP3   OH226169   4.220   2.634   3.422
 8743TIP3    H126170   4.144   2.577   3.414
 8743TIP3    H226171   4.283   2.599   3.359
 8744TIP3   OH226172   2.638   0.197   0.923
 8744TIP3    H126173   2.630   0.234   0.835
 8744TIP3    H226174   2.548   0.186   0.954
 8745TIP3   OH226175   5.695   5.922   0.087
 8745TIP3    H126176   5.769   5.906   0.146
 8745TIP3    H226177   5.690   6.017   0.080
 8746TIP3   OH226178   6.778   3.225   2.566
 8746TIP3    H126179   6.699   3.261   2.526
 8746TIP3    H226180   6.782   3.266   2.652
 8747TIP3   OH226181   3.155   5.538   2.931
 8747TIP3    H126182   3.085   5.522   2.868
 8747TIP3    H226183   3.126   5.614   2.980
 8748TIP3   OH226184   1.029   0.699   3.366
 8748TIP3    H126185   1.079   0.722   3.444
 8748TIP3    H226186   0.976   0.623   3.392
 8749TIP3   OH226187   3.744   2.175   0.717
 8749TIP3    H126188   3.722   2.182   0.810
 8749TIP3    H226189   3.659   2.163   0.674
 8750TIP3   OH226190   2.163   4.996   0.915
 8750TIP3    H126191   2.107   5.066   0.880
 8750TIP3    H226192   2.161   4.928   0.847
 8751TIP3   OH226193   5.702   1.238   2.089
 8751TIP3    H126194   5.684   1.246   2.182
 8751TIP3    H226195   5.796   1.253   2.081
 8752TIP3   OH226196   4.417   7.252   2.205
 8752TIP3    H126197   4.470   7.322   2.243
 8752TIP3    H226198   4.361   7.296   2.141
 8753TIP3   OH226199   0.403   1.510   6.311
 8753TIP3    H126200   0.385   1.506   6.405
 8753TIP3    H226201   0.480   1.567   6.304
 8754TIP3   OH226202   4.678   4.059   5.405
 8754TIP3    H126203   4.611   4.088   5.466
 8754TIP3    H226204   4.643   4.081   5.318
 8755TIP3   OH226205   0.308   0.839   0.096
 8755TIP3    H126206   0.294   0.784   0.019
 8755TIP3    H226207   0.304   0.928   0.062
 8756TIP3   OH226208   1.187   3.247   0.482
 8756TIP3    H126209   1.238   3.308   0.430
 8756TIP3    H226210   1.158   3.181   0.419
 8757TIP3   OH226211   2.643   6.166   0.872
 8757TIP3    H126212   2.640   6.249   0.921
 8757TIP3    H226213   2.568   6.171   0.813
 8758TIP3   OH226214   0.288   2.359   2.594
 8758TIP3    H126215   0.329   2.443   2.575
 8758TIP3    H226216   0.251   2.331   2.510
 8759TIP3   OH226217   7.444   2.905   3.589
 8759TIP3    H126218   7.454   2.911   3.494
 8759TIP3    H226219   7.398   2.986   3.614
 8760TIP3   OH226220   7.161   5.405   2.702
 8760TIP3    H126221   7.124   5.484   2.743
 8760TIP3    H226222   7.197   5.436   2.619
 8761TIP3   OH226223   3.924   4.851   5.784
 8761TIP3    H126224   3.864   4.854   5.709
 8761TIP3    H226225   3.884   4.787   5.844
 8762TIP3   OH226226   5.049   5.916   2.097
 8762TIP3    H126227   5.036   6.008   2.122
 8762TIP3    H226228   5.032   5.867   2.177
 8763TIP3   OH226229   7.672   2.413   5.319
 8763TIP3    H126230   7.679   2.337   5.376
 8763TIP3    H226231   7.598   2.392   5.262
 8764TIP3   OH226232   3.413   6.039   5.329
 8764TIP3    H126233   3.465   5.959   5.328
 8764TIP3    H226234   3.324   6.010   5.308
 8765TIP3   OH226235   0.766   0.284   5.008
 8765TIP3    H126236   0.741   0.376   5.004
 8765TIP3    H226237   0.861   0.285   5.020
 8766TIP3   OH226238   4.445   1.645   2.170
 8766TIP3    H126239   4.355   1.650   2.201
 8766TIP3    H226240   4.473   1.736   2.161
 8767TIP3   OH226241   7.129   0.987   2.288
 8767TIP3    H126242   7.140   0.910   2.343
 8767TIP3    H226243   7.187   1.053   2.326
 8768TIP3   OH226244   6.850   6.441   2.942
 8768TIP3    H126245   6.767   6.471   2.904
 8768TIP3    H226246   6.875   6.511   3.003
 8769TIP3   OH226247   6.780   5.232   0.365
 8769TIP3    H126248   6.767   5.321   0.334
 8769TIP3    H226249   6.856   5.200   0.317
 8770TIP3   OH226250   3.425   0.140   5.175
 8770TIP3    H126251   3.486   0.196   5.224
 8770TIP3    H226252   3.340   0.181   5.188
 8771TIP3   OH226253   2.392   0.702   1.586
 8771TIP3    H126254   2.459   0.714   1.653
 8771TIP3    H226255   2.331   0.638   1.624
 8772TIP3   OH226256   1.374   2.423   0.985
 8772TIP3    H126257   1.325   2.481   1.044
 8772TIP3    H226258   1.353   2.335   1.015
 8773TIP3   OH226259   0.914   6.490   0.017
 8773TIP3    H126260   0.849   6.555   0.042
 8773TIP3    H226261   0.962   6.472   0.097
 8774TIP3   OH226262   5.295   5.525   1.751
 8774TIP3    H126263   5.206   5.523   1.787
 8774TIP3    H226264   5.284   5.499   1.659
 8775TIP3   OH226265   1.512   5.845   6.784
 8775TIP3    H126266   1.559   5.876   6.706
 8775TIP3    H226267   1.573   5.785   6.827
 8776TIP3   OH226268   5.938   2.527   4.649
 8776TIP3    H126269   5.949   2.580   4.570
 8776TIP3    H226270   6.027   2.509   4.678
 8777TIP3   OH226271   2.235   1.710   0.894
 8777TIP3    H126272   2.143   1.693   0.916
 8777TIP3    H226273   2.234   1.728   0.800
 8778TIP3   OH226274   0.490   6.013   2.529
 8778TIP3    H126275   0.574   6.005   2.574
 8778TIP3    H226276   0.508   6.068   2.453
 8779TIP3   OH226277   2.189   2.482   2.151
 8779TIP3    H126278   2.193   2.518   2.062
 8779TIP3    H226279   2.155   2.554   2.204
 8780TIP3   OH226280   0.557   4.839   2.107
 8780TIP3    H126281   0.512   4.905   2.159
 8780TIP3    H226282   0.571   4.880   2.021
 8781TIP3   OH226283   5.763   6.189   1.986
 8781TIP3    H126284   5.680   6.202   2.032
 8781TIP3    H226285   5.829   6.189   2.056
 8782TIP3   OH226286   0.730   6.920   0.672
 8782TIP3    H126287   0.676   6.935   0.594
 8782TIP3    H226288   0.768   7.005   0.692
 8783TIP3   OH226289   3.052   1.452   5.848
 8783TIP3    H126290   3.099   1.372   5.825
 8783TIP3    H226291   3.121   1.517   5.862
 8784TIP3   OH226292   5.859   3.103   5.957
 8784TIP3    H126293   5.854   3.195   5.930
 8784TIP3    H226294   5.783   3.090   6.013
 8785TIP3   OH226295   3.438   4.644   1.491
 8785TIP3    H126296   3.373   4.676   1.427
 8785TIP3    H226297   3.416   4.552   1.503
 8786TIP3   OH226298   2.892   2.948   2.910
 8786TIP3    H126299   2.902   2.914   2.821
 8786TIP3    H226300   2.952   3.022   2.914
 8787TIP3   OH226301   6.922   1.839   4.689
 8787TIP3    H126302   6.956   1.865   4.774
 8787TIP3    H226303   6.995   1.790   4.648
 8788TIP3   OH226304   4.217   6.350   4.914
 8788TIP3    H126305   4.254   6.438   4.922
 8788TIP3    H226306   4.260   6.313   4.837
 8789TIP3   OH226307   2.682   6.414   0.156
 8789TIP3    H126308   2.657   6.474   0.225
 8789TIP3    H226309   2.670   6.463   0.075
 8790TIP3   OH226310   2.801   7.463   5.771
 8790TIP3    H126311   2.809   7.473   5.866
 8790TIP3    H226312   2.880   7.503   5.735
 8791TIP3   OH226313   3.975   7.850   0.367
 8791TIP3    H126314   4.018   7.929   0.401
 8791TIP3    H226315   3.882   7.864   0.385
 8792TIP3   OH226316   2.264   4.981   5.785
 8792TIP3    H126317   2.196   4.962   5.720
 8792TIP3    H226318   2.254   4.913   5.852
 8793TIP3   OH226319   7.775   1.294   6.534
 8793TIP3    H126320   7.832   1.221   6.554
 8793TIP3    H226321   7.826   1.372   6.556
 8794TIP3   OH226322   7.714   1.780   0.854
 8794TIP3    H126323   7.653   1.734   0.797
 8794TIP3    H226324   7.792   1.794   0.800
 8795TIP3   OH226325   1.718   5.827   3.072
 8795TIP3    H126326   1.700   5.902   3.128
 8795TIP3    H226327   1.764   5.863   2.997
 8796TIP3   OH226328   1.047   7.058   4.197
 8796TIP3    H126329   1.082   6.970   4.206
 8796TIP3    H226330   0.968   7.047   4.145
 8797TIP3   OH226331   8.099   2.004   1.850
 8797TIP3    H126332   8.115   1.973   1.761
 8797TIP3    H226333   8.063   2.092   1.839
 8798TIP3   OH226334   1.800   6.165   1.000
 8798TIP3    H126335   1.706   6.157   1.017
 8798TIP3    H226336   1.838   6.088   1.042
 8799TIP3   OH226337   3.437   4.238   4.348
 8799TIP3    H126338   3.520   4.219   4.305
 8799TIP3    H226339   3.371   4.196   4.293
 8800TIP3   OH226340   2.945   7.388   1.544
 8800TIP3    H126341   2.962   7.368   1.452
 8800TIP3    H226342   2.922   7.481   1.545
 8801TIP3   OH226343   5.491   7.390   3.580
 8801TIP3    H126344   5.553   7.328   3.543
 8801TIP3    H226345   5.418   7.336   3.612
 8802TIP3   OH226346   7.505   1.003   2.444
 8802TIP3    H126347   7.460   1.022   2.526
 8802TIP3    H226348   7.538   0.914   2.454
 8803TIP3   OH226349   0.877   0.203   5.939
 8803TIP3    H126350   0.955   0.254   5.916
 8803TIP3    H226351   0.903   0.112   5.923
 8804TIP3   OH226352   2.055   1.327   1.945
 8804TIP3    H126353   2.048   1.422   1.939
 8804TIP3    H226354   2.138   1.311   1.989
 8805TIP3   OH226355   7.607   2.501   3.516
 8805TIP3    H126356   7.678   2.446   3.547
 8805TIP3    H226357   7.648   2.562   3.455
 8806TIP3   OH226358   6.201   6.005   5.267
 8806TIP3    H126359   6.285   5.959   5.277
 8806TIP3    H226360   6.220   6.078   5.208
 8807TIP3   OH226361   1.194   3.348   2.392
 8807TIP3    H126362   1.142   3.269   2.406
 8807TIP3    H226363   1.221   3.343   2.301
 8808TIP3   OH226364   0.685   0.561   1.807
 8808TIP3    H126365   0.699   0.527   1.719
 8808TIP3    H226366   0.770   0.553   1.850
 8809TIP3   OH226367   3.732   2.646   2.080
 8809TIP3    H126368   3.723   2.607   2.168
 8809TIP3    H226369   3.823   2.675   2.076
 8810TIP3   OH226370   7.015   3.499   4.634
 8810TIP3    H126371   7.081   3.467   4.572
 8810TIP3    H226372   6.997   3.425   4.691
 8811TIP3   OH226373   4.980   4.702   5.312
 8811TIP3    H126374   4.931   4.625   5.284
 8811TIP3    H226375   5.001   4.749   5.231
 8812TIP3   OH226376   1.569   2.925   2.610
 8812TIP3    H126377   1.621   2.963   2.539
 8812TIP3    H226378   1.572   2.990   2.680
 8813TIP3   OH226379   6.569   4.869   2.731
 8813TIP3    H126380   6.503   4.853   2.664
 8813TIP3    H226381   6.649   4.888   2.682
 8814TIP3   OH226382   0.400   3.474   0.802
 8814TIP3    H126383   0.308   3.476   0.775
 8814TIP3    H226384   0.422   3.381   0.804
 8815TIP3   OH226385   0.323   7.527   5.811
 8815TIP3    H126386   0.371   7.521   5.894
 8815TIP3    H226387   0.266   7.450   5.811
 8816TIP3   OH226388   3.389   2.536   6.476
 8816TIP3    H126389   3.322   2.575   6.420
 8816TIP3    H226390   3.376   2.442   6.469
 8817TIP3   OH226391   1.480   5.202   1.616
 8817TIP3    H126392   1.435   5.285   1.606
 8817TIP3    H226393   1.569   5.226   1.643
 8818TIP3   OH226394   2.035   7.108   4.814
 8818TIP3    H126395   1.995   7.192   4.794
 8818TIP3    H226396   2.044   7.108   4.910
 8819TIP3   OH226397   6.247   0.301   0.257
 8819TIP3    H126398   6.166   0.271   0.297
 8819TIP3    H226399   6.225   0.386   0.218
 8820TIP3   OH226400   2.238   4.293   5.095
 8820TIP3    H126401   2.178   4.277   5.022
 8820TIP3    H226402   2.181   4.325   5.166
 8821TIP3   OH226403   3.869   6.403   5.981
 8821TIP3    H126404   3.776   6.381   5.981
 8821TIP3    H226405   3.913   6.321   5.960
 8822TIP3   OH226406   5.169   5.559   3.055
 8822TIP3    H126407   5.249   5.612   3.055
 8822TIP3    H226408   5.123   5.585   3.135
 8823TIP3   OH226409   7.297   0.697   0.446
 8823TIP3    H126410   7.237   0.750   0.393
 8823TIP3    H226411   7.384   0.728   0.422
 8824TIP3   OH226412   0.257   3.469   6.668
 8824TIP3    H126413   0.224   3.433   6.751
 8824TIP3    H226414   0.312   3.543   6.695
 8825TIP3   OH226415   1.608   7.546   0.285
 8825TIP3    H126416   1.587   7.556   0.192
 8825TIP3    H226417   1.557   7.613   0.329
 8826TIP3   OH226418   1.670   2.532   4.495
 8826TIP3    H126419   1.725   2.484   4.433
 8826TIP3    H226420   1.724   2.606   4.522
 8827TIP3   OH226421   6.390   6.399   5.211
 8827TIP3    H126422   6.319   6.449   5.171
 8827TIP3    H226423   6.453   6.464   5.242
 8828TIP3   OH226424   5.976   6.696   1.193
 8828TIP3    H126425   5.973   6.611   1.237
 8828TIP3    H226426   5.885   6.711   1.166
 8829TIP3   OH226427   5.174   2.422   3.361
 8829TIP3    H126428   5.133   2.346   3.403
 8829TIP3    H226429   5.109   2.492   3.371
 8830TIP3   OH226430   7.020   0.420   3.852
 8830TIP3    H126431   7.005   0.487   3.785
 8830TIP3    H226432   7.003   0.337   3.807
 8831TIP3   OH226433   1.761   4.146   1.621
 8831TIP3    H126434   1.689   4.158   1.559
 8831TIP3    H226435   1.812   4.073   1.585
 8832TIP3   OH226436   5.380   3.805   5.854
 8832TIP3    H126437   5.297   3.833   5.817
 8832TIP3    H226438   5.442   3.873   5.828
 8833TIP3   OH226439   1.104   5.971   4.642
 8833TIP3    H126440   1.038   6.040   4.643
 8833TIP3    H226441   1.099   5.934   4.554
 8834TIP3   OH226442   3.788   3.642   5.586
 8834TIP3    H126443   3.853   3.572   5.579
 8834TIP3    H226444   3.715   3.603   5.635
 8835TIP3   OH226445   3.998   5.552   1.785
 8835TIP3    H126446   4.065   5.562   1.717
 8835TIP3    H226447   3.938   5.625   1.770
 8836TIP3   OH226448   0.304   6.452   6.802
 8836TIP3    H126449   0.397   6.474   6.804
 8836TIP3    H226450   0.299   6.376   6.744
 8837TIP3   OH226451   5.049   7.307   3.795
 8837TIP3    H126452   5.102   7.298   3.874
 8837TIP3    H226453   5.028   7.400   3.790
 8838TIP3   OH226454   5.688   2.027   4.115
 8838TIP3    H126455   5.721   1.940   4.136
 8838TIP3    H226456   5.751   2.062   4.051
 8839TIP3   OH226457   5.945   2.325   5.603
 8839TIP3    H126458   5.891   2.252   5.573
 8839TIP3    H226459   5.996   2.351   5.526
 8840TIP3   OH226460   0.353   3.520   1.326
 8840TIP3    H126461   0.447   3.530   1.344
 8840TIP3    H226462   0.310   3.550   1.407
 8841TIP3   OH226463   0.014   4.664   5.317
 8841TIP3    H126464   0.030   4.731   5.250
 8841TIP3    H226465   0.077   4.595   5.298
 8842TIP3   OH226466   3.586   6.198   5.733
 8842TIP3    H126467   3.504   6.151   5.721
 8842TIP3    H226468   3.605   6.236   5.647
 8843TIP3   OH226469   0.271   2.955   0.451
 8843TIP3    H126470   0.182   2.939   0.483
 8843TIP3    H226471   0.327   2.919   0.519
 8844TIP3   OH226472   7.907   7.080   5.471
 8844TIP3    H126473   7.859   7.157   5.502
 8844TIP3    H226474   7.910   7.022   5.548
 8845TIP3   OH226475   1.103   3.074   0.284
 8845TIP3    H126476   1.098   3.047   0.192
 8845TIP3    H226477   1.013   3.063   0.317
 8846TIP3   OH226478   6.286   4.238   0.134
 8846TIP3    H126479   6.261   4.276   0.050
 8846TIP3    H226480   6.262   4.303   0.199
 8847TIP3   OH226481   5.922   0.576   3.101
 8847TIP3    H126482   6.000   0.560   3.048
 8847TIP3    H226483   5.858   0.513   3.068
 8848TIP3   OH226484   4.716   7.063   1.547
 8848TIP3    H126485   4.786   7.018   1.501
 8848TIP3    H226486   4.651   7.082   1.479
 8849TIP3   OH226487   3.666   1.373   5.128
 8849TIP3    H126488   3.576   1.396   5.149
 8849TIP3    H226489   3.679   1.287   5.169
 8850TIP3   OH226490   2.950   6.976   6.534
 8850TIP3    H126491   2.951   6.916   6.609
 8850TIP3    H226492   2.868   6.957   6.490
 8851TIP3   OH226493   3.698   0.925   5.343
 8851TIP3    H126494   3.658   0.859   5.286
 8851TIP3    H226495   3.767   0.965   5.289
 8852TIP3   OH226496   2.200   0.813   1.223
 8852TIP3    H126497   2.131   0.876   1.244
 8852TIP3    H226498   2.258   0.816   1.298
 8853TIP3   OH226499   0.249   1.104   5.309
 8853TIP3    H126500   0.204   1.162   5.247
 8853TIP3    H226501   0.247   1.018   5.266
 8854TIP3   OH226502   0.181   0.373   6.581
 8854TIP3    H126503   0.166   0.286   6.544
 8854TIP3    H226504   0.212   0.357   6.670
 8855TIP3   OH226505   6.644   5.087   2.879
 8855TIP3    H126506   6.613   5.142   2.807
 8855TIP3    H226507   6.613   4.999   2.857
 8856TIP3   OH226508   6.372   1.718   6.462
 8856TIP3    H126509   6.399   1.657   6.394
 8856TIP3    H226510   6.316   1.667   6.520
 8857TIP3   OH226511   0.346   3.893   2.551
 8857TIP3    H126512   0.414   3.849   2.602
 8857TIP3    H226513   0.370   3.874   2.460
 8858TIP3   OH226514   1.715   2.937   3.587
 8858TIP3    H126515   1.708   2.848   3.552
 8858TIP3    H226516   1.685   2.929   3.677
 8859TIP3   OH226517   0.921   1.936   0.039
 8859TIP3    H126518   0.973   1.876   0.092
 8859TIP3    H226519   0.971   2.017   0.039
 8860TIP3   OH226520   4.459   2.329   0.237
 8860TIP3    H126521   4.364   2.331   0.229
 8860TIP3    H226522   4.490   2.331   0.146
 8861TIP3   OH226523   3.456   1.865   5.254
 8861TIP3    H126524   3.394   1.793   5.257
 8861TIP3    H226525   3.455   1.894   5.163
 8862TIP3   OH226526   7.656   5.600   4.914
 8862TIP3    H126527   7.646   5.548   4.994
 8862TIP3    H226528   7.707   5.545   4.855
 8863TIP3   OH226529   2.712   5.210   5.264
 8863TIP3    H126530   2.717   5.300   5.296
 8863TIP3    H226531   2.792   5.168   5.294
 8864TIP3   OH226532   4.496   2.173   5.823
 8864TIP3    H126533   4.418   2.225   5.803
 8864TIP3    H226534   4.568   2.234   5.813
 8865TIP3   OH226535   4.743   7.784   0.695
 8865TIP3    H126536   4.836   7.795   0.673
 8865TIP3    H226537   4.707   7.736   0.620
 8866TIP3   OH226538   0.829   2.723   4.713
 8866TIP3    H126539   0.773   2.742   4.789
 8866TIP3    H226540   0.860   2.634   4.729
 8867TIP3   OH226541   6.916   7.518   0.665
 8867TIP3    H126542   6.837   7.548   0.621
 8867TIP3    H226543   6.915   7.561   0.750
 8868TIP3   OH226544   7.991   2.043   4.798
 8868TIP3    H126545   8.057   2.063   4.865
 8868TIP3    H226546   7.908   2.070   4.837
 8869TIP3   OH226547   7.714   4.688   1.329
 8869TIP3    H126548   7.736   4.681   1.422
 8869TIP3    H226549   7.798   4.701   1.285
 8870TIP3   OH226550   3.155   0.604   1.941
 8870TIP3    H126551   3.194   0.546   2.007
 8870TIP3    H226552   3.078   0.557   1.911
 8871TIP3   OH226553   0.503   3.567   3.063
 8871TIP3    H126554   0.555   3.490   3.042
 8871TIP3    H226555   0.434   3.535   3.121
 8872TIP3   OH226556   2.717   5.654   4.441
 8872TIP3    H126557   2.790   5.597   4.419
 8872TIP3    H226558   2.687   5.689   4.356
 8873TIP3   OH226559   2.246   2.299   1.895
 8873TIP3    H126560   2.158   2.282   1.861
 8873TIP3    H226561   2.265   2.389   1.869
 8874TIP3   OH226562   2.708   1.214   5.838
 8874TIP3    H126563   2.613   1.203   5.838
 8874TIP3    H226564   2.727   1.255   5.923
 8875TIP3   OH226565   0.034   6.429   2.161
 8875TIP3    H126566   0.058   6.410   2.252
 8875TIP3    H226567   0.117   6.453   2.119
 8876TIP3   OH226568   6.487   1.009   2.557
 8876TIP3    H126569   6.546   0.935   2.542
 8876TIP3    H226570   6.402   0.968   2.575
 8877TIP3   OH226571   7.308   4.359   3.679
 8877TIP3    H126572   7.297   4.314   3.595
 8877TIP3    H226573   7.233   4.331   3.731
 8878TIP3   OH226574   6.811   6.850   1.619
 8878TIP3    H126575   6.787   6.911   1.549
 8878TIP3    H226576   6.906   6.838   1.609
 8879TIP3   OH226577   6.059   1.317   2.381
 8879TIP3    H126578   6.083   1.227   2.359
 8879TIP3    H226579   6.129   1.348   2.438
 8880TIP3   OH226580   1.793   1.193   5.464
 8880TIP3    H126581   1.721   1.227   5.411
 8880TIP3    H226582   1.861   1.170   5.400
 8881TIP3   OH226583   0.989   7.551   1.417
 8881TIP3    H126584   0.989   7.555   1.513
 8881TIP3    H226585   1.047   7.622   1.390
 8882TIP3   OH226586   7.088   1.553   5.076
 8882TIP3    H126587   7.170   1.552   5.027
 8882TIP3    H226588   7.115   1.550   5.168
 8883TIP3   OH226589   2.885   7.518   0.703
 8883TIP3    H126590   2.803   7.472   0.721
 8883TIP3    H226591   2.864   7.578   0.632
 8884TIP3   OH226592   4.925   4.937   5.053
 8884TIP3    H126593   4.944   4.968   4.964
 8884TIP3    H226594   5.005   4.953   5.102
 8885TIP3   OH226595   5.416   4.043   3.519
 8885TIP3    H126596   5.476   4.049   3.594
 8885TIP3    H226597   5.463   4.086   3.447
 8886TIP3   OH226598   0.123   3.382   3.495
 8886TIP3    H126599   0.062   3.372   3.568
 8886TIP3    H226600   0.101   3.467   3.457
 8887TIP3   OH226601   2.319   4.975   6.155
 8887TIP3    H126602   2.237   5.024   6.154
 8887TIP3    H226603   2.298   4.894   6.107
 8888TIP3   OH226604   2.294   5.194   1.088
 8888TIP3    H126605   2.348   5.229   1.016
 8888TIP3    H226606   2.247   5.120   1.049
 8889TIP3   OH226607   0.405   2.012   1.991
 8889TIP3    H126608   0.323   2.059   2.002
 8889TIP3    H226609   0.413   2.001   1.896
 8890TIP3   OH226610   5.410   1.853   1.177
 8890TIP3    H126611   5.434   1.858   1.084
 8890TIP3    H226612   5.426   1.941   1.211
 8891TIP3   OH226613   2.763   0.943   0.435
 8891TIP3    H126614   2.794   0.897   0.356
 8891TIP3    H226615   2.753   0.875   0.500
 8892TIP3   OH226616   4.176   0.476   5.746
 8892TIP3    H126617   4.113   0.470   5.818
 8892TIP3    H226618   4.240   0.407   5.764
 8893TIP3   OH226619   4.145   1.358   3.278
 8893TIP3    H126620   4.103   1.366   3.364
 8893TIP3    H226621   4.206   1.284   3.289
 8894TIP3   OH226622   0.364   7.467   0.566
 8894TIP3    H126623   0.288   7.411   0.583
 8894TIP3    H226624   0.430   7.408   0.530
 8895TIP3   OH226625   4.255   7.081   2.731
 8895TIP3    H126626   4.256   7.106   2.823
 8895TIP3    H226627   4.343   7.046   2.715
 8896TIP3   OH226628   4.748   6.181   3.645
 8896TIP3    H126629   4.759   6.086   3.652
 8896TIP3    H226630   4.664   6.192   3.599
 8897TIP3   OH226631   7.122   0.088   2.679
 8897TIP3    H126632   7.094   0.076   2.589
 8897TIP3    H226633   7.059   0.037   2.731
 8898TIP3   OH226634   7.687   5.487   4.115
 8898TIP3    H126635   7.623   5.503   4.185
 8898TIP3    H226636   7.745   5.563   4.117
 8899TIP3   OH226637   8.029   2.301   2.958
 8899TIP3    H126638   8.102   2.335   3.010
 8899TIP3    H226639   8.070   2.267   2.879
 8900TIP3   OH226640   7.298   3.371   4.670
 8900TIP3    H126641   7.254   3.381   4.755
 8900TIP3    H226642   7.304   3.460   4.636
 8901TIP3   OH226643   3.943   3.517   1.961
 8901TIP3    H126644   3.876   3.559   1.908
 8901TIP3    H226645   4.024   3.528   1.911
 8902TIP3   OH226646   6.833   5.783   2.017
 8902TIP3    H126647   6.773   5.713   2.041
 8902TIP3    H226648   6.782   5.863   2.031
 8903TIP3   OH226649   5.405   7.152   6.336
 8903TIP3    H126650   5.321   7.197   6.346
 8903TIP3    H226651   5.470   7.220   6.348
 8904TIP3   OH226652   3.840   3.146   1.103
 8904TIP3    H126653   3.837   3.056   1.070
 8904TIP3    H226654   3.792   3.142   1.186
 8905TIP3   OH226655   4.742   4.044   4.928
 8905TIP3    H126656   4.824   4.000   4.951
 8905TIP3    H226657   4.674   3.979   4.941
 8906TIP3   OH226658   0.682   3.703   3.721
 8906TIP3    H126659   0.607   3.674   3.668
 8906TIP3    H226660   0.651   3.781   3.766
 8907TIP3   OH226661   2.245   2.292   3.852
 8907TIP3    H126662   2.158   2.268   3.883
 8907TIP3    H226663   2.281   2.211   3.815
 8908TIP3   OH226664   3.719   7.422   3.551
 8908TIP3    H126665   3.628   7.444   3.572
 8908TIP3    H226666   3.748   7.494   3.493
 8909TIP3   OH226667   4.135   3.487   4.382
 8909TIP3    H126668   4.050   3.469   4.341
 8909TIP3    H226669   4.172   3.557   4.328
 8910TIP3   OH226670   1.641   0.502   5.944
 8910TIP3    H126671   1.720   0.548   5.916
 8910TIP3    H226672   1.627   0.531   6.034
 8911TIP3   OH226673   1.839   0.730   2.355
 8911TIP3    H126674   1.805   0.771   2.435
 8911TIP3    H226675   1.864   0.804   2.299
 8912TIP3   OH226676   1.625   3.081   0.108
 8912TIP3    H126677   1.636   3.096   0.015
 8912TIP3    H226678   1.714   3.074   0.142
 8913TIP3   OH226679   6.551   4.368   0.257
 8913TIP3    H126680   6.478   4.313   0.285
 8913TIP3    H226681   6.588   4.401   0.339
 8914TIP3   OH226682   1.232   1.654   5.107
 8914TIP3    H126683   1.298   1.613   5.162
 8914TIP3    H226684   1.166   1.686   5.168
 8915TIP3   OH226685   2.064   0.194   6.132
 8915TIP3    H126686   2.099   0.261   6.191
 8915TIP3    H226687   1.976   0.176   6.166
 8916TIP3   OH226688   2.717   2.511   2.526
 8916TIP3    H126689   2.754   2.490   2.440
 8916TIP3    H226690   2.786   2.560   2.570
 8917TIP3   OH226691   3.549   2.768   1.903
 8917TIP3    H126692   3.611   2.771   1.976
 8917TIP3    H226693   3.489   2.841   1.919
 8918TIP3   OH226694   5.835   3.817   0.380
 8918TIP3    H126695   5.851   3.904   0.416
 8918TIP3    H226696   5.782   3.832   0.302
 8919TIP3   OH226697   4.815   0.438   5.593
 8919TIP3    H126698   4.782   0.380   5.661
 8919TIP3    H226699   4.886   0.389   5.551
 8920TIP3   OH226700   7.933   2.461   4.318
 8920TIP3    H126701   7.891   2.517   4.252
 8920TIP3    H226702   7.875   2.385   4.326
 8921TIP3   OH226703   3.225   3.416   0.750
 8921TIP3    H126704   3.207   3.471   0.674
 8921TIP3    H226705   3.301   3.364   0.724
 8922TIP3   OH226706   3.131   7.742   4.402
 8922TIP3    H126707   3.084   7.659   4.410
 8922TIP3    H226708   3.085   7.802   4.460
 8923TIP3   OH226709   7.317   6.649   5.226
 8923TIP3    H126710   7.277   6.621   5.143
 8923TIP3    H226711   7.258   6.615   5.293
 8924TIP3   OH226712   5.364   3.094   3.962
 8924TIP3    H126713   5.441   3.050   3.998
 8924TIP3    H226714   5.289   3.049   4.002
 8925TIP3   OH226715   6.791   7.047   1.811
 8925TIP3    H126716   6.809   7.113   1.744
 8925TIP3    H226717   6.796   6.964   1.765
 8926TIP3   OH226718   6.995   3.884   3.153
 8926TIP3    H126719   6.990   3.974   3.184
 8926TIP3    H226720   7.064   3.884   3.087
 8927TIP3   OH226721   7.773   4.576   4.722
 8927TIP3    H126722   7.828   4.643   4.681
 8927TIP3    H226723   7.693   4.622   4.746
 8928TIP3   OH226724   5.953   3.523   6.319
 8928TIP3    H126725   5.958   3.472   6.400
 8928TIP3    H226726   6.031   3.498   6.270
 8929TIP3   OH226727   3.165   4.969   6.296
 8929TIP3    H126728   3.167   5.065   6.297
 8929TIP3    H226729   3.173   4.944   6.388
 8930TIP3   OH226730   3.494   4.633   3.420
 8930TIP3    H126731   3.440   4.712   3.418
 8930TIP3    H226732   3.467   4.583   3.342
 8931TIP3   OH226733   3.854   3.015   3.645
 8931TIP3    H126734   3.942   3.051   3.636
 8931TIP3    H226735   3.864   2.921   3.633
 8932TIP3   OH226736   5.687   5.303   4.977
 8932TIP3    H126737   5.710   5.374   4.916
 8932TIP3    H226738   5.734   5.227   4.944
 8933TIP3   OH226739   4.533   5.006   4.448
 8933TIP3    H126740   4.534   5.096   4.416
 8933TIP3    H226741   4.597   4.961   4.393
 8934TIP3   OH226742   1.622   3.050   1.273
 8934TIP3    H126743   1.718   3.047   1.271
 8934TIP3    H226744   1.601   3.091   1.357
 8935TIP3   OH226745   1.247   3.173   0.752
 8935TIP3    H126746   1.303   3.095   0.756
 8935TIP3    H226747   1.240   3.192   0.659
 8936TIP3   OH226748   1.423   4.998   2.484
 8936TIP3    H126749   1.375   5.052   2.422
 8936TIP3    H226750   1.457   5.061   2.548
 8937TIP3   OH226751   5.058   2.971   3.044
 8937TIP3    H126752   5.032   3.062   3.030
 8937TIP3    H226753   5.032   2.953   3.135
 8938TIP3   OH226754   6.289   5.621   4.829
 8938TIP3    H126755   6.376   5.643   4.860
 8938TIP3    H226756   6.237   5.700   4.844
 8939TIP3   OH226757   0.356   3.079   1.939
 8939TIP3    H126758   0.308   3.095   2.020
 8939TIP3    H226759   0.429   3.023   1.965
 8940TIP3   OH226760   5.261   7.250   3.610
 8940TIP3    H126761   5.269   7.160   3.578
 8940TIP3    H226762   5.172   7.257   3.644
 8941TIP3   OH226763   5.213   2.745   1.886
 8941TIP3    H126764   5.242   2.702   1.805
 8941TIP3    H226765   5.291   2.792   1.917
 8942TIP3   OH226766   4.265   4.025   1.248
 8942TIP3    H126767   4.202   4.075   1.301
 8942TIP3    H226768   4.348   4.036   1.294
 8943TIP3   OH226769   4.610   6.653   2.915
 8943TIP3    H126770   4.663   6.732   2.907
 8943TIP3    H226771   4.629   6.603   2.836
 8944TIP3   OH226772   2.100   1.564   1.659
 8944TIP3    H126773   2.124   1.609   1.740
 8944TIP3    H226774   2.144   1.614   1.590
 8945TIP3   OH226775   0.033   6.009   6.734
 8945TIP3    H126776  -0.018   6.080   6.773
 8945TIP3    H226777   0.025   5.936   6.795
 8946TIP3   OH226778   5.174   0.268   1.651
 8946TIP3    H126779   5.151   0.355   1.682
 8946TIP3    H226780   5.261   0.251   1.688
 8947TIP3   OH226781   2.095   4.179   1.274
 8947TIP3    H126782   2.064   4.268   1.260
 8947TIP3    H226783   2.016   4.126   1.280
 8948TIP3   OH226784   6.173   6.544   5.003
 8948TIP3    H126785   6.115   6.473   4.976
 8948TIP3    H226786   6.128   6.586   5.076
 8949TIP3   OH226787   3.095   2.322   1.003
 8949TIP3    H126788   3.183   2.289   1.018
 8949TIP3    H226789   3.058   2.262   0.938
 8950TIP3   OH226790   1.028   3.721   5.949
 8950TIP3    H126791   1.109   3.723   6.000
 8950TIP3    H226792   1.058   3.722   5.858
 8951TIP3   OH226793   6.534   0.052   2.257
 8951TIP3    H126794   6.520   0.072   2.349
 8951TIP3    H226795   6.589  -0.026   2.256
 8952TIP3   OH226796   1.618   1.401   1.495
 8952TIP3    H126797   1.578   1.481   1.463
 8952TIP3    H226798   1.673   1.429   1.568
 8953TIP3   OH226799   1.233   7.193   2.914
 8953TIP3    H126800   1.308   7.146   2.951
 8953TIP3    H226801   1.228   7.274   2.966
 8954TIP3   OH226802   5.233   5.096   4.683
 8954TIP3    H126803   5.262   5.097   4.592
 8954TIP3    H226804   5.307   5.131   4.732
 8955TIP3   OH226805   7.582   7.649   3.816
 8955TIP3    H126806   7.542   7.663   3.903
 8955TIP3    H226807   7.674   7.632   3.835
 8956TIP3   OH226808   4.881   0.003   2.385
 8956TIP3    H126809   4.958  -0.031   2.431
 8956TIP3    H226810   4.878   0.096   2.409
 8957TIP3   OH226811   3.337   5.599   6.662
 8957TIP3    H126812   3.349   5.694   6.663
 8957TIP3    H226813   3.416   5.564   6.702
 8958TIP3   OH226814   1.645   3.613   3.052
 8958TIP3    H126815   1.551   3.599   3.054
 8958TIP3    H226816   1.669   3.598   2.960
 8959TIP3   OH226817   0.743   4.234   4.942
 8959TIP3    H126818   0.760   4.183   4.864
 8959TIP3    H226819   0.698   4.312   4.910
 8960TIP3   OH226820   3.307   6.798   3.564
 8960TIP3    H126821   3.256   6.864   3.516
 8960TIP3    H226822   3.292   6.819   3.656
 8961TIP3   OH226823   8.218   3.950   1.947
 8961TIP3    H126824   8.175   3.975   2.029
 8961TIP3    H226825   8.147   3.918   1.891
 8962TIP3   OH226826   6.363   0.784   3.012
 8962TIP3    H126827   6.405   0.856   3.059
 8962TIP3    H226828   6.404   0.705   3.047
 8963TIP3   OH226829   4.801   2.373   6.417
 8963TIP3    H126830   4.779   2.298   6.473
 8963TIP3    H226831   4.764   2.350   6.331
 8964TIP3   OH226832   0.504   4.795   6.526
 8964TIP3    H126833   0.498   4.702   6.549
 8964TIP3    H226834   0.589   4.802   6.482
 8965TIP3   OH226835   7.408   4.037   0.273
 8965TIP3    H126836   7.398   3.996   0.188
 8965TIP3    H226837   7.350   4.113   0.271
 8966TIP3   OH226838   1.778   4.458   5.824
 8966TIP3    H126839   1.816   4.412   5.899
 8966TIP3    H226840   1.809   4.548   5.833
 8967TIP3   OH226841   0.538   3.687   6.628
 8967TIP3    H126842   0.547   3.776   6.660
 8967TIP3    H226843   0.623   3.665   6.591
 8968TIP3   OH226844   6.682   6.105   3.734
 8968TIP3    H126845   6.654   6.016   3.711
 8968TIP3    H226846   6.727   6.136   3.655
 8969TIP3   OH226847   6.518   7.091   1.249
 8969TIP3    H126848   6.424   7.109   1.262
 8969TIP3    H226849   6.553   7.174   1.216
 8970TIP3   OH226850   7.543   5.643   1.096
 8970TIP3    H126851   7.578   5.731   1.107
 8970TIP3    H226852   7.448   5.654   1.099
 8971TIP3   OH226853   5.245   6.071   2.972
 8971TIP3    H126854   5.171   6.011   2.965
 8971TIP3    H226855   5.319   6.024   2.935
 8972TIP3   OH226856   4.879   1.709   5.335
 8972TIP3    H126857   4.921   1.645   5.278
 8972TIP3    H226858   4.795   1.669   5.360
 8973TIP3   OH226859   3.609   1.452   0.136
 8973TIP3    H126860   3.673   1.508   0.179
 8973TIP3    H226861   3.555   1.512   0.084
 8974TIP3   OH226862   7.604   6.739   0.035
 8974TIP3    H126863   7.548   6.776  -0.033
 8974TIP3    H226864   7.562   6.656   0.058
 8975TIP3   OH226865   3.353   4.093   4.585
 8975TIP3    H126866   3.400   4.151   4.525
 8975TIP3    H226867   3.376   4.125   4.672
 8976TIP3   OH226868   7.853   2.428   1.161
 8976TIP3    H126869   7.928   2.484   1.142
 8976TIP3    H226870   7.871   2.393   1.249
 8977TIP3   OH226871   4.065   0.212   4.539
 8977TIP3    H126872   3.990   0.166   4.500
 8977TIP3    H226873   4.102   0.262   4.466
 8978TIP3   OH226874   6.518   7.006   6.794
 8978TIP3    H126875   6.528   6.943   6.723
 8978TIP3    H226876   6.475   6.957   6.864
 8979TIP3   OH226877   4.624   5.046   3.138
 8979TIP3    H126878   4.575   5.021   3.059
 8979TIP3    H226879   4.684   5.115   3.108
 8980TIP3   OH226880   6.327   1.432   6.499
 8980TIP3    H126881   6.401   1.397   6.549
 8980TIP3    H226882   6.357   1.433   6.409
 8981TIP3   OH226883   0.548   1.410   3.917
 8981TIP3    H126884   0.579   1.365   3.995
 8981TIP3    H226885   0.513   1.493   3.949
 8982TIP3   OH226886   4.715   7.220   2.430
 8982TIP3    H126887   4.694   7.310   2.406
 8982TIP3    H226888   4.807   7.223   2.454
 8983TIP3   OH226889   1.073   0.422   6.199
 8983TIP3    H126890   1.051   0.455   6.112
 8983TIP3    H226891   1.168   0.412   6.198
 8984TIP3   OH226892   6.878   1.502   3.928
 8984TIP3    H126893   6.792   1.486   3.967
 8984TIP3    H226894   6.939   1.452   3.982
 8985TIP3   OH226895   4.887   7.367   5.666
 8985TIP3    H126896   4.951   7.426   5.624
 8985TIP3    H226897   4.941   7.300   5.709
 8986TIP3   OH226898   0.708   7.472   1.299
 8986TIP3    H126899   0.644   7.497   1.365
 8986TIP3    H226900   0.780   7.534   1.310
 8987TIP3   OH226901   6.297   2.219   1.814
 8987TIP3    H126902   6.327   2.144   1.865
 8987TIP3    H226903   6.367   2.284   1.824
 8988TIP3   OH226904   7.692   2.534   2.911
 8988TIP3    H126905   7.777   2.519   2.869
 8988TIP3    H226906   7.658   2.613   2.869
 8989TIP3   OH226907   2.294   1.565   3.923
 8989TIP3    H126908   2.358   1.539   3.857
 8989TIP3    H226909   2.301   1.660   3.926
 8990TIP3   OH226910   6.153   2.723   6.432
 8990TIP3    H126911   6.062   2.745   6.411
 8990TIP3    H226912   6.199   2.729   6.349
 8991TIP3   OH226913   1.015   0.736   2.374
 8991TIP3    H126914   0.985   0.676   2.305
 8991TIP3    H226915   1.072   0.682   2.429
 8992TIP3   OH226916   3.334   6.397   2.763
 8992TIP3    H126917   3.346   6.489   2.786
 8992TIP3    H226918   3.419   6.356   2.781
 8993TIP3   OH226919   1.035   7.541   0.912
 8993TIP3    H126920   1.071   7.461   0.950
 8993TIP3    H226921   1.076   7.548   0.826
 8994TIP3   OH226922   5.675   3.617   4.716
 8994TIP3    H126923   5.661   3.704   4.679
 8994TIP3    H226924   5.712   3.633   4.803
 8995TIP3   OH226925   6.958   4.982   0.886
 8995TIP3    H126926   7.019   4.936   0.829
 8995TIP3    H226927   7.013   5.019   0.955
 8996TIP3   OH226928   2.616   1.761   1.985
 8996TIP3    H126929   2.586   1.807   1.907
 8996TIP3    H226930   2.710   1.752   1.973
 8997TIP3   OH226931   2.547   4.942   5.874
 8997TIP3    H126932   2.466   4.961   5.827
 8997TIP3    H226933   2.560   5.017   5.933
 8998TIP3   OH226934   1.181   7.097   4.907
 8998TIP3    H126935   1.098   7.109   4.861
 8998TIP3    H226936   1.200   7.182   4.946
 8999TIP3   OH226937   4.267   4.841   1.029
 8999TIP3    H126938   4.320   4.810   1.103
 8999TIP3    H226939   4.327   4.840   0.955
 9000TIP3   OH226940   2.521   1.698   6.311
 9000TIP3    H126941   2.488   1.724   6.226
 9000TIP3    H226942   2.561   1.612   6.296
 9001TIP3   OH226943   7.027   6.606   3.076
 9001TIP3    H126944   7.120   6.593   3.057
 9001TIP3    H226945   7.023   6.621   3.170
 9002TIP3   OH226946   2.261   4.512   6.364
 9002TIP3    H126947   2.338   4.469   6.401
 9002TIP3    H226948   2.281   4.522   6.271
 9003TIP3   OH226949   0.733   3.443   5.005
 9003TIP3    H126950   0.656   3.385   5.005
 9003TIP3    H226951   0.759   3.448   4.913
 9004TIP3   OH226952   4.466   5.454   1.043
 9004TIP3    H126953   4.532   5.502   1.093
 9004TIP3    H226954   4.448   5.510   0.967
 9005TIP3   OH226955   5.101   0.076   2.831
 9005TIP3    H126956   5.176   0.126   2.864
 9005TIP3    H226957   5.032   0.091   2.896
 9006TIP3   OH226958   6.192   7.234   2.065
 9006TIP3    H126959   6.253   7.198   2.000
 9006TIP3    H226960   6.211   7.183   2.144
 9007TIP3   OH226961   1.316   0.397   6.758
 9007TIP3    H126962   1.388   0.431   6.811
 9007TIP3    H226963   1.300   0.309   6.793
 9008TIP3   OH226964   4.975   4.106   4.082
 9008TIP3    H126965   5.005   4.192   4.054
 9008TIP3    H226966   4.930   4.123   4.165
 9009TIP3   OH226967   1.929   3.080   6.285
 9009TIP3    H126968   1.870   3.005   6.293
 9009TIP3    H226969   1.888   3.148   6.339
 9010TIP3   OH226970   1.888   3.062   5.228
 9010TIP3    H126971   1.866   3.142   5.276
 9010TIP3    H226972   1.855   2.991   5.283
 9011TIP3   OH226973   6.707   7.107   4.751
 9011TIP3    H126974   6.669   7.140   4.670
 9011TIP3    H226975   6.727   7.186   4.802
 9012TIP3   OH226976   5.826   3.601   0.564
 9012TIP3    H126977   5.803   3.521   0.516
 9012TIP3    H226978   5.831   3.669   0.497
 9013TIP3   OH226979   1.709   6.336   1.355
 9013TIP3    H126980   1.775   6.307   1.417
 9013TIP3    H226981   1.757   6.381   1.286
 9014TIP3   OH226982   6.407   5.076   5.628
 9014TIP3    H126983   6.392   5.048   5.718
 9014TIP3    H226984   6.352   5.153   5.617
 9015TIP3   OH226985   4.774   3.220   4.431
 9015TIP3    H126986   4.720   3.277   4.486
 9015TIP3    H226987   4.711   3.171   4.379
 9016TIP3   OH226988   7.164   1.257   5.991
 9016TIP3    H126989   7.218   1.336   6.002
 9016TIP3    H226990   7.155   1.248   5.896
 9017TIP3   OH226991   5.265   0.846   0.649
 9017TIP3    H126992   5.185   0.805   0.616
 9017TIP3    H226993   5.335   0.807   0.596
 9018TIP3   OH226994   7.357   7.258   6.033
 9018TIP3    H126995   7.303   7.253   6.112
 9018TIP3    H226996   7.444   7.283   6.065
 9019TIP3   OH226997   0.404   6.686   6.549
 9019TIP3    H126998   0.497   6.665   6.539
 9019TIP3    H226999   0.397   6.776   6.518
 9020TIP3   OH227000   6.868   2.561   4.211
 9020TIP3    H127001   6.956   2.590   4.186
 9020TIP3    H227002   6.821   2.641   4.232
 9021TIP3   OH227003   3.728   6.094   1.146
 9021TIP3    H127004   3.772   6.017   1.181
 9021TIP3    H227005   3.637   6.066   1.136
 9022TIP3   OH227006   2.954   2.944   0.454
 9022TIP3    H127007   2.970   2.974   0.543
 9022TIP3    H227008   2.975   2.850   0.455
 9023TIP3   OH227009   2.357   1.479   4.705
 9023TIP3    H127010   2.424   1.418   4.737
 9023TIP3    H227011   2.390   1.509   4.620
 9024TIP3   OH227012   4.190   1.851   0.389
 9024TIP3    H127013   4.263   1.874   0.331
 9024TIP3    H227014   4.220   1.877   0.476
 9025TIP3   OH227015   4.511   7.255   1.433
 9025TIP3    H127016   4.464   7.285   1.355
 9025TIP3    H227017   4.452   7.191   1.473
 9026TIP3   OH227018   7.458   6.820   2.919
 9026TIP3    H127019   7.372   6.797   2.884
 9026TIP3    H227020   7.518   6.761   2.874
 9027TIP3   OH227021   2.595   1.998   3.059
 9027TIP3    H127022   2.676   2.048   3.052
 9027TIP3    H227023   2.564   1.990   2.969
 9028TIP3   OH227024   4.511   7.005   0.040
 9028TIP3    H127025   4.515   6.940   0.111
 9028TIP3    H227026   4.468   6.959  -0.032
 9029TIP3   OH227027   5.927   1.448   5.865
 9029TIP3    H127028   5.849   1.407   5.827
 9029TIP3    H227029   5.998   1.387   5.844
 9030TIP3   OH227030   6.621   6.445   4.695
 9030TIP3    H127031   6.535   6.401   4.691
 9030TIP3    H227032   6.670   6.396   4.761
 9031TIP3   OH227033   3.746   4.035   4.480
 9031TIP3    H127034   3.673   3.974   4.487
 9031TIP3    H227035   3.784   4.038   4.568
 9032TIP3   OH227036   6.767   3.603   0.578
 9032TIP3    H127037   6.793   3.695   0.576
 9032TIP3    H227038   6.701   3.595   0.509
 9033TIP3   OH227039   7.388   6.538   0.690
 9033TIP3    H127040   7.440   6.467   0.726
 9033TIP3    H227041   7.301   6.500   0.677
 9034TIP3   OH227042   8.184   3.415   0.786
 9034TIP3    H127043   8.110   3.447   0.838
 9034TIP3    H227044   8.251   3.482   0.796
 9035TIP3   OH227045   5.317   4.162   3.238
 9035TIP3    H127046   5.382   4.217   3.193
 9035TIP3    H227047   5.282   4.219   3.307
 9036TIP3   OH227048   5.806   5.281   4.004
 9036TIP3    H127049   5.741   5.334   4.049
 9036TIP3    H227050   5.847   5.341   3.941
 9037TIP3   OH227051   8.321   4.135   2.775
 9037TIP3    H127052   8.293   4.052   2.812
 9037TIP3    H227053   8.252   4.197   2.799
 9038TIP3   OH227054   2.085   3.486   3.345
 9038TIP3    H127055   2.000   3.480   3.301
 9038TIP3    H227056   2.143   3.432   3.291
 9039TIP3   OH227057   4.164   6.323   5.420
 9039TIP3    H127058   4.185   6.235   5.453
 9039TIP3    H227059   4.220   6.334   5.343
 9040TIP3   OH227060   8.313   5.072   0.722
 9040TIP3    H127061   8.319   5.165   0.700
 9040TIP3    H227062   8.397   5.036   0.695
 9041TIP3   OH227063   4.527   1.441   0.669
 9041TIP3    H127064   4.580   1.465   0.746
 9041TIP3    H227065   4.437   1.446   0.701
 9042TIP3   OH227066   3.420   2.749   2.885
 9042TIP3    H127067   3.402   2.782   2.797
 9042TIP3    H227068   3.400   2.656   2.881
 9043TIP3   OH227069   7.924   6.752   0.400
 9043TIP3    H127070   7.949   6.723   0.487
 9043TIP3    H227071   7.915   6.672   0.349
 9044TIP3   OH227072   0.772   5.403   4.704
 9044TIP3    H127073   0.839   5.335   4.698
 9044TIP3    H227074   0.743   5.417   4.614
 9045TIP3   OH227075   5.909   7.527   4.741
 9045TIP3    H127076   5.854   7.594   4.701
 9045TIP3    H227077   5.931   7.562   4.827
 9046TIP3   OH227078   4.437   4.896   1.522
 9046TIP3    H127079   4.423   4.983   1.486
 9046TIP3    H227080   4.504   4.909   1.589
 9047TIP3   OH227081   2.898   3.428   6.089
 9047TIP3    H127082   2.960   3.427   6.017
 9047TIP3    H227083   2.937   3.371   6.156
 9048TIP3   OH227084   0.428   0.450   3.580
 9048TIP3    H127085   0.430   0.524   3.519
 9048TIP3    H227086   0.477   0.481   3.656
 9049TIP3   OH227087   6.115   0.468   0.478
 9049TIP3    H127088   6.175   0.542   0.469
 9049TIP3    H227089   6.169   0.396   0.508
 9050TIP3   OH227090   5.665   6.282   1.221
 9050TIP3    H127091   5.733   6.221   1.190
 9050TIP3    H227092   5.711   6.365   1.232
 9051TIP3   OH227093   2.137   2.260   6.454
 9051TIP3    H127094   2.201   2.194   6.429
 9051TIP3    H227095   2.187   2.323   6.506
 9052TIP3   OH227096   2.254   5.377   1.298
 9052TIP3    H127097   2.275   5.316   1.227
 9052TIP3    H227098   2.323   5.443   1.294
 9053TIP3   OH227099   4.081   0.145   6.012
 9053TIP3    H127100   3.992   0.139   5.978
 9053TIP3    H227101   4.075   0.211   6.082
 9054TIP3   OH227102   1.212   4.103   6.406
 9054TIP3    H127103   1.195   4.068   6.493
 9054TIP3    H227104   1.158   4.050   6.347
 9055TIP3   OH227105   4.665   0.219   0.463
 9055TIP3    H127106   4.755   0.187   0.463
 9055TIP3    H227107   4.612   0.142   0.445
 9056TIP3   OH227108   7.798   4.540   3.856
 9056TIP3    H127109   7.829   4.513   3.942
 9056TIP3    H227110   7.702   4.537   3.863
 9057TIP3   OH227111   6.643   3.897   1.095
 9057TIP3    H127112   6.622   3.885   1.002
 9057TIP3    H227113   6.628   3.811   1.134
 9058TIP3   OH227114   3.996   6.998   1.504
 9058TIP3    H127115   4.008   6.903   1.505
 9058TIP3    H227116   3.901   7.009   1.500
 9059TIP3   OH227117   1.581   5.896   3.537
 9059TIP3    H127118   1.547   5.901   3.447
 9059TIP3    H227119   1.675   5.912   3.528
 9060TIP3   OH227120   2.439   3.433   0.439
 9060TIP3    H127121   2.348   3.447   0.463
 9060TIP3    H227122   2.443   3.342   0.410
 9061TIP3   OH227123   7.163   3.354   4.925
 9061TIP3    H127124   7.079   3.365   4.881
 9061TIP3    H227125   7.159   3.416   4.999
 9062TIP3   OH227126   7.011   4.075   1.619
 9062TIP3    H127127   6.996   4.013   1.690
 9062TIP3    H227128   7.051   4.023   1.549
 9063TIP3   OH227129   5.862   4.061   3.995
 9063TIP3    H127130   5.832   4.015   4.073
 9063TIP3    H227131   5.797   4.039   3.928
 9064TIP3   OH227132   6.114   3.807   5.449
 9064TIP3    H127133   6.138   3.856   5.370
 9064TIP3    H227134   6.170   3.842   5.518
 9065TIP3   OH227135   8.162   4.077   0.170
 9065TIP3    H127136   8.089   4.024   0.200
 9065TIP3    H227137   8.225   4.013   0.135
 9066TIP3   OH227138   7.396   2.185   0.420
 9066TIP3    H127139   7.401   2.171   0.326
 9066TIP3    H227140   7.443   2.111   0.458
 9067TIP3   OH227141   2.775   0.534   2.056
 9067TIP3    H127142   2.835   0.482   2.003
 9067TIP3    H227143   2.808   0.525   2.145
 9068TIP3   OH227144   4.884   4.527   4.657
 9068TIP3    H127145   4.896   4.533   4.752
 9068TIP3    H227146   4.849   4.440   4.642
 9069TIP3   OH227147   0.706   5.682   0.901
 9069TIP3    H127148   0.671   5.690   0.812
 9069TIP3    H227149   0.640   5.722   0.956
 9070TIP3   OH227150   6.333   6.297   2.117
 9070TIP3    H127151   6.353   6.225   2.176
 9070TIP3    H227152   6.414   6.312   2.068
 9071TIP3   OH227153   3.067   0.949   3.295
 9071TIP3    H127154   3.134   0.894   3.336
 9071TIP3    H227155   2.992   0.943   3.354
 9072TIP3   OH227156   3.767   1.567   1.635
 9072TIP3    H127157   3.833   1.636   1.647
 9072TIP3    H227158   3.807   1.489   1.673
 9073TIP3   OH227159   0.058   3.535   4.668
 9073TIP3    H127160   0.103   3.568   4.591
 9073TIP3    H227161   0.128   3.519   4.731
 9074TIP3   OH227162   7.312   6.789   0.734
 9074TIP3    H127163   7.332   6.796   0.827
 9074TIP3    H227164   7.324   6.697   0.714
 9075TIP3   OH227165   0.374   5.361   2.935
 9075TIP3    H127166   0.306   5.347   2.870
 9075TIP3    H227167   0.431   5.285   2.927
 9076TIP3   OH227168   5.878   2.246   3.028
 9076TIP3    H127169   5.921   2.240   2.943
 9076TIP3    H227170   5.935   2.303   3.080
 9077TIP3   OH227171   7.635   1.922   6.219
 9077TIP3    H127172   7.707   1.859   6.225
 9077TIP3    H227173   7.670   1.993   6.166
 9078TIP3   OH227174   0.791   2.352   3.418
 9078TIP3    H127175   0.845   2.425   3.387
 9078TIP3    H227176   0.758   2.380   3.503
 9079TIP3   OH227177   7.612   1.276   6.794
 9079TIP3    H127178   7.654   1.362   6.790
 9079TIP3    H227179   7.685   1.214   6.788
 9080TIP3   OH227180   2.097   0.757   5.943
 9080TIP3    H127181   2.122   0.751   6.035
 9080TIP3    H227182   2.126   0.674   5.905
 9081TIP3   OH227183   5.725   2.256   4.253
 9081TIP3    H127184   5.685   2.170   4.236
 9081TIP3    H227185   5.802   2.236   4.306
 9082TIP3   OH227186   2.321   7.580   1.082
 9082TIP3    H127187   2.233   7.584   1.045
 9082TIP3    H227188   2.316   7.514   1.151
 9083TIP3   OH227189   8.222   3.427   2.945
 9083TIP3    H127190   8.315   3.442   2.962
 9083TIP3    H227191   8.220   3.356   2.881
 9084TIP3   OH227192   3.028   0.486  -0.004
 9084TIP3    H127193   3.048   0.536   0.076
 9084TIP3    H227194   3.087   0.523  -0.070
 9085TIP3   OH227195   0.908   7.660   5.613
 9085TIP3    H127196   0.838   7.595   5.610
 9085TIP3    H227197   0.929   7.678   5.521
 9086TIP3   OH227198   2.634   1.846   6.729
 9086TIP3    H127199   2.728   1.846   6.710
 9086TIP3    H227200   2.615   1.936   6.755
 9087TIP3   OH227201   4.372   5.711   0.885
 9087TIP3    H127202   4.420   5.721   0.803
 9087TIP3    H227203   4.289   5.671   0.860
 9088TIP3   OH227204   4.926   0.108   0.465
 9088TIP3    H127205   4.920   0.014   0.453
 9088TIP3    H227206   5.020   0.127   0.459
 9089TIP3   OH227207   3.564   6.810   5.113
 9089TIP3    H127208   3.571   6.902   5.088
 9089TIP3    H227209   3.653   6.777   5.104
 9090TIP3   OH227210   3.709   5.235   6.344
 9090TIP3    H127211   3.679   5.227   6.434
 9090TIP3    H227212   3.658   5.170   6.295
 9091TIP3   OH227213   1.571   4.783   4.857
 9091TIP3    H127214   1.639   4.811   4.795
 9091TIP3    H227215   1.491   4.778   4.805
 9092TIP3   OH227216   3.958   1.742   6.201
 9092TIP3    H127217   4.050   1.761   6.185
 9092TIP3    H227218   3.911   1.817   6.164
 9093TIP3   OH227219   3.570   0.723   6.387
 9093TIP3    H127220   3.638   0.784   6.416
 9093TIP3    H227221   3.607   0.636   6.405
 9094TIP3   OH227222   7.852   5.608   4.542
 9094TIP3    H127223   7.808   5.660   4.609
 9094TIP3    H227224   7.888   5.672   4.481
 9095TIP3   OH227225   5.084   0.243   2.183
 9095TIP3    H127226   5.008   0.241   2.125
 9095TIP3    H227227   5.053   0.288   2.261
 9096TIP3   OH227228   3.981   4.492   0.443
 9096TIP3    H127229   3.973   4.479   0.348
 9096TIP3    H227230   4.019   4.579   0.452
 9097TIP3   OH227231   0.098   0.390   4.014
 9097TIP3    H127232   0.104   0.480   4.045
 9097TIP3    H227233   0.115   0.336   4.091
 9098TIP3   OH227234   4.385   0.813   4.323
 9098TIP3    H127235   4.426   0.900   4.321
 9098TIP3    H227236   4.431   0.763   4.257
 9099TIP3   OH227237   4.995   5.324   3.631
 9099TIP3    H127238   5.026   5.412   3.654
 9099TIP3    H227239   4.966   5.286   3.714
 9100TIP3   OH227240   6.905   7.644   3.219
 9100TIP3    H127241   6.898   7.627   3.125
 9100TIP3    H227242   6.919   7.558   3.258
 9101TIP3   OH227243   1.946   6.605   6.587
 9101TIP3    H127244   2.024   6.639   6.543
 9101TIP3    H227245   1.906   6.681   6.629
 9102TIP3   OH227246   4.195   7.789   6.309
 9102TIP3    H127247   4.104   7.811   6.289
 9102TIP3    H227248   4.190   7.718   6.373
 9103TIP3   OH227249   6.604   4.458   6.759
 9103TIP3    H127250   6.532   4.481   6.817
 9103TIP3    H227251   6.680   4.449   6.817
 9104TIP3   OH227252   6.958   7.064   1.033
 9104TIP3    H127253   6.927   7.146   1.070
 9104TIP3    H227254   7.034   7.088   0.980
 9105TIP3   OH227255   1.542   7.360   3.817
 9105TIP3    H127256   1.563   7.283   3.764
 9105TIP3    H227257   1.469   7.401   3.771
 9106TIP3   OH227258   2.124   3.136   3.417
 9106TIP3    H127259   2.084   3.068   3.471
 9106TIP3    H227260   2.186   3.179   3.476
 9107TIP3   OH227261   0.400   4.107   1.938
 9107TIP3    H127262   0.375   4.035   1.880
 9107TIP3    H227263   0.438   4.172   1.879
 9108TIP3   OH227264   2.427   1.349   1.336
 9108TIP3    H127265   2.405   1.290   1.408
 9108TIP3    H227266   2.346   1.398   1.321
 9109TIP3   OH227267   1.180   1.351   5.013
 9109TIP3    H127268   1.261   1.303   5.002
 9109TIP3    H227269   1.207   1.440   5.037
 9110TIP3   OH227270   8.195   6.346   3.361
 9110TIP3    H127271   8.231   6.422   3.408
 9110TIP3    H227272   8.219   6.361   3.270
 9111TIP3   OH227273   1.692   1.953   2.036
 9111TIP3    H127274   1.689   2.046   2.058
 9111TIP3    H227275   1.617   1.939   1.979
 9112TIP3   OH227276   0.446   5.673   4.804
 9112TIP3    H127277   0.450   5.608   4.734
 9112TIP3    H227278   0.353   5.681   4.824
 9113TIP3   OH227279   7.420   4.402   5.262
 9113TIP3    H127280   7.436   4.475   5.322
 9113TIP3    H227281   7.507   4.383   5.226
 9114TIP3   OH227282   3.285   4.640   6.422
 9114TIP3    H127283   3.368   4.685   6.402
 9114TIP3    H227284   3.275   4.576   6.352
 9115TIP3   OH227285   2.803   7.687   6.291
 9115TIP3    H127286   2.836   7.598   6.296
 9115TIP3    H227287   2.734   7.683   6.225
 9116TIP3   OH227288   0.427   7.900   2.955
 9116TIP3    H127289   0.494   7.903   2.887
 9116TIP3    H227290   0.477   7.896   3.037
 9117TIP3   OH227291   2.449   0.511   2.718
 9117TIP3    H127292   2.451   0.586   2.777
 9117TIP3    H227293   2.360   0.511   2.681
 9118TIP3   OH227294   7.160   6.536   1.533
 9118TIP3    H127295   7.242   6.580   1.511
 9118TIP3    H227296   7.185   6.444   1.544
 9119TIP3   OH227297   6.174   4.800   5.807
 9119TIP3    H127298   6.188   4.756   5.891
 9119TIP3    H227299   6.259   4.795   5.763
 9120TIP3   OH227300   1.434   1.161   0.206
 9120TIP3    H127301   1.368   1.097   0.233
 9120TIP3    H227302   1.513   1.110   0.191
 9121TIP3   OH227303   8.176   2.535   4.388
 9121TIP3    H127304   8.097   2.488   4.360
 9121TIP3    H227305   8.241   2.466   4.403
 9122TIP3   OH227306   6.443   5.872   5.298
 9122TIP3    H127307   6.390   5.796   5.323
 9122TIP3    H227308   6.470   5.853   5.208
 9123TIP3   OH227309   6.063   2.238   1.152
 9123TIP3    H127310   6.156   2.222   1.139
 9123TIP3    H227311   6.053   2.253   1.246
 9124TIP3   OH227312   1.075   5.252   5.740
 9124TIP3    H127313   1.132   5.323   5.768
 9124TIP3    H227314   1.067   5.195   5.816
 9125TIP3   OH227315   5.230   4.722   3.448
 9125TIP3    H127316   5.188   4.802   3.417
 9125TIP3    H227317   5.160   4.672   3.490
 9126TIP3   OH227318   7.451   5.104   5.636
 9126TIP3    H127319   7.421   5.167   5.701
 9126TIP3    H227320   7.378   5.097   5.574
 9127TIP3   OH227321   6.270   2.900   4.555
 9127TIP3    H127322   6.329   2.925   4.625
 9127TIP3    H227323   6.183   2.898   4.596
 9128TIP3   OH227324   3.327   1.111   1.492
 9128TIP3    H127325   3.298   1.039   1.436
 9128TIP3    H227326   3.334   1.073   1.579
 9129TIP3   OH227327   4.847   3.890   5.169
 9129TIP3    H127328   4.932   3.868   5.207
 9129TIP3    H227329   4.787   3.823   5.204
 9130TIP3   OH227330   4.437   2.220   5.547
 9130TIP3    H127331   4.465   2.168   5.622
 9130TIP3    H227332   4.509   2.211   5.484
 9131TIP3   OH227333   7.817   3.703   0.653
 9131TIP3    H127334   7.886   3.700   0.587
 9131TIP3    H227335   7.738   3.674   0.607
 9132TIP3   OH227336   1.250   3.152   1.701
 9132TIP3    H127337   1.301   3.096   1.760
 9132TIP3    H227338   1.232   3.097   1.625
 9133TIP3   OH227339   7.942   0.781   6.266
 9133TIP3    H127340   8.037   0.789   6.265
 9133TIP3    H227341   7.926   0.694   6.304
 9134TIP3   OH227342   7.168   5.920   6.111
 9134TIP3    H127343   7.116   5.870   6.048
 9134TIP3    H227344   7.211   5.853   6.164
 9135TIP3   OH227345   4.133   5.511   1.162
 9135TIP3    H127346   4.188   5.446   1.206
 9135TIP3    H227347   4.052   5.514   1.214
 9136TIP3   OH227348   6.610   1.234   2.397
 9136TIP3    H127349   6.579   1.146   2.418
 9136TIP3    H227350   6.624   1.233   2.303
 9137TIP3   OH227351   0.050   6.983   6.458
 9137TIP3    H127352   0.063   6.973   6.552
 9137TIP3    H227353  -0.035   6.942   6.441
 9138TIP3   OH227354   0.819   5.689   2.895
 9138TIP3    H127355   0.892   5.728   2.944
 9138TIP3    H227356   0.741   5.719   2.940
 9139TIP3   OH227357   2.290   2.501   4.725
 9139TIP3    H127358   2.376   2.467   4.748
 9139TIP3    H227359   2.309   2.583   4.678
 9140TIP3   OH227360   0.252   6.100   0.841
 9140TIP3    H127361   0.165   6.127   0.870
 9140TIP3    H227362   0.274   6.025   0.896
 9141TIP3   OH227363   7.260   6.527   5.751
 9141TIP3    H127364   7.166   6.513   5.766
 9141TIP3    H227365   7.300   6.516   5.838
 9142TIP3   OH227366   1.013   3.926   4.750
 9142TIP3    H127367   0.931   3.971   4.770
 9142TIP3    H227368   1.068   3.994   4.709
 9143TIP3   OH227369   4.519   4.398   2.194
 9143TIP3    H127370   4.444   4.348   2.160
 9143TIP3    H227371   4.479   4.468   2.246
 9144TIP3   OH227372   5.193   2.013   3.661
 9144TIP3    H127373   5.194   1.987   3.753
 9144TIP3    H227374   5.205   2.108   3.662
 9145TIP3   OH227375   1.617   2.971   5.343
 9145TIP3    H127376   1.578   3.059   5.346
 9145TIP3    H227377   1.635   2.951   5.435
 9146TIP3   OH227378   5.282   7.554   0.176
 9146TIP3    H127379   5.287   7.531   0.083
 9146TIP3    H227380   5.207   7.613   0.182
 9147TIP3   OH227381   0.790   5.778   0.511
 9147TIP3    H127382   0.879   5.770   0.477
 9147TIP3    H227383   0.795   5.849   0.574
 9148TIP3   OH227384   0.949   4.420   1.642
 9148TIP3    H127385   0.992   4.346   1.599
 9148TIP3    H227386   1.003   4.438   1.719
 9149TIP3   OH227387   1.048   5.173   3.238
 9149TIP3    H127388   1.095   5.257   3.247
 9149TIP3    H227389   1.004   5.180   3.154
 9150TIP3   OH227390   0.646   2.787   4.412
 9150TIP3    H127391   0.715   2.724   4.390
 9150TIP3    H227392   0.565   2.737   4.409
 9151TIP3   OH227393   2.750   3.489   1.117
 9151TIP3    H127394   2.722   3.581   1.112
 9151TIP3    H227395   2.795   3.483   1.202
 9152TIP3   OH227396   8.337   3.102   1.564
 9152TIP3    H127397   8.341   3.006   1.563
 9152TIP3    H227398   8.420   3.130   1.527
 9153TIP3   OH227399   6.322   5.131   3.962
 9153TIP3    H127400   6.413   5.143   3.935
 9153TIP3    H227401   6.304   5.205   4.020
 9154TIP3   OH227402   5.543   2.338   4.831
 9154TIP3    H127403   5.558   2.266   4.892
 9154TIP3    H227404   5.452   2.328   4.804
 9155TIP3   OH227405   4.347   1.175   3.978
 9155TIP3    H127406   4.302   1.228   4.044
 9155TIP3    H227407   4.382   1.240   3.917
 9156TIP3   OH227408   5.879   1.772   2.641
 9156TIP3    H127409   5.785   1.759   2.628
 9156TIP3    H227410   5.898   1.852   2.593
 9157TIP3   OH227411   6.069   4.225   1.147
 9157TIP3    H127412   6.077   4.201   1.055
 9157TIP3    H227413   6.159   4.230   1.179
 9158TIP3   OH227414   8.237   2.360   3.109
 9158TIP3    H127415   8.298   2.287   3.103
 9158TIP3    H227416   8.288   2.431   3.149
 9159TIP3   OH227417   5.554   5.830   4.307
 9159TIP3    H127418   5.567   5.881   4.387
 9159TIP3    H227419   5.595   5.883   4.238
 9160TIP3   OH227420   6.217   2.139   1.420
 9160TIP3    H127421   6.239   2.214   1.476
 9160TIP3    H227422   6.276   2.148   1.345
 9161TIP3   OH227423   8.163   0.570   3.733
 9161TIP3    H127424   8.077   0.612   3.730
 9161TIP3    H227425   8.145   0.480   3.761
 9162TIP3   OH227426   7.511   0.017   0.438
 9162TIP3    H127427   7.536   0.108   0.425
 9162TIP3    H227428   7.421   0.022   0.470
 9163TIP3   OH227429   4.643   2.346   3.425
 9163TIP3    H127430   4.731   2.349   3.462
 9163TIP3    H227431   4.639   2.422   3.367
 9164TIP3   OH227432   4.325   1.416   5.497
 9164TIP3    H127433   4.369   1.501   5.511
 9164TIP3    H227434   4.233   1.433   5.519
 9165TIP3   OH227435   1.558   6.303   5.199
 9165TIP3    H127436   1.650   6.313   5.224
 9165TIP3    H227437   1.510   6.364   5.255
 9166TIP3   OH227438   1.455   1.402   6.060
 9166TIP3    H127439   1.359   1.409   6.062
 9166TIP3    H227440   1.476   1.355   6.140
 9167TIP3   OH227441   8.103   6.095   6.550
 9167TIP3    H127442   8.154   6.157   6.498
 9167TIP3    H227443   8.012   6.115   6.529
 9168TIP3   OH227444   3.527   4.763   1.197
 9168TIP3    H127445   3.448   4.736   1.150
 9168TIP3    H227446   3.595   4.767   1.130
 9169TIP3   OH227447   4.155   2.283   5.542
 9169TIP3    H127448   4.247   2.258   5.549
 9169TIP3    H227449   4.157   2.375   5.517
 9170TIP3   OH227450   1.924   1.123   4.142
 9170TIP3    H127451   1.976   1.203   4.132
 9170TIP3    H227452   1.936   1.076   4.060
 9171TIP3   OH227453   0.726   5.842   5.336
 9171TIP3    H127454   0.800   5.869   5.282
 9171TIP3    H227455   0.685   5.771   5.286
 9172TIP3   OH227456   4.569   2.775   6.446
 9172TIP3    H127457   4.514   2.701   6.470
 9172TIP3    H227458   4.590   2.817   6.529
 9173TIP3   OH227459   5.872   2.646   6.477
 9173TIP3    H127460   5.797   2.673   6.423
 9173TIP3    H227461   5.836   2.577   6.533
 9174TIP3   OH227462   0.576   6.380   2.062
 9174TIP3    H127463   0.643   6.358   2.127
 9174TIP3    H227464   0.537   6.462   2.094
 9175TIP3   OH227465   0.365   3.702   0.983
 9175TIP3    H127466   0.347   3.644   1.057
 9175TIP3    H227467   0.376   3.644   0.908
 9176TIP3   OH227468   1.813   4.939   2.253
 9176TIP3    H127469   1.814   5.035   2.255
 9176TIP3    H227470   1.866   4.913   2.329
 9177TIP3   OH227471   0.122   3.976   3.038
 9177TIP3    H127472   0.037   3.938   3.062
 9177TIP3    H227473   0.186   3.922   3.082
 9178TIP3   OH227474   6.342   5.380   5.995
 9178TIP3    H127475   6.317   5.470   6.013
 9178TIP3    H227476   6.327   5.368   5.901
 9179TIP3   OH227477   2.473   5.914   4.573
 9179TIP3    H127478   2.421   5.853   4.626
 9179TIP3    H227479   2.422   5.995   4.573
 9180TIP3   OH227480   8.072   7.820   1.420
 9180TIP3    H127481   8.106   7.843   1.506
 9180TIP3    H227482   7.981   7.849   1.422
 9181TIP3   OH227483   7.054   3.347   4.360
 9181TIP3    H127484   6.970   3.351   4.407
 9181TIP3    H227485   7.085   3.258   4.374
 9182TIP3   OH227486   8.089   4.092   6.270
 9182TIP3    H127487   8.035   4.028   6.222
 9182TIP3    H227488   8.140   4.039   6.331
 9183TIP3   OH227489   6.729   1.335   4.837
 9183TIP3    H127490   6.745   1.415   4.788
 9183TIP3    H227491   6.733   1.265   4.772
 9184TIP3   OH227492   6.608   1.955   2.704
 9184TIP3    H127493   6.543   2.020   2.674
 9184TIP3    H227494   6.588   1.877   2.653
 9185TIP3   OH227495   5.772   5.282   2.999
 9185TIP3    H127496   5.756   5.370   2.964
 9185TIP3    H227497   5.747   5.223   2.928
 9186TIP3   OH227498   7.928   0.814   4.779
 9186TIP3    H127499   7.953   0.726   4.753
 9186TIP3    H227500   7.851   0.802   4.834
 9187TIP3   OH227501   8.235   0.628   2.063
 9187TIP3    H127502   8.203   0.658   1.977
 9187TIP3    H227503   8.188   0.683   2.126
 9188TIP3   OH227504   6.052   2.123   2.677
 9188TIP3    H127505   6.000   2.080   2.745
 9188TIP3    H227506   6.101   2.191   2.723
 9189TIP3   OH227507   3.718   6.499   2.058
 9189TIP3    H127508   3.723   6.429   2.123
 9189TIP3    H227509   3.677   6.459   1.982
 9190TIP3   OH227510   1.488   2.846   1.550
 9190TIP3    H127511   1.505   2.776   1.487
 9190TIP3    H227512   1.575   2.867   1.585
 9191TIP3   OH227513   0.958   4.262   0.408
 9191TIP3    H127514   0.957   4.207   0.330
 9191TIP3    H227515   0.995   4.206   0.476
 9192TIP3   OH227516   7.327   3.460   6.509
 9192TIP3    H127517   7.339   3.409   6.429
 9192TIP3    H227518   7.376   3.541   6.494
 9193TIP3   OH227519   4.519   0.739   2.130
 9193TIP3    H127520   4.608   0.704   2.134
 9193TIP3    H227521   4.526   0.825   2.172
 9194TIP3   OH227522   7.153   1.974   3.364
 9194TIP3    H127523   7.211   2.051   3.363
 9194TIP3    H227524   7.168   1.933   3.449
 9195TIP3   OH227525   1.690   4.034   6.565
 9195TIP3    H127526   1.706   4.128   6.570
 9195TIP3    H227527   1.602   4.022   6.601
 9196TIP3   OH227528   3.936   7.483   3.099
 9196TIP3    H127529   3.951   7.460   3.190
 9196TIP3    H227530   4.024   7.493   3.062
 9197TIP3   OH227531   6.547   0.352   2.179
 9197TIP3    H127532   6.554   0.442   2.148
 9197TIP3    H227533   6.521   0.360   2.271
 9198TIP3   OH227534   3.212   4.038   6.308
 9198TIP3    H127535   3.295   3.991   6.301
 9198TIP3    H227536   3.237   4.127   6.330
 9199TIP3   OH227537   0.056   7.081   3.728
 9199TIP3    H127538   0.041   7.055   3.819
 9199TIP3    H227539   0.131   7.140   3.731
 9200TIP3   OH227540   2.786   2.129   4.337
 9200TIP3    H127541   2.762   2.037   4.323
 9200TIP3    H227542   2.723   2.160   4.402
 9201TIP3   OH227543   2.003   0.979   2.503
 9201TIP3    H127544   2.009   0.993   2.408
 9201TIP3    H227545   1.972   1.062   2.537
 9202TIP3   OH227546   3.760   3.686   2.248
 9202TIP3    H127547   3.694   3.665   2.182
 9202TIP3    H227548   3.719   3.666   2.332
 9203TIP3   OH227549   2.976   0.385   5.873
 9203TIP3    H127550   2.894   0.435   5.864
 9203TIP3    H227551   2.986   0.373   5.967
 9204TIP3   OH227552   8.198   0.972   3.232
 9204TIP3    H127553   8.202   0.980   3.327
 9204TIP3    H227554   8.220   1.060   3.201
 9205TIP3   OH227555   4.522   1.588   6.719
 9205TIP3    H127556   4.535   1.565   6.627
 9205TIP3    H227557   4.590   1.539   6.765
 9206TIP3   OH227558   6.098   3.760   4.538
 9206TIP3    H127559   6.037   3.825   4.572
 9206TIP3    H227560   6.175   3.767   4.595
 9207TIP3   OH227561   1.960   4.223   0.353
 9207TIP3    H127562   1.895   4.166   0.393
 9207TIP3    H227563   2.026   4.236   0.420
 9208TIP3   OH227564   5.812   0.495   6.201
 9208TIP3    H127565   5.797   0.588   6.186
 9208TIP3    H227566   5.904   0.481   6.178
 9209TIP3   OH227567   0.558   3.689   5.239
 9209TIP3    H127568   0.492   3.719   5.302
 9209TIP3    H227569   0.636   3.740   5.262
 9210TIP3   OH227570   7.932   1.944   5.884
 9210TIP3    H127571   7.877   1.865   5.882
 9210TIP3    H227572   7.975   1.941   5.970
 9211TIP3   OH227573   0.917   5.883   2.422
 9211TIP3    H127574   0.868   5.886   2.504
 9211TIP3    H227575   0.897   5.966   2.379
 9212TIP3   OH227576   8.082   7.097   4.304
 9212TIP3    H127577   8.109   7.024   4.248
 9212TIP3    H227578   8.090   7.062   4.393
 9213TIP3   OH227579   3.825   4.929   5.116
 9213TIP3    H127580   3.787   4.903   5.200
 9213TIP3    H227581   3.897   4.868   5.102
 9214TIP3   OH227582   0.093   7.804   6.046
 9214TIP3    H127583   0.117   7.897   6.048
 9214TIP3    H227584   0.103   7.779   5.954
 9215TIP3   OH227585   7.575   6.606   4.955
 9215TIP3    H127586   7.628   6.619   5.034
 9215TIP3    H227587   7.638   6.585   4.886
 9216TIP3   OH227588   1.016   4.279   0.821
 9216TIP3    H127589   1.026   4.222   0.745
 9216TIP3    H227590   0.924   4.271   0.845
 9217TIP3   OH227591   7.524   0.578   5.032
 9217TIP3    H127592   7.508   0.484   5.044
 9217TIP3    H227593   7.463   0.620   5.093
 9218TIP3   OH227594   5.913   2.551   2.555
 9218TIP3    H127595   5.940   2.503   2.634
 9218TIP3    H227596   5.980   2.618   2.543
 9219TIP3   OH227597   7.033   2.493   3.789
 9219TIP3    H127598   7.120   2.504   3.751
 9219TIP3    H227599   6.976   2.548   3.734
 9220TIP3   OH227600   0.537   7.060   2.981
 9220TIP3    H127601   0.485   7.138   2.999
 9220TIP3    H227602   0.589   7.082   2.904
 9221TIP3   OH227603   5.511   5.658   1.689
 9221TIP3    H127604   5.576   5.592   1.714
 9221TIP3    H227605   5.429   5.627   1.728
 9222TIP3   OH227606   7.252   3.969   3.350
 9222TIP3    H127607   7.341   3.974   3.315
 9222TIP3    H227608   7.250   3.887   3.399
 9223TIP3   OH227609   4.918   6.643   6.828
 9223TIP3    H127610   4.953   6.598   6.751
 9223TIP3    H227611   4.961   6.601   6.902
 9224TIP3   OH227612   6.315   1.745   5.426
 9224TIP3    H127613   6.263   1.788   5.495
 9224TIP3    H227614   6.402   1.784   5.433
 9225TIP3   OH227615   3.016   5.576   2.470
 9225TIP3    H127616   3.096   5.611   2.509
 9225TIP3    H227617   2.945   5.622   2.514
 9226TIP3   OH227618   6.665   0.611   3.858
 9226TIP3    H127619   6.615   0.534   3.886
 9226TIP3    H227620   6.617   0.685   3.894
 9227TIP3   OH227621   3.624   2.542   2.569
 9227TIP3    H127622   3.537   2.506   2.586
 9227TIP3    H227623   3.675   2.520   2.647
 9228TIP3   OH227624   5.022   4.762   0.180
 9228TIP3    H127625   4.971   4.751   0.100
 9228TIP3    H227626   5.085   4.690   0.178
 9229TIP3   OH227627   3.859   7.257   4.183
 9229TIP3    H127628   3.811   7.202   4.120
 9229TIP3    H227629   3.901   7.194   4.241
 9230TIP3   OH227630   6.202   7.757   3.920
 9230TIP3    H127631   6.276   7.776   3.978
 9230TIP3    H227632   6.125   7.778   3.972
 9231TIP3   OH227633   0.442   3.360   3.244
 9231TIP3    H127634   0.422   3.290   3.181
 9231TIP3    H227635   0.536   3.354   3.257
 9232TIP3   OH227636   6.423   1.734   6.083
 9232TIP3    H127637   6.404   1.660   6.141
 9232TIP3    H227638   6.400   1.811   6.135
 9233TIP3   OH227639   4.303   7.257   3.711
 9233TIP3    H127640   4.325   7.165   3.725
 9233TIP3    H227641   4.311   7.298   3.797
 9234TIP3   OH227642   0.401   6.919   4.654
 9234TIP3    H127643   0.451   6.861   4.711
 9234TIP3    H227644   0.454   6.998   4.648
 9235TIP3   OH227645   1.840   5.834   1.766
 9235TIP3    H127646   1.926   5.854   1.803
 9235TIP3    H227647   1.831   5.895   1.693
 9236TIP3   OH227648   0.807   6.961   5.909
 9236TIP3    H127649   0.845   6.974   5.996
 9236TIP3    H227650   0.795   7.049   5.875
 9237TIP3   OH227651   8.148   2.996   2.195
 9237TIP3    H127652   8.062   2.968   2.162
 9237TIP3    H227653   8.182   2.919   2.241
 9238TIP3   OH227654   0.447   6.041   6.440
 9238TIP3    H127655   0.477   6.023   6.529
 9238TIP3    H227656   0.526   6.070   6.394
 9239TIP3   OH227657   0.095   5.358   2.873
 9239TIP3    H127658   0.084   5.265   2.892
 9239TIP3    H227659   0.110   5.399   2.959
 9240TIP3   OH227660   6.199   2.662   5.581
 9240TIP3    H127661   6.250   2.606   5.640
 9240TIP3    H227662   6.234   2.750   5.596
 9241TIP3   OH227663   5.260   5.183   0.540
 9241TIP3    H127664   5.296   5.270   0.525
 9241TIP3    H227665   5.174   5.198   0.578
 9242TIP3   OH227666   2.060   4.299   0.642
 9242TIP3    H127667   2.090   4.271   0.728
 9242TIP3    H227668   1.965   4.287   0.645
 9243TIP3   OH227669   1.380   6.397   2.980
 9243TIP3    H127670   1.404   6.490   2.971
 9243TIP3    H227671   1.297   6.398   3.027
 9244TIP3   OH227672   3.329   1.702   2.034
 9244TIP3    H127673   3.379   1.625   2.061
 9244TIP3    H227674   3.238   1.680   2.054
 9245TIP3   OH227675   1.548   0.691   3.200
 9245TIP3    H127676   1.620   0.655   3.149
 9245TIP3    H227677   1.470   0.647   3.167
 9246TIP3   OH227678   4.787   0.271   6.054
 9246TIP3    H127679   4.782   0.363   6.081
 9246TIP3    H227680   4.763   0.272   5.962
 9247TIP3   OH227681   0.821   7.860   6.741
 9247TIP3    H127682   0.815   7.765   6.737
 9247TIP3    H227683   0.761   7.891   6.674
 9248TIP3   OH227684   5.484   0.181   1.592
 9248TIP3    H127685   5.465   0.101   1.641
 9248TIP3    H227686   5.449   0.165   1.505
 9249TIP3   OH227687   7.553   6.760   1.235
 9249TIP3    H127688   7.635   6.768   1.186
 9249TIP3    H227689   7.568   6.689   1.297
 9250TIP3   OH227690   3.446   4.252   6.805
 9250TIP3    H127691   3.371   4.194   6.788
 9250TIP3    H227692   3.480   4.222   6.889
 9251TIP3   OH227693   2.192   2.380   1.318
 9251TIP3    H127694   2.272   2.406   1.363
 9251TIP3    H227695   2.169   2.295   1.356
 9252TIP3   OH227696   6.311   5.420   2.721
 9252TIP3    H127697   6.328   5.491   2.659
 9252TIP3    H227698   6.315   5.462   2.807
 9253TIP3   OH227699   7.191   5.818   4.607
 9253TIP3    H127700   7.195   5.764   4.528
 9253TIP3    H227701   7.249   5.774   4.669
 9254TIP3   OH227702   6.400   0.170   3.022
 9254TIP3    H127703   6.420   0.082   3.053
 9254TIP3    H227704   6.348   0.209   3.092
 9255TIP3   OH227705   1.442   3.516   2.732
 9255TIP3    H127706   1.537   3.521   2.748
 9255TIP3    H227707   1.434   3.459   2.655
 9256TIP3   OH227708   7.787   2.996   3.779
 9256TIP3    H127709   7.824   2.979   3.692
 9256TIP3    H227710   7.768   2.909   3.814
 9257TIP3   OH227711   3.450   7.572   2.091
 9257TIP3    H127712   3.402   7.506   2.039
 9257TIP3    H227713   3.382   7.616   2.142
 9258TIP3   OH227714   7.487   3.671   4.723
 9258TIP3    H127715   7.562   3.622   4.756
 9258TIP3    H227716   7.421   3.663   4.792
 9259TIP3   OH227717   3.833   7.621   5.317
 9259TIP3    H127718   3.915   7.604   5.270
 9259TIP3    H227719   3.781   7.674   5.256
 9260TIP3   OH227720   4.897   2.550   5.698
 9260TIP3    H127721   4.864   2.604   5.626
 9260TIP3    H227722   4.973   2.505   5.661
 9261TIP3   OH227723   2.139   1.279   4.083
 9261TIP3    H127724   2.157   1.256   3.991
 9261TIP3    H227725   2.201   1.349   4.103
 9262TIP3   OH227726   3.066   2.167   1.557
 9262TIP3    H127727   2.980   2.127   1.542
 9262TIP3    H227728   3.068   2.242   1.498
 9263TIP3   OH227729   6.842   0.250   5.015
 9263TIP3    H127730   6.787   0.301   4.956
 9263TIP3    H227731   6.788   0.175   5.039
 9264TIP3   OH227732   4.809   3.256   6.528
 9264TIP3    H127733   4.811   3.194   6.456
 9264TIP3    H227734   4.729   3.307   6.514
 9265TIP3   OH227735   1.401   4.632   4.684
 9265TIP3    H127736   1.323   4.650   4.631
 9265TIP3    H227737   1.448   4.564   4.637
 9266TIP3   OH227738   6.491   4.288   2.574
 9266TIP3    H127739   6.572   4.327   2.541
 9266TIP3    H227740   6.511   4.195   2.584
 9267TIP3   OH227741   6.330   4.550   5.590
 9267TIP3    H127742   6.244   4.512   5.568
 9267TIP3    H227743   6.320   4.643   5.571
 9268TIP3   OH227744   8.184   5.853   1.785
 9268TIP3    H127745   8.273   5.886   1.795
 9268TIP3    H227746   8.162   5.871   1.694
 9269TIP3   OH227747   3.027   7.363   3.017
 9269TIP3    H127748   2.954   7.423   3.007
 9269TIP3    H227749   3.064   7.383   3.103
 9270TIP3   OH227750   7.939   4.796   3.832
 9270TIP3    H127751   7.880   4.721   3.829
 9270TIP3    H227752   7.947   4.824   3.741
 9271TIP3   OH227753   5.339   6.810   2.382
 9271TIP3    H127754   5.352   6.817   2.287
 9271TIP3    H227755   5.398   6.740   2.410
 9272TIP3   OH227756   2.640   7.846   1.702
 9272TIP3    H127757   2.578   7.783   1.664
 9272TIP3    H227758   2.716   7.794   1.726
 9273TIP3   OH227759   0.648   1.638   6.243
 9273TIP3    H127760   0.717   1.689   6.286
 9273TIP3    H227761   0.693   1.563   6.205
 9274TIP3   OH227762   8.132   3.186   0.262
 9274TIP3    H127763   8.131   3.268   0.212
 9274TIP3    H227764   8.203   3.136   0.222
 9275TIP3   OH227765   0.767   2.261   0.302
 9275TIP3    H127766   0.712   2.199   0.256
 9275TIP3    H227767   0.787   2.329   0.238
 9276TIP3   OH227768   3.167   1.808   2.332
 9276TIP3    H127769   3.246   1.763   2.362
 9276TIP3    H227770   3.199   1.890   2.295
 9277TIP3   OH227771   0.809   4.557   2.057
 9277TIP3    H127772   0.779   4.604   1.978
 9277TIP3    H227773   0.769   4.605   2.129
 9278TIP3   OH227774   1.455   7.879   1.164
 9278TIP3    H127775   1.441   7.785   1.147
 9278TIP3    H227776   1.367   7.916   1.160
 9279TIP3   OH227777   3.830   4.443   4.244
 9279TIP3    H127778   3.847   4.509   4.178
 9279TIP3    H227779   3.917   4.417   4.274
 9280TIP3   OH227780   5.365   0.051   2.488
 9280TIP3    H127781   5.356   0.140   2.522
 9280TIP3    H227782   5.320   0.053   2.404
 9281TIP3   OH227783   2.234   1.983   5.576
 9281TIP3    H127784   2.248   2.048   5.646
 9281TIP3    H227785   2.194   2.033   5.505
 9282TIP3   OH227786   1.564   5.966   1.254
 9282TIP3    H127787   1.514   5.984   1.175
 9282TIP3    H227788   1.655   5.977   1.228
 9283TIP3   OH227789   6.001   4.721   5.272
 9283TIP3    H127790   5.966   4.803   5.308
 9283TIP3    H227791   5.985   4.727   5.178
 9284TIP3   OH227792   3.613   7.175   3.699
 9284TIP3    H127793   3.690   7.231   3.711
 9284TIP3    H227794   3.539   7.236   3.696
 9285TIP3   OH227795   1.916   2.252   5.282
 9285TIP3    H127796   1.901   2.194   5.358
 9285TIP3    H227797   1.932   2.338   5.320
 9286TIP3   OH227798   7.197   0.742   2.415
 9286TIP3    H127799   7.142   0.677   2.372
 9286TIP3    H227800   7.232   0.697   2.492
 9287TIP3   OH227801   4.034   6.400   1.835
 9287TIP3    H127802   4.087   6.322   1.814
 9287TIP3    H227803   4.027   6.399   1.930
 9288TIP3   OH227804   5.337   7.311   5.395
 9288TIP3    H127805   5.390   7.236   5.423
 9288TIP3    H227806   5.295   7.283   5.314
 9289TIP3   OH227807   8.126   3.704   2.905
 9289TIP3    H127808   8.138   3.622   2.856
 9289TIP3    H227809   8.200   3.758   2.879
 9290TIP3   OH227810   6.438   2.027   3.262
 9290TIP3    H127811   6.499   2.000   3.330
 9290TIP3    H227812   6.492   2.066   3.194
 9291TIP3   OH227813   0.517   0.615   3.799
 9291TIP3    H127814   0.529   0.709   3.785
 9291TIP3    H227815   0.470   0.608   3.882
 9292TIP3   OH227816   1.374   3.445   5.362
 9292TIP3    H127817   1.417   3.526   5.332
 9292TIP3    H227818   1.301   3.434   5.301
 9293TIP3   OH227819   0.170   7.810   4.967
 9293TIP3    H127820   0.121   7.874   4.916
 9293TIP3    H227821   0.161   7.728   4.918
 9294TIP3   OH227822   6.452   6.019   1.827
 9294TIP3    H127823   6.418   5.994   1.913
 9294TIP3    H227824   6.425   5.947   1.769
 9295TIP3   OH227825   5.068   3.272   1.431
 9295TIP3    H127826   5.032   3.218   1.360
 9295TIP3    H227827   4.998   3.334   1.452
 9296TIP3   OH227828   5.580   4.071   1.883
 9296TIP3    H127829   5.552   4.066   1.792
 9296TIP3    H227830   5.499   4.079   1.933
 9297TIP3   OH227831   5.002   0.179   4.827
 9297TIP3    H127832   5.059   0.136   4.763
 9297TIP3    H227833   4.921   0.197   4.779
 9298TIP3   OH227834   1.144   0.051   2.967
 9298TIP3    H127835   1.127   0.142   2.944
 9298TIP3    H227836   1.060   0.007   2.955
 9299TIP3   OH227837   0.886   0.458   0.097
 9299TIP3    H127838   0.840   0.453   0.013
 9299TIP3    H227839   0.816   0.471   0.161
 9300TIP3   OH227840   1.518   0.382   3.386
 9300TIP3    H127841   1.429   0.389   3.351
 9300TIP3    H227842   1.536   0.468   3.424
 9301TIP3   OH227843   3.777   6.443   1.747
 9301TIP3    H127844   3.867   6.426   1.775
 9301TIP3    H227845   3.756   6.529   1.783
 9302TIP3   OH227846   7.138   4.582   3.096
 9302TIP3    H127847   7.160   4.539   3.013
 9302TIP3    H227848   7.056   4.628   3.078
 9303TIP3   OH227849   2.598   7.392   0.678
 9303TIP3    H127850   2.578   7.354   0.764
 9303TIP3    H227851   2.553   7.477   0.679
 9304TIP3   OH227852   0.490   6.304   6.611
 9304TIP3    H127853   0.514   6.228   6.557
 9304TIP3    H227854   0.543   6.294   6.690
 9305TIP3   OH227855   8.214   6.623   6.742
 9305TIP3    H127856   8.129   6.666   6.749
 9305TIP3    H227857   8.243   6.613   6.833
 9306TIP3   OH227858   7.600   6.238   6.332
 9306TIP3    H127859   7.574   6.197   6.414
 9306TIP3    H227860   7.610   6.166   6.271
 9307TIP3   OH227861   4.331   7.069   1.538
 9307TIP3    H127862   4.327   6.987   1.489
 9307TIP3    H227863   4.306   7.045   1.627
 9308TIP3   OH227864   2.096   3.522   4.174
 9308TIP3    H127865   2.103   3.616   4.190
 9308TIP3    H227866   2.152   3.482   4.241
 9309TIP3   OH227867   5.685   4.208   2.681
 9309TIP3    H127868   5.727   4.143   2.737
 9309TIP3    H227869   5.640   4.267   2.741
 9310TIP3   OH227870   3.259   5.024   3.647
 9310TIP3    H127871   3.182   5.003   3.700
 9310TIP3    H227872   3.333   4.990   3.697
 9311TIP3   OH227873   7.876   1.867   4.223
 9311TIP3    H127874   7.786   1.866   4.256
 9311TIP3    H227875   7.875   1.934   4.154
 9312TIP3   OH227876   5.321   3.586   1.870
 9312TIP3    H127877   5.341   3.644   1.797
 9312TIP3    H227878   5.295   3.503   1.829
 9313TIP3   OH227879   1.632   7.141   6.258
 9313TIP3    H127880   1.553   7.167   6.304
 9313TIP3    H227881   1.616   7.162   6.166
 9314TIP3   OH227882   7.834   3.751   1.156
 9314TIP3    H127883   7.891   3.819   1.191
 9314TIP3    H227884   7.839   3.762   1.061
 9315TIP3   OH227885   1.010   0.391   0.889
 9315TIP3    H127886   1.078   0.392   0.821
 9315TIP3    H227887   0.968   0.477   0.882
 9316TIP3   OH227888   1.302   5.454   4.393
 9316TIP3    H127889   1.286   5.508   4.316
 9316TIP3    H227890   1.276   5.508   4.467
 9317TIP3   OH227891   2.669   0.723   1.225
 9317TIP3    H127892   2.678   0.720   1.129
 9317TIP3    H227893   2.702   0.810   1.249
 9318TIP3   OH227894   7.567   3.666   6.185
 9318TIP3    H127895   7.575   3.573   6.208
 9318TIP3    H227896   7.489   3.695   6.232
 9319TIP3   OH227897   0.239   5.902   1.218
 9319TIP3    H127898   0.234   5.930   1.310
 9319TIP3    H227899   0.228   5.983   1.168
 9320TIP3   OH227900   7.422   2.435   5.168
 9320TIP3    H127901   7.358   2.456   5.235
 9320TIP3    H227902   7.402   2.345   5.143
 9321TIP3   OH227903   6.962   6.953   0.299
 9321TIP3    H127904   7.007   6.992   0.374
 9321TIP3    H227905   6.925   7.027   0.252
 9322TIP3   OH227906   3.394   4.591   0.135
 9322TIP3    H127907   3.326   4.638   0.087
 9322TIP3    H227908   3.349   4.515   0.173
 9323TIP3   OH227909   5.828   0.201   6.055
 9323TIP3    H127910   5.855   0.292   6.045
 9323TIP3    H227911   5.896   0.151   6.010
 9324TIP3   OH227912   5.057   3.757   6.676
 9324TIP3    H127913   5.123   3.708   6.726
 9324TIP3    H227914   5.022   3.820   6.739
 9325TIP3   OH227915   2.845   1.008   6.610
 9325TIP3    H127916   2.832   1.024   6.516
 9325TIP3    H227917   2.925   1.055   6.632
 9326TIP3   OH227918   1.029   6.888   0.454
 9326TIP3    H127919   1.060   6.895   0.544
 9326TIP3    H227920   1.054   6.800   0.427
 9327TIP3   OH227921   6.540   1.544   5.128
 9327TIP3    H127922   6.573   1.628   5.098
 9327TIP3    H227923   6.606   1.513   5.191
 9328TIP3   OH227924   0.708   4.641   1.116
 9328TIP3    H127925   0.685   4.557   1.155
 9328TIP3    H227926   0.643   4.653   1.046
 9329TIP3   OH227927   8.302   6.100   6.147
 9329TIP3    H127928   8.266   6.154   6.217
 9329TIP3    H227929   8.292   6.010   6.178
 9330TIP3   OH227930   6.803   7.062   3.292
 9330TIP3    H127931   6.760   7.131   3.343
 9330TIP3    H227932   6.893   7.060   3.325
 9331TIP3   OH227933   5.813   1.124   4.677
 9331TIP3    H127934   5.748   1.149   4.743
 9331TIP3    H227935   5.897   1.150   4.715
 9332TIP3   OH227936   2.244   1.957   6.195
 9332TIP3    H127937   2.177   1.889   6.182
 9332TIP3    H227938   2.256   1.961   6.290
 9333TIP3   OH227939   1.688   5.235   4.956
 9333TIP3    H127940   1.772   5.264   4.920
 9333TIP3    H227941   1.652   5.176   4.890
 9334TIP3   OH227942   7.202   5.126   2.620
 9334TIP3    H127943   7.282   5.155   2.664
 9334TIP3    H227944   7.151   5.206   2.608
 9335TIP3   OH227945   1.345   6.526   2.291
 9335TIP3    H127946   1.293   6.565   2.361
 9335TIP3    H227947   1.340   6.589   2.219
 9336TIP3   OH227948   6.113   7.617   3.544
 9336TIP3    H127949   6.204   7.599   3.517
 9336TIP3    H227950   6.100   7.563   3.622
 9337TIP3   OH227951   6.476   7.859   2.465
 9337TIP3    H127952   6.485   7.773   2.425
 9337TIP3    H227953   6.397   7.896   2.425
 9338TIP3   OH227954   2.342   0.768   2.877
 9338TIP3    H127955   2.302   0.773   2.964
 9338TIP3    H227956   2.300   0.838   2.828
 9339TIP3   OH227957   0.547   2.598   5.234
 9339TIP3    H127958   0.561   2.514   5.277
 9339TIP3    H227959   0.632   2.620   5.195
 9340TIP3   OH227960   2.312   5.565   4.238
 9340TIP3    H127961   2.368   5.643   4.236
 9340TIP3    H227962   2.270   5.564   4.152
 9341TIP3   OH227963   1.458   4.360   2.737
 9341TIP3    H127964   1.487   4.273   2.710
 9341TIP3    H227965   1.503   4.420   2.678
 9342TIP3   OH227966   4.027   7.766   5.553
 9342TIP3    H127967   4.092   7.753   5.483
 9342TIP3    H227968   3.943   7.756   5.509
 9343TIP3   OH227969   2.022   7.714   1.948
 9343TIP3    H127970   2.066   7.769   1.883
 9343TIP3    H227971   2.076   7.723   2.026
 9344TIP3   OH227972   3.753   4.606   6.508
 9344TIP3    H127973   3.747   4.511   6.496
 9344TIP3    H227974   3.816   4.635   6.442
 9345TIP3   OH227975   6.778   7.346   4.898
 9345TIP3    H127976   6.839   7.289   4.944
 9345TIP3    H227977   6.715   7.373   4.964
 9346TIP3   OH227978   2.624   2.360   1.094
 9346TIP3    H127979   2.630   2.381   1.187
 9346TIP3    H227980   2.675   2.280   1.085
 9347TIP3   OH227981   8.260   0.635   3.453
 9347TIP3    H127982   8.301   0.642   3.367
 9347TIP3    H227983   8.323   0.674   3.513
 9348TIP3   OH227984   5.689   7.301   3.818
 9348TIP3    H127985   5.707   7.300   3.912
 9348TIP3    H227986   5.602   7.340   3.811
 9349TIP3   OH227987   1.707   1.823   1.200
 9349TIP3    H127988   1.749   1.738   1.214
 9349TIP3    H227989   1.688   1.825   1.106
 9350TIP3   OH227990   0.418   2.687   1.186
 9350TIP3    H127991   0.435   2.633   1.109
 9350TIP3    H227992   0.329   2.662   1.213
 9351TIP3   OH227993   6.676   3.018   4.634
 9351TIP3    H127994   6.736   3.054   4.699
 9351TIP3    H227995   6.732   2.994   4.560
 9352TIP3   OH227996   7.110   0.946   2.606
 9352TIP3    H127997   7.062   1.019   2.568
 9352TIP3    H227998   7.047   0.875   2.610
 9353TIP3   OH227999   6.328   6.485   4.022
 9353TIP3    H128000   6.279   6.414   3.981
 9353TIP3    H228001   6.261   6.546   4.054
 9354TIP3   OH228002   3.612   7.648   4.630
 9354TIP3    H128003   3.662   7.684   4.556
 9354TIP3    H228004   3.596   7.724   4.686
 9355TIP3   OH228005   0.292   7.007   0.398
 9355TIP3    H128006   0.343   6.972   0.471
 9355TIP3    H228007   0.204   6.973   0.412
 9356TIP3   OH228008   8.330   2.413   5.715
 9356TIP3    H128009   8.348   2.449   5.802
 9356TIP3    H228010   8.235   2.399   5.714
 9357TIP3   OH228011   1.612   4.987   4.418
 9357TIP3    H128012   1.638   4.915   4.359
 9357TIP3    H228013   1.562   5.047   4.362
 9358TIP3   OH228014   6.905   1.256   6.766
 9358TIP3    H128015   6.974   1.320   6.747
 9358TIP3    H228016   6.952   1.176   6.789
 9359TIP3   OH228017   4.156   6.960   3.984
 9359TIP3    H128018   4.105   7.038   3.965
 9359TIP3    H228019   4.091   6.893   4.003
 9360TIP3   OH228020   6.046   5.633   2.544
 9360TIP3    H128021   6.061   5.618   2.451
 9360TIP3    H228022   5.975   5.697   2.547
 9361TIP3   OH228023   1.644   7.132   2.318
 9361TIP3    H128024   1.579   7.098   2.380
 9361TIP3    H228025   1.605   7.117   2.232
 9362TIP3   OH228026   4.237   1.332   2.474
 9362TIP3    H128027   4.180   1.407   2.457
 9362TIP3    H228028   4.260   1.299   2.387
 9363TIP3   OH228029   2.935   5.005   0.571
 9363TIP3    H128030   3.012   5.056   0.548
 9363TIP3    H228031   2.876   5.069   0.614
 9364TIP3   OH228032   0.681   7.336   5.244
 9364TIP3    H128033   0.771   7.309   5.225
 9364TIP3    H228034   0.640   7.257   5.279
 9365TIP3   OH228035   2.892   0.480   0.936
 9365TIP3    H128036   2.890   0.572   0.961
 9365TIP3    H228037   2.801   0.452   0.939
 9366TIP3   OH228038   0.278   6.046   2.694
 9366TIP3    H128039   0.199   6.000   2.663
 9366TIP3    H228040   0.346   6.022   2.631
 9367TIP3   OH228041   4.422   5.054   2.963
 9367TIP3    H128042   4.457   5.044   2.874
 9367TIP3    H228043   4.417   5.149   2.976
 9368TIP3   OH228044   0.307   6.383   3.688
 9368TIP3    H128045   0.246   6.444   3.729
 9368TIP3    H228046   0.251   6.321   3.641
 9369TIP3   OH228047   6.773   0.591   1.213
 9369TIP3    H128048   6.749   0.616   1.302
 9369TIP3    H228049   6.800   0.673   1.172
 9370TIP3   OH228050   3.283   2.644   4.044
 9370TIP3    H128051   3.254   2.568   3.992
 9370TIP3    H228052   3.270   2.718   3.985
 9371TIP3   OH228053   4.826   5.010   4.609
 9371TIP3    H128054   4.904   5.026   4.662
 9371TIP3    H228055   4.768   4.961   4.668
 9372TIP3   OH228056   1.845   0.895   5.135
 9372TIP3    H128057   1.784   0.918   5.064
 9372TIP3    H228058   1.902   0.829   5.096
 9373TIP3   OH228059   1.657   7.332   4.368
 9373TIP3    H128060   1.645   7.403   4.432
 9373TIP3    H228061   1.569   7.310   4.339
 9374TIP3   OH228062   4.221   4.752   2.113
 9374TIP3    H128063   4.305   4.745   2.158
 9374TIP3    H228064   4.197   4.661   2.092
 9375TIP3   OH228065   6.891   4.789   1.405
 9375TIP3    H128066   6.932   4.722   1.351
 9375TIP3    H228067   6.818   4.822   1.352
 9376TIP3   OH228068   0.168   0.549   5.261
 9376TIP3    H128069   0.156   0.507   5.176
 9376TIP3    H228070   0.092   0.607   5.270
 9377TIP3   OH228071   4.903   4.247   6.458
 9377TIP3    H128072   4.865   4.302   6.527
 9377TIP3    H228073   4.834   4.184   6.437
 9378TIP3   OH228074   6.529   2.167   4.216
 9378TIP3    H128075   6.593   2.102   4.187
 9378TIP3    H228076   6.569   2.252   4.193
 9379TIP3   OH228077   5.948   6.148   2.554
 9379TIP3    H128078   5.951   6.244   2.551
 9379TIP3    H228079   5.970   6.126   2.644
 9380TIP3   OH228080   4.020   5.893   2.492
 9380TIP3    H128081   3.982   5.956   2.553
 9380TIP3    H228082   3.997   5.927   2.405
 9381TIP3   OH228083   2.459   3.021   5.394
 9381TIP3    H128084   2.403   2.950   5.427
 9381TIP3    H228085   2.462   3.085   5.465
 9382TIP3   OH228086   0.971   7.307   6.586
 9382TIP3    H128087   1.058   7.342   6.608
 9382TIP3    H228088   0.970   7.304   6.491
 9383TIP3   OH228089   0.116   1.165   4.572
 9383TIP3    H128090   0.040   1.167   4.631
 9383TIP3    H228091   0.179   1.108   4.615
 9384TIP3   OH228092   0.765   6.626   5.183
 9384TIP3    H128093   0.812   6.647   5.264
 9384TIP3    H228094   0.826   6.572   5.133
 9385TIP3   OH228095   1.772   0.213   5.982
 9385TIP3    H128096   1.709   0.259   5.926
 9385TIP3    H228097   1.748   0.120   5.972
 9386TIP3   OH228098   4.782   4.509   1.861
 9386TIP3    H128099   4.813   4.468   1.942
 9386TIP3    H228100   4.855   4.498   1.800
 9387TIP3   OH228101   3.047   0.463   4.829
 9387TIP3    H128102   3.129   0.494   4.868
 9387TIP3    H228103   3.042   0.510   4.746
 9388TIP3   OH228104   1.788   6.133   3.905
 9388TIP3    H128105   1.731   6.061   3.878
 9388TIP3    H228106   1.738   6.179   3.973
 9389TIP3   OH228107   0.273   0.806   4.396
 9389TIP3    H128108   0.314   0.831   4.478
 9389TIP3    H228109   0.251   0.889   4.354
 9390TIP3   OH228110   2.582   3.941   1.570
 9390TIP3    H128111   2.530   4.013   1.535
 9390TIP3    H228112   2.645   3.983   1.628
 9391TIP3   OH228113   6.830   3.896   1.447
 9391TIP3    H128114   6.798   3.916   1.359
 9391TIP3    H228115   6.924   3.883   1.436
 9392TIP3   OH228116   3.444   2.139   3.158
 9392TIP3    H128117   3.437   2.066   3.219
 9392TIP3    H228118   3.536   2.138   3.130
 9393TIP3   OH228119   0.076   4.630   0.629
 9393TIP3    H128120   0.148   4.569   0.614
 9393TIP3    H228121  -0.002   4.575   0.628
 9394TIP3   OH228122   7.028   0.708   1.490
 9394TIP3    H128123   6.933   0.703   1.477
 9394TIP3    H228124   7.039   0.777   1.555
 9395TIP3   OH228125   2.498   2.474   5.255
 9395TIP3    H128126   2.524   2.544   5.315
 9395TIP3    H228127   2.484   2.518   5.171
 9396TIP3   OH228128   1.979   4.653   3.695
 9396TIP3    H128129   1.980   4.661   3.599
 9396TIP3    H228130   2.052   4.708   3.724
 9397TIP3   OH228131   2.231   1.316   0.107
 9397TIP3    H128132   2.276   1.268   0.177
 9397TIP3    H228133   2.149   1.345   0.146
 9398TIP3   OH228134   0.107   7.565   4.833
 9398TIP3    H128135   0.140   7.533   4.749
 9398TIP3    H228136   0.135   7.500   4.897
 9399TIP3   OH228137   4.687   0.630   0.723
 9399TIP3    H128138   4.707   0.658   0.634
 9399TIP3    H228139   4.773   0.618   0.764
 9400TIP3   OH228140   4.576   2.047   1.055
 9400TIP3    H128141   4.535   1.984   0.996
 9400TIP3    H228142   4.614   2.113   0.997
 9401TIP3   OH228143   8.096   1.657  -0.006
 9401TIP3    H128144   8.103   1.584   0.056
 9401TIP3    H228145   8.096   1.735   0.050
 9402TIP3   OH228146   6.039   5.406   5.002
 9402TIP3    H128147   6.052   5.470   5.071
 9402TIP3    H228148   6.125   5.366   4.990
 9403TIP3   OH228149   2.988   2.120   2.603
 9403TIP3    H128150   2.904   2.084   2.577
 9403TIP3    H228151   3.001   2.088   2.693
 9404TIP3   OH228152   1.190   2.749   0.581
 9404TIP3    H128153   1.122   2.787   0.636
 9404TIP3    H228154   1.168   2.779   0.492
 9405TIP3   OH228155   7.441   3.356   0.217
 9405TIP3    H128156   7.510   3.382   0.156
 9405TIP3    H228157   7.475   3.381   0.303
 9406TIP3   OH228158   0.084   2.316   3.962
 9406TIP3    H128159   0.065   2.288   3.872
 9406TIP3    H228160   0.171   2.354   3.958
 9407TIP3   OH228161   4.594   6.298   6.815
 9407TIP3    H128162   4.573   6.364   6.748
 9407TIP3    H228163   4.662   6.244   6.774
 9408TIP3   OH228164   0.630   0.826   3.365
 9408TIP3    H128165   0.646   0.854   3.275
 9408TIP3    H228166   0.652   0.903   3.418
 9409TIP3   OH228167   4.933   3.168   1.198
 9409TIP3    H128168   4.884   3.097   1.156
 9409TIP3    H228169   4.935   3.237   1.132
 9410TIP3   OH228170   6.661   6.631   0.397
 9410TIP3    H128171   6.720   6.583   0.455
 9410TIP3    H228172   6.661   6.720   0.432
 9411TIP3   OH228173   1.229   1.857   1.729
 9411TIP3    H128174   1.252   1.775   1.686
 9411TIP3    H228175   1.199   1.830   1.816
 9412TIP3   OH228176   5.617   2.149   2.456
 9412TIP3    H128177   5.528   2.182   2.467
 9412TIP3    H228178   5.627   2.137   2.362
 9413TIP3   OH228179   6.479   7.399   3.633
 9413TIP3    H128180   6.460   7.388   3.726
 9413TIP3    H228181   6.394   7.417   3.593
 9414TIP3   OH228182   7.144   5.494   6.173
 9414TIP3    H128183   7.076   5.537   6.121
 9414TIP3    H228184   7.190   5.566   6.216
 9415TIP3   OH228185   0.241   4.143   5.339
 9415TIP3    H128186   0.294   4.085   5.284
 9415TIP3    H228187   0.303   4.206   5.375
 9416TIP3   OH228188   3.414   0.888   6.207
 9416TIP3    H128189   3.492   0.852   6.166
 9416TIP3    H228190   3.419   0.861   6.298
 9417TIP3   OH228191   2.511   1.853   2.838
 9417TIP3    H128192   2.468   1.774   2.805
 9417TIP3    H228193   2.440   1.916   2.850
 9418TIP3   OH228194   2.595   3.471   2.913
 9418TIP3    H128195   2.596   3.538   2.845
 9418TIP3    H228196   2.649   3.400   2.878
 9419TIP3   OH228197   6.775   3.225   3.660
 9419TIP3    H128198   6.689   3.209   3.698
 9419TIP3    H228199   6.831   3.247   3.735
 9420TIP3   OH228200   7.738   1.600   5.398
 9420TIP3    H128201   7.754   1.561   5.484
 9420TIP3    H228202   7.779   1.540   5.336
 9421TIP3   OH228203   1.368   0.238   2.490
 9421TIP3    H128204   1.411   0.289   2.558
 9421TIP3    H228205   1.275   0.241   2.514
 9422TIP3   OH228206   5.804   5.576   0.230
 9422TIP3    H128207   5.826   5.531   0.149
 9422TIP3    H228208   5.836   5.666   0.217
 9423TIP3   OH228209   7.187   4.343   6.000
 9423TIP3    H128210   7.278   4.368   6.011
 9423TIP3    H228211   7.191   4.262   5.950
 9424TIP3   OH228212   8.313   5.725   3.244
 9424TIP3    H128213   8.265   5.756   3.321
 9424TIP3    H228214   8.389   5.784   3.239
 9425TIP3   OH228215   3.290   6.545   3.492
 9425TIP3    H128216   3.205   6.520   3.526
 9425TIP3    H228217   3.297   6.639   3.510
 9426TIP3   OH228218   3.249   3.265   5.905
 9426TIP3    H128219   3.302   3.308   5.839
 9426TIP3    H228220   3.168   3.316   5.908
 9427TIP3   OH228221   5.093   5.375   4.172
 9427TIP3    H128222   5.175   5.423   4.171
 9427TIP3    H228223   5.077   5.357   4.265
 9428TIP3   OH228224   8.345   7.463   3.901
 9428TIP3    H128225   8.438   7.478   3.913
 9428TIP3    H228226   8.339   7.410   3.822
 9429TIP3   OH228227   1.923   5.538   6.104
 9429TIP3    H128228   1.960   5.466   6.053
 9429TIP3    H228229   1.996   5.598   6.116
 9430TIP3   OH228230   2.236   6.879   1.990
 9430TIP3    H128231   2.159   6.933   1.972
 9430TIP3    H228232   2.231   6.809   1.925
 9431TIP3   OH228233   7.709   6.652   4.152
 9431TIP3    H128234   7.766   6.587   4.193
 9431TIP3    H228235   7.762   6.690   4.082
 9432TIP3   OH228236   7.524   4.023   3.565
 9432TIP3    H128237   7.440   4.000   3.606
 9432TIP3    H228238   7.579   3.946   3.577
 9433TIP3   OH228239   2.124   7.698   5.299
 9433TIP3    H128240   2.047   7.723   5.248
 9433TIP3    H228241   2.172   7.638   5.242
 9434TIP3   OH228242   5.401   5.140   2.853
 9434TIP3    H128243   5.468   5.112   2.914
 9434TIP3    H228244   5.433   5.111   2.767
 9435TIP3   OH228245   7.959   3.743   4.473
 9435TIP3    H128246   8.009   3.825   4.475
 9435TIP3    H228247   7.871   3.768   4.502
 9436TIP3   OH228248   5.151   3.021   1.864
 9436TIP3    H128249   5.074   2.964   1.869
 9436TIP3    H228250   5.159   3.042   1.771
 9437TIP3   OH228251   0.057   7.629   5.296
 9437TIP3    H128252  -0.028   7.655   5.260
 9437TIP3    H228253   0.119   7.691   5.258
 9438TIP3   OH228254   7.826   4.552   5.904
 9438TIP3    H128255   7.921   4.557   5.915
 9438TIP3    H228256   7.793   4.530   5.991
 9439TIP3   OH228257   6.018   1.383   3.231
 9439TIP3    H128258   6.110   1.407   3.232
 9439TIP3    H228259   5.971   1.462   3.258
 9440TIP3   OH228260   0.510   5.114   5.727
 9440TIP3    H128261   0.594   5.159   5.720
 9440TIP3    H228262   0.498   5.071   5.642
 9441TIP3   OH228263   8.101   5.530   1.403
 9441TIP3    H128264   8.038   5.513   1.473
 9441TIP3    H228265   8.048   5.531   1.323
 9442TIP3   OH228266   5.315   0.345   5.345
 9442TIP3    H128267   5.356   0.264   5.315
 9442TIP3    H228268   5.265   0.319   5.422
 9443TIP3   OH228269   4.211   2.771   6.380
 9443TIP3    H128270   4.207   2.676   6.382
 9443TIP3    H228271   4.301   2.793   6.405
 9444TIP3   OH228272   3.879   5.491   0.477
 9444TIP3    H128273   3.897   5.582   0.504
 9444TIP3    H228274   3.915   5.438   0.548
 9445TIP3   OH228275   5.798   0.720   4.458
 9445TIP3    H128276   5.849   0.798   4.437
 9445TIP3    H228277   5.727   0.751   4.514
 9446TIP3   OH228278   2.975   0.482   3.074
 9446TIP3    H128279   3.058   0.518   3.045
 9446TIP3    H228280   2.977   0.391   3.044
 9447TIP3   OH228281   3.588   2.868   0.071
 9447TIP3    H128282   3.553   2.787   0.034
 9447TIP3    H228283   3.513   2.926   0.078
 9448TIP3   OH228284   3.095   4.282   0.069
 9448TIP3    H128285   3.189   4.293   0.086
 9448TIP3    H228286   3.075   4.195   0.102
 9449TIP3   OH228287   3.869   7.215   2.902
 9449TIP3    H128288   3.903   7.240   2.988
 9449TIP3    H228289   3.787   7.263   2.894
 9450TIP3   OH228290   1.582   5.521   4.570
 9450TIP3    H128291   1.534   5.440   4.588
 9450TIP3    H228292   1.651   5.523   4.637
 9451TIP3   OH228293   1.158   4.492   0.204
 9451TIP3    H128294   1.135   4.565   0.147
 9451TIP3    H228295   1.137   4.414   0.154
 9452TIP3   OH228296   5.848   7.526   2.203
 9452TIP3    H128297   5.822   7.459   2.139
 9452TIP3    H228298   5.804   7.606   2.174
 9453TIP3   OH228299   4.831   5.046   2.658
 9453TIP3    H128300   4.749   5.026   2.703
 9453TIP3    H228301   4.898   5.042   2.727
 9454TIP3   OH228302   4.705   0.442   4.923
 9454TIP3    H128303   4.657   0.367   4.956
 9454TIP3    H228304   4.716   0.425   4.829
 9455TIP3   OH228305   1.201   4.756   3.903
 9455TIP3    H128306   1.292   4.735   3.925
 9455TIP3    H228307   1.157   4.671   3.899
 9456TIP3   OH228308   6.603   1.883   5.249
 9456TIP3    H128309   6.584   1.828   5.325
 9456TIP3    H228310   6.664   1.949   5.280
 9457TIP3   OH228311   0.311   4.103   0.679
 9457TIP3    H128312   0.292   4.033   0.615
 9457TIP3    H228313   0.350   4.057   0.753
 9458TIP3   OH228314   8.035   0.287   1.288
 9458TIP3    H128315   8.097   0.318   1.222
 9458TIP3    H228316   7.952   0.326   1.263
 9459TIP3   OH228317   0.115   2.735   5.032
 9459TIP3    H128318   0.155   2.735   5.118
 9459TIP3    H228319   0.177   2.688   4.976
 9460TIP3   OH228320   1.993   4.433   2.070
 9460TIP3    H128321   1.945   4.386   2.138
 9460TIP3    H228322   2.001   4.522   2.102
 9461TIP3   OH228323   6.497   2.558   0.667
 9461TIP3    H128324   6.523   2.592   0.752
 9461TIP3    H228325   6.576   2.518   0.632
 9462TIP3   OH228326   5.154   5.886   4.149
 9462TIP3    H128327   5.245   5.876   4.121
 9462TIP3    H228328   5.145   5.979   4.170
 9463TIP3   OH228329   5.170   5.844   5.664
 9463TIP3    H128330   5.248   5.823   5.614
 9463TIP3    H228331   5.177   5.792   5.744
 9464TIP3   OH228332   2.354   1.312   1.876
 9464TIP3    H128333   2.346   1.407   1.890
 9464TIP3    H228334   2.424   1.285   1.936
 9465TIP3   OH228335   5.524   6.897   3.873
 9465TIP3    H128336   5.595   6.927   3.817
 9465TIP3    H228337   5.548   6.928   3.960
 9466TIP3   OH228338   0.967   3.630   3.078
 9466TIP3    H128339   1.008   3.662   2.998
 9466TIP3    H228340   0.985   3.697   3.144
 9467TIP3   OH228341   4.678   4.269   0.165
 9467TIP3    H128342   4.717   4.347   0.126
 9467TIP3    H228343   4.739   4.198   0.143
 9468TIP3   OH228344   1.799   5.874   0.736
 9468TIP3    H128345   1.866   5.809   0.719
 9468TIP3    H228346   1.845   5.958   0.735
 9469TIP3   OH228347   4.584   0.734   1.775
 9469TIP3    H128348   4.575   0.658   1.717
 9469TIP3    H228349   4.547   0.806   1.725
 9470TIP3   OH228350   2.602   4.855   1.252
 9470TIP3    H128351   2.596   4.872   1.346
 9470TIP3    H228352   2.551   4.775   1.239
 9471TIP3   OH228353   5.417   7.710   6.809
 9471TIP3    H128354   5.373   7.794   6.801
 9471TIP3    H228355   5.380   7.670   6.888
 9472TIP3   OH228356   7.531   7.372   1.451
 9472TIP3    H128357   7.451   7.411   1.415
 9472TIP3    H228358   7.500   7.301   1.507
 9473TIP3   OH228359   6.795   7.051   6.831
 9473TIP3    H128360   6.805   7.051   6.736
 9473TIP3    H228361   6.707   7.016   6.846
 9474TIP3   OH228362   7.228   2.901   3.991
 9474TIP3    H128363   7.141   2.880   4.026
 9474TIP3    H228364   7.215   2.914   3.897
 9475TIP3   OH228365   8.142   7.128   5.304
 9475TIP3    H128366   8.059   7.141   5.349
 9475TIP3    H228367   8.205   7.112   5.374
 9476TIP3   OH228368   8.065   1.828   0.236
 9476TIP3    H128369   8.039   1.766   0.304
 9476TIP3    H228370   8.078   1.910   0.283
 9477TIP3   OH228371   6.080   0.530   3.771
 9477TIP3    H128372   6.094   0.436   3.783
 9477TIP3    H228373   6.155   0.571   3.814
 9478TIP3   OH228374   1.353   2.962   0.016
 9478TIP3    H128375   1.296   2.948   0.092
 9478TIP3    H228376   1.426   3.015   0.050
 9479TIP3   OH228377   6.479   6.948   0.105
 9479TIP3    H128378   6.480   6.861   0.145
 9479TIP3    H228379   6.564   6.956   0.062
 9480TIP3   OH228380   4.796   1.226   1.104
 9480TIP3    H128381   4.863   1.159   1.112
 9480TIP3    H228382   4.819   1.291   1.171
 9481TIP3   OH228383   0.325   5.216   1.404
 9481TIP3    H128384   0.355   5.306   1.416
 9481TIP3    H228385   0.352   5.170   1.483
 9482TIP3   OH228386   2.709   4.583   5.589
 9482TIP3    H128387   2.733   4.496   5.619
 9482TIP3    H228388   2.687   4.571   5.497
 9483TIP3   OH228389   2.440   4.394   3.010
 9483TIP3    H128390   2.456   4.427   2.922
 9483TIP3    H228391   2.522   4.411   3.057
 9484TIP3   OH228392   5.133   5.791   1.572
 9484TIP3    H128393   5.094   5.875   1.547
 9484TIP3    H228394   5.130   5.791   1.668
 9485TIP3   OH228395   1.305   5.761   3.615
 9485TIP3    H128396   1.256   5.793   3.690
 9485TIP3    H228397   1.373   5.827   3.600
 9486TIP3   OH228398   2.723   2.954   3.746
 9486TIP3    H128399   2.696   2.862   3.743
 9486TIP3    H228400   2.800   2.959   3.689
 9487TIP3   OH228401   4.272   1.967   0.640
 9487TIP3    H128402   4.197   2.019   0.668
 9487TIP3    H228403   4.308   1.931   0.721
 9488TIP3   OH228404   6.499   4.835   0.814
 9488TIP3    H128405   6.404   4.827   0.820
 9488TIP3    H228406   6.522   4.793   0.731
 9489TIP3   OH228407   1.513   7.183   3.411
 9489TIP3    H128408   1.446   7.190   3.480
 9489TIP3    H228409   1.593   7.215   3.453
 9490TIP3   OH228410   6.595   5.472   5.044
 9490TIP3    H128411   6.584   5.563   5.018
 9490TIP3    H228412   6.672   5.472   5.101
 9491TIP3   OH228413   4.109   5.489   2.835
 9491TIP3    H128414   4.046   5.528   2.774
 9491TIP3    H228415   4.188   5.542   2.826
 9492TIP3   OH228416   7.521   0.311   0.624
 9492TIP3    H128417   7.432   0.286   0.599
 9492TIP3    H228418   7.519   0.407   0.626
 9493TIP3   OH228419   5.950   7.086   3.773
 9493TIP3    H128420   5.948   7.179   3.799
 9493TIP3    H228421   5.958   7.038   3.855
 9494TIP3   OH228422   3.977   3.767   5.866
 9494TIP3    H128423   3.962   3.803   5.779
 9494TIP3    H228424   3.941   3.833   5.926
 9495TIP3   OH228425   1.761   4.349   0.607
 9495TIP3    H128426   1.717   4.347   0.522
 9495TIP3    H228427   1.724   4.426   0.651
 9496TIP3   OH228428   3.996   5.559   5.853
 9496TIP3    H128429   4.017   5.499   5.925
 9496TIP3    H228430   3.977   5.501   5.779
 9497TIP3   OH228431   7.056   7.011   6.104
 9497TIP3    H128432   7.108   7.034   6.180
 9497TIP3    H228433   7.005   7.090   6.085
 9498TIP3   OH228434   1.527   1.289   1.193
 9498TIP3    H128435   1.480   1.208   1.211
 9498TIP3    H228436   1.473   1.334   1.127
 9499TIP3   OH228437   2.110   4.088   0.858
 9499TIP3    H128438   2.031   4.128   0.895
 9499TIP3    H228439   2.084   4.057   0.772
 9500TIP3   OH228440   5.145   2.166   5.466
 9500TIP3    H128441   5.209   2.186   5.398
 9500TIP3    H228442   5.097   2.091   5.433
 9501TIP3   OH228443   3.186   4.002   2.873
 9501TIP3    H128444   3.136   4.063   2.927
 9501TIP3    H228445   3.119   3.951   2.826
 9502TIP3   OH228446   0.683   0.795   0.156
 9502TIP3    H128447   0.771   0.777   0.126
 9502TIP3    H228448   0.631   0.803   0.076
 9503TIP3   OH228449   6.077   7.502   3.274
 9503TIP3    H128450   6.049   7.418   3.309
 9503TIP3    H228451   6.126   7.543   3.345
 9504TIP3   OH228452   1.573   4.971   6.156
 9504TIP3    H128453   1.490   4.937   6.191
 9504TIP3    H228454   1.598   4.906   6.090
 9505TIP3   OH228455   8.293   0.856   4.576
 9505TIP3    H128456   8.269   0.944   4.548
 9505TIP3    H228457   8.250   0.798   4.513
 9506TIP3   OH228458   2.555   4.371   1.283
 9506TIP3    H128459   2.531   4.362   1.191
 9506TIP3    H228460   2.650   4.384   1.283
 9507TIP3   OH228461   7.724   6.516   5.369
 9507TIP3    H128462   7.796   6.547   5.425
 9507TIP3    H228463   7.708   6.589   5.309
 9508TIP3   OH228464   3.862   7.871   1.287
 9508TIP3    H128465   3.828   7.896   1.201
 9508TIP3    H228466   3.928   7.804   1.268
 9509TIP3   OH228467   8.068   2.410   5.823
 9509TIP3    H128468   8.012   2.480   5.857
 9509TIP3    H228469   8.048   2.334   5.877
 9510TIP3   OH228470   5.943   1.770   4.847
 9510TIP3    H128471   5.981   1.845   4.802
 9510TIP3    H228472   5.986   1.768   4.932
 9511TIP3   OH228473   0.279   6.429   0.150
 9511TIP3    H128474   0.236   6.410   0.067
 9511TIP3    H228475   0.345   6.495   0.129
 9512TIP3   OH228476   4.120   2.370   2.721
 9512TIP3    H128477   4.180   2.296   2.722
 9512TIP3    H228478   4.123   2.405   2.810
 9513TIP3   OH228479   7.467   3.705   6.452
 9513TIP3    H128480   7.407   3.697   6.378
 9513TIP3    H228481   7.456   3.796   6.481
 9514TIP3   OH228482   6.813   5.987   0.287
 9514TIP3    H128483   6.771   5.959   0.206
 9514TIP3    H228484   6.821   6.082   0.278
 9515TIP3   OH228485   3.631   3.395   1.527
 9515TIP3    H128486   3.726   3.386   1.528
 9515TIP3    H228487   3.601   3.342   1.600
 9516TIP3   OH228488   5.419   6.403   0.958
 9516TIP3    H128489   5.373   6.380   0.877
 9516TIP3    H228490   5.428   6.498   0.954
 9517TIP3   OH228491   6.576   3.655   3.092
 9517TIP3    H128492   6.563   3.738   3.045
 9517TIP3    H228493   6.660   3.666   3.137
 9518TIP3   OH228494   4.357   6.270   5.241
 9518TIP3    H128495   4.445   6.244   5.215
 9518TIP3    H228496   4.299   6.226   5.178
 9519TIP3   OH228497   5.626   5.380   1.724
 9519TIP3    H128498   5.626   5.386   1.628
 9519TIP3    H228499   5.580   5.298   1.742
 9520TIP3   OH228500   2.884   3.711   5.972
 9520TIP3    H128501   2.888   3.755   5.887
 9520TIP3    H228502   2.793   3.681   5.980
 9521TIP3   OH228503   4.898   1.887   0.101
 9521TIP3    H128504   4.815   1.861   0.141
 9521TIP3    H228505   4.923   1.812   0.048
 9522TIP3   OH228506   6.092   1.481   5.438
 9522TIP3    H128507   6.128   1.518   5.519
 9522TIP3    H228508   6.086   1.556   5.378
 9523TIP3   OH228509   0.681   2.692   3.492
 9523TIP3    H128510   0.704   2.785   3.503
 9523TIP3    H228511   0.603   2.693   3.438
 9524TIP3   OH228512   7.207   0.437   0.475
 9524TIP3    H128513   7.269   0.506   0.453
 9524TIP3    H228514   7.180   0.401   0.390
 9525TIP3   OH228515   0.270   6.086   5.098
 9525TIP3    H128516   0.248   5.997   5.125
 9525TIP3    H228517   0.227   6.142   5.164
 9526TIP3   OH228518   6.084   0.754   2.103
 9526TIP3    H128519   6.052   0.833   2.060
 9526TIP3    H228520   6.167   0.780   2.143
 9527TIP3   OH228521   2.046   0.790   0.974
 9527TIP3    H128522   2.105   0.863   0.953
 9527TIP3    H228523   2.082   0.753   1.055
 9528TIP3   OH228524   1.707   7.756   5.441
 9528TIP3    H128525   1.783   7.784   5.390
 9528TIP3    H228526   1.635   7.755   5.378
 9529TIP3   OH228527   7.619   6.195   1.832
 9529TIP3    H128528   7.626   6.101   1.848
 9529TIP3    H228529   7.527   6.215   1.850
 9530TIP3   OH228530   6.965   5.884   0.063
 9530TIP3    H128531   6.960   5.935   0.144
 9530TIP3    H228532   7.037   5.823   0.078
 9531TIP3   OH228533   3.758   6.956   2.632
 9531TIP3    H128534   3.775   6.928   2.722
 9531TIP3    H228535   3.838   7.001   2.605
 9532TIP3   OH228536   8.129   1.611   4.653
 9532TIP3    H128537   8.179   1.545   4.605
 9532TIP3    H228538   8.052   1.565   4.686
 9533TIP3   OH228539   4.669   3.265   5.127
 9533TIP3    H128540   4.622   3.220   5.057
 9533TIP3    H228541   4.760   3.237   5.116
 9534TIP3   OH228542   1.012   7.653   6.318
 9534TIP3    H128543   0.944   7.717   6.298
 9534TIP3    H228544   0.983   7.611   6.399
 9535TIP3   OH228545   5.471   7.657   1.074
 9535TIP3    H128546   5.536   7.593   1.104
 9535TIP3    H228547   5.487   7.734   1.128
 9536TIP3   OH228548   7.468   5.880   4.961
 9536TIP3    H128549   7.481   5.963   4.914
 9536TIP3    H228550   7.551   5.866   5.007
 9537TIP3   OH228551   3.215   7.003   6.490
 9537TIP3    H128552   3.124   6.980   6.503
 9537TIP3    H228553   3.252   6.929   6.441
 9538TIP3   OH228554   6.868   0.087   6.478
 9538TIP3    H128555   6.863   0.027   6.552
 9538TIP3    H228556   6.945   0.059   6.429
 9539TIP3   OH228557   4.530   3.709   2.916
 9539TIP3    H128558   4.526   3.616   2.895
 9539TIP3    H228559   4.456   3.748   2.868
 9540TIP3   OH228560   1.798   6.290   3.693
 9540TIP3    H128561   1.708   6.273   3.668
 9540TIP3    H228562   1.813   6.236   3.770
 9541TIP3   OH228563   1.084   1.329   3.585
 9541TIP3    H128564   1.016   1.318   3.519
 9541TIP3    H228565   1.080   1.421   3.610
 9542TIP3   OH228566   6.760   4.930   4.790
 9542TIP3    H128567   6.846   4.952   4.826
 9542TIP3    H228568   6.740   4.844   4.827
 9543TIP3   OH228569   0.673   4.805   6.316
 9543TIP3    H128570   0.718   4.884   6.344
 9543TIP3    H228571   0.737   4.758   6.263
 9544TIP3   OH228572   3.372   2.301   4.278
 9544TIP3    H128573   3.308   2.343   4.336
 9544TIP3    H228574   3.385   2.364   4.207
 9545TIP3   OH228575   5.947   6.408   2.550
 9545TIP3    H128576   5.938   6.458   2.631
 9545TIP3    H228577   6.036   6.429   2.520
 9546TIP3   OH228578   2.493   0.968   3.665
 9546TIP3    H128579   2.399   0.978   3.677
 9546TIP3    H228580   2.517   0.893   3.719
 9547TIP3   OH228581   7.612   7.006   4.538
 9547TIP3    H128582   7.602   7.023   4.632
 9547TIP3    H228583   7.523   7.006   4.504
 9548TIP3   OH228584   1.794   7.389   3.928
 9548TIP3    H128585   1.825   7.305   3.960
 9548TIP3    H228586   1.701   7.376   3.909
 9549TIP3   OH228587   1.135   0.440   3.696
 9549TIP3    H128588   1.083   0.394   3.631
 9549TIP3    H228589   1.152   0.376   3.764
 9550TIP3   OH228590   6.809   4.370   6.372
 9550TIP3    H128591   6.877   4.434   6.392
 9550TIP3    H228592   6.846   4.317   6.302
 9551TIP3   OH228593   0.658   0.741   2.642
 9551TIP3    H128594   0.752   0.750   2.628
 9551TIP3    H228595   0.650   0.706   2.731
 9552TIP3   OH228596   7.191   5.719   2.178
 9552TIP3    H128597   7.157   5.793   2.129
 9552TIP3    H228598   7.171   5.642   2.124
 9553TIP3   OH228599   2.580   7.401   3.170
 9553TIP3    H128600   2.641   7.469   3.142
 9553TIP3    H228601   2.629   7.320   3.162
 9554TIP3   OH228602   6.564   4.792   0.541
 9554TIP3    H128603   6.573   4.708   0.496
 9554TIP3    H228604   6.625   4.850   0.495
 9555TIP3   OH228605   7.373   0.014   6.086
 9555TIP3    H128606   7.355   0.047   5.998
 9555TIP3    H228607   7.299   0.044   6.138
 9556TIP3   OH228608   2.585   0.865   5.872
 9556TIP3    H128609   2.577   0.818   5.789
 9556TIP3    H228610   2.569   0.798   5.939
 9557TIP3   OH228611   6.551   6.316   6.354
 9557TIP3    H128612   6.547   6.404   6.392
 9557TIP3    H228613   6.628   6.276   6.394
 9558TIP3   OH228614   4.631   4.778   4.765
 9558TIP3    H128615   4.551   4.814   4.727
 9558TIP3    H228616   4.608   4.689   4.791
 9559TIP3   OH228617   4.058   5.026   1.047
 9559TIP3    H128618   4.105   4.942   1.053
 9559TIP3    H228619   4.109   5.078   0.985
 9560TIP3   OH228620   6.728   5.660   4.702
 9560TIP3    H128621   6.702   5.569   4.716
 9560TIP3    H228622   6.659   5.696   4.646
 9561TIP3   OH228623   1.839   6.271   5.068
 9561TIP3    H128624   1.904   6.339   5.054
 9561TIP3    H228625   1.779   6.280   4.994
 9562TIP3   OH228626   2.864   1.775   3.306
 9562TIP3    H128627   2.772   1.776   3.334
 9562TIP3    H228628   2.889   1.683   3.310
 9563TIP3   OH228629   0.923   1.220   3.806
 9563TIP3    H128630   0.969   1.198   3.887
 9563TIP3    H228631   0.989   1.265   3.753
 9564TIP3   OH228632   8.311   3.640   5.807
 9564TIP3    H128633   8.356   3.713   5.765
 9564TIP3    H228634   8.254   3.604   5.739
 9565TIP3   OH228635   1.292   0.520   1.838
 9565TIP3    H128636   1.281   0.591   1.775
 9565TIP3    H228637   1.385   0.523   1.862
 9566TIP3   OH228638   1.592   3.491   0.220
 9566TIP3    H128639   1.588   3.499   0.125
 9566TIP3    H228640   1.672   3.536   0.245
 9567TIP3   OH228641   1.531   5.190   2.680
 9567TIP3    H128642   1.586   5.262   2.650
 9567TIP3    H228643   1.585   5.145   2.746
 9568TIP3   OH228644   4.697   5.493   0.718
 9568TIP3    H128645   4.696   5.560   0.787
 9568TIP3    H228646   4.787   5.493   0.687
 9569TIP3   OH228647   2.519   1.998   1.036
 9569TIP3    H128648   2.588   2.053   0.999
 9569TIP3    H228649   2.565   1.920   1.067
 9570TIP3   OH228650   6.630   5.208   4.486
 9570TIP3    H128651   6.657   5.131   4.436
 9570TIP3    H228652   6.654   5.282   4.430
 9571TIP3   OH228653   5.664   6.712   5.520
 9571TIP3    H128654   5.603   6.683   5.587
 9571TIP3    H228655   5.608   6.740   5.447
 9572TIP3   OH228656   5.435   5.638   5.899
 9572TIP3    H128657   5.445   5.662   5.807
 9572TIP3    H228658   5.495   5.565   5.912
 9573TIP3   OH228659   1.211   5.146   6.803
 9573TIP3    H128660   1.237   5.160   6.712
 9573TIP3    H228661   1.148   5.216   6.821
 9574TIP3   OH228662   1.059   1.671   4.906
 9574TIP3    H128663   1.015   1.755   4.894
 9574TIP3    H228664   1.130   1.690   4.968
 9575TIP3   OH228665   4.203   5.563   3.984
 9575TIP3    H128666   4.140   5.575   3.913
 9575TIP3    H228667   4.151   5.571   4.064
 9576TIP3   OH228668   6.596   4.662   1.735
 9576TIP3    H128669   6.662   4.594   1.718
 9576TIP3    H228670   6.529   4.617   1.787
 9577TIP3   OH228671   3.279   3.386   5.186
 9577TIP3    H128672   3.294   3.474   5.151
 9577TIP3    H228673   3.272   3.330   5.108
 9578TIP3   OH228674   6.262   3.669   1.027
 9578TIP3    H128675   6.340   3.688   0.974
 9578TIP3    H228676   6.201   3.739   1.005
 9579TIP3   OH228677   4.367   6.624   6.442
 9579TIP3    H128678   4.439   6.576   6.482
 9579TIP3    H228679   4.311   6.649   6.515
 9580TIP3   OH228680   0.664   3.407   5.432
 9580TIP3    H128681   0.656   3.311   5.433
 9580TIP3    H228682   0.583   3.438   5.472
 9581TIP3   OH228683   2.042   0.226   5.625
 9581TIP3    H128684   2.118   0.198   5.678
 9581TIP3    H228685   2.003   0.296   5.676
 9582TIP3   OH228686   0.842   0.593   2.187
 9582TIP3    H128687   0.777   0.644   2.138
 9582TIP3    H228688   0.796   0.566   2.267
 9583TIP3   OH228689   3.046   4.133   5.882
 9583TIP3    H128690   3.000   4.136   5.966
 9583TIP3    H228691   3.073   4.224   5.867
 9584TIP3   OH228692   0.156   6.929   4.557
 9584TIP3    H128693   0.246   6.908   4.584
 9584TIP3    H228694   0.144   6.883   4.475
 9585TIP3   OH228695   1.741   5.147   6.596
 9585TIP3    H128696   1.739   5.184   6.507
 9585TIP3    H228697   1.666   5.187   6.640
 9586TIP3   OH228698   5.868   5.412   1.404
 9586TIP3    H128699   5.933   5.359   1.358
 9586TIP3    H228700   5.919   5.471   1.459
 9587TIP3   OH228701   3.038   4.473   6.214
 9587TIP3    H128702   2.981   4.438   6.144
 9587TIP3    H228703   2.986   4.462   6.294
 9588TIP3   OH228704   7.274   4.213   5.107
 9588TIP3    H128705   7.207   4.262   5.060
 9588TIP3    H228706   7.326   4.280   5.151
 9589TIP3   OH228707   2.699   6.698   1.455
 9589TIP3    H128708   2.760   6.643   1.504
 9589TIP3    H228709   2.648   6.743   1.523
 9590TIP3   OH228710   0.496   1.796   1.664
 9590TIP3    H128711   0.417   1.849   1.650
 9590TIP3    H228712   0.509   1.749   1.581
 9591TIP3   OH228713   5.020   0.966   2.650
 9591TIP3    H128714   5.089   0.986   2.587
 9591TIP3    H228715   4.983   1.051   2.673
 9592TIP3   OH228716   3.930   4.145   5.771
 9592TIP3    H128717   3.919   4.050   5.758
 9592TIP3    H228718   3.945   4.180   5.684
 9593TIP3   OH228719   6.283   3.937   4.752
 9593TIP3    H128720   6.263   4.030   4.740
 9593TIP3    H228721   6.198   3.894   4.752
 9594TIP3   OH228722   6.093   2.577   4.356
 9594TIP3    H128723   6.050   2.558   4.272
 9594TIP3    H228724   6.083   2.671   4.368
 9595TIP3   OH228725   7.232   4.576   0.265
 9595TIP3    H128726   7.315   4.553   0.223
 9595TIP3    H228727   7.244   4.666   0.295
 9596TIP3   OH228728   4.129   6.650   6.328
 9596TIP3    H128729   4.224   6.659   6.318
 9596TIP3    H228730   4.105   6.586   6.261
 9597TIP3   OH228731   3.869   0.415   1.162
 9597TIP3    H128732   3.796   0.354   1.147
 9597TIP3    H228733   3.907   0.427   1.075
 9598TIP3   OH228734   5.253   5.893   6.725
 9598TIP3    H128735   5.192   5.836   6.773
 9598TIP3    H228736   5.314   5.832   6.683
 9599TIP3   OH228737   2.031   5.863   0.195
 9599TIP3    H128738   1.956   5.919   0.175
 9599TIP3    H228739   1.995   5.775   0.202
 9600TIP3   OH228740   5.652   7.624   2.760
 9600TIP3    H128741   5.686   7.556   2.702
 9600TIP3    H228742   5.664   7.588   2.848
 9601TIP3   OH228743   4.899   1.315   3.458
 9601TIP3    H128744   4.829   1.370   3.422
 9601TIP3    H228745   4.969   1.320   3.393
 9602TIP3   OH228746   4.229   3.335   5.287
 9602TIP3    H128747   4.310   3.284   5.293
 9602TIP3    H228748   4.245   3.412   5.342
 9603TIP3   OH228749   2.546   4.475   1.872
 9603TIP3    H128750   2.465   4.522   1.851
 9603TIP3    H228751   2.571   4.432   1.790
 9604TIP3   OH228752   0.946   5.597   4.835
 9604TIP3    H128753   0.989   5.553   4.762
 9604TIP3    H228754   0.857   5.561   4.836
 9605TIP3   OH228755   7.415   5.737   2.680
 9605TIP3    H128756   7.377   5.763   2.597
 9605TIP3    H228757   7.457   5.652   2.662
 9606TIP3   OH228758   3.905   6.512   2.320
 9606TIP3    H128759   3.869   6.429   2.352
 9606TIP3    H228760   3.847   6.579   2.356
 9607TIP3   OH228761   4.568   3.284   4.600
 9607TIP3    H128762   4.610   3.235   4.670
 9607TIP3    H228763   4.518   3.352   4.644
 9608TIP3   OH228764   4.625   5.733   6.371
 9608TIP3    H128765   4.641   5.785   6.450
 9608TIP3    H228766   4.709   5.690   6.355
 9609TIP3   OH228767   6.765   0.281   3.302
 9609TIP3    H128768   6.714   0.342   3.355
 9609TIP3    H228769   6.717   0.274   3.220
 9610TIP3   OH228770   3.634   4.389   5.743
 9610TIP3    H128771   3.660   4.383   5.651
 9610TIP3    H228772   3.545   4.354   5.746
 9611TIP3   OH228773   5.145   7.650   2.937
 9611TIP3    H128774   5.164   7.593   2.863
 9611TIP3    H228775   5.224   7.705   2.946
 9612TIP3   OH228776   6.353   2.528   1.793
 9612TIP3    H128777   6.354   2.536   1.698
 9612TIP3    H228778   6.392   2.610   1.825
 9613TIP3   OH228779   4.345   4.005   6.614
 9613TIP3    H128780   4.418   4.045   6.661
 9613TIP3    H228781   4.299   3.953   6.681
 9614TIP3   OH228782   5.193   0.515   6.334
 9614TIP3    H128783   5.277   0.479   6.361
 9614TIP3    H228784   5.134   0.440   6.332
 9615TIP3   OH228785   5.342   2.166   0.718
 9615TIP3    H128786   5.299   2.211   0.791
 9615TIP3    H228787   5.435   2.170   0.739
 9616TIP3   OH228788   0.954   5.356   2.285
 9616TIP3    H128789   1.012   5.366   2.361
 9616TIP3    H228790   0.967   5.437   2.235
 9617TIP3   OH228791   3.547   3.889   5.746
 9617TIP3    H128792   3.531   3.795   5.739
 9617TIP3    H228793   3.536   3.909   5.838
 9618TIP3   OH228794   5.465   3.794   0.776
 9618TIP3    H128795   5.544   3.822   0.731
 9618TIP3    H228796   5.475   3.700   0.787
 9619TIP3   OH228797   7.194   2.150   6.449
 9619TIP3    H128798   7.265   2.089   6.433
 9619TIP3    H228799   7.120   2.114   6.400
 9620TIP3   OH228800   8.191   0.801   3.871
 9620TIP3    H128801   8.201   0.762   3.958
 9620TIP3    H228802   8.202   0.728   3.810
 9621TIP3   OH228803   5.657   0.843   0.768
 9621TIP3    H128804   5.675   0.880   0.681
 9621TIP3    H228805   5.741   0.809   0.797
 9622TIP3   OH228806   5.647   3.811   4.532
 9622TIP3    H128807   5.573   3.754   4.513
 9622TIP3    H228808   5.620   3.897   4.501
 9623TIP3   OH228809   3.460   3.322   0.657
 9623TIP3    H128810   3.498   3.410   0.657
 9623TIP3    H228811   3.528   3.267   0.696
 9624TIP3   OH228812   2.350   4.401   3.278
 9624TIP3    H128813   2.431   4.413   3.328
 9624TIP3    H228814   2.375   4.416   3.187
 9625TIP3   OH228815   5.162   6.518   3.418
 9625TIP3    H128816   5.157   6.547   3.327
 9625TIP3    H228817   5.185   6.425   3.412
 9626TIP3   OH228818   7.519   3.109   0.634
 9626TIP3    H128819   7.554   3.093   0.546
 9626TIP3    H228820   7.429   3.076   0.630
 9627TIP3   OH228821   0.523   7.373   3.459
 9627TIP3    H128822   0.517   7.291   3.410
 9627TIP3    H228823   0.500   7.349   3.549
 9628TIP3   OH228824   4.408   1.693   5.470
 9628TIP3    H128825   4.463   1.739   5.534
 9628TIP3    H228826   4.324   1.737   5.475
 9629TIP3   OH228827   6.843   6.685   5.572
 9629TIP3    H128828   6.928   6.729   5.575
 9629TIP3    H228829   6.864   6.597   5.541
 9630TIP3   OH228830   7.895   6.577   2.275
 9630TIP3    H128831   7.977   6.626   2.283
 9630TIP3    H228832   7.908   6.519   2.200
 9631TIP3   OH228833   0.472   6.196   3.812
 9631TIP3    H128834   0.416   6.184   3.889
 9631TIP3    H228835   0.442   6.279   3.775
 9632TIP3   OH228836   1.453   1.697   2.780
 9632TIP3    H128837   1.381   1.653   2.825
 9632TIP3    H228838   1.442   1.790   2.801
 9633TIP3   OH228839   5.550   7.690   5.544
 9633TIP3    H128840   5.562   7.627   5.473
 9633TIP3    H228841   5.510   7.640   5.614
 9634TIP3   OH228842   5.609   5.255   3.311
 9634TIP3    H128843   5.664   5.277   3.387
 9634TIP3    H228844   5.661   5.193   3.261
 9635TIP3   OH228845   3.509   4.669   0.826
 9635TIP3    H128846   3.491   4.593   0.881
 9635TIP3    H228847   3.561   4.727   0.882
 9636TIP3   OH228848   5.435   5.699   6.600
 9636TIP3    H128849   5.383   5.622   6.577
 9636TIP3    H228850   5.512   5.664   6.645
 9637TIP3   OH228851   3.993   2.666   0.038
 9637TIP3    H128852   4.079   2.666   0.080
 9637TIP3    H228853   4.004   2.722  -0.039
 9638TIP3   OH228854   2.848   4.923   5.925
 9638TIP3    H128855   2.879   4.915   6.015
 9638TIP3    H228856   2.759   4.890   5.927
 9639TIP3   OH228857   1.908   1.849   2.153
 9639TIP3    H128858   1.969   1.870   2.083
 9639TIP3    H228859   1.824   1.884   2.123
 9640TIP3   OH228860   0.287   3.407   2.220
 9640TIP3    H128861   0.215   3.462   2.186
 9640TIP3    H228862   0.269   3.320   2.184
 9641TIP3   OH228863   8.167   7.710   4.287
 9641TIP3    H128864   8.144   7.631   4.238
 9641TIP3    H228865   8.167   7.683   4.378
 9642TIP3   OH228866   1.027   7.521   1.725
 9642TIP3    H128867   0.987   7.584   1.785
 9642TIP3    H228868   1.032   7.439   1.774
 9643TIP3   OH228869   4.253   1.863   5.670
 9643TIP3    H128870   4.210   1.840   5.752
 9643TIP3    H228871   4.190   1.920   5.625
 9644TIP3   OH228872   4.707   1.054   0.082
 9644TIP3    H128873   4.699   1.125   0.018
 9644TIP3    H228874   4.640   0.991   0.055
 9645TIP3   OH228875   5.283   6.804   2.799
 9645TIP3    H128876   5.316   6.888   2.830
 9645TIP3    H228877   5.240   6.824   2.716
 9646TIP3   OH228878   4.623   5.284   6.666
 9646TIP3    H128879   4.618   5.190   6.651
 9646TIP3    H228880   4.705   5.310   6.623
 9647TIP3   OH228881   6.912   0.447   0.750
 9647TIP3    H128882   6.879   0.535   0.768
 9647TIP3    H228883   7.001   0.448   0.787
 9648TIP3   OH228884   0.330   5.822   0.248
 9648TIP3    H128885   0.282   5.803   0.328
 9648TIP3    H228886   0.400   5.882   0.274
 9649TIP3   OH228887   2.489   6.804   1.292
 9649TIP3    H128888   2.514   6.804   1.200
 9649TIP3    H228889   2.567   6.774   1.338
 9650TIP3   OH228890   2.106   2.501   4.064
 9650TIP3    H128891   2.106   2.553   4.145
 9650TIP3    H228892   2.038   2.541   4.010
 9651TIP3   OH228893   1.517   5.739   5.870
 9651TIP3    H128894   1.469   5.725   5.952
 9651TIP3    H228895   1.540   5.651   5.840
 9652TIP3   OH228896   4.046   0.749   0.050
 9652TIP3    H128897   4.043   0.739  -0.045
 9652TIP3    H228898   4.043   0.843   0.065
 9653TIP3   OH228899   5.061   2.471   6.135
 9653TIP3    H128900   4.969   2.474   6.159
 9653TIP3    H228901   5.064   2.412   6.059
 9654TIP3   OH228902   1.090   5.652   6.558
 9654TIP3    H128903   1.152   5.582   6.538
 9654TIP3    H228904   1.029   5.653   6.484
 9655TIP3   OH228905   3.646   5.450   3.918
 9655TIP3    H128906   3.553   5.436   3.905
 9655TIP3    H228907   3.670   5.517   3.854
 9656TIP3   OH228908   6.017   6.444   5.935
 9656TIP3    H128909   6.082   6.421   5.870
 9656TIP3    H228910   6.068   6.472   6.012
 9657TIP3   OH228911   6.600   6.997   2.832
 9657TIP3    H128912   6.571   7.043   2.911
 9657TIP3    H228913   6.629   7.066   2.774
 9658TIP3   OH228914   4.174   2.806   1.177
 9658TIP3    H128915   4.156   2.900   1.168
 9658TIP3    H228916   4.266   2.802   1.203
 9659TIP3   OH228917   6.464   7.380   4.842
 9659TIP3    H128918   6.370   7.366   4.844
 9659TIP3    H228919   6.502   7.292   4.844
 9660TIP3   OH228920   2.612   0.258   4.756
 9660TIP3    H128921   2.664   0.305   4.820
 9660TIP3    H228922   2.537   0.315   4.739
 9661TIP3   OH228923   1.961   6.805   1.744
 9661TIP3    H128924   1.961   6.883   1.689
 9661TIP3    H228925   1.878   6.760   1.723
 9662TIP3   OH228926   8.245   7.234   3.157
 9662TIP3    H128927   8.275   7.230   3.248
 9662TIP3    H228928   8.161   7.188   3.158
 9663TIP3   OH228929   4.851   1.949   2.438
 9663TIP3    H128930   4.882   1.938   2.528
 9663TIP3    H228931   4.813   1.864   2.415
 9664TIP3   OH228932   3.896   1.517   5.170
 9664TIP3    H128933   3.839   1.587   5.138
 9664TIP3    H228934   3.839   1.441   5.178
 9665TIP3   OH228935   0.720   1.542   5.775
 9665TIP3    H128936   0.763   1.457   5.783
 9665TIP3    H228937   0.647   1.527   5.715
 9666TIP3   OH228938   1.837   0.072   5.075
 9666TIP3    H128939   1.930   0.083   5.052
 9666TIP3    H228940   1.795   0.153   5.046
 9667TIP3   OH228941   6.869   3.388   0.691
 9667TIP3    H128942   6.832   3.459   0.638
 9667TIP3    H228943   6.962   3.389   0.670
 9668TIP3   OH228944   2.310   5.646   0.685
 9668TIP3    H128945   2.397   5.673   0.656
 9668TIP3    H228946   2.257   5.646   0.605
 9669TIP3   OH228947   7.632   5.247   6.443
 9669TIP3    H128948   7.592   5.276   6.362
 9669TIP3    H228949   7.706   5.307   6.457
 9670TIP3   OH228950   5.950   4.692   1.942
 9670TIP3    H128951   5.939   4.677   1.848
 9670TIP3    H228952   5.958   4.787   1.951
 9671TIP3   OH228953   0.193   6.189   1.183
 9671TIP3    H128954   0.108   6.200   1.224
 9671TIP3    H228955   0.223   6.278   1.165
 9672TIP3   OH228956   4.607   7.512   6.295
 9672TIP3    H128957   4.620   7.503   6.390
 9672TIP3    H228958   4.555   7.435   6.271
 9673TIP3   OH228959   1.387   5.472   6.745
 9673TIP3    H128960   1.362   5.459   6.837
 9673TIP3    H228961   1.379   5.567   6.731
 9674TIP3   OH228962   3.999   1.406   4.553
 9674TIP3    H128963   3.995   1.492   4.594
 9674TIP3    H228964   4.090   1.397   4.524
 9675TIP3   OH228965   2.471   7.716   5.388
 9675TIP3    H128966   2.409   7.657   5.344
 9675TIP3    H228967   2.539   7.658   5.422
 9676TIP3   OH228968   3.866   1.334   2.296
 9676TIP3    H128969   3.913   1.307   2.217
 9676TIP3    H228970   3.899   1.277   2.365
 9677TIP3   OH228971   1.214   5.026   2.143
 9677TIP3    H128972   1.194   5.089   2.212
 9677TIP3    H228973   1.225   5.079   2.064
 9678TIP3   OH228974   5.779   3.313   0.851
 9678TIP3    H128975   5.700   3.275   0.891
 9678TIP3    H228976   5.788   3.267   0.768
 9679TIP3   OH228977   0.784   2.764   0.238
 9679TIP3    H128978   0.771   2.676   0.202
 9679TIP3    H228979   0.869   2.761   0.281
 9680TIP3   OH228980   1.685   2.871   3.865
 9680TIP3    H128981   1.603   2.882   3.913
 9680TIP3    H228982   1.744   2.936   3.901
 9681TIP3   OH228983   0.090   2.645   1.962
 9681TIP3    H128984   0.120   2.672   2.049
 9681TIP3    H228985   0.092   2.726   1.911
 9682TIP3   OH228986   2.471   3.760   3.932
 9682TIP3    H128987   2.378   3.781   3.943
 9682TIP3    H228988   2.478   3.667   3.956
 9683TIP3   OH228989   8.143   7.291   5.053
 9683TIP3    H128990   8.221   7.316   5.102
 9683TIP3    H228991   8.136   7.197   5.065
 9684TIP3   OH228992   3.728   0.269   6.742
 9684TIP3    H128993   3.685   0.208   6.802
 9684TIP3    H228994   3.709   0.356   6.778
 9685TIP3   OH228995   1.251   4.320   6.180
 9685TIP3    H128996   1.165   4.293   6.149
 9685TIP3    H228997   1.243   4.414   6.195
 9686TIP3   OH228998   4.141   4.167   5.262
 9686TIP3    H128999   4.059   4.182   5.215
 9686TIP3    H229000   4.169   4.080   5.234
 9687TIP3   OH229001   1.638   4.612   6.228
 9687TIP3    H129002   1.607   4.523   6.209
 9687TIP3    H229003   1.655   4.612   6.322
 9688TIP3   OH229004   7.899   1.692   1.379
 9688TIP3    H129005   7.923   1.751   1.307
 9688TIP3    H229006   7.978   1.639   1.394
 9689TIP3   OH229007   0.930   6.809   3.109
 9689TIP3    H129008   0.965   6.896   3.089
 9689TIP3    H229009   1.008   6.755   3.123
 9690TIP3   OH229010   2.789   6.652   0.218
 9690TIP3    H129011   2.874   6.610   0.206
 9690TIP3    H229012   2.785   6.670   0.312
 9691TIP3   OH229013   3.651   4.633   0.068
 9691TIP3    H129014   3.650   4.706   0.007
 9691TIP3    H229015   3.560   4.622   0.094
 9692TIP3   OH229016   7.261   7.783   0.799
 9692TIP3    H129017   7.247   7.755   0.709
 9692TIP3    H229018   7.349   7.821   0.799
 9693TIP3   OH229019   4.419   3.823   1.982
 9693TIP3    H129020   4.456   3.740   1.952
 9693TIP3    H229021   4.334   3.799   2.019
 9694TIP3   OH229022   4.835   1.183   5.718
 9694TIP3    H129023   4.814   1.091   5.699
 9694TIP3    H229024   4.890   1.179   5.796
 9695TIP3   OH229025   4.523   6.237   3.869
 9695TIP3    H129026   4.601   6.188   3.894
 9695TIP3    H229027   4.555   6.303   3.808
 9696TIP3   OH229028   6.902   7.581   6.707
 9696TIP3    H129029   6.993   7.608   6.722
 9696TIP3    H229030   6.902   7.487   6.724
 9697TIP3   OH229031   6.338   3.281   2.038
 9697TIP3    H129032   6.327   3.194   2.075
 9697TIP3    H229033   6.419   3.314   2.078
 9698TIP3   OH229034   2.938   6.462   1.858
 9698TIP3    H129035   2.955   6.524   1.929
 9698TIP3    H229036   2.962   6.377   1.894
 9699TIP3   OH229037   4.009   6.148   6.085
 9699TIP3    H129038   3.973   6.068   6.049
 9699TIP3    H229039   4.081   6.171   6.026
 9700TIP3   OH229040   2.949   3.297   3.583
 9700TIP3    H129041   2.973   3.318   3.673
 9700TIP3    H229042   2.854   3.311   3.580
 9701TIP3   OH229043   3.413   7.739   0.781
 9701TIP3    H129044   3.395   7.745   0.874
 9701TIP3    H229045   3.505   7.715   0.775
 9702TIP3   OH229046   3.750   4.307   4.840
 9702TIP3    H129047   3.782   4.396   4.825
 9702TIP3    H229048   3.741   4.301   4.935
 9703TIP3   OH229049   7.557   5.232   3.272
 9703TIP3    H129050   7.632   5.240   3.213
 9703TIP3    H229051   7.505   5.161   3.234
 9704TIP3   OH229052   4.936   4.311   0.513
 9704TIP3    H129053   4.930   4.257   0.433
 9704TIP3    H229054   4.953   4.248   0.583
 9705TIP3   OH229055   2.659   7.292   0.444
 9705TIP3    H129056   2.753   7.287   0.429
 9705TIP3    H229057   2.651   7.310   0.538
 9706TIP3   OH229058   2.192   7.540   2.468
 9706TIP3    H129059   2.271   7.535   2.523
 9706TIP3    H229060   2.135   7.602   2.514
 9707TIP3   OH229061   7.233   6.832   4.061
 9707TIP3    H129062   7.300   6.811   3.996
 9707TIP3    H229063   7.225   6.928   4.058
 9708TIP3   OH229064   6.687   1.444   5.367
 9708TIP3    H129065   6.686   1.524   5.419
 9708TIP3    H229066   6.777   1.413   5.371
 9709TIP3   OH229067   1.475   2.485   4.671
 9709TIP3    H129068   1.550   2.517   4.622
 9709TIP3    H229069   1.400   2.533   4.636
 9710TIP3   OH229070   7.580   6.290   3.136
 9710TIP3    H129071   7.548   6.207   3.172
 9710TIP3    H229072   7.592   6.272   3.043
 9711TIP3   OH229073   4.741   2.145   4.753
 9711TIP3    H129074   4.750   2.050   4.758
 9711TIP3    H229075   4.655   2.163   4.792
 9712TIP3   OH229076   8.200   0.682   6.225
 9712TIP3    H129077   8.219   0.588   6.233
 9712TIP3    H229078   8.246   0.722   6.299
 9713TIP3   OH229079   5.592   2.215   6.326
 9713TIP3    H129080   5.513   2.180   6.367
 9713TIP3    H229081   5.561   2.288   6.272
 9714TIP3   OH229082   0.498   6.573   0.055
 9714TIP3    H129083   0.550   6.518  -0.004
 9714TIP3    H229084   0.559   6.642   0.083
 9715TIP3   OH229085   0.470   5.922   4.475
 9715TIP3    H129086   0.454   5.828   4.484
 9715TIP3    H229087   0.391   5.955   4.433
 9716TIP3   OH229088   3.326   4.180   0.926
 9716TIP3    H129089   3.282   4.265   0.929
 9716TIP3    H229090   3.392   4.190   0.857
 9717TIP3   OH229091   1.510   4.071   2.169
 9717TIP3    H129092   1.463   4.116   2.099
 9717TIP3    H229093   1.442   4.021   2.215
 9718TIP3   OH229094   3.020   1.309   2.060
 9718TIP3    H129095   2.998   1.269   1.976
 9718TIP3    H229096   3.109   1.279   2.079
 9719TIP3   OH229097   7.014   1.881   2.135
 9719TIP3    H129098   6.987   1.800   2.093
 9719TIP3    H229099   7.109   1.882   2.125
 9720TIP3   OH229100   4.431   1.942   0.240
 9720TIP3    H129101   4.481   1.861   0.246
 9720TIP3    H229102   4.391   1.939   0.153
 9721TIP3   OH229103   6.567   2.332   3.577
 9721TIP3    H129104   6.609   2.414   3.605
 9721TIP3    H229105   6.473   2.350   3.583
 9722TIP3   OH229106   3.000   3.880   5.129
 9722TIP3    H129107   3.073   3.864   5.070
 9722TIP3    H229108   3.037   3.869   5.217
 9723TIP3   OH229109   2.652   7.542   4.043
 9723TIP3    H129110   2.598   7.468   4.015
 9723TIP3    H229111   2.644   7.543   4.138
 9724TIP3   OH229112   4.427   4.035   4.276
 9724TIP3    H129113   4.354   4.075   4.228
 9724TIP3    H229114   4.474   3.983   4.210
 9725TIP3   OH229115   6.509   1.278   5.016
 9725TIP3    H129116   6.498   1.362   5.060
 9725TIP3    H229117   6.570   1.295   4.945
 9726TIP3   OH229118   5.513   0.505   1.529
 9726TIP3    H129119   5.531   0.572   1.594
 9726TIP3    H229120   5.544   0.423   1.568
 9727TIP3   OH229121   4.685   0.446   1.153
 9727TIP3    H129122   4.617   0.497   1.108
 9727TIP3    H229123   4.666   0.457   1.246
 9728TIP3   OH229124   1.250   6.160   6.819
 9728TIP3    H129125   1.212   6.209   6.746
 9728TIP3    H229126   1.228   6.211   6.896
 9729TIP3   OH229127   7.559   3.095   2.687
 9729TIP3    H129128   7.589   3.132   2.605
 9729TIP3    H229129   7.468   3.125   2.696
 9730TIP3   OH229130   3.559   0.072   0.364
 9730TIP3    H129131   3.645   0.098   0.333
 9730TIP3    H229132   3.507   0.059   0.285
 9731TIP3   OH229133   1.644   6.802   1.933
 9731TIP3    H129134   1.649   6.815   1.839
 9731TIP3    H229135   1.682   6.715   1.947
 9732TIP3   OH229136   0.625   4.470   4.824
 9732TIP3    H129137   0.563   4.480   4.752
 9732TIP3    H229138   0.705   4.512   4.792
 9733TIP3   OH229139   5.077   4.492   4.159
 9733TIP3    H129140   4.991   4.516   4.193
 9733TIP3    H229141   5.115   4.435   4.226
 9734TIP3   OH229142   1.074   0.351   2.975
 9734TIP3    H129143   1.168   0.365   2.989
 9734TIP3    H229144   1.042   0.316   3.058
 9735TIP3   OH229145   2.551   5.818   2.672
 9735TIP3    H129146   2.565   5.907   2.705
 9735TIP3    H229147   2.586   5.761   2.741
 9736TIP3   OH229148   5.093   6.371   1.015
 9736TIP3    H129149   5.186   6.357   0.998
 9736TIP3    H229150   5.088   6.457   1.056
 9737TIP3   OH229151   1.225   2.602   4.892
 9737TIP3    H129152   1.266   2.622   4.976
 9737TIP3    H229153   1.171   2.524   4.909
 9738TIP3   OH229154   5.076   6.412   2.509
 9738TIP3    H129155   5.009   6.443   2.570
 9738TIP3    H229156   5.066   6.316   2.509
 9739TIP3   OH229157   4.461   5.357   1.887
 9739TIP3    H129158   4.489   5.284   1.831
 9739TIP3    H229159   4.391   5.320   1.941
 9740TIP3   OH229160   3.040   2.101   4.841
 9740TIP3    H129161   2.964   2.115   4.897
 9740TIP3    H229162   3.024   2.153   4.763
 9741TIP3   OH229163   1.717   6.331   1.653
 9741TIP3    H129164   1.805   6.306   1.625
 9741TIP3    H229165   1.726   6.349   1.747
 9742TIP3   OH229166   0.253   3.162   0.271
 9742TIP3    H129167   0.266   3.086   0.329
 9742TIP3    H229168   0.327   3.219   0.291
 9743TIP3   OH229169   0.405   6.069   0.544
 9743TIP3    H129170   0.428   5.976   0.541
 9743TIP3    H229171   0.377   6.090   0.455
 9744TIP3   OH229172   2.747   6.006   6.607
 9744TIP3    H129173   2.821   6.026   6.663
 9744TIP3    H229174   2.670   6.032   6.658
 9745TIP3   OH229175   4.693   4.152   6.107
 9745TIP3    H129176   4.704   4.057   6.119
 9745TIP3    H229177   4.609   4.171   6.148
 9746TIP3   OH229178   3.894   1.997   2.438
 9746TIP3    H129179   3.881   1.917   2.386
 9746TIP3    H229180   3.888   2.068   2.374
 9747TIP3   OH229181   2.760   0.542   5.565
 9747TIP3    H129182   2.762   0.458   5.519
 9747TIP3    H229183   2.835   0.590   5.531
 9748TIP3   OH229184   7.932   3.930   5.861
 9748TIP3    H129185   7.844   3.892   5.860
 9748TIP3    H229186   7.958   3.929   5.953
 9749TIP3   OH229187   4.405   2.853   0.819
 9749TIP3    H129188   4.402   2.883   0.728
 9749TIP3    H229189   4.352   2.917   0.867
 9750TIP3   OH229190   5.041   0.926   4.708
 9750TIP3    H129191   5.080   0.883   4.632
 9750TIP3    H229192   5.111   0.930   4.772
 9751TIP3   OH229193   4.156   5.783   4.670
 9751TIP3    H129194   4.179   5.727   4.595
 9751TIP3    H229195   4.206   5.747   4.743
 9752TIP3   OH229196   1.268   5.570   2.351
 9752TIP3    H129197   1.223   5.574   2.266
 9752TIP3    H229198   1.198   5.567   2.415
 9753TIP3   OH229199   0.395   1.213   3.354
 9753TIP3    H129200   0.416   1.234   3.445
 9753TIP3    H229201   0.328   1.144   3.361
 9754TIP3   OH229202   1.902   5.270   3.266
 9754TIP3    H129203   1.894   5.299   3.357
 9754TIP3    H229204   1.921   5.176   3.273
 9755TIP3   OH229205   4.149   0.171   0.038
 9755TIP3    H129206   4.059   0.160   0.006
 9755TIP3    H229207   4.140   0.169   0.134
 9756TIP3   OH229208   7.450   6.105   5.361
 9756TIP3    H129209   7.438   6.031   5.420
 9756TIP3    H229210   7.522   6.155   5.400
 9757TIP3   OH229211   4.149   7.282   1.599
 9757TIP3    H129212   4.125   7.288   1.691
 9757TIP3    H229213   4.167   7.189   1.584
 9758TIP3   OH229214   0.242   1.516   2.798
 9758TIP3    H129215   0.266   1.571   2.873
 9758TIP3    H229216   0.300   1.440   2.804
 9759TIP3   OH229217   5.426   0.362   1.284
 9759TIP3    H129218   5.351   0.394   1.233
 9759TIP3    H229219   5.430   0.421   1.360
 9760TIP3   OH229220   1.498   2.188   4.258
 9760TIP3    H129221   1.451   2.186   4.341
 9760TIP3    H229222   1.434   2.220   4.195
 9761TIP3   OH229223   5.113   3.399   2.481
 9761TIP3    H129224   5.098   3.400   2.386
 9761TIP3    H229225   5.157   3.483   2.498
 9762TIP3   OH229226   7.186   3.747   0.225
 9762TIP3    H129227   7.159   3.663   0.263
 9762TIP3    H229228   7.215   3.725   0.137
 9763TIP3   OH229229   1.780   6.384   6.619
 9763TIP3    H129230   1.842   6.313   6.602
 9763TIP3    H229231   1.817   6.459   6.573
 9764TIP3   OH229232   0.189   3.340   1.851
 9764TIP3    H129233   0.236   3.260   1.874
 9764TIP3    H229234   0.127   3.353   1.922
 9765TIP3   OH229235   3.047   3.992   0.041
 9765TIP3    H129236   3.009   3.906   0.023
 9765TIP3    H229237   3.070   4.026  -0.046
 9766TIP3   OH229238   8.418   4.066   4.318
 9766TIP3    H129239   8.370   4.116   4.385
 9766TIP3    H229240   8.359   4.066   4.243
 9767TIP3   OH229241   8.385   5.514   3.407
 9767TIP3    H129242   8.369   5.595   3.359
 9767TIP3    H229243   8.400   5.449   3.339
 9768TIP3   OH229244   8.079   0.397   3.472
 9768TIP3    H129245   8.154   0.455   3.474
 9768TIP3    H229246   8.047   0.395   3.563
 9769TIP3   OH229247   2.097   5.314   6.046
 9769TIP3    H129248   2.071   5.223   6.060
 9769TIP3    H229249   2.179   5.323   6.094
 9770TIP3   OH229250   5.797   4.670   5.860
 9770TIP3    H129251   5.831   4.739   5.804
 9770TIP3    H229252   5.746   4.614   5.800
 9771TIP3   OH229253   3.216   5.989   0.939
 9771TIP3    H129254   3.141   5.947   0.980
 9771TIP3    H229255   3.284   5.921   0.939
 9772TIP3   OH229256   7.101   0.561   4.094
 9772TIP3    H129257   7.196   0.564   4.105
 9772TIP3    H229258   7.087   0.503   4.019
 9773TIP3   OH229259   3.921   6.416   0.929
 9773TIP3    H129260   3.993   6.479   0.930
 9773TIP3    H229261   3.935   6.366   0.848
 9774TIP3   OH229262   7.276   5.919   5.620
 9774TIP3    H129263   7.314   5.831   5.627
 9774TIP3    H229264   7.211   5.911   5.551
 9775TIP3   OH229265   7.792   6.302   1.493
 9775TIP3    H129266   7.852   6.367   1.530
 9775TIP3    H229267   7.840   6.260   1.422
 9776TIP3   OH229268   3.814   1.053   6.235
 9776TIP3    H129269   3.859   0.969   6.232
 9776TIP3    H229270   3.879   1.116   6.203
 9777TIP3   OH229271   1.308   1.361   5.616
 9777TIP3    H129272   1.362   1.364   5.537
 9777TIP3    H229273   1.317   1.448   5.654
 9778TIP3   OH229274   5.333   1.023   2.469
 9778TIP3    H129275   5.286   1.106   2.460
 9778TIP3    H229276   5.342   1.011   2.563
 9779TIP3   OH229277   1.194   6.200   2.340
 9779TIP3    H129278   1.112   6.243   2.365
 9779TIP3    H229279   1.229   6.253   2.269
 9780TIP3   OH229280   0.308   0.524   5.965
 9780TIP3    H129281   0.333   0.613   5.945
 9780TIP3    H229282   0.366   0.497   6.036
 9781TIP3   OH229283   0.399   0.178   2.771
 9781TIP3    H129284   0.414   0.146   2.682
 9781TIP3    H229285   0.378   0.100   2.821
 9782TIP3   OH229286   7.482   0.881   4.233
 9782TIP3    H129287   7.492   0.961   4.284
 9782TIP3    H229288   7.480   0.811   4.298
 9783TIP3   OH229289   3.066   6.780   5.310
 9783TIP3    H129290   3.081   6.732   5.228
 9783TIP3    H229291   3.121   6.735   5.374
 9784TIP3   OH229292   0.750   6.212   4.417
 9784TIP3    H129293   0.742   6.139   4.478
 9784TIP3    H229294   0.677   6.202   4.357
 9785TIP3   OH229295   0.474   5.037   2.753
 9785TIP3    H129296   0.501   4.969   2.691
 9785TIP3    H229297   0.523   5.115   2.727
 9786TIP3   OH229298   4.136   2.980   1.490
 9786TIP3    H129299   4.092   2.950   1.569
 9786TIP3    H229300   4.110   2.917   1.423
 9787TIP3   OH229301   0.140   1.666   4.661
 9787TIP3    H129302   0.111   1.749   4.622
 9787TIP3    H229303   0.213   1.638   4.605
 9788TIP3   OH229304   1.261   4.268   2.195
 9788TIP3    H129305   1.338   4.317   2.225
 9788TIP3    H229306   1.187   4.316   2.233
 9789TIP3   OH229307   8.109   1.759   3.478
 9789TIP3    H129308   8.064   1.696   3.533
 9789TIP3    H229309   8.095   1.728   3.389
 9790TIP3   OH229310   1.733   5.527   0.367
 9790TIP3    H129311   1.696   5.439   0.378
 9790TIP3    H229312   1.674   5.585   0.414
 9791TIP3   OH229313   4.311   3.890   0.504
 9791TIP3    H129314   4.340   3.922   0.589
 9791TIP3    H229315   4.326   3.795   0.508
 9792TIP3   OH229316   4.582   2.160   1.447
 9792TIP3    H129317   4.627   2.121   1.522
 9792TIP3    H229318   4.612   2.109   1.372
 9793TIP3   OH229319   7.215   3.088   1.999
 9793TIP3    H129320   7.217   3.153   2.070
 9793TIP3    H229321   7.198   3.140   1.920
 9794TIP3   OH229322   0.046   5.854   2.785
 9794TIP3    H129323  -0.043   5.834   2.813
 9794TIP3    H229324   0.051   5.822   2.694
 9795TIP3   OH229325   6.414   2.789   2.784
 9795TIP3    H129326   6.365   2.866   2.815
 9795TIP3    H229327   6.363   2.714   2.814
 9796TIP3   OH229328   3.001   7.792   4.008
 9796TIP3    H129329   3.090   7.806   3.975
 9796TIP3    H229330   3.000   7.837   4.092
 9797TIP3   OH229331   6.973   5.237   6.138
 9797TIP3    H129332   7.017   5.321   6.151
 9797TIP3    H229333   6.909   5.254   6.069
 9798TIP3   OH229334   4.101   4.956   1.983
 9798TIP3    H129335   4.164   4.902   2.031
 9798TIP3    H229336   4.143   4.973   1.899
 9799TIP3   OH229337   7.867   0.950   3.894
 9799TIP3    H129338   7.908   0.918   3.974
 9799TIP3    H229339   7.785   0.990   3.924
 9800TIP3   OH229340   8.119   3.533   6.306
 9800TIP3    H129341   8.031   3.546   6.271
 9800TIP3    H229342   8.128   3.438   6.313
 9801TIP3   OH229343   5.528   0.662   1.199
 9801TIP3    H129344   5.442   0.682   1.234
 9801TIP3    H229345   5.511   0.628   1.111
 9802TIP3   OH229346   1.339   4.616   0.611
 9802TIP3    H129347   1.278   4.561   0.562
 9802TIP3    H229348   1.380   4.671   0.544
 9803TIP3   OH229349   4.839   3.241   3.181
 9803TIP3    H129350   4.872   3.317   3.133
 9803TIP3    H229351   4.867   3.256   3.272
 9804TIP3   OH229352   5.328   1.721   2.270
 9804TIP3    H129353   5.313   1.736   2.177
 9804TIP3    H229354   5.422   1.737   2.282
 9805TIP3   OH229355   2.412   7.175  -0.027
 9805TIP3    H129356   2.363   7.228   0.035
 9805TIP3    H229357   2.428   7.092   0.019
 9806TIP3   OH229358   2.093   7.396   0.396
 9806TIP3    H129359   2.119   7.368   0.308
 9806TIP3    H229360   2.041   7.475   0.381
 9807TIP3   OH229361   5.436   2.736   0.188
 9807TIP3    H129362   5.513   2.744   0.244
 9807TIP3    H229363   5.399   2.651   0.212
 9808TIP3   OH229364   1.023   2.966   0.041
 9808TIP3    H129365   1.058   3.002  -0.041
 9808TIP3    H229366   1.070   2.883   0.052
 9809TIP3   OH229367   0.816   3.682   2.417
 9809TIP3    H129368   0.764   3.606   2.445
 9809TIP3    H229369   0.827   3.734   2.497
 9810TIP3   OH229370   4.491   3.416   0.175
 9810TIP3    H129371   4.557   3.397   0.108
 9810TIP3    H229372   4.435   3.339   0.176
 9811TIP3   OH229373   3.045   4.054   4.727
 9811TIP3    H129374   3.001   4.001   4.660
 9811TIP3    H229375   3.137   4.054   4.701
 9812TIP3   OH229376   2.372   2.750   6.800
 9812TIP3    H129377   2.441   2.759   6.865
 9812TIP3    H229378   2.418   2.726   6.720
 9813TIP3   OH229379   2.489   0.708   0.583
 9813TIP3    H129380   2.468   0.789   0.629
 9813TIP3    H229381   2.520   0.736   0.497
 9814TIP3   OH229382   2.179   1.859   3.965
 9814TIP3    H129383   2.235   1.869   4.042
 9814TIP3    H229384   2.197   1.936   3.912
 9815TIP3   OH229385   1.893   5.623   5.696
 9815TIP3    H129386   1.841   5.572   5.634
 9815TIP3    H229387   1.984   5.603   5.673
 9816TIP3   OH229388   5.143   1.946   3.994
 9816TIP3    H129389   5.207   1.882   4.024
 9816TIP3    H229390   5.075   1.946   4.062
 9817TIP3   OH229391   1.553   7.736   3.477
 9817TIP3    H129392   1.565   7.814   3.423
 9817TIP3    H229393   1.514   7.769   3.558
 9818TIP3   OH229394   5.974   1.295   2.116
 9818TIP3    H129395   6.001   1.366   2.059
 9818TIP3    H229396   6.020   1.311   2.199
 9819TIP3   OH229397   5.664   6.012   4.121
 9819TIP3    H129398   5.734   6.057   4.168
 9819TIP3    H229399   5.658   6.057   4.037
 9820TIP3   OH229400   7.320   0.076   5.238
 9820TIP3    H129401   7.255   0.046   5.302
 9820TIP3    H229402   7.389   0.116   5.291
 9821TIP3   OH229403   3.712   4.036   3.214
 9821TIP3    H129404   3.744   3.998   3.132
 9821TIP3    H229405   3.767   4.113   3.228
 9822TIP3   OH229406   2.852   1.858   1.099
 9822TIP3    H129407   2.926   1.900   1.142
 9822TIP3    H229408   2.886   1.774   1.068
 9823TIP3   OH229409   6.846   2.119   2.646
 9823TIP3    H129410   6.782   2.190   2.646
 9823TIP3    H229411   6.796   2.041   2.622
 9824TIP3   OH229412   0.926   0.432   6.612
 9824TIP3    H129413   1.008   0.481   6.612
 9824TIP3    H229414   0.941   0.359   6.552
 9825TIP3   OH229415   4.636   1.520   6.458
 9825TIP3    H129416   4.722   1.481   6.474
 9825TIP3    H229417   4.580   1.445   6.435
 9826TIP3   OH229418   4.873   0.684   3.627
 9826TIP3    H129419   4.848   0.748   3.561
 9826TIP3    H229420   4.960   0.655   3.601
 9827TIP3   OH229421   6.812   2.689   5.903
 9827TIP3    H129422   6.886   2.749   5.895
 9827TIP3    H229423   6.800   2.677   5.998
 9828TIP3   OH229424   4.367   5.975   0.068
 9828TIP3    H129425   4.319   5.982  -0.015
 9828TIP3    H229426   4.424   5.899   0.055
 9829TIP3   OH229427   5.119   1.961   6.184
 9829TIP3    H129428   5.044   1.942   6.127
 9829TIP3    H229429   5.079   1.988   6.267
 9830TIP3   OH229430   5.591   4.496   1.818
 9830TIP3    H129431   5.525   4.546   1.769
 9830TIP3    H229432   5.558   4.406   1.818
 9831TIP3   OH229433   1.869   3.446   6.011
 9831TIP3    H129434   1.889   3.540   6.008
 9831TIP3    H229435   1.844   3.424   5.922
 9832TIP3   OH229436   6.870   2.981   6.467
 9832TIP3    H129437   6.877   3.075   6.453
 9832TIP3    H229438   6.886   2.969   6.560
 9833TIP3   OH229439   3.492   1.238   0.564
 9833TIP3    H129440   3.570   1.187   0.585
 9833TIP3    H229441   3.438   1.234   0.643
 9834TIP3   OH229442   2.463   6.989   5.324
 9834TIP3    H129443   2.424   6.901   5.327
 9834TIP3    H229444   2.548   6.975   5.281
 9835TIP3   OH229445   0.315   3.727   5.371
 9835TIP3    H129446   0.332   3.709   5.464
 9835TIP3    H229447   0.269   3.650   5.340
 9836TIP3   OH229448   3.217   6.342   0.375
 9836TIP3    H129449   3.150   6.305   0.316
 9836TIP3    H229450   3.225   6.276   0.444
 9837TIP3   OH229451   4.250   1.585   6.652
 9837TIP3    H129452   4.323   1.588   6.713
 9837TIP3    H229453   4.212   1.498   6.663
 9838TIP3   OH229454   7.538   1.775   3.144
 9838TIP3    H129455   7.630   1.748   3.137
 9838TIP3    H229456   7.529   1.847   3.082
 9839TIP3   OH229457   7.980   1.532   3.168
 9839TIP3    H129458   7.929   1.534   3.088
 9839TIP3    H229459   7.918   1.556   3.237
 9840TIP3   OH229460   2.297   6.255   6.626
 9840TIP3    H129461   2.349   6.298   6.695
 9840TIP3    H229462   2.360   6.199   6.581
 9841TIP3   OH229463   4.606   0.595   1.346
 9841TIP3    H129464   4.514   0.602   1.372
 9841TIP3    H229465   4.653   0.589   1.430
 9842TIP3   OH229466   3.616   3.643   3.920
 9842TIP3    H129467   3.573   3.581   3.979
 9842TIP3    H229468   3.676   3.692   3.976
 9843TIP3   OH229469   0.162   3.414   5.822
 9843TIP3    H129470   0.124   3.495   5.787
 9843TIP3    H229471   0.246   3.406   5.776
 9844TIP3   OH229472   0.331   5.571   4.219
 9844TIP3    H129473   0.258   5.633   4.223
 9844TIP3    H229474   0.409   5.626   4.212
 9845TIP3   OH229475   1.206   7.438   6.084
 9845TIP3    H129476   1.133   7.470   6.030
 9845TIP3    H229477   1.268   7.511   6.086
 9846TIP3   OH229478   5.307   2.610   0.840
 9846TIP3    H129479   5.357   2.688   0.817
 9846TIP3    H229480   5.251   2.593   0.763
 9847TIP3   OH229481   3.762   4.084   1.633
 9847TIP3    H129482   3.670   4.108   1.642
 9847TIP3    H229483   3.783   4.038   1.714
 9848TIP3   OH229484   0.287   7.675   6.424
 9848TIP3    H129485   0.295   7.757   6.376
 9848TIP3    H229486   0.268   7.610   6.356
 9849TIP3   OH229487   4.190   3.846   6.757
 9849TIP3    H129488   4.185   3.751   6.768
 9849TIP3    H229489   4.112   3.880   6.801
 9850TIP3   OH229490   2.211   5.566   2.434
 9850TIP3    H129491   2.173   5.617   2.506
 9850TIP3    H229492   2.284   5.620   2.402
 9851TIP3   OH229493   7.186   3.031   4.618
 9851TIP3    H129494   7.178   2.936   4.609
 9851TIP3    H229495   7.173   3.064   4.529
 9852TIP3   OH229496   4.050   2.387   0.408
 9852TIP3    H129497   4.078   2.458   0.466
 9852TIP3    H229498   4.107   2.314   0.430
 9853TIP3   OH229499   0.079   6.824   4.317
 9853TIP3    H129500   0.023   6.766   4.266
 9853TIP3    H229501   0.166   6.813   4.279
 9854TIP3   OH229502   2.459   2.788   1.674
 9854TIP3    H129503   2.381   2.825   1.716
 9854TIP3    H229504   2.485   2.856   1.611
 9855TIP3   OH229505   4.394   4.166   0.234
 9855TIP3    H129506   4.481   4.204   0.245
 9855TIP3    H229507   4.409   4.088   0.180
 9856TIP3   OH229508   7.025   2.345   6.558
 9856TIP3    H129509   6.961   2.278   6.537
 9856TIP3    H229510   7.109   2.300   6.556
 9857TIP3   OH229511   3.104   5.020   1.690
 9857TIP3    H129512   3.013   5.050   1.682
 9857TIP3    H229513   3.146   5.050   1.609
 9858TIP3   OH229514   7.862   5.211   5.178
 9858TIP3    H129515   7.781   5.169   5.208
 9858TIP3    H229516   7.928   5.183   5.242
 9859TIP3   OH229517   8.202   1.210   1.428
 9859TIP3    H129518   8.293   1.197   1.402
 9859TIP3    H229519   8.160   1.247   1.350
 9860TIP3   OH229520   8.255   4.012   6.446
 9860TIP3    H129521   8.255   3.916   6.440
 9860TIP3    H229522   8.262   4.030   6.540
 9861TIP3   OH229523   2.096   0.640   1.951
 9861TIP3    H129524   2.093   0.631   2.046
 9861TIP3    H229525   2.170   0.700   1.935
 9862TIP3   OH229526   2.669   4.693   1.967
 9862TIP3    H129527   2.703   4.666   2.052
 9862TIP3    H229528   2.615   4.620   1.938
 9863TIP3   OH229529   7.929   2.959   1.118
 9863TIP3    H129530   7.917   2.881   1.064
 9863TIP3    H229531   7.881   3.028   1.072
 9864TIP3   OH229532   4.685   1.177   0.349
 9864TIP3    H129533   4.606   1.216   0.385
 9864TIP3    H229534   4.654   1.123   0.276
 9865TIP3   OH229535   7.322   6.314   2.245
 9865TIP3    H129536   7.325   6.343   2.336
 9865TIP3    H229537   7.350   6.223   2.247
 9866TIP3   OH229538   3.933   1.810   0.399
 9866TIP3    H129539   4.024   1.839   0.391
 9866TIP3    H229540   3.881   1.881   0.361
 9867TIP3   OH229541   7.839   0.570   4.147
 9867TIP3    H129542   7.746   0.590   4.139
 9867TIP3    H229543   7.854   0.500   4.083
 9868TIP3   OH229544   1.864   6.614   5.702
 9868TIP3    H129545   1.788   6.672   5.698
 9868TIP3    H229546   1.938   6.673   5.715
 9869TIP3   OH229547   4.682   1.703   2.613
 9869TIP3    H129548   4.675   1.647   2.536
 9869TIP3    H229549   4.759   1.670   2.660
 9870TIP3   OH229550   4.776   4.237   3.197
 9870TIP3    H129551   4.822   4.277   3.124
 9870TIP3    H229552   4.791   4.143   3.187
 9871TIP3   OH229553   4.824   4.992   5.492
 9871TIP3    H129554   4.833   5.057   5.423
 9871TIP3    H229555   4.914   4.965   5.511
 9872TIP3   OH229556   2.862   6.296   3.560
 9872TIP3    H129557   2.879   6.250   3.477
 9872TIP3    H229558   2.781   6.256   3.593
 9873TIP3   OH229559   5.807   0.405   0.884
 9873TIP3    H129560   5.737   0.341   0.880
 9873TIP3    H229561   5.869   0.378   0.817
 9874TIP3   OH229562   8.225   6.990   2.028
 9874TIP3    H129563   8.244   7.020   1.939
 9874TIP3    H229564   8.306   7.008   2.077
 9875TIP3   OH229565   3.672   6.121   2.182
 9875TIP3    H129566   3.734   6.127   2.110
 9875TIP3    H229567   3.589   6.150   2.144
 9876TIP3   OH229568   4.687   5.934   3.875
 9876TIP3    H129569   4.715   5.930   3.966
 9876TIP3    H229570   4.592   5.920   3.878
 9877TIP3   OH229571   5.448   2.784   3.002
 9877TIP3    H129572   5.415   2.697   3.023
 9877TIP3    H229573   5.369   2.837   2.991
 9878TIP3   OH229574   0.157   5.788   4.136
 9878TIP3    H129575   0.213   5.759   4.064
 9878TIP3    H229576   0.068   5.783   4.101
 9879TIP3   OH229577   5.625   1.244   6.875
 9879TIP3    H129578   5.671   1.176   6.826
 9879TIP3    H229579   5.598   1.308   6.809
 9880TIP3   OH229580   4.189   1.863   2.050
 9880TIP3    H129581   4.257   1.834   1.989
 9880TIP3    H229582   4.233   1.927   2.107
 9881TIP3   OH229583   8.303   2.440   6.022
 9881TIP3    H129584   8.239   2.505   6.052
 9881TIP3    H229585   8.250   2.362   6.003
 9882TIP3   OH229586   6.648   3.669   4.493
 9882TIP3    H129587   6.593   3.659   4.415
 9882TIP3    H229588   6.596   3.723   4.553
 9883TIP3   OH229589   2.173   7.297   3.018
 9883TIP3    H129590   2.146   7.308   3.109
 9883TIP3    H229591   2.229   7.373   3.000
 9884TIP3   OH229592   7.400   6.903   6.809
 9884TIP3    H129593   7.481   6.852   6.813
 9884TIP3    H229594   7.392   6.942   6.896
 9885TIP3   OH229595   6.146   7.414   2.550
 9885TIP3    H129596   6.236   7.407   2.580
 9885TIP3    H229597   6.152   7.443   2.459
 9886TIP3   OH229598   8.284   0.109   5.463
 9886TIP3    H129599   8.247   0.040   5.519
 9886TIP3    H229600   8.230   0.186   5.480
 9887TIP3   OH229601   3.041   6.763   2.340
 9887TIP3    H129602   2.984   6.688   2.319
 9887TIP3    H229603   3.073   6.745   2.428
 9888TIP3   OH229604   7.966   5.902   4.949
 9888TIP3    H129605   7.918   5.886   4.868
 9888TIP3    H229606   7.941   5.830   5.007
 9889TIP3   OH229607   7.699   0.625   6.467
 9889TIP3    H129608   7.684   0.539   6.507
 9889TIP3    H229609   7.795   0.635   6.470
 9890TIP3   OH229610   7.911   5.718   2.135
 9890TIP3    H129611   7.926   5.799   2.085
 9890TIP3    H229612   7.992   5.668   2.123
 9891TIP3   OH229613   5.617   7.810   1.275
 9891TIP3    H129614   5.640   7.733   1.326
 9891TIP3    H229615   5.595   7.876   1.340
 9892TIP3   OH229616   4.871   2.684   4.129
 9892TIP3    H129617   4.893   2.628   4.055
 9892TIP3    H229618   4.795   2.642   4.170
 9893TIP3   OH229619   3.651   2.531   0.236
 9893TIP3    H129620   3.704   2.609   0.252
 9893TIP3    H229621   3.695   2.461   0.283
 9894TIP3   OH229622   0.853   6.711   2.082
 9894TIP3    H129623   0.758   6.715   2.088
 9894TIP3    H229624   0.876   6.785   2.025
 9895TIP3   OH229625   2.770   4.384   5.051
 9895TIP3    H129626   2.741   4.433   4.974
 9895TIP3    H229627   2.818   4.309   5.014
 9896TIP3   OH229628   0.641   5.832   3.313
 9896TIP3    H129629   0.620   5.803   3.224
 9896TIP3    H229630   0.600   5.767   3.370
 9897TIP3   OH229631   6.307   6.167   3.176
 9897TIP3    H129632   6.277   6.080   3.204
 9897TIP3    H229633   6.258   6.228   3.231
 9898TIP3   OH229634   0.692   3.789   5.534
 9898TIP3    H129635   0.639   3.772   5.612
 9898TIP3    H229636   0.755   3.716   5.532
 9899TIP3   OH229637   6.285   4.138   2.848
 9899TIP3    H129638   6.276   4.050   2.811
 9899TIP3    H229639   6.298   4.124   2.941
 9900TIP3   OH229640   2.983   6.218   2.919
 9900TIP3    H129641   2.915   6.153   2.937
 9900TIP3    H229642   2.962   6.292   2.976
 9901TIP3   OH229643   6.655   1.059   5.871
 9901TIP3    H129644   6.741   1.083   5.907
 9901TIP3    H229645   6.674   1.022   5.785
 9902TIP3   OH229646   0.083   5.237   5.504
 9902TIP3    H129647   0.166   5.265   5.466
 9902TIP3    H229648   0.063   5.303   5.570
 9903TIP3   OH229649   0.830   2.206   5.575
 9903TIP3    H129650   0.810   2.113   5.571
 9903TIP3    H229651   0.777   2.239   5.647
 9904TIP3   OH229652   0.841   7.761   1.611
 9904TIP3    H129653   0.770   7.712   1.571
 9904TIP3    H229654   0.847   7.726   1.700
 9905TIP3   OH229655   3.999   3.328   6.469
 9905TIP3    H129656   4.007   3.259   6.534
 9905TIP3    H229657   4.038   3.291   6.390
 9906TIP3   OH229658   4.363   3.372   6.064
 9906TIP3    H129659   4.390   3.459   6.093
 9906TIP3    H229660   4.444   3.323   6.055
 9907TIP3   OH229661   1.018   2.578   2.715
 9907TIP3    H129662   1.022   2.673   2.727
 9907TIP3    H229663   1.083   2.544   2.776
 9908TIP3   OH229664   7.478   0.228   2.381
 9908TIP3    H129665   7.443   0.281   2.453
 9908TIP3    H229666   7.498   0.292   2.313
 9909TIP3   OH229667   7.185   2.395   1.126
 9909TIP3    H129668   7.234   2.325   1.083
 9909TIP3    H229669   7.252   2.444   1.175
 9910TIP3   OH229670   0.232   2.361   6.535
 9910TIP3    H129671   0.220   2.347   6.441
 9910TIP3    H229672   0.151   2.405   6.562
 9911TIP3   OH229673   4.577   1.082   6.193
 9911TIP3    H129674   4.626   1.146   6.141
 9911TIP3    H229675   4.495   1.069   6.145
 9912TIP3   OH229676   4.734   6.915   2.924
 9912TIP3    H129677   4.704   6.936   3.012
 9912TIP3    H229678   4.823   6.951   2.919
 9913TIP3   OH229679   2.195   7.155   5.424
 9913TIP3    H129680   2.121   7.216   5.428
 9913TIP3    H229681   2.253   7.193   5.359
 9914TIP3   OH229682   7.968   1.847   6.506
 9914TIP3    H129683   8.063   1.838   6.507
 9914TIP3    H229684   7.936   1.759   6.524
 9915TIP3   OH229685   3.617   0.224   4.353
 9915TIP3    H129686   3.657   0.308   4.334
 9915TIP3    H229687   3.620   0.217   4.449
 9916TIP3   OH229688   4.273   1.223   2.193
 9916TIP3    H129689   4.180   1.211   2.173
 9916TIP3    H229690   4.310   1.260   2.113
 9917TIP3   OH229691   0.224   7.673   2.531
 9917TIP3    H129692   0.133   7.651   2.511
 9917TIP3    H229693   0.220   7.722   2.613
 9918TIP3   OH229694   6.281   0.235   3.264
 9918TIP3    H129695   6.350   0.175   3.293
 9918TIP3    H229696   6.233   0.257   3.343
 9919TIP3   OH229697   1.836   3.759   4.826
 9919TIP3    H129698   1.908   3.816   4.797
 9919TIP3    H229699   1.832   3.772   4.921
 9920TIP3   OH229700   3.379   0.986   6.660
 9920TIP3    H129701   3.322   1.012   6.732
 9920TIP3    H229702   3.390   1.065   6.607
 9921TIP3   OH229703   1.560   2.305   3.722
 9921TIP3    H129704   1.629   2.271   3.665
 9921TIP3    H229705   1.576   2.261   3.806
 9922TIP3   OH229706   5.583   4.068   4.539
 9922TIP3    H129707   5.539   4.142   4.497
 9922TIP3    H229708   5.628   4.107   4.614
 9923TIP3   OH229709   6.056   1.139   1.735
 9923TIP3    H129710   6.108   1.072   1.692
 9923TIP3    H229711   6.120   1.195   1.779
 9924TIP3   OH229712   1.647   1.420   0.368
 9924TIP3    H129713   1.607   1.441   0.453
 9924TIP3    H229714   1.582   1.449   0.303
 9925TIP3   OH229715   4.734   3.228   0.929
 9925TIP3    H129716   4.709   3.136   0.924
 9925TIP3    H229717   4.676   3.272   0.866
 9926TIP3   OH229718   6.521   0.641   4.830
 9926TIP3    H129719   6.451   0.648   4.764
 9926TIP3    H229720   6.516   0.723   4.878
 9927TIP3   OH229721   3.787   5.703   5.732
 9927TIP3    H129722   3.771   5.783   5.783
 9927TIP3    H229723   3.847   5.652   5.786
 9928TIP3   OH229724   1.225   2.163   1.000
 9928TIP3    H129725   1.146   2.108   1.001
 9928TIP3    H229726   1.294   2.104   0.970
 9929TIP3   OH229727   4.472   0.689   4.083
 9929TIP3    H129728   4.502   0.776   4.056
 9929TIP3    H229729   4.442   0.648   4.002
 9930TIP3   OH229730   7.526   1.908   5.177
 9930TIP3    H129731   7.473   1.899   5.098
 9930TIP3    H229732   7.582   1.983   5.160
 9931TIP3   OH229733   1.709   7.363   1.862
 9931TIP3    H129734   1.694   7.271   1.838
 9931TIP3    H229735   1.796   7.364   1.901
 9932TIP3   OH229736   0.420   0.196   4.239
 9932TIP3    H129737   0.456   0.176   4.325
 9932TIP3    H229738   0.400   0.110   4.202
 9933TIP3   OH229739   1.112   7.532   4.545
 9933TIP3    H129740   1.136   7.567   4.631
 9933TIP3    H229741   1.039   7.473   4.563
 9934TIP3   OH229742   6.776   2.554   5.061
 9934TIP3    H129743   6.771   2.649   5.068
 9934TIP3    H229744   6.696   2.523   5.103
 9935TIP3   OH229745   0.984   3.757   1.964
 9935TIP3    H129746   0.989   3.847   1.932
 9935TIP3    H229747   0.940   3.765   2.049
 9936TIP3   OH229748   7.707   4.913   2.590
 9936TIP3    H129749   7.617   4.942   2.606
 9936TIP3    H229750   7.698   4.824   2.558
 9937TIP3   OH229751   6.630   6.189   4.382
 9937TIP3    H129752   6.624   6.144   4.298
 9937TIP3    H229753   6.603   6.279   4.363
 9938TIP3   OH229754   8.329   3.042   0.494
 9938TIP3    H129755   8.379   2.985   0.552
 9938TIP3    H229756   8.255   2.988   0.466
 9939TIP3   OH229757   7.129   7.697   3.668
 9939TIP3    H129758   7.203   7.696   3.607
 9939TIP3    H229759   7.087   7.612   3.657
 9940TIP3   OH229760   3.179   3.793   6.600
 9940TIP3    H129761   3.170   3.707   6.559
 9940TIP3    H229762   3.097   3.838   6.579
 9941TIP3   OH229763   0.956   2.119   3.470
 9941TIP3    H129764   0.944   2.104   3.564
 9941TIP3    H229765   0.879   2.170   3.444
 9942TIP3   OH229766   3.311   1.082   0.765
 9942TIP3    H129767   3.383   1.083   0.828
 9942TIP3    H229768   3.318   0.997   0.721
 9943TIP3   OH229769   4.836   6.508   1.736
 9943TIP3    H129770   4.746   6.501   1.706
 9943TIP3    H229771   4.888   6.471   1.665
 9944TIP3   OH229772   4.237   7.757   5.378
 9944TIP3    H129773   4.263   7.849   5.388
 9944TIP3    H229774   4.281   7.728   5.298
 9945TIP3   OH229775   6.990   1.856   5.237
 9945TIP3    H129776   6.946   1.940   5.249
 9945TIP3    H229777   7.081   1.873   5.262
 9946TIP3   OH229778   4.578   2.819   2.956
 9946TIP3    H129779   4.558   2.860   3.040
 9946TIP3    H229780   4.673   2.804   2.959
 9947TIP3   OH229781   2.671   5.434   3.180
 9947TIP3    H129782   2.699   5.495   3.248
 9947TIP3    H229783   2.600   5.480   3.135
 9948TIP3   OH229784   5.472   0.360   2.043
 9948TIP3    H129785   5.517   0.423   1.987
 9948TIP3    H229786   5.499   0.384   2.132
 9949TIP3   OH229787   3.565   6.730   6.056
 9949TIP3    H129788   3.642   6.784   6.070
 9949TIP3    H229789   3.573   6.697   5.966
 9950TIP3   OH229790   0.604   2.982   2.456
 9950TIP3    H129791   0.539   3.052   2.458
 9950TIP3    H229792   0.680   3.020   2.412
 9951TIP3   OH229793   4.291   2.629   0.395
 9951TIP3    H129794   4.342   2.704   0.364
 9951TIP3    H229795   4.253   2.592   0.315
 9952TIP3   OH229796   6.128   5.761   5.590
 9952TIP3    H129797   6.173   5.716   5.518
 9952TIP3    H229798   6.035   5.747   5.573
 9953TIP3   OH229799   6.264   1.426   1.293
 9953TIP3    H129800   6.356   1.442   1.314
 9953TIP3    H229801   6.257   1.442   1.199
 9954TIP3   OH229802   6.692   5.929   4.432
 9954TIP3    H129803   6.664   6.019   4.448
 9954TIP3    H229804   6.613   5.885   4.403
 9955TIP3   OH229805   6.314   4.186   3.705
 9955TIP3    H129806   6.392   4.157   3.754
 9955TIP3    H229807   6.312   4.130   3.628
 9956TIP3   OH229808   3.203   2.941   3.085
 9956TIP3    H129809   3.206   3.006   3.015
 9956TIP3    H229810   3.294   2.930   3.112
 9957TIP3   OH229811   4.701   1.419   2.855
 9957TIP3    H129812   4.777   1.469   2.824
 9957TIP3    H229813   4.643   1.414   2.779
 9958TIP3   OH229814   6.837   2.062   0.354
 9958TIP3    H129815   6.877   1.984   0.316
 9958TIP3    H229816   6.883   2.075   0.437
 9959TIP3   OH229817   4.077   2.903   4.150
 9959TIP3    H129818   4.055   2.970   4.215
 9959TIP3    H229819   4.012   2.914   4.081
 9960TIP3   OH229820   3.860   2.187   4.461
 9960TIP3    H129821   3.896   2.172   4.548
 9960TIP3    H229822   3.850   2.100   4.423
 9961TIP3   OH229823   7.700   0.094   1.116
 9961TIP3    H129824   7.660   0.011   1.092
 9961TIP3    H229825   7.628   0.157   1.114
 9962TIP3   OH229826   3.862   6.190   6.308
 9962TIP3    H129827   3.927   6.162   6.243
 9962TIP3    H229828   3.778   6.180   6.263
 9963TIP3   OH229829   3.951   3.011   5.031
 9963TIP3    H129830   3.916   2.963   4.956
 9963TIP3    H229831   4.044   2.987   5.034
 9964TIP3   OH229832   3.348   0.289   4.786
 9964TIP3    H129833   3.316   0.201   4.769
 9964TIP3    H229834   3.348   0.331   4.700
 9965TIP3   OH229835   4.029   4.143   6.006
 9965TIP3    H129836   3.979   4.150   5.924
 9965TIP3    H229837   4.005   4.057   6.041
 9966TIP3   OH229838   4.799   1.498   0.578
 9966TIP3    H129839   4.839   1.416   0.550
 9966TIP3    H229840   4.716   1.472   0.617
 9967TIP3   OH229841   4.505   7.595   0.753
 9967TIP3    H129842   4.526   7.570   0.843
 9967TIP3    H229843   4.569   7.663   0.732
 9968TIP3   OH229844   1.139   6.289   3.558
 9968TIP3    H129845   1.206   6.295   3.626
 9968TIP3    H229846   1.134   6.378   3.522
 9969TIP3   OH229847   8.189   1.250   1.928
 9969TIP3    H129848   8.132   1.327   1.923
 9969TIP3    H229849   8.253   1.263   1.858
 9970TIP3   OH229850   7.446   0.229   4.407
 9970TIP3    H129851   7.450   0.197   4.497
 9970TIP3    H229852   7.492   0.161   4.357
 9971TIP3   OH229853   8.232   2.162   2.394
 9971TIP3    H129854   8.262   2.206   2.315
 9971TIP3    H229855   8.311   2.147   2.445
 9972TIP3   OH229856   3.899   1.429   1.391
 9972TIP3    H129857   3.976   1.448   1.444
 9972TIP3    H229858   3.871   1.342   1.419
 9973TIP3   OH229859   7.445   0.343   0.074
 9973TIP3    H129860   7.388   0.305   0.141
 9973TIP3    H229861   7.498   0.269   0.043
 9974TIP3   OH229862   6.657   4.102   5.406
 9974TIP3    H129863   6.598   4.172   5.436
 9974TIP3    H229864   6.636   4.091   5.314
 9975TIP3   OH229865   7.578   1.462   3.046
 9975TIP3    H129866   7.498   1.487   2.999
 9975TIP3    H229867   7.547   1.438   3.134
 9976TIP3   OH229868   1.312   1.198   5.277
 9976TIP3    H129869   1.331   1.188   5.184
 9976TIP3    H229870   1.351   1.281   5.301
 9977TIP3   OH229871   0.958   0.608   1.123
 9977TIP3    H129872   0.891   0.552   1.160
 9977TIP3    H229873   0.931   0.621   1.032
 9978TIP3   OH229874   7.286   5.832   2.450
 9978TIP3    H129875   7.313   5.763   2.390
 9978TIP3    H229876   7.190   5.827   2.450
 9979TIP3   OH229877   6.278   3.079   2.215
 9979TIP3    H129878   6.218   3.049   2.146
 9979TIP3    H229879   6.361   3.038   2.193
 9980TIP3   OH229880   4.227   0.380   0.483
 9980TIP3    H129881   4.252   0.312   0.546
 9980TIP3    H229882   4.196   0.452   0.538
 9981TIP3   OH229883   6.081   0.931   0.635
 9981TIP3    H129884   6.107   0.844   0.664
 9981TIP3    H229885   6.036   0.969   0.710
 9982TIP3   OH229886   3.995   6.508   3.564
 9982TIP3    H129887   3.965   6.455   3.490
 9982TIP3    H229888   4.087   6.524   3.547
 9983TIP3   OH229889   0.270   6.252   2.026
 9983TIP3    H129890   0.187   6.262   2.074
 9983TIP3    H229891   0.270   6.160   1.998
 9984TIP3   OH229892   4.433   5.061   4.158
 9984TIP3    H129893   4.412   5.027   4.071
 9984TIP3    H229894   4.517   5.105   4.146
 9985TIP3   OH229895   8.359   7.554   5.807
 9985TIP3    H129896   8.426   7.622   5.819
 9985TIP3    H229897   8.354   7.543   5.712
 9986TIP3   OH229898   5.257   1.715   1.979
 9986TIP3    H129899   5.258   1.620   1.977
 9986TIP3    H229900   5.258   1.741   1.886
 9987TIP3   OH229901   4.434   0.296   5.433
 9987TIP3    H129902   4.457   0.389   5.429
 9987TIP3    H229903   4.377   0.288   5.509
 9988TIP3   OH229904   5.130   7.273   0.193
 9988TIP3    H129905   5.150   7.356   0.236
 9988TIP3    H229906   5.205   7.258   0.135
 9989TIP3   OH229907   2.204   7.401   4.870
 9989TIP3    H129908   2.119   7.370   4.840
 9989TIP3    H229909   2.240   7.449   4.796
 9990TIP3   OH229910   3.361   5.692   1.169
 9990TIP3    H129911   3.415   5.624   1.211
 9990TIP3    H229912   3.282   5.696   1.223
 9991TIP3   OH229913   7.044   2.789   3.164
 9991TIP3    H129914   7.135   2.805   3.140
 9991TIP3    H229915   6.994   2.815   3.086
 9992TIP3   OH229916   1.608   2.057   5.398
 9992TIP3    H129917   1.685   2.100   5.436
 9992TIP3    H229918   1.619   1.965   5.418
 9993TIP3   OH229919   3.249   1.616   6.622
 9993TIP3    H129920   3.234   1.692   6.567
 9993TIP3    H229921   3.214   1.640   6.707
 9994TIP3   OH229922   0.183   7.829   0.332
 9994TIP3    H129923   0.213   7.749   0.290
 9994TIP3    H229924   0.260   7.861   0.379
 9995TIP3   OH229925   7.726   3.438   6.543
 9995TIP3    H129926   7.816   3.409   6.527
 9995TIP3    H229927   7.683   3.430   6.458
 9996TIP3   OH229928   7.838   0.756   1.766
 9996TIP3    H129929   7.791   0.838   1.784
 9996TIP3    H229930   7.916   0.783   1.718
 9997TIP3   OH229931   0.834   3.440   0.973
 9997TIP3    H129932   0.848   3.409   1.062
 9997TIP3    H229933   0.762   3.386   0.940
 9998TIP3   OH229934   2.956   5.598   1.990
 9998TIP3    H129935   2.958   5.577   2.083
 9998TIP3    H229936   3.008   5.678   1.982
 9999TIP3   OH229937   7.853   6.842   1.498
 9999TIP3    H129938   7.845   6.888   1.582
 9999TIP3    H229939   7.911   6.897   1.446
10000TIP3   OH229940   7.680   3.013   5.862
10000TIP3    H129941   7.751   2.983   5.919
10000TIP3    H229942   7.645   3.090   5.906
10001TIP3   OH229943   2.702   4.181   1.922
10001TIP3    H129944   2.682   4.097   1.964
10001TIP3    H229945   2.644   4.185   1.847
10002TIP3   OH229946   0.969   0.681   3.058
10002TIP3    H129947   0.894   0.622   3.063
10002TIP3    H229948   1.021   0.660   3.136
10003TIP3   OH229949   5.933   6.317   0.703
10003TIP3    H129950   5.874   6.247   0.674
10003TIP3    H229951   5.894   6.349   0.784
10004TIP3   OH229952   2.511   3.967   5.505
10004TIP3    H129953   2.598   4.007   5.495
10004TIP3    H229954   2.508   3.938   5.596
10005TIP3   OH229955   4.085   1.467   3.887
10005TIP3    H129956   4.029   1.389   3.893
10005TIP3    H229957   4.053   1.525   3.956
10006TIP3   OH229958   2.803   0.550   5.189
10006TIP3    H129959   2.791   0.623   5.128
10006TIP3    H229960   2.745   0.571   5.263
10007TIP3   OH229961   1.793   2.843   6.590
10007TIP3    H129962   1.802   2.749   6.575
10007TIP3    H229963   1.795   2.882   6.502
10008TIP3   OH229964   7.622   4.328   1.030
10008TIP3    H129965   7.557   4.314   0.961
10008TIP3    H229966   7.705   4.335   0.983
10009TIP3   OH229967   2.650   1.755   0.899
10009TIP3    H129968   2.640   1.809   0.821
10009TIP3    H229969   2.736   1.778   0.934
10010TIP3   OH229970   2.726   1.959   0.717
10010TIP3    H129971   2.658   2.000   0.664
10010TIP3    H229972   2.788   2.031   0.735
10011TIP3   OH229973   0.048   4.377   6.523
10011TIP3    H129974   0.047   4.288   6.490
10011TIP3    H229975   0.112   4.376   6.595
10012TIP3   OH229976   4.550   3.416   2.050
10012TIP3    H129977   4.552   3.332   2.004
10012TIP3    H229978   4.616   3.408   2.118
10013TIP3   OH229979   0.859   5.834   0.116
10013TIP3    H129980   0.886   5.916   0.074
10013TIP3    H229981   0.815   5.862   0.196
10014TIP3   OH229982   4.781   5.025   3.358
10014TIP3    H129983   4.734   5.017   3.275
10014TIP3    H229984   4.718   5.068   3.417
10015TIP3   OH229985   8.193   4.951   3.805
10015TIP3    H129986   8.208   5.002   3.884
10015TIP3    H229987   8.214   4.861   3.830
10016TIP3   OH229988   4.804   0.992   1.978
10016TIP3    H129989   4.716   0.992   2.016
10016TIP3    H229990   4.863   0.989   2.054
10017TIP3   OH229991   1.144   0.027   0.837
10017TIP3    H129992   1.064   0.022   0.890
10017TIP3    H229993   1.191   0.102   0.872
10018TIP3   OH229994   6.011   4.922   1.410
10018TIP3    H129995   6.038   4.852   1.470
10018TIP3    H229996   6.006   4.879   1.325
10019TIP3   OH229997   6.561   5.990   6.117
10019TIP3    H129998   6.496   5.956   6.055
10019TIP3    H229999   6.564   6.084   6.099
10020TIP3   OH230000   2.627   5.406   0.705
10020TIP3    H130001   2.616   5.475   0.640
10020TIP3    H230002   2.660   5.452   0.783
10021TIP3   OH230003   3.523   6.358   1.034
10021TIP3    H130004   3.585   6.307   0.982
10021TIP3    H230005   3.556   6.351   1.124
10022TIP3   OH230006   1.935   7.085   2.092
10022TIP3    H130007   1.883   7.154   2.050
10022TIP3    H230008   2.019   7.088   2.046
10023TIP3   OH230009   5.112   7.514   1.714
10023TIP3    H130010   5.109   7.570   1.637
10023TIP3    H230011   5.133   7.427   1.680
10024TIP3   OH230012   4.867   2.868   3.877
10024TIP3    H130013   4.792   2.928   3.873
10024TIP3    H230014   4.851   2.816   3.955
10025TIP3   OH230015   5.391   6.653   0.147
10025TIP3    H130016   5.352   6.575   0.188
10025TIP3    H230017   5.480   6.625   0.125
10026TIP3   OH230018   3.261   0.500   3.017
10026TIP3    H130019   3.268   0.469   2.927
10026TIP3    H230020   3.332   0.563   3.027
10027TIP3   OH230021   8.315   0.531   0.087
10027TIP3    H130022   8.386   0.468   0.084
10027TIP3    H230023   8.293   0.539   0.179
10028TIP3   OH230024   3.281   4.639   2.255
10028TIP3    H130025   3.193   4.674   2.243
10028TIP3    H230026   3.295   4.582   2.180
10029TIP3   OH230027   7.302   7.800   6.251
10029TIP3    H130028   7.210   7.823   6.260
10029TIP3    H230029   7.309   7.761   6.163
10030TIP3   OH230030   3.108   6.226   5.360
10030TIP3    H130031   3.034   6.213   5.419
10030TIP3    H230032   3.185   6.231   5.417
10031TIP3   OH230033   3.686   7.748   0.780
10031TIP3    H130034   3.686   7.833   0.823
10031TIP3    H230035   3.754   7.698   0.826
10032TIP3   OH230036   7.166   4.587   2.261
10032TIP3    H130037   7.175   4.642   2.183
10032TIP3    H230038   7.199   4.641   2.332
10033TIP3   OH230039   6.739   2.374   2.261
10033TIP3    H130040   6.752   2.368   2.356
10033TIP3    H230041   6.809   2.431   2.231
10034TIP3   OH230042   0.019   1.390   2.827
10034TIP3    H130043  -0.052   1.437   2.870
10034TIP3    H230044   0.090   1.454   2.819
10035TIP3   OH230045   5.372   3.111   1.360
10035TIP3    H130046   5.433   3.177   1.325
10035TIP3    H230047   5.316   3.088   1.286
10036TIP3   OH230048   1.672   5.628   6.583
10036TIP3    H130049   1.726   5.627   6.504
10036TIP3    H230050   1.587   5.596   6.554
10037TIP3   OH230051   7.171   0.548   3.470
10037TIP3    H130052   7.134   0.466   3.437
10037TIP3    H230053   7.230   0.577   3.401
10038TIP3   OH230054   2.087   2.329   0.156
10038TIP3    H130055   2.040   2.338   0.073
10038TIP3    H230056   2.034   2.378   0.219
10039TIP3   OH230057   0.351   6.930   1.266
10039TIP3    H130058   0.419   6.923   1.199
10039TIP3    H230059   0.385   6.992   1.330
10040TIP3   OH230060   6.130   2.068   3.953
10040TIP3    H130061   6.203   2.023   3.996
10040TIP3    H230062   6.124   2.026   3.867
10041TIP3   OH230063   4.775   3.220   1.791
10041TIP3    H130064   4.823   3.221   1.874
10041TIP3    H230065   4.820   3.154   1.738
10042TIP3   OH230066   7.264   6.698   4.663
10042TIP3    H130067   7.233   6.616   4.625
10042TIP3    H230068   7.185   6.750   4.675
10043TIP3   OH230069   2.210   6.206   4.407
10043TIP3    H130070   2.225   6.185   4.500
10043TIP3    H230071   2.131   6.158   4.384
10044TIP3   OH230072   5.289   6.254   0.737
10044TIP3    H130073   5.207   6.299   0.714
10044TIP3    H230074   5.261   6.166   0.763
10045TIP3   OH230075   5.628   1.541   0.697
10045TIP3    H130076   5.715   1.565   0.666
10045TIP3    H230077   5.569   1.564   0.624
10046TIP3   OH230078   6.306   1.109   0.599
10046TIP3    H130079   6.228   1.052   0.600
10046TIP3    H230080   6.379   1.049   0.607
10047TIP3   OH230081   2.914   7.025   6.193
10047TIP3    H130082   2.980   6.956   6.190
10047TIP3    H230083   2.961   7.105   6.169
10048TIP3   OH230084   0.766   3.969   6.256
10048TIP3    H130085   0.808   3.972   6.170
10048TIP3    H230086   0.677   3.938   6.238
10049TIP3   OH230087   2.415   4.759   1.536
10049TIP3    H130088   2.372   4.790   1.456
10049TIP3    H230089   2.386   4.668   1.545
10050TIP3   OH230090   3.321   6.302   6.820
10050TIP3    H130091   3.305   6.361   6.747
10050TIP3    H230092   3.371   6.355   6.883
10051TIP3   OH230093   5.515   4.095   4.011
10051TIP3    H130094   5.443   4.107   3.950
10051TIP3    H230095   5.504   4.006   4.044
10052TIP3   OH230096   0.092   5.048   4.800
10052TIP3    H130097   0.017   5.107   4.806
10052TIP3    H230098   0.160   5.099   4.756
10053TIP3   OH230099   2.757   2.790   4.314
10053TIP3    H130100   2.779   2.742   4.234
10053TIP3    H230101   2.827   2.767   4.375
10054TIP3   OH230102   2.868   3.350   1.619
10054TIP3    H130103   2.783   3.394   1.621
10054TIP3    H230104   2.848   3.258   1.635
10055TIP3   OH230105   1.026   1.162   6.038
10055TIP3    H130106   1.108   1.149   5.990
10055TIP3    H230107   1.052   1.202   6.120
10056TIP3   OH230108   2.531   7.820   6.193
10056TIP3    H130109   2.444   7.858   6.206
10056TIP3    H230110   2.519   7.727   6.213
10057TIP3   OH230111   5.660   4.606   2.760
10057TIP3    H130112   5.659   4.637   2.850
10057TIP3    H230113   5.753   4.597   2.739
10058TIP3   OH230114   1.870   6.414   1.141
10058TIP3    H130115   1.865   6.327   1.101
10058TIP3    H230116   1.882   6.474   1.068
10059TIP3   OH230117   6.032   7.272   0.515
10059TIP3    H130118   6.044   7.307   0.427
10059TIP3    H230119   6.117   7.288   0.558
10060TIP3   OH230120   4.150   2.610   0.990
10060TIP3    H130121   4.226   2.658   0.958
10060TIP3    H230122   4.120   2.660   1.066
10061TIP3   OH230123   3.157   4.382   5.286
10061TIP3    H130124   3.069   4.406   5.315
10061TIP3    H230125   3.143   4.305   5.231
10062TIP3   OH230126   0.927   2.588   3.403
10062TIP3    H130127   0.974   2.665   3.372
10062TIP3    H230128   0.848   2.624   3.445
10063TIP3   OH230129   2.239   3.341   6.481
10063TIP3    H130130   2.258   3.434   6.487
10063TIP3    H230131   2.323   3.300   6.457
10064TIP3   OH230132   2.869   5.971   5.913
10064TIP3    H130133   2.852   5.956   6.006
10064TIP3    H230134   2.798   6.030   5.885
10065TIP3   OH230135   2.489   4.175   1.753
10065TIP3    H130136   2.493   4.259   1.708
10065TIP3    H230137   2.397   4.149   1.746
10066TIP3   OH230138   3.964   3.196   4.012
10066TIP3    H130139   3.930   3.250   3.940
10066TIP3    H230140   4.048   3.234   4.033
10067TIP3   OH230141   8.171   3.616   4.758
10067TIP3    H130142   8.246   3.568   4.723
10067TIP3    H230143   8.139   3.669   4.685
10068TIP3   OH230144   7.967   3.094   5.366
10068TIP3    H130145   7.945   3.152   5.294
10068TIP3    H230146   7.895   3.030   5.367
10069TIP3   OH230147   2.878   0.448   3.993
10069TIP3    H130148   2.807   0.506   3.965
10069TIP3    H230149   2.843   0.403   4.070
10070TIP3   OH230150   5.043   5.075   2.902
10070TIP3    H130151   5.072   5.141   2.965
10070TIP3    H230152   5.028   4.997   2.955
10071TIP3   OH230153   8.213   0.985   0.463
10071TIP3    H130154   8.151   0.963   0.393
10071TIP3    H230155   8.296   0.996   0.418
10072TIP3   OH230156   0.048   5.584   0.103
10072TIP3    H130157   0.132   5.629   0.112
10072TIP3    H230158   0.062   5.499   0.147
10073TIP3   OH230159   2.188   3.690   1.545
10073TIP3    H130160   2.239   3.772   1.540
10073TIP3    H230161   2.179   3.662   1.454
10074TIP3   OH230162   6.057   5.415   4.328
10074TIP3    H130163   6.039   5.341   4.385
10074TIP3    H230164   5.971   5.446   4.300
10075TIP3   OH230165   6.048   0.258   2.682
10075TIP3    H130166   6.144   0.264   2.685
10075TIP3    H230167   6.029   0.171   2.719
10076TIP3   OH230168   7.576   3.918   0.871
10076TIP3    H130169   7.553   3.895   0.961
10076TIP3    H230170   7.672   3.925   0.872
10077TIP3   OH230171   3.545   2.804   3.642
10077TIP3    H130172   3.607   2.796   3.571
10077TIP3    H230173   3.546   2.897   3.665
10078TIP3   OH230174   0.394   0.687   3.446
10078TIP3    H130175   0.319   0.706   3.389
10078TIP3    H230176   0.452   0.763   3.436
10079TIP3   OH230177   6.450   4.821   4.222
10079TIP3    H130178   6.419   4.867   4.144
10079TIP3    H230179   6.395   4.743   4.228
10080TIP3   OH230180   2.461   0.784   3.444
10080TIP3    H130181   2.452   0.862   3.499
10080TIP3    H230182   2.556   0.772   3.436
10081TIP3   OH230183   5.158   4.261   0.226
10081TIP3    H130184   5.238   4.233   0.269
10081TIP3    H230185   5.165   4.228   0.136
10082TIP3   OH230186   7.623   4.098   1.572
10082TIP3    H130187   7.604   4.140   1.488
10082TIP3    H230188   7.702   4.143   1.603
10083TIP3   OH230189   7.006   3.733   1.730
10083TIP3    H130190   6.916   3.756   1.754
10083TIP3    H230191   7.017   3.768   1.642
10084TIP3   OH230192   6.492   0.662   6.301
10084TIP3    H130193   6.547   0.653   6.379
10084TIP3    H230194   6.549   0.636   6.229
10085TIP3   OH230195   2.550   0.693   5.647
10085TIP3    H130196   2.622   0.653   5.599
10085TIP3    H230197   2.487   0.622   5.659
10086TIP3   OH230198   6.777   2.132   3.640
10086TIP3    H130199   6.859   2.174   3.667
10086TIP3    H230200   6.731   2.199   3.590
10087TIP3   OH230201   6.499   3.592   2.809
10087TIP3    H130202   6.554   3.612   2.886
10087TIP3    H230203   6.416   3.563   2.846
10088TIP3   OH230204   7.500   1.310   0.773
10088TIP3    H130205   7.582   1.315   0.724
10088TIP3    H230206   7.494   1.218   0.801
10089TIP3   OH230207   5.490   6.055   4.763
10089TIP3    H130208   5.513   6.037   4.672
10089TIP3    H230209   5.521   6.144   4.778
10090TIP3   OH230210   0.522   6.706   6.093
10090TIP3    H130211   0.440   6.743   6.129
10090TIP3    H230212   0.533   6.751   6.010
10091TIP3   OH230213   6.083   1.329   6.298
10091TIP3    H130214   6.085   1.331   6.393
10091TIP3    H230215   6.038   1.247   6.277
10092TIP3   OH230216   2.366   3.615   6.445
10092TIP3    H130217   2.367   3.661   6.529
10092TIP3    H230218   2.310   3.669   6.389
10093TIP3   OH230219   3.564   2.602   5.877
10093TIP3    H130220   3.588   2.645   5.959
10093TIP3    H230221   3.647   2.585   5.833
10094TIP3   OH230222   8.144   6.997   6.273
10094TIP3    H130223   8.232   6.991   6.236
10094TIP3    H230224   8.094   6.930   6.226
10095TIP3   OH230225   5.291   1.986   4.977
10095TIP3    H130226   5.239   1.906   4.989
10095TIP3    H230227   5.229   2.049   4.940
10096TIP3   OH230228   1.513   6.333   6.170
10096TIP3    H130229   1.435   6.277   6.166
10096TIP3    H230230   1.553   6.325   6.084
10097TIP3   OH230231   3.356   0.380   6.110
10097TIP3    H130232   3.276   0.335   6.137
10097TIP3    H230233   3.333   0.473   6.113
10098TIP3   OH230234   2.295   4.187   5.445
10098TIP3    H130235   2.386   4.159   5.454
10098TIP3    H230236   2.297   4.281   5.464
10099TIP3   OH230237   8.286   4.079   0.407
10099TIP3    H130238   8.260   4.088   0.316
10099TIP3    H230239   8.354   4.146   0.419
10100TIP3   OH230240   2.354   1.182   1.580
10100TIP3    H130241   2.271   1.203   1.623
10100TIP3    H230242   2.382   1.101   1.622
10101TIP3   OH230243   1.976   7.110   0.700
10101TIP3    H130244   2.064   7.122   0.665
10101TIP3    H230245   1.966   7.016   0.709
10102TIP3   OH230246   5.415   5.400   0.448
10102TIP3    H130247   5.473   5.475   0.438
10102TIP3    H230248   5.338   5.434   0.493
10103TIP3   OH230249   2.324   0.685   4.652
10103TIP3    H130250   2.304   0.722   4.738
10103TIP3    H230251   2.252   0.714   4.596
10104TIP3   OH230252   7.484   4.058   2.551
10104TIP3    H130253   7.540   4.038   2.627
10104TIP3    H230254   7.403   4.011   2.568
10105TIP3   OH230255   0.080   1.844   6.572
10105TIP3    H130256   0.058   1.849   6.665
10105TIP3    H230257   0.077   1.751   6.552
10106TIP3   OH230258   1.309   7.317   1.888
10106TIP3    H130259   1.380   7.368   1.849
10106TIP3    H230260   1.321   7.229   1.851
10107TIP3   OH230261   2.104   6.066   6.533
10107TIP3    H130262   2.176   6.128   6.544
10107TIP3    H230263   2.084   6.035   6.621
10108TIP3   OH230264   5.121   7.362   0.955
10108TIP3    H130265   5.144   7.454   0.949
10108TIP3    H230266   5.025   7.361   0.954
10109TIP3   OH230267   6.044   0.113   3.426
10109TIP3    H130268   5.962   0.132   3.471
10109TIP3    H230269   6.020   0.055   3.354
10110TIP3   OH230270   0.222   0.632   3.790
10110TIP3    H130271   0.303   0.627   3.738
10110TIP3    H230272   0.188   0.543   3.790
10111TIP3   OH230273   1.843   1.018   4.665
10111TIP3    H130274   1.838   1.113   4.660
10111TIP3    H230275   1.861   0.990   4.575
10112TIP3   OH230276   3.178   1.397   5.503
10112TIP3    H130277   3.143   1.486   5.506
10112TIP3    H230278   3.141   1.360   5.423
10113TIP3   OH230279   7.753   5.174   4.915
10113TIP3    H130280   7.806   5.186   4.993
10113TIP3    H230281   7.691   5.105   4.938
10114TIP3   OH230282   7.947   5.225   0.586
10114TIP3    H130283   7.870   5.173   0.565
10114TIP3    H230284   7.994   5.234   0.503
10115TIP3   OH230285   4.470   4.156   5.563
10115TIP3    H130286   4.416   4.080   5.542
10115TIP3    H230287   4.436   4.188   5.647
10116TIP3   OH230288   2.303   1.564   0.348
10116TIP3    H130289   2.233   1.621   0.317
10116TIP3    H230290   2.270   1.529   0.431
10117TIP3   OH230291   1.724   6.524   3.190
10117TIP3    H130292   1.718   6.457   3.258
10117TIP3    H230293   1.720   6.475   3.108
10118TIP3   OH230294   2.837   7.653   2.264
10118TIP3    H130295   2.910   7.635   2.322
10118TIP3    H230296   2.863   7.732   2.216
10119TIP3   OH230297   6.100   2.637   0.324
10119TIP3    H130298   6.037   2.710   0.330
10119TIP3    H230299   6.112   2.623   0.231
10120TIP3   OH230300   0.704   3.666   1.059
10120TIP3    H130301   0.731   3.578   1.035
10120TIP3    H230302   0.675   3.706   0.977
10121TIP3   OH230303   6.681   4.035   4.875
10121TIP3    H130304   6.647   4.122   4.854
10121TIP3    H230305   6.765   4.051   4.918
10122TIP3   OH230306   3.620   4.906   2.146
10122TIP3    H130307   3.633   4.993   2.181
10122TIP3    H230308   3.708   4.869   2.137
10123TIP3   OH230309   8.034   1.090   0.256
10123TIP3    H130310   7.942   1.113   0.269
10123TIP3    H230311   8.039   1.064   0.164
10124TIP3   OH230312   2.242   4.385   4.415
10124TIP3    H130313   2.185   4.458   4.389
10124TIP3    H230314   2.190   4.335   4.477
10125TIP3   OH230315   4.652   2.928   6.033
10125TIP3    H130316   4.677   2.911   5.942
10125TIP3    H230317   4.689   2.855   6.082
10126TIP3   OH230318   1.419   1.000   4.475
10126TIP3    H130319   1.404   1.095   4.476
10126TIP3    H230320   1.377   0.969   4.555
10127TIP3   OH230321   1.342   3.671   5.042
10127TIP3    H130322   1.412   3.703   5.099
10127TIP3    H230323   1.380   3.672   4.954
10128TIP3   OH230324   7.451   6.624   1.486
10128TIP3    H130325   7.520   6.569   1.449
10128TIP3    H230326   7.497   6.683   1.546
10129TIP3   OH230327   4.564   7.825   0.105
10129TIP3    H130328   4.634   7.822   0.040
10129TIP3    H230329   4.488   7.789   0.060
10130TIP3   OH230330   3.141   7.047   4.313
10130TIP3    H130331   3.220   7.095   4.337
10130TIP3    H230332   3.071   7.089   4.363
10131TIP3   OH230333   2.266   4.154   6.770
10131TIP3    H130334   2.265   4.164   6.675
10131TIP3    H230335   2.310   4.233   6.802
10132TIP3   OH230336   4.319   3.032   3.116
10132TIP3    H130337   4.319   2.983   3.034
10132TIP3    H230338   4.227   3.037   3.142
10133TIP3   OH230339   1.529   3.692   2.273
10133TIP3    H130340   1.511   3.690   2.179
10133TIP3    H230341   1.615   3.652   2.282
10134TIP3   OH230342   8.064   7.662   1.904
10134TIP3    H130343   8.043   7.738   1.849
10134TIP3    H230344   7.998   7.663   1.972
10135TIP3   OH230345   6.851   7.585   0.297
10135TIP3    H130346   6.805   7.633   0.228
10135TIP3    H230347   6.903   7.519   0.250
10136TIP3   OH230348   7.524   1.087   4.462
10136TIP3    H130349   7.528   1.018   4.528
10136TIP3    H230350   7.608   1.132   4.468
10137TIP3   OH230351   3.300   5.151   4.317
10137TIP3    H130352   3.230   5.149   4.382
10137TIP3    H230353   3.344   5.067   4.326
10138TIP3   OH230354   2.859   4.483   5.282
10138TIP3    H130355   2.823   4.439   5.205
10138TIP3    H230356   2.879   4.571   5.251
10139TIP3   OH230357   2.186   6.691   6.831
10139TIP3    H130358   2.165   6.765   6.774
10139TIP3    H230359   2.113   6.687   6.893
10140TIP3   OH230360   0.595   4.309   2.299
10140TIP3    H130361   0.579   4.336   2.209
10140TIP3    H230362   0.510   4.314   2.342
10141TIP3   OH230363   0.625   6.211   2.360
10141TIP3    H130364   0.710   6.246   2.335
10141TIP3    H230365   0.583   6.187   2.277
10142TIP3   OH230366   7.964   6.097   6.135
10142TIP3    H130367   8.002   6.009   6.135
10142TIP3    H230368   7.923   6.106   6.049
10143TIP3   OH230369   6.242   6.144   5.658
10143TIP3    H130370   6.312   6.203   5.628
10143TIP3    H230371   6.276   6.106   5.739
10144TIP3   OH230372   8.150   4.470   5.026
10144TIP3    H130373   8.126   4.497   5.114
10144TIP3    H230374   8.138   4.547   4.972
10145TIP3   OH230375   0.325   6.983   5.420
10145TIP3    H130376   0.403   6.941   5.387
10145TIP3    H230377   0.290   6.923   5.486
10146TIP3   OH230378   2.904   6.376   1.176
10146TIP3    H130379   2.920   6.331   1.259
10146TIP3    H230380   2.809   6.373   1.164
10147TIP3   OH230381   7.873   0.918   2.872
10147TIP3    H130382   7.899   0.933   2.963
10147TIP3    H230383   7.793   0.968   2.861
10148TIP3   OH230384   6.448   0.580   5.739
10148TIP3    H130385   6.444   0.572   5.644
10148TIP3    H230386   6.529   0.536   5.764
10149TIP3   OH230387   3.733   6.684   6.291
10149TIP3    H130388   3.751   6.760   6.347
10149TIP3    H230389   3.652   6.707   6.245
10150TIP3   OH230390   1.201   0.637   2.916
10150TIP3    H130391   1.111   0.659   2.940
10150TIP3    H230392   1.226   0.704   2.853
10151TIP3   OH230393   3.684   2.756   5.260
10151TIP3    H130394   3.752   2.809   5.302
10151TIP3    H230395   3.661   2.805   5.181
10152TIP3   OH230396   2.653   6.014   3.774
10152TIP3    H130397   2.603   6.083   3.729
10152TIP3    H230398   2.716   6.061   3.827
10153TIP3   OH230399   1.695   4.980   4.688
10153TIP3    H130400   1.664   4.993   4.599
10153TIP3    H230401   1.621   5.004   4.743
10154TIP3   OH230402   2.392   6.026   5.021
10154TIP3    H130403   2.311   6.023   4.970
10154TIP3    H230404   2.457   5.984   4.965
10155TIP3   OH230405   1.802   2.397   4.108
10155TIP3    H130406   1.750   2.468   4.069
10155TIP3    H230407   1.845   2.437   4.183
10156TIP3   OH230408   4.668   3.957   0.124
10156TIP3    H130409   4.630   3.871   0.107
10156TIP3    H230410   4.762   3.945   0.111
10157TIP3   OH230411   4.574   1.964   2.594
10157TIP3    H130412   4.487   1.924   2.596
10157TIP3    H230413   4.633   1.892   2.573
10158TIP3   OH230414   0.841   2.200   2.497
10158TIP3    H130415   0.889   2.281   2.482
10158TIP3    H230416   0.755   2.216   2.459
10159TIP3   OH230417   0.871   4.506   3.133
10159TIP3    H130418   0.915   4.577   3.179
10159TIP3    H230419   0.895   4.427   3.181
10160TIP3   OH230420   4.037   1.606   3.071
10160TIP3    H130421   4.066   1.696   3.054
10160TIP3    H230422   4.112   1.565   3.114
10161TIP3   OH230423   7.479   2.667   5.363
10161TIP3    H130424   7.512   2.757   5.353
10161TIP3    H230425   7.552   2.612   5.333
10162TIP3   OH230426   1.843   3.551   0.342
10162TIP3    H130427   1.927   3.594   0.354
10162TIP3    H230428   1.842   3.481   0.408
10163TIP3   OH230429   0.616   6.121   1.127
10163TIP3    H130430   0.585   6.104   1.038
10163TIP3    H230431   0.597   6.041   1.175
10164TIP3   OH230432   3.272   7.242   2.401
10164TIP3    H130433   3.214   7.174   2.368
10164TIP3    H230434   3.349   7.238   2.345
10165TIP3   OH230435   4.753   1.210   3.656
10165TIP3    H130436   4.809   1.213   3.579
10165TIP3    H230437   4.813   1.208   3.731
10166TIP3   OH230438   7.934   2.759   4.917
10166TIP3    H130439   7.894   2.765   5.003
10166TIP3    H230440   7.883   2.694   4.870
10167TIP3   OH230441   1.524   2.681   2.456
10167TIP3    H130442   1.545   2.760   2.506
10167TIP3    H230443   1.434   2.660   2.480
10168TIP3   OH230444   6.061   4.226   3.796
10168TIP3    H130445   6.153   4.228   3.770
10168TIP3    H230446   6.052   4.143   3.844
10169TIP3   OH230447   4.993   6.476   4.653
10169TIP3    H130448   5.007   6.570   4.637
10169TIP3    H230449   4.958   6.473   4.742
10170TIP3   OH230450   2.847   7.734   1.198
10170TIP3    H130451   2.781   7.775   1.141
10170TIP3    H230452   2.930   7.772   1.170
10171TIP3   OH230453   7.174   6.961   2.493
10171TIP3    H130454   7.097   6.906   2.507
10171TIP3    H230455   7.145   7.028   2.431
10172TIP3   OH230456   3.298   5.176   5.050
10172TIP3    H130457   3.209   5.210   5.035
10172TIP3    H230458   3.290   5.082   5.037
10173TIP3   OH230459   4.299   7.153   0.209
10173TIP3    H130460   4.286   7.083   0.272
10173TIP3    H230461   4.349   7.113   0.138
10174TIP3   OH230462   7.294   7.370   5.630
10174TIP3    H130463   7.223   7.432   5.611
10174TIP3    H230464   7.372   7.425   5.637
10175TIP3   OH230465   1.092   0.407   0.378
10175TIP3    H130466   1.158   0.463   0.418
10175TIP3    H230467   1.090   0.433   0.286
10176TIP3   OH230468   8.271   5.052   4.081
10176TIP3    H130469   8.314   4.990   4.140
10176TIP3    H230470   8.302   5.138   4.110
10177TIP3   OH230471   4.989   7.368   2.976
10177TIP3    H130472   4.988   7.278   3.009
10177TIP3    H230473   5.067   7.407   3.017
10178TIP3   OH230474   6.111   6.476   1.484
10178TIP3    H130475   6.198   6.479   1.443
10178TIP3    H230476   6.094   6.383   1.498
10179TIP3   OH230477   3.293   0.752   4.538
10179TIP3    H130478   3.353   0.825   4.555
10179TIP3    H230479   3.312   0.726   4.448
10180TIP3   OH230480   2.296   5.271   2.857
10180TIP3    H130481   2.388   5.297   2.862
10180TIP3    H230482   2.296   5.178   2.883
10181TIP3   OH230483   1.390   6.072   2.491
10181TIP3    H130484   1.342   6.010   2.546
10181TIP3    H230485   1.321   6.121   2.446
10182TIP3   OH230486   3.735   7.274   0.890
10182TIP3    H130487   3.730   7.178   0.896
10182TIP3    H230488   3.822   7.296   0.923
10183TIP3   OH230489   3.503   6.741   3.894
10183TIP3    H130490   3.540   6.761   3.980
10183TIP3    H230491   3.416   6.783   3.895
10184TIP3   OH230492   1.320   5.983   1.832
10184TIP3    H130493   1.409   5.950   1.840
10184TIP3    H230494   1.326   6.076   1.850
10185TIP3   OH230495   1.546   7.107   2.053
10185TIP3    H130496   1.580   7.186   2.011
10185TIP3    H230497   1.484   7.071   1.990
10186TIP3   OH230498   2.621   0.751   5.359
10186TIP3    H130499   2.604   0.809   5.434
10186TIP3    H230500   2.692   0.795   5.312
10187TIP3   OH230501   0.351   3.653   1.571
10187TIP3    H130502   0.352   3.596   1.648
10187TIP3    H230503   0.263   3.690   1.569
10188TIP3   OH230504   7.078   2.716   2.798
10188TIP3    H130505   7.116   2.629   2.813
10188TIP3    H230506   7.031   2.707   2.714
10189TIP3   OH230507   1.862   6.763   2.763
10189TIP3    H130508   1.950   6.791   2.739
10189TIP3    H230509   1.873   6.678   2.805
10190TIP3   OH230510   5.748   3.653   4.969
10190TIP3    H130511   5.833   3.680   5.003
10190TIP3    H230512   5.711   3.599   5.039
10191TIP3   OH230513   4.493   4.248   2.880
10191TIP3    H130514   4.473   4.304   2.804
10191TIP3    H230515   4.416   4.193   2.890
10192TIP3   OH230516   5.330   1.595   2.999
10192TIP3    H130517   5.325   1.531   3.069
10192TIP3    H230518   5.405   1.567   2.946
10193TIP3   OH230519   4.208   7.383   5.217
10193TIP3    H130520   4.231   7.418   5.131
10193TIP3    H230521   4.117   7.407   5.230
10194TIP3   OH230522   7.689   0.782   0.732
10194TIP3    H130523   7.739   0.742   0.803
10194TIP3    H230524   7.645   0.708   0.689
10195TIP3   OH230525   0.688   5.782   1.387
10195TIP3    H130526   0.761   5.791   1.325
10195TIP3    H230527   0.696   5.693   1.421
10196TIP3   OH230528   2.582   1.833   0.362
10196TIP3    H130529   2.560   1.792   0.446
10196TIP3    H230530   2.501   1.876   0.335
10197TIP3   OH230531   6.700   2.980   3.503
10197TIP3    H130532   6.746   2.897   3.517
10197TIP3    H230533   6.744   3.043   3.559
10198TIP3   OH230534   0.048   2.908   1.128
10198TIP3    H130535   0.129   2.929   1.174
10198TIP3    H230536   0.004   2.993   1.118
10199TIP3   OH230537   8.028   4.005   6.754
10199TIP3    H130538   8.098   3.943   6.734
10199TIP3    H230539   7.957   3.951   6.790
10200TIP3   OH230540   6.677   1.706   3.278
10200TIP3    H130541   6.757   1.669   3.318
10200TIP3    H230542   6.708   1.780   3.227
10201TIP3   OH230543   0.267   7.420   1.764
10201TIP3    H130544   0.191   7.366   1.743
10201TIP3    H230545   0.333   7.359   1.794
10202TIP3   OH230546   3.697   3.519   0.916
10202TIP3    H130547   3.654   3.532   0.832
10202TIP3    H230548   3.666   3.434   0.947
10203TIP3   OH230549   2.927   5.534   6.593
10203TIP3    H130550   2.912   5.545   6.687
10203TIP3    H230551   2.875   5.603   6.551
10204TIP3   OH230552   6.273   7.669   4.816
10204TIP3    H130553   6.287   7.679   4.910
10204TIP3    H230554   6.234   7.582   4.807
10205TIP3   OH230555   6.951   7.296   0.405
10205TIP3    H130556   6.919   7.343   0.482
10205TIP3    H230557   7.045   7.289   0.418
10206TIP3   OH230558   0.431   0.610   1.037
10206TIP3    H130559   0.406   0.523   1.007
10206TIP3    H230560   0.515   0.597   1.081
10207TIP3   OH230561   6.464   2.825   1.408
10207TIP3    H130562   6.380   2.857   1.442
10207TIP3    H230563   6.486   2.888   1.339
10208TIP3   OH230564   5.857   0.120   5.353
10208TIP3    H130565   5.844   0.166   5.270
10208TIP3    H230566   5.768   0.094   5.379
10209TIP3   OH230567   0.810   2.563   3.004
10209TIP3    H130568   0.895   2.607   3.009
10209TIP3    H230569   0.750   2.630   2.974
10210TIP3   OH230570   1.205   2.380   5.279
10210TIP3    H130571   1.194   2.297   5.233
10210TIP3    H230572   1.267   2.429   5.226
10211TIP3   OH230573   0.693   7.106   3.263
10211TIP3    H130574   0.600   7.129   3.261
10211TIP3    H230575   0.695   7.012   3.282
10212TIP3   OH230576   2.874   6.514   1.578
10212TIP3    H130577   2.901   6.503   1.669
10212TIP3    H230578   2.955   6.526   1.530
10213TIP3   OH230579   1.669   4.431   3.155
10213TIP3    H130580   1.586   4.422   3.109
10213TIP3    H230581   1.732   4.380   3.103
10214TIP3   OH230582   5.363   3.756   3.508
10214TIP3    H130583   5.398   3.843   3.526
10214TIP3    H230584   5.291   3.746   3.570
10215TIP3   OH230585   4.842   3.685   1.344
10215TIP3    H130586   4.926   3.638   1.338
10215TIP3    H230587   4.820   3.705   1.253
10216TIP3   OH230588   3.303   5.943   4.767
10216TIP3    H130589   3.321   5.888   4.844
10216TIP3    H230590   3.219   5.984   4.786
10217TIP3   OH230591   1.878   1.615   2.985
10217TIP3    H130592   1.939   1.546   3.011
10217TIP3    H230593   1.819   1.573   2.922
10218TIP3   OH230594   7.404   7.309   0.702
10218TIP3    H130595   7.481   7.264   0.737
10218TIP3    H230596   7.439   7.387   0.660
10219TIP3   OH230597   7.842   2.071   6.443
10219TIP3    H130598   7.844   2.087   6.349
10219TIP3    H230599   7.903   1.999   6.457
10220TIP3   OH230600   7.178   3.014   5.162
10220TIP3    H130601   7.159   3.003   5.255
10220TIP3    H230602   7.138   2.938   5.120
10221TIP3   OH230603   4.371   0.384   1.446
10221TIP3    H130604   4.282   0.418   1.451
10221TIP3    H230605   4.361   0.289   1.456
10222TIP3   OH230606   0.204   0.192   0.895
10222TIP3    H130607   0.118   0.174   0.855
10222TIP3    H230608   0.207   0.136   0.972
10223TIP3   OH230609   4.872   2.821   0.266
10223TIP3    H130610   4.864   2.794   0.174
10223TIP3    H230611   4.922   2.903   0.262
10224TIP3   OH230612   5.021   5.915   3.138
10224TIP3    H130613   4.974   5.999   3.144
10224TIP3    H230614   4.961   5.857   3.090
10225TIP3   OH230615   7.828   4.190   1.242
10225TIP3    H130616   7.872   4.274   1.231
10225TIP3    H230617   7.735   4.210   1.239
10226TIP3   OH230618   6.092   3.397   0.407
10226TIP3    H130619   6.149   3.375   0.333
10226TIP3    H230620   6.149   3.443   0.468
10227TIP3   OH230621   4.266   1.398   4.443
10227TIP3    H130622   4.353   1.417   4.408
10227TIP3    H230623   4.270   1.307   4.471
10228TIP3   OH230624   6.975   0.031   2.140
10228TIP3    H130625   6.924   0.042   2.220
10228TIP3    H230626   6.993   0.121   2.111
10229TIP3   OH230627   7.368   7.095   5.232
10229TIP3    H130628   7.344   7.121   5.321
10229TIP3    H230629   7.299   7.131   5.176
10230TIP3   OH230630   0.939   4.921   4.353
10230TIP3    H130631   0.875   4.980   4.393
10230TIP3    H230632   1.005   4.979   4.317
10231TIP3   OH230633   7.430   1.611   1.174
10231TIP3    H130634   7.359   1.599   1.237
10231TIP3    H230635   7.509   1.613   1.227
10232TIP3   OH230636   3.184   0.875   3.769
10232TIP3    H130637   3.147   0.964   3.766
10232TIP3    H230638   3.115   0.822   3.809
10233TIP3   OH230639   1.418   2.270   6.767
10233TIP3    H130640   1.417   2.200   6.701
10233TIP3    H230641   1.509   2.298   6.769
10234TIP3   OH230642   5.253   7.524   4.376
10234TIP3    H130643   5.205   7.590   4.425
10234TIP3    H230644   5.197   7.446   4.378
10235TIP3   OH230645   6.371   2.217   0.484
10235TIP3    H130646   6.428   2.184   0.415
10235TIP3    H230647   6.429   2.234   0.558
10236TIP3   OH230648   7.207   6.060   0.239
10236TIP3    H130649   7.285   6.074   0.184
10236TIP3    H230650   7.240   6.013   0.315
10237TIP3   OH230651   4.082   6.117   6.764
10237TIP3    H130652   4.007   6.089   6.711
10237TIP3    H230653   4.048   6.125   6.853
10238TIP3   OH230654   1.745   0.224   3.379
10238TIP3    H130655   1.670   0.281   3.395
10238TIP3    H230656   1.818   0.285   3.366
10239TIP3   OH230657   7.322   0.529   4.652
10239TIP3    H130658   7.334   0.525   4.557
10239TIP3    H230659   7.237   0.571   4.664
10240TIP3   OH230660   0.074   4.367   0.131
10240TIP3    H130661   0.143   4.432   0.148
10240TIP3    H230662   0.003   4.393   0.190
10241TIP3   OH230663   3.059   6.482   4.862
10241TIP3    H130664   3.115   6.459   4.937
10241TIP3    H230665   3.005   6.404   4.848
10242TIP3   OH230666   0.928   1.432   6.785
10242TIP3    H130667   0.952   1.429   6.878
10242TIP3    H230668   0.918   1.525   6.766
10243TIP3   OH230669   6.455   4.826   5.123
10243TIP3    H130670   6.439   4.915   5.090
10243TIP3    H230671   6.544   4.806   5.094
10244TIP3   OH230672   0.168   7.782   3.298
10244TIP3    H130673   0.130   7.843   3.235
10244TIP3    H230674   0.093   7.730   3.329
10245TIP3   OH230675   1.366   0.080   5.396
10245TIP3    H130676   1.408   0.009   5.445
10245TIP3    H230677   1.276   0.050   5.385
10246TIP3   OH230678   3.017   3.647   4.695
10246TIP3    H130679   2.946   3.595   4.655
10246TIP3    H230680   3.047   3.704   4.624
10247TIP3   OH230681   2.783   6.834   2.670
10247TIP3    H130682   2.762   6.810   2.580
10247TIP3    H230683   2.778   6.751   2.719
10248TIP3   OH230684   3.695   7.573   1.391
10248TIP3    H130685   3.605   7.601   1.374
10248TIP3    H230686   3.731   7.554   1.305
10249TIP3   OH230687   7.446   4.983   2.520
10249TIP3    H130688   7.393   5.021   2.590
10249TIP3    H230689   7.387   4.921   2.476
10250TIP3   OH230690   5.615   6.469   5.933
10250TIP3    H130691   5.666   6.534   5.884
10250TIP3    H230692   5.558   6.429   5.868
10251TIP3   OH230693   5.085   1.832   1.454
10251TIP3    H130694   5.174   1.844   1.419
10251TIP3    H230695   5.041   1.915   1.436
10252TIP3   OH230696   5.494   0.715   0.522
10252TIP3    H130697   5.555   0.751   0.587
10252TIP3    H230698   5.543   0.644   0.480
10253TIP3   OH230699   6.494   0.576   1.122
10253TIP3    H130700   6.586   0.555   1.142
10253TIP3    H230701   6.454   0.587   1.208
10254TIP3   OH230702   4.860   1.681   1.298
10254TIP3    H130703   4.818   1.766   1.292
10254TIP3    H230704   4.933   1.695   1.359
10255TIP3   OH230705   6.375   7.788   3.492
10255TIP3    H130706   6.452   7.807   3.546
10255TIP3    H230707   6.304   7.839   3.531
10256TIP3   OH230708   0.479   6.301   1.826
10256TIP3    H130709   0.512   6.311   1.915
10256TIP3    H230710   0.392   6.341   1.828
10257TIP3   OH230711   1.866   5.163   4.452
10257TIP3    H130712   1.812   5.090   4.482
10257TIP3    H230713   1.938   5.121   4.404
10258TIP3   OH230714   2.021   7.383   1.289
10258TIP3    H130715   1.969   7.463   1.294
10258TIP3    H230716   2.098   7.402   1.342
10259TIP3   OH230717   8.028   6.555   3.686
10259TIP3    H130718   7.952   6.560   3.628
10259TIP3    H230719   8.023   6.636   3.738
10260TIP3   OH230720   4.799   6.566   3.979
10260TIP3    H130721   4.719   6.580   3.928
10260TIP3    H230722   4.805   6.643   4.036
10261TIP3   OH230723   6.160   5.470   1.053
10261TIP3    H130724   6.195   5.455   1.140
10261TIP3    H230725   6.217   5.538   1.016
10262TIP3   OH230726   7.134   1.122   2.054
10262TIP3    H130727   7.104   1.048   2.107
10262TIP3    H230728   7.190   1.173   2.113
10263TIP3   OH230729   0.254   4.689   1.713
10263TIP3    H130730   0.317   4.668   1.782
10263TIP3    H230731   0.179   4.726   1.760
10264TIP3   OH230732   7.149   1.593   6.849
10264TIP3    H130733   7.151   1.506   6.809
10264TIP3    H230734   7.189   1.650   6.784
10265TIP3   OH230735   1.336   0.413   6.137
10265TIP3    H130736   1.412   0.360   6.115
10265TIP3    H230737   1.355   0.448   6.224
10266TIP3   OH230738   6.457   5.066   4.988
10266TIP3    H130739   6.450   5.158   4.963
10266TIP3    H230740   6.467   5.020   4.905
10267TIP3   OH230741   1.598   5.268   0.533
10267TIP3    H130742   1.627   5.352   0.568
10267TIP3    H230743   1.522   5.289   0.479
10268TIP3   OH230744   0.197   1.744   1.311
10268TIP3    H130745   0.241   1.671   1.355
10268TIP3    H230746   0.179   1.712   1.223
10269TIP3   OH230747   0.705   5.070   4.178
10269TIP3    H130748   0.704   4.994   4.120
10269TIP3    H230749   0.623   5.116   4.158
10270TIP3   OH230750   2.085   1.555   5.258
10270TIP3    H130751   1.990   1.543   5.266
10270TIP3    H230752   2.101   1.644   5.287
10271TIP3   OH230753   0.207   6.380   5.285
10271TIP3    H130754   0.265   6.352   5.355
10271TIP3    H230755   0.147   6.306   5.272
10272TIP3   OH230756   6.651   3.866   6.180
10272TIP3    H130757   6.604   3.859   6.263
10272TIP3    H230758   6.723   3.926   6.198
10273TIP3   OH230759   2.448   3.874   3.515
10273TIP3    H130760   2.420   3.782   3.518
10273TIP3    H230761   2.521   3.875   3.453
10274TIP3   OH230762   1.017   6.319   0.245
10274TIP3    H130763   1.024   6.277   0.330
10274TIP3    H230764   1.073   6.268   0.187
10275TIP3   OH230765   1.263   2.972   1.486
10275TIP3    H130766   1.345   2.927   1.508
10275TIP3    H230767   1.200   2.902   1.470
10276TIP3   OH230768   4.089   4.412   3.025
10276TIP3    H130769   4.025   4.467   3.069
10276TIP3    H230770   4.037   4.349   2.975
10277TIP3   OH230771   5.039   3.118   2.203
10277TIP3    H130772   4.980   3.044   2.197
10277TIP3    H230773   5.120   3.082   2.239
10278TIP3   OH230774   0.312   4.148   3.282
10278TIP3    H130775   0.219   4.158   3.262
10278TIP3    H230776   0.337   4.230   3.324
10279TIP3   OH230777   6.573   6.976   3.551
10279TIP3    H130778   6.598   7.054   3.502
10279TIP3    H230779   6.590   6.998   3.642
10280TIP3   OH230780   5.008   4.739   1.804
10280TIP3    H130781   4.988   4.768   1.715
10280TIP3    H230782   5.070   4.667   1.793
10281TIP3   OH230783   0.991   2.670   6.711
10281TIP3    H130784   1.035   2.585   6.708
10281TIP3    H230785   1.058   2.733   6.684
10282TIP3   OH230786   4.334   4.913   5.756
10282TIP3    H130787   4.413   4.860   5.743
10282TIP3    H230788   4.367   4.995   5.794
10283TIP3   OH230789   1.359   0.293   1.714
10283TIP3    H130790   1.318   0.358   1.772
10283TIP3    H230791   1.439   0.268   1.760
10284TIP3   OH230792   6.651   6.501   2.791
10284TIP3    H130793   6.564   6.466   2.808
10284TIP3    H230794   6.639   6.561   2.718
10285TIP3   OH230795   0.458   4.323   1.766
10285TIP3    H130796   0.386   4.336   1.704
10285TIP3    H230797   0.535   4.358   1.722
10286TIP3   OH230798   6.943   3.697   5.029
10286TIP3    H130799   6.855   3.684   4.994
10286TIP3    H230800   6.996   3.722   4.953
10287TIP3   OH230801   8.130   5.386   3.548
10287TIP3    H130802   8.094   5.412   3.463
10287TIP3    H230803   8.224   5.399   3.539
10288TIP3   OH230804   4.034   4.378   6.561
10288TIP3    H130805   3.970   4.343   6.623
10288TIP3    H230806   3.992   4.368   6.476
10289TIP3   OH230807   0.227   3.661   2.937
10289TIP3    H130808   0.188   3.576   2.959
10289TIP3    H230809   0.219   3.712   3.018
10290TIP3   OH230810   4.260   4.646   3.770
10290TIP3    H130811   4.258   4.698   3.850
10290TIP3    H230812   4.312   4.569   3.792
10291TIP3   OH230813   0.058   1.382   0.833
10291TIP3    H130814   0.074   1.428   0.915
10291TIP3    H230815   0.098   1.295   0.845
10292TIP3   OH230816   0.090   1.579   3.753
10292TIP3    H130817   0.179   1.552   3.727
10292TIP3    H230818   0.038   1.566   3.674
10293TIP3   OH230819   4.980   1.255   2.011
10293TIP3    H130820   5.018   1.169   1.991
10293TIP3    H230821   4.897   1.256   1.964
10294TIP3   OH230822   1.142   5.417   3.292
10294TIP3    H130823   1.192   5.499   3.295
10294TIP3    H230824   1.177   5.364   3.363
10295TIP3   OH230825   4.401   2.814   1.350
10295TIP3    H130826   4.453   2.738   1.326
10295TIP3    H230827   4.445   2.888   1.308
10296TIP3   OH230828   5.544   5.945   0.790
10296TIP3    H130829   5.568   5.856   0.815
10296TIP3    H230830   5.570   5.999   0.865
10297TIP3   OH230831   3.670   3.276   3.198
10297TIP3    H130832   3.689   3.206   3.261
10297TIP3    H230833   3.575   3.287   3.202
10298TIP3   OH230834   7.115   0.581   1.143
10298TIP3    H130835   7.158   0.657   1.183
10298TIP3    H230836   7.119   0.598   1.049
10299TIP3   OH230837   4.510   0.922   3.934
10299TIP3    H130838   4.449   0.995   3.943
10299TIP3    H230839   4.554   0.938   3.850
10300TIP3   OH230840   0.321   2.365   6.816
10300TIP3    H130841   0.389   2.408   6.867
10300TIP3    H230842   0.288   2.433   6.758
10301TIP3   OH230843   7.333   6.812   1.779
10301TIP3    H130844   7.339   6.905   1.796
10301TIP3    H230845   7.419   6.789   1.743
10302TIP3   OH230846   5.426   2.097   1.505
10302TIP3    H130847   5.398   2.180   1.545
10302TIP3    H230848   5.453   2.122   1.416
10303TIP3   OH230849   6.932   6.815   0.656
10303TIP3    H130850   7.000   6.878   0.634
10303TIP3    H230851   6.939   6.804   0.751
10304TIP3   OH230852   5.457   1.889   5.691
10304TIP3    H130853   5.509   1.908   5.769
10304TIP3    H230854   5.386   1.953   5.693
10305TIP3   OH230855   1.636   5.701   4.148
10305TIP3    H130856   1.657   5.678   4.239
10305TIP3    H230857   1.695   5.773   4.128
10306TIP3   OH230858   1.310   5.629   3.294
10306TIP3    H130859   1.374   5.686   3.251
10306TIP3    H230860   1.295   5.670   3.379
10307TIP3   OH230861   6.461   7.441   4.584
10307TIP3    H130862   6.514   7.513   4.548
10307TIP3    H230863   6.488   7.435   4.675
10308TIP3   OH230864   2.873   4.372   4.759
10308TIP3    H130865   2.894   4.302   4.821
10308TIP3    H230866   2.812   4.330   4.697
10309TIP3   OH230867   0.177   4.014   0.152
10309TIP3    H130868   0.219   4.046   0.072
10309TIP3    H230869   0.237   3.947   0.185
10310TIP3   OH230870   7.598   4.360   2.843
10310TIP3    H130871   7.522   4.302   2.837
10310TIP3    H230872   7.674   4.301   2.840
10311TIP3   OH230873   3.893   1.281   0.671
10311TIP3    H130874   3.911   1.188   0.665
10311TIP3    H230875   3.979   1.323   0.668
10312TIP3   OH230876   3.126   4.123   0.286
10312TIP3    H130877   3.091   4.057   0.225
10312TIP3    H230878   3.164   4.071   0.357
10313TIP3   OH230879   7.683   0.605   3.324
10313TIP3    H130880   7.735   0.677   3.359
10313TIP3    H230881   7.723   0.585   3.239
10314TIP3   OH230882   1.259   7.829   2.873
10314TIP3    H130883   1.353   7.847   2.875
10314TIP3    H230884   1.247   7.756   2.934
10315TIP3   OH230885   6.937   7.140   5.037
10315TIP3    H130886   6.983   7.223   5.049
10315TIP3    H230887   7.007   7.076   5.027
10316TIP3   OH230888   3.196   2.300   6.754
10316TIP3    H130889   3.111   2.261   6.775
10316TIP3    H230890   3.247   2.293   6.835
10317TIP3   OH230891   3.071   0.308   0.822
10317TIP3    H130892   3.039   0.233   0.872
10317TIP3    H230893   3.025   0.383   0.859
10318TIP3   OH230894   6.120   4.458   2.976
10318TIP3    H130895   6.187   4.430   3.039
10318TIP3    H230896   6.108   4.383   2.919
10319TIP3   OH230897   6.174   6.499   5.410
10319TIP3    H130898   6.161   6.406   5.395
10319TIP3    H230899   6.256   6.519   5.364
10320TIP3   OH230900   6.398   2.452   6.507
10320TIP3    H130901   6.463   2.425   6.573
10320TIP3    H230902   6.441   2.524   6.460
10321TIP3   OH230903   2.117   2.210   0.713
10321TIP3    H130904   2.185   2.168   0.766
10321TIP3    H230905   2.070   2.267   0.774
10322TIP3   OH230906   1.216   0.043   5.710
10322TIP3    H130907   1.220   0.130   5.749
10322TIP3    H230908   1.123   0.029   5.693
10323TIP3   OH230909   7.736   0.320   6.260
10323TIP3    H130910   7.752   0.396   6.204
10323TIP3    H230911   7.710   0.251   6.199
10324TIP3   OH230912   4.584   4.298   3.983
10324TIP3    H130913   4.493   4.276   3.961
10324TIP3    H230914   4.637   4.236   3.935
10325TIP3   OH230915   2.960   2.293   5.367
10325TIP3    H130916   3.054   2.302   5.358
10325TIP3    H230917   2.945   2.291   5.461
10326TIP3   OH230918   3.249   6.876   3.882
10326TIP3    H130919   3.187   6.941   3.914
10326TIP3    H230920   3.194   6.802   3.855
10327TIP3   OH230921   8.044   5.144   2.674
10327TIP3    H130922   8.016   5.066   2.722
10327TIP3    H230923   7.963   5.186   2.647
10328TIP3   OH230924   5.713   0.695   5.971
10328TIP3    H130925   5.704   0.600   5.969
10328TIP3    H230926   5.768   0.716   5.896
10329TIP3   OH230927   6.099   2.134   2.067
10329TIP3    H130928   6.098   2.101   1.978
10329TIP3    H230929   6.103   2.230   2.058
10330TIP3   OH230930   2.511   7.516   1.529
10330TIP3    H130931   2.466   7.579   1.586
10330TIP3    H230932   2.548   7.570   1.459
10331TIP3   OH230933   6.538   0.623   0.233
10331TIP3    H130934   6.495   0.611   0.148
10331TIP3    H230935   6.525   0.715   0.254
10332TIP3   OH230936   5.120   0.230   1.376
10332TIP3    H130937   5.061   0.298   1.410
10332TIP3    H230938   5.183   0.216   1.447
10333TIP3   OH230939   8.087   4.791   0.673
10333TIP3    H130940   8.042   4.739   0.739
10333TIP3    H230941   8.027   4.863   0.654
10334TIP3   OH230942   0.826   5.003   0.548
10334TIP3    H130943   0.913   4.964   0.559
10334TIP3    H230944   0.808   5.045   0.632
10335TIP3   OH230945   5.496   4.502   3.316
10335TIP3    H130946   5.415   4.470   3.275
10335TIP3    H230947   5.496   4.461   3.403
10336TIP3   OH230948   2.669   2.614   0.436
10336TIP3    H130949   2.653   2.574   0.351
10336TIP3    H230950   2.762   2.637   0.435
10337TIP3   OH230951   4.996   2.901   4.965
10337TIP3    H130952   5.023   2.967   4.901
10337TIP3    H230953   4.999   2.818   4.917
10338TIP3   OH230954   0.879   7.395   4.674
10338TIP3    H130955   0.852   7.424   4.761
10338TIP3    H230956   0.817   7.437   4.614
10339TIP3   OH230957   3.779   1.654   0.207
10339TIP3    H130958   3.843   1.654   0.279
10339TIP3    H230959   3.709   1.711   0.238
10340TIP3   OH230960   2.519   6.783   1.033
10340TIP3    H130961   2.429   6.793   1.002
10340TIP3    H230962   2.554   6.710   0.982
10341TIP3   OH230963   1.428   0.139   6.008
10341TIP3    H130964   1.503   0.096   6.049
10341TIP3    H230965   1.466   0.190   5.936
10342TIP3   OH230966   4.221   5.624   5.699
10342TIP3    H130967   4.206   5.715   5.725
10342TIP3    H230968   4.192   5.572   5.774
10343TIP3   OH230969   4.125   4.890   4.527
10343TIP3    H130970   4.153   4.949   4.457
10343TIP3    H230971   4.037   4.920   4.550
10344TIP3   OH230972   2.113   3.722   2.365
10344TIP3    H130973   2.117   3.814   2.337
10344TIP3    H230974   2.179   3.678   2.311
10345TIP3   OH230975   4.190   7.109   5.082
10345TIP3    H130976   4.155   7.054   5.011
10345TIP3    H230977   4.177   7.199   5.051
10346TIP3   OH230978   3.584   7.601   4.190
10346TIP3    H130979   3.666   7.567   4.153
10346TIP3    H230980   3.607   7.626   4.279
10347TIP3   OH230981   7.008   5.155   3.216
10347TIP3    H130982   7.009   5.151   3.311
10347TIP3    H230983   7.047   5.240   3.195
10348TIP3   OH230984   6.066   3.411   2.293
10348TIP3    H130985   6.037   3.432   2.204
10348TIP3    H230986   5.986   3.386   2.339
10349TIP3   OH230987   6.268   5.708   2.673
10349TIP3    H130988   6.183   5.691   2.634
10349TIP3    H230989   6.249   5.758   2.752
10350TIP3   OH230990   4.048   0.002   4.788
10350TIP3    H130991   4.023  -0.044   4.868
10350TIP3    H230992   4.034   0.095   4.808
10351TIP3   OH230993   2.629   6.380   1.049
10351TIP3    H130994   2.647   6.466   1.011
10351TIP3    H230995   2.610   6.399   1.141
10352TIP3   OH230996   0.204   7.549   4.264
10352TIP3    H130997   0.271   7.501   4.313
10352TIP3    H230998   0.122   7.530   4.310
10353TIP3   OH230999   7.250   2.607   5.479
10353TIP3    H131000   7.325   2.627   5.425
10353TIP3    H231001   7.217   2.692   5.508
10354TIP3   OH231002   0.116   5.458   5.684
10354TIP3    H131003   0.044   5.453   5.747
10354TIP3    H231004   0.177   5.390   5.712
10355TIP3   OH231005   4.698   1.690   1.793
10355TIP3    H131006   4.793   1.687   1.788
10355TIP3    H231007   4.670   1.708   1.703
10356TIP3   OH231008   3.271   4.407   6.079
10356TIP3    H131009   3.312   4.493   6.067
10356TIP3    H231010   3.186   4.427   6.118
10357TIP3   OH231011   5.014   7.869   6.776
10357TIP3    H131012   4.972   7.819   6.706
10357TIP3    H231013   5.046   7.803   6.838
10358TIP3   OH231014   2.473   1.545   5.686
10358TIP3    H131015   2.541   1.524   5.750
10358TIP3    H231016   2.411   1.601   5.734
10359TIP3   OH231017   8.104   0.539   0.902
10359TIP3    H131018   8.070   0.467   0.849
10359TIP3    H231019   8.097   0.616   0.845
10360TIP3   OH231020   1.401   5.641   5.388
10360TIP3    H131021   1.474   5.677   5.337
10360TIP3    H231022   1.380   5.558   5.345
10361TIP3   OH231023   4.436   7.152   0.832
10361TIP3    H131024   4.410   7.190   0.916
10361TIP3    H231025   4.434   7.225   0.771
10362TIP3   OH231026   4.368   7.524   5.676
10362TIP3    H131027   4.462   7.539   5.690
10362TIP3    H231028   4.365   7.450   5.615
10363TIP3   OH231029   0.792   7.126   5.496
10363TIP3    H131030   0.849   7.083   5.432
10363TIP3    H231031   0.703   7.112   5.463
10364TIP3   OH231032   2.708   6.668   2.419
10364TIP3    H131033   2.627   6.696   2.375
10364TIP3    H231034   2.755   6.618   2.352
10365TIP3   OH231035   8.224   2.868   3.459
10365TIP3    H131036   8.217   2.788   3.407
10365TIP3    H231037   8.133   2.891   3.481
10366TIP3   OH231038   3.387   7.746   1.064
10366TIP3    H131039   3.449   7.688   1.108
10366TIP3    H231040   3.423   7.834   1.078
10367TIP3   OH231041   0.788   1.832   0.351
10367TIP3    H131042   0.724   1.869   0.412
10367TIP3    H231043   0.867   1.884   0.364
10368TIP3   OH231044   3.325   4.250   5.556
10368TIP3    H131045   3.354   4.158   5.557
10368TIP3    H231046   3.366   4.289   5.633
10369TIP3   OH231047   2.996   7.682   6.759
10369TIP3    H131048   3.082   7.677   6.801
10369TIP3    H231049   3.009   7.743   6.687
10370TIP3   OH231050   6.055   5.015   0.063
10370TIP3    H131051   6.133   4.973   0.099
10370TIP3    H231052   6.010   5.051   0.140
10371TIP3   OH231053   6.792   6.689   4.384
10371TIP3    H131054   6.737   6.721   4.455
10371TIP3    H231055   6.819   6.601   4.412
10372TIP3   OH231056   5.064   0.456   1.961
10372TIP3    H131057   5.054   0.490   1.872
10372TIP3    H231058   5.093   0.532   2.012
10373TIP3   OH231059   1.097   3.149   5.571
10373TIP3    H131060   1.077   3.211   5.641
10373TIP3    H231061   1.076   3.063   5.609
10374TIP3   OH231062   2.396   5.185   4.892
10374TIP3    H131063   2.392   5.090   4.881
10374TIP3    H231064   2.362   5.200   4.980
10375TIP3   OH231065   6.017   7.721   5.293
10375TIP3    H131066   5.989   7.706   5.383
10375TIP3    H231067   6.102   7.764   5.301
10376TIP3   OH231068   1.351   7.098   4.054
10376TIP3    H131069   1.264   7.119   4.090
10376TIP3    H231070   1.333   7.036   3.984
10377TIP3   OH231071   4.731   4.193   5.675
10377TIP3    H131072   4.797   4.185   5.606
10377TIP3    H231073   4.655   4.145   5.640
10378TIP3   OH231074   8.334   7.651   1.986
10378TIP3    H131075   8.246   7.680   1.965
10378TIP3    H231076   8.388   7.729   1.978
10379TIP3   OH231077   4.497   5.124   2.413
10379TIP3    H131078   4.578   5.109   2.364
10379TIP3    H231079   4.483   5.042   2.461
10380TIP3   OH231080   0.049   4.759   6.102
10380TIP3    H131081   0.033   4.665   6.104
10380TIP3    H231082   0.109   4.775   6.176
10381TIP3   OH231083   5.419   4.194   0.280
10381TIP3    H131084   5.496   4.207   0.335
10381TIP3    H231085   5.437   4.113   0.233
10382TIP3   OH231086   3.313   6.590   0.410
10382TIP3    H131087   3.283   6.502   0.385
10382TIP3    H231088   3.388   6.575   0.467
10383TIP3   OH231089   4.922   2.787   4.386
10383TIP3    H131090   4.833   2.806   4.416
10383TIP3    H231091   4.911   2.765   4.294
10384TIP3   OH231092   2.357   4.930   1.773
10384TIP3    H131093   2.268   4.963   1.758
10384TIP3    H231094   2.381   4.887   1.691
10385TIP3   OH231095   3.618   0.632   1.516
10385TIP3    H131096   3.638   0.615   1.424
10385TIP3    H231097   3.583   0.550   1.549
10386TIP3   OH231098   7.526   7.725   0.719
10386TIP3    H131099   7.554   7.657   0.781
10386TIP3    H231100   7.505   7.676   0.639
10387TIP3   OH231101   0.136   1.256   0.522
10387TIP3    H131102   0.141   1.341   0.478
10387TIP3    H231103   0.225   1.240   0.554
10388TIP3   OH231104   6.805   4.974   3.089
10388TIP3    H131105   6.870   5.045   3.090
10388TIP3    H231106   6.764   4.981   3.002
10389TIP3   OH231107   7.986   4.465   4.548
10389TIP3    H131108   7.929   4.503   4.614
10389TIP3    H231109   8.043   4.537   4.520
10390TIP3   OH231110   5.587   5.836   6.411
10390TIP3    H131111   5.548   5.797   6.490
10390TIP3    H231112   5.514   5.884   6.371
10391TIP3   OH231113   3.897   6.002   1.437
10391TIP3    H131114   3.850   5.920   1.424
10391TIP3    H231115   3.963   6.003   1.368
10392TIP3   OH231116   5.741   1.670   5.032
10392TIP3    H131117   5.801   1.602   5.063
10392TIP3    H231118   5.782   1.703   4.952
10393TIP3   OH231119   2.846   0.718   2.310
10393TIP3    H131120   2.795   0.637   2.310
10393TIP3    H231121   2.934   0.691   2.335
10394TIP3   OH231122   6.096   3.695   1.573
10394TIP3    H131123   6.187   3.717   1.552
10394TIP3    H231124   6.075   3.750   1.648
10395TIP3   OH231125   0.211   5.682   0.632
10395TIP3    H131126   0.254   5.615   0.580
10395TIP3    H231127   0.185   5.749   0.569
10396TIP3   OH231128   7.656   2.890   4.084
10396TIP3    H131129   7.648   2.836   4.005
10396TIP3    H231130   7.720   2.844   4.138
10397TIP3   OH231131   1.560   2.161   2.353
10397TIP3    H131132   1.600   2.183   2.270
10397TIP3    H231133   1.490   2.226   2.364
10398TIP3   OH231134   0.342   3.946   5.138
10398TIP3    H131135   0.308   3.857   5.128
10398TIP3    H231136   0.404   3.956   5.066
10399TIP3   OH231137   5.309   5.619   3.553
10399TIP3    H131138   5.238   5.584   3.607
10399TIP3    H231139   5.322   5.708   3.587
10400TIP3   OH231140   6.869   4.819   2.795
10400TIP3    H131141   6.842   4.886   2.732
10400TIP3    H231142   6.963   4.832   2.806
10401TIP3   OH231143   4.829   4.001   1.793
10401TIP3    H131144   4.751   4.020   1.846
10401TIP3    H231145   4.847   3.908   1.811
10402TIP3   OH231146   1.683   5.437   6.114
10402TIP3    H131147   1.772   5.471   6.124
10402TIP3    H231148   1.669   5.434   6.019
10403TIP3   OH231149   7.392   7.682   4.449
10403TIP3    H131150   7.482   7.702   4.424
10403TIP3    H231151   7.358   7.763   4.487
10404TIP3   OH231152   5.920   2.312   0.639
10404TIP3    H131153   6.013   2.314   0.619
10404TIP3    H231154   5.915   2.342   0.730
10405TIP3   OH231155   2.816   4.127   2.474
10405TIP3    H131156   2.907   4.133   2.503
10405TIP3    H231157   2.766   4.178   2.538
10406TIP3   OH231158   7.207   6.569   3.523
10406TIP3    H131159   7.177   6.504   3.459
10406TIP3    H231160   7.248   6.638   3.470
10407TIP3   OH231161   2.781   2.537   1.497
10407TIP3    H131162   2.693   2.500   1.509
10407TIP3    H231163   2.776   2.582   1.413
10408TIP3   OH231164   6.572   4.392   2.122
10408TIP3    H131165   6.608   4.308   2.148
10408TIP3    H231166   6.644   4.454   2.134
10409TIP3   OH231167   3.459   5.154   0.149
10409TIP3    H131168   3.478   5.119   0.062
10409TIP3    H231169   3.512   5.101   0.208
10410TIP3   OH231170   6.037   5.205   3.373
10410TIP3    H131171   6.010   5.137   3.434
10410TIP3    H231172   6.127   5.225   3.398
10411TIP3   OH231173   7.479   4.058   4.958
10411TIP3    H131174   7.470   4.060   4.862
10411TIP3    H231175   7.411   4.116   4.990
10412TIP3   OH231176   6.465   7.416   5.835
10412TIP3    H131177   6.390   7.434   5.890
10412TIP3    H231178   6.541   7.434   5.891
10413TIP3   OH231179   6.832   1.155   4.112
10413TIP3    H131180   6.887   1.233   4.106
10413TIP3    H231181   6.879   1.088   4.062
10414TIP3   OH231182   3.298   2.098   2.201
10414TIP3    H131183   3.336   2.095   2.289
10414TIP3    H231184   3.222   2.156   2.209
10415TIP3   OH231185   0.599   2.139   4.890
10415TIP3    H131186   0.524   2.173   4.841
10415TIP3    H231187   0.573   2.051   4.917
10416TIP3   OH231188   4.767   7.560   6.076
10416TIP3    H131189   4.708   7.546   6.150
10416TIP3    H231190   4.717   7.615   6.016
10417TIP3   OH231191   5.813   2.603   6.156
10417TIP3    H131192   5.805   2.600   6.061
10417TIP3    H231193   5.798   2.696   6.177
10418TIP3   OH231194   2.719   5.352   6.596
10418TIP3    H131195   2.768   5.290   6.541
10418TIP3    H231196   2.782   5.422   6.614
10419TIP3   OH231197   5.883   4.782   4.141
10419TIP3    H131198   5.932   4.769   4.060
10419TIP3    H231199   5.835   4.700   4.153
10420TIP3   OH231200   7.733   5.568   5.725
10420TIP3    H131201   7.802   5.584   5.790
10420TIP3    H231202   7.737   5.643   5.666
10421TIP3   OH231203   1.105   2.749   1.439
10421TIP3    H131204   1.014   2.749   1.468
10421TIP3    H231205   1.103   2.703   1.355
10422TIP3   OH231206   0.654   4.698   0.394
10422TIP3    H131207   0.721   4.635   0.420
10422TIP3    H231208   0.700   4.758   0.335
10423TIP3   OH231209   6.431   6.878   6.431
10423TIP3    H131210   6.354   6.850   6.381
10423TIP3    H231211   6.401   6.953   6.482
10424TIP3   OH231212   5.599   1.201   6.005
10424TIP3    H131213   5.644   1.213   5.922
10424TIP3    H231214   5.538   1.129   5.989
10425TIP3   OH231215   4.152   0.809   4.764
10425TIP3    H131216   4.146   0.763   4.681
10425TIP3    H231217   4.230   0.865   4.756
10426TIP3   OH231218   6.595   5.653   3.767
10426TIP3    H131219   6.633   5.620   3.848
10426TIP3    H231220   6.579   5.575   3.715
10427TIP3   OH231221   8.051   6.798   3.815
10427TIP3    H131222   8.088   6.886   3.816
10427TIP3    H231223   7.963   6.809   3.852
10428TIP3   OH231224   7.331   2.209   0.949
10428TIP3    H131225   7.382   2.131   0.966
10428TIP3    H231226   7.296   2.196   0.861
10429TIP3   OH231227   4.559   6.866   3.497
10429TIP3    H131228   4.578   6.775   3.521
10429TIP3    H231229   4.464   6.868   3.488
10430TIP3   OH231230   7.621   3.560   5.905
10430TIP3    H131231   7.625   3.609   5.987
10430TIP3    H231232   7.569   3.615   5.847
10431TIP3   OH231233   5.885   2.649   3.575
10431TIP3    H131234   5.875   2.638   3.670
10431TIP3    H231235   5.798   2.676   3.545
10432TIP3   OH231236   6.056   3.925   0.920
10432TIP3    H131237   5.977   3.874   0.937
10432TIP3    H231238   6.093   3.941   1.007
10433TIP3   OH231239   3.876   1.978   6.067
10433TIP3    H131240   3.789   1.999   6.103
10433TIP3    H231241   3.911   2.062   6.038
10434TIP3   OH231242   3.717   0.493   1.801
10434TIP3    H131243   3.757   0.417   1.759
10434TIP3    H231244   3.627   0.494   1.768
10435TIP3   OH231245   5.875   1.434   5.134
10435TIP3    H131246   5.817   1.375   5.182
10435TIP3    H231247   5.957   1.386   5.126
10436TIP3   OH231248   3.446   7.053   0.231
10436TIP3    H131249   3.485   6.972   0.265
10436TIP3    H231250   3.469   7.053   0.138
10437TIP3   OH231251   7.468   6.892   2.203
10437TIP3    H131252   7.396   6.830   2.212
10437TIP3    H231253   7.470   6.938   2.288
10438TIP3   OH231254   3.830   4.220   6.374
10438TIP3    H131255   3.876   4.155   6.426
10438TIP3    H231256   3.738   4.191   6.376
10439TIP3   OH231257   5.605   0.257   4.701
10439TIP3    H131258   5.526   0.267   4.755
10439TIP3    H231259   5.596   0.325   4.634
10440TIP3   OH231260   7.533   3.262   4.598
10440TIP3    H131261   7.586   3.333   4.563
10440TIP3    H231262   7.445   3.299   4.604
10441TIP3   OH231263   3.234   6.490   2.462
10441TIP3    H131264   3.289   6.553   2.416
10441TIP3    H231265   3.290   6.457   2.532
10442TIP3   OH231266   6.866   1.350   2.719
10442TIP3    H131267   6.866   1.321   2.810
10442TIP3    H231268   6.842   1.443   2.723
10443TIP3   OH231269   3.004   3.701   5.471
10443TIP3    H131270   2.919   3.724   5.434
10443TIP3    H231271   2.985   3.682   5.563
10444TIP3   OH231272   1.084   2.616   3.975
10444TIP3    H131273   1.113   2.579   3.891
10444TIP3    H231274   1.089   2.542   4.036
10445TIP3   OH231275   6.092   6.379   5.666
10445TIP3    H131276   6.093   6.388   5.570
10445TIP3    H231277   6.123   6.290   5.682
10446TIP3   OH231278   6.966   1.304   5.014
10446TIP3    H131279   6.993   1.391   5.042
10446TIP3    H231280   6.893   1.319   4.954
10447TIP3   OH231281   0.957   1.502   4.371
10447TIP3    H131282   0.952   1.571   4.303
10447TIP3    H231283   0.935   1.547   4.452
10448TIP3   OH231284   7.259   4.613   4.985
10448TIP3    H131285   7.331   4.552   4.970
10448TIP3    H231286   7.252   4.617   5.081
10449TIP3   OH231287   1.611   1.463   4.484
10449TIP3    H131288   1.547   1.496   4.420
10449TIP3    H231289   1.655   1.391   4.440
10450TIP3   OH231290   7.540   1.289   6.038
10450TIP3    H131291   7.562   1.202   6.006
10450TIP3    H231292   7.528   1.278   6.133
10451TIP3   OH231293   4.500   2.785   3.398
10451TIP3    H131294   4.414   2.748   3.376
10451TIP3    H231295   4.545   2.716   3.446
10452TIP3   OH231296   0.314   5.822   3.471
10452TIP3    H131297   0.386   5.884   3.486
10452TIP3    H231298   0.358   5.737   3.461
10453TIP3   OH231299   2.465   1.485   5.120
10453TIP3    H131300   2.525   1.411   5.120
10453TIP3    H231301   2.387   1.454   5.076
10454TIP3   OH231302   1.420   3.110   3.027
10454TIP3    H131303   1.478   3.070   2.963
10454TIP3    H231304   1.477   3.163   3.082
10455TIP3   OH231305   6.441   5.160   0.903
10455TIP3    H131306   6.444   5.076   0.858
10455TIP3    H231307   6.413   5.223   0.836
10456TIP3   OH231308   1.570   6.013   3.822
10456TIP3    H131309   1.573   5.977   3.733
10456TIP3    H231310   1.477   6.013   3.845
10457TIP3   OH231311   3.631   6.486   3.953
10457TIP3    H131312   3.564   6.461   4.016
10457TIP3    H231313   3.597   6.566   3.912
10458TIP3   OH231314   8.208   6.458   5.896
10458TIP3    H131315   8.266   6.383   5.907
10458TIP3    H231316   8.265   6.528   5.864
10459TIP3   OH231317   7.200   4.682   1.793
10459TIP3    H131318   7.127   4.729   1.753
10459TIP3    H231319   7.185   4.688   1.887
10460TIP3   OH231320   5.292   3.682   5.507
10460TIP3    H131321   5.336   3.613   5.557
10460TIP3    H231322   5.208   3.694   5.551
10461TIP3   OH231323   7.911   3.131   0.420
10461TIP3    H131324   7.989   3.145   0.367
10461TIP3    H231325   7.905   3.209   0.475
10462TIP3   OH231326   3.214   7.199   4.764
10462TIP3    H131327   3.248   7.213   4.676
10462TIP3    H231328   3.252   7.116   4.792
10463TIP3   OH231329   5.443   1.411   4.104
10463TIP3    H131330   5.417   1.331   4.058
10463TIP3    H231331   5.525   1.387   4.147
10464TIP3   OH231332   6.186   4.133   2.105
10464TIP3    H131333   6.107   4.177   2.136
10464TIP3    H231334   6.154   4.060   2.052
10465TIP3   OH231335   5.815   7.241   6.279
10465TIP3    H131336   5.750   7.306   6.304
10465TIP3    H231337   5.835   7.194   6.360
10466TIP3   OH231338   0.777   1.978   2.641
10466TIP3    H131339   0.806   2.055   2.592
10466TIP3    H231340   0.776   1.907   2.576
10467TIP3   OH231341   5.151   7.033   4.367
10467TIP3    H131342   5.174   6.976   4.293
10467TIP3    H231343   5.073   7.080   4.338
10468TIP3   OH231344   7.416   7.209   1.625
10468TIP3    H131345   7.354   7.173   1.561
10468TIP3    H231346   7.378   7.187   1.710
10469TIP3   OH231347   4.644   1.765   6.362
10469TIP3    H131348   4.562   1.800   6.398
10469TIP3    H231349   4.643   1.672   6.385
10470TIP3   OH231350   1.381   3.922   2.345
10470TIP3    H131351   1.414   3.833   2.329
10470TIP3    H231352   1.286   3.914   2.337
10471TIP3   OH231353   4.135   0.119   3.907
10471TIP3    H131354   4.046   0.154   3.902
10471TIP3    H231355   4.133   0.057   3.979
10472TIP3   OH231356   7.316   5.365   1.266
10472TIP3    H131357   7.239   5.314   1.243
10472TIP3    H231358   7.281   5.443   1.309
10473TIP3   OH231359   4.278   3.007   5.906
10473TIP3    H131360   4.249   2.980   5.994
10473TIP3    H231361   4.215   2.967   5.847
10474TIP3   OH231362   0.386   1.361   5.350
10474TIP3    H131363   0.305   1.378   5.398
10474TIP3    H231364   0.400   1.267   5.360
10475TIP3   OH231365   1.998   5.278   1.053
10475TIP3    H131366   1.964   5.239   0.972
10475TIP3    H231367   2.072   5.332   1.024
10476TIP3   OH231368   5.306   6.865   6.420
10476TIP3    H131369   5.300   6.881   6.515
10476TIP3    H231370   5.231   6.809   6.400
10477TIP3   OH231371   0.194   0.792   3.272
10477TIP3    H131372   0.106   0.787   3.235
10477TIP3    H231373   0.187   0.859   3.340
10478TIP3   OH231374   6.510   3.460   1.845
10478TIP3    H131375   6.516   3.551   1.815
10478TIP3    H231376   6.430   3.457   1.898
10479TIP3   OH231377   7.141   2.042   4.441
10479TIP3    H131378   7.051   2.014   4.428
10479TIP3    H231379   7.193   1.962   4.426
10480TIP3   OH231380   7.300   2.712   0.956
10480TIP3    H131381   7.325   2.763   1.033
10480TIP3    H231382   7.351   2.631   0.963
10481TIP3   OH231383   2.262   5.233   6.294
10481TIP3    H131384   2.233   5.146   6.322
10481TIP3    H231385   2.290   5.276   6.375
10482TIP3   OH231386   6.423   7.841   0.381
10482TIP3    H131387   6.411   7.885   0.466
10482TIP3    H231388   6.511   7.867   0.353
10483TIP3   OH231389   2.804   0.170   6.083
10483TIP3    H131390   2.710   0.189   6.086
10483TIP3    H231391   2.843   0.227   6.149
10484TIP3   OH231392   6.767   5.008   2.620
10484TIP3    H131393   6.737   5.099   2.630
10484TIP3    H231394   6.844   5.015   2.564
10485TIP3   OH231395   5.542   6.746   6.687
10485TIP3    H131396   5.555   6.759   6.781
10485TIP3    H231397   5.629   6.724   6.653
10486TIP3   OH231398   6.506   0.363   0.949
10486TIP3    H131399   6.601   0.349   0.953
10486TIP3    H231400   6.489   0.427   1.018
10487TIP3   OH231401   1.480   7.759   6.096
10487TIP3    H131402   1.412   7.796   6.152
10487TIP3    H231403   1.528   7.834   6.063
10488TIP3   OH231404   1.867   4.816   4.557
10488TIP3    H131405   1.803   4.748   4.537
10488TIP3    H231406   1.820   4.877   4.614
10489TIP3   OH231407   2.827   6.804   3.517
10489TIP3    H131408   2.865   6.760   3.592
10489TIP3    H231409   2.735   6.819   3.542
10490TIP3   OH231410   3.262   1.630   5.856
10490TIP3    H131411   3.325   1.602   5.922
10490TIP3    H231412   3.277   1.724   5.847
10491TIP3   OH231413   7.692   2.334   2.288
10491TIP3    H131414   7.730   2.295   2.209
10491TIP3    H231415   7.676   2.425   2.265
10492TIP3   OH231416   7.174   0.091   6.241
10492TIP3    H131417   7.115   0.023   6.273
10492TIP3    H231418   7.120   0.170   6.238
10493TIP3   OH231419   5.505   5.447   5.507
10493TIP3    H131420   5.467   5.369   5.548
10493TIP3    H231421   5.599   5.432   5.511
10494TIP3   OH231422   2.024   4.663   6.036
10494TIP3    H131423   2.019   4.673   6.131
10494TIP3    H231424   1.970   4.734   6.002
10495TIP3   OH231425   1.930   2.476   2.509
10495TIP3    H131426   1.956   2.384   2.513
10495TIP3    H231427   1.980   2.518   2.579
10496TIP3   OH231428   6.649   5.534   6.003
10496TIP3    H131429   6.569   5.542   6.055
10496TIP3    H231430   6.656   5.617   5.957
10497TIP3   OH231431   3.516   4.319   0.783
10497TIP3    H131432   3.606   4.351   0.776
10497TIP3    H231433   3.485   4.353   0.867
10498TIP3   OH231434   4.566   3.445   5.344
10498TIP3    H131435   4.579   3.371   5.285
10498TIP3    H231436   4.494   3.495   5.305
10499TIP3   OH231437   7.849   5.078   0.977
10499TIP3    H131438   7.933   5.032   0.988
10499TIP3    H231439   7.785   5.021   1.021
10500TIP3   OH231440   1.966   2.239   2.314
10500TIP3    H131441   2.012   2.319   2.287
10500TIP3    H231442   2.008   2.214   2.396
10501TIP3   OH231443   1.759   2.923   0.625
10501TIP3    H131444   1.684   2.944   0.569
10501TIP3    H231445   1.796   2.843   0.587
10502TIP3   OH231446   2.394   6.965   2.924
10502TIP3    H131447   2.301   6.987   2.934
10502TIP3    H231448   2.434   6.990   3.007
10503TIP3   OH231449   2.140   4.278   2.494
10503TIP3    H131450   2.142   4.299   2.401
10503TIP3    H231451   2.130   4.183   2.496
10504TIP3   OH231452   4.373   3.911   5.584
10504TIP3    H131453   4.397   3.818   5.582
10504TIP3    H231454   4.338   3.925   5.673
10505TIP3   OH231455   8.331   5.503   2.467
10505TIP3    H131456   8.351   5.562   2.540
10505TIP3    H231457   8.242   5.472   2.484
10506TIP3   OH231458   6.756   1.575   4.708
10506TIP3    H131459   6.812   1.650   4.730
10506TIP3    H231460   6.720   1.597   4.622
10507TIP3   OH231461   1.781   7.837   4.429
10507TIP3    H131462   1.725   7.808   4.501
10507TIP3    H231463   1.725   7.896   4.378
10508TIP3   OH231464   1.168   4.728   4.540
10508TIP3    H131465   1.140   4.682   4.461
10508TIP3    H231466   1.088   4.744   4.590
10509TIP3   OH231467   1.835   4.103   4.906
10509TIP3    H131468   1.809   4.117   4.997
10509TIP3    H231469   1.754   4.116   4.856
10510TIP3   OH231470   5.831   4.544   1.158
10510TIP3    H131471   5.742   4.550   1.193
10510TIP3    H231472   5.823   4.577   1.069
10511TIP3   OH231473   6.306   1.182   3.075
10511TIP3    H131474   6.314   1.269   3.113
10511TIP3    H231475   6.277   1.196   2.985
10512TIP3   OH231476   2.333   7.516   1.938
10512TIP3    H131477   2.415   7.514   1.986
10512TIP3    H231478   2.265   7.520   2.005
10513TIP3   OH231479   0.753   4.852   4.871
10513TIP3    H131480   0.658   4.853   4.857
10513TIP3    H231481   0.765   4.799   4.950
10514TIP3   OH231482   7.257   7.835   5.255
10514TIP3    H131483   7.314   7.851   5.180
10514TIP3    H231484   7.242   7.921   5.292
10515TIP3   OH231485   0.056   6.868   5.079
10515TIP3    H131486   0.100   6.802   5.134
10515TIP3    H231487   0.036   6.821   4.998
10516TIP3   OH231488   0.875   6.240   5.731
10516TIP3    H131489   0.881   6.332   5.757
10516TIP3    H231490   0.925   6.235   5.649
10517TIP3   OH231491   4.190   0.397   2.613
10517TIP3    H131492   4.173   0.491   2.598
10517TIP3    H231493   4.163   0.383   2.704
10518TIP3   OH231494   2.112   1.455   4.820
10518TIP3    H131495   2.084   1.368   4.792
10518TIP3    H231496   2.204   1.459   4.796
10519TIP3   OH231497   7.359   3.033   5.820
10519TIP3    H131498   7.440   2.983   5.811
10519TIP3    H231499   7.367   3.077   5.904
10520TIP3   OH231500   2.316   2.683   6.133
10520TIP3    H131501   2.228   2.718   6.148
10520TIP3    H231502   2.333   2.626   6.208
10521TIP3   OH231503   3.702   0.212   1.102
10521TIP3    H131504   3.687   0.128   1.145
10521TIP3    H231505   3.629   0.222   1.041
10522TIP3   OH231506   4.121   4.143   0.131
10522TIP3    H131507   4.214   4.123   0.134
10522TIP3    H231508   4.094   4.145   0.223
10523TIP3   OH231509   6.935   4.600   4.923
10523TIP3    H131510   6.970   4.515   4.948
10523TIP3    H231511   7.009   4.660   4.927
10524TIP3   OH231512   4.400   6.843   4.579
10524TIP3    H131513   4.415   6.881   4.492
10524TIP3    H231514   4.428   6.911   4.640
10525TIP3   OH231515   1.359   0.911   5.161
10525TIP3    H131516   1.339   0.828   5.205
10525TIP3    H231517   1.369   0.974   5.233
10526TIP3   OH231518   2.654   5.924   0.213
10526TIP3    H131519   2.615   5.849   0.258
10526TIP3    H231520   2.729   5.887   0.167
10527TIP3   OH231521   2.940   1.834   2.509
10527TIP3    H131522   3.013   1.813   2.451
10527TIP3    H231523   2.879   1.883   2.454
10528TIP3   OH231524   4.951   4.436   5.810
10528TIP3    H131525   4.945   4.463   5.719
10528TIP3    H231526   4.888   4.492   5.856
10529TIP3   OH231527   5.332   1.337   0.909
10529TIP3    H131528   5.253   1.346   0.964
10529TIP3    H231529   5.353   1.244   0.913
10530TIP3   OH231530   2.387   0.433   0.501
10530TIP3    H131531   2.457   0.497   0.498
10530TIP3    H231532   2.364   0.428   0.594
10531TIP3   OH231533   6.216   5.945   6.249
10531TIP3    H131534   6.125   5.976   6.251
10531TIP3    H231535   6.261   5.996   6.316
10532TIP3   OH231536   7.371   2.626   4.533
10532TIP3    H131537   7.439   2.559   4.525
10532TIP3    H231538   7.362   2.661   4.445
10533TIP3   OH231539   0.730   4.360   2.666
10533TIP3    H131540   0.791   4.403   2.726
10533TIP3    H231541   0.746   4.402   2.581
10534TIP3   OH231542   7.284   1.118   5.580
10534TIP3    H131543   7.319   1.197   5.621
10534TIP3    H231544   7.241   1.071   5.652
10535TIP3   OH231545   3.900   1.942   2.142
10535TIP3    H131546   3.855   1.863   2.111
10535TIP3    H231547   3.960   1.965   2.071
10536TIP3   OH231548   6.702   5.397   0.626
10536TIP3    H131549   6.795   5.389   0.604
10536TIP3    H231550   6.702   5.429   0.717
10537TIP3   OH231551   0.590   7.630   5.755
10537TIP3    H131552   0.607   7.692   5.684
10537TIP3    H231553   0.495   7.623   5.758
10538TIP3   OH231554   0.404   7.588   0.047
10538TIP3    H131555   0.399   7.620   0.137
10538TIP3    H231556   0.449   7.658  -0.001
10539TIP3   OH231557   8.360   7.700   6.294
10539TIP3    H131558   8.331   7.610   6.279
10539TIP3    H231559   8.409   7.724   6.215
10540TIP3   OH231560   0.053   6.845   0.232
10540TIP3    H131561   0.139   6.805   0.222
10540TIP3    H231562   0.034   6.883   0.147
10541TIP3   OH231563   3.352   3.651   3.999
10541TIP3    H131564   3.436   3.681   3.964
10541TIP3    H231565   3.304   3.732   4.019
10542TIP3   OH231566   4.679   7.358   3.102
10542TIP3    H131567   4.669   7.426   3.170
10542TIP3    H231568   4.702   7.406   3.023
10543TIP3   OH231569   3.109   7.054   4.043
10543TIP3    H131570   3.158   7.051   4.126
10543TIP3    H231571   3.040   7.118   4.058
10544TIP3   OH231572   3.349   5.470   1.566
10544TIP3    H131573   3.419   5.411   1.592
10544TIP3    H231574   3.299   5.484   1.646
10545TIP3   OH231575   3.999   0.620   1.793
10545TIP3    H131576   3.983   0.541   1.845
10545TIP3    H231577   4.083   0.653   1.824
10546TIP3   OH231578   3.214   5.575   5.487
10546TIP3    H131579   3.262   5.598   5.407
10546TIP3    H231580   3.257   5.625   5.556
10547TIP3   OH231581   2.534   4.764   3.245
10547TIP3    H131582   2.513   4.693   3.305
10547TIP3    H231583   2.475   4.750   3.170
10548TIP3   OH231584   0.626   0.587   4.290
10548TIP3    H131585   0.638   0.499   4.256
10548TIP3    H231586   0.545   0.582   4.341
10549TIP3   OH231587   4.032   4.048   2.022
10549TIP3    H131588   4.070   4.039   2.110
10549TIP3    H231589   4.108   4.066   1.966
10550TIP3   OH231590   7.518   0.796   3.016
10550TIP3    H131591   7.540   0.859   3.084
10550TIP3    H231592   7.509   0.848   2.936
10551TIP3   OH231593   5.320   6.213   2.588
10551TIP3    H131594   5.347   6.233   2.678
10551TIP3    H231595   5.233   6.174   2.597
10552TIP3   OH231596   4.373   6.449   3.708
10552TIP3    H131597   4.334   6.490   3.785
10552TIP3    H231598   4.337   6.499   3.634
10553TIP3   OH231599   6.048   2.437   2.105
10553TIP3    H131600   6.103   2.472   2.176
10553TIP3    H231601   5.959   2.442   2.140
10554TIP3   OH231602   4.372   7.023   3.810
10554TIP3    H131603   4.406   6.934   3.824
10554TIP3    H231604   4.317   7.039   3.886
10555TIP3   OH231605   0.338   1.667   5.174
10555TIP3    H131606   0.359   1.648   5.083
10555TIP3    H231607   0.413   1.634   5.224
10556TIP3   OH231608   0.485   7.888   5.664
10556TIP3    H131609   0.412   7.948   5.677
10556TIP3    H231610   0.472   7.853   5.576
10557TIP3   OH231611   5.643   6.852   3.431
10557TIP3    H131612   5.652   6.934   3.480
10557TIP3    H231613   5.723   6.845   3.379
10558TIP3   OH231614   8.286   3.893   1.106
10558TIP3    H131615   8.320   3.983   1.112
10558TIP3    H231616   8.355   3.843   1.064
10559TIP3   OH231617   5.852   3.347   1.174
10559TIP3    H131618   5.926   3.403   1.151
10559TIP3    H231619   5.775   3.396   1.145
10560TIP3   OH231620   1.801   5.038   3.795
10560TIP3    H131621   1.896   5.039   3.786
10560TIP3    H231622   1.786   5.025   3.889
10561TIP3   OH231623   0.555   1.157   2.953
10561TIP3    H131624   0.460   1.166   2.945
10561TIP3    H231625   0.589   1.179   2.866
10562TIP3   OH231626   4.060   0.837   6.089
10562TIP3    H131627   4.001   0.765   6.112
10562TIP3    H231628   4.038   0.858   5.998
10563TIP3   OH231629   4.903   2.278   3.179
10563TIP3    H131630   4.833   2.224   3.217
10563TIP3    H231631   4.958   2.301   3.253
10564TIP3   OH231632   5.033   5.226   1.920
10564TIP3    H131633   4.952   5.202   1.964
10564TIP3    H231634   5.085   5.146   1.921
10565TIP3   OH231635   4.284   0.439   4.477
10565TIP3    H131636   4.349   0.458   4.544
10565TIP3    H231637   4.325   0.466   4.395
10566TIP3   OH231638   3.482   1.576   0.950
10566TIP3    H131639   3.501   1.650   0.892
10566TIP3    H231640   3.539   1.506   0.919
10567TIP3   OH231641   7.945   1.177   0.857
10567TIP3    H131642   7.954   1.125   0.777
10567TIP3    H231643   8.027   1.226   0.863
10568TIP3   OH231644   7.280   7.599   2.322
10568TIP3    H131645   7.245   7.578   2.235
10568TIP3    H231646   7.339   7.526   2.342
10569TIP3   OH231647   3.732   0.318   5.589
10569TIP3    H131648   3.676   0.289   5.661
10569TIP3    H231649   3.740   0.413   5.602
10570TIP3   OH231650   0.511   4.368   2.829
10570TIP3    H131651   0.469   4.283   2.845
10570TIP3    H231652   0.592   4.346   2.783
10571TIP3   OH231653   8.280   6.295   6.688
10571TIP3    H131654   8.321   6.352   6.754
10571TIP3    H231655   8.187   6.296   6.711
10572TIP3   OH231656   1.191   3.893   3.671
10572TIP3    H131657   1.228   3.865   3.588
10572TIP3    H231658   1.155   3.980   3.653
10573TIP3   OH231659   0.795   1.059   3.414
10573TIP3    H131660   0.839   1.010   3.345
10573TIP3    H231661   0.832   1.147   3.408
10574TIP3   OH231662   5.419   3.111   5.746
10574TIP3    H131663   5.392   3.092   5.656
10574TIP3    H231664   5.376   3.044   5.799
10575TIP3   OH231665   1.126   2.346   4.051
10575TIP3    H131666   1.122   2.347   4.147
10575TIP3    H231667   1.220   2.340   4.032
10576TIP3   OH231668   5.336   0.790   4.594
10576TIP3    H131669   5.346   0.881   4.567
10576TIP3    H231670   5.392   0.780   4.670
10577TIP3   OH231671   7.657   2.651   0.828
10577TIP3    H131672   7.732   2.594   0.809
10577TIP3    H231673   7.582   2.593   0.830
10578TIP3   OH231674   0.796   2.274   1.218
10578TIP3    H131675   0.798   2.190   1.263
10578TIP3    H231676   0.731   2.325   1.265
10579TIP3   OH231677   4.315   0.916   0.339
10579TIP3    H131678   4.358   0.872   0.412
10579TIP3    H231679   4.321   0.853   0.267
10580TIP3   OH231680   7.722   5.874   5.300
10580TIP3    H131681   7.745   5.861   5.392
10580TIP3    H231682   7.650   5.812   5.285
10581TIP3   OH231683   4.102   3.831   2.607
10581TIP3    H131684   4.118   3.820   2.513
10581TIP3    H231685   4.034   3.899   2.612
10582TIP3   OH231686   4.817   7.411   0.647
10582TIP3    H131687   4.749   7.345   0.657
10582TIP3    H231688   4.801   7.448   0.560
10583TIP3   OH231689   4.413   6.592   4.444
10583TIP3    H131690   4.424   6.667   4.502
10583TIP3    H231691   4.443   6.624   4.359
10584TIP3   OH231692   8.370   5.156   2.369
10584TIP3    H131693   8.276   5.162   2.351
10584TIP3    H231694   8.405   5.108   2.293
10585TIP3   OH231695   4.559   5.642   4.874
10585TIP3    H131696   4.609   5.718   4.903
10585TIP3    H231697   4.556   5.651   4.779
10586TIP3   OH231698   8.295   6.439   0.061
10586TIP3    H131699   8.379   6.483   0.049
10586TIP3    H231700   8.287   6.381  -0.015
10587TIP3   OH231701   6.140   7.803   0.065
10587TIP3    H131702   6.052   7.774   0.090
10587TIP3    H231703   6.188   7.723   0.045
10588TIP3   OH231704   3.484   6.640   1.560
10588TIP3    H131705   3.472   6.587   1.481
10588TIP3    H231706   3.501   6.728   1.527
10589TIP3   OH231707   5.442   2.520   0.563
10589TIP3    H131708   5.368   2.486   0.613
10589TIP3    H231709   5.518   2.505   0.620
10590TIP3   OH231710   3.478   6.497   1.837
10590TIP3    H131711   3.423   6.555   1.889
10590TIP3    H231712   3.498   6.547   1.757
10591TIP3   OH231713   3.119   2.848   5.738
10591TIP3    H131714   3.135   2.805   5.653
10591TIP3    H231715   3.207   2.866   5.772
10592TIP3   OH231716   3.396   1.883   4.996
10592TIP3    H131717   3.315   1.899   5.043
10592TIP3    H231718   3.390   1.939   4.918
10593TIP3   OH231719   6.552   5.966   1.232
10593TIP3    H131720   6.575   5.927   1.316
10593TIP3    H231721   6.578   6.058   1.240
10594TIP3   OH231722   2.398   7.588   0.827
10594TIP3    H131723   2.324   7.527   0.818
10594TIP3    H231724   2.396   7.614   0.919
10595TIP3   OH231725   2.822   1.959   2.309
10595TIP3    H131726   2.733   1.983   2.284
10595TIP3    H231727   2.876   1.990   2.236
10596TIP3   OH231728   2.306   5.086   2.228
10596TIP3    H131729   2.285   5.168   2.272
10596TIP3    H231730   2.402   5.084   2.225
10597TIP3   OH231731   6.731   7.599   6.465
10597TIP3    H131732   6.805   7.613   6.524
10597TIP3    H231733   6.666   7.664   6.493
10598TIP3   OH231734   4.436   0.489   2.662
10598TIP3    H131735   4.452   0.531   2.577
10598TIP3    H231736   4.347   0.455   2.655
10599TIP3   OH231737   0.128   3.428   0.730
10599TIP3    H131738   0.082   3.386   0.657
10599TIP3    H231739   0.077   3.507   0.747
10600TIP3   OH231740   2.162   6.194   0.481
10600TIP3    H131741   2.107   6.138   0.536
10600TIP3    H231742   2.105   6.265   0.454
10601TIP3   OH231743   4.286   2.320   3.547
10601TIP3    H131744   4.340   2.394   3.574
10601TIP3    H231745   4.211   2.360   3.502
10602TIP3   OH231746   2.195   0.535   5.824
10602TIP3    H131747   2.212   0.537   5.730
10602TIP3    H231748   2.129   0.467   5.835
10603TIP3   OH231749   1.265   2.490   2.776
10603TIP3    H131750   1.311   2.495   2.860
10603TIP3    H231751   1.323   2.437   2.720
10604TIP3   OH231752   3.194   2.782   0.722
10604TIP3    H131753   3.202   2.691   0.695
10604TIP3    H231754   3.276   2.823   0.694
10605TIP3   OH231755   3.340   6.131   5.711
10605TIP3    H131756   3.356   6.037   5.698
10605TIP3    H231757   3.270   6.134   5.776
10606TIP3   OH231758   1.219   1.667   0.527
10606TIP3    H131759   1.204   1.730   0.597
10606TIP3    H231760   1.289   1.610   0.559
10607TIP3   OH231761   7.971   4.251   5.885
10607TIP3    H131762   7.978   4.280   5.976
10607TIP3    H231763   7.945   4.159   5.890
10608TIP3   OH231764   6.431   0.619   6.719
10608TIP3    H131765   6.402   0.614   6.810
10608TIP3    H231766   6.383   0.548   6.675
10609TIP3   OH231767   2.051   6.347   3.451
10609TIP3    H131768   2.019   6.414   3.392
10609TIP3    H231769   2.085   6.278   3.394
10610TIP3   OH231770   3.922   1.887   3.839
10610TIP3    H131771   3.975   1.959   3.874
10610TIP3    H231772   3.983   1.834   3.788
10611TIP3   OH231773   7.075   2.114   6.192
10611TIP3    H131774   6.996   2.122   6.138
10611TIP3    H231775   7.141   2.080   6.132
10612TIP3   OH231776   0.992   5.925   3.580
10612TIP3    H131777   0.912   5.948   3.533
10612TIP3    H231778   0.982   5.966   3.666
10613TIP3   OH231779   1.620   0.957   6.403
10613TIP3    H131780   1.626   0.927   6.312
10613TIP3    H231781   1.534   0.926   6.432
10614TIP3   OH231782   3.843   0.025   4.592
10614TIP3    H131783   3.775   0.078   4.635
10614TIP3    H231784   3.903   0.002   4.662
10615TIP3   OH231785   2.415   2.715   2.332
10615TIP3    H131786   2.436   2.774   2.404
10615TIP3    H231787   2.408   2.773   2.256
10616TIP3   OH231788   8.153   2.077   3.985
10616TIP3    H131789   8.191   2.050   4.068
10616TIP3    H231790   8.223   2.060   3.921
10617TIP3   OH231791   8.353   1.693   6.788
10617TIP3    H131792   8.312   1.626   6.843
10617TIP3    H231793   8.342   1.774   6.837
10618TIP3   OH231794   3.164   2.391   2.930
10618TIP3    H131795   3.160   2.361   2.839
10618TIP3    H231796   3.074   2.388   2.961
10619TIP3   OH231797   4.943   0.129   1.700
10619TIP3    H131798   4.958   0.044   1.659
10619TIP3    H231799   5.023   0.179   1.681
10620TIP3   OH231800   4.477   4.070   3.657
10620TIP3    H131801   4.470   4.039   3.566
10620TIP3    H231802   4.469   3.990   3.710
10621TIP3   OH231803   0.633   4.098   5.551
10621TIP3    H131804   0.641   4.003   5.536
10621TIP3    H231805   0.539   4.112   5.560
10622TIP3   OH231806   1.803   0.761   5.429
10622TIP3    H131807   1.726   0.759   5.485
10622TIP3    H231808   1.771   0.795   5.345
10623TIP3   OH231809   5.761   1.692   1.158
10623TIP3    H131810   5.708   1.707   1.080
10623TIP3    H231811   5.852   1.701   1.128
10624TIP3   OH231812   1.569   1.965   5.714
10624TIP3    H131813   1.554   2.057   5.692
10624TIP3    H231814   1.640   1.938   5.656
10625TIP3   OH231815   3.800   3.738   1.454
10625TIP3    H131816   3.836   3.823   1.428
10625TIP3    H231817   3.812   3.682   1.377
10626TIP3   OH231818   1.422   1.543   0.706
10626TIP3    H131819   1.500   1.490   0.718
10626TIP3    H231820   1.352   1.494   0.749
10627TIP3   OH231821   7.347   4.718   2.937
10627TIP3    H131822   7.252   4.719   2.931
10627TIP3    H231823   7.367   4.654   3.005
10628TIP3   OH231824   5.536   4.062   5.852
10628TIP3    H131825   5.628   4.063   5.826
10628TIP3    H231826   5.538   4.079   5.947
10629TIP3   OH231827   2.689   1.947   6.292
10629TIP3    H131828   2.619   1.882   6.303
10629TIP3    H231829   2.666   2.017   6.353
10630TIP3   OH231830   2.172   3.056   5.076
10630TIP3    H131831   2.082   3.074   5.104
10630TIP3    H231832   2.214   3.141   5.070
10631TIP3   OH231833   2.413   5.072   6.829
10631TIP3    H131834   2.458   5.044   6.749
10631TIP3    H231835   2.473   5.134   6.870
10632TIP3   OH231836   5.791   0.695   5.694
10632TIP3    H131837   5.875   0.661   5.724
10632TIP3    H231838   5.775   0.650   5.611
10633TIP3   OH231839   1.176   1.627   4.021
10633TIP3    H131840   1.225   1.704   4.045
10633TIP3    H231841   1.214   1.556   4.073
10634TIP3   OH231842   2.546   4.741   6.839
10634TIP3    H131843   2.585   4.657   6.814
10634TIP3    H231844   2.615   4.805   6.824
10635TIP3   OH231845   2.886   7.798   0.086
10635TIP3    H131846   2.905   7.889   0.110
10635TIP3    H231847   2.972   7.756   0.083
10636TIP3   OH231848   5.760   1.361   3.485
10636TIP3    H131849   5.817   1.294   3.447
10636TIP3    H231850   5.794   1.444   3.450
10637TIP3   OH231851   3.026   7.551   4.144
10637TIP3    H131852   2.984   7.627   4.104
10637TIP3    H231853   3.119   7.575   4.148
10638TIP3   OH231854   2.374   6.230   3.385
10638TIP3    H131855   2.344   6.321   3.373
10638TIP3    H231856   2.335   6.182   3.312
10639TIP3   OH231857   0.619   0.923   5.870
10639TIP3    H131858   0.580   1.007   5.892
10639TIP3    H231859   0.713   0.939   5.869
10640TIP3   OH231860   2.614   4.464   2.136
10640TIP3    H131861   2.588   4.461   2.044
10640TIP3    H231862   2.658   4.380   2.151
10641TIP3   OH231863   2.234   0.707   0.415
10641TIP3    H131864   2.241   0.707   0.510
10641TIP3    H231865   2.204   0.618   0.393
10642TIP3   OH231866   0.979   7.732   0.412
10642TIP3    H131867   0.894   7.688   0.421
10642TIP3    H231868   1.044   7.663   0.424
10643TIP3   OH231869   4.360   0.231   3.805
10643TIP3    H131870   4.268   0.208   3.823
10643TIP3    H231871   4.401   0.237   3.891
10644TIP3   OH231872   1.914   5.221   2.218
10644TIP3    H131873   1.982   5.273   2.261
10644TIP3    H231874   1.833   5.270   2.233
10645TIP3   OH231875   1.940   3.642   3.558
10645TIP3    H131876   1.937   3.666   3.465
10645TIP3    H231877   2.007   3.574   3.563
10646TIP3   OH231878   2.715   4.051   2.904
10646TIP3    H131879   2.719   3.970   2.854
10646TIP3    H231880   2.628   4.087   2.886
10647TIP3   OH231881   4.064   0.097   0.910
10647TIP3    H131882   4.118   0.034   0.861
10647TIP3    H231883   3.990   0.115   0.853
10648TIP3   OH231884   2.256   0.594   3.513
10648TIP3    H131885   2.336   0.646   3.507
10648TIP3    H231886   2.236   0.590   3.606
10649TIP3   OH231887   3.164   4.521   5.720
10649TIP3    H131888   3.237   4.466   5.749
10649TIP3    H231889   3.149   4.581   5.794
10650TIP3   OH231890   0.106   0.566   2.046
10650TIP3    H131891   0.136   0.511   2.118
10650TIP3    H231892   0.015   0.584   2.066
10651TIP3   OH231893   6.862   6.569   1.998
10651TIP3    H131894   6.805   6.560   1.922
10651TIP3    H231895   6.903   6.655   1.987
10652TIP3   OH231896   7.230   0.961   0.695
10652TIP3    H131897   7.236   1.057   0.703
10652TIP3    H231898   7.262   0.942   0.608
10653TIP3   OH231899   4.782   7.928   2.984
10653TIP3    H131900   4.697   7.943   2.943
10653TIP3    H231901   4.790   7.832   2.989
10654TIP3   OH231902   2.579   1.299   4.763
10654TIP3    H131903   2.647   1.317   4.828
10654TIP3    H231904   2.624   1.304   4.679
10655TIP3   OH231905   4.793   4.390   2.101
10655TIP3    H131906   4.699   4.374   2.110
10655TIP3    H231907   4.831   4.360   2.184
10656TIP3   OH231908   4.565   0.053   3.950
10656TIP3    H131909   4.606   0.020   3.870
10656TIP3    H231910   4.498  -0.011   3.972
10657TIP3   OH231911   5.811   0.575   1.797
10657TIP3    H131912   5.841   0.487   1.821
10657TIP3    H231913   5.890   0.630   1.802
10658TIP3   OH231914   5.948   2.836   6.723
10658TIP3    H131915   5.983   2.832   6.812
10658TIP3    H231916   6.003   2.776   6.673
10659TIP3   OH231917   6.721   3.796   2.467
10659TIP3    H131918   6.672   3.805   2.386
10659TIP3    H231919   6.737   3.702   2.474
10660TIP3   OH231920   4.268   0.455   0.223
10660TIP3    H131921   4.242   0.423   0.309
10660TIP3    H231922   4.345   0.403   0.200
10661TIP3   OH231923   0.759   1.367   6.206
10661TIP3    H131924   0.797   1.287   6.243
10661TIP3    H231925   0.690   1.336   6.148
10662TIP3   OH231926   5.140   6.465   6.239
10662TIP3    H131927   5.207   6.477   6.172
10662TIP3    H231928   5.066   6.426   6.192
10663TIP3   OH231929   7.882   4.244   4.285
10663TIP3    H131930   7.903   4.193   4.207
10663TIP3    H231931   7.925   4.198   4.357
10664TIP3   OH231932   1.535   3.227   5.358
10664TIP3    H131933   1.490   3.311   5.352
10664TIP3    H231934   1.627   3.249   5.372
10665TIP3   OH231935   2.046   5.950   6.779
10665TIP3    H131936   2.117   5.937   6.841
10665TIP3    H231937   2.007   6.034   6.805
10666TIP3   OH231938   7.701   2.675   2.491
10666TIP3    H131939   7.683   2.588   2.525
10666TIP3    H231940   7.783   2.665   2.441
10667TIP3   OH231941   1.465   4.446   5.524
10667TIP3    H131942   1.472   4.354   5.548
10667TIP3    H231943   1.370   4.463   5.522
10668TIP3   OH231944   7.002   2.533   0.886
10668TIP3    H131945   7.076   2.499   0.936
10668TIP3    H231946   6.991   2.470   0.815
10669TIP3   OH231947   0.169   3.261   0.004
10669TIP3    H131948   0.254   3.259  -0.040
10669TIP3    H231949   0.183   3.213   0.086
10670TIP3   OH231950   5.972   0.447   1.114
10670TIP3    H131951   5.930   0.410   1.037
10670TIP3    H231952   5.926   0.529   1.131
10671TIP3   OH231953   0.089   4.942   1.057
10671TIP3    H131954   0.039   4.895   0.990
10671TIP3    H231955   0.162   4.885   1.078
10672TIP3   OH231956   1.510   3.088   0.931
10672TIP3    H131957   1.479   3.049   0.850
10672TIP3    H231958   1.600   3.056   0.940
10673TIP3   OH231959   5.364   7.463   1.410
10673TIP3    H131960   5.358   7.449   1.315
10673TIP3    H231961   5.275   7.446   1.442
10674TIP3   OH231962   7.690   7.449   5.857
10674TIP3    H131963   7.756   7.517   5.871
10674TIP3    H231964   7.626   7.463   5.926
10675TIP3   OH231965   6.590   7.501   5.367
10675TIP3    H131966   6.644   7.557   5.423
10675TIP3    H231967   6.502   7.509   5.402
10676TIP3   OH231968   7.064   2.695   1.616
10676TIP3    H131969   7.097   2.784   1.612
10676TIP3    H231970   6.977   2.700   1.577
10677TIP3   OH231971   8.197   3.928   3.435
10677TIP3    H131972   8.272   3.925   3.377
10677TIP3    H231973   8.168   4.020   3.434
10678TIP3   OH231974   2.123   3.030   3.161
10678TIP3    H131975   2.043   2.981   3.183
10678TIP3    H231976   2.140   3.084   3.239
10679TIP3   OH231977   1.601   7.523   3.328
10679TIP3    H131978   1.582   7.537   3.235
10679TIP3    H231979   1.592   7.610   3.367
10680TIP3   OH231980   8.342   6.515   6.523
10680TIP3    H131981   8.288   6.595   6.521
10680TIP3    H231982   8.311   6.467   6.600
10681TIP3   OH231983   3.490   3.833   0.532
10681TIP3    H131984   3.547   3.831   0.455
10681TIP3    H231985   3.519   3.910   0.581
10682TIP3   OH231986   2.084   2.737   2.198
10682TIP3    H131987   2.013   2.787   2.238
10682TIP3    H231988   2.119   2.795   2.131
10683TIP3   OH231989   7.026   6.664   5.313
10683TIP3    H131990   6.966   6.637   5.243
10683TIP3    H231991   7.052   6.753   5.289
10684TIP3   OH231992   6.019   2.918   3.028
10684TIP3    H131993   5.998   2.942   3.118
10684TIP3    H231994   6.111   2.942   3.017
10685TIP3   OH231995   7.358   0.452   4.126
10685TIP3    H131996   7.405   0.369   4.139
10685TIP3    H231997   7.377   0.477   4.036
10686TIP3   OH231998   5.325   2.525   3.099
10686TIP3    H131999   5.306   2.514   3.192
10686TIP3    H232000   5.386   2.455   3.078
10687TIP3   OH232001   1.553   4.772   1.911
10687TIP3    H132002   1.572   4.855   1.953
10687TIP3    H232003   1.605   4.708   1.960
10688TIP3   OH232004   2.807   2.665   6.742
10688TIP3    H132005   2.901   2.656   6.727
10688TIP3    H232006   2.787   2.756   6.718
10689TIP3   OH232007   0.810   6.664   0.391
10689TIP3    H132008   0.902   6.650   0.367
10689TIP3    H232009   0.765   6.671   0.307
10690TIP3   OH232010   3.049   6.291   0.834
10690TIP3    H132011   3.100   6.306   0.913
10690TIP3    H232012   3.102   6.230   0.782
10691TIP3   OH232013   7.282   0.538   1.967
10691TIP3    H132014   7.234   0.614   2.000
10691TIP3    H232015   7.370   0.548   2.003
10692TIP3   OH232016   7.518   6.684   2.546
10692TIP3    H132017   7.432   6.644   2.534
10692TIP3    H232018   7.505   6.775   2.521
10693TIP3   OH232019   7.566   2.724   0.169
10693TIP3    H132020   7.532   2.734   0.259
10693TIP3    H232021   7.532   2.640   0.140
10694TIP3   OH232022   7.141   3.309   1.035
10694TIP3    H132023   7.189   3.240   0.989
10694TIP3    H232024   7.195   3.387   1.024
10695TIP3   OH232025   2.073   4.914   5.613
10695TIP3    H132026   2.015   4.989   5.627
10695TIP3    H232027   2.018   4.837   5.626
10696TIP3   OH232028   0.021   6.976   6.739
10696TIP3    H132029  -0.069   6.961   6.767
10696TIP3    H232030   0.061   6.889   6.739
10697TIP3   OH232031   1.014   1.114   4.590
10697TIP3    H132032   0.982   1.114   4.681
10697TIP3    H232033   1.100   1.156   4.595
10698TIP3   OH232034   1.878   6.170   5.895
10698TIP3    H132035   1.847   6.257   5.867
10698TIP3    H232036   1.832   6.109   5.838
10699TIP3   OH232037   1.034   5.420   0.152
10699TIP3    H132038   1.052   5.343   0.099
10699TIP3    H232039   1.029   5.387   0.242
10700TIP3   OH232040   0.510   5.504   1.087
10700TIP3    H132041   0.433   5.465   1.130
10700TIP3    H232042   0.513   5.594   1.122
10701TIP3   OH232043   1.236   4.558   3.713
10701TIP3    H132044   1.312   4.560   3.655
10701TIP3    H232045   1.161   4.551   3.654
10702TIP3   OH232046   1.852   1.835   2.451
10702TIP3    H132047   1.875   1.861   2.362
10702TIP3    H232048   1.778   1.891   2.474
10703TIP3   OH232049   5.783   7.309   4.092
10703TIP3    H132050   5.812   7.387   4.139
10703TIP3    H232051   5.766   7.244   4.160
10704TIP3   OH232052   0.179   2.806   2.572
10704TIP3    H132053   0.222   2.890   2.588
10704TIP3    H232054   0.089   2.818   2.605
10705TIP3   OH232055   4.029   7.316   4.959
10705TIP3    H132056   3.992   7.308   5.046
10705TIP3    H232057   3.967   7.372   4.912
10706TIP3   OH232058   1.262   4.069   0.014
10706TIP3    H132059   1.355   4.070   0.037
10706TIP3    H232060   1.252   3.994  -0.044
10707TIP3   OH232061   2.652   3.746   0.424
10707TIP3    H132062   2.724   3.798   0.459
10707TIP3    H232063   2.685   3.657   0.422
10708TIP3   OH232064   2.600   2.130   6.794
10708TIP3    H132065   2.637   2.217   6.809
10708TIP3    H232066   2.520   2.127   6.846
10709TIP3   OH232067   4.508   7.690   0.342
10709TIP3    H132068   4.508   7.740   0.260
10709TIP3    H232069   4.419   7.655   0.349
10710TIP3   OH232070   1.181   5.895   2.130
10710TIP3    H132071   1.187   5.856   2.042
10710TIP3    H232072   1.110   5.959   2.122
10711TIP3   OH232073   8.266   1.026   5.939
10711TIP3    H132074   8.242   1.116   5.961
10711TIP3    H232075   8.205   1.001   5.870
10712TIP3   OH232076   2.255   3.803   5.976
10712TIP3    H132077   2.330   3.749   6.002
10712TIP3    H232078   2.258   3.878   6.035
10713TIP3   OH232079   1.757   0.062   4.506
10713TIP3    H132080   1.748   0.119   4.430
10713TIP3    H232081   1.669   0.028   4.522
10714TIP3   OH232082   3.934   1.598   4.066
10714TIP3    H132083   3.972   1.677   4.103
10714TIP3    H232084   3.915   1.542   4.141
10715TIP3   OH232085   0.502   5.537   1.412
10715TIP3    H132086   0.545   5.551   1.496
10715TIP3    H232087   0.544   5.458   1.377
10716TIP3   OH232088   5.874   4.464   3.855
10716TIP3    H132089   5.798   4.476   3.912
10716TIP3    H232090   5.903   4.375   3.872
10717TIP3   OH232091   1.939   0.075   4.690
10717TIP3    H132092   1.968   0.166   4.680
10717TIP3    H232093   1.877   0.062   4.618
10718TIP3   OH232094   4.166   5.723   4.399
10718TIP3    H132095   4.140   5.685   4.315
10718TIP3    H232096   4.184   5.815   4.379
10719TIP3   OH232097   1.149   1.629   2.264
10719TIP3    H132098   1.066   1.596   2.227
10719TIP3    H232099   1.127   1.655   2.353
10720TIP3   OH232100   4.783   0.800   4.882
10720TIP3    H132101   4.843   0.862   4.841
10720TIP3    H232102   4.840   0.741   4.933
10721TIP3   OH232103   7.590   6.761   1.692
10721TIP3    H132104   7.584   6.738   1.784
10721TIP3    H232105   7.655   6.832   1.689
10722TIP3   OH232106   4.380   7.519   4.675
10722TIP3    H132107   4.303   7.573   4.654
10722TIP3    H232108   4.360   7.433   4.639
10723TIP3   OH232109   5.820   4.554   4.656
10723TIP3    H132110   5.906   4.533   4.693
10723TIP3    H232111   5.805   4.645   4.683
10724TIP3   OH232112   6.353   6.406   4.756
10724TIP3    H132113   6.308   6.485   4.728
10724TIP3    H232114   6.296   6.367   4.822
10725TIP3   OH232115   3.925   5.984   3.438
10725TIP3    H132116   4.011   5.946   3.457
10725TIP3    H232117   3.864   5.910   3.445
10726TIP3   OH232118   5.509   5.740   3.336
10726TIP3    H132119   5.525   5.709   3.425
10726TIP3    H232120   5.420   5.710   3.315
10727TIP3   OH232121   8.151   7.390   1.207
10727TIP3    H132122   8.174   7.470   1.254
10727TIP3    H232123   8.099   7.339   1.269
10728TIP3   OH232124   5.315   4.060   2.158
10728TIP3    H132125   5.280   4.034   2.073
10728TIP3    H232126   5.238   4.080   2.211
10729TIP3   OH232127   0.427   5.449   3.984
10729TIP3    H132128   0.402   5.495   4.063
10729TIP3    H232129   0.429   5.516   3.916
10730TIP3   OH232130   5.328   1.056   0.842
10730TIP3    H132131   5.305   0.972   0.804
10730TIP3    H232132   5.298   1.121   0.778
10731TIP3   OH232133   2.714   2.242   5.256
10731TIP3    H132134   2.671   2.323   5.227
10731TIP3    H232135   2.795   2.272   5.297
10732TIP3   OH232136   5.604   1.966   3.726
10732TIP3    H132137   5.558   1.991   3.806
10732TIP3    H232138   5.540   1.979   3.656
10733TIP3   OH232139   4.681   6.113   2.303
10733TIP3    H132140   4.755   6.136   2.246
10733TIP3    H232141   4.604   6.146   2.256
10734TIP3   OH232142   2.821   3.906   2.680
10734TIP3    H132143   2.916   3.917   2.687
10734TIP3    H232144   2.799   3.941   2.594
10735TIP3   OH232145   3.601   1.247   1.629
10735TIP3    H132146   3.506   1.241   1.620
10735TIP3    H232147   3.617   1.339   1.649
10736TIP3   OH232148   1.002   0.863   6.206
10736TIP3    H132149   1.033   0.951   6.223
10736TIP3    H232150   1.015   0.816   6.288
10737TIP3   OH232151   4.960   0.900   6.016
10737TIP3    H132152   4.964   0.987   5.977
10737TIP3    H232153   5.050   0.880   6.039
10738TIP3   OH232154   1.457   6.810   4.161
10738TIP3    H132155   1.517   6.738   4.142
10738TIP3    H232156   1.504   6.889   4.137
10739TIP3   OH232157   3.922   1.769   1.729
10739TIP3    H132158   3.887   1.856   1.713
10739TIP3    H232159   4.002   1.766   1.677
10740TIP3   OH232160   5.204   5.569   5.192
10740TIP3    H132161   5.145   5.499   5.164
10740TIP3    H232162   5.230   5.544   5.281
10741TIP3   OH232163   0.377   3.469   5.516
10741TIP3    H132164   0.306   3.405   5.514
10741TIP3    H232165   0.384   3.494   5.609
10742TIP3   OH232166   3.468   7.758   3.301
10742TIP3    H132167   3.491   7.834   3.353
10742TIP3    H232168   3.422   7.794   3.225
10743TIP3   OH232169   4.355   1.665   2.895
10743TIP3    H132170   4.421   1.616   2.945
10743TIP3    H232171   4.295   1.599   2.862
10744TIP3   OH232172   3.977   1.587   2.751
10744TIP3    H132173   4.012   1.534   2.679
10744TIP3    H232174   4.008   1.544   2.830
10745TIP3   OH232175   1.907   4.417   4.391
10745TIP3    H132176   1.944   4.367   4.319
10745TIP3    H232177   1.886   4.351   4.457
10746TIP3   OH232178   1.833   4.744   1.732
10746TIP3    H132179   1.822   4.804   1.805
10746TIP3    H232180   1.771   4.673   1.749
10747TIP3   OH232181   6.269   3.059   2.475
10747TIP3    H132182   6.350   3.017   2.448
10747TIP3    H232183   6.219   3.068   2.394
10748TIP3   OH232184   2.705   6.135   2.398
10748TIP3    H132185   2.775   6.175   2.348
10748TIP3    H232186   2.725   6.157   2.489
10749TIP3   OH232187   2.692   6.470   4.692
10749TIP3    H132188   2.729   6.558   4.682
10749TIP3    H232189   2.695   6.432   4.605
10750TIP3   OH232190   6.837   7.190   0.201
10750TIP3    H132191   6.756   7.148   0.229
10750TIP3    H232192   6.868   7.236   0.279
10751TIP3   OH232193   0.017   1.018   3.942
10751TIP3    H132194  -0.046   0.966   3.892
10751TIP3    H232195   0.042   1.089   3.883
10752TIP3   OH232196   2.178   6.681   6.450
10752TIP3    H132197   2.164   6.590   6.422
10752TIP3    H232198   2.265   6.681   6.489
10753TIP3   OH232199   5.362   2.417   2.605
10753TIP3    H132200   5.298   2.488   2.598
10753TIP3    H232201   5.371   2.384   2.515
10754TIP3   OH232202   1.003   3.303   3.831
10754TIP3    H132203   1.089   3.336   3.805
10754TIP3    H232204   0.969   3.260   3.753
10755TIP3   OH232205   6.223   1.042   6.818
10755TIP3    H132206   6.265   1.027   6.903
10755TIP3    H232207   6.292   1.033   6.754
10756TIP3   OH232208   1.464   5.162   1.077
10756TIP3    H132209   1.376   5.194   1.057
10756TIP3    H232210   1.490   5.211   1.156
10757TIP3   OH232211   5.043   1.508   3.257
10757TIP3    H132212   5.115   1.458   3.219
10757TIP3    H232213   5.080   1.594   3.277
10758TIP3   OH232214   0.405   0.253   0.681
10758TIP3    H132215   0.329   0.261   0.624
10758TIP3    H232216   0.379   0.188   0.747
10759TIP3   OH232217   6.959   2.816   3.423
10759TIP3    H132218   7.004   2.890   3.464
10759TIP3    H232219   6.995   2.813   3.334
10760TIP3   OH232220   7.752   4.137   6.118
10760TIP3    H132221   7.724   4.055   6.160
10760TIP3    H232222   7.787   4.190   6.189
10761TIP3   OH232223   4.663   3.128   4.845
10761TIP3    H132224   4.757   3.113   4.838
10761TIP3    H232225   4.626   3.040   4.857
10762TIP3   OH232226   5.127   2.225   1.859
10762TIP3    H132227   5.036   2.231   1.888
10762TIP3    H232228   5.172   2.292   1.909
10763TIP3   OH232229   2.394   0.900   6.205
10763TIP3    H132230   2.397   0.862   6.118
10763TIP3    H232231   2.467   0.859   6.252
10764TIP3   OH232232   7.708   2.916   1.788
10764TIP3    H132233   7.660   2.986   1.744
10764TIP3    H232234   7.799   2.946   1.790
10765TIP3   OH232235   3.297   2.040   4.388
10765TIP3    H132236   3.204   2.064   4.392
10765TIP3    H232237   3.341   2.121   4.361
10766TIP3   OH232238   2.301   3.443   2.445
10766TIP3    H132239   2.343   3.413   2.525
10766TIP3    H232240   2.372   3.480   2.393
10767TIP3   OH232241   2.412   3.756   2.299
10767TIP3    H132242   2.469   3.820   2.342
10767TIP3    H232243   2.462   3.675   2.299
10768TIP3   OH232244   7.715   7.085   6.048
10768TIP3    H132245   7.774   7.140   5.996
10768TIP3    H232246   7.654   7.147   6.088
10769TIP3   OH232247   2.878   5.456   5.043
10769TIP3    H132248   2.797   5.410   5.020
10769TIP3    H232249   2.911   5.489   4.960
10770TIP3   OH232250   5.831   0.735   6.692
10770TIP3    H132251   5.869   0.788   6.762
10770TIP3    H232252   5.906   0.695   6.648
10771TIP3   OH232253   7.788   6.819   3.943
10771TIP3    H132254   7.737   6.898   3.961
10771TIP3    H232255   7.756   6.789   3.859
10772TIP3   OH232256   0.810   6.750   2.872
10772TIP3    H132257   0.826   6.825   2.815
10772TIP3    H232258   0.833   6.782   2.959
10773TIP3   OH232259   4.154   2.073   3.810
10773TIP3    H132260   4.193   2.129   3.743
10773TIP3    H232261   4.225   2.012   3.834
10774TIP3   OH232262   4.762   4.046   2.178
10774TIP3    H132263   4.719   4.071   2.096
10774TIP3    H232264   4.854   4.070   2.165
10775TIP3   OH232265   5.824   2.280   3.634
10775TIP3    H132266   5.866   2.321   3.558
10775TIP3    H232267   5.822   2.187   3.612
10776TIP3   OH232268   1.551   4.371   4.507
10776TIP3    H132269   1.508   4.413   4.432
10776TIP3    H232270   1.569   4.282   4.478
10777TIP3   OH232271   3.067   1.685   5.639
10777TIP3    H132272   3.077   1.617   5.705
10777TIP3    H232273   3.125   1.756   5.670
10778TIP3   OH232274   6.204   7.363   4.522
10778TIP3    H132275   6.205   7.269   4.504
10778TIP3    H232276   6.296   7.386   4.532
10779TIP3   OH232277   1.939   0.866   3.193
10779TIP3    H132278   1.852   0.900   3.217
10779TIP3    H232279   1.972   0.828   3.274
10780TIP3   OH232280   3.400   3.183   1.430
10780TIP3    H132281   3.422   3.146   1.515
10780TIP3    H232282   3.334   3.124   1.394
10781TIP3   OH232283   5.378   5.734   3.025
10781TIP3    H132284   5.375   5.778   2.940
10781TIP3    H232285   5.435   5.790   3.078
10782TIP3   OH232286   2.357   5.355   3.154
10782TIP3    H132287   2.428   5.312   3.107
10782TIP3    H232288   2.296   5.285   3.175
10783TIP3   OH232289   7.845   0.326   3.113
10783TIP3    H132290   7.935   0.359   3.114
10783TIP3    H232291   7.796   0.393   3.064
10784TIP3   OH232292   0.537   7.705   4.716
10784TIP3    H132293   0.476   7.765   4.760
10784TIP3    H232294   0.610   7.761   4.690
10785TIP3   OH232295   6.976   1.186   1.336
10785TIP3    H132296   6.920   1.131   1.391
10785TIP3    H232297   7.015   1.125   1.273
10786TIP3   OH232298   0.167   6.458   0.420
10786TIP3    H132299   0.099   6.526   0.414
10786TIP3    H232300   0.224   6.475   0.344
10787TIP3   OH232301   6.779   7.219   5.258
10787TIP3    H132302   6.727   7.283   5.209
10787TIP3    H232303   6.836   7.179   5.192
10788TIP3   OH232304   7.791   5.946   3.026
10788TIP3    H132305   7.736   5.987   3.093
10788TIP3    H232306   7.759   5.856   3.021
10789TIP3   OH232307   7.482   7.615   6.375
10789TIP3    H132308   7.428   7.679   6.329
10789TIP3    H232309   7.564   7.662   6.393
10790TIP3   OH232310   7.158   1.640   1.726
10790TIP3    H132311   7.152   1.736   1.722
10790TIP3    H232312   7.197   1.622   1.812
10791TIP3   OH232313   1.434   7.123   4.367
10791TIP3    H132314   1.416   7.194   4.428
10791TIP3    H232315   1.441   7.045   4.422
10792TIP3   OH232316   3.742   4.374   1.100
10792TIP3    H132317   3.723   4.280   1.105
10792TIP3    H232318   3.801   4.382   1.025
10793TIP3   OH232319   4.355   0.946   3.299
10793TIP3    H132320   4.387   0.996   3.374
10793TIP3    H232321   4.376   0.855   3.321
10794TIP3   OH232322   4.194   3.897   3.912
10794TIP3    H132323   4.278   3.855   3.893
10794TIP3    H232324   4.218   3.987   3.935
10795TIP3   OH232325   6.754   2.490   2.530
10795TIP3    H132326   6.717   2.576   2.508
10795TIP3    H232327   6.724   2.474   2.620
10796TIP3   OH232328   5.878   3.744   1.031
10796TIP3    H132329   5.838   3.680   1.089
10796TIP3    H232330   5.830   3.735   0.949
10797TIP3   OH232331   0.750   2.915   0.668
10797TIP3    H132332   0.780   2.988   0.614
10797TIP3    H232333   0.687   2.955   0.729
10798TIP3   OH232334   0.110   6.896   2.452
10798TIP3    H132335   0.147   6.896   2.540
10798TIP3    H232336   0.147   6.818   2.410
10799TIP3   OH232337   3.344   4.030   5.880
10799TIP3    H132338   3.251   4.029   5.899
10799TIP3    H232339   3.377   3.949   5.919
10800TIP3   OH232340   3.443   0.904   0.098
10800TIP3    H132341   3.349   0.890   0.085
10800TIP3    H232342   3.453   0.999   0.102
10801TIP3   OH232343   1.980   3.262   3.080
10801TIP3    H132344   1.934   3.224   3.155
10801TIP3    H232345   2.069   3.229   3.088
10802TIP3   OH232346   3.333   2.872   6.743
10802TIP3    H132347   3.272   2.834   6.806
10802TIP3    H232348   3.362   2.954   6.783
10803TIP3   OH232349   4.761   4.295   4.549
10803TIP3    H132350   4.804   4.277   4.633
10803TIP3    H232351   4.680   4.245   4.553
10804TIP3   OH232352   2.923   6.154   5.556
10804TIP3    H132353   2.891   6.155   5.646
10804TIP3    H232354   2.926   6.061   5.533
10805TIP3   OH232355   1.189   0.585   2.506
10805TIP3    H132356   1.219   0.506   2.550
10805TIP3    H232357   1.268   0.626   2.471
10806TIP3   OH232358   4.711   0.897   4.228
10806TIP3    H132359   4.666   0.981   4.238
10806TIP3    H232360   4.801   0.920   4.206
10807TIP3   OH232361   5.313   1.457   5.092
10807TIP3    H132362   5.297   1.521   5.162
10807TIP3    H232363   5.378   1.498   5.036
10808TIP3   OH232364   6.193   1.208   0.897
10808TIP3    H132365   6.274   1.157   0.905
10808TIP3    H232366   6.123   1.143   0.899
10809TIP3   OH232367   3.324   7.448   3.034
10809TIP3    H132368   3.338   7.395   2.956
10809TIP3    H232369   3.301   7.385   3.102
10810TIP3   OH232370   1.813   4.319   3.713
10810TIP3    H132371   1.824   4.370   3.793
10810TIP3    H232372   1.822   4.383   3.642
10811TIP3   OH232373   7.777   2.702   1.954
10811TIP3    H132374   7.730   2.773   1.910
10811TIP3    H232375   7.717   2.627   1.950
10812TIP3   OH232376   5.476   6.187   3.292
10812TIP3    H132377   5.479   6.104   3.244
10812TIP3    H232378   5.391   6.225   3.269
10813TIP3   OH232379   1.579   6.164   6.771
10813TIP3    H132380   1.486   6.138   6.766
10813TIP3    H232381   1.596   6.207   6.687
10814TIP3   OH232382   2.407   7.242   5.232
10814TIP3    H132383   2.409   7.146   5.241
10814TIP3    H232384   2.402   7.257   5.138
10815TIP3   OH232385   6.124   7.512   3.007
10815TIP3    H132386   6.092   7.510   3.097
10815TIP3    H232387   6.154   7.602   2.994
10816TIP3   OH232388   5.177   5.436   1.034
10816TIP3    H132389   5.191   5.524   1.069
10816TIP3    H232390   5.082   5.425   1.034
10817TIP3   OH232391   3.499   5.188   4.556
10817TIP3    H132392   3.463   5.101   4.538
10817TIP3    H232393   3.475   5.205   4.647
10818TIP3   OH232394   5.088   2.879   6.104
10818TIP3    H132395   5.068   2.806   6.046
10818TIP3    H232396   5.083   2.842   6.193
10819TIP3   OH232397   7.267   5.694   1.122
10819TIP3    H132398   7.266   5.784   1.154
10819TIP3    H232399   7.192   5.687   1.064
10820TIP3   OH232400   5.135   5.285   6.429
10820TIP3    H132401   5.135   5.298   6.334
10820TIP3    H232402   5.074   5.213   6.443
10821TIP3   OH232403   1.696   7.626   5.070
10821TIP3    H132404   1.783   7.587   5.078
10821TIP3    H232405   1.638   7.566   5.116
10822TIP3   OH232406   1.539   6.215   2.082
10822TIP3    H132407   1.621   6.182   2.118
10822TIP3    H232408   1.471   6.158   2.119
10823TIP3   OH232409   6.680   4.844   1.230
10823TIP3    H132410   6.714   4.883   1.150
10823TIP3    H232411   6.586   4.833   1.213
10824TIP3   OH232412   1.562   3.303   6.204
10824TIP3    H132413   1.552   3.397   6.191
10824TIP3    H232414   1.593   3.295   6.295
10825TIP3   OH232415   6.338   0.094   2.075
10825TIP3    H132416   6.365   0.070   1.986
10825TIP3    H232417   6.418   0.090   2.127
10826TIP3   OH232418   6.985   5.654   2.672
10826TIP3    H132419   6.893   5.635   2.658
10826TIP3    H232420   7.021   5.666   2.583
10827TIP3   OH232421   5.824   6.579   5.771
10827TIP3    H132422   5.841   6.673   5.766
10827TIP3    H232423   5.900   6.543   5.817
10828TIP3   OH232424   5.457   6.509   5.534
10828TIP3    H132425   5.530   6.458   5.569
10828TIP3    H232426   5.389   6.504   5.601
10829TIP3   OH232427   3.346   1.915   3.712
10829TIP3    H132428   3.268   1.916   3.657
10829TIP3    H232429   3.395   1.992   3.685
10830TIP3   OH232430   1.869   2.741   5.772
10830TIP3    H132431   1.806   2.783   5.830
10830TIP3    H232432   1.819   2.672   5.728
10831TIP3   OH232433   1.822   7.109   0.192
10831TIP3    H132434   1.860   7.130   0.278
10831TIP3    H232435   1.728   7.124   0.203
10832TIP3   OH232436   7.032   2.194   5.127
10832TIP3    H132437   6.975   2.143   5.069
10832TIP3    H232438   7.012   2.285   5.106
10833TIP3   OH232439   5.440   3.456   1.533
10833TIP3    H132440   5.513   3.395   1.543
10833TIP3    H232441   5.467   3.533   1.583
10834TIP3   OH232442   4.271   7.689   2.236
10834TIP3    H132443   4.307   7.752   2.299
10834TIP3    H232444   4.216   7.741   2.178
10835TIP3   OH232445   2.540   6.993   5.598
10835TIP3    H132446   2.518   7.030   5.513
10835TIP3    H232447   2.633   6.972   5.591
10836TIP3   OH232448   3.879   5.953   3.743
10836TIP3    H132449   3.871   6.047   3.724
10836TIP3    H232450   3.794   5.917   3.719
10837TIP3   OH232451   0.162   0.152   5.956
10837TIP3    H132452   0.188   0.110   5.874
10837TIP3    H232453   0.133   0.240   5.929
10838TIP3   OH232454   8.259   6.657   2.377
10838TIP3    H132455   8.223   6.745   2.390
10838TIP3    H232456   8.282   6.654   2.284
10839TIP3   OH232457   0.956   6.229   1.401
10839TIP3    H132458   0.994   6.158   1.452
10839TIP3    H232459   0.886   6.264   1.457
10840TIP3   OH232460   2.067   2.449   4.861
10840TIP3    H132461   2.149   2.476   4.819
10840TIP3    H232462   2.052   2.516   4.928
10841TIP3   OH232463   4.917   1.188   3.873
10841TIP3    H132464   4.845   1.201   3.935
10841TIP3    H232465   4.985   1.144   3.923
10842TIP3   OH232466   4.961   0.318   4.160
10842TIP3    H132467   4.917   0.235   4.178
10842TIP3    H232468   4.904   0.362   4.097
10843TIP3   OH232469   6.020   3.283   3.103
10843TIP3    H132470   5.925   3.273   3.110
10843TIP3    H232471   6.043   3.341   3.175
10844TIP3   OH232472   5.211   4.537   0.190
10844TIP3    H132473   5.179   4.447   0.186
10844TIP3    H232474   5.237   4.549   0.281
10845TIP3   OH232475   0.063   3.468   6.073
10845TIP3    H132476   0.098   3.424   5.996
10845TIP3    H232477  -0.032   3.469   6.059
10846TIP3   OH232478   6.818   2.062   5.333
10846TIP3    H132479   6.779   2.149   5.341
10846TIP3    H232480   6.882   2.058   5.404
10847TIP3   OH232481   5.321   4.251   6.309
10847TIP3    H132482   5.247   4.311   6.307
10847TIP3    H232483   5.300   4.188   6.377
10848TIP3   OH232484   3.141   5.703   3.178
10848TIP3    H132485   3.180   5.731   3.261
10848TIP3    H232486   3.174   5.766   3.114
10849TIP3   OH232487   4.792   0.115   3.210
10849TIP3    H132488   4.715   0.160   3.175
10849TIP3    H232489   4.775   0.108   3.304
10850TIP3   OH232490   1.895   2.157   3.093
10850TIP3    H132491   1.865   2.199   3.013
10850TIP3    H232492   1.815   2.131   3.139
10851TIP3   OH232493   6.492   5.911   0.645
10851TIP3    H132494   6.413   5.901   0.591
10851TIP3    H232495   6.523   5.822   0.659
10852TIP3   OH232496   5.612   1.909   2.947
10852TIP3    H132497   5.556   1.906   2.869
10852TIP3    H232498   5.626   1.817   2.969
10853TIP3   OH232499   0.553   5.168   6.615
10853TIP3    H132500   0.496   5.215   6.677
10853TIP3    H232501   0.564   5.229   6.543
10854TIP3   OH232502   5.367   2.304   6.011
10854TIP3    H132503   5.435   2.362   6.045
10854TIP3    H232504   5.382   2.220   6.055
10855TIP3   OH232505   2.826   6.066   4.356
10855TIP3    H132506   2.871   5.994   4.312
10855TIP3    H232507   2.823   6.136   4.291
10856TIP3   OH232508   2.005   6.418   3.839
10856TIP3    H132509   2.085   6.437   3.789
10856TIP3    H232510   1.942   6.387   3.774
10857TIP3   OH232511   3.310   7.587   5.736
10857TIP3    H132512   3.358   7.506   5.719
10857TIP3    H232513   3.364   7.656   5.698
10858TIP3   OH232514   0.423   1.313   2.756
10858TIP3    H132515   0.398   1.321   2.664
10858TIP3    H232516   0.358   1.253   2.793
10859TIP3   OH232517   1.793   5.977   4.949
10859TIP3    H132518   1.708   5.934   4.942
10859TIP3    H232519   1.772   6.070   4.957
10860TIP3   OH232520   7.349   2.359   6.347
10860TIP3    H132521   7.285   2.430   6.349
10860TIP3    H232522   7.298   2.281   6.367
10861TIP3   OH232523   2.501   5.985   4.128
10861TIP3    H132524   2.567   5.931   4.086
10861TIP3    H232525   2.448   6.019   4.056
10862TIP3   OH232526   1.380   0.866   6.535
10862TIP3    H132527   1.350   0.801   6.598
10862TIP3    H232528   1.302   0.888   6.484
10863TIP3   OH232529   4.828   2.079   2.197
10863TIP3    H132530   4.750   2.097   2.145
10863TIP3    H232531   4.794   2.047   2.281
10864TIP3   OH232532   5.474   4.555   6.804
10864TIP3    H132533   5.458   4.525   6.715
10864TIP3    H232534   5.497   4.475   6.852
10865TIP3   OH232535   0.844   1.015   5.341
10865TIP3    H132536   0.865   1.075   5.412
10865TIP3    H232537   0.849   1.068   5.261
10866TIP3   OH232538   2.204   6.407   4.192
10866TIP3    H132539   2.161   6.356   4.124
10866TIP3    H232540   2.217   6.345   4.264
10867TIP3   OH232541   6.810   6.124   2.902
10867TIP3    H132542   6.769   6.083   2.978
10867TIP3    H232543   6.778   6.214   2.903
10868TIP3   OH232544   2.141   0.313   4.070
10868TIP3    H132545   2.206   0.242   4.067
10868TIP3    H232546   2.076   0.282   4.132
10869TIP3   OH232547   0.468   7.327   2.967
10869TIP3    H132548   0.379   7.360   2.960
10869TIP3    H232549   0.514   7.368   2.894
10870TIP3   OH232550   0.266   1.498   1.614
10870TIP3    H132551   0.336   1.514   1.678
10870TIP3    H232552   0.229   1.413   1.640
10871TIP3   OH232553   6.808   0.600   3.219
10871TIP3    H132554   6.835   0.601   3.310
10871TIP3    H232555   6.889   0.596   3.169
10872TIP3   OH232556   2.551   3.873   5.262
10872TIP3    H132557   2.523   3.903   5.348
10872TIP3    H232558   2.485   3.908   5.202
10873TIP3   OH232559   3.910   2.045   6.566
10873TIP3    H132560   3.988   2.080   6.608
10873TIP3    H232561   3.921   2.067   6.473
10874TIP3   OH232562   1.080   6.640   0.326
10874TIP3    H132563   1.142   6.574   0.357
10874TIP3    H232564   1.099   6.648   0.232
10875TIP3   OH232565   7.015   1.573   4.250
10875TIP3    H132566   7.089   1.513   4.241
10875TIP3    H232567   6.944   1.518   4.282
10876TIP3   OH232568   8.147   7.566   4.529
10876TIP3    H132569   8.131   7.599   4.617
10876TIP3    H232570   8.085   7.494   4.519
10877TIP3   OH232571   2.549   1.221   3.555
10877TIP3    H132572   2.465   1.246   3.596
10877TIP3    H232573   2.559   1.128   3.576
10878TIP3   OH232574   0.006   2.948   6.595
10878TIP3    H132575   0.050   3.030   6.573
10878TIP3    H232576   0.055   2.881   6.548
10879TIP3   OH232577   1.988   4.589   6.666
10879TIP3    H132578   1.904   4.588   6.710
10879TIP3    H232579   2.052   4.581   6.736
10880TIP3   OH232580   7.917   0.189   1.530
10880TIP3    H132581   7.950   0.230   1.450
10880TIP3    H232582   7.915   0.096   1.509
10881TIP3   OH232583   5.967   6.261   4.521
10881TIP3    H132584   6.024   6.337   4.512
10881TIP3    H232585   5.992   6.203   4.449
10882TIP3   OH232586   2.604   4.768   0.338
10882TIP3    H132587   2.564   4.688   0.372
10882TIP3    H232588   2.679   4.783   0.395
10883TIP3   OH232589   5.857   2.904   6.190
10883TIP3    H132590   5.824   2.992   6.171
10883TIP3    H232591   5.948   2.919   6.218
10884TIP3   OH232592   0.204   4.833   2.703
10884TIP3    H132593   0.117   4.810   2.670
10884TIP3    H232594   0.223   4.918   2.665
10885TIP3   OH232595   1.274   3.420   1.794
10885TIP3    H132596   1.259   3.331   1.762
10885TIP3    H232597   1.343   3.411   1.860
10886TIP3   OH232598   1.901   6.239   0.427
10886TIP3    H132599   1.811   6.257   0.400
10886TIP3    H232600   1.909   6.143   0.421
10887TIP3   OH232601   3.512   1.233   6.726
10887TIP3    H132602   3.484   1.273   6.809
10887TIP3    H232603   3.501   1.302   6.661
10888TIP3   OH232604   7.320   1.157   5.256
10888TIP3    H132605   7.301   1.248   5.278
10888TIP3    H232606   7.338   1.116   5.341
10889TIP3   OH232607   8.031   3.130   3.600
10889TIP3    H132608   8.018   3.225   3.597
10889TIP3    H232609   7.953   3.094   3.557
10890TIP3   OH232610   5.194   2.036   2.894
10890TIP3    H132611   5.114   2.036   2.948
10890TIP3    H232612   5.224   2.126   2.896
10891TIP3   OH232613   4.234   0.150   4.244
10891TIP3    H132614   4.198   0.235   4.220
10891TIP3    H232615   4.167   0.110   4.300
10892TIP3   OH232616   5.129   1.415   1.093
10892TIP3    H132617   5.179   1.474   1.149
10892TIP3    H232618   5.054   1.466   1.064
10893TIP3   OH232619   5.753   7.324   0.015
10893TIP3    H132620   5.746   7.275   0.097
10893TIP3    H232621   5.841   7.361   0.016
10894TIP3   OH232622   2.698   6.333   6.301
10894TIP3    H132623   2.727   6.420   6.329
10894TIP3    H232624   2.779   6.285   6.285
10895TIP3   OH232625   7.120   2.909   6.727
10895TIP3    H132626   7.183   2.901   6.655
10895TIP3    H232627   7.143   2.838   6.787
10896TIP3   OH232628   3.633   7.128   5.865
10896TIP3    H132629   3.614   7.165   5.779
10896TIP3    H232630   3.671   7.201   5.914
10897TIP3   OH232631   7.555   4.904   0.097
10897TIP3    H132632   7.463   4.899   0.072
10897TIP3    H232633   7.562   4.850   0.175
10898TIP3   OH232634   6.370   5.274   6.534
10898TIP3    H132635   6.300   5.242   6.591
10898TIP3    H232636   6.406   5.195   6.492
10899TIP3   OH232637   2.644   7.613   2.486
10899TIP3    H132638   2.714   7.624   2.421
10899TIP3    H232639   2.565   7.596   2.434
10900TIP3   OH232640   3.618   4.957   5.401
10900TIP3    H132641   3.608   4.908   5.320
10900TIP3    H232642   3.530   4.986   5.424
10901TIP3   OH232643   1.422   5.720   4.442
10901TIP3    H132644   1.461   5.633   4.455
10901TIP3    H232645   1.422   5.760   4.529
10902TIP3   OH232646   1.658   7.423   5.556
10902TIP3    H132647   1.582   7.469   5.521
10902TIP3    H232648   1.699   7.485   5.616
10903TIP3   OH232649   5.176   1.749   0.988
10903TIP3    H132650   5.237   1.718   0.921
10903TIP3    H232651   5.201   1.702   1.068
10904TIP3   OH232652   2.684   5.553   0.944
10904TIP3    H132653   2.600   5.574   0.985
10904TIP3    H232654   2.725   5.638   0.928
10905TIP3   OH232655   4.241   5.608   0.661
10905TIP3    H132656   4.270   5.633   0.574
10905TIP3    H232657   4.201   5.522   0.649
10906TIP3   OH232658   4.685   4.103   2.464
10906TIP3    H132659   4.727   4.113   2.379
10906TIP3    H232660   4.727   4.026   2.502
10907TIP3   OH232661   6.737   6.224   6.811
10907TIP3    H132662   6.771   6.242   6.723
10907TIP3    H232663   6.661   6.282   6.819
10908TIP3   OH232664   4.039   5.361   1.466
10908TIP3    H132665   4.016   5.325   1.552
10908TIP3    H232666   4.011   5.294   1.404
10909TIP3   OH232667   4.829   7.092   4.907
10909TIP3    H132668   4.747   7.046   4.927
10909TIP3    H232669   4.889   7.024   4.879
10910TIP3   OH232670   4.637   0.914   6.562
10910TIP3    H132671   4.638   0.998   6.515
10910TIP3    H232672   4.720   0.873   6.540
10911TIP3   OH232673   7.080   1.350   1.758
10911TIP3    H132674   7.129   1.333   1.677
10911TIP3    H232675   7.119   1.430   1.793
10912TIP3   OH232676   2.152   3.098   6.111
10912TIP3    H132677   2.098   3.106   6.190
10912TIP3    H232678   2.090   3.101   6.039
10913TIP3   OH232679   5.070   2.167   4.920
10913TIP3    H132680   5.048   2.113   4.844
10913TIP3    H232681   5.042   2.115   4.995
10914TIP3   OH232682   4.694   1.259   4.027
10914TIP3    H132683   4.670   1.338   3.979
10914TIP3    H232684   4.756   1.290   4.094
10915TIP3   OH232685   8.379   5.171   0.427
10915TIP3    H132686   8.306   5.131   0.381
10915TIP3    H232687   8.437   5.203   0.358
10916TIP3   OH232688   4.936   2.004   5.135
10916TIP3    H132689   4.965   1.993   5.225
10916TIP3    H232690   4.952   1.919   5.094
10917TIP3   OH232691   5.794   3.964   1.181
10917TIP3    H132692   5.831   3.890   1.134
10917TIP3    H232693   5.794   4.035   1.116
10918TIP3   OH232694   6.435   7.346   4.239
10918TIP3    H132695   6.405   7.332   4.149
10918TIP3    H232696   6.373   7.409   4.276
10919TIP3   OH232697   5.750   5.585   0.680
10919TIP3    H132698   5.828   5.530   0.683
10919TIP3    H232699   5.698   5.549   0.609
10920TIP3   OH232700   7.770   1.753   0.083
10920TIP3    H132701   7.786   1.691   0.012
10920TIP3    H232702   7.850   1.749   0.136
10921TIP3   OH232703   4.991   5.219   0.431
10921TIP3    H132704   5.012   5.148   0.370
10921TIP3    H232705   4.920   5.185   0.484
10922TIP3   OH232706   0.247   1.938   3.950
10922TIP3    H132707   0.200   1.859   3.973
10922TIP3    H232708   0.269   1.927   3.857
10923TIP3   OH232709   2.194   0.457   5.208
10923TIP3    H132710   2.118   0.507   5.178
10923TIP3    H232711   2.241   0.517   5.266
10924TIP3   OH232712   3.183   1.842   1.150
10924TIP3    H132713   3.241   1.775   1.187
10924TIP3    H232714   3.127   1.869   1.223
10925TIP3   OH232715   2.203   6.718   1.776
10925TIP3    H132716   2.241   6.772   1.707
10925TIP3    H232717   2.110   6.742   1.778
10926TIP3   OH232718   8.234   0.269   4.286
10926TIP3    H132719   8.172   0.206   4.322
10926TIP3    H232720   8.320   0.231   4.304
10927TIP3   OH232721   3.979   3.921   3.560
10927TIP3    H132722   3.929   3.881   3.489
10927TIP3    H232723   3.926   3.995   3.589
10928TIP3   OH232724   3.964   1.680   4.778
10928TIP3    H132725   4.021   1.640   4.842
10928TIP3    H232726   3.908   1.739   4.828
10929TIP3   OH232727   2.010   1.890   5.828
10929TIP3    H132728   2.070   1.964   5.829
10929TIP3    H232729   1.943   1.912   5.893
10930TIP3   OH232730   7.886   3.043   4.986
10930TIP3    H132731   7.974   3.035   5.023
10930TIP3    H232732   7.854   3.128   5.018
10931TIP3   OH232733   6.251   6.339   2.424
10931TIP3    H132734   6.207   6.266   2.381
10931TIP3    H232735   6.264   6.310   2.514
10932TIP3   OH232736   1.036   4.787   1.488
10932TIP3    H132737   1.066   4.842   1.560
10932TIP3    H232738   1.058   4.836   1.409
10933TIP3   OH232739   4.975   5.490   0.001
10933TIP3    H132740   5.068   5.484   0.022
10933TIP3    H232741   4.931   5.466   0.082
10934TIP3   OH232742   3.023   5.224   4.946
10934TIP3    H132743   2.956   5.224   4.877
10934TIP3    H232744   3.018   5.312   4.983
10935TIP3   OH232745   3.897   4.972   4.099
10935TIP3    H132746   3.832   5.009   4.040
10935TIP3    H232747   3.881   5.015   4.183
10936TIP3   OH232748   2.288   3.527   5.751
10936TIP3    H132749   2.212   3.550   5.698
10936TIP3    H232750   2.263   3.551   5.840
10937TIP3   OH232751   5.781   6.587   3.262
10937TIP3    H132752   5.777   6.495   3.238
10937TIP3    H232753   5.845   6.590   3.333
10938TIP3   OH232754   5.082   3.586   1.317
10938TIP3    H132755   5.159   3.643   1.308
10938TIP3    H232756   5.110   3.502   1.281
10939TIP3   OH232757   6.259   5.775   0.825
10939TIP3    H132758   6.321   5.710   0.793
10939TIP3    H232759   6.287   5.792   0.915
10940TIP3   OH232760   7.625   7.547   6.740
10940TIP3    H132761   7.537   7.575   6.715
10940TIP3    H232762   7.620   7.452   6.744
10941TIP3   OH232763   1.616   3.844   1.019
10941TIP3    H132764   1.534   3.798   1.001
10941TIP3    H232765   1.627   3.904   0.946
10942TIP3   OH232766   0.736   0.465   1.260
10942TIP3    H132767   0.720   0.379   1.299
10942TIP3    H232768   0.718   0.527   1.330
10943TIP3   OH232769   3.280   0.618   0.249
10943TIP3    H132770   3.355   0.575   0.289
10943TIP3    H232771   3.210   0.611   0.315
10944TIP3   OH232772   2.699   0.939   3.148
10944TIP3    H132773   2.612   0.968   3.119
10944TIP3    H232774   2.701   0.846   3.128
10945TIP3   OH232775   3.402   7.733   4.396
10945TIP3    H132776   3.396   7.682   4.476
10945TIP3    H232777   3.311   7.751   4.372
10946TIP3   OH232778   2.447   7.747   4.461
10946TIP3    H132779   2.509   7.677   4.438
10946TIP3    H232780   2.455   7.810   4.389
10947TIP3   OH232781   7.837   7.847   5.510
10947TIP3    H132782   7.831   7.924   5.567
10947TIP3    H232783   7.928   7.820   5.516
10948TIP3   OH232784   1.851   6.638   3.987
10948TIP3    H132785   1.901   6.711   3.951
10948TIP3    H232786   1.894   6.560   3.951
10949TIP3   OH232787   7.628   1.039   2.841
10949TIP3    H132788   7.649   1.095   2.916
10949TIP3    H232789   7.648   1.092   2.764
10950TIP3   OH232790   6.616   6.920   4.531
10950TIP3    H132791   6.670   6.946   4.606
10950TIP3    H232792   6.597   7.002   4.486
10951TIP3   OH232793   4.966   6.103   3.446
10951TIP3    H132794   4.944   6.044   3.517
10951TIP3    H232795   4.901   6.086   3.378
10952TIP3   OH232796   7.210   6.363   3.353
10952TIP3    H132797   7.304   6.374   3.342
10952TIP3    H232798   7.175   6.362   3.264
10953TIP3   OH232799   1.063   4.731   0.391
10953TIP3    H132800   1.092   4.756   0.303
10953TIP3    H232801   1.015   4.649   0.378
10954TIP3   OH232802   5.437   3.631   4.524
10954TIP3    H132803   5.414   3.553   4.473
10954TIP3    H232804   5.481   3.596   4.602
10955TIP3   OH232805   7.528   4.131   3.155
10955TIP3    H132806   7.618   4.144   3.124
10955TIP3    H232807   7.533   4.052   3.208
10956TIP3   OH232808   1.635   4.103   1.858
10956TIP3    H132809   1.684   4.150   1.791
10956TIP3    H232810   1.570   4.167   1.889
10957TIP3   OH232811   0.292   6.576   2.762
10957TIP3    H132812   0.276   6.613   2.849
10957TIP3    H232813   0.383   6.549   2.763
10958TIP3   OH232814   2.669   2.944   0.450
10958TIP3    H132815   2.761   2.950   0.422
10958TIP3    H232816   2.643   2.855   0.425
10959TIP3   OH232817   7.549   5.105   4.658
10959TIP3    H132818   7.548   5.167   4.584
10959TIP3    H232819   7.640   5.078   4.665
10960TIP3   OH232820   7.504   2.274   1.646
10960TIP3    H132821   7.514   2.369   1.639
10960TIP3    H232822   7.484   2.245   1.557
10961TIP3   OH232823   7.433   6.320   6.573
10961TIP3    H132824   7.345   6.299   6.543
10961TIP3    H232825   7.431   6.303   6.668
10962TIP3   OH232826   4.279   0.258   3.056
10962TIP3    H132827   4.247   0.289   2.971
10962TIP3    H232828   4.275   0.335   3.112
10963TIP3   OH232829   6.139   5.099   4.970
10963TIP3    H132830   6.153   5.115   5.064
10963TIP3    H232831   6.209   5.149   4.927
10964TIP3   OH232832   3.439   4.026   3.149
10964TIP3    H132833   3.400   3.939   3.148
10964TIP3    H232834   3.533   4.010   3.162
10965TIP3   OH232835   7.923   0.206   3.365
10965TIP3    H132836   7.983   0.279   3.385
10965TIP3    H232837   7.892   0.225   3.277
10966TIP3   OH232838   2.580   4.528   3.385
10966TIP3    H132839   2.585   4.555   3.477
10966TIP3    H232840   2.667   4.494   3.365
10967TIP3   OH232841   1.392   6.516   3.443
10967TIP3    H132842   1.368   6.480   3.528
10967TIP3    H232843   1.474   6.561   3.459
10968TIP3   OH232844   5.529   4.518   5.070
10968TIP3    H132845   5.488   4.445   5.117
10968TIP3    H232846   5.463   4.543   5.005
10969TIP3   OH232847   7.996   5.249   1.471
10969TIP3    H132848   7.924   5.222   1.414
10969TIP3    H232849   8.073   5.249   1.413
10970TIP3   OH232850   4.313   3.217   0.176
10970TIP3    H132851   4.328   3.192   0.267
10970TIP3    H232852   4.285   3.136   0.133
10971TIP3   OH232853   7.597   6.022   3.194
10971TIP3    H132854   7.612   6.061   3.280
10971TIP3    H232855   7.517   5.971   3.204
10972TIP3   OH232856   5.363   5.188   5.607
10972TIP3    H132857   5.445   5.141   5.623
10972TIP3    H232858   5.304   5.158   5.677
10973TIP3   OH232859   4.431   6.777   0.539
10973TIP3    H132860   4.434   6.699   0.595
10973TIP3    H232861   4.382   6.841   0.590
10974TIP3   OH232862   5.689   7.751   4.389
10974TIP3    H132863   5.626   7.693   4.346
10974TIP3    H232864   5.743   7.785   4.318
10975TIP3   OH232865   6.359   7.656   6.080
10975TIP3    H132866   6.302   7.680   6.154
10975TIP3    H232867   6.319   7.577   6.044
10976TIP3   OH232868   4.482   4.838   0.466
10976TIP3    H132869   4.459   4.926   0.436
10976TIP3    H232870   4.568   4.847   0.506
10977TIP3   OH232871   3.765   3.012   3.232
10977TIP3    H132872   3.834   3.075   3.214
10977TIP3    H232873   3.746   2.972   3.147
10978TIP3   OH232874   7.104   4.283   3.826
10978TIP3    H132875   7.092   4.357   3.886
10978TIP3    H232876   7.017   4.245   3.819
10979TIP3   OH232877   7.643   7.524   4.925
10979TIP3    H132878   7.599   7.453   4.971
10979TIP3    H232879   7.580   7.596   4.925
10980TIP3   OH232880   5.174   1.555   2.614
10980TIP3    H132881   5.135   1.530   2.531
10980TIP3    H232882   5.223   1.635   2.595
10981TIP3   OH232883   1.595   6.102   2.673
10981TIP3    H132884   1.513   6.105   2.624
10981TIP3    H232885   1.570   6.128   2.762
10982TIP3   OH232886   6.278   4.372   3.173
10982TIP3    H132887   6.321   4.290   3.198
10982TIP3    H232888   6.239   4.405   3.254
10983TIP3   OH232889   0.869   2.974   3.926
10983TIP3    H132890   0.861   2.879   3.928
10983TIP3    H232891   0.787   3.006   3.964
10984TIP3   OH232892   3.890   5.766   0.560
10984TIP3    H132893   3.870   5.750   0.652
10984TIP3    H232894   3.980   5.801   0.561
10985TIP3   OH232895   7.722   7.857   6.052
10985TIP3    H132896   7.669   7.936   6.063
10985TIP3    H232897   7.807   7.879   6.091
10986TIP3   OH232898   0.154   6.241   4.374
10986TIP3    H132899   0.214   6.308   4.342
10986TIP3    H232900   0.138   6.265   4.466
10987TIP3   OH232901   2.997   2.965   0.732
10987TIP3    H132902   3.022   3.040   0.786
10987TIP3    H232903   3.081   2.926   0.707
10988TIP3   OH232904   3.291   4.887   5.066
10988TIP3    H132905   3.263   4.919   5.152
10988TIP3    H232906   3.223   4.825   5.041
10989TIP3   OH232907   4.772   6.263   0.440
10989TIP3    H132908   4.842   6.222   0.491
10989TIP3    H232909   4.737   6.193   0.386
10990TIP3   OH232910   6.240   0.141   1.151
10990TIP3    H132911   6.279   0.092   1.224
10990TIP3    H232912   6.205   0.220   1.192
10991TIP3   OH232913   3.093   1.603   2.105
10991TIP3    H132914   3.091   1.674   2.170
10991TIP3    H232915   3.102   1.523   2.156
10992TIP3   OH232916   6.230   2.388   6.263
10992TIP3    H132917   6.136   2.369   6.271
10992TIP3    H232918   6.262   2.390   6.354
10993TIP3   OH232919   4.708   7.431   3.500
10993TIP3    H132920   4.650   7.475   3.438
10993TIP3    H232921   4.786   7.488   3.504
10994TIP3   OH232922   1.132   2.699   0.043
10994TIP3    H132923   1.130   2.604   0.056
10994TIP3    H232924   1.208   2.714  -0.014
10995TIP3   OH232925   7.281   5.103   2.947
10995TIP3    H132926   7.247   5.023   2.909
10995TIP3    H232927   7.355   5.127   2.890
10996TIP3   OH232928   0.518   3.962   4.918
10996TIP3    H132929   0.610   3.946   4.938
10996TIP3    H232930   0.487   3.881   4.878
10997TIP3   OH232931   7.600   1.202   5.393
10997TIP3    H132932   7.692   1.177   5.395
10997TIP3    H232933   7.595   1.269   5.325
10998TIP3   OH232934   5.480   6.576   2.420
10998TIP3    H132935   5.482   6.560   2.325
10998TIP3    H232936   5.572   6.585   2.444
10999TIP3   OH232937   4.647   6.950   2.466
10999TIP3    H132938   4.710   7.021   2.461
10999TIP3    H232939   4.578   6.975   2.404
11000TIP3   OH232940   3.992   3.479   3.624
11000TIP3    H132941   4.034   3.549   3.674
11000TIP3    H232942   3.973   3.519   3.539
11001TIP3   OH232943   8.102   2.704   3.766
11001TIP3    H132944   8.087   2.727   3.674
11001TIP3    H232945   8.076   2.782   3.814
11002TIP3   OH232946   7.496   5.129   6.658
11002TIP3    H132947   7.404   5.120   6.635
11002TIP3    H232948   7.532   5.189   6.593
11003TIP3   OH232949   4.601   5.656   1.203
11003TIP3    H132950   4.638   5.651   1.291
11003TIP3    H232951   4.513   5.693   1.216
11004TIP3   OH232952   5.896   3.860   6.433
11004TIP3    H132953   5.837   3.786   6.446
11004TIP3    H232954   5.877   3.919   6.506
11005TIP3   OH232955   1.487   3.302   3.914
11005TIP3    H132956   1.474   3.289   4.008
11005TIP3    H232957   1.421   3.368   3.890
11006TIP3   OH232958   3.389   3.970   5.536
11006TIP3    H132959   3.462   3.965   5.598
11006TIP3    H232960   3.378   3.880   5.504
11007TIP3   OH232961   3.905   4.287   1.911
11007TIP3    H132962   3.928   4.211   1.963
11007TIP3    H232963   3.942   4.270   1.825
11008TIP3   OH232964   7.675   4.632   2.849
11008TIP3    H132965   7.645   4.542   2.851
11008TIP3    H232966   7.600   4.682   2.817
11009TIP3   OH232967   5.289   2.933   5.917
11009TIP3    H132968   5.201   2.970   5.907
11009TIP3    H232969   5.306   2.939   6.011
11010TIP3   OH232970   8.163   5.474   5.543
11010TIP3    H132971   8.233   5.455   5.481
11010TIP3    H232972   8.179   5.414   5.616
11011TIP3   OH232973   0.907   0.176   1.042
11011TIP3    H132974   0.939   0.256   0.999
11011TIP3    H232975   0.959   0.169   1.122
11012TIP3   OH232976   1.079   2.842   4.147
11012TIP3    H132977   1.059   2.773   4.083
11012TIP3    H232978   0.997   2.853   4.195
11013TIP3   OH232979   4.600   6.227   5.110
11013TIP3    H132980   4.593   6.252   5.018
11013TIP3    H232981   4.602   6.131   5.109
11014TIP3   OH232982   1.565   5.126   2.963
11014TIP3    H132983   1.498   5.057   2.971
11014TIP3    H232984   1.529   5.199   3.013
11015TIP3   OH232985   2.759   7.733   6.564
11015TIP3    H132986   2.798   7.711   6.479
11015TIP3    H232987   2.682   7.786   6.542
11016TIP3   OH232988   7.206   4.850   6.527
11016TIP3    H132989   7.180   4.797   6.602
11016TIP3    H232990   7.287   4.809   6.496
11017TIP3   OH232991   0.714   7.295   0.069
11017TIP3    H132992   0.618   7.295   0.060
11017TIP3    H232993   0.733   7.375   0.117
11018TIP3   OH232994   5.557   3.975   5.176
11018TIP3    H132995   5.476   3.967   5.227
11018TIP3    H232996   5.542   3.918   5.100
11019TIP3   OH232997   6.573   5.768   3.353
11019TIP3    H132998   6.567   5.855   3.316
11019TIP3    H232999   6.517   5.713   3.298
11020TIP3   OH233000   6.076   0.791   0.257
11020TIP3    H133001   6.138   0.831   0.196
11020TIP3    H233002   5.990   0.814   0.222
11021TIP3   OH233003   2.071   4.579   0.525
11021TIP3    H133004   2.060   4.498   0.575
11021TIP3    H233005   2.143   4.560   0.465
11022TIP3   OH233006   4.096   7.880   1.474
11022TIP3    H133007   4.046   7.826   1.413
11022TIP3    H233008   4.036   7.951   1.497
11023TIP3   OH233009   0.485   3.312   4.985
11023TIP3    H133010   0.421   3.296   5.054
11023TIP3    H233011   0.497   3.226   4.944
11024TIP3   OH233012   8.073   0.710   3.199
11024TIP3    H133013   8.025   0.718   3.282
11024TIP3    H233014   8.118   0.794   3.189
11025TIP3   OH233015   5.618   3.110   2.858
11025TIP3    H133016   5.593   3.064   2.939
11025TIP3    H233017   5.704   3.075   2.836
11026TIP3   OH233018   3.183   1.630   4.950
11026TIP3    H133019   3.092   1.600   4.961
11026TIP3    H233020   3.187   1.713   4.997
11027TIP3   OH233021   1.897   6.481   2.828
11027TIP3    H133022   1.901   6.433   2.745
11027TIP3    H233023   1.982   6.465   2.869
11028TIP3   OH233024   2.831   7.145   3.811
11028TIP3    H133025   2.904   7.158   3.871
11028TIP3    H233026   2.775   7.081   3.854
11029TIP3   OH233027   2.785   2.501   5.962
11029TIP3    H133028   2.872   2.539   5.945
11029TIP3    H233029   2.782   2.422   5.908
11030TIP3   OH233030   4.658   5.888   6.606
11030TIP3    H133031   4.619   5.970   6.638
11030TIP3    H233032   4.739   5.878   6.656
11031TIP3   OH233033   5.931   1.730   1.979
11031TIP3    H133034   5.859   1.721   2.041
11031TIP3    H233035   5.895   1.783   1.908
11032TIP3   OH233036   3.640   7.615   6.612
11032TIP3    H133037   3.692   7.660   6.546
11032TIP3    H233038   3.586   7.684   6.651
11033TIP3   OH233039   6.208   1.227   5.502
11033TIP3    H133040   6.155   1.301   5.473
11033TIP3    H233041   6.287   1.267   5.539
11034TIP3   OH233042   8.310   7.180   0.725
11034TIP3    H133043   8.300   7.229   0.807
11034TIP3    H233044   8.361   7.103   0.750
11035TIP3   OH233045   2.724   0.664   3.448
11035TIP3    H133046   2.698   0.577   3.477
11035TIP3    H233047   2.800   0.648   3.391
11036TIP3   OH233048   3.461   0.439   1.707
11036TIP3    H133049   3.438   0.397   1.790
11036TIP3    H233050   3.408   0.394   1.642
11037TIP3   OH233051   3.748   2.837   4.514
11037TIP3    H133052   3.741   2.925   4.477
11037TIP3    H233053   3.806   2.848   4.590
11038TIP3   OH233054   1.743   6.918   5.572
11038TIP3    H133055   1.771   6.973   5.499
11038TIP3    H233056   1.737   6.978   5.646
11039TIP3   OH233057   1.106   6.475   1.710
11039TIP3    H133058   1.059   6.541   1.660
11039TIP3    H233059   1.097   6.503   1.801
11040TIP3   OH233060   1.513   3.348   4.701
11040TIP3    H133061   1.443   3.314   4.646
11040TIP3    H233062   1.575   3.387   4.639
11041TIP3   OH233063   1.092   2.892   5.677
11041TIP3    H133064   0.998   2.880   5.667
11041TIP3    H233065   1.113   2.858   5.763
11042TIP3   OH233066   1.301   2.548   1.514
11042TIP3    H133067   1.293   2.481   1.446
11042TIP3    H233068   1.252   2.623   1.480
11043TIP3   OH233069   6.306   3.463   2.392
11043TIP3    H133070   6.317   3.558   2.380
11043TIP3    H233071   6.231   3.441   2.337
11044TIP3   OH233072   1.816   4.447   1.847
11044TIP3    H133073   1.895   4.467   1.897
11044TIP3    H233074   1.819   4.353   1.833
11045TIP3   OH233075   8.198   1.526   2.935
11045TIP3    H133076   8.165   1.614   2.952
11045TIP3    H233077   8.239   1.500   3.018
11046TIP3   OH233078   5.030   1.992   1.172
11046TIP3    H133079   5.068   1.939   1.102
11046TIP3    H233080   5.066   2.080   1.157
11047TIP3   OH233081   2.373   0.057   0.166
11047TIP3    H133082   2.420   0.126   0.212
11047TIP3    H233083   2.426  -0.021   0.179
11048TIP3   OH233084   3.808   0.675   3.130
11048TIP3    H133085   3.735   0.614   3.127
11048TIP3    H233086   3.842   0.668   3.219
11049TIP3   OH233087   3.770   6.344   0.334
11049TIP3    H133088   3.760   6.432   0.370
11049TIP3    H233089   3.734   6.350   0.245
11050TIP3   OH233090   4.768   0.399   0.647
11050TIP3    H133091   4.729   0.330   0.593
11050TIP3    H233092   4.693   0.448   0.681
11051TIP3   OH233093   4.534   2.099   0.426
11051TIP3    H133094   4.502   2.188   0.411
11051TIP3    H233095   4.507   2.050   0.348
11052TIP3   OH233096   1.874   7.798   5.230
11052TIP3    H133097   1.795   7.776   5.182
11052TIP3    H233098   1.920   7.860   5.173
11053TIP3   OH233099   0.177   7.282   0.626
11053TIP3    H133100   0.090   7.242   0.636
11053TIP3    H233101   0.207   7.297   0.715
11054TIP3   OH233102   3.639   0.128   1.581
11054TIP3    H133103   3.713   0.167   1.628
11054TIP3    H233104   3.663   0.036   1.572
11055TIP3   OH233105   0.155   4.415   2.577
11055TIP3    H133106   0.065   4.383   2.575
11055TIP3    H233107   0.198   4.362   2.643
11056TIP3   OH233108   6.291   6.594   6.521
11056TIP3    H133109   6.368   6.585   6.465
11056TIP3    H233110   6.229   6.530   6.486
11057TIP3   OH233111   7.785   2.021   0.360
11057TIP3    H133112   7.698   2.020   0.319
11057TIP3    H233113   7.798   1.931   0.391
11058TIP3   OH233114   1.923   1.330   2.314
11058TIP3    H133115   1.862   1.401   2.296
11058TIP3    H233116   1.967   1.314   2.231
11059TIP3   OH233117   1.068   1.466   5.894
11059TIP3    H133118   1.148   1.474   5.841
11059TIP3    H233119   1.018   1.396   5.852
11060TIP3   OH233120   5.802   0.375   2.646
11060TIP3    H133121   5.895   0.352   2.646
11060TIP3    H233122   5.758   0.298   2.682
11061TIP3   OH233123   2.760   3.985   5.121
11061TIP3    H133124   2.841   3.933   5.117
11061TIP3    H233125   2.699   3.931   5.171
11062TIP3   OH233126   4.793   2.295   4.250
11062TIP3    H133127   4.810   2.253   4.334
11062TIP3    H233128   4.867   2.354   4.237
11063TIP3   OH233129   7.349   7.243   4.163
11063TIP3    H133130   7.361   7.306   4.234
11063TIP3    H233131   7.268   7.272   4.120
11064TIP3   OH233132   8.012   5.750   1.028
11064TIP3    H133133   8.089   5.704   0.994
11064TIP3    H233134   7.995   5.708   1.113
11065TIP3   OH233135   4.643   6.170   5.966
11065TIP3    H133136   4.583   6.189   5.894
11065TIP3    H233137   4.625   6.238   6.031
11066TIP3   OH233138   2.177   2.565   1.834
11066TIP3    H133139   2.165   2.637   1.773
11066TIP3    H233140   2.256   2.588   1.883
11067TIP3   OH233141   4.519   4.220   1.067
11067TIP3    H133142   4.499   4.263   0.984
11067TIP3    H233143   4.460   4.144   1.069
11068TIP3   OH233144   3.584   6.871   4.145
11068TIP3    H133145   3.494   6.850   4.169
11068TIP3    H233146   3.638   6.818   4.203
11069TIP3   OH233147   4.497   7.869   1.980
11069TIP3    H133148   4.484   7.941   1.918
11069TIP3    H233149   4.553   7.907   2.048
11070TIP3   OH233150   0.692   5.608   2.436
11070TIP3    H133151   0.735   5.605   2.351
11070TIP3    H233152   0.753   5.565   2.496
11071TIP3   OH233153   3.983   7.719   4.889
11071TIP3    H133154   3.979   7.673   4.805
11071TIP3    H233155   3.915   7.678   4.942
11072TIP3   OH233156   4.087   7.541   6.800
11072TIP3    H133157   4.172   7.506   6.773
11072TIP3    H233158   4.103   7.579   6.886
11073TIP3   OH233159   2.883   6.998   0.603
11073TIP3    H133160   2.789   6.989   0.620
11073TIP3    H233161   2.889   7.015   0.509
11074TIP3   OH233162   3.668   0.180   6.467
11074TIP3    H133163   3.695   0.201   6.556
11074TIP3    H233164   3.586   0.227   6.455
11075TIP3   OH233165   7.345   1.421   5.352
11075TIP3    H133166   7.376   1.472   5.277
11075TIP3    H233167   7.373   1.471   5.428
11076TIP3   OH233168   2.368   0.190   1.605
11076TIP3    H133169   2.294   0.215   1.660
11076TIP3    H233170   2.352   0.234   1.521
11077TIP3   OH233171   1.930   1.765   3.999
11077TIP3    H133172   1.987   1.834   3.965
11077TIP3    H233173   1.958   1.753   4.089
11078TIP3   OH233174   2.743   4.081   3.316
11078TIP3    H133175   2.657   4.123   3.316
11078TIP3    H233176   2.724   3.987   3.317
11079TIP3   OH233177   4.021   5.984   5.374
11079TIP3    H133178   3.960   5.978   5.448
11079TIP3    H233179   3.984   5.924   5.309
11080TIP3   OH233180   0.552   6.042   5.490
11080TIP3    H133181   0.615   5.987   5.443
11080TIP3    H233182   0.469   5.995   5.484
11081TIP3   OH233183   4.514   0.672   6.741
11081TIP3    H133184   4.483   0.762   6.750
11081TIP3    H233185   4.601   0.679   6.703
11082TIP3   OH233186   4.414   5.030   3.714
11082TIP3    H133187   4.472   5.069   3.649
11082TIP3    H233188   4.360   5.104   3.744
11083TIP3   OH233189   4.493   0.062   1.059
11083TIP3    H133190   4.432  -0.008   1.081
11083TIP3    H233191   4.452   0.142   1.093
11084TIP3   OH233192   4.348   1.426   3.852
11084TIP3    H133193   4.373   1.517   3.836
11084TIP3    H233194   4.264   1.432   3.897
11085TIP3   OH233195   3.598   6.850   1.444
11085TIP3    H133196   3.623   6.941   1.430
11085TIP3    H233197   3.681   6.805   1.461
11086TIP3   OH233198   8.220   4.338   0.253
11086TIP3    H133199   8.141   4.391   0.244
11086TIP3    H233200   8.192   4.250   0.227
11087TIP3   OH233201   6.053   7.356   6.207
11087TIP3    H133202   5.986   7.291   6.228
11087TIP3    H233203   6.131   7.326   6.254
11088TIP3   OH233204   3.122   3.425   0.042
11088TIP3    H133205   3.124   3.330   0.057
11088TIP3    H233206   3.198   3.442  -0.013
11089TIP3   OH233207   3.711   4.728   3.534
11089TIP3    H133208   3.720   4.814   3.493
11089TIP3    H233209   3.639   4.686   3.487
11090TIP3   OH233210   2.094   0.826   1.708
11090TIP3    H133211   2.175   0.825   1.759
11090TIP3    H233212   2.025   0.807   1.771
11091TIP3   OH233213   6.484   6.781   2.186
11091TIP3    H133214   6.573   6.789   2.218
11091TIP3    H233215   6.439   6.729   2.252
11092TIP3   OH233216   1.737   1.227   5.022
11092TIP3    H133217   1.757   1.319   5.007
11092TIP3    H233218   1.804   1.197   5.084
11093TIP3   OH233219   1.828   0.754   5.948
11093TIP3    H133220   1.923   0.744   5.947
11093TIP3    H233221   1.813   0.846   5.971
11094TIP3   OH233222   3.593   7.469   4.820
11094TIP3    H133223   3.507   7.508   4.830
11094TIP3    H233224   3.627   7.506   4.738
11095TIP3   OH233225   4.628   2.607   2.261
11095TIP3    H133226   4.595   2.517   2.258
11095TIP3    H233227   4.696   2.610   2.193
11096TIP3   OH233228   7.728   1.788   3.829
11096TIP3    H133229   7.693   1.836   3.754
11096TIP3    H233230   7.794   1.846   3.866
11097TIP3   OH233231   1.386   0.508   3.662
11097TIP3    H133232   1.420   0.583   3.613
11097TIP3    H233233   1.299   0.493   3.626
11098TIP3   OH233234   2.210   4.335   2.204
11098TIP3    H133235   2.145   4.361   2.138
11098TIP3    H233236   2.294   4.337   2.158
11099TIP3   OH233237   5.241   2.739   0.613
11099TIP3    H133238   5.164   2.703   0.570
11099TIP3    H233239   5.313   2.683   0.583
11100TIP3   OH233240   1.626   2.420   1.140
11100TIP3    H133241   1.559   2.449   1.078
11100TIP3    H233242   1.576   2.378   1.210
11101TIP3   OH233243   1.501   1.326   2.353
11101TIP3    H133244   1.450   1.384   2.409
11101TIP3    H233245   1.579   1.377   2.330
11102TIP3   OH233246   0.275   1.993   1.602
11102TIP3    H133247   0.196   1.972   1.552
11102TIP3    H233248   0.250   2.069   1.655
11103TIP3   OH233249   1.972   4.405   3.276
11103TIP3    H133250   2.026   4.369   3.206
11103TIP3    H233251   2.013   4.375   3.357
11104TIP3   OH233252   2.394   3.965   3.127
11104TIP3    H133253   2.412   3.948   3.034
11104TIP3    H233254   2.342   3.889   3.155
11105TIP3   OH233255   2.785   0.351   4.470
11105TIP3    H133256   2.776   0.266   4.426
11105TIP3    H233257   2.820   0.329   4.557
11106TIP3   OH233258   0.457   2.449   3.261
11106TIP3    H133259   0.505   2.435   3.179
11106TIP3    H233260   0.458   2.364   3.305
11107TIP3   OH233261   3.725   2.871   1.438
11107TIP3    H133262   3.715   2.833   1.525
11107TIP3    H233263   3.712   2.965   1.451
11108TIP3   OH233264   1.886   2.304   6.369
11108TIP3    H133265   1.825   2.247   6.416
11108TIP3    H233266   1.973   2.274   6.396
11109TIP3   OH233267   3.544   2.101   0.134
11109TIP3    H133268   3.636   2.082   0.118
11109TIP3    H233269   3.504   2.102   0.047
11110TIP3   OH233270   7.160   2.921   3.699
11110TIP3    H133271   7.159   2.942   3.606
11110TIP3    H233272   7.180   2.828   3.703
11111TIP3   OH233273   3.485   0.555   0.627
11111TIP3    H133274   3.394   0.555   0.657
11111TIP3    H233275   3.488   0.487   0.560
11112TIP3   OH233276   5.497   5.172   1.823
11112TIP3    H133277   5.419   5.157   1.770
11112TIP3    H233278   5.536   5.085   1.835
11113TIP3   OH233279   4.375   0.279   5.791
11113TIP3    H133280   4.439   0.325   5.846
11113TIP3    H233281   4.411   0.190   5.783
11114TIP3   OH233282   3.622   5.759   3.159
11114TIP3    H133283   3.669   5.734   3.239
11114TIP3    H233284   3.626   5.680   3.104
11115TIP3   OH233285   6.878   7.595   6.194
11115TIP3    H133286   6.872   7.670   6.135
11115TIP3    H233287   6.817   7.616   6.265
11116TIP3   OH233288   1.615   0.528   2.562
11116TIP3    H133289   1.557   0.534   2.639
11116TIP3    H233290   1.562   0.561   2.490
11117TIP3   OH233291   5.584   5.754   5.233
11117TIP3    H133292   5.492   5.763   5.208
11117TIP3    H233293   5.633   5.785   5.156
11118TIP3   OH233294   0.866   5.448   3.379
11118TIP3    H133295   0.962   5.446   3.383
11118TIP3    H233296   0.841   5.515   3.443
11119TIP3   OH233297   6.702   7.553   4.451
11119TIP3    H133298   6.727   7.544   4.542
11119TIP3    H233299   6.784   7.568   4.404
11120TIP3   OH233300   2.095   3.379   3.671
11120TIP3    H133301   2.177   3.332   3.654
11120TIP3    H233302   2.107   3.417   3.758
11121TIP3   OH233303   3.494   7.213   1.506
11121TIP3    H133304   3.406   7.216   1.544
11121TIP3    H233305   3.485   7.257   1.422
11122TIP3   OH233306   6.365   1.907   2.855
11122TIP3    H133307   6.423   1.865   2.793
11122TIP3    H233308   6.423   1.949   2.919
11123TIP3   OH233309   6.613   1.588   2.937
11123TIP3    H133310   6.593   1.496   2.924
11123TIP3    H233311   6.550   1.618   3.003
11124TIP3   OH233312   3.877   6.125   2.004
11124TIP3    H133313   3.896   6.042   1.960
11124TIP3    H233314   3.962   6.158   2.032
11125TIP3   OH233315   4.774   3.718   0.593
11125TIP3    H133316   4.782   3.804   0.634
11125TIP3    H233317   4.681   3.697   0.599
11126TIP3   OH233318   1.026   4.264   5.030
11126TIP3    H133319   0.937   4.231   5.018
11126TIP3    H233320   1.041   4.320   4.953
11127TIP3   OH233321   6.203   2.428   5.169
11127TIP3    H133322   6.263   2.495   5.201
11127TIP3    H233323   6.118   2.472   5.166
11128TIP3   OH233324   6.089   1.760   2.276
11128TIP3    H133325   6.106   1.826   2.343
11128TIP3    H233326   6.040   1.691   2.322
11129TIP3   OH233327   2.051   1.629   5.977
11129TIP3    H133328   1.998   1.557   5.944
11129TIP3    H233329   2.015   1.707   5.934
11130TIP3   OH233330   0.638   7.841   1.232
11130TIP3    H133331   0.550   7.880   1.224
11130TIP3    H233332   0.678   7.889   1.305
11131TIP3   OH233333   7.749   4.439   0.362
11131TIP3    H133334   7.688   4.481   0.422
11131TIP3    H233335   7.715   4.350   0.351
11132TIP3   OH233336   7.047   3.242   3.070
11132TIP3    H133337   7.032   3.334   3.094
11132TIP3    H233338   6.981   3.224   3.003
11133TIP3   OH233339   8.107   4.560   3.986
11133TIP3    H133340   8.195   4.590   3.964
11133TIP3    H233341   8.062   4.554   3.901
11134TIP3   OH233342   1.153   2.122   2.366
11134TIP3    H133343   1.089   2.191   2.350
11134TIP3    H233344   1.149   2.109   2.461
11135TIP3   OH233345   6.012   0.591   4.136
11135TIP3    H133346   5.967   0.675   4.142
11135TIP3    H233347   5.961   0.540   4.074
11136TIP3   OH233348   1.178   0.838   6.831
11136TIP3    H133349   1.089   0.870   6.820
11136TIP3    H233350   1.180   0.754   6.785
11137TIP3   OH233351   6.792   1.716   2.436
11137TIP3    H133352   6.749   1.690   2.518
11137TIP3    H233353   6.752   1.800   2.415
11138TIP3   OH233354   6.031   7.023   4.041
11138TIP3    H133355   5.939   7.018   4.065
11138TIP3    H233356   6.077   6.975   4.111
11139TIP3   OH233357   1.340   2.498   0.290
11139TIP3    H133358   1.246   2.509   0.272
11139TIP3    H233359   1.363   2.573   0.346
11140TIP3   OH233360   1.684   7.827   1.735
11140TIP3    H133361   1.707   7.915   1.764
11140TIP3    H233362   1.726   7.769   1.798
11141TIP3   OH233363   3.308   6.821   4.274
11141TIP3    H133364   3.331   6.800   4.365
11141TIP3    H233365   3.254   6.900   4.280
11142TIP3   OH233366   1.491   6.261   1.546
11142TIP3    H133367   1.559   6.272   1.612
11142TIP3    H233368   1.537   6.268   1.462
11143TIP3   OH233369   3.514   4.068   2.079
11143TIP3    H133370   3.595   4.054   2.128
11143TIP3    H233371   3.481   4.152   2.110
11144TIP3   OH233372   8.087   4.931   6.150
11144TIP3    H133373   8.137   4.960   6.226
11144TIP3    H233374   8.030   4.862   6.184
11145TIP3   OH233375   7.546   5.414   3.526
11145TIP3    H133376   7.641   5.424   3.514
11145TIP3    H233377   7.522   5.482   3.589
11146TIP3   OH233378   7.420   5.642   1.900
11146TIP3    H133379   7.365   5.570   1.931
11146TIP3    H233380   7.491   5.648   1.965
11147TIP3   OH233381   6.034   6.772   6.813
11147TIP3    H133382   6.021   6.761   6.907
11147TIP3    H233383   6.120   6.732   6.796
11148TIP3   OH233384   0.154   6.444   4.877
11148TIP3    H133385   0.145   6.483   4.964
11148TIP3    H233386   0.084   6.380   4.872
11149TIP3   OH233387   0.709   6.787   6.550
11149TIP3    H133388   0.692   6.781   6.644
11149TIP3    H233389   0.743   6.700   6.527
11150TIP3   OH233390   5.397   1.817   1.461
11150TIP3    H133391   5.457   1.780   1.396
11150TIP3    H233392   5.419   1.910   1.463
11151TIP3   OH233393   0.528   3.512   6.824
11151TIP3    H133394   0.510   3.559   6.743
11151TIP3    H233395   0.527   3.580   6.892
11152TIP3   OH233396   1.171   2.919   6.706
11152TIP3    H133397   1.247   2.936   6.763
11152TIP3    H233398   1.206   2.926   6.617
11153TIP3   OH233399   4.011   2.536   2.166
11153TIP3    H133400   3.988   2.627   2.149
11153TIP3    H233401   4.081   2.516   2.103
11154TIP3   OH233402   0.858   5.407   1.759
11154TIP3    H133403   0.887   5.325   1.718
11154TIP3    H233404   0.859   5.388   1.853
11155TIP3   OH233405   2.697   3.877   2.059
11155TIP3    H133406   2.755   3.846   1.989
11155TIP3    H233407   2.609   3.867   2.022
11156TIP3   OH233408   1.065   7.158   6.114
11156TIP3    H133409   0.981   7.117   6.133
11156TIP3    H233410   1.049   7.214   6.038
11157TIP3   OH233411   5.370   4.575   4.858
11157TIP3    H133412   5.342   4.490   4.824
11157TIP3    H233413   5.309   4.638   4.820
11158TIP3   OH233414   6.127   3.101   5.999
11158TIP3    H133415   6.033   3.113   5.984
11158TIP3    H233416   6.136   3.105   6.095
11159TIP3   OH233417   2.840   0.752   6.043
11159TIP3    H133418   2.753   0.782   6.017
11159TIP3    H233419   2.832   0.733   6.136
11160TIP3   OH233420   6.319   5.927   4.130
11160TIP3    H133421   6.274   5.988   4.071
11160TIP3    H233422   6.411   5.954   4.127
11161TIP3   OH233423   7.251   0.798   5.881
11161TIP3    H133424   7.307   0.836   5.948
11161TIP3    H233425   7.181   0.862   5.869
11162TIP3   OH233426   4.539   5.319   0.571
11162TIP3    H133427   4.608   5.275   0.521
11162TIP3    H233428   4.585   5.381   0.627
11163TIP3   OH233429   4.654   7.361   6.633
11163TIP3    H133430   4.722   7.387   6.696
11163TIP3    H233431   4.699   7.303   6.572
11164TIP3   OH233432   2.870   4.831   5.505
11164TIP3    H133433   2.942   4.811   5.565
11164TIP3    H233434   2.827   4.746   5.490
11165TIP3   OH233435   4.207   6.769   2.092
11165TIP3    H133436   4.123   6.738   2.056
11165TIP3    H233437   4.207   6.736   2.182
11166TIP3   OH233438   2.077   5.092   2.562
11166TIP3    H133439   2.028   5.013   2.540
11166TIP3    H233440   2.010   5.151   2.597
11167TIP3   OH233441   1.985   4.408   6.295
11167TIP3    H133442   1.976   4.357   6.376
11167TIP3    H233443   2.077   4.400   6.272
11168TIP3   OH233444   3.882   6.398   4.116
11168TIP3    H133445   3.866   6.368   4.206
11168TIP3    H233446   3.947   6.468   4.125
11169TIP3   OH233447   0.542   0.446   6.089
11169TIP3    H133448   0.589   0.526   6.063
11169TIP3    H233449   0.609   0.392   6.131
11170TIP3   OH233450   8.338   7.052   2.868
11170TIP3    H133451   8.317   6.996   2.943
11170TIP3    H233452   8.263   7.112   2.862
11171TIP3   OH233453   4.290   6.184   6.142
11171TIP3    H133454   4.344   6.108   6.165
11171TIP3    H233455   4.228   6.191   6.215
11172TIP3   OH233456   5.935   7.044   6.816
11172TIP3    H133457   5.842   7.042   6.842
11172TIP3    H233458   5.970   6.961   6.848
11173TIP3   OH233459   5.532   1.907   5.961
11173TIP3    H133460   5.526   1.822   6.006
11173TIP3    H233461   5.459   1.957   5.998
11174TIP3   OH233462   7.772   6.956   1.763
11174TIP3    H133463   7.758   6.965   1.857
11174TIP3    H233464   7.796   7.044   1.734
11175TIP3   OH233465   5.486   5.080   6.536
11175TIP3    H133466   5.424   5.091   6.608
11175TIP3    H233467   5.436   5.100   6.457
11176TIP3   OH233468   1.980   3.329   6.473
11176TIP3    H133469   2.070   3.297   6.461
11176TIP3    H233470   1.951   3.291   6.556
11177TIP3   OH233471   6.640   2.784   5.692
11177TIP3    H133472   6.680   2.859   5.647
11177TIP3    H233473   6.698   2.768   5.767
11178TIP3   OH233474   3.148   0.534   6.303
11178TIP3    H133475   3.202   0.576   6.237
11178TIP3    H233476   3.209   0.511   6.373
11179TIP3   OH233477   3.261   7.196   1.225
11179TIP3    H133478   3.285   7.233   1.140
11179TIP3    H233479   3.325   7.126   1.239
11180TIP3   OH233480   0.873   3.828   2.199
11180TIP3    H133481   0.837   3.916   2.190
11180TIP3    H233482   0.851   3.802   2.289
11181TIP3   OH233483   2.189   6.607   2.153
11181TIP3    H133484   2.264   6.639   2.203
11181TIP3    H233485   2.203   6.513   2.147
11182TIP3   OH233486   0.672   4.691   2.288
11182TIP3    H133487   0.597   4.712   2.231
11182TIP3    H233488   0.655   4.740   2.368
11183TIP3   OH233489   6.815   7.626   4.988
11183TIP3    H133490   6.724   7.656   4.985
11183TIP3    H233491   6.813   7.540   4.944
11184TIP3   OH233492   7.689   3.214   3.352
11184TIP3    H133493   7.619   3.248   3.408
11184TIP3    H233494   7.648   3.207   3.265
11185TIP3   OH233495   5.782   3.576   5.871
11185TIP3    H133496   5.826   3.616   5.796
11185TIP3    H233497   5.831   3.496   5.888
11186TIP3   OH233498   2.871   7.377   4.921
11186TIP3    H133499   2.912   7.416   4.844
11186TIP3    H233500   2.806   7.316   4.886
11187TIP3   OH233501   1.751   0.535   1.092
11187TIP3    H133502   1.716   0.621   1.069
11187TIP3    H233503   1.741   0.482   1.013
11188TIP3   OH233504   0.177   5.089   2.173
11188TIP3    H133505   0.233   5.132   2.238
11188TIP3    H233506   0.164   5.156   2.106
11189TIP3   OH233507   6.436   7.074   4.956
11189TIP3    H133508   6.404   7.010   5.019
11189TIP3    H233509   6.485   7.023   4.892
11190TIP3   OH233510   7.811   2.826   3.133
11190TIP3    H133511   7.775   2.891   3.074
11190TIP3    H233512   7.904   2.821   3.110
11191TIP3   OH233513   5.047   3.568   0.248
11191TIP3    H133514   4.998   3.487   0.229
11191TIP3    H233515   5.081   3.595   0.163
11192TIP3   OH233516   5.204   4.882   1.632
11192TIP3    H133517   5.121   4.853   1.594
11192TIP3    H233518   5.244   4.801   1.665
11193TIP3   OH233519   5.659   0.961   3.309
11193TIP3    H133520   5.596   0.977   3.238
11193TIP3    H233521   5.606   0.961   3.388
11194TIP3   OH233522   7.943   6.750   1.966
11194TIP3    H133523   7.893   6.689   2.020
11194TIP3    H233524   7.987   6.808   2.029
11195TIP3   OH233525   7.134   7.452   5.883
11195TIP3    H133526   7.066   7.449   5.816
11195TIP3    H233527   7.209   7.409   5.843
11196TIP3   OH233528   2.011   2.976   5.653
11196TIP3    H133529   1.997   2.981   5.558
11196TIP3    H233530   1.971   2.893   5.679
11197TIP3   OH233531   7.976   0.449   5.858
11197TIP3    H133532   8.009   0.449   5.768
11197TIP3    H233533   7.893   0.402   5.854
11198TIP3   OH233534   0.780   6.534   1.171
11198TIP3    H133535   0.751   6.612   1.124
11198TIP3    H233536   0.849   6.496   1.115
11199TIP3   OH233537   6.978   2.274   0.734
11199TIP3    H133538   7.062   2.233   0.717
11199TIP3    H233539   6.944   2.297   0.648
11200TIP3   OH233540   7.606   4.393   2.260
11200TIP3    H133541   7.558   4.403   2.177
11200TIP3    H233542   7.541   4.358   2.321
11201TIP3   OH233543   2.066   5.095   2.026
11201TIP3    H133544   1.994   5.124   2.083
11201TIP3    H233545   2.139   5.080   2.086
11202TIP3   OH233546   6.080   1.336   6.574
11202TIP3    H133547   6.163   1.385   6.577
11202TIP3    H233548   6.035   1.360   6.655
11203TIP3   OH233549   6.953   3.016   0.824
11203TIP3    H133550   6.895   3.008   0.900
11203TIP3    H233551   6.993   2.929   0.816
11204TIP3   OH233552   2.483   3.515   3.148
11204TIP3    H133553   2.488   3.508   3.052
11204TIP3    H233554   2.417   3.451   3.174
11205TIP3   OH233555   3.785   1.784   5.600
11205TIP3    H133556   3.693   1.803   5.582
11205TIP3    H233557   3.806   1.710   5.543
11206TIP3   OH233558   3.990   6.961   1.918
11206TIP3    H133559   3.951   6.874   1.920
11206TIP3    H233560   4.040   6.963   1.837
11207TIP3   OH233561   8.356   5.256   4.564
11207TIP3    H133562   8.286   5.207   4.521
11207TIP3    H233563   8.365   5.336   4.511
11208TIP3   OH233564   0.028   6.131   2.942
11208TIP3    H133565   0.101   6.078   2.908
11208TIP3    H233566  -0.030   6.067   2.983
11209TIP3   OH233567   2.701   4.184   4.653
11209TIP3    H133568   2.626   4.218   4.604
11209TIP3    H233569   2.702   4.090   4.632
11210TIP3   OH233570   8.244   6.250   2.748
11210TIP3    H133571   8.165   6.241   2.801
11210TIP3    H233572   8.314   6.217   2.804
11211TIP3   OH233573   2.857   5.508   2.255
11211TIP3    H133574   2.899   5.524   2.339
11211TIP3    H233575   2.781   5.566   2.254
11212TIP3   OH233576   4.901   5.777   0.523
11212TIP3    H133577   4.966   5.794   0.591
11212TIP3    H233578   4.870   5.689   0.541
11213TIP3   OH233579   7.184   3.336   5.427
11213TIP3    H133580   7.098   3.298   5.448
11213TIP3    H233581   7.165   3.409   5.368
11214TIP3   OH233582   0.764   0.512   3.728
11214TIP3    H133583   0.674   0.530   3.753
11214TIP3    H233584   0.807   0.486   3.810
11215TIP3   OH233585   1.097   3.734   1.055
11215TIP3    H133586   1.177   3.779   1.081
11215TIP3    H233587   1.126   3.663   0.998
11216TIP3   OH233588   3.624   0.717   1.942
11216TIP3    H133589   3.543   0.712   1.892
11216TIP3    H233590   3.688   0.668   1.889
11217TIP3   OH233591   4.137   6.605   4.184
11217TIP3    H133592   4.204   6.669   4.159
11217TIP3    H233593   4.183   6.521   4.184
11218TIP3   OH233594   7.533   5.978   0.919
11218TIP3    H133595   7.469   5.935   0.863
11218TIP3    H233596   7.612   5.924   0.911
11219TIP3   OH233597   6.196   2.530   5.854
11219TIP3    H133598   6.276   2.479   5.848
11219TIP3    H233599   6.223   2.614   5.891
11220TIP3   OH233600   0.719   4.767   4.154
11220TIP3    H133601   0.735   4.730   4.241
11220TIP3    H233602   0.805   4.793   4.122
11221TIP3   OH233603   2.463   6.415   6.396
11221TIP3    H133604   2.547   6.374   6.374
11221TIP3    H233605   2.417   6.350   6.448
11222TIP3   OH233606   6.254   5.757   6.816
11222TIP3    H133607   6.211   5.680   6.853
11222TIP3    H233608   6.279   5.729   6.728
11223TIP3   OH233609   1.858   6.754   0.393
11223TIP3    H133610   1.801   6.818   0.351
11223TIP3    H233611   1.797   6.694   0.438
11224TIP3   OH233612   5.836   2.540   4.898
11224TIP3    H133613   5.880   2.550   4.814
11224TIP3    H233614   5.904   2.559   4.963
11225TIP3   OH233615   2.959   2.035   2.086
11225TIP3    H133616   2.923   1.958   2.042
11225TIP3    H233617   3.054   2.027   2.074
11226TIP3   OH233618   0.769   6.332   0.200
11226TIP3    H133619   0.864   6.331   0.210
11226TIP3    H233620   0.751   6.408   0.145
11227TIP3   OH233621   4.367   6.812   5.153
11227TIP3    H133622   4.447   6.830   5.202
11227TIP3    H233623   4.297   6.821   5.218
11228TIP3   OH233624   4.589   0.421   0.282
11228TIP3    H133625   4.682   0.431   0.266
11228TIP3    H233626   4.583   0.358   0.354
11229TIP3   OH233627   0.764   0.672   6.166
11229TIP3    H133628   0.850   0.708   6.184
11229TIP3    H233629   0.765   0.653   6.072
11230TIP3   OH233630   1.770   4.284   0.044
11230TIP3    H133631   1.835   4.270   0.113
11230TIP3    H233632   1.816   4.260  -0.037
11231TIP3   OH233633   2.022   5.287   3.991
11231TIP3    H133634   2.030   5.205   3.941
11231TIP3    H233635   1.959   5.339   3.940
11232TIP3   OH233636   6.379   0.476   3.606
11232TIP3    H133637   6.365   0.519   3.690
11232TIP3    H233638   6.378   0.383   3.626
11233TIP3   OH233639   3.139   3.906   5.706
11233TIP3    H133640   3.132   3.986   5.757
11233TIP3    H233641   3.217   3.919   5.651
11234TIP3   OH233642   3.009   0.216   0.277
11234TIP3    H133643   2.943   0.148   0.291
11234TIP3    H233644   3.039   0.239   0.365
11235TIP3   OH233645   0.473   3.008   5.942
11235TIP3    H133646   0.383   3.040   5.936
11235TIP3    H233647   0.527   3.082   5.914
11236TIP3   OH233648   2.519   3.428   6.027
11236TIP3    H133649   2.592   3.390   5.979
11236TIP3    H233650   2.441   3.391   5.984
11237TIP3   OH233651   8.293   6.196   4.064
11237TIP3    H133652   8.255   6.155   4.141
11237TIP3    H233653   8.221   6.201   4.001
11238TIP3   OH233654   2.681   1.218   0.964
11238TIP3    H133655   2.631   1.298   0.947
11238TIP3    H233656   2.687   1.212   1.059
11239TIP3   OH233657   6.348   4.042   4.995
11239TIP3    H133658   6.318   3.993   4.919
11239TIP3    H233659   6.316   4.131   4.982
11240TIP3   OH233660   0.013   4.592   3.670
11240TIP3    H133661  -0.046   4.540   3.616
11240TIP3    H233662   0.078   4.528   3.702
11241TIP3   OH233663   2.386   5.910   2.463
11241TIP3    H133664   2.398   6.005   2.460
11241TIP3    H233665   2.420   5.885   2.549
11242TIP3   OH233666   3.379   6.647   6.796
11242TIP3    H133667   3.445   6.581   6.819
11242TIP3    H233668   3.418   6.730   6.825
11243TIP3   OH233669   2.449   1.073   4.172
11243TIP3    H133670   2.512   1.001   4.181
11243TIP3    H233671   2.363   1.031   4.177
11244TIP3   OH233672   2.856   7.862   6.010
11244TIP3    H133673   2.905   7.873   5.928
11244TIP3    H233674   2.772   7.905   5.995
11245TIP3   OH233675   2.651   7.315   2.534
11245TIP3    H133676   2.593   7.295   2.608
11245TIP3    H233677   2.617   7.396   2.498
11246TIP3   OH233678   2.206   1.425   5.490
11246TIP3    H133679   2.149   1.404   5.415
11246TIP3    H233680   2.221   1.519   5.483
11247TIP3   OH233681   7.292   4.926   6.082
11247TIP3    H133682   7.234   4.954   6.154
11247TIP3    H233683   7.340   4.852   6.118
11248TIP3   OH233684   6.390   4.660   0.333
11248TIP3    H133685   6.429   4.573   0.335
11248TIP3    H233686   6.459   4.716   0.298
11249TIP3   OH233687   5.916   0.725   3.649
11249TIP3    H133688   5.982   0.793   3.639
11249TIP3    H233689   5.956   0.661   3.708
11250TIP3   OH233690   3.524   1.351   4.822
11250TIP3    H133691   3.453   1.367   4.760
11250TIP3    H233692   3.538   1.435   4.866
11251TIP3   OH233693   0.738   5.277   1.041
11251TIP3    H133694   0.682   5.201   1.025
11251TIP3    H233695   0.681   5.353   1.027
11252TIP3   OH233696   7.522   2.112   2.320
11252TIP3    H133697   7.592   2.176   2.324
11252TIP3    H233698   7.457   2.143   2.383
11253TIP3   OH233699   6.236   5.249   0.749
11253TIP3    H133700   6.169   5.213   0.691
11253TIP3    H233701   6.187   5.306   0.809
11254TIP3   OH233702   7.922   0.519   1.915
11254TIP3    H133703   7.933   0.599   1.863
11254TIP3    H233704   7.916   0.550   2.005
11255TIP3   OH233705   7.353   3.184   6.758
11255TIP3    H133706   7.375   3.164   6.849
11255TIP3    H233707   7.337   3.099   6.718
11256TIP3   OH233708   2.507   2.480   5.627
11256TIP3    H133709   2.538   2.533   5.553
11256TIP3    H233710   2.520   2.536   5.704
11257TIP3   OH233711   2.136   5.481   1.637
11257TIP3    H133712   2.113   5.458   1.727
11257TIP3    H233713   2.199   5.415   1.610
11258TIP3   OH233714   4.818   2.001   0.384
11258TIP3    H133715   4.726   2.027   0.385
11258TIP3    H233716   4.824   1.930   0.447
11259TIP3   OH233717   3.002   2.571   0.978
11259TIP3    H133718   3.048   2.489   0.999
11259TIP3    H233719   3.057   2.639   1.017
11260TIP3   OH233720   6.104   6.670   5.701
11260TIP3    H133721   6.101   6.591   5.648
11260TIP3    H233722   6.173   6.655   5.765
11261TIP3   OH233723   5.954   2.101   1.577
11261TIP3    H133724   6.048   2.097   1.562
11261TIP3    H233725   5.916   2.045   1.509
11262TIP3   OH233726   7.452   2.886   5.036
11262TIP3    H133727   7.404   2.952   5.087
11262TIP3    H233728   7.517   2.851   5.096
11263TIP3   OH233729   5.449   7.674   1.915
11263TIP3    H133730   5.363   7.676   1.958
11263TIP3    H233731   5.475   7.582   1.917
11264TIP3   OH233732   4.381   6.679   2.664
11264TIP3    H133733   4.392   6.630   2.745
11264TIP3    H233734   4.468   6.677   2.623
11265TIP3   OH233735   1.461   7.319   1.606
11265TIP3    H133736   1.498   7.348   1.689
11265TIP3    H233737   1.511   7.365   1.540
11266TIP3   OH233738   8.180   2.668   6.771
11266TIP3    H133739   8.169   2.717   6.689
11266TIP3    H233740   8.182   2.736   6.838
11267TIP3   OH233741   4.885   4.863   1.211
11267TIP3    H133742   4.886   4.860   1.306
11267TIP3    H233743   4.844   4.780   1.184
11268TIP3   OH233744   8.072   7.526   3.578
11268TIP3    H133745   8.018   7.537   3.655
11268TIP3    H233746   8.152   7.485   3.610
11269TIP3   OH233747   7.750   5.423   4.748
11269TIP3    H133748   7.748   5.345   4.803
11269TIP3    H233749   7.805   5.398   4.673
11270TIP3   OH233750   5.986   1.045   0.860
11270TIP3    H133751   5.913   1.104   0.880
11270TIP3    H233752   5.959   0.961   0.898
11271TIP3   OH233753   8.077   1.610   0.859
11271TIP3    H133754   8.122   1.563   0.789
11271TIP3    H233755   8.054   1.695   0.820
11272TIP3   OH233756   4.461   5.266   5.518
11272TIP3    H133757   4.425   5.178   5.520
11272TIP3    H233758   4.385   5.323   5.531
11273TIP3   OH233759   4.024   2.414   1.833
11273TIP3    H133760   4.004   2.334   1.882
11273TIP3    H233761   4.094   2.388   1.773
11274TIP3   OH233762   3.202   1.157   4.723
11274TIP3    H133763   3.251   1.132   4.802
11274TIP3    H233764   3.264   1.206   4.670
11275TIP3   OH233765   8.181   7.527   3.176
11275TIP3    H133766   8.238   7.471   3.123
11275TIP3    H233767   8.172   7.608   3.125
11276TIP3   OH233768   0.840   3.635   0.087
11276TIP3    H133769   0.773   3.569   0.071
11276TIP3    H233770   0.838   3.691   0.010
11277TIP3   OH233771   0.558   1.295   2.048
11277TIP3    H133772   0.562   1.218   2.105
11277TIP3    H233773   0.473   1.289   2.005
11278TIP3   OH233774   4.156   1.022   4.991
11278TIP3    H133775   4.169   1.117   4.981
11278TIP3    H233776   4.134   0.992   4.903
11279TIP3   OH233777   6.073   0.483   6.816
11279TIP3    H133778   6.005   0.550   6.816
11279TIP3    H233779   6.153   0.531   6.795
11280TIP3   OH233780   2.980   0.378   6.158
11280TIP3    H133781   3.056   0.423   6.193
11280TIP3    H233782   2.905   0.430   6.186
11281TIP3   OH233783   0.857   1.306   3.333
11281TIP3    H133784   0.881   1.386   3.286
11281TIP3    H233785   0.761   1.308   3.337
11282TIP3   OH233786   6.188   4.927   4.093
11282TIP3    H133787   6.102   4.970   4.091
11282TIP3    H233788   6.243   4.980   4.036
11283TIP3   OH233789   8.301   7.882   4.109
11283TIP3    H133790   8.384   7.849   4.075
11283TIP3    H233791   8.261   7.806   4.153
11284TIP3   OH233792   4.355   6.156   5.879
11284TIP3    H133793   4.352   6.176   5.973
11284TIP3    H233794   4.362   6.061   5.875
11285TIP3   OH233795   2.935   2.203   3.679
11285TIP3    H133796   2.906   2.251   3.601
11285TIP3    H233797   2.997   2.263   3.721
11286TIP3   OH233798   2.884   4.410   1.894
11286TIP3    H133799   2.793   4.399   1.867
11286TIP3    H233800   2.934   4.357   1.833
11287TIP3   OH233801   7.309   4.301   1.615
11287TIP3    H133802   7.272   4.309   1.703
11287TIP3    H233803   7.349   4.386   1.597
11288TIP3   OH233804   5.792   2.041   4.871
11288TIP3    H133805   5.815   2.113   4.813
11288TIP3    H233806   5.702   2.059   4.898
11289TIP3   OH233807   7.837   5.389   3.252
11289TIP3    H133808   7.929   5.413   3.252
11289TIP3    H233809   7.837   5.293   3.244
11290TIP3   OH233810   6.989   5.683   3.372
11290TIP3    H133811   6.989   5.645   3.460
11290TIP3    H233812   7.079   5.672   3.342
11291TIP3   OH233813   0.752   4.051   5.141
11291TIP3    H133814   0.755   4.095   5.056
11291TIP3    H233815   0.721   4.119   5.201
11292TIP3   OH233816   0.909   1.230   3.020
11292TIP3    H133817   0.979   1.166   3.007
11292TIP3    H233818   0.829   1.179   3.021
11293TIP3   OH233819   0.951   7.112   4.745
11293TIP3    H133820   0.935   7.206   4.734
11293TIP3    H233821   0.927   7.074   4.660
11294TIP3   OH233822   0.736   5.184   3.593
11294TIP3    H133823   0.820   5.195   3.637
11294TIP3    H233824   0.676   5.242   3.640
11295TIP3   OH233825   3.272   2.177   5.598
11295TIP3    H133826   3.304   2.199   5.686
11295TIP3    H233827   3.350   2.148   5.551
11296TIP3   OH233828   2.876   5.906   0.002
11296TIP3    H133829   2.966   5.887   0.027
11296TIP3    H233830   2.875   6.000  -0.017
11297TIP3   OH233831   7.582   2.377   6.156
11297TIP3    H133832   7.507   2.437   6.155
11297TIP3    H233833   7.620   2.385   6.068
11298TIP3   OH233834   5.888   7.679   5.553
11298TIP3    H133835   5.854   7.677   5.642
11298TIP3    H233836   5.812   7.698   5.499
11299TIP3   OH233837   3.171   1.675   4.262
11299TIP3    H133838   3.197   1.684   4.354
11299TIP3    H233839   3.253   1.660   4.215
11300TIP3   OH233840   3.520   6.834   0.881
11300TIP3    H133841   3.447   6.823   0.820
11300TIP3    H233842   3.478   6.841   0.967
11301TIP3   OH233843   3.849   4.725   5.388
11301TIP3    H133844   3.904   4.680   5.453
11301TIP3    H233845   3.801   4.654   5.345
11302TIP3   OH233846   2.008   4.653   5.652
11302TIP3    H133847   2.034   4.594   5.582
11302TIP3    H233848   2.074   4.639   5.721
11303TIP3   OH233849   4.610   7.415   0.958
11303TIP3    H133850   4.637   7.329   0.989
11303TIP3    H233851   4.554   7.450   1.027
11304TIP3   OH233852   5.541   0.706   6.771
11304TIP3    H133853   5.635   0.720   6.763
11304TIP3    H233854   5.525   0.702   6.865
11305TIP3   OH233855   0.561   1.832   2.333
11305TIP3    H133856   0.609   1.898   2.282
11305TIP3    H233857   0.490   1.881   2.374
11306TIP3   OH233858   0.737   0.092   6.631
11306TIP3    H133859   0.747   0.124   6.720
11306TIP3    H233860   0.649   0.120   6.605
11307TIP3   OH233861   8.241   2.201   5.419
11307TIP3    H133862   8.260   2.119   5.372
11307TIP3    H233863   8.224   2.265   5.349
11308TIP3   OH233864   5.093   7.205   6.087
11308TIP3    H133865   5.082   7.123   6.039
11308TIP3    H233866   5.011   7.252   6.071
11309TIP3   OH233867   0.913   0.441   1.964
11309TIP3    H133868   0.829   0.399   1.983
11309TIP3    H233869   0.933   0.493   2.042
11310TIP3   OH233870   5.106   3.800   2.091
11310TIP3    H133871   5.076   3.753   2.013
11310TIP3    H233872   5.082   3.743   2.164
11311TIP3   OH233873   2.379   3.963   2.554
11311TIP3    H133874   2.394   4.026   2.625
11311TIP3    H233875   2.430   3.997   2.481
11312TIP3   OH233876   0.109   1.352   4.119
11312TIP3    H133877   0.117   1.384   4.208
11312TIP3    H233878   0.070   1.265   4.128
11313TIP3   OH233879   3.160   3.798   1.273
11313TIP3    H133880   3.228   3.740   1.239
11313TIP3    H233881   3.190   3.886   1.252
11314TIP3   OH233882   4.030   0.040   5.666
11314TIP3    H133883   4.018   0.009   5.576
11314TIP3    H233884   4.066   0.128   5.656
11315TIP3   OH233885   4.368   3.237   1.716
11315TIP3    H133886   4.406   3.308   1.664
11315TIP3    H233887   4.274   3.241   1.697
11316TIP3   OH233888   7.186   5.163   3.836
11316TIP3    H133889   7.272   5.196   3.810
11316TIP3    H233890   7.138   5.154   3.754
11317TIP3   OH233891   5.781   7.059   2.088
11317TIP3    H133892   5.787   7.146   2.128
11317TIP3    H233893   5.773   6.999   2.162
11318TIP3   OH233894   8.018   4.308   0.481
11318TIP3    H133895   8.099   4.280   0.438
11318TIP3    H233896   7.984   4.230   0.524
11319TIP3   OH233897   3.407   7.599   2.503
11319TIP3    H133898   3.312   7.604   2.510
11319TIP3    H233899   3.434   7.686   2.473
11320TIP3   OH233900   7.055   3.746   6.654
11320TIP3    H133901   7.140   3.780   6.684
11320TIP3    H233902   7.067   3.732   6.560
11321TIP3   OH233903   7.189   1.588   0.469
11321TIP3    H133904   7.175   1.665   0.414
11321TIP3    H233905   7.132   1.521   0.432
11322TIP3   OH233906   1.029   7.038   3.031
11322TIP3    H133907   0.962   7.105   3.044
11322TIP3    H233908   1.099   7.083   2.983
11323TIP3   OH233909   4.777   6.480   0.808
11323TIP3    H133910   4.730   6.558   0.837
11323TIP3    H233911   4.827   6.509   0.732
11324TIP3   OH233912   2.639   4.269   0.574
11324TIP3    H133913   2.567   4.228   0.527
11324TIP3    H233914   2.627   4.242   0.665
11325TIP3   OH233915   5.127   0.014   0.714
11325TIP3    H133916   5.196  -0.017   0.656
11325TIP3    H233917   5.118   0.107   0.692
11326TIP3   OH233918   6.483   1.231   4.503
11326TIP3    H133919   6.474   1.307   4.561
11326TIP3    H233920   6.543   1.173   4.550
11327TIP3   OH233921   3.688   1.347   6.383
11327TIP3    H133922   3.611   1.355   6.438
11327TIP3    H233923   3.747   1.415   6.414
11328TIP3   OH233924   2.560   6.741   0.485
11328TIP3    H133925   2.652   6.725   0.506
11328TIP3    H233926   2.538   6.675   0.420
11329TIP3   OH233927   3.567   2.178   6.469
11329TIP3    H133928   3.636   2.221   6.520
11329TIP3    H233929   3.487   2.224   6.494
11330TIP3   OH233930   2.634   3.754   3.092
11330TIP3    H133931   2.583   3.677   3.116
11330TIP3    H233932   2.579   3.801   3.029
11331TIP3   OH233933   6.642   7.417   5.111
11331TIP3    H133934   6.551   7.419   5.081
11331TIP3    H233935   6.637   7.432   5.205
11332TIP3   OH233936   3.841   7.014   0.147
11332TIP3    H133937   3.798   6.982   0.227
11332TIP3    H233938   3.877   7.099   0.172
11333TIP3   OH233939   4.893   2.259   1.347
11333TIP3    H133940   4.817   2.212   1.380
11333TIP3    H233941   4.856   2.330   1.294
11334TIP3   OH233942   5.004   6.055   1.549
11334TIP3    H133943   5.036   6.125   1.493
11334TIP3    H233944   4.909   6.054   1.535
11335TIP3   OH233945   5.372   2.072   2.323
11335TIP3    H133946   5.352   2.031   2.238
11335TIP3    H233947   5.447   2.023   2.356
11336TIP3   OH233948   2.022   7.049   0.967
11336TIP3    H133949   2.056   7.106   1.037
11336TIP3    H233950   2.041   7.097   0.887
11337TIP3   OH233951   6.767   3.378   4.489
11337TIP3    H133952   6.782   3.468   4.520
11337TIP3    H233953   6.707   3.340   4.554
11338TIP3   OH233954   5.570   1.770   5.292
11338TIP3    H133955   5.588   1.863   5.283
11338TIP3    H233956   5.615   1.729   5.218
11339TIP3   OH233957   0.242   0.363   0.006
11339TIP3    H133958   0.238   0.310   0.085
11339TIP3    H233959   0.332   0.397   0.003
11340TIP3   OH233960   1.703   6.571   4.233
11340TIP3    H133961   1.744   6.608   4.155
11340TIP3    H233962   1.776   6.536   4.284
11341TIP3   OH233963   7.620   2.632   5.092
11341TIP3    H133964   7.545   2.581   5.121
11341TIP3    H233965   7.643   2.595   5.007
11342TIP3   OH233966   1.244   6.203   1.141
11342TIP3    H133967   1.203   6.267   1.200
11342TIP3    H233968   1.332   6.238   1.124
11343TIP3   OH233969   7.679   5.756   4.255
11343TIP3    H133970   7.639   5.734   4.339
11343TIP3    H233971   7.629   5.831   4.224
11344TIP3   OH233972   6.368   5.054   6.353
11344TIP3    H133973   6.318   5.042   6.273
11344TIP3    H233974   6.403   4.967   6.373
11345TIP3   OH233975   4.077   6.720   1.259
11345TIP3    H133976   4.045   6.808   1.237
11345TIP3    H233977   3.998   6.669   1.275
11346TIP3   OH233978   4.204   5.074   6.687
11346TIP3    H133979   4.274   5.080   6.753
11346TIP3    H233980   4.176   5.165   6.675
11347TIP3   OH233981   7.425   7.655   1.234
11347TIP3    H133982   7.364   7.596   1.279
11347TIP3    H233983   7.420   7.629   1.142
11348TIP3   OH233984   1.196   7.469   6.667
11348TIP3    H133985   1.263   7.417   6.712
11348TIP3    H233986   1.244   7.513   6.597
11349TIP3   OH233987   6.030   6.903   2.044
11349TIP3    H133988   5.968   6.963   2.087
11349TIP3    H233989   5.983   6.819   2.042
11350TIP3   OH233990   6.939   6.198   0.159
11350TIP3    H133991   7.020   6.157   0.130
11350TIP3    H233992   6.968   6.277   0.205
11351TIP3   OH233993   3.877   4.805   2.055
11351TIP3    H133994   3.944   4.867   2.028
11351TIP3    H233995   3.885   4.731   1.995
11352TIP3   OH233996   5.836   7.784   1.508
11352TIP3    H133997   5.895   7.730   1.456
11352TIP3    H233998   5.892   7.821   1.577
11353TIP3   OH233999   2.769   5.747   6.481
11353TIP3    H134000   2.688   5.710   6.447
11353TIP3    H234001   2.746   5.837   6.504
11354TIP3   OH234002   4.210   5.707   6.443
11354TIP3    H134003   4.161   5.634   6.482
11354TIP3    H234004   4.233   5.762   6.517
11355TIP3   OH234005   3.539   0.731   4.154
11355TIP3    H134006   3.593   0.808   4.174
11355TIP3    H234007   3.501   0.750   4.069
11356TIP3   OH234008   6.832   6.537   3.589
11356TIP3    H134009   6.810   6.623   3.554
11356TIP3    H234010   6.834   6.549   3.684
11357TIP3   OH234011   7.068   5.973   5.343
11357TIP3    H134012   7.146   5.975   5.288
11357TIP3    H234013   6.999   6.010   5.289
11358TIP3   OH234014   7.048   5.491   1.759
11358TIP3    H134015   7.013   5.460   1.843
11358TIP3    H234016   7.053   5.587   1.770
11359TIP3   OH234017   4.541   6.751   5.392
11359TIP3    H134018   4.496   6.682   5.441
11359TIP3    H234019   4.630   6.719   5.381
11360TIP3   OH234020   1.263   3.849   3.008
11360TIP3    H134021   1.178   3.827   3.048
11360TIP3    H234022   1.242   3.915   2.942
11361TIP3   OH234023   5.328   5.703   0.828
11361TIP3    H134024   5.415   5.683   0.862
11361TIP3    H234025   5.269   5.693   0.903
11362TIP3   OH234026   2.786   3.787   0.685
11362TIP3    H134027   2.729   3.859   0.710
11362TIP3    H234028   2.730   3.709   0.691
11363TIP3   OH234029   0.209   5.610   2.432
11363TIP3    H134030   0.138   5.673   2.447
11363TIP3    H234031   0.289   5.661   2.448
11364TIP3   OH234032   7.102   1.046   6.781
11364TIP3    H134033   7.183   1.096   6.769
11364TIP3    H234034   7.100   0.985   6.707
11365TIP3   OH234035   3.416   2.026   0.369
11365TIP3    H134036   3.442   2.071   0.450
11365TIP3    H234037   3.476   2.059   0.303
11366TIP3   OH234038   2.786   5.671   2.586
11366TIP3    H134039   2.745   5.584   2.590
11366TIP3    H234040   2.713   5.732   2.581
11367TIP3   OH234041   3.791   5.600   2.318
11367TIP3    H134042   3.789   5.527   2.380
11367TIP3    H234043   3.711   5.649   2.336
11368TIP3   OH234044   7.662   1.536   3.588
11368TIP3    H134045   7.625   1.451   3.612
11368TIP3    H234046   7.593   1.599   3.610
11369TIP3   OH234047   7.368   2.489   2.245
11369TIP3    H134048   7.359   2.540   2.165
11369TIP3    H234049   7.455   2.509   2.277
11370TIP3   OH234050   7.052   2.534   5.088
11370TIP3    H134051   6.971   2.569   5.051
11370TIP3    H234052   7.039   2.539   5.182
11371TIP3   OH234053   3.156   7.467   2.582
11371TIP3    H134054   3.067   7.432   2.590
11371TIP3    H234055   3.194   7.419   2.508
11372TIP3   OH234056   6.429   0.970   5.321
11372TIP3    H134057   6.458   1.021   5.397
11372TIP3    H234058   6.421   0.880   5.353
11373TIP3   OH234059   2.846   6.091   6.313
11373TIP3    H134060   2.831   6.062   6.404
11373TIP3    H234061   2.837   6.011   6.261
11374TIP3   OH234062   5.103   6.858   2.049
11374TIP3    H134063   5.040   6.878   2.118
11374TIP3    H234064   5.054   6.803   1.987
11375TIP3   OH234065   1.270   4.306   3.864
11375TIP3    H134066   1.308   4.288   3.778
11375TIP3    H234067   1.222   4.388   3.852
11376TIP3   OH234068   2.091   2.936   4.547
11376TIP3    H134069   2.021   2.874   4.567
11376TIP3    H234070   2.088   2.999   4.620
11377TIP3   OH234071   0.273   0.843   5.202
11377TIP3    H134072   0.252   0.853   5.109
11377TIP3    H234073   0.279   0.749   5.216
11378TIP3   OH234074   4.658   6.610   3.506
11378TIP3    H134075   4.722   6.641   3.442
11378TIP3    H234076   4.614   6.537   3.462
11379TIP3   OH234077   6.612   1.982   6.327
11379TIP3    H134078   6.531   1.952   6.285
11379TIP3    H234079   6.586   2.058   6.378
11380TIP3   OH234080   1.827   1.512   5.344
11380TIP3    H134081   1.785   1.428   5.326
11380TIP3    H234082   1.818   1.522   5.439
11381TIP3   OH234083   2.175   1.097   4.550
11381TIP3    H134084   2.183   1.004   4.529
11381TIP3    H234085   2.210   1.142   4.473
11382TIP3   OH234086   6.777   7.703   2.531
11382TIP3    H134087   6.846   7.641   2.507
11382TIP3    H234088   6.771   7.763   2.456
11383TIP3   OH234089   6.579   2.281   3.315
11383TIP3    H134090   6.566   2.316   3.403
11383TIP3    H234091   6.627   2.200   3.327
11384TIP3   OH234092   1.345   4.694   3.458
11384TIP3    H134093   1.312   4.747   3.530
11384TIP3    H234094   1.440   4.692   3.471
11385TIP3   OH234095   4.393   3.623   3.752
11385TIP3    H134096   4.306   3.656   3.730
11385TIP3    H234097   4.408   3.552   3.690
11386TIP3   OH234098   6.176   7.795   2.945
11386TIP3    H134099   6.224   7.873   2.917
11386TIP3    H234100   6.182   7.796   3.040
11387TIP3   OH234101   2.403   6.207   1.834
11387TIP3    H134102   2.333   6.200   1.769
11387TIP3    H234103   2.411   6.301   1.851
11388TIP3   OH234104   6.802   5.064   5.413
11388TIP3    H134105   6.722   5.033   5.454
11388TIP3    H234106   6.853   4.985   5.395
11389TIP3   OH234107   3.203  -0.002   4.878
11389TIP3    H134108   3.181   0.059   4.948
11389TIP3    H234109   3.123  -0.052   4.864
11390TIP3   OH234110   3.563   1.485   3.310
11390TIP3    H134111   3.616   1.406   3.306
11390TIP3    H234112   3.604   1.539   3.377
11391TIP3   OH234113   0.031   6.553   4.610
11391TIP3    H134114   0.118   6.524   4.581
11391TIP3    H234115   0.019   6.508   4.694
11392TIP3   OH234116   8.030   4.015   2.734
11392TIP3    H134117   8.034   3.952   2.806
11392TIP3    H234118   8.094   3.982   2.670
11393TIP3   OH234119   7.470   1.500   4.277
11393TIP3    H134120   7.460   1.563   4.206
11393TIP3    H234121   7.551   1.453   4.257
11394TIP3   OH234122   6.919   7.041   3.973
11394TIP3    H134123   6.998   7.033   3.919
11394TIP3    H234124   6.932   6.976   4.043
11395TIP3   OH234125   0.935   7.863   0.934
11395TIP3    H134126   0.846   7.886   0.907
11395TIP3    H234127   0.990   7.931   0.895
11396TIP3   OH234128   7.295   1.697   0.717
11396TIP3    H134129   7.337   1.619   0.754
11396TIP3    H234130   7.259   1.666   0.633
11397TIP3   OH234131   5.070   7.178   5.436
11397TIP3    H134132   5.157   7.212   5.417
11397TIP3    H234133   5.040   7.140   5.354
11398TIP3   OH234134   8.075   7.185   2.875
11398TIP3    H134135   8.028   7.189   2.791
11398TIP3    H234136   8.048   7.102   2.914
11399TIP3   OH234137   3.637   4.254   4.138
11399TIP3    H134138   3.590   4.288   4.062
11399TIP3    H234139   3.718   4.304   4.141
11400TIP3   OH234140   0.445   0.333   4.002
11400TIP3    H134141   0.428   0.289   4.085
11400TIP3    H234142   0.382   0.405   3.999
11401TIP3   OH234143   0.418   0.543   4.485
11401TIP3    H134144   0.396   0.462   4.532
11401TIP3    H234145   0.397   0.612   4.547
11402TIP3   OH234146   4.407   0.066   2.070
11402TIP3    H134147   4.472  -0.005   2.073
11402TIP3    H234148   4.416   0.103   1.982
11403TIP3   OH234149   7.513   2.826   0.684
11403TIP3    H134150   7.594   2.875   0.668
11403TIP3    H234151   7.539   2.755   0.741
11404TIP3   OH234152   3.361   0.203   2.779
11404TIP3    H134153   3.420   0.245   2.842
11404TIP3    H234154   3.398   0.116   2.767
11405TIP3   OH234155   6.266   2.049   5.959
11405TIP3    H134156   6.206   1.982   5.991
11405TIP3    H234157   6.219   2.091   5.887
11406TIP3   OH234158   5.441   6.256   2.832
11406TIP3    H134159   5.505   6.185   2.828
11406TIP3    H234160   5.454   6.294   2.919
11407TIP3   OH234161   4.212   2.481   6.109
11407TIP3    H134162   4.287   2.530   6.144
11407TIP3    H234163   4.136   2.533   6.132
11408TIP3   OH234164   3.029   6.464   3.185
11408TIP3    H134165   2.968   6.497   3.251
11408TIP3    H234166   3.020   6.525   3.112
11409TIP3   OH234167   5.961   5.079   4.018
11409TIP3    H134168   5.951   5.037   3.932
11409TIP3    H234169   5.904   5.156   4.014
11410TIP3   OH234170   3.395   4.405   4.874
11410TIP3    H134171   3.328   4.466   4.905
11410TIP3    H234172   3.382   4.401   4.779
11411TIP3   OH234173   1.214   5.915   6.560
11411TIP3    H134174   1.199   5.878   6.648
11411TIP3    H234175   1.127   5.920   6.521
11412TIP3   OH234176   0.431   1.947   4.671
11412TIP3    H134177   0.455   1.931   4.762
11412TIP3    H234178   0.436   2.042   4.662
11413TIP3   OH234179   2.218   3.841   3.969
11413TIP3    H134180   2.184   3.927   3.994
11413TIP3    H234181   2.148   3.802   3.917
11414TIP3   OH234182   6.315   5.578   2.266
11414TIP3    H134183   6.254   5.580   2.192
11414TIP3    H234184   6.322   5.485   2.288
11415TIP3   OH234185   2.770   5.721   5.811
11415TIP3    H134186   2.822   5.683   5.741
11415TIP3    H234187   2.782   5.816   5.802
11416TIP3   OH234188   0.129   6.316   2.408
11416TIP3    H134189   0.083   6.256   2.467
11416TIP3    H234190   0.219   6.318   2.440
11417TIP3   OH234191   1.444   1.969   0.921
11417TIP3    H134192   1.448   1.874   0.932
11417TIP3    H234193   1.501   1.987   0.846
11418TIP3   OH234194   7.206   1.076   1.815
11418TIP3    H134195   7.174   1.108   1.900
11418TIP3    H234196   7.177   1.142   1.752
11419TIP3   OH234197   4.024   2.097   2.881
11419TIP3    H134198   4.032   2.007   2.849
11419TIP3    H234199   4.107   2.115   2.924
11420TIP3   OH234200   1.052   0.871   5.739
11420TIP3    H134201   1.103   0.809   5.791
11420TIP3    H234202   1.005   0.924   5.803
11421TIP3   OH234203   0.077   7.240   6.616
11421TIP3    H134204   0.068   7.151   6.651
11421TIP3    H234205   0.111   7.227   6.527
11422TIP3   OH234206   6.451   2.091   2.342
11422TIP3    H134207   6.470   1.999   2.324
11422TIP3    H234208   6.405   2.123   2.265
11423TIP3   OH234209   1.461   4.622   5.878
11423TIP3    H134210   1.377   4.605   5.921
11423TIP3    H234211   1.488   4.537   5.844
11424TIP3   OH234212   6.526   1.927   6.648
11424TIP3    H134213   6.485   2.013   6.660
11424TIP3    H234214   6.512   1.906   6.555
11425TIP3   OH234215   4.153   0.565   2.375
11425TIP3    H134216   4.236   0.527   2.406
11425TIP3    H234217   4.153   0.548   2.281
11426TIP3   OH234218   6.573   0.866   2.829
11426TIP3    H134219   6.485   0.890   2.800
11426TIP3    H234220   6.603   0.941   2.880
11427TIP3   OH234221   8.299   6.632   2.954
11427TIP3    H134222   8.319   6.723   2.973
11427TIP3    H234223   8.253   6.601   3.032
11428TIP3   OH234224   8.102   5.670   3.703
11428TIP3    H134225   8.185   5.621   3.706
11428TIP3    H234226   8.098   5.714   3.788
11429TIP3   OH234227   1.834   2.667   1.639
11429TIP3    H134228   1.922   2.659   1.603
11429TIP3    H234229   1.846   2.663   1.734
11430TIP3   OH234230   8.098   5.130   2.275
11430TIP3    H134231   8.056   5.071   2.338
11430TIP3    H234232   8.133   5.072   2.207
11431TIP3   OH234233   7.601   4.562   5.451
11431TIP3    H134234   7.568   4.606   5.529
11431TIP3    H234235   7.695   4.551   5.467
11432TIP3   OH234236   6.060   5.845   1.120
11432TIP3    H134237   6.036   5.893   1.200
11432TIP3    H234238   6.031   5.755   1.137
11433TIP3   OH234239   6.787   3.001   4.029
11433TIP3    H134240   6.755   2.936   4.091
11433TIP3    H234241   6.779   2.958   3.944
11434TIP3   OH234242   7.056   2.240   5.408
11434TIP3    H134243   7.055   2.229   5.313
11434TIP3    H234244   7.147   2.263   5.429
11435TIP3   OH234245   1.619   4.479   1.214
11435TIP3    H134246   1.526   4.461   1.229
11435TIP3    H234247   1.646   4.527   1.292
11436TIP3   OH234248   0.503   6.330   1.309
11436TIP3    H134249   0.413   6.354   1.289
11436TIP3    H234250   0.532   6.278   1.234
11437TIP3   OH234251   6.755   5.223   5.177
11437TIP3    H134252   6.782   5.165   5.248
11437TIP3    H234253   6.676   5.182   5.142
11438TIP3   OH234254   4.173   6.818   2.607
11438TIP3    H134255   4.168   6.913   2.619
11438TIP3    H234256   4.264   6.796   2.627
11439TIP3   OH234257   8.158   4.573   3.506
11439TIP3    H134258   8.131   4.578   3.414
11439TIP3    H234259   8.077   4.589   3.555
11440TIP3   OH234260   6.609   4.608   2.389
11440TIP3    H134261   6.577   4.635   2.303
11440TIP3    H234262   6.533   4.613   2.447
11441TIP3   OH234263   2.596   2.314   4.100
11441TIP3    H134264   2.503   2.328   4.083
11441TIP3    H234265   2.608   2.220   4.092
11442TIP3   OH234266   4.125   1.265   0.874
11442TIP3    H134267   4.037   1.255   0.909
11442TIP3    H234268   4.181   1.223   0.939
11443TIP3   OH234269   3.884   4.499   2.322
11443TIP3    H134270   3.960   4.441   2.327
11443TIP3    H234271   3.919   4.587   2.335
11444TIP3   OH234272   6.332   3.275   5.879
11444TIP3    H134273   6.384   3.237   5.808
11444TIP3    H234274   6.268   3.207   5.901
11445TIP3   OH234275   8.177   0.059   6.006
11445TIP3    H134276   8.143   0.046   5.917
11445TIP3    H234277   8.152   0.149   6.028
11446TIP3   OH234278   1.696   5.629   1.334
11446TIP3    H134279   1.655   5.693   1.393
11446TIP3    H234280   1.782   5.667   1.314
11447TIP3   OH234281   2.540   7.373   6.429
11447TIP3    H134282   2.454   7.345   6.399
11447TIP3    H234283   2.565   7.308   6.495
11448TIP3   OH234284   2.122   2.073   4.167
11448TIP3    H134285   2.089   2.079   4.256
11448TIP3    H234286   2.168   1.989   4.163
11449TIP3   OH234287   6.620   7.227   4.518
11449TIP3    H134288   6.670   7.254   4.441
11449TIP3    H234289   6.582   7.309   4.551
11450TIP3   OH234290   2.497   7.760   0.549
11450TIP3    H134291   2.451   7.681   0.576
11450TIP3    H234292   2.510   7.749   0.455
11451TIP3   OH234293   7.032   3.095   2.766
11451TIP3    H134294   7.043   3.173   2.712
11451TIP3    H234295   6.973   3.039   2.715
11452TIP3   OH234296   5.460   2.766   6.575
11452TIP3    H134297   5.532   2.807   6.528
11452TIP3    H234298   5.454   2.814   6.657
11453TIP3   OH234299   7.209   6.410   4.774
11453TIP3    H134300   7.186   6.427   4.683
11453TIP3    H234301   7.125   6.394   4.818
11454TIP3   OH234302   3.499   6.380   6.281
11454TIP3    H134303   3.420   6.359   6.331
11454TIP3    H234304   3.485   6.469   6.250
11455TIP3   OH234305   2.251   0.937   2.674
11455TIP3    H134306   2.159   0.931   2.646
11455TIP3    H234307   2.300   0.896   2.603
11456TIP3   OH234308   6.419   3.296   4.013
11456TIP3    H134309   6.501   3.341   4.033
11456TIP3    H234310   6.384   3.271   4.098
11457TIP3   OH234311   4.790   0.624   2.124
11457TIP3    H134312   4.739   0.558   2.076
11457TIP3    H234313   4.864   0.643   2.067
11458TIP3   OH234314   2.063   3.366   5.150
11458TIP3    H134315   2.145   3.317   5.159
11458TIP3    H234316   2.078   3.446   5.201
11459TIP3   OH234317   0.927   0.920   6.769
11459TIP3    H134318   0.934   0.918   6.674
11459TIP3    H234319   0.851   0.975   6.786
11460TIP3   OH234320   8.061   1.431   2.731
11460TIP3    H134321   8.028   1.343   2.750
11460TIP3    H234322   8.120   1.450   2.804
11461TIP3   OH234323   5.357   1.197   5.171
11461TIP3    H134324   5.278   1.147   5.156
11461TIP3    H234325   5.332   1.288   5.156
11462TIP3   OH234326   3.082   6.822   6.732
11462TIP3    H134327   3.151   6.854   6.789
11462TIP3    H234328   3.030   6.763   6.787
11463TIP3   OH234329   0.297   1.463   0.349
11463TIP3    H134330   0.303   1.477   0.444
11463TIP3    H234331   0.302   1.551   0.312
11464TIP3   OH234332   3.014   3.256   5.130
11464TIP3    H134333   3.044   3.326   5.187
11464TIP3    H234334   3.076   3.256   5.057
11465TIP3   OH234335   5.411   3.822   4.313
11465TIP3    H134336   5.407   3.895   4.375
11465TIP3    H234337   5.343   3.762   4.343
11466TIP3   OH234338   6.819   1.574   0.681
11466TIP3    H134339   6.870   1.494   0.687
11466TIP3    H234340   6.776   1.569   0.595
11467TIP3   OH234341   2.403   0.193   1.062
11467TIP3    H134342   2.374   0.283   1.048
11467TIP3    H234343   2.357   0.165   1.141
11468TIP3   OH234344   1.050   5.697   6.830
11468TIP3    H134345   1.113   5.769   6.832
11468TIP3    H234346   1.037   5.680   6.737
11469TIP3   OH234347   8.215   3.206   1.807
11469TIP3    H134348   8.212   3.179   1.715
11469TIP3    H234349   8.263   3.136   1.851
11470TIP3   OH234350   6.555   3.184   0.234
11470TIP3    H134351   6.529   3.143   0.152
11470TIP3    H234352   6.614   3.120   0.275
11471TIP3   OH234353   3.975   6.376   5.085
11471TIP3    H134354   3.945   6.287   5.064
11471TIP3    H234355   4.049   6.390   5.026
11472TIP3   OH234356   1.321   4.190   0.339
11472TIP3    H134357   1.226   4.199   0.343
11472TIP3    H234358   1.354   4.255   0.402
11473TIP3   OH234359   5.226   0.406   4.032
11473TIP3    H134360   5.309   0.359   4.041
11473TIP3    H234361   5.162   0.351   4.078
11474TIP3   OH234362   4.882   2.305   0.317
11474TIP3    H134363   4.932   2.284   0.238
11474TIP3    H234364   4.871   2.220   0.361
11475TIP3   OH234365   5.890   7.796   0.226
11475TIP3    H134366   5.973   7.844   0.233
11475TIP3    H234367   5.855   7.797   0.315
11476TIP3   OH234368   4.512   5.629   5.831
11476TIP3    H134369   4.444   5.681   5.874
11476TIP3    H234370   4.486   5.626   5.739
11477TIP3   OH234371   7.836   5.565   2.712
11477TIP3    H134372   7.824   5.559   2.807
11477TIP3    H234373   7.928   5.541   2.698
11478TIP3   OH234374   7.902   4.308   2.399
11478TIP3    H134375   7.982   4.335   2.444
11478TIP3    H234376   7.888   4.218   2.427
11479TIP3   OH234377   4.300   4.740   6.295
11479TIP3    H134378   4.293   4.672   6.361
11479TIP3    H234379   4.264   4.818   6.337
11480TIP3   OH234380   1.939   3.118   5.895
11480TIP3    H134381   1.907   3.208   5.881
11480TIP3    H234382   1.922   3.074   5.812
11481TIP3   OH234383   6.633   5.509   4.277
11481TIP3    H134384   6.702   5.456   4.237
11481TIP3    H234385   6.613   5.576   4.212
11482TIP3   OH234386   1.723   7.088   1.841
11482TIP3    H134387   1.677   7.023   1.893
11482TIP3    H234388   1.762   7.038   1.769
11483TIP3   OH234389   6.698   3.743   4.929
11483TIP3    H134390   6.697   3.835   4.903
11483TIP3    H234391   6.609   3.713   4.913
11484TIP3   OH234392   1.810   5.552   1.851
11484TIP3    H134393   1.887   5.548   1.908
11484TIP3    H234394   1.811   5.641   1.815
11485TIP3   OH234395   8.095   1.578   4.039
11485TIP3    H134396   8.060   1.612   3.956
11485TIP3    H234397   8.113   1.656   4.091
11486TIP3   OH234398   0.590   6.022   3.111
11486TIP3    H134399   0.613   6.048   3.200
11486TIP3    H234400   0.639   6.083   3.055
11487TIP3   OH234401   2.852   1.593   1.904
11487TIP3    H134402   2.788   1.538   1.951
11487TIP3    H234403   2.933   1.582   1.954
11488TIP3   OH234404   2.241   7.092   4.649
11488TIP3    H134405   2.178   7.104   4.720
11488TIP3    H234406   2.222   7.004   4.615
11489TIP3   OH234407   2.405   6.847   5.790
11489TIP3    H134408   2.345   6.864   5.717
11489TIP3    H234409   2.486   6.891   5.765
11490TIP3   OH234410   6.051   6.864   2.754
11490TIP3    H134411   6.036   6.825   2.668
11490TIP3    H234412   6.073   6.956   2.735
11491TIP3   OH234413   3.518   1.184   0.151
11491TIP3    H134414   3.565   1.268   0.150
11491TIP3    H234415   3.580   1.122   0.190
11492TIP3   OH234416   7.564   0.974   3.240
11492TIP3    H134417   7.647   0.936   3.268
11492TIP3    H234418   7.510   0.975   3.320
11493TIP3   OH234419   6.622   4.570   5.580
11493TIP3    H134420   6.584   4.612   5.657
11493TIP3    H234421   6.573   4.607   5.506
11494TIP3   OH234422   3.560   2.643   4.468
11494TIP3    H134423   3.568   2.590   4.547
11494TIP3    H234424   3.632   2.706   4.473
11495TIP3   OH234425   6.026   3.791   3.373
11495TIP3    H134426   6.056   3.781   3.463
11495TIP3    H234427   5.964   3.864   3.376
11496TIP3   OH234428   1.421   7.810   4.571
11496TIP3    H134429   1.381   7.806   4.484
11496TIP3    H234430   1.348   7.827   4.631
11497TIP3   OH234431   3.680   1.424   2.463
11497TIP3    H134432   3.725   1.394   2.542
11497TIP3    H234433   3.738   1.401   2.391
11498TIP3   OH234434   0.157   1.245   1.840
11498TIP3    H134435   0.140   1.312   1.906
11498TIP3    H234436   0.233   1.198   1.872
11499TIP3   OH234437   7.563   7.157   2.051
11499TIP3    H134438   7.638   7.215   2.041
11499TIP3    H234439   7.601   7.073   2.075
11500TIP3   OH234440   8.167   2.346   5.160
11500TIP3    H134441   8.178   2.431   5.117
11500TIP3    H234442   8.209   2.283   5.101
11501TIP3   OH234443   4.791   5.628   4.178
11501TIP3    H134444   4.827   5.716   4.167
11501TIP3    H234445   4.829   5.597   4.260
11502TIP3   OH234446   2.360   4.677   4.909
11502TIP3    H134447   2.314   4.612   4.857
11502TIP3    H234448   2.408   4.626   4.974
11503TIP3   OH234449   0.810   4.996   5.284
11503TIP3    H134450   0.879   5.004   5.349
11503TIP3    H234451   0.733   4.969   5.334
11504TIP3   OH234452   2.696   0.140   3.912
11504TIP3    H134453   2.687   0.085   3.990
11504TIP3    H234454   2.790   0.156   3.904
11505TIP3   OH234455   3.129   5.323   2.549
11505TIP3    H134456   3.071   5.369   2.488
11505TIP3    H234457   3.200   5.291   2.494
11506TIP3   OH234458   6.211   4.195   4.701
11506TIP3    H134459   6.217   4.266   4.638
11506TIP3    H234460   6.241   4.233   4.784
11507TIP3   OH234461   6.342   1.133   2.070
11507TIP3    H134462   6.301   1.083   1.999
11507TIP3    H234463   6.436   1.113   2.062
11508TIP3   OH234464   2.505   3.924   1.882
11508TIP3    H134465   2.504   3.978   1.804
11508TIP3    H234466   2.420   3.880   1.883
11509TIP3   OH234467   3.948   7.228   6.486
11509TIP3    H134468   3.915   7.280   6.560
11509TIP3    H234469   3.973   7.292   6.420
11510TIP3   OH234470   3.175   3.618   6.397
11510TIP3    H134471   3.086   3.642   6.370
11510TIP3    H234472   3.178   3.523   6.386
11511TIP3   OH234473   1.351   1.042   4.204
11511TIP3    H134474   1.375   0.976   4.268
11511TIP3    H234475   1.338   1.122   4.256
11512TIP3   OH234476   5.234   7.846   3.389
11512TIP3    H134477   5.167   7.780   3.369
11512TIP3    H234478   5.207   7.924   3.341
11513TIP3   OH234479   6.401   1.783   0.364
11513TIP3    H134480   6.334   1.851   0.360
11513TIP3    H234481   6.408   1.761   0.457
11514TIP3   OH234482   4.048   5.256   3.577
11514TIP3    H134483   4.024   5.348   3.563
11514TIP3    H234484   4.018   5.211   3.498
11515TIP3   OH234485   8.245   2.887   4.442
11515TIP3    H134486   8.245   2.976   4.477
11515TIP3    H234487   8.166   2.882   4.388
11516TIP3   OH234488   4.539   0.315   4.040
11516TIP3    H134489   4.553   0.222   4.020
11516TIP3    H234490   4.583   0.329   4.124
11517TIP3   OH234491   4.991   0.297   6.292
11517TIP3    H134492   4.955   0.255   6.371
11517TIP3    H234493   4.930   0.368   6.272
11518TIP3   OH234494   5.764   3.562   5.471
11518TIP3    H134495   5.707   3.506   5.523
11518TIP3    H234496   5.834   3.505   5.440
11519TIP3   OH234497   5.402   3.984   4.778
11519TIP3    H134498   5.336   3.975   4.710
11519TIP3    H234499   5.485   3.969   4.733
11520TIP3   OH234500   7.642   3.690   4.324
11520TIP3    H134501   7.715   3.660   4.270
11520TIP3    H234502   7.631   3.782   4.301
11521TIP3   OH234503   5.165   6.976   1.673
11521TIP3    H134504   5.082   6.930   1.688
11521TIP3    H234505   5.187   7.014   1.759
11522TIP3   OH234506   5.725   2.510   1.828
11522TIP3    H134507   5.807   2.497   1.781
11522TIP3    H234508   5.696   2.597   1.802
11523TIP3   OH234509   0.029   6.866   1.818
11523TIP3    H134510  -0.057   6.876   1.779
11523TIP3    H234511   0.076   6.806   1.760
11524TIP3   OH234512   5.816   5.345   3.459
11524TIP3    H134513   5.876   5.286   3.415
11524TIP3    H234514   5.817   5.316   3.551
11525TIP3   OH234515   7.700   3.936   4.203
11525TIP3    H134516   7.678   4.025   4.233
11525TIP3    H234517   7.795   3.937   4.194
11526TIP3   OH234518   5.244   3.888   4.541
11526TIP3    H134519   5.243   3.830   4.617
11526TIP3    H234520   5.184   3.847   4.479
11527TIP3   OH234521   6.133   6.845   4.249
11527TIP3    H134522   6.207   6.866   4.306
11527TIP3    H234523   6.164   6.774   4.194
11528TIP3   OH234524   1.065   0.135   0.328
11528TIP3    H134525   1.105   0.102   0.408
11528TIP3    H234526   1.058   0.230   0.342
11529TIP3   OH234527   2.037   5.440   4.950
11529TIP3    H134528   2.072   5.521   4.987
11529TIP3    H234529   2.100   5.416   4.882
11530TIP3   OH234530   4.953   0.320   2.408
11530TIP3    H134531   4.984   0.312   2.498
11530TIP3    H234532   4.874   0.372   2.414
11531TIP3   OH234533   4.834   4.377   3.424
11531TIP3    H134534   4.803   4.348   3.338
11531TIP3    H234535   4.805   4.308   3.484
11532TIP3   OH234536   1.751   6.504   5.995
11532TIP3    H134537   1.708   6.588   5.981
11532TIP3    H234538   1.821   6.522   6.057
11533TIP3   OH234539   4.267   1.506   0.798
11533TIP3    H134540   4.216   1.573   0.751
11533TIP3    H234541   4.200   1.447   0.833
11534TIP3   OH234542   0.699   0.148   5.494
11534TIP3    H134543   0.616   0.173   5.453
11534TIP3    H234544   0.676   0.074   5.551
11535TIP3   OH234545   4.620   0.443   3.370
11535TIP3    H134546   4.645   0.410   3.456
11535TIP3    H234547   4.701   0.479   3.334
11536TIP3   OH234548   0.112   5.422   4.728
11536TIP3    H134549   0.047   5.372   4.680
11536TIP3    H234550   0.139   5.491   4.667
11537TIP3   OH234551   6.728   6.811   5.098
11537TIP3    H134552   6.704   6.721   5.077
11537TIP3    H234553   6.792   6.835   5.031
11538TIP3   OH234554   8.342   5.465   5.282
11538TIP3    H134555   8.271   5.452   5.219
11538TIP3    H234556   8.372   5.555   5.265
11539TIP3   OH234557   3.313   5.530   2.191
11539TIP3    H134558   3.333   5.494   2.277
11539TIP3    H234559   3.250   5.600   2.208
11540TIP3   OH234560   6.484   4.227   5.924
11540TIP3    H134561   6.432   4.308   5.928
11540TIP3    H234562   6.442   4.169   5.987
11541TIP3   OH234563   7.212   3.939   2.966
11541TIP3    H134564   7.264   3.883   2.908
11541TIP3    H234565   7.192   4.016   2.914
11542TIP3   OH234566   4.013   7.162   4.595
11542TIP3    H134567   3.992   7.116   4.676
11542TIP3    H234568   4.001   7.254   4.616
11543TIP3   OH234569   4.371   7.631   3.170
11543TIP3    H134570   4.432   7.671   3.108
11543TIP3    H234571   4.316   7.574   3.116
11544TIP3   OH234572   7.543   3.110   1.645
11544TIP3    H134573   7.579   3.198   1.632
11544TIP3    H234574   7.478   3.122   1.715
11545TIP3   OH234575   5.493   1.846   0.272
11545TIP3    H134576   5.482   1.897   0.192
11545TIP3    H234577   5.585   1.820   0.271
11546TIP3   OH234578   1.680   7.585   2.960
11546TIP3    H134579   1.613   7.647   2.990
11546TIP3    H234580   1.631   7.516   2.916
11547TIP3   OH234581   1.659   3.305   0.747
11547TIP3    H134582   1.612   3.367   0.692
11547TIP3    H234583   1.591   3.256   0.793
11548TIP3   OH234584   7.162   3.947   4.806
11548TIP3    H134585   7.157   3.925   4.899
11548TIP3    H234586   7.090   3.899   4.766
11549TIP3   OH234587   5.300   5.469   3.913
11549TIP3    H134588   5.300   5.378   3.882
11549TIP3    H234589   5.313   5.462   4.007
11550TIP3   OH234590   5.049   3.025   0.289
11550TIP3    H134591   5.142   3.023   0.269
11550TIP3    H234592   5.045   3.044   0.383
11551TIP3   OH234593   5.624   7.286   6.015
11551TIP3    H134594   5.698   7.242   6.057
11551TIP3    H234595   5.638   7.379   6.032
11552TIP3   OH234596   5.145   5.946   5.304
11552TIP3    H134597   5.099   5.868   5.335
11552TIP3    H234598   5.205   5.913   5.236
11553TIP3   OH234599   6.127   7.534   0.122
11553TIP3    H134600   6.144   7.468   0.055
11553TIP3    H234601   6.209   7.541   0.171
11554TIP3   OH234602   1.366   5.214   6.140
11554TIP3    H134603   1.348   5.164   6.220
11554TIP3    H234604   1.377   5.148   6.072
11555TIP3   OH234605   5.479   5.336   0.129
11555TIP3    H134606   5.426   5.310   0.204
11555TIP3    H234607   5.447   5.423   0.106
11556TIP3   OH234608   5.950   6.066   3.160
11556TIP3    H134609   5.923   5.975   3.169
11556TIP3    H234610   5.995   6.069   3.075
11557TIP3   OH234611   7.675   2.458   6.428
11557TIP3    H134612   7.769   2.475   6.427
11557TIP3    H234613   7.656   2.425   6.340
11558TIP3   OH234614   5.459   3.306   6.806
11558TIP3    H134615   5.477   3.355   6.887
11558TIP3    H234616   5.365   3.289   6.809
11559TIP3   OH234617   1.131   7.733   3.445
11559TIP3    H134618   1.098   7.758   3.531
11559TIP3    H234619   1.159   7.642   3.455
11560TIP3   OH234620   5.814   7.361   1.358
11560TIP3    H134621   5.883   7.315   1.310
11560TIP3    H234622   5.820   7.327   1.447
11561TIP3   OH234623   5.604   1.049   4.013
11561TIP3    H134624   5.667   1.070   4.082
11561TIP3    H234625   5.530   1.106   4.029
11562TIP3   OH234626   7.505   2.160   5.667
11562TIP3    H134627   7.531   2.142   5.758
11562TIP3    H234628   7.493   2.073   5.629
11563TIP3   OH234629   5.251   1.329   5.678
11563TIP3    H134630   5.332   1.311   5.629
11563TIP3    H234631   5.196   1.252   5.663
11564TIP3   OH234632   4.079   1.721   3.699
11564TIP3    H134633   4.158   1.757   3.658
11564TIP3    H234634   4.104   1.632   3.724
11565TIP3   OH234635   1.336   2.313   4.955
11565TIP3    H134636   1.387   2.248   4.906
11565TIP3    H234637   1.355   2.396   4.912
11566TIP3   OH234638   5.061   6.076   2.628
11566TIP3    H134639   4.990   6.075   2.692
11566TIP3    H234640   5.044   6.001   2.572
11567TIP3   OH234641   3.409   1.067   2.651
11567TIP3    H134642   3.404   1.137   2.586
11567TIP3    H234643   3.495   1.028   2.638
11568TIP3   OH234644   2.986   6.044   6.769
11568TIP3    H134645   3.063   5.988   6.779
11568TIP3    H234646   2.932   6.026   6.845
11569TIP3   OH234647   6.060   2.431   3.092
11569TIP3    H134648   6.095   2.520   3.086
11569TIP3    H234649   6.137   2.375   3.095
11570TIP3   OH234650   3.992   1.087   4.653
11570TIP3    H134651   3.929   1.135   4.599
11570TIP3    H234652   4.001   1.139   4.732
11571TIP3   OH234653   3.032   1.174   1.828
11571TIP3    H134654   3.009   1.175   1.735
11571TIP3    H234655   2.981   1.101   1.863
11572TIP3   OH234656   7.530   5.182   4.395
11572TIP3    H134657   7.582   5.106   4.366
11572TIP3    H234658   7.482   5.210   4.317
11573TIP3   OH234659   7.910   1.195   6.048
11573TIP3    H134660   7.875   1.148   6.124
11573TIP3    H234661   7.848   1.266   6.033
11574TIP3   OH234662   1.529   2.952   0.463
11574TIP3    H134663   1.556   2.915   0.379
11574TIP3    H234664   1.548   3.046   0.455
11575TIP3   OH234665   3.927   0.854   1.341
11575TIP3    H134666   3.882   0.845   1.425
11575TIP3    H234667   4.013   0.814   1.356
11576TIP3   OH234668   0.900   3.599   1.532
11576TIP3    H134669   0.935   3.599   1.621
11576TIP3    H234670   0.837   3.671   1.531
11577TIP3   OH234671   6.639   5.398   4.794
11577TIP3    H134672   6.612   5.431   4.880
11577TIP3    H234673   6.561   5.406   4.739
11578TIP3   OH234674   7.881   2.039   4.023
11578TIP3    H134675   7.843   2.126   4.006
11578TIP3    H234676   7.974   2.049   4.006
11579TIP3   OH234677   0.626   7.727   3.451
11579TIP3    H134678   0.643   7.633   3.450
11579TIP3    H234679   0.711   7.766   3.432
11580TIP3   OH234680   3.906   1.959   6.861
11580TIP3    H134681   4.000   1.956   6.879
11580TIP3    H234682   3.899   1.941   6.767
11581TIP3   OH234683   6.104   1.397   3.936
11581TIP3    H134684   6.017   1.422   3.905
11581TIP3    H234685   6.157   1.476   3.926
11582TIP3   OH234686   0.293   4.740   0.818
11582TIP3    H134687   0.241   4.819   0.802
11582TIP3    H234688   0.280   4.720   0.910
11583TIP3   OH234689   0.720   2.624   6.793
11583TIP3    H134690   0.669   2.669   6.725
11583TIP3    H234691   0.811   2.632   6.763
11584TIP3   OH234692   2.764   5.905   1.943
11584TIP3    H134693   2.674   5.937   1.946
11584TIP3    H234694   2.757   5.819   1.901
11585TIP3   OH234695   1.355   1.502   4.181
11585TIP3    H134696   1.437   1.456   4.159
11585TIP3    H234697   1.384   1.580   4.228
11586TIP3   OH234698   1.865   4.597   4.931
11586TIP3    H134699   1.952   4.580   4.895
11586TIP3    H234700   1.809   4.606   4.854
11587TIP3   OH234701   0.848   7.278   3.709
11587TIP3    H134702   0.845   7.192   3.667
11587TIP3    H234703   0.926   7.275   3.765
11588TIP3   OH234704   1.713   6.699   5.276
11588TIP3    H134705   1.775   6.632   5.247
11588TIP3    H234706   1.694   6.677   5.367
11589TIP3   OH234707   6.733   7.269   0.920
11589TIP3    H134708   6.736   7.173   0.920
11589TIP3    H234709   6.687   7.291   1.001
11590TIP3   OH234710   2.496   4.284   4.517
11590TIP3    H134711   2.517   4.235   4.437
11590TIP3    H234712   2.426   4.343   4.490
11591TIP3   OH234713   0.606   5.354   2.731
11591TIP3    H134714   0.610   5.402   2.814
11591TIP3    H234715   0.543   5.404   2.679
11592TIP3   OH234716   2.435   1.987   4.809
11592TIP3    H134717   2.366   1.942   4.858
11592TIP3    H234718   2.486   2.033   4.876
11593TIP3   OH234719   2.144   3.069   4.307
11593TIP3    H134720   2.225   3.100   4.349
11593TIP3    H234721   2.103   3.014   4.374
11594TIP3   OH234722   3.492   6.021   2.639
11594TIP3    H134723   3.489   6.066   2.555
11594TIP3    H234724   3.415   5.964   2.638
11595TIP3   OH234725   6.845   3.663   4.014
11595TIP3    H134726   6.913   3.600   3.987
11595TIP3    H234727   6.847   3.662   4.109
11596TIP3   OH234728   5.156   6.988   0.289
11596TIP3    H134729   5.163   7.082   0.302
11596TIP3    H234730   5.091   6.978   0.219
11597TIP3   OH234731   7.971   0.522   6.147
11597TIP3    H134732   7.993   0.505   6.055
11597TIP3    H234733   8.047   0.569   6.182
11598TIP3   OH234734   6.871   6.036   5.160
11598TIP3    H134735   6.879   5.944   5.134
11598TIP3    H234736   6.781   6.059   5.139
11599TIP3   OH234737   8.344   7.927   0.200
11599TIP3    H134738   8.283   7.860   0.170
11599TIP3    H234739   8.398   7.883   0.265
11600TIP3   OH234740   8.088   1.624   6.234
11600TIP3    H134741   8.138   1.693   6.277
11600TIP3    H234742   8.136   1.607   6.153
11601TIP3   OH234743   0.309   4.269   2.391
11601TIP3    H134744   0.256   4.219   2.328
11601TIP3    H234745   0.247   4.332   2.429
11602TIP3   OH234746   6.088   5.901   5.822
11602TIP3    H134747   6.060   5.993   5.815
11602TIP3    H234748   6.075   5.865   5.734
11603TIP3   OH234749   2.618   3.423   1.637
11603TIP3    H134750   2.554   3.406   1.568
11603TIP3    H234751   2.611   3.517   1.655
11604TIP3   OH234752   3.823   0.075   5.243
11604TIP3    H134753   3.821   0.171   5.250
11604TIP3    H234754   3.807   0.058   5.150
11605TIP3   OH234755   0.554   5.793   5.650
11605TIP3    H134756   0.632   5.845   5.628
11605TIP3    H234757   0.498   5.854   5.697
11606TIP3   OH234758   4.204   7.475   5.877
11606TIP3    H134759   4.263   7.437   5.942
11606TIP3    H234760   4.262   7.511   5.809
11607TIP3   OH234761   5.181   3.402   3.755
11607TIP3    H134762   5.201   3.485   3.797
11607TIP3    H234763   5.256   3.346   3.773
11608TIP3   OH234764   5.266   1.832   6.785
11608TIP3    H134765   5.182   1.876   6.778
11608TIP3    H234766   5.330   1.898   6.757
11609TIP3   OH234767   5.428   3.491   4.974
11609TIP3    H134768   5.448   3.585   4.977
11609TIP3    H234769   5.385   3.473   5.057
11610TIP3   OH234770   0.312   3.192   0.641
11610TIP3    H134771   0.266   3.272   0.613
11610TIP3    H234772   0.393   3.192   0.590
11611TIP3   OH234773   8.080   4.858   6.618
11611TIP3    H134774   8.161   4.863   6.567
11611TIP3    H234775   8.021   4.921   6.577
11612TIP3   OH234776   5.551   4.722   1.613
11612TIP3    H134777   5.556   4.702   1.520
11612TIP3    H234778   5.463   4.693   1.639
11613TIP3   OH234779   2.036   7.712   2.631
11613TIP3    H134780   1.966   7.774   2.649
11613TIP3    H234781   2.106   7.734   2.693
11614TIP3   OH234782   3.509   7.185   5.206
11614TIP3    H134783   3.591   7.146   5.236
11614TIP3    H234784   3.483   7.130   5.131
11615TIP3   OH234785   1.476   5.234   4.045
11615TIP3    H134786   1.475   5.329   4.039
11615TIP3    H234787   1.445   5.215   4.134
11616TIP3   OH234788   5.827   1.406   5.504
11616TIP3    H134789   5.811   1.312   5.495
11616TIP3    H234790   5.916   1.418   5.470
11617TIP3   OH234791   3.281   0.653   6.099
11617TIP3    H134792   3.339   0.729   6.110
11617TIP3    H234793   3.218   0.681   6.032
11618TIP3   OH234794   3.769   2.842   1.185
11618TIP3    H134795   3.793   2.849   1.277
11618TIP3    H234796   3.716   2.762   1.180
11619TIP3   OH234797   1.457   5.086   4.835
11619TIP3    H134798   1.392   5.030   4.792
11619TIP3    H234799   1.424   5.096   4.925
11620TIP3   OH234800   3.497   0.421   1.250
11620TIP3    H134801   3.551   0.424   1.172
11620TIP3    H234802   3.486   0.328   1.268
11621TIP3   OH234803   8.226   5.897   5.427
11621TIP3    H134804   8.196   5.969   5.373
11621TIP3    H234805   8.311   5.925   5.460
11622TIP3   OH234806   7.021   0.896   0.050
11622TIP3    H134807   6.998   0.878  -0.041
11622TIP3    H234808   7.090   0.833   0.069
11623TIP3   OH234809   3.942   6.502   4.526
11623TIP3    H134810   4.001   6.443   4.480
11623TIP3    H234811   3.999   6.570   4.561
11624TIP3   OH234812   2.543   1.536   3.402
11624TIP3    H134813   2.525   1.615   3.350
11624TIP3    H234814   2.491   1.548   3.481
11625TIP3   OH234815   1.589   1.942   0.663
11625TIP3    H134816   1.548   1.938   0.577
11625TIP3    H234817   1.652   1.869   0.663
11626TIP3   OH234818   2.633   7.053   1.798
11626TIP3    H134819   2.688   7.094   1.865
11626TIP3    H234820   2.596   7.126   1.749
11627TIP3   OH234821   1.542   4.983   0.200
11627TIP3    H134822   1.511   4.990   0.110
11627TIP3    H234823   1.637   4.975   0.192
11628TIP3   OH234824   4.415   7.409   4.294
11628TIP3    H134825   4.392   7.497   4.325
11628TIP3    H234826   4.490   7.384   4.348
11629TIP3   OH234827   3.174   3.424   6.663
11629TIP3    H134828   3.177   3.346   6.608
11629TIP3    H234829   3.249   3.415   6.722
11630TIP3   OH234830   5.068   0.694   2.897
11630TIP3    H134831   5.044   0.705   2.806
11630TIP3    H234832   5.081   0.784   2.929
11631TIP3   OH234833   0.910   6.474   5.886
11631TIP3    H134834   0.995   6.517   5.886
11631TIP3    H234835   0.915   6.411   5.958
11632TIP3   OH234836   3.752   4.342   3.652
11632TIP3    H134837   3.803   4.262   3.665
11632TIP3    H234838   3.678   4.315   3.598
11633TIP3   OH234839   8.283   2.499   0.924
11633TIP3    H134840   8.338   2.542   0.858
11633TIP3    H234841   8.344   2.445   0.974
11634TIP3   OH234842   4.556   2.129   3.932
11634TIP3    H134843   4.526   2.214   3.963
11634TIP3    H234844   4.617   2.150   3.861
11635TIP3   OH234845   1.833   5.899   4.166
11635TIP3    H134846   1.856   5.991   4.154
11635TIP3    H234847   1.845   5.884   4.260
11636TIP3   OH234848   6.963   4.226   6.141
11636TIP3    H134849   7.055   4.227   6.114
11636TIP3    H234850   6.915   4.200   6.062
11637TIP3   OH234851   6.724   0.498   0.535
11637TIP3    H134852   6.664   0.427   0.512
11637TIP3    H234853   6.792   0.455   0.587
11638TIP3   OH234854   5.556   3.236   2.214
11638TIP3    H134855   5.509   3.214   2.295
11638TIP3    H234856   5.487   3.267   2.155
11639TIP3   OH234857   3.119   1.926   0.834
11639TIP3    H134858   3.143   1.872   0.909
11639TIP3    H234859   3.100   1.864   0.764
11640TIP3   OH234860   2.489   5.947   6.147
11640TIP3    H134861   2.444   6.031   6.155
11640TIP3    H234862   2.478   5.924   6.054
11641TIP3   OH234863   1.304   7.325   6.308
11641TIP3    H134864   1.326   7.407   6.353
11641TIP3    H234865   1.268   7.354   6.224
11642TIP3   OH234866   4.592   2.858   2.139
11642TIP3    H134867   4.620   2.788   2.198
11642TIP3    H234868   4.523   2.818   2.086
11643TIP3   OH234869   6.533   6.128   0.014
11643TIP3    H134870   6.599   6.181  -0.031
11643TIP3    H234871   6.573   6.042   0.023
11644TIP3   OH234872   7.892   4.105   4.062
11644TIP3    H134873   7.805   4.145   4.060
11644TIP3    H234874   7.933   4.133   3.980
11645TIP3   OH234875   7.818   5.082   2.816
11645TIP3    H134876   7.837   5.163   2.770
11645TIP3    H234877   7.766   5.030   2.754
11646TIP3   OH234878   2.696   6.600   4.032
11646TIP3    H134879   2.613   6.597   4.079
11646TIP3    H234880   2.763   6.601   4.101
11647TIP3   OH234881   8.201   7.009   3.587
11647TIP3    H134882   8.229   7.043   3.672
11647TIP3    H234883   8.106   7.005   3.593
11648TIP3   OH234884   2.875   2.721   0.769
11648TIP3    H134885   2.915   2.804   0.744
11648TIP3    H234886   2.938   2.681   0.829
11649TIP3   OH234887   4.398   5.372   4.007
11649TIP3    H134888   4.350   5.308   4.061
11649TIP3    H234889   4.334   5.442   3.991
11650TIP3   OH234890   6.632   0.478   3.473
11650TIP3    H134891   6.551   0.443   3.511
11650TIP3    H234892   6.605   0.560   3.431
11651TIP3   OH234893   7.175   1.555   5.596
11651TIP3    H134894   7.269   1.564   5.584
11651TIP3    H234895   7.136   1.586   5.514
11652TIP3   OH234896   2.318   3.901   0.675
11652TIP3    H134897   2.250   3.968   0.680
11652TIP3    H234898   2.275   3.827   0.632
11653TIP3   OH234899   5.732   7.160   4.333
11653TIP3    H134900   5.807   7.158   4.393
11653TIP3    H234901   5.730   7.072   4.295
11654TIP3   OH234902   2.088   7.251   2.319
11654TIP3    H134903   2.108   7.158   2.332
11654TIP3    H234904   2.158   7.296   2.366
11655TIP3   OH234905   6.258   5.928   3.363
11655TIP3    H134906   6.237   5.835   3.365
11655TIP3    H234907   6.199   5.968   3.427
11656TIP3   OH234908   8.078   1.560   2.215
11656TIP3    H134909   7.989   1.594   2.227
11656TIP3    H234910   8.100   1.521   2.300
11657TIP3   OH234911   3.529   0.132   0.886
11657TIP3    H134912   3.447   0.084   0.895
11657TIP3    H234913   3.549   0.128   0.792
11658TIP3   OH234914   2.167   5.582   0.447
11658TIP3    H134915   2.110   5.594   0.371
11658TIP3    H234916   2.162   5.489   0.467
11659TIP3   OH234917   4.212   3.344   3.476
11659TIP3    H134918   4.180   3.261   3.440
11659TIP3    H234919   4.139   3.378   3.528
11660TIP3   OH234920   5.620   1.022   4.309
11660TIP3    H134921   5.542   1.050   4.357
11660TIP3    H234922   5.686   1.007   4.378
11661TIP3   OH234923   1.511   6.348   1.145
11661TIP3    H134924   1.462   6.429   1.129
11661TIP3    H234925   1.573   6.371   1.214
11662TIP3   OH234926   7.429   2.473   0.814
11662TIP3    H134927   7.402   2.389   0.852
11662TIP3    H234928   7.347   2.516   0.790
11663TIP3   OH234929   3.355   4.464   4.618
11663TIP3    H134930   3.299   4.448   4.542
11663TIP3    H234931   3.433   4.505   4.583
11664TIP3   OH234932   3.561   0.512   2.131
11664TIP3    H134933   3.635   0.503   2.192
11664TIP3    H234934   3.589   0.580   2.069
11665TIP3   OH234935   0.424   5.714   1.623
11665TIP3    H134936   0.372   5.665   1.558
11665TIP3    H234937   0.382   5.800   1.627
11666TIP3   OH234938   6.412   4.073   6.146
11666TIP3    H134939   6.433   3.982   6.169
11666TIP3    H234940   6.436   4.124   6.224
11667TIP3   OH234941   1.650   0.582   1.361
11667TIP3    H134942   1.653   0.555   1.269
11667TIP3    H234943   1.696   0.512   1.407
11668TIP3   OH234944   6.674   2.784   4.201
11668TIP3    H134945   6.607   2.736   4.152
11668TIP3    H234946   6.645   2.780   4.292
11669TIP3   OH234947   5.974   0.479   3.347
11669TIP3    H134948   5.928   0.516   3.271
11669TIP3    H234949   6.066   0.497   3.331
11670TIP3   OH234950   0.990   5.940   1.850
11670TIP3    H134951   0.982   5.963   1.942
11670TIP3    H234952   0.919   5.877   1.835
11671TIP3   OH234953   6.133   5.325   0.421
11671TIP3    H134954   6.174   5.411   0.418
11671TIP3    H234955   6.192   5.268   0.371
11672TIP3   OH234956   5.072   3.703   5.670
11672TIP3    H134957   5.000   3.732   5.726
11672TIP3    H234958   5.052   3.611   5.651
11673TIP3   OH234959   4.436   4.281   5.805
11673TIP3    H134960   4.444   4.366   5.762
11673TIP3    H234961   4.521   4.266   5.845
11674TIP3   OH234962   6.237   3.915   1.191
11674TIP3    H134963   6.263   3.822   1.192
11674TIP3    H234964   6.155   3.918   1.239
11675TIP3   OH234965   4.278   6.638   1.099
11675TIP3    H134966   4.236   6.612   1.017
11675TIP3    H234967   4.210   6.687   1.146
11676TIP3   OH234968   8.227   7.710   0.556
11676TIP3    H134969   8.191   7.683   0.471
11676TIP3    H234970   8.167   7.673   0.621
11677TIP3   OH234971   1.854   3.593   5.750
11677TIP3    H134972   1.833   3.647   5.674
11677TIP3    H234973   1.918   3.644   5.799
11678TIP3   OH234974   8.357   0.770   4.947
11678TIP3    H134975   8.338   0.719   5.026
11678TIP3    H234976   8.366   0.704   4.878
11679TIP3   OH234977   8.091   5.463   4.336
11679TIP3    H134978   7.997   5.448   4.341
11679TIP3    H234979   8.100   5.544   4.285
11680TIP3   OH234980   8.097   0.997   3.697
11680TIP3    H134981   8.012   1.013   3.738
11680TIP3    H234982   8.136   0.928   3.750
11681TIP3   OH234983   6.776   0.894   3.663
11681TIP3    H134984   6.702   0.941   3.701
11681TIP3    H234985   6.751   0.879   3.572
11682TIP3   OH234986   0.530   7.761   1.704
11682TIP3    H134987   0.544   7.855   1.716
11682TIP3    H234988   0.445   7.744   1.745
11683TIP3   OH234989   7.220   7.512   2.064
11683TIP3    H134990   7.141   7.479   2.107
11683TIP3    H234991   7.188   7.569   1.994
11684TIP3   OH234992   6.740   0.172   5.318
11684TIP3    H134993   6.711   0.259   5.290
11684TIP3    H234994   6.756   0.125   5.237
11685TIP3   OH234995   8.147   5.478   0.443
11685TIP3    H134996   8.220   5.444   0.390
11685TIP3    H234997   8.166   5.571   0.451
11686TIP3   OH234998   5.888   0.826   0.957
11686TIP3    H134999   5.956   0.801   1.019
11686TIP3    H235000   5.807   0.793   0.997
11687TIP3   OH235001   6.811   2.254   1.291
11687TIP3    H135002   6.776   2.341   1.311
11687TIP3    H235003   6.891   2.248   1.343
11688TIP3   OH235004   5.467   2.264   3.042
11688TIP3    H135005   5.427   2.273   2.956
11688TIP3    H235006   5.561   2.276   3.026
11689TIP3   OH235007   6.817   3.433   2.817
11689TIP3    H135008   6.787   3.474   2.736
11689TIP3    H235009   6.744   3.377   2.843
11690TIP3   OH235010   6.416   7.501   6.693
11690TIP3    H135011   6.435   7.515   6.600
11690TIP3    H235012   6.483   7.440   6.723
11691TIP3   OH235013   1.929   0.289   2.172
11691TIP3    H135014   1.882   0.207   2.157
11691TIP3    H235015   1.861   0.351   2.200
11692TIP3   OH235016   7.739   6.781   6.427
11692TIP3    H135017   7.808   6.759   6.489
11692TIP3    H235018   7.785   6.800   6.345
11693TIP3   OH235019   8.045   3.813   5.614
11693TIP3    H135020   8.064   3.721   5.633
11693TIP3    H235021   8.005   3.846   5.694
11694TIP3   OH235022   2.701   3.611   4.357
11694TIP3    H135023   2.641   3.599   4.430
11694TIP3    H235024   2.647   3.604   4.279
11695TIP3   OH235025   7.849   1.162   4.900
11695TIP3    H135026   7.901   1.130   4.973
11695TIP3    H235027   7.875   1.108   4.826
11696TIP3   OH235028   0.712   7.907   0.060
11696TIP3    H135029   0.706   7.877  -0.031
11696TIP3    H235030   0.623   7.933   0.083
11697TIP3   OH235031   5.003   2.045   3.072
11697TIP3    H135032   4.969   2.096   3.146
11697TIP3    H235033   4.963   1.959   3.083
11698TIP3   OH235034   6.759   3.679   3.587
11698TIP3    H135035   6.845   3.642   3.607
11698TIP3    H235036   6.777   3.762   3.544
11699TIP3   OH235037   3.020   5.557   5.261
11699TIP3    H135038   2.974   5.513   5.190
11699TIP3    H235039   3.015   5.650   5.240
11700TIP3   OH235040   7.769   0.256   0.527
11700TIP3    H135041   7.748   0.245   0.434
11700TIP3    H235042   7.686   0.279   0.568
11701TIP3   OH235043   7.890   7.765   2.098
11701TIP3    H135044   7.927   7.827   2.161
11701TIP3    H235045   7.842   7.702   2.152
11702TIP3   OH235046   2.355   4.613   2.315
11702TIP3    H135047   2.354   4.536   2.371
11702TIP3    H235048   2.375   4.580   2.227
11703TIP3   OH235049   7.338   7.367   6.689
11703TIP3    H135050   7.276   7.294   6.696
11703TIP3    H235051   7.423   7.327   6.702
11704TIP3   OH235052   4.448   7.398   5.985
11704TIP3    H135053   4.443   7.491   6.003
11704TIP3    H235054   4.452   7.356   6.071
11705TIP3   OH235055   4.587   2.654   0.104
11705TIP3    H135056   4.541   2.573   0.080
11705TIP3    H235057   4.673   2.625   0.133
11706TIP3   OH235058   2.036   7.517   1.729
11706TIP3    H135059   2.067   7.505   1.819
11706TIP3    H235060   2.049   7.610   1.711
11707TIP3   OH235061   2.197   0.524   5.526
11707TIP3    H135062   2.227   0.613   5.510
11707TIP3    H235063   2.117   0.516   5.475
11708TIP3   OH235064   3.655   6.547   5.503
11708TIP3    H135065   3.733   6.519   5.455
11708TIP3    H235066   3.596   6.473   5.498
11709TIP3   OH235067   3.801   4.598   4.799
11709TIP3    H135068   3.783   4.672   4.857
11709TIP3    H235069   3.881   4.624   4.752
11710TIP3   OH235070   7.536   7.209   1.126
11710TIP3    H135071   7.620   7.255   1.133
11710TIP3    H235072   7.530   7.158   1.207
11711TIP3   OH235073   0.295   3.470   4.853
11711TIP3    H135074   0.344   3.540   4.895
11711TIP3    H235075   0.331   3.389   4.891
11712TIP3   OH235076   1.866   0.135   6.313
11712TIP3    H135077   1.845   0.190   6.388
11712TIP3    H235078   1.810   0.059   6.323
11713TIP3   OH235079   6.768   1.085   1.478
11713TIP3    H135080   6.790   1.055   1.566
11713TIP3    H235081   6.752   1.179   1.488
11714TIP3   OH235082   8.288   4.997   6.794
11714TIP3    H135083   8.214   4.972   6.848
11714TIP3    H235084   8.344   4.920   6.791
11715TIP3   OH235085   2.386   6.474   6.779
11715TIP3    H135086   2.347   6.553   6.742
11715TIP3    H235087   2.480   6.491   6.779
11716TIP3   OH235088   0.324   1.000   1.646
11716TIP3    H135089   0.234   1.012   1.618
11716TIP3    H235090   0.352   0.918   1.604
11717TIP3   OH235091   8.315   3.862   2.811
11717TIP3    H135092   8.325   3.851   2.717
11717TIP3    H235093   8.404   3.864   2.845
11718TIP3   OH235094   6.682   1.695   6.282
11718TIP3    H135095   6.754   1.758   6.280
11718TIP3    H235096   6.603   1.749   6.278
11719TIP3   OH235097   5.580   2.018   0.477
11719TIP3    H135098   5.556   1.990   0.388
11719TIP3    H235099   5.527   1.963   0.535
11720TIP3   OH235100   1.849   4.207   4.571
11720TIP3    H135101   1.929   4.162   4.598
11720TIP3    H235102   1.784   4.183   4.637
11721TIP3   OH235103   0.455   2.012   5.233
11721TIP3    H135104   0.545   2.037   5.209
11721TIP3    H235105   0.450   2.027   5.327
11722TIP3   OH235106   7.800   5.668   6.770
11722TIP3    H135107   7.881   5.630   6.803
11722TIP3    H235108   7.824   5.756   6.743
11723TIP3   OH235109   7.729   1.328   0.289
11723TIP3    H135110   7.692   1.356   0.205
11723TIP3    H235111   7.739   1.233   0.281
11724TIP3   OH235112   4.997   3.331   4.308
11724TIP3    H135113   4.926   3.281   4.348
11724TIP3    H235114   5.053   3.355   4.382
11725TIP3   OH235115   3.958   6.646   5.283
11725TIP3    H135116   3.894   6.613   5.220
11725TIP3    H235117   3.943   6.594   5.361
11726TIP3   OH235118   1.435   4.552   0.287
11726TIP3    H135119   1.419   4.644   0.307
11726TIP3    H235120   1.362   4.526   0.232
11727TIP3   OH235121   1.563   7.107   5.977
11727TIP3    H135122   1.598   7.129   5.891
11727TIP3    H235123   1.592   7.017   5.993
11728TIP3   OH235124   3.459   3.810   6.012
11728TIP3    H135125   3.515   3.734   6.026
11728TIP3    H235126   3.416   3.825   6.096
11729TIP3   OH235127   5.980   4.396   1.361
11729TIP3    H135128   5.967   4.311   1.320
11729TIP3    H235129   5.934   4.458   1.304
11730TIP3   OH235130   6.601   5.069   2.062
11730TIP3    H135131   6.570   5.021   2.139
11730TIP3    H235132   6.639   5.001   2.006
11731TIP3   OH235133   5.746   5.870   3.324
11731TIP3    H135134   5.811   5.799   3.332
11731TIP3    H235135   5.662   5.826   3.332
11732TIP3   OH235136   2.033   3.867   3.664
11732TIP3    H135137   2.003   3.785   3.625
11732TIP3    H235138   1.986   3.935   3.615
11733TIP3   OH235139   5.081   2.576   6.819
11733TIP3    H135140   5.114   2.611   6.736
11733TIP3    H235141   4.990   2.603   6.822
11734TIP3   OH235142   5.873   4.334   6.374
11734TIP3    H135143   5.793   4.320   6.323
11734TIP3    H235144   5.843   4.374   6.456
11735TIP3   OH235145   0.519   4.478   5.606
11735TIP3    H135146   0.513   4.553   5.665
11735TIP3    H235147   0.594   4.497   5.550
11736TIP3   OH235148   7.971   5.813   6.341
11736TIP3    H135149   7.971   5.719   6.360
11736TIP3    H235150   8.056   5.844   6.373
11737TIP3   OH235151   5.797   7.662   1.915
11737TIP3    H135152   5.724   7.715   1.949
11737TIP3    H235153   5.755   7.597   1.859
11738TIP3   OH235154   5.178   1.578   4.564
11738TIP3    H135155   5.225   1.511   4.514
11738TIP3    H235156   5.211   1.661   4.529
11739TIP3   OH235157   3.410   5.375   6.402
11739TIP3    H135158   3.394   5.326   6.483
11739TIP3    H235159   3.353   5.333   6.338
11740TIP3   OH235160   2.640   3.194   0.740
11740TIP3    H135161   2.551   3.218   0.715
11740TIP3    H235162   2.662   3.254   0.811
11741TIP3   OH235163   5.683   5.276   1.991
11741TIP3    H135164   5.661   5.331   1.916
11741TIP3    H235165   5.645   5.191   1.970
11742TIP3   OH235166   5.422   2.257   4.000
11742TIP3    H135167   5.500   2.250   4.055
11742TIP3    H235168   5.381   2.339   4.027
11743TIP3   OH235169   0.244   3.096   6.337
11743TIP3    H135170   0.213   3.071   6.250
11743TIP3    H235171   0.324   3.045   6.350
11744TIP3   OH235172   2.004   6.030   4.367
11744TIP3    H135173   2.052   5.965   4.316
11744TIP3    H235174   2.002   5.995   4.456
11745TIP3   OH235175   6.571   2.096   3.915
11745TIP3    H135176   6.659   2.135   3.913
11745TIP3    H235177   6.512   2.171   3.904
11746TIP3   OH235178   3.091   5.717   2.233
11746TIP3    H135179   3.058   5.662   2.304
11746TIP3    H235180   3.024   5.784   2.221
11747TIP3   OH235181   4.767   3.332   0.003
11747TIP3    H135182   4.818   3.345   0.083
11747TIP3    H235183   4.807   3.256  -0.039
11748TIP3   OH235184   1.375   3.687   0.896
11748TIP3    H135185   1.391   3.592   0.888
11748TIP3    H235186   1.305   3.705   0.833
11749TIP3   OH235187   2.541   6.240   3.660
11749TIP3    H135188   2.562   6.302   3.590
11749TIP3    H235189   2.538   6.294   3.739
11750TIP3   OH235190   7.371   5.417   2.193
11750TIP3    H135191   7.395   5.493   2.246
11750TIP3    H235192   7.446   5.358   2.200
11751TIP3   OH235193   0.449   5.456   0.823
11751TIP3    H135194   0.466   5.535   0.773
11751TIP3    H235195   0.485   5.474   0.910
11752TIP3   OH235196   1.362   5.674   4.958
11752TIP3    H135197   1.308   5.697   5.034
11752TIP3    H235198   1.390   5.584   4.975
11753TIP3   OH235199   3.472   7.346   6.617
11753TIP3    H135200   3.463   7.336   6.712
11753TIP3    H235201   3.514   7.432   6.607
11754TIP3   OH235202   4.770   5.266   2.480
11754TIP3    H135203   4.738   5.206   2.412
11754TIP3    H235204   4.803   5.208   2.548
11755TIP3   OH235205   0.966   1.113   5.108
11755TIP3    H135206   0.988   1.145   5.020
11755TIP3    H235207   1.007   1.026   5.112
11756TIP3   OH235208   3.663   5.180   2.949
11756TIP3    H135209   3.606   5.133   2.888
11756TIP3    H235210   3.606   5.200   3.023
11757TIP3   OH235211   7.910   5.542   1.652
11757TIP3    H135212   7.825   5.530   1.608
11757TIP3    H235213   7.902   5.627   1.695
11758TIP3   OH235214   7.266   2.757   5.780
11758TIP3    H135215   7.304   2.842   5.757
11758TIP3    H235216   7.210   2.734   5.706
11759TIP3   OH235217   7.149   5.373   2.378
11759TIP3    H135218   7.218   5.398   2.316
11759TIP3    H235219   7.073   5.426   2.352
11760TIP3   OH235220   4.693   1.493   3.855
11760TIP3    H135221   4.674   1.521   3.765
11760TIP3    H235222   4.692   1.574   3.906
11761TIP3   OH235223   1.747   0.627   3.022
11761TIP3    H135224   1.747   0.550   2.964
11761TIP3    H235225   1.808   0.688   2.980
11762TIP3   OH235226   2.793   3.416   3.783
11762TIP3    H135227   2.806   3.456   3.869
11762TIP3    H235228   2.719   3.356   3.795
11763TIP3   OH235229   0.801   3.996   0.295
11763TIP3    H135230   0.732   4.048   0.337
11763TIP3    H235231   0.755   3.948   0.226
11764TIP3   OH235232   3.618   7.146   4.474
11764TIP3    H135233   3.620   7.154   4.569
11764TIP3    H235234   3.672   7.219   4.443
11765TIP3   OH235235   0.110   7.644   0.557
11765TIP3    H135236   0.014   7.643   0.553
11765TIP3    H235237   0.131   7.630   0.650
11766TIP3   OH235238   1.842   2.724   0.158
11766TIP3    H135239   1.844   2.724   0.062
11766TIP3    H235240   1.749   2.730   0.180
11767TIP3   OH235241   5.842   6.551   5.419
11767TIP3    H135242   5.773   6.612   5.444
11767TIP3    H235243   5.849   6.492   5.494
11768TIP3   OH235244   8.095   3.253   5.587
11768TIP3    H135245   8.133   3.262   5.500
11768TIP3    H235246   8.026   3.188   5.577
11769TIP3   OH235247   1.385   6.945   5.037
11769TIP3    H135248   1.374   6.881   4.966
11769TIP3    H235249   1.346   7.025   5.002
11770TIP3   OH235250   8.091   5.729   3.410
11770TIP3    H135251   8.008   5.775   3.397
11770TIP3    H235252   8.092   5.708   3.504
11771TIP3   OH235253   1.920   3.971   1.991
11771TIP3    H135254   1.881   4.015   2.066
11771TIP3    H235255   1.849   3.916   1.956
11772TIP3   OH235256   5.024   0.275   2.673
11772TIP3    H135257   5.071   0.200   2.709
11772TIP3    H235258   4.988   0.320   2.750
11773TIP3   OH235259   3.271   2.124   1.280
11773TIP3    H135260   3.252   2.074   1.360
11773TIP3    H235261   3.189   2.124   1.232
11774TIP3   OH235262   2.258   3.852   5.697
11774TIP3    H135263   2.351   3.837   5.708
11774TIP3    H235264   2.219   3.826   5.781
11775TIP3   OH235265   7.660   2.266   4.095
11775TIP3    H135266   7.655   2.253   4.190
11775TIP3    H235267   7.582   2.222   4.061
11776TIP3   OH235268   4.158   0.823   1.533
11776TIP3    H135269   4.127   0.910   1.558
11776TIP3    H235270   4.213   0.794   1.606
11777TIP3   OH235271   1.782   7.399   1.043
11777TIP3    H135272   1.762   7.341   1.116
11777TIP3    H235273   1.805   7.483   1.084
11778TIP3   OH235274   7.987   3.722   3.868
11778TIP3    H135275   8.001   3.803   3.819
11778TIP3    H235276   8.072   3.679   3.868
11779TIP3   OH235277   2.738   2.525   5.424
11779TIP3    H135278   2.805   2.501   5.360
11779TIP3    H235279   2.786   2.575   5.491
11780TIP3   OH235280   1.479   7.346   4.854
11780TIP3    H135281   1.400   7.332   4.907
11780TIP3    H235282   1.510   7.433   4.880
11781TIP3   OH235283   0.014   2.979   3.213
11781TIP3    H135284   0.074   2.979   3.138
11781TIP3    H235285   0.029   2.895   3.256
11782TIP3   OH235286   5.619   5.216   0.495
11782TIP3    H135287   5.676   5.244   0.424
11782TIP3    H235288   5.542   5.272   0.488
11783TIP3   OH235289   4.525   3.383   3.954
11783TIP3    H135290   4.448   3.334   3.924
11783TIP3    H235291   4.584   3.382   3.879
11784TIP3   OH235292   2.265   0.780   2.249
11784TIP3    H135293   2.298   0.765   2.160
11784TIP3    H235294   2.188   0.723   2.256
11785TIP3   OH235295   7.368   1.127   6.719
11785TIP3    H135296   7.400   1.176   6.795
11785TIP3    H235297   7.411   1.041   6.726
11786TIP3   OH235298   0.756   6.766   6.199
11786TIP3    H135299   0.788   6.690   6.248
11786TIP3    H235300   0.670   6.739   6.167
11787TIP3   OH235301   6.569   1.310   0.453
11787TIP3    H135302   6.537   1.269   0.533
11787TIP3    H235303   6.603   1.238   0.401
11788TIP3   OH235304   2.762   6.098   5.335
11788TIP3    H135305   2.697   6.166   5.355
11788TIP3    H235306   2.834   6.114   5.396
11789TIP3   OH235307   2.158   3.131   5.375
11789TIP3    H135308   2.089   3.075   5.337
11789TIP3    H235309   2.233   3.120   5.317
11790TIP3   OH235310   6.371   1.812   0.636
11790TIP3    H135311   6.420   1.749   0.689
11790TIP3    H235312   6.418   1.895   0.647
11791TIP3   OH235313   4.438   2.380   4.582
11791TIP3    H135314   4.392   2.463   4.599
11791TIP3    H235315   4.379   2.332   4.523
11792TIP3   OH235316   2.208   3.189   6.787
11792TIP3    H135317   2.146   3.205   6.716
11792TIP3    H235318   2.157   3.201   6.867
11793TIP3   OH235319   6.302   6.300   4.309
11793TIP3    H135320   6.391   6.337   4.309
11793TIP3    H235321   6.245   6.376   4.302
11794TIP3   OH235322   6.092   4.598   4.698
11794TIP3    H135323   6.091   4.675   4.641
11794TIP3    H235324   6.110   4.633   4.785
11795TIP3   OH235325   5.843   0.933   5.260
11795TIP3    H135326   5.821   0.842   5.241
11795TIP3    H235327   5.921   0.951   5.207
11796TIP3   OH235328   6.153   4.706   6.046
11796TIP3    H135329   6.219   4.641   6.071
11796TIP3    H235330   6.073   4.655   6.034
11797TIP3   OH235331   0.794   6.520   0.616
11797TIP3    H135332   0.785   6.549   0.525
11797TIP3    H235333   0.722   6.563   0.662
11798TIP3   OH235334   0.671   1.452   2.728
11798TIP3    H135335   0.580   1.422   2.731
11798TIP3    H235336   0.677   1.518   2.797
11799TIP3   OH235337   1.932   4.041   4.129
11799TIP3    H135338   1.844   4.073   4.106
11799TIP3    H235339   1.955   3.982   4.057
11800TIP3   OH235340   0.225   6.578   2.045
11800TIP3    H135341   0.214   6.666   2.008
11800TIP3    H235342   0.266   6.527   1.975
11801TIP3   OH235343   2.583   3.560   0.649
11801TIP3    H135344   2.539   3.522   0.573
11801TIP3    H235345   2.511   3.592   0.705
11802TIP3   OH235346   3.284   6.736   5.542
11802TIP3    H135347   3.362   6.765   5.495
11802TIP3    H235348   3.244   6.817   5.573
11803TIP3   OH235349   7.174   1.117   3.463
11803TIP3    H135350   7.195   1.193   3.518
11803TIP3    H235351   7.083   1.131   3.436
11804TIP3   OH235352   6.524   1.722   2.586
11804TIP3    H135353   6.545   1.633   2.615
11804TIP3    H235354   6.444   1.712   2.534
11805TIP3   OH235355   5.783   2.972   5.218
11805TIP3    H135356   5.715   3.034   5.191
11805TIP3    H235357   5.753   2.888   5.185
11806TIP3   OH235358   2.239   3.334   1.818
11806TIP3    H135359   2.216   3.386   1.741
11806TIP3    H235360   2.159   3.288   1.840
11807TIP3   OH235361   7.636   0.253   1.543
11807TIP3    H135362   7.597   0.190   1.483
11807TIP3    H235363   7.728   0.227   1.550
11808TIP3   OH235364   6.446   1.662   3.165
11808TIP3    H135365   6.522   1.675   3.222
11808TIP3    H235366   6.396   1.744   3.171
11809TIP3   OH235367   5.821   0.065   1.789
11809TIP3    H135368   5.846  -0.019   1.751
11809TIP3    H235369   5.839   0.129   1.720
11810TIP3   OH235370   5.517   5.364   0.831
11810TIP3    H135371   5.492   5.397   0.744
11810TIP3    H235372   5.438   5.323   0.865
11811TIP3   OH235373   3.439   4.110   2.883
11811TIP3    H135374   3.366   4.061   2.846
11811TIP3    H235375   3.439   4.087   2.976
11812TIP3   OH235376   1.252   4.168   4.445
11812TIP3    H135377   1.264   4.255   4.406
11812TIP3    H235378   1.312   4.111   4.397
11813TIP3   OH235379   3.672   3.494   6.731
11813TIP3    H135380   3.702   3.499   6.822
11813TIP3    H235381   3.701   3.576   6.691
11814TIP3   OH235382   5.095   7.027   3.559
11814TIP3    H135383   5.011   7.071   3.570
11814TIP3    H235384   5.101   7.009   3.466
11815TIP3   OH235385   1.338   5.966   6.070
11815TIP3    H135386   1.313   6.051   6.106
11815TIP3    H235387   1.419   5.983   6.023
11816TIP3   OH235388   7.373   2.556   3.971
11816TIP3    H135389   7.364   2.467   3.937
11816TIP3    H235390   7.381   2.611   3.893
11817TIP3   OH235391   0.534   2.354   1.335
11817TIP3    H135392   0.523   2.290   1.405
11817TIP3    H235393   0.471   2.328   1.268
11818TIP3   OH235394   4.190   4.997   5.101
11818TIP3    H135395   4.274   4.953   5.097
11818TIP3    H235396   4.207   5.078   5.150
11819TIP3   OH235397   3.235   5.859   0.611
11819TIP3    H135398   3.231   5.932   0.673
11819TIP3    H235399   3.319   5.817   0.630
11820TIP3   OH235400   4.837   1.907   4.434
11820TIP3    H135401   4.748   1.899   4.466
11820TIP3    H235402   4.872   1.818   4.437
11821TIP3   OH235403   7.026   6.341   1.310
11821TIP3    H135404   7.018   6.398   1.386
11821TIP3    H235405   7.120   6.341   1.290
11822TIP3   OH235406   1.252   5.207   1.935
11822TIP3    H135407   1.286   5.159   1.859
11822TIP3    H235408   1.262   5.299   1.911
11823TIP3   OH235409   6.945   5.033   5.932
11823TIP3    H135410   6.981   5.063   6.016
11823TIP3    H235411   6.999   5.076   5.866
11824TIP3   OH235412   1.399   0.546   5.820
11824TIP3    H135413   1.367   0.631   5.849
11824TIP3    H235414   1.473   0.527   5.877
11825TIP3   OH235415   2.785   7.221   5.184
11825TIP3    H135416   2.791   7.136   5.228
11825TIP3    H235417   2.829   7.206   5.100
11826TIP3   OH235418   3.938   1.187   4.331
11826TIP3    H135419   3.867   1.126   4.350
11826TIP3    H235420   4.018   1.134   4.336
11827TIP3   OH235421   1.952   6.150   1.996
11827TIP3    H135422   1.969   6.171   2.087
11827TIP3    H235423   1.886   6.081   1.998
11828TIP3   OH235424   2.878   6.286   4.778
11828TIP3    H135425   2.822   6.361   4.757
11828TIP3    H235426   2.835   6.211   4.737
11829TIP3   OH235427   5.208   6.982   4.629
11829TIP3    H135428   5.180   7.012   4.542
11829TIP3    H235429   5.181   6.891   4.633
11830TIP3   OH235430   4.993   7.675   3.537
11830TIP3    H135431   5.040   7.601   3.498
11830TIP3    H235432   4.942   7.712   3.465
11831TIP3   OH235433   5.902   6.106   1.068
11831TIP3    H135434   5.973   6.064   1.116
11831TIP3    H235435   5.942   6.185   1.031
11832TIP3   OH235436   4.379   6.496   0.606
11832TIP3    H135437   4.312   6.484   0.539
11832TIP3    H235438   4.462   6.492   0.559
11833TIP3   OH235439   0.445   1.184   0.671
11833TIP3    H135440   0.453   1.236   0.751
11833TIP3    H235441   0.444   1.093   0.702
11834TIP3   OH235442   7.993   1.718   2.441
11834TIP3    H135443   7.906   1.683   2.425
11834TIP3    H235444   7.997   1.797   2.386
11835TIP3   OH235445   0.416   7.305   0.108
11835TIP3    H135446   0.339   7.349   0.071
11835TIP3    H235447   0.384   7.263   0.188
11836TIP3   OH235448   4.940   2.934   6.544
11836TIP3    H135449   4.954   2.847   6.506
11836TIP3    H235450   4.850   2.956   6.520
11837TIP3   OH235451   6.559   5.445   2.458
11837TIP3    H135452   6.505   5.367   2.444
11837TIP3    H235453   6.635   5.433   2.401
11838TIP3   OH235454   5.370   1.124   0.358
11838TIP3    H135455   5.405   1.101   0.444
11838TIP3    H235456   5.329   1.044   0.326
11839TIP3   OH235457   0.986   5.656   3.546
11839TIP3    H135458   1.025   5.628   3.629
11839TIP3    H235459   0.991   5.752   3.549
11840TIP3   OH235460   8.225   2.581   1.718
11840TIP3    H135461   8.153   2.591   1.780
11840TIP3    H235462   8.183   2.558   1.635
11841TIP3   OH235463   2.395   4.185   2.351
11841TIP3    H135464   2.332   4.223   2.290
11841TIP3    H235465   2.472   4.165   2.297
11842TIP3   OH235466   5.013   3.389   0.988
11842TIP3    H135467   5.021   3.484   0.981
11842TIP3    H235468   4.927   3.368   0.953
11843TIP3   OH235469   6.622   2.799   1.901
11843TIP3    H135470   6.639   2.765   1.813
11843TIP3    H235471   6.597   2.723   1.953
11844TIP3   OH235472   6.787   2.483   1.065
11844TIP3    H135473   6.780   2.388   1.058
11844TIP3    H235474   6.851   2.508   0.999
11845TIP3   OH235475   7.227   0.403   4.383
11845TIP3    H135476   7.254   0.441   4.299
11845TIP3    H235477   7.283   0.327   4.395
11846TIP3   OH235478   2.035   1.905   1.025
11846TIP3    H135479   2.106   1.960   1.059
11846TIP3    H235480   1.955   1.953   1.047
11847TIP3   OH235481   3.603   2.273   5.939
11847TIP3    H135482   3.611   2.337   5.868
11847TIP3    H235483   3.603   2.325   6.019
11848TIP3   OH235484   1.614   4.786   5.656
11848TIP3    H135485   1.662   4.740   5.587
11848TIP3    H235486   1.546   4.725   5.684
11849TIP3   OH235487   4.856   4.464   1.551
11849TIP3    H135488   4.889   4.421   1.472
11849TIP3    H235489   4.828   4.551   1.522
11850TIP3   OH235490   5.069   1.599   5.609
11850TIP3    H135491   5.025   1.535   5.553
11850TIP3    H235492   4.998   1.655   5.641
11851TIP3   OH235493   7.501   1.042   0.879
11851TIP3    H135494   7.559   1.054   0.954
11851TIP3    H235495   7.539   0.968   0.831
11852TIP3   OH235496   3.726   5.639   4.835
11852TIP3    H135497   3.804   5.691   4.815
11852TIP3    H235498   3.727   5.628   4.930
11853TIP3   OH235499   2.800   3.078   5.076
11853TIP3    H135500   2.816   3.011   5.143
11853TIP3    H235501   2.862   3.148   5.097
11854TIP3   OH235502   1.491   4.796   0.482
11854TIP3    H135503   1.443   4.848   0.546
11854TIP3    H235504   1.501   4.855   0.406
11855TIP3   OH235505   4.681   1.707   0.202
11855TIP3    H135506   4.599   1.667   0.230
11855TIP3    H235507   4.713   1.650   0.132
11856TIP3   OH235508   6.089   2.488   6.553
11856TIP3    H135509   6.168   2.527   6.514
11856TIP3    H235510   6.017   2.542   6.520
11857TIP3   OH235511   0.188   3.907   0.498
11857TIP3    H135512   0.157   3.824   0.463
11857TIP3    H235513   0.225   3.952   0.422
11858TIP3   OH235514   6.037   0.710   1.744
11858TIP3    H135515   6.128   0.693   1.765
11858TIP3    H235516   6.026   0.678   1.655
11859TIP3   OH235517   1.066   0.649   3.851
11859TIP3    H135518   1.081   0.606   3.766
11859TIP3    H235519   1.000   0.594   3.894
11860TIP3   OH235520   1.641   2.615   1.430
11860TIP3    H135521   1.693   2.612   1.510
11860TIP3    H235522   1.646   2.527   1.394
11861TIP3   OH235523   0.930   6.389   4.574
11861TIP3    H135524   0.873   6.324   4.533
11861TIP3    H235525   0.910   6.382   4.667
11862TIP3   OH235526   3.092   1.137   3.766
11862TIP3    H135527   3.066   1.186   3.688
11862TIP3    H235528   3.117   1.204   3.829
11863TIP3   OH235529   6.319   5.497   1.758
11863TIP3    H135530   6.328   5.590   1.779
11863TIP3    H235531   6.359   5.452   1.832
11864TIP3   OH235532   2.249   2.036   3.746
11864TIP3    H135533   2.316   1.997   3.690
11864TIP3    H235534   2.170   2.037   3.692
11865TIP3   OH235535   0.352   4.877   0.004
11865TIP3    H135536   0.441   4.913  -0.003
11865TIP3    H235537   0.336   4.871   0.098
11866TIP3   OH235538   8.350   2.658   5.280
11866TIP3    H135539   8.284   2.657   5.211
11866TIP3    H235540   8.338   2.742   5.323
11867TIP3   OH235541   5.094   2.248   1.163
11867TIP3    H135542   5.027   2.243   1.231
11867TIP3    H235543   5.145   2.325   1.185
11868TIP3   OH235544   7.040   4.336   6.667
11868TIP3    H135545   7.095   4.324   6.743
11868TIP3    H235546   6.952   4.352   6.702
11869TIP3   OH235547   5.217   4.230   4.294
11869TIP3    H135548   5.235   4.143   4.257
11869TIP3    H235549   5.303   4.270   4.304
11870TIP3   OH235550   3.192   6.980   5.630
11870TIP3    H135551   3.245   6.970   5.709
11870TIP3    H235552   3.218   7.065   5.595
11871TIP3   OH235553   0.032   2.269   2.223
11871TIP3    H135554  -0.011   2.342   2.177
11871TIP3    H235555   0.014   2.193   2.169
11872TIP3   OH235556   2.137   4.433   6.006
11872TIP3    H135557   2.097   4.376   5.940
11872TIP3    H235558   2.103   4.520   5.986
11873TIP3   OH235559   8.165   4.533   2.923
11873TIP3    H135560   8.150   4.439   2.907
11873TIP3    H235561   8.077   4.570   2.933
11874TIP3   OH235562   1.701   6.797   6.420
11874TIP3    H135563   1.716   6.706   6.397
11874TIP3    H235564   1.787   6.829   6.448
11875TIP3   OH235565   3.792   2.044   3.455
11875TIP3    H135566   3.871   2.089   3.428
11875TIP3    H235567   3.815   1.951   3.452
11876TIP3   OH235568   1.494   5.687   0.441
11876TIP3    H135569   1.434   5.672   0.368
11876TIP3    H235570   1.449   5.750   0.497
11877TIP3   OH235571   2.036   5.516   3.799
11877TIP3    H135572   2.003   5.598   3.762
11877TIP3    H235573   2.104   5.488   3.738
11878TIP3   OH235574   1.709   6.001   1.512
11878TIP3    H135575   1.702   6.068   1.443
11878TIP3    H235576   1.776   5.941   1.480
11879TIP3   OH235577   3.782   6.909   6.434
11879TIP3    H135578   3.776   7.003   6.454
11879TIP3    H235579   3.701   6.872   6.469
11880TIP3   OH235580   2.940   4.217   0.461
11880TIP3    H135581   2.988   4.173   0.531
11880TIP3    H235582   2.985   4.190   0.381
11881TIP3   OH235583   4.680   0.791   5.162
11881TIP3    H135584   4.619   0.719   5.150
11881TIP3    H235585   4.766   0.754   5.143
11882TIP3   OH235586   8.216   3.335   4.876
11882TIP3    H135587   8.166   3.395   4.931
11882TIP3    H235588   8.204   3.368   4.787
11883TIP3   OH235589   2.984  -0.006   0.743
11883TIP3    H135590   2.894   0.008   0.713
11883TIP3    H235591   2.987   0.036   0.829
11884TIP3   OH235592   1.104   7.086   3.878
11884TIP3    H135593   1.033   7.060   3.937
11884TIP3    H235594   1.070   7.071   3.790
11885TIP3   OH235595   2.656   2.263   4.722
11885TIP3    H135596   2.623   2.342   4.764
11885TIP3    H235597   2.622   2.267   4.633
11886TIP3   OH235598   1.144   5.681   0.741
11886TIP3    H135599   1.141   5.658   0.648
11886TIP3    H235600   1.070   5.634   0.780
11887TIP3   OH235601   5.400   2.526   5.368
11887TIP3    H135602   5.477   2.500   5.318
11887TIP3    H235603   5.331   2.538   5.302
11888TIP3   OH235604   2.394   1.141   3.263
11888TIP3    H135605   2.449   1.218   3.279
11888TIP3    H235606   2.312   1.160   3.309
11889TIP3   OH235607   4.143   0.982   3.872
11889TIP3    H135608   4.207   1.034   3.922
11889TIP3    H235609   4.156   0.892   3.902
11890TIP3   OH235610   0.936   0.516   5.975
11890TIP3    H135611   0.865   0.470   5.929
11890TIP3    H235612   0.990   0.553   5.905
11891TIP3   OH235613   6.230   0.397   4.664
11891TIP3    H135614   6.156   0.339   4.647
11891TIP3    H235615   6.191   0.482   4.683
11892TIP3   OH235616   0.696   5.087   1.978
11892TIP3    H135617   0.666   5.178   1.986
11892TIP3    H235618   0.789   5.094   1.956
11893TIP3   OH235619   0.734   5.556   1.553
11893TIP3    H135620   0.728   5.481   1.493
11893TIP3    H235621   0.758   5.517   1.637
11894TIP3   OH235622   1.010   5.234   3.609
11894TIP3    H135623   1.063   5.159   3.584
11894TIP3    H235624   1.074   5.303   3.629
11895TIP3   OH235625   1.497   3.038   6.212
11895TIP3    H135626   1.438   3.002   6.146
11895TIP3    H235627   1.506   3.130   6.187
11896TIP3   OH235628   0.062   4.409   2.995
11896TIP3    H135629   0.062   4.370   2.908
11896TIP3    H235630  -0.028   4.437   3.009
11897TIP3   OH235631   3.667   5.918   2.927
11897TIP3    H135632   3.685   5.858   2.999
11897TIP3    H235633   3.651   6.003   2.969
11898TIP3   OH235634   3.447   2.991   3.209
11898TIP3    H135635   3.489   3.052   3.270
11898TIP3    H235636   3.519   2.957   3.156
11899TIP3   OH235637   2.620   7.380   0.061
11899TIP3    H135638   2.595   7.289   0.047
11899TIP3    H235639   2.572   7.429  -0.006
11900TIP3   OH235640   3.502   4.720   2.362
11900TIP3    H135641   3.533   4.761   2.281
11900TIP3    H235642   3.409   4.704   2.347
11901TIP3   OH235643   3.293   6.172   4.336
11901TIP3    H135644   3.229   6.243   4.332
11901TIP3    H235645   3.282   6.125   4.253
11902TIP3   OH235646   4.764   5.545   1.449
11902TIP3    H135647   4.840   5.516   1.500
11902TIP3    H235648   4.771   5.641   1.450
11903TIP3   OH235649   0.942   2.475   5.324
11903TIP3    H135650   1.035   2.456   5.313
11903TIP3    H235651   0.934   2.506   5.413
11904TIP3   OH235652   5.182   3.089   4.237
11904TIP3    H135653   5.097   3.132   4.243
11904TIP3    H235654   5.178   3.038   4.156
11905TIP3   OH235655   6.851   5.026   6.275
11905TIP3    H135656   6.762   5.053   6.295
11905TIP3    H235657   6.885   5.095   6.219
11906TIP3   OH235658   3.451   1.321   4.210
11906TIP3    H135659   3.468   1.332   4.116
11906TIP3    H235660   3.366   1.362   4.225
11907TIP3   OH235661   2.158   4.272   3.458
11907TIP3    H135662   2.213   4.207   3.501
11907TIP3    H235663   2.217   4.318   3.398
11908TIP3   OH235664   0.453   4.952   6.251
11908TIP3    H135665   0.399   4.880   6.284
11908TIP3    H235666   0.543   4.921   6.261
11909TIP3   OH235667   7.243   6.315   5.191
11909TIP3    H135668   7.258   6.358   5.107
11909TIP3    H235669   7.286   6.231   5.184
11910TIP3   OH235670   4.247   6.237   3.397
11910TIP3    H135671   4.156   6.237   3.369
11910TIP3    H235672   4.295   6.274   3.323
11911TIP3   OH235673   1.825   1.552   4.629
11911TIP3    H135674   1.743   1.558   4.580
11911TIP3    H235675   1.877   1.625   4.598
11912TIP3   OH235676   4.539   7.004   2.737
11912TIP3    H135677   4.600   6.972   2.803
11912TIP3    H235678   4.557   6.951   2.659
11913TIP3   OH235679   5.972   7.630   4.988
11913TIP3    H135680   5.971   7.710   5.039
11913TIP3    H235681   5.932   7.564   5.045
11914TIP3   OH235682   2.245   5.785   4.704
11914TIP3    H135683   2.250   5.714   4.640
11914TIP3    H235684   2.250   5.741   4.789
11915TIP3   OH235685   7.881   4.535   5.540
11915TIP3    H135686   7.837   4.507   5.620
11915TIP3    H235687   7.897   4.629   5.553
11916TIP3   OH235688   3.567   2.556   6.701
11916TIP3    H135689   3.506   2.486   6.726
11916TIP3    H235690   3.535   2.588   6.617
11917TIP3   OH235691   6.880   0.936   2.221
11917TIP3    H135692   6.958   0.982   2.251
11917TIP3    H235693   6.820   0.939   2.295
11918TIP3   OH235694   3.263   7.408   6.188
11918TIP3    H135695   3.352   7.372   6.179
11918TIP3    H235696   3.246   7.450   6.103
11919TIP3   OH235697   7.606   1.841   2.262
11919TIP3    H135698   7.580   1.925   2.298
11919TIP3    H235699   7.599   1.851   2.167
11920TIP3   OH235700   1.393   4.727   6.169
11920TIP3    H135701   1.482   4.692   6.177
11920TIP3    H235702   1.343   4.680   6.236
11921TIP3   OH235703   0.276   6.429   5.644
11921TIP3    H135704   0.289   6.492   5.573
11921TIP3    H235705   0.337   6.358   5.625
11922TIP3   OH235706   6.846   4.464   5.702
11922TIP3    H135707   6.905   4.421   5.640
11922TIP3    H235708   6.771   4.492   5.650
11923TIP3   OH235709   7.645   0.800   2.551
11923TIP3    H135710   7.709   0.833   2.614
11923TIP3    H235711   7.670   0.709   2.536
11924TIP3   OH235712   6.642   1.389   4.020
11924TIP3    H135713   6.637   1.478   4.053
11924TIP3    H235714   6.562   1.346   4.051
11925TIP3   OH235715   1.731   3.769   1.863
11925TIP3    H135716   1.772   3.682   1.860
11925TIP3    H235717   1.693   3.780   1.776
11926TIP3   OH235718   2.274   5.254   5.152
11926TIP3    H135719   2.221   5.186   5.111
11926TIP3    H235720   2.279   5.228   5.244
11927TIP3   OH235721   7.696   5.229   0.811
11927TIP3    H135722   7.773   5.273   0.776
11927TIP3    H235723   7.730   5.170   0.878
11928TIP3   OH235724   0.949   2.526   4.397
11928TIP3    H135725   0.973   2.609   4.437
11928TIP3    H235726   0.858   2.512   4.422
11929TIP3   OH235727   3.469   3.448   6.127
11929TIP3    H135728   3.404   3.384   6.158
11929TIP3    H235729   3.495   3.416   6.041
11930TIP3   OH235730   3.617   6.146   6.218
11930TIP3    H135731   3.567   6.120   6.141
11930TIP3    H235732   3.571   6.223   6.252
11931TIP3   OH235733   2.664   4.436   0.344
11931TIP3    H135734   2.587   4.469   0.391
11931TIP3    H235735   2.662   4.480   0.260
11932TIP3   OH235736   6.716   7.010   1.434
11932TIP3    H135737   6.647   7.024   1.369
11932TIP3    H235738   6.748   7.099   1.454
11933TIP3   OH235739   1.084   1.294   6.275
11933TIP3    H135740   1.107   1.376   6.232
11933TIP3    H235741   1.032   1.320   6.351
11934TIP3   OH235742   4.133   1.040   2.884
11934TIP3    H135743   4.126   1.116   2.826
11934TIP3    H235744   4.177   1.074   2.962
11935TIP3   OH235745   5.872   1.351   1.690
11935TIP3    H135746   5.904   1.261   1.703
11935TIP3    H235747   5.949   1.399   1.659
11936TIP3   OH235748   0.549   4.917   3.840
11936TIP3    H135749   0.511   4.979   3.777
11936TIP3    H235750   0.503   4.935   3.922
11937TIP3   OH235751   2.661   6.977   4.528
11937TIP3    H135752   2.723   6.969   4.601
11937TIP3    H235753   2.650   7.072   4.517
11938TIP3   OH235754   4.816   0.214   1.360
11938TIP3    H135755   4.877   0.282   1.390
11938TIP3    H235756   4.847   0.191   1.272
11939TIP3   OH235757   8.362   4.305   4.954
11939TIP3    H135758   8.293   4.369   4.975
11939TIP3    H235759   8.315   4.234   4.910
11940TIP3   OH235760   4.028   3.979   2.295
11940TIP3    H135761   4.034   3.886   2.317
11940TIP3    H235762   4.003   4.022   2.376
11941TIP3   OH235763   2.692   0.414   4.963
11941TIP3    H135764   2.750   0.436   5.035
11941TIP3    H235765   2.623   0.480   4.966
11942TIP3   OH235766   5.573   5.761   2.541
11942TIP3    H135767   5.650   5.766   2.485
11942TIP3    H235768   5.539   5.851   2.543
11943TIP3   OH235769   6.528   2.812   4.498
11943TIP3    H135770   6.571   2.885   4.544
11943TIP3    H235771   6.436   2.836   4.496
11944TIP3   OH235772   1.256   1.649   1.525
11944TIP3    H135773   1.197   1.661   1.451
11944TIP3    H235774   1.315   1.579   1.496
11945TIP3   OH235775   6.548   3.106   6.353
11945TIP3    H135776   6.558   3.037   6.286
11945TIP3    H235777   6.564   3.061   6.436
11946TIP3   OH235778   1.659   6.087   4.513
11946TIP3    H135779   1.615   6.006   4.541
11946TIP3    H235780   1.751   6.073   4.535
11947TIP3   OH235781   4.456   3.730   4.486
11947TIP3    H135782   4.517   3.796   4.455
11947TIP3    H235783   4.476   3.652   4.434
11948TIP3   OH235784   0.423   0.611   2.546
11948TIP3    H135785   0.365   0.683   2.520
11948TIP3    H235786   0.500   0.655   2.583
11949TIP3   OH235787   2.065   4.122   0.117
11949TIP3    H135788   2.023   4.040   0.094
11949TIP3    H235789   2.014   4.155   0.192
11950TIP3   OH235790   1.315   7.603   5.561
11950TIP3    H135791   1.274   7.676   5.607
11950TIP3    H235792   1.357   7.552   5.630
11951TIP3   OH235793   2.687   7.518   0.281
11951TIP3    H135794   2.666   7.441   0.333
11951TIP3    H235795   2.677   7.489   0.190
11952TIP3   OH235796   7.926   5.722   5.188
11952TIP3    H135797   7.860   5.783   5.219
11952TIP3    H235798   7.911   5.642   5.239
11953TIP3   OH235799   5.848   2.191   0.011
11953TIP3    H135800   5.766   2.142   0.016
11953TIP3    H235801   5.855   2.236   0.096
11954TIP3   OH235802   7.277   3.929   3.689
11954TIP3    H135803   7.190   3.954   3.658
11954TIP3    H235804   7.289   3.976   3.771
11955TIP3   OH235805   7.464   0.252   6.656
11955TIP3    H135806   7.541   0.297   6.621
11955TIP3    H235807   7.487   0.159   6.651
11956TIP3   OH235808   5.845   4.243   2.946
11956TIP3    H135809   5.903   4.268   2.874
11956TIP3    H235810   5.836   4.322   2.998
11957TIP3   OH235811   0.194   2.305   3.356
11957TIP3    H135812   0.258   2.349   3.413
11957TIP3    H235813   0.232   2.218   3.340
11958TIP3   OH235814   6.397   4.000   3.968
11958TIP3    H135815   6.462   4.064   3.998
11958TIP3    H235816   6.449   3.929   3.931
11959TIP3   OH235817   1.632   5.205   3.689
11959TIP3    H135818   1.697   5.144   3.724
11959TIP3    H235819   1.588   5.240   3.767
11960TIP3   OH235820   4.964   4.617   4.911
11960TIP3    H135821   5.020   4.677   4.959
11960TIP3    H235822   4.994   4.530   4.938
11961TIP3   OH235823   2.043   1.748   6.218
11961TIP3    H135824   2.033   1.691   6.295
11961TIP3    H235825   2.034   1.688   6.143
11962TIP3   OH235826   3.159   1.934   0.409
11962TIP3    H135827   3.242   1.977   0.431
11962TIP3    H235828   3.185   1.851   0.368
11963TIP3   OH235829   4.600   6.597   4.252
11963TIP3    H135830   4.592   6.549   4.170
11963TIP3    H235831   4.671   6.659   4.237
11964TIP3   OH235832   0.438   0.993   1.273
11964TIP3    H135833   0.524   0.973   1.309
11964TIP3    H235834   0.378   0.930   1.314
11965TIP3   OH235835   6.851   5.916   6.132
11965TIP3    H135836   6.864   6.001   6.092
11965TIP3    H235837   6.756   5.901   6.128
11966TIP3   OH235838   1.194   5.873   2.416
11966TIP3    H135839   1.211   5.885   2.323
11966TIP3    H235840   1.099   5.861   2.421
11967TIP3   OH235841   1.871   4.142   1.008
11967TIP3    H135842   1.805   4.074   1.018
11967TIP3    H235843   1.822   4.223   0.999
11968TIP3   OH235844   3.243   2.045   0.093
11968TIP3    H135845   3.187   1.969   0.105
11968TIP3    H235846   3.332   2.012   0.107
11969TIP3   OH235847   7.070   6.192   2.753
11969TIP3    H135848   7.038   6.275   2.717
11969TIP3    H235849   7.162   6.208   2.773
11970TIP3   OH235850   6.838   6.448   2.238
11970TIP3    H135851   6.809   6.358   2.225
11970TIP3    H235852   6.854   6.481   2.150
11971TIP3   OH235853   6.226   5.625   2.971
11971TIP3    H135854   6.268   5.546   3.005
11971TIP3    H235855   6.297   5.689   2.965
11972TIP3   OH235856   6.097   0.090   1.533
11972TIP3    H135857   6.049   0.015   1.498
11972TIP3    H235858   6.081   0.160   1.470
11973TIP3   OH235859   7.263   4.843   0.366
11973TIP3    H135860   7.325   4.826   0.437
11973TIP3    H235861   7.177   4.827   0.405
11974TIP3   OH235862   0.789   1.934   5.487
11974TIP3    H135863   0.817   1.868   5.423
11974TIP3    H235864   0.782   1.886   5.569
11975TIP3   OH235865   5.666   6.115   2.817
11975TIP3    H135866   5.726   6.046   2.789
11975TIP3    H235867   5.722   6.193   2.826
11976TIP3   OH235868   5.689   0.575   6.519
11976TIP3    H135869   5.739   0.626   6.583
11976TIP3    H235870   5.752   0.513   6.483
11977TIP3   OH235871   4.962   2.475   3.967
11977TIP3    H135872   4.966   2.380   3.954
11977TIP3    H235873   5.046   2.507   3.935
11978TIP3   OH235874   2.687   3.648   2.698
11978TIP3    H135875   2.693   3.743   2.711
11978TIP3    H235876   2.765   3.626   2.647
11979TIP3   OH235877   5.116   5.793   1.850
11979TIP3    H135878   5.109   5.702   1.881
11979TIP3    H235879   5.121   5.845   1.930
11980TIP3   OH235880   3.279   4.933   6.059
11980TIP3    H135881   3.295   5.027   6.064
11980TIP3    H235882   3.239   4.911   6.143
11981TIP3   OH235883   4.303   5.138   1.695
11981TIP3    H135884   4.320   5.164   1.604
11981TIP3    H235885   4.257   5.055   1.688
11982TIP3   OH235886   7.393   4.103   1.018
11982TIP3    H135887   7.457   4.100   0.948
11982TIP3    H235888   7.309   4.086   0.975
11983TIP3   OH235889   6.646   5.593   1.771
11983TIP3    H135890   6.585   5.662   1.745
11983TIP3    H235891   6.664   5.545   1.691
11984TIP3   OH235892   3.010   4.462   3.956
11984TIP3    H135893   3.093   4.444   3.912
11984TIP3    H235894   3.033   4.522   4.027
11985TIP3   OH235895   2.094  -0.017   3.453
11985TIP3    H135896   2.080   0.077   3.458
11985TIP3    H235897   2.074  -0.040   3.363
11986TIP3   OH235898   0.302   6.422   4.058
11986TIP3    H135899   0.309   6.454   4.148
11986TIP3    H235900   0.243   6.484   4.015
11987TIP3   OH235901   4.842   6.517   4.943
11987TIP3    H135902   4.754   6.489   4.917
11987TIP3    H235903   4.828   6.598   4.992
11988TIP3   OH235904   7.180   3.157   6.361
11988TIP3    H135905   7.112   3.178   6.424
11988TIP3    H235906   7.201   3.241   6.320
11989TIP3   OH235907   5.738   2.424   6.766
11989TIP3    H135908   5.724   2.516   6.788
11989TIP3    H235909   5.752   2.423   6.671
11990TIP3   OH235910   8.209   5.011   6.370
11990TIP3    H135911   8.231   5.034   6.460
11990TIP3    H235912   8.219   5.093   6.322
11991TIP3   OH235913   4.554   4.201   0.547
11991TIP3    H135914   4.534   4.138   0.616
11991TIP3    H235915   4.628   4.164   0.500
11992TIP3   OH235916   2.359   3.683   1.810
11992TIP3    H135917   2.443   3.672   1.766
11992TIP3    H235918   2.295   3.684   1.740
11993TIP3   OH235919   7.634   4.922   1.100
11993TIP3    H135920   7.544   4.926   1.067
11993TIP3    H235921   7.636   4.842   1.153
11994TIP3   OH235922   6.732   5.959   3.202
11994TIP3    H135923   6.740   5.865   3.214
11994TIP3    H235924   6.774   5.997   3.279
11995TIP3   OH235925   7.084   0.154   1.675
11995TIP3    H135926   7.095   0.249   1.686
11995TIP3    H235927   7.010   0.132   1.732
11996TIP3   OH235928   3.030   5.819   6.362
11996TIP3    H135929   3.051   5.860   6.278
11996TIP3    H235930   2.935   5.830   6.371
11997TIP3   OH235931   7.657   0.797   5.881
11997TIP3    H135932   7.695   0.782   5.795
11997TIP3    H235933   7.612   0.716   5.902
11998TIP3   OH235934   2.941   7.412   4.367
11998TIP3    H135935   2.849   7.427   4.345
11998TIP3    H235936   2.990   7.456   4.298
11999TIP3   OH235937   4.786   6.137   4.265
11999TIP3    H135938   4.864   6.172   4.221
11999TIP3    H235939   4.783   6.183   4.349
12000TIP3   OH235940   4.080   0.910   2.648
12000TIP3    H135941   4.131   0.943   2.722
12000TIP3    H235942   3.994   0.891   2.685
12001TIP3   OH235943   6.102   3.396   5.047
12001TIP3    H135944   6.040   3.361   5.112
12001TIP3    H235945   6.048   3.426   4.975
12002TIP3   OH235946   4.582   5.116   6.143
12002TIP3    H135947   4.560   5.200   6.102
12002TIP3    H235948   4.497   5.077   6.165
12003TIP3   OH235949   8.276   6.726   2.098
12003TIP3    H135950   8.207   6.786   2.125
12003TIP3    H235951   8.329   6.776   2.036
12004TIP3   OH235952   0.379   7.024   4.321
12004TIP3    H135953   0.362   6.956   4.256
12004TIP3    H235954   0.292   7.056   4.346
12005TIP3   OH235955   0.748   5.585   3.772
12005TIP3    H135956   0.739   5.678   3.751
12005TIP3    H235957   0.772   5.583   3.865
12006TIP3   OH235958   7.759   1.048   0.248
12006TIP3    H135959   7.722   0.969   0.286
12006TIP3    H235960   7.732   1.045   0.156
12007TIP3   OH235961   1.041   4.535   4.031
12007TIP3    H135962   1.049   4.447   4.068
12007TIP3    H235963   0.985   4.524   3.954
12008TIP3   OH235964   6.650   0.333   5.634
12008TIP3    H135965   6.558   0.314   5.620
12008TIP3    H235966   6.667   0.411   5.581
12009TIP3   OH235967   7.155   5.392   0.808
12009TIP3    H135968   7.248   5.402   0.830
12009TIP3    H235969   7.119   5.341   0.881
12010TIP3   OH235970   1.457   3.973   3.874
12010TIP3    H135971   1.392   4.035   3.906
12010TIP3    H235972   1.516   4.026   3.820
12011TIP3   OH235973   6.598   2.754   4.902
12011TIP3    H135974   6.508   2.758   4.870
12011TIP3    H235975   6.642   2.695   4.841
12012TIP3   OH235976   7.055   3.717   2.685
12012TIP3    H135977   7.045   3.702   2.591
12012TIP3    H235978   6.991   3.785   2.705
12013TIP3   OH235979   2.002   4.171   5.525
12013TIP3    H135980   2.069   4.124   5.476
12013TIP3    H235981   1.975   4.242   5.467
12014TIP3   OH235982   2.357   4.683   1.913
12014TIP3    H135983   2.414   4.754   1.883
12014TIP3    H235984   2.268   4.716   1.897
12015TIP3   OH235985   4.377   6.222   3.138
12015TIP3    H135986   4.325   6.148   3.169
12015TIP3    H235987   4.327   6.257   3.064
12016TIP3   OH235988   5.619   0.097   3.225
12016TIP3    H135989   5.562   0.170   3.248
12016TIP3    H235990   5.692   0.103   3.287
12017TIP3   OH235991   4.434   3.375   1.282
12017TIP3    H135992   4.445   3.408   1.371
12017TIP3    H235993   4.357   3.318   1.286
12018TIP3   OH235994   4.080   0.863   3.246
12018TIP3    H135995   4.094   0.820   3.162
12018TIP3    H235996   4.159   0.915   3.260
12019TIP3   OH235997   5.155   3.218   2.663
12019TIP3    H135998   5.133   3.271   2.586
12019TIP3    H235999   5.086   3.237   2.726
12020TIP3   OH236000   2.655   7.563   5.527
12020TIP3    H136001   2.681   7.527   5.612
12020TIP3    H236002   2.669   7.491   5.466
12021TIP3   OH236003   3.107   1.121   2.453
12021TIP3    H136004   3.179   1.066   2.421
12021TIP3    H236005   3.076   1.077   2.532
12022TIP3   OH236006   2.650   7.792   0.236
12022TIP3    H136007   2.725   7.810   0.180
12022TIP3    H236008   2.634   7.698   0.225
12023TIP3   OH236009   6.933   1.155   2.523
12023TIP3    H136010   6.928   1.207   2.603
12023TIP3    H236011   6.977   1.213   2.461
12024TIP3   OH236012   2.052   2.563   5.102
12024TIP3    H136013   2.036   2.555   5.196
12024TIP3    H236014   2.090   2.650   5.091
12025TIP3   OH236015   1.568   3.932   0.549
12025TIP3    H136016   1.552   3.931   0.455
12025TIP3    H236017   1.605   3.846   0.568
12026TIP3   OH236018   0.638   4.581   2.994
12026TIP3    H136019   0.687   4.630   2.928
12026TIP3    H236020   0.700   4.569   3.066
12027TIP3   OH236021   1.310   3.994   0.749
12027TIP3    H136022   1.383   3.982   0.688
12027TIP3    H236023   1.275   3.906   0.761
12028TIP3   OH236024   6.155   3.201   0.852
12028TIP3    H136025   6.175   3.175   0.762
12028TIP3    H236026   6.238   3.194   0.898
12029TIP3   OH236027   3.766   5.366   0.221
12029TIP3    H136028   3.789   5.412   0.302
12029TIP3    H236029   3.673   5.346   0.229
12030TIP3   OH236030   6.066   5.888   2.076
12030TIP3    H136031   6.044   5.918   2.164
12030TIP3    H236032   5.991   5.915   2.022
12031TIP3   OH236033   6.231   1.342   0.428
12031TIP3    H136034   6.290   1.347   0.352
12031TIP3    H236035   6.244   1.255   0.463
12032TIP3   OH236036   7.626   5.575   0.627
12032TIP3    H136037   7.616   5.584   0.722
12032TIP3    H236038   7.713   5.537   0.615
12033TIP3   OH236039   3.670   5.476   2.713
12033TIP3    H136040   3.582   5.491   2.679
12033TIP3    H236041   3.708   5.412   2.652
12034TIP3   OH236042   5.859   7.605   3.898
12034TIP3    H136043   5.764   7.615   3.904
12034TIP3    H236044   5.890   7.618   3.988
12035TIP3   OH236045   3.911   7.655   2.690
12035TIP3    H136046   3.821   7.658   2.722
12035TIP3    H236047   3.918   7.570   2.645
12036TIP3   OH236048   1.983   2.545   3.605
12036TIP3    H136049   1.970   2.623   3.551
12036TIP3    H236050   2.070   2.556   3.643
12037TIP3   OH236051   4.637   1.586   5.413
12037TIP3    H136052   4.651   1.511   5.470
12037TIP3    H236053   4.564   1.633   5.452
12038TIP3   OH236054   5.228   0.270   6.593
12038TIP3    H136055   5.226   0.285   6.688
12038TIP3    H236056   5.262   0.352   6.557
12039TIP3   OH236057   5.155   7.223   2.521
12039TIP3    H136058   5.228   7.202   2.579
12039TIP3    H236059   5.169   7.315   2.497
12040TIP3   OH236060   7.405   3.468   1.027
12040TIP3    H136061   7.356   3.529   0.972
12040TIP3    H236062   7.482   3.445   0.975
12041TIP3   OH236063   4.542   4.025   6.850
12041TIP3    H136064   4.554   3.932   6.833
12041TIP3    H236065   4.622   4.066   6.817
12042TIP3   OH236066   5.567   7.388   6.346
12042TIP3    H136067   5.547   7.468   6.298
12042TIP3    H236068   5.548   7.410   6.438
12043TIP3   OH236069   4.272   7.552   0.354
12043TIP3    H136070   4.232   7.499   0.424
12043TIP3    H236071   4.206   7.553   0.285
12044TIP3   OH236072   1.516   5.572   1.843
12044TIP3    H136073   1.522   5.562   1.748
12044TIP3    H236074   1.607   5.573   1.873
12045TIP3   OH236075   6.163   5.891   3.638
12045TIP3    H136076   6.108   5.936   3.574
12045TIP3    H236077   6.106   5.876   3.713
12046TIP3   OH236078   5.938   3.483   1.602
12046TIP3    H136079   5.995   3.423   1.651
12046TIP3    H236080   5.998   3.548   1.564
12047TIP3   OH236081   5.272   3.583   6.803
12047TIP3    H136082   5.225   3.500   6.806
12047TIP3    H236083   5.340   3.570   6.736
12048TIP3   OH236084   0.525   3.021   0.808
12048TIP3    H136085   0.490   2.997   0.894
12048TIP3    H236086   0.555   3.111   0.820
12049TIP3   OH236087   7.376   0.830   3.920
12049TIP3    H136088   7.318   0.873   3.983
12049TIP3    H236089   7.317   0.795   3.853
12050TIP3   OH236090   4.442   0.658   3.109
12050TIP3    H136091   4.514   0.709   3.145
12050TIP3    H236092   4.401   0.618   3.186
12051TIP3   OH236093   4.725   1.246   4.851
12051TIP3    H136094   4.704   1.329   4.809
12051TIP3    H236095   4.640   1.205   4.868
12052TIP3   OH236096   6.421   3.271   0.933
12052TIP3    H136097   6.492   3.322   0.894
12052TIP3    H236098   6.425   3.292   1.026
12053TIP3   OH236099   7.268   7.544   5.060
12053TIP3    H136100   7.253   7.543   5.154
12053TIP3    H236101   7.204   7.606   5.026
12054TIP3   OH236102   2.930   4.974   3.021
12054TIP3    H136103   2.995   5.044   3.025
12054TIP3    H236104   2.954   4.914   3.091
12055TIP3   OH236105   2.180   0.205   2.229
12055TIP3    H136106   2.092   0.241   2.239
12055TIP3    H236107   2.174   0.148   2.152
12056TIP3   OH236108   6.887   6.515   5.101
12056TIP3    H136109   6.796   6.526   5.077
12056TIP3    H236110   6.887   6.441   5.162
12057TIP3   OH236111   1.232   3.723   0.655
12057TIP3    H136112   1.243   3.769   0.572
12057TIP3    H236113   1.184   3.643   0.633
12058TIP3   OH236114   6.432   6.211   6.681
12058TIP3    H136115   6.514   6.245   6.718
12058TIP3    H236116   6.364   6.249   6.736
12059TIP3   OH236117   1.032   6.890   6.672
12059TIP3    H136118   0.993   6.954   6.732
12059TIP3    H236119   1.068   6.822   6.730
12060TIP3   OH236120   5.061   3.524   6.019
12060TIP3    H136121   5.108   3.602   5.987
12060TIP3    H236122   5.111   3.450   5.983
12061TIP3   OH236123   1.018   3.832   0.800
12061TIP3    H136124   1.029   3.808   0.892
12061TIP3    H236125   1.095   3.795   0.756
12062TIP3   OH236126   1.605   4.126   3.708
12062TIP3    H136127   1.525   4.165   3.674
12062TIP3    H236128   1.670   4.196   3.705
12063TIP3   OH236129   0.404   1.242   6.320
12063TIP3    H136130   0.399   1.338   6.320
12063TIP3    H236131   0.447   1.220   6.238
12064TIP3   OH236132   8.018   0.698   5.054
12064TIP3    H136133   8.061   0.678   4.971
12064TIP3    H236134   8.047   0.629   5.114
12065TIP3   OH236135   0.899   1.403   2.575
12065TIP3    H136136   0.888   1.319   2.531
12065TIP3    H236137   0.811   1.438   2.583
12066TIP3   OH236138   4.015   6.766   0.864
12066TIP3    H136139   3.972   6.737   0.944
12066TIP3    H236140   4.000   6.860   0.861
12067TIP3   OH236141   1.124   2.885   1.157
12067TIP3    H136142   1.203   2.928   1.189
12067TIP3    H236143   1.053   2.941   1.187
12068TIP3   OH236144   3.499   0.879   1.539
12068TIP3    H136145   3.415   0.874   1.492
12068TIP3    H236146   3.531   0.789   1.540
12069TIP3   OH236147   7.182   6.878   2.763
12069TIP3    H136148   7.186   6.917   2.676
12069TIP3    H236149   7.138   6.943   2.817
12070TIP3   OH236150   4.562   2.599   1.267
12070TIP3    H136151   4.570   2.552   1.350
12070TIP3    H236152   4.647   2.642   1.256
12071TIP3   OH236153   2.170   0.268   0.594
12071TIP3    H136154   2.117   0.189   0.584
12071TIP3    H236155   2.107   0.339   0.603
12072TIP3   OH236156   5.670   1.703   1.432
12072TIP3    H136157   5.689   1.682   1.341
12072TIP3    H236158   5.663   1.618   1.475
12073TIP3   OH236159   5.573   2.298   4.529
12073TIP3    H136160   5.559   2.342   4.613
12073TIP3    H236161   5.640   2.233   4.546
12074TIP3   OH236162   8.175   6.309   2.110
12074TIP3    H136163   8.236   6.369   2.151
12074TIP3    H236164   8.218   6.223   2.115
12075TIP3   OH236165   3.718   5.691   4.177
12075TIP3    H136166   3.745   5.694   4.269
12075TIP3    H236167   3.776   5.753   4.133
12076TIP3   OH236168   8.335   5.586   6.339
12076TIP3    H136169   8.371   5.530   6.407
12076TIP3    H236170   8.401   5.589   6.271
12077TIP3   OH236171   6.712   0.883   3.338
12077TIP3    H136172   6.626   0.841   3.338
12077TIP3    H236173   6.774   0.811   3.356
12078TIP3   OH236174   7.328   2.579   6.664
12078TIP3    H136175   7.410   2.618   6.634
12078TIP3    H236176   7.344   2.485   6.661
12079TIP3   OH236177   7.626   0.095   0.045
12079TIP3    H136178   7.709   0.127   0.009
12079TIP3    H236179   7.600   0.024  -0.014
12080TIP3   OH236180   3.522   3.120   3.718
12080TIP3    H136181   3.459   3.191   3.731
12080TIP3    H236182   3.606   3.165   3.708
12081TIP3   OH236183   4.155   7.771   4.062
12081TIP3    H136184   4.218   7.756   3.991
12081TIP3    H236185   4.097   7.839   4.028
12082TIP3   OH236186   8.334   3.417   1.219
12082TIP3    H136187   8.276   3.484   1.184
12082TIP3    H236188   8.378   3.459   1.293
12083TIP3   OH236189   0.762   1.628   3.546
12083TIP3    H136190   0.796   1.691   3.610
12083TIP3    H236191   0.747   1.548   3.597
12084TIP3   OH236192   5.585   7.479   4.639
12084TIP3    H136193   5.525   7.408   4.616
12084TIP3    H236194   5.631   7.500   4.558
12085TIP3   OH236195   7.976   2.180   2.313
12085TIP3    H136196   8.054   2.199   2.366
12085TIP3    H236197   7.916   2.251   2.333
12086TIP3   OH236198   2.079   7.520   5.621
12086TIP3    H136199   2.055   7.457   5.553
12086TIP3    H236200   1.995   7.547   5.659
12087TIP3   OH236201   5.506   4.068   1.618
12087TIP3    H136202   5.414   4.080   1.592
12087TIP3    H236203   5.556   4.119   1.555
12088TIP3   OH236204   0.668   1.233   4.087
12088TIP3    H136205   0.710   1.159   4.130
12088TIP3    H236206   0.740   1.282   4.048
12089TIP3   OH236207   3.068   6.654   5.971
12089TIP3    H136208   3.042   6.570   5.933
12089TIP3    H236209   3.153   6.673   5.932
12090TIP3   OH236210   5.699   1.556   6.333
12090TIP3    H136211   5.733   1.467   6.333
12090TIP3    H236212   5.775   1.611   6.353
12091TIP3   OH236213   2.784   0.938   4.411
12091TIP3    H136214   2.871   0.902   4.428
12091TIP3    H236215   2.746   0.951   4.498
12092TIP3   OH236216   6.870   5.364   5.933
12092TIP3    H136217   6.783   5.403   5.930
12092TIP3    H236218   6.924   5.419   5.877
12093TIP3   OH236219   1.195   5.965   3.369
12093TIP3    H136220   1.141   5.917   3.432
12093TIP3    H236221   1.234   6.036   3.420
12094TIP3   OH236222   6.269   1.057   6.262
12094TIP3    H136223   6.228   1.045   6.176
12094TIP3    H236224   6.354   1.014   6.254
12095TIP3   OH236225   3.543   2.795   2.252
12095TIP3    H136226   3.602   2.841   2.192
12095TIP3    H236227   3.589   2.713   2.272
12096TIP3   OH236228   3.881   7.201   3.462
12096TIP3    H136229   3.803   7.238   3.502
12096TIP3    H236230   3.954   7.248   3.504
12097TIP3   OH236231   5.155   6.211   1.365
12097TIP3    H136232   5.228   6.154   1.390
12097TIP3    H236233   5.186   6.299   1.385
12098TIP3   OH236234   5.335   0.847   0.315
12098TIP3    H136235   5.394   0.854   0.240
12098TIP3    H236236   5.390   0.819   0.388
12099TIP3   OH236237   6.355   1.682   2.387
12099TIP3    H136238   6.423   1.720   2.332
12099TIP3    H236239   6.276   1.685   2.332
12100TIP3   OH236240   6.112   1.479   0.027
12100TIP3    H136241   6.024   1.446   0.008
12100TIP3    H236242   6.098   1.545   0.096
12101TIP3   OH236243   2.262   3.719   5.474
12101TIP3    H136244   2.355   3.720   5.454
12101TIP3    H236245   2.255   3.759   5.561
12102TIP3   OH236246   6.670   7.679   0.086
12102TIP3    H136247   6.588   7.728   0.082
12102TIP3    H236248   6.645   7.591   0.113
12103TIP3   OH236249   2.748   0.551   6.245
12103TIP3    H136250   2.698   0.480   6.286
12103TIP3    H236251   2.810   0.579   6.312
12104TIP3   OH236252   6.121   0.024   4.818
12104TIP3    H136253   6.044  -0.032   4.827
12104TIP3    H236254   6.096   0.089   4.753
12105TIP3   OH236255   5.257   7.103   0.906
12105TIP3    H136256   5.331   7.109   0.966
12105TIP3    H236257   5.214   7.189   0.913
12106TIP3   OH236258   2.897   3.459   4.508
12106TIP3    H136259   2.868   3.509   4.432
12106TIP3    H236260   2.981   3.421   4.481
12107TIP3   OH236261   5.286   3.998   4.147
12107TIP3    H136262   5.319   3.921   4.193
12107TIP3    H236263   5.227   3.963   4.081
12108TIP3   OH236264   8.308   5.742   4.558
12108TIP3    H136265   8.330   5.806   4.625
12108TIP3    H236266   8.252   5.678   4.603
12109TIP3   OH236267   5.889   3.531   4.443
12109TIP3    H136268   5.936   3.608   4.475
12109TIP3    H236269   5.865   3.483   4.522
12110TIP3   OH236270   2.454   5.340   4.312
12110TIP3    H136271   2.416   5.424   4.286
12110TIP3    H236272   2.412   5.320   4.395
12111TIP3   OH236273   3.087   4.673   5.951
12111TIP3    H136274   3.084   4.691   6.045
12111TIP3    H236275   2.995   4.660   5.927
12112TIP3   OH236276   3.923   2.201   1.380
12112TIP3    H136277   3.935   2.108   1.361
12112TIP3    H236278   3.830   2.210   1.401
12113TIP3   OH236279   4.219   2.453   4.006
12113TIP3    H136280   4.239   2.522   3.943
12113TIP3    H236281   4.164   2.495   4.072
12114TIP3   OH236282   6.499   2.896   2.143
12114TIP3    H136283   6.585   2.862   2.117
12114TIP3    H236284   6.438   2.862   2.078
12115TIP3   OH236285   8.254   6.946   1.226
12115TIP3    H136286   8.160   6.949   1.242
12115TIP3    H236287   8.278   6.855   1.243
12116TIP3   OH236288   2.625   2.836   4.565
12116TIP3    H136289   2.643   2.867   4.477
12116TIP3    H236290   2.706   2.850   4.613
12117TIP3   OH236291   0.196   5.094   3.103
12117TIP3    H136292   0.287   5.080   3.077
12117TIP3    H236293   0.144   5.058   3.031
12118TIP3   OH236294   3.953   5.921   2.873
12118TIP3    H136295   3.887   5.984   2.902
12118TIP3    H236296   3.964   5.863   2.949
12119TIP3   OH236297   3.817   7.793   1.589
12119TIP3    H136298   3.873   7.736   1.641
12119TIP3    H236299   3.774   7.735   1.527
12120TIP3   OH236300   6.124   0.675   1.076
12120TIP3    H136301   6.098   0.583   1.072
12120TIP3    H236302   6.101   0.703   1.165
12121TIP3   OH236303   5.239   6.675   5.262
12121TIP3    H136304   5.265   6.585   5.281
12121TIP3    H236305   5.151   6.667   5.224
12122TIP3   OH236306   0.259   1.663   0.992
12122TIP3    H136307   0.278   1.569   1.000
12122TIP3    H236308   0.339   1.701   0.958
12123TIP3   OH236309   0.347   5.126   1.653
12123TIP3    H136310   0.270   5.126   1.710
12123TIP3    H236311   0.408   5.065   1.696
12124TIP3   OH236312   7.980   1.472   5.868
12124TIP3    H136313   7.942   1.468   5.781
12124TIP3    H236314   7.904   1.480   5.927
12125TIP3   OH236315   2.448   3.879   2.878
12125TIP3    H136316   2.451   3.965   2.836
12125TIP3    H236317   2.414   3.820   2.810
12126TIP3   OH236318   0.913   3.926   3.857
12126TIP3    H136319   0.930   4.020   3.855
12126TIP3    H236320   0.890   3.904   3.767
12127TIP3   OH236321   2.948   7.203   3.571
12127TIP3    H136322   2.885   7.171   3.636
12127TIP3    H236323   2.922   7.293   3.554
12128TIP3   OH236324   0.455   5.165   5.012
12128TIP3    H136325   0.532   5.220   5.003
12128TIP3    H236326   0.393   5.199   4.948
12129TIP3   OH236327   7.668   1.398   1.060
12129TIP3    H136328   7.726   1.436   1.126
12129TIP3    H236329   7.724   1.343   1.006
12130TIP3   OH236330   2.204   0.679   6.506
12130TIP3    H136331   2.291   0.670   6.468
12130TIP3    H236332   2.205   0.764   6.550
12131TIP3   OH236333   8.167   1.375   5.203
12131TIP3    H136334   8.167   1.280   5.208
12131TIP3    H236335   8.213   1.395   5.122
12132TIP3   OH236336   2.641   3.075   2.896
12132TIP3    H136337   2.713   3.012   2.902
12132TIP3    H236338   2.669   3.138   2.830
12133TIP3   OH236339   4.019   4.238   5.005
12133TIP3    H136340   4.023   4.296   4.930
12133TIP3    H236341   3.928   4.243   5.035
12134TIP3   OH236342   0.042   0.456   3.686
12134TIP3    H136343   0.031   0.394   3.759
12134TIP3    H236344  -0.029   0.519   3.697
12135TIP3   OH236345   5.364   0.306   2.569
12135TIP3    H136346   5.445   0.325   2.523
12135TIP3    H236347   5.304   0.375   2.542
12136TIP3   OH236348   8.404   0.188   5.016
12136TIP3    H136349   8.322   0.201   5.062
12136TIP3    H236350   8.399   0.099   4.983
12137TIP3   OH236351   5.727   4.690   6.555
12137TIP3    H136352   5.798   4.634   6.525
12137TIP3    H236353   5.771   4.770   6.586
12138TIP3   OH236354   6.711   7.628   3.550
12138TIP3    H136355   6.755   7.635   3.635
12138TIP3    H236356   6.682   7.537   3.546
12139TIP3   OH236357   3.637   6.504   3.316
12139TIP3    H136358   3.571   6.563   3.278
12139TIP3    H236359   3.720   6.535   3.279
12140TIP3   OH236360   4.782   5.839   5.226
12140TIP3    H136361   4.799   5.769   5.289
12140TIP3    H236362   4.751   5.913   5.278
12141TIP3   OH236363   6.142   6.544   0.856
12141TIP3    H136364   6.133   6.569   0.764
12141TIP3    H236365   6.237   6.539   0.871
12142TIP3   OH236366   1.431   6.585   6.267
12142TIP3    H136367   1.468   6.506   6.228
12142TIP3    H236368   1.442   6.653   6.199
12143TIP3   OH236369   8.185   7.264   4.032
12143TIP3    H136370   8.218   7.352   4.013
12143TIP3    H236371   8.219   7.245   4.120
12144TIP3   OH236372   3.826   1.149   1.506
12144TIP3    H136373   3.768   1.187   1.571
12144TIP3    H236374   3.767   1.112   1.440
12145TIP3   OH236375   5.068   2.416   1.492
12145TIP3    H136376   5.069   2.503   1.454
12145TIP3    H236377   5.004   2.367   1.440
12146TIP3   OH236378   0.950   5.591   5.549
12146TIP3    H136379   1.006   5.637   5.487
12146TIP3    H236380   0.990   5.609   5.635
12147TIP3   OH236381   5.279   4.367   3.485
12147TIP3    H136382   5.275   4.305   3.558
12147TIP3    H236383   5.205   4.426   3.499
12148TIP3   OH236384   5.621   6.383   2.580
12148TIP3    H136385   5.656   6.351   2.663
12148TIP3    H236386   5.532   6.349   2.577
12149TIP3   OH236387   5.684   5.629   3.575
12149TIP3    H136388   5.755   5.608   3.515
12149TIP3    H236389   5.706   5.715   3.610
12150TIP3   OH236390   0.769   4.749   0.674
12150TIP3    H136391   0.851   4.730   0.720
12150TIP3    H236392   0.789   4.827   0.621
12151TIP3   OH236393   5.621   6.948   0.589
12151TIP3    H136394   5.601   7.042   0.587
12151TIP3    H236395   5.595   6.916   0.503
12152TIP3   OH236396   6.751   1.494   0.125
12152TIP3    H136397   6.686   1.510   0.194
12152TIP3    H236398   6.763   1.580   0.083
12153TIP3   OH236399   4.913   1.608   1.035
12153TIP3    H136400   4.973   1.661   0.983
12153TIP3    H236401   4.900   1.658   1.116
12154TIP3   OH236402   8.365   6.719   0.897
12154TIP3    H136403   8.370   6.695   0.989
12154TIP3    H236404   8.300   6.659   0.860
12155TIP3   OH236405   7.076   5.541   3.978
12155TIP3    H136406   7.040   5.558   4.065
12155TIP3    H236407   7.142   5.610   3.965
12156TIP3   OH236408   5.697   6.956   5.033
12156TIP3    H136409   5.702   6.971   4.938
12156TIP3    H236410   5.610   6.987   5.057
12157TIP3   OH236411   7.015   7.804   5.668
12157TIP3    H136412   6.947   7.852   5.716
12157TIP3    H236413   7.080   7.871   5.647
12158TIP3   OH236414   0.179   4.241   2.802
12158TIP3    H136415   0.104   4.187   2.825
12158TIP3    H236416   0.254   4.196   2.842
12159TIP3   OH236417   2.325   6.691   5.984
12159TIP3    H136418   2.331   6.760   5.917
12159TIP3    H236419   2.406   6.699   6.034
12160TIP3   OH236420   4.126   5.266   3.208
12160TIP3    H136421   4.136   5.221   3.125
12160TIP3    H236422   4.118   5.359   3.185
12161TIP3   OH236423   0.162   2.461   5.191
12161TIP3    H136424   0.189   2.388   5.246
12161TIP3    H236425   0.130   2.527   5.252
12162TIP3   OH236426   0.663   0.569   3.288
12162TIP3    H136427   0.634   0.656   3.315
12162TIP3    H236428   0.737   0.550   3.345
12163TIP3   OH236429   2.454   7.105   3.419
12163TIP3    H136430   2.366   7.141   3.429
12163TIP3    H236431   2.465   7.046   3.493
12164TIP3   OH236432   2.287   7.622   5.790
12164TIP3    H136433   2.222   7.673   5.839
12164TIP3    H236434   2.238   7.582   5.719
12165TIP3   OH236435   5.259   7.721   6.574
12165TIP3    H136436   5.256   7.770   6.492
12165TIP3    H236437   5.284   7.786   6.639
12166TIP3   OH236438   3.293   4.987   2.182
12166TIP3    H136439   3.214   5.017   2.136
12166TIP3    H236440   3.355   4.967   2.113
12167TIP3   OH236441   0.459   2.417   1.602
12167TIP3    H136442   0.516   2.453   1.670
12167TIP3    H236443   0.492   2.455   1.521
12168TIP3   OH236444   0.602   2.365   3.887
12168TIP3    H136445   0.694   2.392   3.897
12168TIP3    H236446   0.578   2.331   3.973
12169TIP3   OH236447   2.820   0.104   5.800
12169TIP3    H136448   2.877   0.033   5.771
12169TIP3    H236449   2.832   0.107   5.895
12170TIP3   OH236450   3.154   1.033   4.242
12170TIP3    H136451   3.173   1.126   4.257
12170TIP3    H236452   3.240   0.990   4.246
12171TIP3   OH236453   0.112   4.834   0.439
12171TIP3    H136454   0.020   4.864   0.440
12171TIP3    H236455   0.123   4.788   0.522
12172TIP3   OH236456   2.302   2.814   5.589
12172TIP3    H136457   2.263   2.742   5.638
12172TIP3    H236458   2.320   2.881   5.655
12173TIP3   OH236459   1.065   1.225   4.326
12173TIP3    H136460   1.010   1.173   4.385
12173TIP3    H236461   1.024   1.312   4.328
12174TIP3   OH236462   4.628   4.467   3.001
12174TIP3    H136463   4.585   4.485   3.085
12174TIP3    H236464   4.583   4.388   2.968
12175TIP3   OH236465   3.931   1.777   3.469
12175TIP3    H136466   3.968   1.743   3.550
12175TIP3    H236467   3.846   1.734   3.462
12176TIP3   OH236468   4.247   6.614   3.877
12176TIP3    H136469   4.154   6.637   3.881
12176TIP3    H236470   4.293   6.696   3.893
12177TIP3   OH236471   3.863   3.490   2.612
12177TIP3    H136472   3.947   3.511   2.652
12177TIP3    H236473   3.810   3.569   2.623
12178TIP3   OH236474   5.143   2.914   2.499
12178TIP3    H136475   5.152   2.997   2.546
12178TIP3    H236476   5.176   2.933   2.411
12179TIP3   OH236477   3.926   1.365   1.789
12179TIP3    H136478   3.997   1.382   1.726
12179TIP3    H236479   3.931   1.271   1.806
12180TIP3   OH236480   4.025   0.340   1.537
12180TIP3    H136481   3.938   0.301   1.544
12180TIP3    H236482   4.069   0.318   1.619
12181TIP3   OH236483   8.111   5.406   5.134
12181TIP3    H136484   8.135   5.437   5.046
12181TIP3    H236485   8.080   5.316   5.120
12182TIP3   OH236486   2.429   7.622   0.051
12182TIP3    H136487   2.374   7.698   0.067
12182TIP3    H236488   2.371   7.547   0.064
12183TIP3   OH236489   4.299   1.827   3.552
12183TIP3    H136490   4.293   1.768   3.478
12183TIP3    H236491   4.311   1.914   3.513
12184TIP3   OH236492   7.239   5.242   1.576
12184TIP3    H136493   7.164   5.301   1.569
12184TIP3    H236494   7.204   5.156   1.554
12185TIP3   OH236495   2.853   6.910   4.330
12185TIP3    H136496   2.871   6.999   4.363
12185TIP3    H236497   2.786   6.877   4.390
12186TIP3   OH236498   5.004   7.757   3.245
12186TIP3    H136499   5.003   7.799   3.159
12186TIP3    H236500   4.948   7.680   3.235
12187TIP3   OH236501   6.290   6.981   2.165
12187TIP3    H136502   6.219   6.931   2.124
12187TIP3    H236503   6.360   6.917   2.177
12188TIP3   OH236504   2.942   0.232   2.540
12188TIP3    H136505   2.948   0.283   2.620
12188TIP3    H236506   3.032   0.209   2.519
12189TIP3   OH236507   5.669   7.624   1.684
12189TIP3    H136508   5.627   7.602   1.601
12189TIP3    H236509   5.735   7.689   1.660
12190TIP3   OH236510   0.323   0.141   2.000
12190TIP3    H136511   0.343   0.232   1.978
12190TIP3    H236512   0.409   0.099   2.011
12191TIP3   OH236513   4.621   1.869   1.604
12191TIP3    H136514   4.561   1.859   1.530
12191TIP3    H236515   4.699   1.910   1.566
12192TIP3   OH236516   2.725   2.954   6.486
12192TIP3    H136517   2.694   3.026   6.431
12192TIP3    H236518   2.780   2.997   6.552
12193TIP3   OH236519   0.201   4.749   6.790
12193TIP3    H136520   0.226   4.690   6.861
12193TIP3    H236521   0.219   4.837   6.824
12194TIP3   OH236522   4.284   7.226   1.051
12194TIP3    H136523   4.318   7.257   1.135
12194TIP3    H236524   4.236   7.301   1.015
12195TIP3   OH236525   3.787   1.688   4.562
12195TIP3    H136526   3.827   1.674   4.648
12195TIP3    H236527   3.693   1.688   4.578
12196TIP3   OH236528   1.380   2.460   5.905
12196TIP3    H136529   1.289   2.465   5.875
12196TIP3    H236530   1.414   2.548   5.892
12197TIP3   OH236531   5.232   6.373   4.357
12197TIP3    H136532   5.218   6.446   4.297
12197TIP3    H236533   5.292   6.315   4.310
12198TIP3   OH236534   3.521   6.062   4.943
12198TIP3    H136535   3.463   5.992   4.971
12198TIP3    H236536   3.503   6.134   5.004
12199TIP3   OH236537   2.580   6.720   3.799
12199TIP3    H136538   2.590   6.662   3.875
12199TIP3    H236539   2.669   6.750   3.780
12200TIP3   OH236540   1.385   2.541   4.283
12200TIP3    H136541   1.439   2.536   4.361
12200TIP3    H236542   1.352   2.631   4.282
12201TIP3   OH236543   7.589   6.893   5.585
12201TIP3    H136544   7.562   6.847   5.505
12201TIP3    H236545   7.590   6.986   5.560
12202TIP3   OH236546   5.231   5.095   3.562
12202TIP3    H136547   5.297   5.155   3.597
12202TIP3    H236548   5.185   5.063   3.639
12203TIP3   OH236549   0.998   3.496   6.671
12203TIP3    H136550   0.999   3.400   6.676
12203TIP3    H236551   1.048   3.524   6.748
12204TIP3   OH236552   4.323   3.408   3.186
12204TIP3    H136553   4.412   3.373   3.186
12204TIP3    H236554   4.298   3.409   3.278
12205TIP3   OH236555   5.558   2.998   5.455
12205TIP3    H136556   5.600   3.039   5.531
12205TIP3    H236557   5.510   2.923   5.490
12206TIP3   OH236558   5.394   3.409   4.371
12206TIP3    H136559   5.346   3.444   4.295
12206TIP3    H236560   5.404   3.316   4.352
12207TIP3   OH236561   5.796   0.084   4.524
12207TIP3    H136562   5.745   0.035   4.587
12207TIP3    H236563   5.732   0.116   4.461
12208TIP3   OH236564   5.803   4.756   2.530
12208TIP3    H136565   5.823   4.826   2.592
12208TIP3    H236566   5.885   4.743   2.481
12209TIP3   OH236567   3.499   5.309   5.197
12209TIP3    H136568   3.573   5.260   5.163
12209TIP3    H236569   3.422   5.264   5.162
12210TIP3   OH236570   1.577   4.823   1.568
12210TIP3    H136571   1.653   4.807   1.624
12210TIP3    H236572   1.587   4.914   1.539
12211TIP3   OH236573   2.547   2.432   2.104
12211TIP3    H136574   2.534   2.342   2.076
12211TIP3    H236575   2.468   2.478   2.075
12212TIP3   OH236576   2.691   2.247   1.362
12212TIP3    H136577   2.597   2.226   1.363
12212TIP3    H236578   2.728   2.196   1.434
12213TIP3   OH236579   0.929   6.438   5.071
12213TIP3    H136580   1.000   6.409   5.013
12213TIP3    H236581   0.907   6.361   5.123
12214TIP3   OH236582   1.243   5.951   0.489
12214TIP3    H136583   1.289   5.934   0.572
12214TIP3    H236584   1.300   6.011   0.442
12215TIP3   OH236585   3.460   3.330   5.738
12215TIP3    H136586   3.502   3.334   5.824
12215TIP3    H236587   3.503   3.258   5.693
12216TIP3   OH236588   1.733   0.078   1.436
12216TIP3    H136589   1.787   0.023   1.379
12216TIP3    H236590   1.735   0.164   1.395
12217TIP3   OH236591   2.422   3.020   6.794
12217TIP3    H136592   2.343   3.073   6.786
12217TIP3    H236593   2.393   2.930   6.780
12218TIP3   OH236594   1.927   5.798   5.897
12218TIP3    H136595   1.911   5.754   5.813
12218TIP3    H236596   2.022   5.793   5.909
12219TIP3   OH236597   6.977   6.196   4.945
12219TIP3    H136598   6.928   6.133   4.998
12219TIP3    H236599   7.028   6.143   4.884
12220TIP3   OH236600   7.365   4.139   5.750
12220TIP3    H136601   7.371   4.211   5.688
12220TIP3    H236602   7.425   4.162   5.820
12221TIP3   OH236603   3.493   1.414   3.944
12221TIP3    H136604   3.447   1.397   3.861
12221TIP3    H236605   3.583   1.431   3.918
12222TIP3   OH236606   3.004   4.781   3.219
12222TIP3    H136607   2.930   4.764   3.277
12222TIP3    H236608   3.079   4.790   3.277
12223TIP3   OH236609   7.996   3.729   2.034
12223TIP3    H136610   8.014   3.774   2.117
12223TIP3    H236611   7.906   3.696   2.043
12224TIP3   OH236612   6.883   4.671   3.045
12224TIP3    H136613   6.859   4.736   2.978
12224TIP3    H236614   6.830   4.694   3.121
12225TIP3   OH236615   1.553   3.120   3.422
12225TIP3    H136616   1.626   3.062   3.439
12225TIP3    H236617   1.493   3.105   3.495
12226TIP3   OH236618   1.559   1.404   2.989
12226TIP3    H136619   1.605   1.456   2.924
12226TIP3    H236620   1.617   1.330   3.006
12227TIP3   OH236621   4.870   3.616   0.905
12227TIP3    H136622   4.808   3.659   0.964
12227TIP3    H236623   4.937   3.682   0.889
12228TIP3   OH236624   6.682   6.265   4.920
12228TIP3    H136625   6.776   6.258   4.905
12228TIP3    H236626   6.662   6.194   4.982
12229TIP3   OH236627   7.936   2.685   3.525
12229TIP3    H136628   7.904   2.610   3.574
12229TIP3    H236629   7.857   2.730   3.495
12230TIP3   OH236630   1.582   2.814   0.216
12230TIP3    H136631   1.562   2.889   0.161
12230TIP3    H236632   1.531   2.742   0.178
12231TIP3   OH236633   1.562   1.789   2.226
12231TIP3    H136634   1.508   1.730   2.174
12231TIP3    H236635   1.616   1.836   2.163
12232TIP3   OH236636   6.662   3.738   2.175
12232TIP3    H136637   6.696   3.826   2.160
12232TIP3    H236638   6.629   3.710   2.090
12233TIP3   OH236639   6.679   3.550   2.596
12233TIP3    H136640   6.626   3.486   2.548
12233TIP3    H236641   6.628   3.570   2.674
12234TIP3   OH236642   3.438   6.021   3.081
12234TIP3    H136643   3.452   5.977   3.165
12234TIP3    H236644   3.423   6.113   3.105
12235TIP3   OH236645   6.569   6.273   6.070
12235TIP3    H136646   6.523   6.343   6.024
12235TIP3    H236647   6.570   6.301   6.161
12236TIP3   OH236648   7.792   0.841   4.244
12236TIP3    H136649   7.823   0.752   4.228
12236TIP3    H236650   7.698   0.837   4.223
12237TIP3   OH236651   6.746   0.841   6.610
12237TIP3    H136652   6.672   0.787   6.584
12237TIP3    H236653   6.761   0.900   6.535
12238TIP3   OH236654   0.402   0.343   5.769
12238TIP3    H136655   0.465   0.286   5.812
12238TIP3    H236656   0.371   0.401   5.838
12239TIP3   OH236657   0.942   7.902   2.784
12239TIP3    H136658   0.995   7.832   2.745
12239TIP3    H236659   0.859   7.898   2.738
12240TIP3   OH236660   3.909   3.365   4.875
12240TIP3    H136661   3.988   3.361   4.821
12240TIP3    H236662   3.859   3.287   4.852
12241TIP3   OH236663   3.544   6.379   2.476
12241TIP3    H136664   3.636   6.358   2.493
12241TIP3    H236665   3.521   6.441   2.545
12242TIP3   OH236666   0.430   3.482   1.804
12242TIP3    H136667   0.349   3.435   1.823
12242TIP3    H236668   0.482   3.421   1.752
12243TIP3   OH236669   4.690   1.631   3.616
12243TIP3    H136670   4.706   1.610   3.524
12243TIP3    H236671   4.727   1.719   3.627
12244TIP3   OH236672   7.489   0.889   1.605
12244TIP3    H136673   7.470   0.855   1.692
12244TIP3    H236674   7.420   0.953   1.589
12245TIP3   OH236675   7.627   2.032   5.930
12245TIP3    H136676   7.697   2.083   5.971
12245TIP3    H236677   7.666   1.946   5.913
12246TIP3   OH236678   5.024   5.041   3.759
12246TIP3    H136679   5.004   5.052   3.852
12246TIP3    H236680   4.938   5.030   3.718
12247TIP3   OH236681   0.568   1.722   4.590
12247TIP3    H136682   0.505   1.782   4.630
12247TIP3    H236683   0.552   1.638   4.633
12248TIP3   OH236684   7.250   5.846   1.803
12248TIP3    H136685   7.311   5.782   1.839
12248TIP3    H236686   7.264   5.924   1.856
12249TIP3   OH236687   4.297   1.132   3.094
12249TIP3    H136688   4.324   1.069   3.160
12249TIP3    H236689   4.371   1.192   3.086
12250TIP3   OH236690   4.464   3.035   4.503
12250TIP3    H136691   4.541   2.979   4.489
12250TIP3    H236692   4.498   3.124   4.496
12251TIP3   OH236693   5.147   1.049   6.433
12251TIP3    H136694   5.123   0.956   6.435
12251TIP3    H236695   5.067   1.094   6.460
12252TIP3   OH236696   7.631   1.318   5.645
12252TIP3    H136697   7.727   1.323   5.638
12252TIP3    H236698   7.603   1.280   5.562
12253TIP3   OH236699   0.636   5.217   3.032
12253TIP3    H136700   0.626   5.250   3.121
12253TIP3    H236701   0.711   5.266   2.997
12254TIP3   OH236702   5.331   7.893   5.714
12254TIP3    H136703   5.237   7.893   5.730
12254TIP3    H236704   5.354   7.801   5.704
12255TIP3   OH236705   6.929   7.241   0.724
12255TIP3    H136706   6.932   7.331   0.690
12255TIP3    H236707   6.884   7.249   0.808
12256TIP3   OH236708   4.193  -0.006   3.643
12256TIP3    H136709   4.178   0.028   3.731
12256TIP3    H236710   4.212   0.071   3.590
12257TIP3   OH236711   6.547   3.405   5.548
12257TIP3    H136712   6.608   3.400   5.621
12257TIP3    H236713   6.522   3.498   5.543
12258TIP3   OH236714   5.055   5.303   4.438
12258TIP3    H136715   5.051   5.359   4.516
12258TIP3    H236716   5.145   5.271   4.437
12259TIP3   OH236717   5.351   2.604   1.663
12259TIP3    H136718   5.442   2.630   1.678
12259TIP3    H236719   5.355   2.509   1.651
12260TIP3   OH236720   2.749   7.304   3.426
12260TIP3    H136721   2.687   7.264   3.487
12260TIP3    H236722   2.736   7.256   3.344
12261TIP3   OH236723   4.290   5.630   3.423
12261TIP3    H136724   4.365   5.583   3.459
12261TIP3    H236725   4.286   5.603   3.332
12262TIP3   OH236726   8.186   5.347   0.919
12262TIP3    H136727   8.195   5.363   0.825
12262TIP3    H236728   8.265   5.297   0.942
12263TIP3   OH236729   5.843   4.045   1.478
12263TIP3    H136730   5.770   4.100   1.450
12263TIP3    H236731   5.874   4.003   1.398
12264TIP3   OH236732   2.224   0.799   5.651
12264TIP3    H136733   2.209   0.887   5.685
12264TIP3    H236734   2.179   0.741   5.712
12265TIP3   OH236735   3.923   5.277   4.619
12265TIP3    H136736   3.885   5.283   4.532
12265TIP3    H236737   3.857   5.316   4.676
12266TIP3   OH236738   6.705   0.237   1.946
12266TIP3    H136739   6.644   0.256   1.875
12266TIP3    H236740   6.652   0.242   2.026
12267TIP3   OH236741   5.431   6.765   5.838
12267TIP3    H136742   5.487   6.835   5.804
12267TIP3    H236743   5.387   6.731   5.760
12268TIP3   OH236744   2.302   1.794   0.063
12268TIP3    H136745   2.314   1.699   0.066
12268TIP3    H236746   2.291   1.820   0.154
12269TIP3   OH236747   1.206   0.667   4.524
12269TIP3    H136748   1.198   0.600   4.457
12269TIP3    H236749   1.136   0.730   4.505
12270TIP3   OH236750   5.334   5.124   1.596
12270TIP3    H136751   5.306   5.035   1.614
12270TIP3    H236752   5.256   5.168   1.564
12271TIP3   OH236753   0.643   1.827   0.080
12271TIP3    H136754   0.650   1.830   0.176
12271TIP3    H236755   0.733   1.837   0.050
12272TIP3   OH236756   3.848   1.001   3.942
12272TIP3    H136757   3.877   0.910   3.946
12272TIP3    H236758   3.768   1.003   3.995
12273TIP3   OH236759   7.293   5.465   0.249
12273TIP3    H136760   7.307   5.374   0.223
12273TIP3    H236761   7.342   5.474   0.331
12274TIP3   OH236762   5.172   6.542   3.913
12274TIP3    H136763   5.174   6.522   3.820
12274TIP3    H236764   5.105   6.611   3.921
12275TIP3   OH236765   6.490   5.599   6.376
12275TIP3    H136766   6.534   5.529   6.328
12275TIP3    H236767   6.447   5.651   6.309
12276TIP3   OH236768   1.807   3.288   1.459
12276TIP3    H136769   1.729   3.269   1.512
12276TIP3    H236770   1.822   3.207   1.409
12277TIP3   OH236771   6.193   7.329   4.809
12277TIP3    H136772   6.169   7.245   4.848
12277TIP3    H236773   6.161   7.324   4.719
12278TIP3   OH236774   3.927   7.097   3.840
12278TIP3    H136775   3.845   7.050   3.855
12278TIP3    H236776   3.901   7.188   3.826
12279TIP3   OH236777   3.601   4.164   3.467
12279TIP3    H136778   3.521   4.213   3.446
12279TIP3    H236779   3.650   4.164   3.385
12280TIP3   OH236780   7.455   5.598   3.701
12280TIP3    H136781   7.528   5.653   3.729
12280TIP3    H236782   7.377   5.653   3.713
12281TIP3   OH236783   3.946   6.814   4.134
12281TIP3    H136784   4.004   6.748   4.172
12281TIP3    H236785   3.898   6.849   4.209
12282TIP3   OH236786   7.495   3.986   4.424
12282TIP3    H136787   7.516   4.045   4.351
12282TIP3    H236788   7.573   3.989   4.480
12283TIP3   OH236789   7.870   0.239   5.561
12283TIP3    H136790   7.823   0.287   5.493
12283TIP3    H236791   7.813   0.245   5.638
12284TIP3   OH236792   6.790   5.707   3.176
12284TIP3    H136793   6.784   5.616   3.148
12284TIP3    H236794   6.841   5.704   3.257
12285TIP3   OH236795   4.821   7.174   4.626
12285TIP3    H136796   4.879   7.246   4.651
12285TIP3    H236797   4.798   7.132   4.710
12286TIP3   OH236798   1.177   2.809   0.315
12286TIP3    H136799   1.170   2.783   0.224
12286TIP3    H236800   1.178   2.905   0.313
12287TIP3   OH236801   6.622   7.008   0.820
12287TIP3    H136802   6.572   7.038   0.744
12287TIP3    H236803   6.586   6.922   0.840
12288TIP3   OH236804   5.458   1.637   6.429
12288TIP3    H136805   5.546   1.620   6.394
12288TIP3    H236806   5.469   1.633   6.524
12289TIP3   OH236807   4.181   4.373   5.421
12289TIP3    H136808   4.133   4.315   5.479
12289TIP3    H236809   4.188   4.324   5.339
12290TIP3   OH236810   3.492   5.817   2.145
12290TIP3    H136811   3.491   5.798   2.239
12290TIP3    H236812   3.466   5.908   2.138
12291TIP3   OH236813   7.064   6.114   1.621
12291TIP3    H136814   7.111   6.056   1.560
12291TIP3    H236815   6.994   6.152   1.568
12292TIP3   OH236816   8.186   2.701   0.655
12292TIP3    H136817   8.160   2.738   0.570
12292TIP3    H236818   8.273   2.740   0.672
12293TIP3   OH236819   3.661   4.647   4.021
12293TIP3    H136820   3.684   4.683   3.936
12293TIP3    H236821   3.745   4.640   4.067
12294TIP3   OH236822   6.340   2.231   1.150
12294TIP3    H136823   6.348   2.147   1.106
12294TIP3    H236824   6.418   2.280   1.122
12295TIP3   OH236825   2.194   5.047   4.679
12295TIP3    H136826   2.257   5.016   4.744
12295TIP3    H236827   2.109   5.036   4.720
12296TIP3   OH236828   5.229   0.745   3.968
12296TIP3    H136829   5.289   0.683   3.926
12296TIP3    H236830   5.198   0.699   4.046
12297TIP3   OH236831   4.832   4.540   4.276
12297TIP3    H136832   4.760   4.477   4.275
12297TIP3    H236833   4.840   4.567   4.368
12298TIP3   OH236834   3.955   0.055   0.477
12298TIP3    H136835   3.932   0.067   0.569
12298TIP3    H236836   3.890  -0.006   0.444
12299TIP3   OH236837   4.054   4.568   5.195
12299TIP3    H136838   4.044   4.637   5.131
12299TIP3    H236839   4.013   4.602   5.275
12300TIP3   OH236840   5.780   4.688   0.760
12300TIP3    H136841   5.691   4.722   0.746
12300TIP3    H236842   5.768   4.594   0.772
12301TIP3   OH236843   1.187   6.191   0.072
12301TIP3    H136844   1.226   6.113   0.109
12301TIP3    H236845   1.232   6.204  -0.012
12302TIP3   OH236846   0.895   3.227   5.157
12302TIP3    H136847   0.851   3.222   5.073
12302TIP3    H236848   0.824   3.227   5.221
12303TIP3   OH236849   0.687   2.233   4.491
12303TIP3    H136850   0.687   2.203   4.400
12303TIP3    H236851   0.759   2.185   4.532
12304TIP3   OH236852   7.862   6.952   5.717
12304TIP3    H136853   7.799   6.882   5.736
12304TIP3    H236854   7.826   7.029   5.761
12305TIP3   OH236855   8.095   5.749   5.608
12305TIP3    H136856   8.106   5.656   5.592
12305TIP3    H236857   8.137   5.792   5.533
12306TIP3   OH236858   2.049   2.047   4.426
12306TIP3    H136859   1.983   2.005   4.482
12306TIP3    H236860   2.093   2.110   4.483
12307TIP3   OH236861   1.263   7.570   4.184
12307TIP3    H136862   1.180   7.537   4.219
12307TIP3    H236863   1.317   7.492   4.171
12308TIP3   OH236864   6.752   7.913  -0.004
12308TIP3    H136865   6.738   7.834   0.047
12308TIP3    H236866   6.679   7.971   0.021
12309TIP3   OH236867   2.482   6.282   4.784
12309TIP3    H136868   2.526   6.347   4.730
12309TIP3    H236869   2.519   6.295   4.871
12310TIP3   OH236870   5.092   1.594   2.308
12310TIP3    H136871   5.039   1.674   2.312
12310TIP3    H236872   5.180   1.624   2.285
12311TIP3   OH236873   2.413   3.966   6.545
12311TIP3    H136874   2.385   3.886   6.589
12311TIP3    H236875   2.333   4.018   6.538
12312TIP3   OH236876   1.073   5.652   5.801
12312TIP3    H136877   1.018   5.708   5.856
12312TIP3    H236878   1.135   5.712   5.759
12313TIP3   OH236879   8.141   4.751   5.372
12313TIP3    H136880   8.224   4.709   5.348
12313TIP3    H236881   8.156   4.844   5.354
12314TIP3   OH236882   0.808   1.558   0.294
12314TIP3    H136883   0.788   1.643   0.333
12314TIP3    H236884   0.899   1.542   0.317
12315TIP3   OH236885   5.539   2.858   3.781
12315TIP3    H136886   5.475   2.788   3.797
12315TIP3    H236887   5.621   2.812   3.764
12316TIP3   OH236888   0.669   7.682   6.235
12316TIP3    H136889   0.693   7.596   6.200
12316TIP3    H236890   0.750   7.732   6.235
12317TIP3   OH236891   6.629   2.831   0.594
12317TIP3    H136892   6.709   2.882   0.601
12317TIP3    H236893   6.614   2.797   0.683
12318TIP3   OH236894   4.642   2.955   0.952
12318TIP3    H136895   4.570   2.938   0.892
12318TIP3    H236896   4.716   2.908   0.913
12319TIP3   OH236897   1.086   4.532   2.209
12319TIP3    H136898   0.996   4.546   2.180
12319TIP3    H236899   1.131   4.614   2.191
12320TIP3   OH236900   5.006   7.851   2.136
12320TIP3    H136901   4.939   7.890   2.079
12320TIP3    H236902   5.038   7.775   2.087
12321TIP3   OH236903   2.243   5.391   4.755
12321TIP3    H136904   2.248   5.387   4.659
12321TIP3    H236905   2.291   5.313   4.784
12322TIP3   OH236906   3.630   3.293   6.506
12322TIP3    H136907   3.586   3.361   6.455
12322TIP3    H236908   3.672   3.339   6.578
12323TIP3   OH236909   0.129   2.031   6.183
12323TIP3    H136910   0.045   1.987   6.169
12323TIP3    H236911   0.111   2.096   6.252
12324TIP3   OH236912   8.258   0.573   0.373
12324TIP3    H136913   8.350   0.591   0.393
12324TIP3    H236914   8.223   0.657   0.342
12325TIP3   OH236915   4.913   6.407   5.540
12325TIP3    H136916   4.885   6.374   5.455
12325TIP3    H236917   4.834   6.444   5.579
12326TIP3   OH236918   1.844   4.906   3.031
12326TIP3    H136919   1.787   4.969   3.074
12326TIP3    H236920   1.816   4.821   3.065
12327TIP3   OH236921   1.063   1.807   1.325
12327TIP3    H136922   1.070   1.901   1.341
12327TIP3    H236923   0.976   1.783   1.355
12328TIP3   OH236924   4.109   3.461   6.156
12328TIP3    H136925   4.132   3.514   6.232
12328TIP3    H236926   4.185   3.466   6.099
12329TIP3   OH236927   1.524   2.295   1.390
12329TIP3    H136928   1.524   2.202   1.370
12329TIP3    H236929   1.439   2.310   1.431
12330TIP3   OH236930   0.199   7.159   6.049
12330TIP3    H136931   0.153   7.192   5.972
12330TIP3    H236932   0.260   7.229   6.072
12331TIP3   OH236933   7.685   0.690   5.356
12331TIP3    H136934   7.622   0.666   5.288
12331TIP3    H236935   7.700   0.784   5.343
12332TIP3   OH236936   2.411   1.820   1.347
12332TIP3    H136937   2.418   1.766   1.268
12332TIP3    H236938   2.502   1.844   1.367
12333TIP3   OH236939   7.891   4.401   2.121
12333TIP3    H136940   7.855   4.396   2.033
12333TIP3    H236941   7.986   4.406   2.108
12334TIP3   OH236942   0.944   2.888   2.709
12334TIP3    H136943   0.879   2.845   2.655
12334TIP3    H236944   1.004   2.929   2.647
12335TIP3   OH236945   1.006   6.991   5.285
12335TIP3    H136946   0.977   6.957   5.200
12335TIP3    H236947   1.022   6.912   5.338
12336TIP3   OH236948   8.120   5.796   2.627
12336TIP3    H136949   8.077   5.808   2.543
12336TIP3    H236950   8.155   5.707   2.624
12337TIP3   OH236951   6.741   1.615   4.170
12337TIP3    H136952   6.833   1.625   4.144
12337TIP3    H236953   6.701   1.699   4.146
12338TIP3   OH236954   5.931   4.612   3.327
12338TIP3    H136955   5.943   4.702   3.295
12338TIP3    H236956   5.928   4.622   3.422
12339TIP3   OH236957   2.120   2.709   1.123
12339TIP3    H136958   2.032   2.687   1.094
12339TIP3    H236959   2.152   2.772   1.058
12340TIP3   OH236960   6.400   7.477   0.932
12340TIP3    H136961   6.380   7.387   0.906
12340TIP3    H236962   6.358   7.487   1.017
12341TIP3   OH236963   2.123   6.156   3.276
12341TIP3    H136964   2.043   6.105   3.275
12341TIP3    H236965   2.142   6.171   3.183
12342TIP3   OH236966   2.410   6.199   0.725
12342TIP3    H136967   2.353   6.165   0.795
12342TIP3    H236968   2.375   6.286   0.706
12343TIP3   OH236969   4.705   2.384   5.821
12343TIP3    H136970   4.764   2.450   5.786
12343TIP3    H236971   4.635   2.434   5.864
12344TIP3   OH236972   7.795   0.012   0.621
12344TIP3    H136973   7.809   0.099   0.584
12344TIP3    H236974   7.841  -0.047   0.560
12345TIP3   OH236975   5.675   5.127   5.678
12345TIP3    H136976   5.656   5.038   5.707
12345TIP3    H236977   5.680   5.120   5.582
12346TIP3   OH236978   0.096   2.532   0.738
12346TIP3    H136979   0.159   2.464   0.713
12346TIP3    H236980   0.150   2.604   0.771
12347TIP3   OH236981   7.604   2.137   4.592
12347TIP3    H136982   7.630   2.165   4.680
12347TIP3    H236983   7.509   2.147   4.591
12348TIP3   OH236984   5.801   3.947   1.946
12348TIP3    H136985   5.719   3.994   1.928
12348TIP3    H236986   5.773   3.865   1.987
12349TIP3   OH236987   5.336   6.884   0.468
12349TIP3    H136988   5.267   6.895   0.402
12349TIP3    H236989   5.313   6.948   0.536
12350TIP3   OH236990   6.545   3.035   1.174
12350TIP3    H136991   6.457   3.070   1.185
12350TIP3    H236992   6.588   3.046   1.259
12351TIP3   OH236993   5.498   1.984   6.700
12351TIP3    H136994   5.472   2.076   6.706
12351TIP3    H236995   5.577   1.978   6.753
12352TIP3   OH236996   3.713   6.884   2.037
12352TIP3    H136997   3.747   6.966   2.003
12352TIP3    H236998   3.624   6.905   2.066
12353TIP3   OH236999   2.615   5.911   3.184
12353TIP3    H137000   2.546   5.901   3.250
12353TIP3    H237001   2.688   5.861   3.219
12354TIP3   OH237002   8.339   3.047   1.992
12354TIP3    H137003   8.285   2.991   2.048
12354TIP3    H237004   8.422   3.056   2.040
12355TIP3   OH237005   2.409   0.920   0.298
12355TIP3    H137006   2.419   1.008   0.332
12355TIP3    H237007   2.339   0.881   0.351
12356TIP3   OH237008   7.785   1.755   0.450
12356TIP3    H137009   7.722   1.752   0.522
12356TIP3    H237010   7.788   1.665   0.416
12357TIP3   OH237011   7.606   1.600   0.668
12357TIP3    H137012   7.575   1.546   0.595
12357TIP3    H237013   7.667   1.544   0.715
12358TIP3   OH237014   4.284   7.384   6.745
12358TIP3    H137015   4.261   7.295   6.770
12358TIP3    H237016   4.343   7.374   6.670
12359TIP3   OH237017   3.670   4.298   6.016
12359TIP3    H137018   3.666   4.324   5.924
12359TIP3    H237019   3.746   4.343   6.051
12360TIP3   OH237020   5.859   2.634   0.570
12360TIP3    H137021   5.923   2.683   0.519
12360TIP3    H237022   5.901   2.620   0.655
12361TIP3   OH237023   8.316   2.558   1.251
12361TIP3    H137024   8.270   2.540   1.169
12361TIP3    H237025   8.288   2.647   1.275
12362TIP3   OH237026   7.230   2.873   2.965
12362TIP3    H137027   7.165   2.811   2.932
12362TIP3    H237028   7.314   2.830   2.948
12363TIP3   OH237029   5.516   0.282   4.086
12363TIP3    H137030   5.600   0.327   4.083
12363TIP3    H237031   5.494   0.265   3.995
12364TIP3   OH237032   7.317   0.751   4.848
12364TIP3    H137033   7.335   0.739   4.941
12364TIP3    H237034   7.358   0.676   4.805
12365TIP3   OH237035   0.089   2.224   1.342
12365TIP3    H137036   0.037   2.269   1.409
12365TIP3    H237037   0.037   2.148   1.318
12366TIP3   OH237038   1.891   5.797   2.485
12366TIP3    H137039   1.886   5.756   2.399
12366TIP3    H237040   1.801   5.823   2.505
12367TIP3   OH237041   6.289   1.344   2.822
12367TIP3    H137042   6.258   1.353   2.731
12367TIP3    H237043   6.282   1.432   2.858
12368TIP3   OH237044   3.083   6.166   3.360
12368TIP3    H137045   3.172   6.200   3.369
12368TIP3    H237046   3.038   6.234   3.309
12369TIP3   OH237047   6.459   5.294   1.914
12369TIP3    H137048   6.481   5.231   1.846
12369TIP3    H237049   6.538   5.300   1.968
12370TIP3   OH237050   1.672   2.677   6.155
12370TIP3    H137051   1.686   2.589   6.190
12370TIP3    H237052   1.606   2.666   6.087
12371TIP3   OH237053   1.205   3.660   2.122
12371TIP3    H137054   1.160   3.655   2.206
12371TIP3    H237055   1.192   3.751   2.094
12372TIP3   OH237056   5.153   3.374   0.732
12372TIP3    H137057   5.143   3.427   0.811
12372TIP3    H237058   5.107   3.424   0.664
12373TIP3   OH237059   6.787   5.319   0.064
12373TIP3    H137060   6.882   5.309   0.070
12373TIP3    H237061   6.766   5.386   0.130
12374TIP3   OH237062   1.978   7.150   5.141
12374TIP3    H137063   1.994   7.060   5.114
12374TIP3    H237064   1.920   7.143   5.217
12375TIP3   OH237065   1.955   1.765   0.770
12375TIP3    H137066   1.954   1.834   0.836
12375TIP3    H237067   1.918   1.806   0.692
12376TIP3   OH237068   5.441   5.289   6.000
12376TIP3    H137069   5.471   5.312   5.912
12376TIP3    H237070   5.366   5.346   6.015
12377TIP3   OH237071   6.996   2.016   2.369
12377TIP3    H137072   7.008   1.956   2.295
12377TIP3    H237073   6.904   2.042   2.364
12378TIP3   OH237074   4.415   2.370   6.334
12378TIP3    H137075   4.330   2.326   6.336
12378TIP3    H237076   4.473   2.309   6.290
12379TIP3   OH237077   5.284   7.329   1.173
12379TIP3    H137078   5.261   7.250   1.222
12379TIP3    H237079   5.221   7.333   1.102
12380TIP3   OH237080   5.208   5.481   0.629
12380TIP3    H137081   5.215   5.575   0.611
12380TIP3    H237082   5.235   5.472   0.720
12381TIP3   OH237083   7.966   1.520   6.508
12381TIP3    H137084   7.980   1.448   6.446
12381TIP3    H237085   8.028   1.503   6.579
12382TIP3   OH237086   3.539   1.184   5.739
12382TIP3    H137087   3.569   1.173   5.829
12382TIP3    H237088   3.535   1.096   5.704
12383TIP3   OH237089   6.453   0.029   2.543
12383TIP3    H137090   6.548   0.031   2.555
12383TIP3    H237091   6.427  -0.058   2.575
12384TIP3   OH237092   7.368   7.367   0.051
12384TIP3    H137093   7.463   7.376   0.061
12384TIP3    H237094   7.357   7.289  -0.004
12385TIP3   OH237095   2.789   0.223   1.854
12385TIP3    H137096   2.741   0.280   1.794
12385TIP3    H237097   2.729   0.212   1.929
12386TIP3   OH237098   5.272   0.706   0.900
12386TIP3    H137099   5.352   0.655   0.890
12386TIP3    H237100   5.279   0.775   0.834
12387TIP3   OH237101   0.125   7.711   4.022
12387TIP3    H137102   0.145   7.626   4.061
12387TIP3    H237103   0.145   7.700   3.929
12388TIP3   OH237104   7.857   3.631   4.168
12388TIP3    H137105   7.933   3.680   4.136
12388TIP3    H237106   7.843   3.562   4.103
12389TIP3   OH237107   4.816   3.718   0.299
12389TIP3    H137108   4.792   3.746   0.388
12389TIP3    H237109   4.896   3.667   0.312
12390TIP3   OH237110   0.615   1.244   0.417
12390TIP3    H137111   0.565   1.269   0.494
12390TIP3    H237112   0.612   1.149   0.415
12391TIP3   OH237113   0.156   5.871   3.242
12391TIP3    H137114   0.211   5.907   3.173
12391TIP3    H237115   0.215   5.862   3.317
12392TIP3   OH237116   7.476   7.777   4.868
12392TIP3    H137117   7.451   7.824   4.948
12392TIP3    H237118   7.496   7.846   4.805
12393TIP3   OH237119   0.866   3.584   5.528
12393TIP3    H137120   0.814   3.506   5.507
12393TIP3    H237121   0.914   3.603   5.448
12394TIP3   OH237122   2.035   3.978   4.408
12394TIP3    H137123   1.952   3.935   4.426
12394TIP3    H237124   2.024   4.016   4.321
12395TIP3   OH237125   3.588   0.495   6.534
12395TIP3    H137126   3.495   0.516   6.529
12395TIP3    H237127   3.608   0.496   6.628
12396TIP3   OH237128   4.785   7.163   5.466
12396TIP3    H137129   4.819   7.081   5.431
12396TIP3    H237130   4.811   7.163   5.558
12397TIP3   OH237131   0.604   1.461   0.135
12397TIP3    H137132   0.671   1.515   0.176
12397TIP3    H237133   0.649   1.380   0.110
12398TIP3   OH237134   6.347   5.801   1.105
12398TIP3    H137135   6.257   5.832   1.112
12398TIP3    H237136   6.397   5.862   1.160
12399TIP3   OH237137   7.456   5.078   3.547
12399TIP3    H137138   7.384   5.036   3.594
12399TIP3    H237139   7.532   5.022   3.564
12400TIP3   OH237140   4.163   7.156   1.298
12400TIP3    H137141   4.227   7.169   1.367
12400TIP3    H237142   4.096   7.100   1.337
12401TIP3   OH237143   7.340   3.343   5.663
12401TIP3    H137144   7.280   3.362   5.735
12401TIP3    H237145   7.284   3.304   5.596
12402TIP3   OH237146   0.938   3.081   1.224
12402TIP3    H137147   0.972   3.135   1.153
12402TIP3    H237148   0.891   3.142   1.281
12403TIP3   OH237149   3.067   0.557   4.536
12403TIP3    H137150   3.054   0.630   4.475
12403TIP3    H237151   3.128   0.499   4.491
12404TIP3   OH237152   2.486   3.487   5.325
12404TIP3    H137153   2.549   3.418   5.306
12404TIP3    H237154   2.470   3.530   5.241
12405TIP3   OH237155   6.888   6.779   6.699
12405TIP3    H137156   6.822   6.829   6.650
12405TIP3    H237157   6.929   6.723   6.633
12406TIP3   OH237158   7.097   5.686   5.948
12406TIP3    H137159   7.008   5.691   5.914
12406TIP3    H237160   7.143   5.627   5.889
12407TIP3   OH237161   7.493   4.982   4.125
12407TIP3    H137162   7.505   5.077   4.126
12407TIP3    H237163   7.580   4.947   4.142
12408TIP3   OH237164   1.154   4.530   1.414
12408TIP3    H137165   1.151   4.583   1.334
12408TIP3    H237166   1.109   4.582   1.480
12409TIP3   OH237167   5.539   3.331   3.163
12409TIP3    H137168   5.530   3.316   3.257
12409TIP3    H237169   5.508   3.421   3.150
12410TIP3   OH237170   1.644   1.978   2.555
12410TIP3    H137171   1.598   1.994   2.637
12410TIP3    H237172   1.594   2.025   2.489
12411TIP3   OH237173   3.501   0.139   3.719
12411TIP3    H137174   3.479   0.114   3.808
12411TIP3    H237175   3.452   0.221   3.704
12412TIP3   OH237176   6.817   4.786   3.340
12412TIP3    H137177   6.730   4.747   3.340
12412TIP3    H237178   6.813   4.853   3.272
12413TIP3   OH237179   7.660   3.157   4.079
12413TIP3    H137180   7.670   3.063   4.064
12413TIP3    H237181   7.736   3.196   4.036
12414TIP3   OH237182   8.209   7.608   4.826
12414TIP3    H137183   8.302   7.588   4.817
12414TIP3    H237184   8.205   7.673   4.896
12415TIP3   OH237185   6.437   1.618   6.808
12415TIP3    H137186   6.432   1.580   6.895
12415TIP3    H237187   6.460   1.710   6.823
12416TIP3   OH237188   0.849   5.657   6.073
12416TIP3    H137189   0.889   5.573   6.095
12416TIP3    H237190   0.814   5.644   5.985
12417TIP3   OH237191   5.266   3.306   1.041
12417TIP3    H137192   5.177   3.339   1.031
12417TIP3    H237193   5.293   3.335   1.128
12418TIP3   OH237194   4.510   7.786   4.029
12418TIP3    H137195   4.474   7.874   4.016
12418TIP3    H237196   4.499   7.743   3.944
12419TIP3   OH237197   4.399   7.780   6.758
12419TIP3    H137198   4.397   7.787   6.663
12419TIP3    H237199   4.438   7.695   6.775
12420TIP3   OH237200   4.758   3.198   1.423
12420TIP3    H137201   4.800   3.203   1.337
12420TIP3    H237202   4.768   3.286   1.459
12421TIP3   OH237203   7.404   0.748   1.044
12421TIP3    H137204   7.476   0.808   1.062
12421TIP3    H237205   7.326   0.804   1.046
12422TIP3   OH237206   4.408   3.269   1.019
12422TIP3    H137207   4.474   3.323   0.975
12422TIP3    H237208   4.395   3.312   1.104
12423TIP3   OH237209   3.015   3.947   2.105
12423TIP3    H137210   3.049   3.942   2.016
12423TIP3    H237211   2.936   3.894   2.104
12424TIP3   OH237212   0.200   0.231   5.623
12424TIP3    H137213   0.273   0.264   5.676
12424TIP3    H237214   0.124   0.280   5.652
12425TIP3   OH237215   6.989   2.593   6.756
12425TIP3    H137216   7.064   2.633   6.801
12425TIP3    H237217   7.025   2.515   6.714
12426TIP3   OH237218   6.384   2.092   2.610
12426TIP3    H137219   6.404   2.099   2.517
12426TIP3    H237220   6.312   2.030   2.615
12427TIP3   OH237221   4.673   4.913   1.686
12427TIP3    H137222   4.678   4.843   1.751
12427TIP3    H237223   4.733   4.885   1.617
12428TIP3   OH237224   0.941   5.130   4.639
12428TIP3    H137225   0.943   5.084   4.723
12428TIP3    H237226   0.865   5.093   4.593
12429TIP3   OH237227   1.495   7.091   5.564
12429TIP3    H137228   1.412   7.138   5.568
12429TIP3    H237229   1.473   7.008   5.521
12430TIP3   OH237230   0.865   7.408   2.273
12430TIP3    H137231   0.810   7.430   2.348
12430TIP3    H237232   0.953   7.434   2.300
12431TIP3   OH237233   4.071   2.492   3.721
12431TIP3    H137234   3.999   2.555   3.725
12431TIP3    H237235   4.079   2.469   3.629
12432TIP3   OH237236   1.880   6.186   3.038
12432TIP3    H137237   1.833   6.260   2.998
12432TIP3    H237238   1.812   6.120   3.052
12433TIP3   OH237239   4.062   3.888   5.411
12433TIP3    H137240   4.034   3.821   5.349
12433TIP3    H237241   4.153   3.905   5.388
12434TIP3   OH237242   6.166   3.724   6.463
12434TIP3    H137243   6.153   3.631   6.479
12434TIP3    H237244   6.081   3.755   6.430
12435TIP3   OH237245   3.580   5.983   4.162
12435TIP3    H137246   3.608   5.947   4.246
12435TIP3    H237247   3.537   5.910   4.118
12436TIP3   OH237248   7.964   0.042   5.410
12436TIP3    H137249   7.944   0.101   5.483
12436TIP3    H237250   7.959   0.098   5.332
12437TIP3   OH237251   2.358   7.703   6.447
12437TIP3    H137252   2.349   7.797   6.462
12437TIP3    H237253   2.403   7.670   6.525
12438TIP3   OH237254   8.264   3.147   0.772
12438TIP3    H137255   8.297   3.128   0.685
12438TIP3    H237256   8.275   3.242   0.782
12439TIP3   OH237257   5.061   2.703   6.388
12439TIP3    H137258   4.984   2.681   6.441
12439TIP3    H237259   5.078   2.624   6.337
12440TIP3   OH237260   2.158   0.197   0.217
12440TIP3    H137261   2.092   0.132   0.241
12440TIP3    H237262   2.239   0.147   0.211
12441TIP3   OH237263   4.441   1.696   3.756
12441TIP3    H137264   4.533   1.688   3.731
12441TIP3    H237265   4.400   1.738   3.680
12442TIP3   OH237266   8.037   6.445   5.681
12442TIP3    H137267   7.982   6.523   5.675
12442TIP3    H237268   8.089   6.460   5.760
12443TIP3   OH237269   6.314   3.546   5.207
12443TIP3    H137270   6.237   3.498   5.176
12443TIP3    H237271   6.294   3.567   5.299
12444TIP3   OH237272   5.123   6.321   6.823
12444TIP3    H137273   5.080   6.383   6.765
12444TIP3    H237274   5.070   6.322   6.903
12445TIP3   OH237275   7.676   0.381   1.926
12445TIP3    H137276   7.701   0.308   1.869
12445TIP3    H237277   7.753   0.437   1.927
12446TIP3   OH237278   3.815   4.612   3.087
12446TIP3    H137279   3.752   4.674   3.123
12446TIP3    H237280   3.762   4.539   3.057
12447TIP3   OH237281   6.602   6.806   5.706
12447TIP3    H137282   6.666   6.748   5.664
12447TIP3    H237283   6.641   6.893   5.702
12448TIP3   OH237284   5.864   3.165   4.861
12448TIP3    H137285   5.817   3.085   4.888
12448TIP3    H237286   5.864   3.220   4.939
12449TIP3   OH237287   2.332   2.736   4.594
12449TIP3    H137288   2.264   2.803   4.609
12449TIP3    H237289   2.414   2.784   4.600
12450TIP3   OH237290   2.395   2.845   0.112
12450TIP3    H137291   2.318   2.873   0.161
12450TIP3    H237292   2.411   2.756   0.142
12451TIP3   OH237293   2.203   4.155   6.511
12451TIP3    H137294   2.132   4.212   6.539
12451TIP3    H237295   2.159   4.082   6.467
12452TIP3   OH237296   3.514   3.729   0.137
12452TIP3    H137297   3.522   3.649   0.085
12452TIP3    H237298   3.584   3.786   0.104
12453TIP3   OH237299   3.673   7.409   3.033
12453TIP3    H137300   3.672   7.335   3.094
12453TIP3    H237301   3.750   7.460   3.059
12454TIP3   OH237302   7.958   5.976   0.270
12454TIP3    H137303   7.945   5.882   0.269
12454TIP3    H237304   8.053   5.988   0.262
12455TIP3   OH237305   5.195   5.807   2.582
12455TIP3    H137306   5.247   5.850   2.514
12455TIP3    H237307   5.255   5.795   2.654
12456TIP3   OH237308   4.299   7.398   4.914
12456TIP3    H137309   4.346   7.437   4.840
12456TIP3    H237310   4.220   7.360   4.875
12457TIP3   OH237311   5.796   3.987   2.320
12457TIP3    H137312   5.846   3.907   2.303
12457TIP3    H237313   5.708   3.968   2.289
12458TIP3   OH237314   0.497   7.687   4.110
12458TIP3    H137315   0.455   7.603   4.130
12458TIP3    H237316   0.574   7.663   4.058
12459TIP3   OH237317   1.367   5.443   1.561
12459TIP3    H137318   1.308   5.449   1.636
12459TIP3    H237319   1.352   5.525   1.512
12460TIP3   OH237320  -0.020   7.370   5.210
12460TIP3    H137321   0.021   7.332   5.287
12460TIP3    H237322   0.002   7.463   5.215
12461TIP3   OH237323   0.581   4.151   3.522
12461TIP3    H137324   0.511   4.128   3.583
12461TIP3    H237325   0.542   4.216   3.464
12462TIP3   OH237326   2.222   4.818   1.343
12462TIP3    H137327   2.237   4.825   1.249
12462TIP3    H237328   2.153   4.751   1.351
12463TIP3   OH237329   7.552   5.607   6.656
12463TIP3    H137330   7.632   5.653   6.679
12463TIP3    H237331   7.543   5.539   6.724
12464TIP3   OH237332   3.236   2.908   0.960
12464TIP3    H137333   3.289   2.840   1.001
12464TIP3    H237334   3.198   2.867   0.882
12465TIP3   OH237335   0.325   2.422   3.880
12465TIP3    H137336   0.311   2.486   3.810
12465TIP3    H237337   0.417   2.399   3.873
12466TIP3   OH237338   4.013   7.625   2.007
12466TIP3    H137339   4.021   7.555   2.071
12466TIP3    H237340   3.936   7.675   2.035
12467TIP3   OH237341   1.598   0.571   6.535
12467TIP3    H137342   1.632   0.653   6.572
12467TIP3    H237343   1.604   0.508   6.607
12468TIP3   OH237344   2.029   0.669   5.211
12468TIP3    H137345   2.116   0.706   5.227
12468TIP3    H237346   1.973   0.712   5.276
12469TIP3   OH237347   0.015   4.613   2.060
12469TIP3    H137348   0.028   4.694   2.011
12469TIP3    H237349   0.098   4.597   2.104
12470TIP3   OH237350   1.494   0.305   1.395
12470TIP3    H137351   1.457   0.311   1.483
12470TIP3    H237352   1.588   0.306   1.408
12471TIP3   OH237353   4.663   5.505   3.078
12471TIP3    H137354   4.633   5.544   2.996
12471TIP3    H237355   4.659   5.576   3.142
12472TIP3   OH237356   8.362   5.447   1.507
12472TIP3    H137357   8.280   5.484   1.476
12472TIP3    H237358   8.367   5.361   1.464
12473TIP3   OH237359   2.103   3.137   4.030
12473TIP3    H137360   2.084   3.099   4.116
12473TIP3    H237361   2.067   3.073   3.968
12474TIP3   OH237362   4.290   6.624   4.923
12474TIP3    H137363   4.375   6.589   4.899
12474TIP3    H237364   4.307   6.680   4.999
12475TIP3   OH237365   0.234   4.199   4.116
12475TIP3    H137366   0.293   4.210   4.042
12475TIP3    H237367   0.291   4.178   4.190
12476TIP3   OH237368   6.383   5.175   4.399
12476TIP3    H137369   6.460   5.195   4.452
12476TIP3    H237370   6.387   5.238   4.327
12477TIP3   OH237371   3.530   3.365   4.268
12477TIP3    H137372   3.562   3.277   4.252
12477TIP3    H237373   3.591   3.422   4.221
12478TIP3   OH237374   0.712   0.463   0.695
12478TIP3    H137375   0.723   0.425   0.782
12478TIP3    H237376   0.755   0.401   0.636
12479TIP3   OH237377   1.726   6.876   1.355
12479TIP3    H137378   1.668   6.840   1.289
12479TIP3    H237379   1.807   6.895   1.307
12480TIP3   OH237380   3.873   3.953   5.170
12480TIP3    H137381   3.870   3.875   5.225
12480TIP3    H237382   3.952   3.942   5.117
12481TIP3   OH237383   5.854   2.283   5.240
12481TIP3    H137384   5.875   2.195   5.269
12481TIP3    H237385   5.932   2.335   5.260
12482TIP3   OH237386   3.580   1.388   4.431
12482TIP3    H137387   3.533   1.341   4.361
12482TIP3    H237388   3.588   1.477   4.398
12483TIP3   OH237389   0.786   3.495   2.206
12483TIP3    H137390   0.832   3.553   2.267
12483TIP3    H237391   0.731   3.554   2.154
12484TIP3   OH237392   0.018   3.040   0.204
12484TIP3    H137393   0.102   3.059   0.247
12484TIP3    H237394  -0.021   2.971   0.259
12485TIP3   OH237395   2.711   1.254   2.013
12485TIP3    H137396   2.739   1.316   2.080
12485TIP3    H237397   2.626   1.223   2.043
12486TIP3   OH237398   3.783   7.837   5.984
12486TIP3    H137399   3.698   7.823   5.943
12486TIP3    H237400   3.843   7.851   5.911
12487TIP3   OH237401   2.574   3.285   6.590
12487TIP3    H137402   2.544   3.196   6.570
12487TIP3    H237403   2.584   3.327   6.504
12488TIP3   OH237404   6.370   5.015   0.534
12488TIP3    H137405   6.438   5.074   0.567
12488TIP3    H237406   6.417   4.937   0.506
12489TIP3   OH237407   1.115   1.349   1.265
12489TIP3    H137408   1.131   1.289   1.338
12489TIP3    H237409   1.020   1.361   1.265
12490TIP3   OH237410   0.739   5.506   6.721
12490TIP3    H137411   0.776   5.534   6.804
12490TIP3    H237412   0.665   5.450   6.745
12491TIP3   OH237413   4.437   6.478   3.237
12491TIP3    H137414   4.408   6.399   3.191
12491TIP3    H237415   4.504   6.446   3.298
12492TIP3   OH237416   1.783   2.146   4.532
12492TIP3    H137417   1.693   2.170   4.513
12492TIP3    H237418   1.827   2.148   4.448
12493TIP3   OH237419   6.412   1.656   0.112
12493TIP3    H137420   6.421   1.697   0.198
12493TIP3    H237421   6.490   1.683   0.064
12494TIP3   OH237422   4.355   4.746   1.261
12494TIP3    H137423   4.427   4.807   1.250
12494TIP3    H237424   4.363   4.714   1.351
12495TIP3   OH237425   5.436   3.154   4.326
12495TIP3    H137426   5.453   3.113   4.410
12495TIP3    H237427   5.344   3.135   4.308
12496TIP3   OH237428   7.044   4.984   1.550
12496TIP3    H137429   6.987   4.911   1.526
12496TIP3    H237430   7.013   5.057   1.497
12497TIP3   OH237431   6.562   7.693   5.702
12497TIP3    H137432   6.612   7.635   5.759
12497TIP3    H237433   6.480   7.646   5.687
12498TIP3   OH237434   5.660   3.513   4.015
12498TIP3    H137435   5.733   3.506   4.077
12498TIP3    H237436   5.598   3.448   4.046
12499TIP3   OH237437   0.334   5.888   5.407
12499TIP3    H137438   0.301   5.810   5.451
12499TIP3    H237439   0.337   5.864   5.314
12500TIP3   OH237440   5.794   4.233   2.413
12500TIP3    H137441   5.794   4.146   2.374
12500TIP3    H237442   5.747   4.222   2.496
12501TIP3   OH237443   6.154   2.375   0.502
12501TIP3    H137444   6.184   2.444   0.562
12501TIP3    H237445   6.228   2.315   0.497
12502TIP3   OH237446   7.021   5.501   3.597
12502TIP3    H137447   7.016   5.412   3.561
12502TIP3    H237448   7.007   5.489   3.691
12503TIP3   OH237449   7.834   6.304   4.867
12503TIP3    H137450   7.845   6.392   4.829
12503TIP3    H237451   7.860   6.314   4.958
12504TIP3   OH237452   5.729   5.862   1.054
12504TIP3    H137453   5.740   5.957   1.051
12504TIP3    H237454   5.809   5.830   1.096
12505TIP3   OH237455   2.661   2.089   2.524
12505TIP3    H137456   2.572   2.065   2.551
12505TIP3    H237457   2.663   2.071   2.430
12506TIP3   OH237458   2.210   1.677   6.609
12506TIP3    H137459   2.303   1.682   6.585
12506TIP3    H237460   2.201   1.592   6.651
12507TIP3   OH237461   3.564   4.939   2.538
12507TIP3    H137462   3.647   4.980   2.514
12507TIP3    H237463   3.549   4.874   2.469
12508TIP3   OH237464   3.528   1.655   4.660
12508TIP3    H137465   3.465   1.725   4.645
12508TIP3    H237466   3.508   1.622   4.748
12509TIP3   OH237467   2.917   5.972   1.534
12509TIP3    H137468   2.857   5.997   1.604
12509TIP3    H237469   2.978   5.911   1.576
12510TIP3   OH237470   3.013   0.736   3.925
12510TIP3    H137471   2.941   0.708   3.868
12510TIP3    H237472   2.969   0.777   4.000
12511TIP3   OH237473   1.309   4.842   0.198
12511TIP3    H137474   1.318   4.793   0.117
12511TIP3    H237475   1.396   4.877   0.216
12512TIP3   OH237476   5.559   4.223   0.758
12512TIP3    H137477   5.504   4.277   0.700
12512TIP3    H237478   5.634   4.199   0.704
12513TIP3   OH237479   5.353   1.393   0.309
12513TIP3    H137480   5.365   1.301   0.333
12513TIP3    H237481   5.258   1.404   0.306
12514TIP3   OH237482   8.249   1.335   6.557
12514TIP3    H137483   8.216   1.394   6.625
12514TIP3    H237484   8.286   1.261   6.606
12515TIP3   OH237485   1.436   6.620   5.713
12515TIP3    H137486   1.363   6.628   5.651
12515TIP3    H237487   1.408   6.668   5.790
12516TIP3   OH237488   7.128   6.444   0.631
12516TIP3    H137489   7.034   6.441   0.644
12516TIP3    H237490   7.160   6.360   0.663
12517TIP3   OH237491   8.242   1.291   0.448
12517TIP3    H137492   8.310   1.241   0.493
12517TIP3    H237493   8.191   1.226   0.400
12518TIP3   OH237494   0.647   6.782   1.567
12518TIP3    H137495   0.639   6.706   1.509
12518TIP3    H237496   0.642   6.857   1.508
12519TIP3   OH237497   1.066   4.405   6.495
12519TIP3    H137498   1.006   4.433   6.426
12519TIP3    H237499   1.108   4.326   6.460
12520TIP3   OH237500   7.264   7.133   3.459
12520TIP3    H137501   7.250   7.228   3.461
12520TIP3    H237502   7.333   7.117   3.524
12521TIP3   OH237503   1.570   6.873   4.554
12521TIP3    H137504   1.579   6.895   4.647
12521TIP3    H237505   1.497   6.812   4.550
12522TIP3   OH237506   6.493   4.092   3.460
12522TIP3    H137507   6.404   4.059   3.451
12522TIP3    H237508   6.486   4.187   3.449
12523TIP3   OH237509   2.930   1.811   1.534
12523TIP3    H137510   3.011   1.773   1.568
12523TIP3    H237511   2.860   1.767   1.582
12524TIP3   OH237512   5.123   1.512   5.915
12524TIP3    H137513   5.187   1.450   5.950
12524TIP3    H237514   5.096   1.564   5.991
12525TIP3   OH237515   6.812   3.930   4.023
12525TIP3    H137516   6.901   3.961   4.009
12525TIP3    H237517   6.820   3.835   4.030
12526TIP3   OH237518   1.620   4.652   6.498
12526TIP3    H137519   1.526   4.656   6.518
12526TIP3    H237520   1.663   4.683   6.577
12527TIP3   OH237521   1.572   4.550   2.534
12527TIP3    H137522   1.540   4.560   2.445
12527TIP3    H237523   1.657   4.508   2.525
12528TIP3   OH237524   3.156   5.434   4.688
12528TIP3    H137525   3.071   5.471   4.711
12528TIP3    H237526   3.176   5.472   4.602
12529TIP3   OH237527   4.249   0.351   0.944
12529TIP3    H137528   4.301   0.326   1.021
12529TIP3    H237529   4.178   0.287   0.941
12530TIP3   OH237530   4.878   7.282   1.223
12530TIP3    H137531   4.893   7.377   1.228
12530TIP3    H237532   4.966   7.244   1.231
12531TIP3   OH237533   1.632   1.472   5.846
12531TIP3    H137534   1.612   1.565   5.841
12531TIP3    H237535   1.569   1.437   5.909
12532TIP3   OH237536   0.739   0.536   3.027
12532TIP3    H137537   0.666   0.552   3.087
12532TIP3    H237538   0.698   0.514   2.944
12533TIP3   OH237539   3.593   3.076   3.427
12533TIP3    H137540   3.665   3.020   3.397
12533TIP3    H237541   3.597   3.068   3.523
12534TIP3   OH237542   5.360   1.961   2.064
12534TIP3    H137543   5.300   1.890   2.042
12534TIP3    H237544   5.369   2.011   1.983
12535TIP3   OH237545   2.757   1.025   3.813
12535TIP3    H137546   2.826   0.981   3.763
12535TIP3    H237547   2.677   0.978   3.789
12536TIP3   OH237548   4.054   5.406   5.273
12536TIP3    H137549   4.001   5.327   5.270
12536TIP3    H237550   4.064   5.433   5.182
12537TIP3   OH237551   4.881   2.510   0.644
12537TIP3    H137552   4.851   2.585   0.593
12537TIP3    H237553   4.822   2.440   0.621
12538TIP3   OH237554   5.511   7.712   5.134
12538TIP3    H137555   5.507   7.661   5.053
12538TIP3    H237556   5.603   7.735   5.143
12539TIP3   OH237557   5.998   1.480   1.921
12539TIP3    H137558   6.014   1.571   1.943
12539TIP3    H237559   5.915   1.480   1.875
12540TIP3   OH237560   5.087   2.409   3.681
12540TIP3    H137561   5.113   2.501   3.676
12540TIP3    H237562   5.165   2.364   3.712
12541TIP3   OH237563   1.857   3.171   3.315
12541TIP3    H137564   1.944   3.152   3.351
12541TIP3    H237565   1.809   3.210   3.388
12542TIP3   OH237566   1.510   5.992   0.211
12542TIP3    H137567   1.572   5.923   0.237
12542TIP3    H237568   1.483   6.032   0.293
12543TIP3   OH237569   4.344   4.821   6.645
12543TIP3    H137570   4.337   4.859   6.733
12543TIP3    H237571   4.309   4.889   6.587
12544TIP3   OH237572   0.498   0.380   1.463
12544TIP3    H137573   0.459   0.448   1.408
12544TIP3    H237574   0.424   0.337   1.504
12545TIP3   OH237575   5.207   6.574   0.683
12545TIP3    H137576   5.278   6.637   0.690
12545TIP3    H237577   5.232   6.517   0.612
12546TIP3   OH237578   1.610   2.250   5.066
12546TIP3    H137579   1.570   2.311   5.005
12546TIP3    H237580   1.588   2.285   5.153
12547TIP3   OH237581   0.499   5.990   3.620
12547TIP3    H137582   0.564   6.005   3.552
12547TIP3    H237583   0.501   6.070   3.674
12548TIP3   OH237584   2.024   4.417   3.935
12548TIP3    H137585   2.074   4.494   3.963
12548TIP3    H237586   2.090   4.353   3.910
12549TIP3   OH237587   2.370   5.767   1.905
12549TIP3    H137588   2.420   5.840   1.942
12549TIP3    H237589   2.431   5.723   1.847
12550TIP3   OH237590   8.015   1.178   3.479
12550TIP3    H137591   8.056   1.137   3.555
12550TIP3    H237592   7.928   1.202   3.510
12551TIP3   OH237593   4.456   0.908   5.386
12551TIP3    H137594   4.455   0.823   5.429
12551TIP3    H237595   4.400   0.897   5.309
12552TIP3   OH237596   2.660   7.200   4.063
12552TIP3    H137597   2.642   7.107   4.048
12552TIP3    H237598   2.578   7.244   4.041
12553TIP3   OH237599   3.495   0.228   5.715
12553TIP3    H137600   3.456   0.192   5.635
12553TIP3    H237601   3.542   0.155   5.754
12554TIP3   OH237602   1.521   3.685   5.333
12554TIP3    H137603   1.517   3.780   5.320
12554TIP3    H237604   1.607   3.660   5.300
12555TIP3   OH237605   7.134   5.588   1.329
12555TIP3    H137606   7.175   5.640   1.260
12555TIP3    H237607   7.166   5.625   1.411
12556TIP3   OH237608   7.509   7.397   2.402
12556TIP3    H137609   7.548   7.310   2.407
12556TIP3    H237610   7.437   7.388   2.340
12557TIP3   OH237611   1.665   0.039   5.609
12557TIP3    H137612   1.750  -0.006   5.608
12557TIP3    H237613   1.670   0.101   5.536
12558TIP3   OH237614   1.604   6.698   0.056
12558TIP3    H137615   1.672   6.633   0.073
12558TIP3    H237616   1.614   6.762   0.126
12559TIP3   OH237617   4.016   7.785   6.647
12559TIP3    H137618   3.931   7.781   6.603
12559TIP3    H237619   4.035   7.695   6.672
12560TIP3   OH237620   0.032   2.537   0.439
12560TIP3    H137621   0.035   2.506   0.529
12560TIP3    H237622   0.054   2.461   0.386
12561TIP3   OH237623   2.209   6.030   5.358
12561TIP3    H137624   2.135   6.024   5.298
12561TIP3    H237625   2.276   5.975   5.318
12562TIP3   OH237626   6.204   0.420   5.834
12562TIP3    H137627   6.286   0.450   5.795
12562TIP3    H237628   6.149   0.498   5.837
12563TIP3   OH237629   0.437   5.126   4.360
12563TIP3    H137630   0.378   5.183   4.311
12563TIP3    H237631   0.420   5.038   4.326
12564TIP3   OH237632   4.249   4.988   6.427
12564TIP3    H137633   4.327   5.042   6.410
12564TIP3    H237634   4.212   5.025   6.507
12565TIP3   OH237635   0.788   6.065   0.315
12565TIP3    H137636   0.849   6.079   0.387
12565TIP3    H237637   0.781   6.151   0.273
12566TIP3   OH237638   3.773   3.983   2.143
12566TIP3    H137639   3.743   3.904   2.187
12566TIP3    H237640   3.863   3.995   2.174
12567TIP3   OH237641   3.116   7.579   0.425
12567TIP3    H137642   3.162   7.618   0.499
12567TIP3    H237643   3.027   7.614   0.433
12568TIP3   OH237644   1.362   0.809   5.938
12568TIP3    H137645   1.377   0.809   5.843
12568TIP3    H237646   1.351   0.902   5.959
12569TIP3   OH237647   5.656   2.430   5.915
12569TIP3    H137648   5.745   2.434   5.879
12569TIP3    H237649   5.611   2.366   5.859
12570TIP3   OH237650   7.749   2.519   4.881
12570TIP3    H137651   7.798   2.504   4.800
12570TIP3    H237652   7.727   2.431   4.911
12571TIP3   OH237653   2.157   1.240   3.352
12571TIP3    H137654   2.102   1.257   3.275
12571TIP3    H237655   2.165   1.325   3.395
12572TIP3   OH237656   6.917   0.154   2.404
12572TIP3    H137657   6.895   0.067   2.436
12572TIP3    H237658   7.008   0.147   2.376
12573TIP3   OH237659   1.575   5.868   1.796
12573TIP3    H137660   1.526   5.818   1.731
12573TIP3    H237661   1.667   5.852   1.773
12574TIP3   OH237662   2.616   5.911   1.590
12574TIP3    H137663   2.613   5.825   1.631
12574TIP3    H237664   2.613   5.973   1.663
12575TIP3   OH237665   6.022   4.683   4.994
12575TIP3    H137666   5.929   4.690   4.975
12575TIP3    H237667   6.060   4.764   4.959
12576TIP3   OH237668   1.677   0.583   6.240
12576TIP3    H137669   1.637   0.570   6.326
12576TIP3    H237670   1.666   0.677   6.223
12577TIP3   OH237671   2.654   3.681   4.685
12577TIP3    H137672   2.565   3.692   4.717
12577TIP3    H237673   2.667   3.586   4.681
12578TIP3   OH237674   7.959   4.185   4.575
12578TIP3    H137675   7.978   4.178   4.669
12578TIP3    H237676   7.963   4.279   4.557
12579TIP3   OH237677   7.891   1.156   5.397
12579TIP3    H137678   7.930   1.135   5.313
12579TIP3    H237679   7.845   1.076   5.423
12580TIP3   OH237680   3.920   3.049   0.752
12580TIP3    H137681   3.908   2.998   0.832
12580TIP3    H237682   3.965   2.990   0.692
12581TIP3   OH237683   5.584   7.030   5.818
12581TIP3    H137684   5.543   7.092   5.878
12581TIP3    H237685   5.665   7.004   5.862
12582TIP3   OH237686   4.764   2.692   0.478
12582TIP3    H137687   4.773   2.744   0.398
12582TIP3    H237688   4.701   2.623   0.456
12583TIP3   OH237689   1.772   3.006   0.911
12583TIP3    H137690   1.825   2.930   0.934
12583TIP3    H237691   1.758   2.998   0.817
12584TIP3   OH237692   3.984   7.896   0.969
12584TIP3    H137693   4.057   7.910   1.029
12584TIP3    H237694   4.022   7.911   0.882
12585TIP3   OH237695   3.919   5.822   4.068
12585TIP3    H137696   3.970   5.884   4.120
12585TIP3    H237697   3.947   5.839   3.978
12586TIP3   OH237698   2.933   3.664   4.118
12586TIP3    H137699   2.998   3.707   4.063
12586TIP3    H237700   2.860   3.726   4.120
12587TIP3   OH237701   6.347   6.579   2.327
12587TIP3    H137702   6.290   6.588   2.404
12587TIP3    H237703   6.320   6.496   2.288
12588TIP3   OH237704   1.279   4.900   5.985
12588TIP3    H137705   1.343   4.917   5.915
12588TIP3    H237706   1.323   4.837   6.042
12589TIP3   OH237707   5.675   2.492   0.720
12589TIP3    H137708   5.734   2.506   0.646
12589TIP3    H237709   5.673   2.577   0.766
12590TIP3   OH237710   4.734   3.467   6.208
12590TIP3    H137711   4.775   3.433   6.128
12590TIP3    H237712   4.801   3.523   6.247
12591TIP3   OH237713   5.310   1.727   3.766
12591TIP3    H137714   5.308   1.664   3.695
12591TIP3    H237715   5.219   1.756   3.775
12592TIP3   OH237716   7.421   6.384   4.309
12592TIP3    H137717   7.388   6.473   4.292
12592TIP3    H237718   7.342   6.334   4.331
12593TIP3   OH237719   5.155   6.053   0.463
12593TIP3    H137720   5.123   6.142   0.450
12593TIP3    H237721   5.111   6.022   0.542
12594TIP3   OH237722   6.581   4.075   5.129
12594TIP3    H137723   6.491   4.063   5.099
12594TIP3    H237724   6.632   4.087   5.049
12595TIP3   OH237725   6.045   5.780   4.001
12595TIP3    H137726   5.984   5.834   4.051
12595TIP3    H237727   6.033   5.808   3.910
12596TIP3   OH237728   7.314   5.833   2.906
12596TIP3    H137729   7.235   5.779   2.906
12596TIP3    H237730   7.363   5.802   2.830
12597TIP3   OH237731   7.852   3.412   5.883
12597TIP3    H137732   7.863   3.406   5.788
12597TIP3    H237733   7.763   3.446   5.895
12598TIP3   OH237734   4.845   3.476   3.000
12598TIP3    H137735   4.761   3.494   2.957
12598TIP3    H237736   4.855   3.547   3.063
12599TIP3   OH237737   6.315   3.728   3.820
12599TIP3    H137738   6.403   3.762   3.839
12599TIP3    H237739   6.257   3.804   3.831
12600TIP3   OH237740   0.470   7.122   5.816
12600TIP3    H137741   0.485   7.039   5.862
12600TIP3    H237742   0.554   7.143   5.777
12601TIP3   OH237743   0.395   5.140   6.077
12601TIP3    H137744   0.417   5.081   6.149
12601TIP3    H237745   0.310   5.109   6.046
12602TIP3   OH237746   1.072   4.186   1.544
12602TIP3    H137747   1.158   4.180   1.585
12602TIP3    H237748   1.058   4.100   1.505
12603TIP3   OH237749   4.510   1.783   3.350
12603TIP3    H137750   4.477   1.694   3.332
12603TIP3    H237751   4.490   1.832   3.270
12604TIP3   OH237752   1.816   3.813   4.439
12604TIP3    H137753   1.772   3.777   4.362
12604TIP3    H237754   1.746   3.856   4.489
12605TIP3   OH237755   4.205   2.420   0.178
12605TIP3    H137756   4.147   2.423   0.255
12605TIP3    H237757   4.147   2.406   0.104
12606TIP3   OH237758   0.603   5.315   6.366
12606TIP3    H137759   0.610   5.407   6.390
12606TIP3    H237760   0.558   5.315   6.282
12607TIP3   OH237761   3.287   2.564   4.360
12607TIP3    H137762   3.298   2.585   4.268
12607TIP3    H237763   3.349   2.621   4.406
12608TIP3   OH237764   2.428   0.114   0.675
12608TIP3    H137765   2.409   0.045   0.613
12608TIP3    H237766   2.420   0.195   0.625
12609TIP3   OH237767   5.038   1.986   6.821
12609TIP3    H137768   5.056   2.027   6.905
12609TIP3    H237769   4.948   2.010   6.800
12610TIP3   OH237770   1.506   6.591   6.528
12610TIP3    H137771   1.602   6.590   6.538
12610TIP3    H237772   1.492   6.588   6.433
12611TIP3   OH237773   3.471   7.465   4.496
12611TIP3    H137774   3.498   7.437   4.409
12611TIP3    H237775   3.550   7.500   4.536
12612TIP3   OH237776   0.037   5.830   3.507
12612TIP3    H137777   0.019   5.909   3.455
12612TIP3    H237778   0.133   5.826   3.511
12613TIP3   OH237779   7.594   7.854   5.319
12613TIP3    H137780   7.670   7.911   5.328
12613TIP3    H237781   7.549   7.885   5.240
12614TIP3   OH237782   5.139   7.588   4.071
12614TIP3    H137783   5.174   7.517   4.017
12614TIP3    H237784   5.183   7.578   4.155
12615TIP3   OH237785   4.022   7.714   4.339
12615TIP3    H137786   4.035   7.697   4.246
12615TIP3    H237787   4.084   7.784   4.359
12616TIP3   OH237788   0.226   7.353   4.964
12616TIP3    H137789   0.179   7.281   5.006
12616TIP3    H237790   0.294   7.378   5.027
12617TIP3   OH237791   8.325   1.782   5.472
12617TIP3    H137792   8.378   1.769   5.551
12617TIP3    H237793   8.372   1.850   5.424
12618TIP3   OH237794   7.839   5.375   4.388
12618TIP3    H137795   7.812   5.430   4.462
12618TIP3    H237796   7.772   5.389   4.321
12619TIP3   OH237797   7.797   6.943   5.006
12619TIP3    H137798   7.848   6.878   5.053
12619TIP3    H237799   7.862   6.997   4.960
12620TIP3   OH237800   0.807   4.099   6.703
12620TIP3    H137801   0.834   4.088   6.612
12620TIP3    H237802   0.861   4.171   6.736
12621TIP3   OH237803   8.408   1.381   5.901
12621TIP3    H137804   8.425   1.472   5.926
12621TIP3    H237805   8.314   1.369   5.916
12622TIP3   OH237806   4.639   6.048   0.259
12622TIP3    H137807   4.584   5.977   0.291
12622TIP3    H237808   4.693   6.008   0.191
12623TIP3   OH237809   1.797   7.710   6.045
12623TIP3    H137810   1.851   7.664   6.109
12623TIP3    H237811   1.858   7.769   6.000
12624TIP3   OH237812   4.258   0.671   1.033
12624TIP3    H137813   4.229   0.730   1.103
12624TIP3    H237814   4.178   0.649   0.986
12625TIP3   OH237815   3.584   1.214   2.170
12625TIP3    H137816   3.574   1.122   2.144
12625TIP3    H237817   3.679   1.226   2.177
12626TIP3   OH237818   5.349   7.696   1.660
12626TIP3    H137819   5.397   7.626   1.615
12626TIP3    H237820   5.403   7.717   1.736
12627TIP3   OH237821   6.092   3.334   1.946
12627TIP3    H137822   6.029   3.265   1.964
12627TIP3    H237823   6.170   3.310   1.996
12628TIP3   OH237824   1.592   5.603   5.642
12628TIP3    H137825   1.594   5.676   5.580
12628TIP3    H237826   1.537   5.537   5.600
12629TIP3   OH237827   2.625   5.480   2.705
12629TIP3    H137828   2.590   5.486   2.794
12629TIP3    H237829   2.668   5.395   2.702
12630TIP3   OH237830   1.595   1.425   6.683
12630TIP3    H137831   1.506   1.415   6.650
12630TIP3    H237832   1.603   1.518   6.704
12631TIP3   OH237833   0.381   3.884   0.279
12631TIP3    H137834   0.414   3.795   0.289
12631TIP3    H237835   0.445   3.939   0.324
12632TIP3   OH237836   2.090   2.186   3.500
12632TIP3    H137837   2.047   2.169   3.584
12632TIP3    H237838   2.036   2.254   3.459
12633TIP3   OH237839   5.581   7.578   0.539
12633TIP3    H137840   5.500   7.605   0.582
12633TIP3    H237841   5.557   7.566   0.447
12634TIP3   OH237842   2.754   1.291   4.960
12634TIP3    H137843   2.833   1.320   4.914
12634TIP3    H237844   2.787   1.247   5.038
12635TIP3   OH237845   4.155   2.529   5.211
12635TIP3    H137846   4.099   2.600   5.181
12635TIP3    H237847   4.095   2.466   5.251
12636TIP3   OH237848   7.643   6.227   0.839
12636TIP3    H137849   7.612   6.156   0.896
12636TIP3    H237850   7.563   6.273   0.812
12637TIP3   OH237851   3.126   5.803   1.628
12637TIP3    H137852   3.084   5.737   1.683
12637TIP3    H237853   3.212   5.817   1.667
12638TIP3   OH237854   5.913   4.666   3.575
12638TIP3    H137855   5.848   4.624   3.632
12638TIP3    H237856   5.919   4.756   3.607
12639TIP3   OH237857   5.271   3.381   4.079
12639TIP3    H137858   5.294   3.289   4.072
12639TIP3    H237859   5.341   3.427   4.032
12640TIP3   OH237860   1.922   5.020   5.070
12640TIP3    H137861   1.999   5.040   5.123
12640TIP3    H237862   1.857   4.991   5.134
12641TIP3   OH237863   4.512   6.003   6.224
12641TIP3    H137864   4.567   6.039   6.156
12641TIP3    H237865   4.564   5.934   6.264
12642TIP3   OH237866   6.076   5.101   5.943
12642TIP3    H137867   5.984   5.078   5.957
12642TIP3    H237868   6.073   5.174   5.882
12643TIP3   OH237869   5.889   1.998   2.170
12643TIP3    H137870   5.895   1.929   2.104
12643TIP3    H237871   5.955   2.062   2.144
12644TIP3   OH237872   2.090   1.292   1.632
12644TIP3    H137873   2.102   1.249   1.717
12644TIP3    H237874   2.077   1.385   1.653
12645TIP3   OH237875   0.667   6.132   6.284
12645TIP3    H137876   0.705   6.053   6.245
12645TIP3    H237877   0.596   6.156   6.224
12646TIP3   OH237878   3.042   4.908   3.757
12646TIP3    H137879   3.003   4.852   3.824
12646TIP3    H237880   2.985   4.898   3.681
12647TIP3   OH237881   0.387   6.408   1.058
12647TIP3    H137882   0.469   6.400   1.010
12647TIP3    H237883   0.343   6.483   1.017
12648TIP3   OH237884   5.043   3.446   2.196
12648TIP3    H137885   4.999   3.531   2.206
12648TIP3    H237886   4.979   3.391   2.151
12649TIP3   OH237887   0.101   2.379   2.798
12649TIP3    H137888   0.082   2.286   2.811
12649TIP3    H237889   0.171   2.381   2.733
12650TIP3   OH237890   7.775   5.273   2.337
12650TIP3    H137891   7.822   5.265   2.254
12650TIP3    H237892   7.688   5.237   2.318
12651TIP3   OH237893   6.585   6.580   1.152
12651TIP3    H137894   6.601   6.668   1.186
12651TIP3    H237895   6.672   6.547   1.129
12652TIP3   OH237896   1.600   6.791   0.743
12652TIP3    H137897   1.593   6.876   0.700
12652TIP3    H237898   1.688   6.790   0.781
12653TIP3   OH237899   0.979   5.930   4.900
12653TIP3    H137900   1.023   5.961   4.821
12653TIP3    H237901   0.909   5.872   4.868
12654TIP3   OH237902   6.479   7.591   2.342
12654TIP3    H137903   6.486   7.506   2.387
12654TIP3    H237904   6.450   7.569   2.254
12655TIP3   OH237905   3.915   6.127   0.441
12655TIP3    H137906   3.914   6.101   0.349
12655TIP3    H237907   3.876   6.214   0.442
12656TIP3   OH237908   4.513   4.279   3.304
12656TIP3    H137909   4.444   4.215   3.289
12656TIP3    H237910   4.587   4.248   3.252
12657TIP3   OH237911   5.242   1.554   0.041
12657TIP3    H137912   5.239   1.618   0.112
12657TIP3    H237913   5.293   1.597  -0.028
12658TIP3   OH237914   7.673   6.402   2.359
12658TIP3    H137915   7.753   6.451   2.340
12658TIP3    H237916   7.647   6.365   2.275
12659TIP3   OH237917   7.149   5.582   4.392
12659TIP3    H137918   7.065   5.598   4.436
12659TIP3    H237919   7.140   5.494   4.354
12660TIP3   OH237920   3.055   0.132   4.434
12660TIP3    H137921   2.998   0.168   4.502
12660TIP3    H237922   2.998   0.072   4.385
12661TIP3   OH237923   4.167   6.661   2.391
12661TIP3    H137924   4.076   6.638   2.373
12661TIP3    H237925   4.162   6.717   2.469
12662TIP3   OH237926   3.295   1.293   3.451
12662TIP3    H137927   3.215   1.240   3.451
12662TIP3    H237928   3.364   1.233   3.422
12663TIP3   OH237929   2.412   7.182   2.253
12663TIP3    H137930   2.425   7.119   2.183
12663TIP3    H237931   2.441   7.265   2.216
12664TIP3   OH237932   6.288   5.936   2.846
12664TIP3    H137933   6.352   5.997   2.883
12664TIP3    H237934   6.209   5.989   2.835
12665TIP3   OH237935   4.146   1.421   5.279
12665TIP3    H137936   4.212   1.369   5.325
12665TIP3    H237937   4.073   1.361   5.265
12666TIP3   OH237938   3.472   4.758   4.200
12666TIP3    H137939   3.538   4.758   4.131
12666TIP3    H237940   3.502   4.692   4.262
12667TIP3   OH237941   1.642   6.082   3.185
12667TIP3    H137942   1.701   6.081   3.260
12667TIP3    H237943   1.577   6.149   3.206
12668TIP3   OH237944   0.067   2.241   6.755
12668TIP3    H137945  -0.017   2.286   6.758
12668TIP3    H237946   0.132   2.310   6.766
12669TIP3   OH237947   7.872   4.035   3.480
12669TIP3    H137948   7.940   3.978   3.443
12669TIP3    H237949   7.825   3.979   3.542
12670TIP3   OH237950   1.369   5.342   1.310
12670TIP3    H137951   1.287   5.295   1.325
12670TIP3    H237952   1.392   5.378   1.396
12671TIP3   OH237953   5.029   7.859   3.751
12671TIP3    H137954   5.025   7.796   3.679
12671TIP3    H237955   4.949   7.842   3.801
12672TIP3   OH237956   7.516   4.476   3.848
12672TIP3    H137957   7.451   4.429   3.795
12672TIP3    H237958   7.496   4.568   3.833
12673TIP3   OH237959   2.714   0.324   4.189
12673TIP3    H137960   2.713   0.251   4.250
12673TIP3    H237961   2.624   0.357   4.190
12674TIP3   OH237962   0.688   3.198   1.960
12674TIP3    H137963   0.631   3.233   2.029
12674TIP3    H237964   0.677   3.258   1.887
12675TIP3   OH237965   6.966   5.059   0.574
12675TIP3    H137966   6.900   5.086   0.638
12675TIP3    H237967   7.009   5.140   0.548
12676TIP3   OH237968   6.607   3.646   0.323
12676TIP3    H137969   6.669   3.585   0.283
12676TIP3    H237970   6.643   3.733   0.303
12677TIP3   OH237971   5.181   2.567   4.581
12677TIP3    H137972   5.118   2.638   4.594
12677TIP3    H237973   5.224   2.588   4.498
12678TIP3   OH237974   4.942   4.180   5.481
12678TIP3    H137975   5.026   4.136   5.494
12678TIP3    H237976   4.893   4.123   5.422
12679TIP3   OH237977   2.977   3.906   6.402
12679TIP3    H137978   2.955   3.827   6.353
12679TIP3    H237979   3.066   3.928   6.372
12680TIP3   OH237980   0.952   6.053   2.099
12680TIP3    H137981   0.927   6.134   2.142
12680TIP3    H237982   0.869   6.011   2.076
12681TIP3   OH237983   7.513   1.407   2.202
12681TIP3    H137984   7.592   1.372   2.162
12681TIP3    H237985   7.491   1.483   2.148
12682TIP3   OH237986   3.806   0.911   2.775
12682TIP3    H137987   3.743   0.842   2.796
12682TIP3    H237988   3.796   0.976   2.845
12683TIP3   OH237989   3.682   2.882   2.601
12683TIP3    H137990   3.762   2.831   2.587
12683TIP3    H237991   3.617   2.818   2.629
12684TIP3   OH237992   4.862   5.162   5.273
12684TIP3    H137993   4.841   5.239   5.326
12684TIP3    H237994   4.777   5.130   5.243
12685TIP3   OH237995   6.844   7.825   6.039
12685TIP3    H137996   6.768   7.872   6.072
12685TIP3    H237997   6.916   7.888   6.044
12686TIP3   OH237998   4.307   7.042   3.388
12686TIP3    H137999   4.386   7.094   3.398
12686TIP3    H238000   4.249   7.097   3.336
12687TIP3   OH238001   0.917   0.732   6.459
12687TIP3    H138002   0.977   0.666   6.494
12687TIP3    H238003   0.832   0.688   6.455
12688TIP3   OH238004   3.057   6.418   2.743
12688TIP3    H138005   3.147   6.405   2.773
12688TIP3    H238006   3.019   6.330   2.743
12689TIP3   OH238007   5.516   6.018   2.583
12689TIP3    H138008   5.437   6.068   2.564
12689TIP3    H238009   5.534   6.034   2.675
12690TIP3   OH238010   5.809   7.818   3.679
12690TIP3    H138011   5.731   7.772   3.647
12690TIP3    H238012   5.839   7.766   3.753
12691TIP3   OH238013   7.859   1.779   1.076
12691TIP3    H138014   7.810   1.763   0.995
12691TIP3    H238015   7.797   1.824   1.133
12692TIP3   OH238016   4.872   6.320   3.870
12692TIP3    H138017   4.851   6.405   3.908
12692TIP3    H238018   4.828   6.320   3.785
12693TIP3   OH238019   2.172   2.728   3.172
12693TIP3    H138020   2.094   2.719   3.118
12693TIP3    H238021   2.234   2.776   3.117
12694TIP3   OH238022   0.108   3.801   4.399
12694TIP3    H138023   0.089   3.873   4.340
12694TIP3    H238024   0.054   3.729   4.368
12695TIP3   OH238025   7.964   4.748   5.084
12695TIP3    H138026   7.923   4.766   5.169
12695TIP3    H238027   7.910   4.679   5.045
12696TIP3   OH238028   4.843   3.806   5.768
12696TIP3    H138029   4.878   3.877   5.821
12696TIP3    H238030   4.751   3.800   5.793
12697TIP3   OH238031   5.510   5.803   0.298
12697TIP3    H138032   5.464   5.851   0.367
12697TIP3    H238033   5.552   5.871   0.244
12698TIP3   OH238034   2.644   3.720   1.031
12698TIP3    H138035   2.618   3.805   1.066
12698TIP3    H238036   2.583   3.704   0.958
12699TIP3   OH238037   5.917   6.863   6.293
12699TIP3    H138038   5.950   6.894   6.377
12699TIP3    H238039   5.923   6.768   6.298
12700TIP3   OH238040   2.885   5.520   1.325
12700TIP3    H138041   2.911   5.460   1.395
12700TIP3    H238042   2.810   5.477   1.284
12701TIP3   OH238043   4.341   0.694   1.384
12701TIP3    H138044   4.296   0.765   1.430
12701TIP3    H238045   4.271   0.634   1.357
12702TIP3   OH238046   2.490   5.085   3.136
12702TIP3    H138047   2.543   5.023   3.086
12702TIP3    H238048   2.536   5.094   3.219
12703TIP3   OH238049   2.082   6.924   6.688
12703TIP3    H138050   2.062   7.017   6.673
12703TIP3    H238051   2.170   6.913   6.652
12704TIP3   OH238052   1.613   0.303   4.313
12704TIP3    H138053   1.546   0.261   4.259
12704TIP3    H238054   1.564   0.365   4.367
12705TIP3   OH238055   6.549   4.042   6.435
12705TIP3    H138056   6.510   3.958   6.411
12705TIP3    H238057   6.475   4.103   6.438
12706TIP3   OH238058   2.087   1.035   3.539
12706TIP3    H138059   1.998   1.066   3.551
12706TIP3    H238060   2.127   1.100   3.481
12707TIP3   OH238061   6.876   0.213   4.432
12707TIP3    H138062   6.904   0.240   4.345
12707TIP3    H238063   6.825   0.287   4.465
12708TIP3   OH238064   6.077   7.611   5.805
12708TIP3    H138065   5.996   7.647   5.840
12708TIP3    H238066   6.050   7.531   5.759
12709TIP3   OH238067   4.105   1.340   2.913
12709TIP3    H138068   4.176   1.392   2.950
12709TIP3    H238069   4.059   1.304   2.989
12710TIP3   OH238070   0.819   2.389   1.591
12710TIP3    H138071   0.910   2.391   1.621
12710TIP3    H238072   0.772   2.448   1.651
12711TIP3   OH238073   2.217   4.113   1.792
12711TIP3    H138074   2.140   4.166   1.814
12711TIP3    H238075   2.204   4.088   1.700
12712TIP3   OH238076   0.455   7.177   4.796
12712TIP3    H138077   0.521   7.240   4.823
12712TIP3    H238078   0.482   7.150   4.708
12713TIP3   OH238079   5.885  -0.011   3.659
12713TIP3    H138080   5.855   0.058   3.718
12713TIP3    H238081   5.854   0.015   3.573
12714TIP3   OH238082   5.190   3.254   4.950
12714TIP3    H138083   5.258   3.191   4.972
12714TIP3    H238084   5.237   3.327   4.911
12715TIP3   OH238085   6.252   6.173   6.456
12715TIP3    H138086   6.199   6.115   6.511
12715TIP3    H238087   6.321   6.204   6.514
12716TIP3   OH238088   6.258   6.778   6.240
12716TIP3    H138089   6.197   6.715   6.201
12716TIP3    H238090   6.237   6.861   6.197
12717TIP3   OH238091   3.936   4.411   1.297
12717TIP3    H138092   3.976   4.471   1.360
12717TIP3    H238093   3.852   4.452   1.275
12718TIP3   OH238094   5.979   7.050   2.438
12718TIP3    H138095   5.988   6.981   2.372
12718TIP3    H238096   6.035   7.020   2.510
12719TIP3   OH238097   0.899   0.962   5.951
12719TIP3    H138098   0.886   0.914   6.033
12719TIP3    H238099   0.969   1.024   5.970
12720TIP3   OH238100   7.864   7.628   5.957
12720TIP3    H138101   7.810   7.706   5.971
12720TIP3    H238102   7.933   7.657   5.898
12721TIP3   OH238103   0.971   0.922   3.231
12721TIP3    H138104   0.992   0.887   3.144
12721TIP3    H238105   0.999   0.854   3.292
12722TIP3   OH238106   4.657   7.476   0.428
12722TIP3    H138107   4.602   7.554   0.418
12722TIP3    H238108   4.614   7.409   0.376
12723TIP3   OH238109   8.361   0.036   0.399
12723TIP3    H138110   8.340   0.011   0.309
12723TIP3    H238111   8.451   0.006   0.412
12724TIP3   OH238112   0.100   6.709   3.529
12724TIP3    H138113   0.081   6.781   3.590
12724TIP3    H238114   0.046   6.636   3.561
12725TIP3   OH238115   7.204   0.876   4.190
12725TIP3    H138116   7.160   0.807   4.240
12725TIP3    H238117   7.298   0.857   4.201
12726TIP3   OH238118   2.201   1.003   5.819
12726TIP3    H138119   2.147   1.057   5.761
12726TIP3    H238120   2.141   0.936   5.851
12727TIP3   OH238121   3.805   3.769   4.834
12727TIP3    H138122   3.814   3.856   4.796
12727TIP3    H238123   3.713   3.762   4.859
12728TIP3   OH238124   2.303   0.514   6.180
12728TIP3    H138125   2.207   0.508   6.181
12728TIP3    H238126   2.330   0.466   6.102
12729TIP3   OH238127   0.111   0.087   6.319
12729TIP3    H138128   0.096   0.040   6.236
12729TIP3    H238129   0.181   0.149   6.299
12730TIP3   OH238130   5.864   1.927   1.394
12730TIP3    H138131   5.801   1.856   1.386
12730TIP3    H238132   5.837   1.991   1.328
12731TIP3   OH238133   8.259   0.650   4.104
12731TIP3    H138134   8.240   0.650   4.198
12731TIP3    H238135   8.334   0.709   4.096
12732TIP3   OH238136   5.819   6.097   2.324
12732TIP3    H138137   5.826   6.136   2.411
12732TIP3    H238138   5.765   6.158   2.274
12733TIP3   OH238139   6.194   7.405   1.454
12733TIP3    H138140   6.282   7.387   1.489
12733TIP3    H238141   6.142   7.330   1.482
12734TIP3   OH238142   0.966   1.987   0.661
12734TIP3    H138143   0.996   1.960   0.574
12734TIP3    H238144   1.036   2.044   0.693
12735TIP3   OH238145   3.222   4.222   4.171
12735TIP3    H138146   3.224   4.317   4.183
12735TIP3    H238147   3.262   4.208   4.085
12736TIP3   OH238148   1.168   4.437   5.214
12736TIP3    H138149   1.109   4.394   5.151
12736TIP3    H238150   1.149   4.530   5.205
12737TIP3   OH238151   8.051   6.254   4.728
12737TIP3    H138152   7.993   6.286   4.658
12737TIP3    H238153   8.001   6.268   4.808
12738TIP3   OH238154   0.484   6.199   0.134
12738TIP3    H138155   0.567   6.219   0.090
12738TIP3    H238156   0.424   6.179   0.062
12739TIP3   OH238157   5.471   0.749   6.109
12739TIP3    H138158   5.556   0.733   6.068
12739TIP3    H238159   5.489   0.749   6.203
12740TIP3   OH238160   0.724   4.247   5.348
12740TIP3    H138161   0.684   4.328   5.379
12740TIP3    H238162   0.694   4.180   5.409
12741TIP3   OH238163   4.425   7.259   3.209
12741TIP3    H138164   4.499   7.274   3.149
12741TIP3    H238165   4.466   7.250   3.295
12742TIP3   OH238166   3.280   0.697   0.908
12742TIP3    H138167   3.283   0.604   0.884
12742TIP3    H238168   3.338   0.704   0.984
12743TIP3   OH238169   7.060   4.078   2.208
12743TIP3    H138170   7.093   4.167   2.201
12743TIP3    H238171   7.138   4.025   2.225
12744TIP3   OH238172   0.133   0.765   4.015
12744TIP3    H138173   0.162   0.731   3.930
12744TIP3    H238174   0.117   0.858   4.000
12745TIP3   OH238175   0.799   6.480   3.095
12745TIP3    H138176   0.891   6.481   3.120
12745TIP3    H238177   0.786   6.561   3.045
12746TIP3   OH238178   3.525   5.041   1.196
12746TIP3    H138179   3.579   5.066   1.270
12746TIP3    H238180   3.559   4.956   1.169
12747TIP3   OH238181   7.625   2.149   6.785
12747TIP3    H138182   7.571   2.197   6.722
12747TIP3    H238183   7.570   2.140   6.863
12748TIP3   OH238184   3.381   3.822   6.315
12748TIP3    H138185   3.312   3.759   6.336
12748TIP3    H238186   3.449   3.805   6.380
12749TIP3   OH238187   4.669   3.571   4.134
12749TIP3    H138188   4.621   3.519   4.070
12749TIP3    H238189   4.761   3.545   4.122
12750TIP3   OH238190   7.907   3.876   2.959
12750TIP3    H138191   7.841   3.859   3.026
12750TIP3    H238192   7.951   3.791   2.947
12751TIP3   OH238193   1.888   4.796   1.211
12751TIP3    H138194   1.912   4.847   1.288
12751TIP3    H238195   1.792   4.800   1.208
12752TIP3   OH238196   4.189   1.693   4.399
12752TIP3    H138197   4.198   1.778   4.354
12752TIP3    H238198   4.174   1.630   4.328
12753TIP3   OH238199   5.560   2.343   3.592
12753TIP3    H138200   5.646   2.347   3.635
12753TIP3    H238201   5.569   2.273   3.527
12754TIP3   OH238202   7.875   6.858   5.290
12754TIP3    H138203   7.949   6.797   5.292
12754TIP3    H238204   7.897   6.923   5.357
12755TIP3   OH238205   1.403   6.775   3.743
12755TIP3    H138206   1.495   6.779   3.771
12755TIP3    H238207   1.400   6.825   3.662
12756TIP3   OH238208   0.297   3.807   4.600
12756TIP3    H138209   0.322   3.722   4.636
12756TIP3    H238210   0.253   3.787   4.518
12757TIP3   OH238211   4.085   6.032   1.233
12757TIP3    H138212   4.117   5.953   1.189
12757TIP3    H238213   4.116   6.104   1.177
12758TIP3   OH238214   5.193   7.576   5.977
12758TIP3    H138215   5.156   7.655   6.017
12758TIP3    H238216   5.132   7.554   5.906
12759TIP3   OH238217   1.478   4.455   2.166
12759TIP3    H138218   1.423   4.506   2.225
12759TIP3    H238219   1.538   4.519   2.128
12760TIP3   OH238220   3.366   6.618   6.386
12760TIP3    H138221   3.351   6.594   6.295
12760TIP3    H238222   3.285   6.662   6.412
12761TIP3   OH238223   4.256   5.356   0.504
12761TIP3    H138224   4.351   5.364   0.513
12761TIP3    H238225   4.234   5.274   0.550
12762TIP3   OH238226   7.423   2.297   1.375
12762TIP3    H138227   7.456   2.378   1.335
12762TIP3    H238228   7.346   2.325   1.424
12763TIP3   OH238229   5.426   2.807   5.017
12763TIP3    H138230   5.504   2.786   5.067
12763TIP3    H238231   5.367   2.847   5.081
12764TIP3   OH238232   7.828   3.225   2.884
12764TIP3    H138233   7.769   3.149   2.880
12764TIP3    H238234   7.892   3.201   2.951
12765TIP3   OH238235   1.928   4.702   0.942
12765TIP3    H138236   1.845   4.748   0.929
12765TIP3    H238237   1.961   4.736   1.025
12766TIP3   OH238238   4.430   0.172   5.198
12766TIP3    H138239   4.342   0.185   5.162
12766TIP3    H238240   4.427   0.217   5.283
12767TIP3   OH238241   3.284   6.322   5.550
12767TIP3    H138242   3.372   6.354   5.532
12767TIP3    H238243   3.297   6.250   5.612
12768TIP3   OH238244   8.330   5.029   3.247
12768TIP3    H138245   8.309   4.961   3.310
12768TIP3    H238246   8.421   5.012   3.223
12769TIP3   OH238247   1.539   5.616   2.476
12769TIP3    H138248   1.570   5.707   2.479
12769TIP3    H238249   1.453   5.623   2.434
12770TIP3   OH238250   5.574   5.083   1.460
12770TIP3    H138251   5.497   5.103   1.513
12770TIP3    H238252   5.615   5.009   1.505
12771TIP3   OH238253   6.734   5.464   0.910
12771TIP3    H138254   6.781   5.435   0.988
12771TIP3    H238255   6.742   5.559   0.911
12772TIP3   OH238256   1.232   3.022   3.413
12772TIP3    H138257   1.211   3.113   3.392
12772TIP3    H238258   1.218   3.015   3.508
12773TIP3   OH238259   0.180   1.420   5.630
12773TIP3    H138260   0.136   1.415   5.715
12773TIP3    H238261   0.115   1.462   5.573
12774TIP3   OH238262   5.570   0.162   0.211
12774TIP3    H138263   5.637   0.192   0.150
12774TIP3    H238264   5.487   0.180   0.166
12775TIP3   OH238265   3.607   5.230   3.423
12775TIP3    H138266   3.517   5.220   3.455
12775TIP3    H238267   3.655   5.158   3.463
12776TIP3   OH238268   7.001   5.424   1.509
12776TIP3    H138269   7.024   5.455   1.597
12776TIP3    H238270   7.013   5.500   1.453
12777TIP3   OH238271   3.262   0.962   1.727
12777TIP3    H138272   3.201   0.978   1.799
12777TIP3    H238273   3.315   0.888   1.756
12778TIP3   OH238274   5.074   4.376   6.278
12778TIP3    H138275   5.076   4.355   6.184
12778TIP3    H238276   4.998   4.329   6.312
12779TIP3   OH238277   3.159   0.019   1.209
12779TIP3    H138278   3.071   0.049   1.187
12779TIP3    H238279   3.171   0.046   1.300
12780TIP3   OH238280   5.729   7.890   5.702
12780TIP3    H138281   5.668   7.842   5.645
12780TIP3    H238282   5.736   7.977   5.663
12781TIP3   OH238283   3.217   2.094   5.336
12781TIP3    H138284   3.157   2.019   5.344
12781TIP3    H238285   3.274   2.087   5.412
12782TIP3   OH238286   1.939   2.476   1.383
12782TIP3    H138287   2.022   2.452   1.341
12782TIP3    H238288   1.960   2.478   1.477
12783TIP3   OH238289   6.665   4.173   5.726
12783TIP3    H138290   6.694   4.225   5.651
12783TIP3    H238291   6.632   4.237   5.789
12784TIP3   OH238292   2.395   3.742   0.378
12784TIP3    H138293   2.358   3.740   0.466
12784TIP3    H238294   2.487   3.765   0.391
12785TIP3   OH238295   2.103   2.891   3.806
12785TIP3    H138296   2.194   2.861   3.805
12785TIP3    H238297   2.088   2.924   3.717
12786TIP3   OH238298   4.269   3.119   0.450
12786TIP3    H138299   4.177   3.105   0.427
12786TIP3    H238300   4.275   3.212   0.470
12787TIP3   OH238301   2.649   7.534   0.987
12787TIP3    H138302   2.576   7.555   0.930
12787TIP3    H238303   2.669   7.615   1.033
12788TIP3   OH238304   2.312   7.290   6.273
12788TIP3    H138305   2.230   7.247   6.250
12788TIP3    H238306   2.350   7.319   6.190
12789TIP3   OH238307   7.150   2.487   2.918
12789TIP3    H138308   7.211   2.462   2.848
12789TIP3    H238309   7.088   2.414   2.923
12790TIP3   OH238310   1.305   5.758   5.668
12790TIP3    H138311   1.377   5.775   5.729
12790TIP3    H238312   1.344   5.705   5.599
12791TIP3   OH238313   0.462   6.786   4.882
12791TIP3    H138314   0.461   6.878   4.906
12791TIP3    H238315   0.434   6.740   4.962
12792TIP3   OH238316   6.219   6.589   2.025
12792TIP3    H138317   6.255   6.566   1.939
12792TIP3    H238318   6.293   6.630   2.071
12793TIP3   OH238319   2.312   7.665   6.764
12793TIP3    H138320   2.283   7.729   6.829
12793TIP3    H238321   2.388   7.623   6.803
12794TIP3   OH238322   4.189   3.296   5.808
12794TIP3    H138323   4.253   3.298   5.878
12794TIP3    H238324   4.104   3.300   5.852
12795TIP3   OH238325   4.706   7.147   0.757
12795TIP3    H138326   4.725   7.197   0.836
12795TIP3    H238327   4.622   7.105   0.775
12796TIP3   OH238328   3.189   0.506   5.700
12796TIP3    H138329   3.261   0.543   5.752
12796TIP3    H238330   3.135   0.460   5.763
12797TIP3   OH238331   4.233   5.162   0.137
12797TIP3    H138332   4.200   5.252   0.140
12797TIP3    H238333   4.173   5.117   0.077
12798TIP3   OH238334   5.025   0.931   1.197
12798TIP3    H138335   5.006   0.968   1.111
12798TIP3    H238336   4.974   0.986   1.258
12799TIP3   OH238337   4.460   5.947   3.625
12799TIP3    H138338   4.532   5.917   3.681
12799TIP3    H238339   4.385   5.954   3.685
12800TIP3   OH238340   3.237   5.658   2.627
12800TIP3    H138341   3.300   5.690   2.692
12800TIP3    H238342   3.270   5.571   2.603
12801TIP3   OH238343   1.718   2.704   4.761
12801TIP3    H138344   1.629   2.737   4.776
12801TIP3    H238345   1.752   2.687   4.849
12802TIP3   OH238346   6.353   1.405   1.040
12802TIP3    H138347   6.443   1.386   1.015
12802TIP3    H238348   6.300   1.352   0.980
12803TIP3   OH238349   0.363   3.364   3.683
12803TIP3    H138350   0.311   3.327   3.611
12803TIP3    H238351   0.299   3.408   3.739
12804TIP3   OH238352   5.383   5.628   0.106
12804TIP3    H138353   5.451   5.674   0.155
12804TIP3    H238354   5.379   5.672   0.021
12805TIP3   OH238355   2.048   5.022   3.908
12805TIP3    H138356   2.058   4.940   3.860
12805TIP3    H238357   2.081   5.003   3.996
12806TIP3   OH238358   4.627   5.168   1.759
12806TIP3    H138359   4.616   5.216   1.677
12806TIP3    H238360   4.656   5.081   1.732
12807TIP3   OH238361   5.800   4.434   0.611
12807TIP3    H138362   5.854   4.469   0.682
12807TIP3    H238363   5.805   4.500   0.542
12808TIP3   OH238364   3.906   0.353   0.331
12808TIP3    H138365   3.883   0.397   0.413
12808TIP3    H238366   3.995   0.383   0.312
12809TIP3   OH238367   7.018   2.995   4.196
12809TIP3    H138368   7.066   3.038   4.126
12809TIP3    H238369   6.928   3.027   4.187
12810TIP3   OH238370   6.026   5.686   3.183
12810TIP3    H138371   6.083   5.689   3.107
12810TIP3    H238372   6.085   5.668   3.256
12811TIP3   OH238373   6.945   0.668   1.835
12811TIP3    H138374   6.957   0.755   1.797
12811TIP3    H238375   6.997   0.670   1.916
12812TIP3   OH238376   7.636   1.812   4.339
12812TIP3    H138377   7.543   1.789   4.347
12812TIP3    H238378   7.678   1.771   4.415
12813TIP3   OH238379   6.479   7.787   0.889
12813TIP3    H138380   6.479   7.697   0.920
12813TIP3    H238381   6.389   7.801   0.857
12814TIP3   OH238382   7.070   7.844   1.633
12814TIP3    H138383   7.142   7.899   1.665
12814TIP3    H238384   7.026   7.899   1.568
12815TIP3   OH238385   8.122   6.074   3.607
12815TIP3    H138386   8.044   6.057   3.660
12815TIP3    H238387   8.096   6.143   3.547
12816TIP3   OH238388   1.416   1.194   3.291
12816TIP3    H138389   1.321   1.206   3.292
12816TIP3    H238390   1.436   1.171   3.201
12817TIP3   OH238391   4.193   0.695   4.511
12817TIP3    H138392   4.169   0.602   4.509
12817TIP3    H238393   4.274   0.700   4.461
12818TIP3   OH238394   8.054   0.117   0.789
12818TIP3    H138395   8.042   0.112   0.884
12818TIP3    H238396   7.988   0.057   0.754
12819TIP3   OH238397   1.882   3.837   3.946
12819TIP3    H138398   1.830   3.839   3.865
12819TIP3    H238399   1.874   3.746   3.977
12820TIP3   OH238400   6.386   3.448   3.682
12820TIP3    H138401   6.339   3.519   3.724
12820TIP3    H238402   6.473   3.450   3.722
12821TIP3   OH238403   5.716   5.187   2.270
12821TIP3    H138404   5.732   5.247   2.197
12821TIP3    H238405   5.624   5.202   2.294
12822TIP3   OH238406   0.143   5.912   0.454
12822TIP3    H138407   0.171   5.999   0.426
12822TIP3    H238408   0.052   5.922   0.479
12823TIP3   OH238409   8.008   4.935   4.098
12823TIP3    H138410   7.978   4.904   4.012
12823TIP3    H238411   8.095   4.972   4.081
12824TIP3   OH238412   7.506   2.562   4.216
12824TIP3    H138413   7.456   2.558   4.134
12824TIP3    H238414   7.483   2.482   4.262
12825TIP3   OH238415   3.050   1.871   0.146
12825TIP3    H138416   2.956   1.855   0.140
12825TIP3    H238417   3.085   1.796   0.194
12826TIP3   OH238418   6.691   6.492   5.789
12826TIP3    H138419   6.674   6.528   5.702
12826TIP3    H238420   6.609   6.449   5.813
12827TIP3   OH238421   5.852   0.955   5.685
12827TIP3    H138422   5.820   0.865   5.687
12827TIP3    H238423   5.941   0.947   5.652
12828TIP3   OH238424   4.240   3.564   4.028
12828TIP3    H138425   4.265   3.621   4.100
12828TIP3    H238426   4.299   3.590   3.956
12829TIP3   OH238427   5.523   1.286   0.655
12829TIP3    H138428   5.562   1.366   0.692
12829TIP3    H238429   5.435   1.283   0.693
12830TIP3   OH238430   3.733   3.552   3.247
12830TIP3    H138431   3.765   3.574   3.160
12830TIP3    H238432   3.702   3.462   3.239
12831TIP3   OH238433   7.306   3.166   3.687
12831TIP3    H138434   7.250   3.106   3.736
12831TIP3    H238435   7.349   3.218   3.753
12832TIP3   OH238436   1.245   1.227   0.554
12832TIP3    H138437   1.236   1.190   0.466
12832TIP3    H238438   1.339   1.228   0.570
12833TIP3   OH238439   6.375   1.848   1.761
12833TIP3    H138440   6.297   1.840   1.707
12833TIP3    H238441   6.419   1.927   1.729
12834TIP3   OH238442   5.294   1.011   1.433
12834TIP3    H138443   5.288   0.957   1.354
12834TIP3    H238444   5.386   1.037   1.437
12835TIP3   OH238445   8.180   3.369   0.046
12835TIP3    H138446   8.217   3.383  -0.041
12835TIP3    H238447   8.161   3.458   0.078
12836TIP3   OH238448   3.248   2.012   6.174
12836TIP3    H138449   3.219   2.015   6.265
12836TIP3    H238450   3.260   1.919   6.155
12837TIP3   OH238451   5.963   3.507   2.874
12837TIP3    H138452   5.991   3.457   2.951
12837TIP3    H238453   6.019   3.475   2.803
12838TIP3   OH238454   7.163   1.930   1.410
12838TIP3    H138455   7.246   1.947   1.454
12838TIP3    H238456   7.106   2.002   1.438
12839TIP3   OH238457   7.996   6.640   5.082
12839TIP3    H138458   7.952   6.561   5.051
12839TIP3    H238459   8.038   6.677   5.004
12840TIP3   OH238460   3.145   2.456   6.155
12840TIP3    H138461   3.167   2.365   6.137
12840TIP3    H238462   3.086   2.452   6.231
12841TIP3   OH238463   5.130   4.526   0.570
12841TIP3    H138464   5.121   4.599   0.509
12841TIP3    H238465   5.070   4.459   0.536
12842TIP3   OH238466   2.248   7.843   5.511
12842TIP3    H138467   2.326   7.810   5.465
12842TIP3    H238468   2.177   7.786   5.480
12843TIP3   OH238469   0.261   4.735   3.656
12843TIP3    H138470   0.184   4.678   3.645
12843TIP3    H238471   0.225   4.823   3.653
12844TIP3   OH238472   6.917   0.658   3.754
12844TIP3    H138473   6.863   0.730   3.720
12844TIP3    H238474   6.855   0.586   3.766
12845TIP3   OH238475   7.274   4.102   6.219
12845TIP3    H138476   7.351   4.150   6.248
12845TIP3    H238477   7.224   4.087   6.299
12846TIP3   OH238478   0.858   0.315   0.480
12846TIP3    H138479   0.921   0.386   0.462
12846TIP3    H238480   0.909   0.235   0.470
12847TIP3   OH238481   0.484   3.031   3.188
12847TIP3    H138482   0.559   2.977   3.164
12847TIP3    H238483   0.413   2.969   3.202
12848TIP3   OH238484   3.037   6.433   5.168
12848TIP3    H138485   3.033   6.418   5.262
12848TIP3    H238486   3.022   6.346   5.129
12849TIP3   OH238487   3.431   5.495   0.513
12849TIP3    H138488   3.485   5.574   0.521
12849TIP3    H238489   3.457   5.441   0.588
12850TIP3   OH238490   6.411   7.181   3.330
12850TIP3    H138491   6.455   7.132   3.261
12850TIP3    H238492   6.319   7.182   3.305
12851TIP3   OH238493   5.598   0.115   6.638
12851TIP3    H138494   5.526   0.074   6.687
12851TIP3    H238495   5.560   0.136   6.553
12852TIP3   OH238496   8.309   6.502   5.168
12852TIP3    H138497   8.292   6.592   5.142
12852TIP3    H238498   8.249   6.449   5.116
12853TIP3   OH238499   7.358   0.919   0.118
12853TIP3    H138500   7.285   0.874   0.162
12853TIP3    H238501   7.436   0.876   0.151
12854TIP3   OH238502   4.817   7.023   4.411
12854TIP3    H138503   4.864   7.062   4.337
12854TIP3    H238504   4.843   7.076   4.486
12855TIP3   OH238505   6.458   4.317   4.504
12855TIP3    H138506   6.375   4.361   4.522
12855TIP3    H238507   6.450   4.287   4.413
12856TIP3   OH238508   6.505   6.005   2.328
12856TIP3    H138509   6.564   6.067   2.370
12856TIP3    H238510   6.503   5.929   2.387
12857TIP3   OH238511   0.493   0.518   0.016
12857TIP3    H138512   0.461   0.527   0.106
12857TIP3    H238513   0.569   0.459   0.024
12858TIP3   OH238514   2.090   5.197   4.251
12858TIP3    H138515   2.054   5.109   4.242
12858TIP3    H238516   2.071   5.239   4.167
12859TIP3   OH238517   7.607   7.415   4.009
12859TIP3    H138518   7.670   7.460   4.064
12859TIP3    H238519   7.523   7.458   4.028
12860TIP3   OH238520   5.824   7.266   3.112
12860TIP3    H138521   5.801   7.337   3.052
12860TIP3    H238522   5.887   7.213   3.063
12861TIP3   OH238523   4.962   6.691   5.681
12861TIP3    H138524   4.997   6.608   5.648
12861TIP3    H238525   4.998   6.757   5.622
12862TIP3   OH238526   8.115   2.855   5.142
12862TIP3    H138527   8.115   2.778   5.084
12862TIP3    H238528   8.024   2.883   5.144
12863TIP3   OH238529   5.745   7.534   2.476
12863TIP3    H138530   5.797   7.542   2.396
12863TIP3    H238531   5.655   7.523   2.445
12864TIP3   OH238532   3.556   3.855   1.398
12864TIP3    H138533   3.648   3.830   1.412
12864TIP3    H238534   3.506   3.790   1.448
12865TIP3   OH238535   6.901   0.162   4.043
12865TIP3    H138536   6.871   0.183   3.954
12865TIP3    H238537   6.833   0.198   4.100
12866TIP3   OH238538   7.817   0.215   6.709
12866TIP3    H138539   7.806   0.120   6.720
12866TIP3    H238540   7.809   0.249   6.798
12867TIP3   OH238541   3.656   1.587   4.237
12867TIP3    H138542   3.725   1.530   4.269
12867TIP3    H238543   3.699   1.642   4.171
12868TIP3   OH238544   1.415   5.576   1.190
12868TIP3    H138545   1.510   5.586   1.188
12868TIP3    H238546   1.402   5.484   1.214
12869TIP3   OH238547   8.424   3.446   2.112
12869TIP3    H138548   8.366   3.513   2.076
12869TIP3    H238549   8.372   3.404   2.181
12870TIP3   OH238550   5.425   5.946   5.480
12870TIP3    H138551   5.519   5.945   5.465
12870TIP3    H238552   5.395   6.027   5.439
12871TIP3   OH238553   2.766   7.806   3.514
12871TIP3    H138554   2.778   7.712   3.507
12871TIP3    H238555   2.759   7.822   3.608
12872TIP3   OH238556   5.091   0.038   6.151
12872TIP3    H138557   5.004   0.055   6.189
12872TIP3    H238558   5.075   0.030   6.057
12873TIP3   OH238559   8.222   4.073   4.863
12873TIP3    H138560   8.236   4.077   4.769
12873TIP3    H238561   8.133   4.108   4.876
12874TIP3   OH238562   5.197   7.378   0.449
12874TIP3    H138563   5.169   7.296   0.489
12874TIP3    H238564   5.268   7.410   0.506
12875TIP3   OH238565   6.170   0.199   5.675
12875TIP3    H138566   6.115   0.252   5.617
12875TIP3    H238567   6.154   0.235   5.762
12876TIP3   OH238568   2.999   3.428   5.524
12876TIP3    H138569   3.086   3.387   5.525
12876TIP3    H238570   3.000   3.483   5.445
12877TIP3   OH238571   0.935   6.519   5.579
12877TIP3    H138572   0.840   6.514   5.564
12877TIP3    H238573   0.943   6.542   5.672
12878TIP3   OH238574   2.067   5.218   5.711
12878TIP3    H138575   2.109   5.183   5.790
12878TIP3    H238576   2.137   5.220   5.646
12879TIP3   OH238577   6.482   4.815   3.947
12879TIP3    H138578   6.551   4.791   4.008
12879TIP3    H238579   6.420   4.742   3.950
12880TIP3   OH238580   8.056   5.412   1.974
12880TIP3    H138581   8.134   5.468   1.975
12880TIP3    H238582   8.056   5.373   1.886
12881TIP3   OH238583   1.412   7.797   0.793
12881TIP3    H138584   1.492   7.803   0.741
12881TIP3    H238585   1.364   7.724   0.754
12882TIP3   OH238586   7.394   1.135   1.535
12882TIP3    H138587   7.317   1.193   1.536
12882TIP3    H238588   7.419   1.129   1.443
12883TIP3   OH238589   1.423   0.040   3.736
12883TIP3    H138590   1.477   0.118   3.728
12883TIP3    H238591   1.485  -0.033   3.731
12884TIP3   OH238592   5.681   2.516   4.308
12884TIP3    H138593   5.678   2.421   4.294
12884TIP3    H238594   5.711   2.525   4.399
12885TIP3   OH238595   1.454   7.312   1.033
12885TIP3    H138596   1.430   7.245   0.968
12885TIP3    H238597   1.479   7.262   1.110
12886TIP3   OH238598   2.550   1.366   3.189
12886TIP3    H138599   2.557   1.441   3.248
12886TIP3    H238600   2.638   1.330   3.185
12887TIP3   OH238601   7.467   4.371   6.171
12887TIP3    H138602   7.489   4.391   6.080
12887TIP3    H238603   7.543   4.323   6.204
12888TIP3   OH238604   1.414   3.452   5.955
12888TIP3    H138605   1.476   3.492   6.016
12888TIP3    H238606   1.468   3.409   5.890
12889TIP3   OH238607   0.193   3.194   4.667
12889TIP3    H138608   0.156   3.202   4.755
12889TIP3    H238609   0.118   3.205   4.608
12890TIP3   OH238610   5.998   1.749   1.070
12890TIP3    H138611   6.089   1.732   1.045
12890TIP3    H238612   5.991   1.844   1.072
12891TIP3   OH238613   4.903   1.459   5.192
12891TIP3    H138614   4.825   1.405   5.199
12891TIP3    H238615   4.948   1.426   5.114
12892TIP3   OH238616   0.080   3.145   5.273
12892TIP3    H138617   0.078   3.082   5.345
12892TIP3    H238618   0.069   3.092   5.194
12893TIP3   OH238619   4.089   7.093   5.352
12893TIP3    H138620   4.168   7.136   5.318
12893TIP3    H238621   4.062   7.034   5.281
12894TIP3   OH238622   3.389   3.668   1.152
12894TIP3    H138623   3.420   3.580   1.173
12894TIP3    H238624   3.464   3.724   1.170
12895TIP3   OH238625   0.920   7.022   4.482
12895TIP3    H138626   0.959   7.049   4.399
12895TIP3    H238627   0.837   6.981   4.458
12896TIP3   OH238628   6.915   4.134   4.433
12896TIP3    H138629   6.847   4.199   4.448
12896TIP3    H238630   6.945   4.150   4.344
12897TIP3   OH238631   4.103   2.072   4.096
12897TIP3    H138632   4.074   2.155   4.132
12897TIP3    H238633   4.115   2.089   4.002
12898TIP3   OH238634   3.210   3.996   2.326
12898TIP3    H138635   3.140   3.965   2.269
12898TIP3    H238636   3.285   4.009   2.268
12899TIP3   OH238637   8.318   0.215   0.794
12899TIP3    H138638   8.241   0.158   0.797
12899TIP3    H238639   8.284   0.299   0.764
12900TIP3   OH238640   1.122   6.428   0.648
12900TIP3    H138641   1.071   6.364   0.599
12900TIP3    H238642   1.213   6.406   0.629
12901TIP3   OH238643   0.481   5.171   4.051
12901TIP3    H138644   0.471   5.256   4.008
12901TIP3    H238645   0.395   5.130   4.043
12902TIP3   OH238646   2.281   5.583   4.524
12902TIP3    H138647   2.356   5.540   4.565
12902TIP3    H238648   2.306   5.593   4.432
12903TIP3   OH238649   4.632   7.577   4.807
12903TIP3    H138650   4.573   7.520   4.758
12903TIP3    H238651   4.622   7.549   4.898
12904TIP3   OH238652   4.121   6.027   4.105
12904TIP3    H138653   4.063   6.065   4.171
12904TIP3    H238654   4.152   6.101   4.054
12905TIP3   OH238655   7.164   4.163   2.815
12905TIP3    H138656   7.117   4.244   2.795
12905TIP3    H238657   7.249   4.174   2.773
12906TIP3   OH238658   8.302   0.096   3.986
12906TIP3    H138659   8.361   0.167   3.959
12906TIP3    H238660   8.350   0.016   3.964
12907TIP3   OH238661   3.098   2.863   2.680
12907TIP3    H138662   3.192   2.850   2.676
12907TIP3    H238663   3.070   2.862   2.588
12908TIP3   OH238664   1.337   3.525   3.895
12908TIP3    H138665   1.412   3.585   3.892
12908TIP3    H238666   1.263   3.580   3.921
12909TIP3   OH238667   5.519   5.159   4.235
12909TIP3    H138668   5.592   5.101   4.257
12909TIP3    H238669   5.554   5.218   4.169
12910TIP3   OH238670   0.880   7.736   5.346
12910TIP3    H138671   0.956   7.794   5.354
12910TIP3    H238672   0.894   7.690   5.263
12911TIP3   OH238673   0.645   2.309   6.711
12911TIP3    H138674   0.656   2.371   6.783
12911TIP3    H238675   0.731   2.268   6.702
12912TIP3   OH238676   7.166   0.380   5.543
12912TIP3    H138677   7.217   0.384   5.462
12912TIP3    H238678   7.222   0.421   5.609
12913TIP3   OH238679   0.149   6.198   5.713
12913TIP3    H138680   0.187   6.284   5.694
12913TIP3    H238681   0.068   6.218   5.759
12914TIP3   OH238682   5.788   6.463   6.800
12914TIP3    H138683   5.697   6.434   6.792
12914TIP3    H238684   5.835   6.386   6.832
12915TIP3   OH238685   1.082   5.083   5.977
12915TIP3    H138686   1.001   5.067   6.025
12915TIP3    H238687   1.138   5.008   6.000
12916TIP3   OH238688   6.285   4.740   1.465
12916TIP3    H138689   6.285   4.767   1.373
12916TIP3    H238690   6.201   4.695   1.477
12917TIP3   OH238691   5.420   2.777   5.531
12917TIP3    H138692   5.439   2.697   5.484
12917TIP3    H238693   5.327   2.795   5.513
12918TIP3   OH238694   4.061   7.752   0.117
12918TIP3    H138695   4.071   7.844   0.092
12918TIP3    H238696   4.028   7.755   0.207
12919TIP3   OH238697   3.257   0.860   1.390
12919TIP3    H138698   3.261   0.791   1.324
12919TIP3    H238699   3.163   0.874   1.404
12920TIP3   OH238700   7.484   7.441   3.411
12920TIP3    H138701   7.555   7.501   3.387
12920TIP3    H238702   7.468   7.460   3.503
12921TIP3   OH238703   0.163   7.547   0.306
12921TIP3    H138704   0.190   7.457   0.325
12921TIP3    H238705   0.159   7.590   0.391
12922TIP3   OH238706   7.992   1.682   4.418
12922TIP3    H138707   7.988   1.762   4.365
12922TIP3    H238708   8.077   1.686   4.462
12923TIP3   OH238709   1.163   6.551   4.779
12923TIP3    H138710   1.072   6.582   4.774
12923TIP3    H238711   1.155   6.463   4.817
12924TIP3   OH238712   4.491   3.931   3.409
12924TIP3    H138713   4.522   3.869   3.343
12924TIP3    H238714   4.396   3.935   3.397
12925TIP3   OH238715   0.762   7.238   1.925
12925TIP3    H138716   0.858   7.244   1.923
12925TIP3    H238717   0.740   7.181   1.852
12926TIP3   OH238718   1.539   3.977   2.763
12926TIP3    H138719   1.591   3.926   2.702
12926TIP3    H238720   1.527   4.061   2.718
12927TIP3   OH238721   2.060   1.729   0.254
12927TIP3    H138722   1.978   1.719   0.206
12927TIP3    H238723   2.089   1.818   0.235
12928TIP3   OH238724   4.436   5.881   3.332
12928TIP3    H138725   4.379   5.805   3.345
12928TIP3    H238726   4.448   5.917   3.421
12929TIP3   OH238727   3.211   7.191   3.668
12929TIP3    H138728   3.117   7.175   3.676
12929TIP3    H238729   3.236   7.146   3.587
12930TIP3   OH238730   5.321   5.465   6.569
12930TIP3    H138731   5.245   5.435   6.518
12930TIP3    H238732   5.332   5.399   6.636
12931TIP3   OH238733   7.767   3.758   2.378
12931TIP3    H138734   7.733   3.687   2.323
12931TIP3    H238735   7.718   3.750   2.460
12932TIP3   OH238736   4.704   1.364   6.760
12932TIP3    H138737   4.783   1.410   6.790
12932TIP3    H238738   4.733   1.274   6.744
12933TIP3   OH238739   3.257   4.191   1.674
12933TIP3    H138740   3.264   4.275   1.720
12933TIP3    H238741   3.243   4.215   1.582
12934TIP3   OH238742   1.972   3.410   4.531
12934TIP3    H138743   2.057   3.367   4.521
12934TIP3    H238744   1.916   3.367   4.467
12935TIP3   OH238745   3.017   4.755   2.284
12935TIP3    H138746   3.034   4.841   2.323
12935TIP3    H238747   2.926   4.758   2.257
12936TIP3   OH238748   2.824   3.439   4.989
12936TIP3    H138749   2.779   3.363   4.951
12936TIP3    H238750   2.802   3.436   5.082
12937TIP3   OH238751   6.781   6.203   2.172
12937TIP3    H138752   6.727   6.215   2.094
12937TIP3    H238753   6.772   6.110   2.194
12938TIP3   OH238754   0.164   7.199   4.697
12938TIP3    H138755   0.239   7.197   4.756
12938TIP3    H238756   0.166   7.114   4.653
12939TIP3   OH238757   1.112   0.540   6.432
12939TIP3    H138758   1.176   0.597   6.390
12939TIP3    H238759   1.064   0.501   6.359
12940TIP3   OH238760   2.457   5.790   4.312
12940TIP3    H138761   2.498   5.809   4.396
12940TIP3    H238762   2.422   5.874   4.283
12941TIP3   OH238763   5.452   7.865   3.245
12941TIP3    H138764   5.376   7.823   3.285
12941TIP3    H238765   5.430   7.874   3.153
12942TIP3   OH238766   8.361   3.546   5.509
12942TIP3    H138767   8.424   3.579   5.573
12942TIP3    H238768   8.336   3.623   5.458
12943TIP3   OH238769   2.437   7.116   0.390
12943TIP3    H138770   2.511   7.169   0.363
12943TIP3    H238771   2.418   7.059   0.316
12944TIP3   OH238772   4.219   5.983   3.169
12944TIP3    H138773   4.129   5.955   3.186
12944TIP3    H238774   4.268   5.956   3.247
12945TIP3   OH238775   6.223   4.411   4.533
12945TIP3    H138776   6.160   4.409   4.461
12945TIP3    H238777   6.190   4.480   4.591
12946TIP3   OH238778   3.929   5.173   1.647
12946TIP3    H138779   3.945   5.080   1.667
12946TIP3    H238780   3.919   5.214   1.733
12947TIP3   OH238781   7.994   1.238   2.453
12947TIP3    H138782   7.981   1.181   2.378
12947TIP3    H238783   8.041   1.184   2.516
12948TIP3   OH238784   5.304   2.979   0.191
12948TIP3    H138785   5.358   2.899   0.187
12948TIP3    H238786   5.273   2.991   0.102
12949TIP3   OH238787   1.094   1.414   4.684
12949TIP3    H138788   1.098   1.488   4.745
12949TIP3    H238789   1.158   1.436   4.616
12950TIP3   OH238790   2.038   5.640   2.650
12950TIP3    H138791   1.981   5.607   2.719
12950TIP3    H238792   1.983   5.699   2.599
12951TIP3   OH238793   4.215   2.816   6.076
12951TIP3    H138794   4.148   2.861   6.127
12951TIP3    H238795   4.253   2.752   6.136
12952TIP3   OH238796   1.160   6.016   2.667
12952TIP3    H138797   1.132   6.023   2.576
12952TIP3    H238798   1.150   6.104   2.702
12953TIP3   OH238799   5.241   2.057   5.709
12953TIP3    H138800   5.168   2.012   5.751
12953TIP3    H238801   5.211   2.074   5.620
12954TIP3   OH238802   1.430   0.047   1.381
12954TIP3    H138803   1.431   0.143   1.379
12954TIP3    H238804   1.512   0.021   1.339
12955TIP3   OH238805   6.798   7.807   2.171
12955TIP3    H138806   6.740   7.883   2.180
12955TIP3    H238807   6.873   7.840   2.122
12956TIP3   OH238808   0.286   6.603   3.063
12956TIP3    H138809   0.205   6.635   3.101
12956TIP3    H238810   0.340   6.682   3.051
12957TIP3   OH238811   7.549   4.844   4.608
12957TIP3    H138812   7.463   4.809   4.585
12957TIP3    H238813   7.532   4.934   4.633
12958TIP3   OH238814   5.211   2.650   3.947
12958TIP3    H138815   5.198   2.666   3.853
12958TIP3    H238816   5.303   2.623   3.955
12959TIP3   OH238817   3.494   7.332   4.250
12959TIP3    H138818   3.448   7.401   4.202
12959TIP3    H238819   3.506   7.262   4.185
12960TIP3   OH238820   5.357   0.188   0.991
12960TIP3    H138821   5.281   0.190   0.933
12960TIP3    H238822   5.348   0.267   1.045
12961TIP3   OH238823   4.798   2.708   3.237
12961TIP3    H138824   4.755   2.790   3.262
12961TIP3    H238825   4.864   2.694   3.306
12962TIP3   OH238826   6.371   3.130   3.250
12962TIP3    H138827   6.333   3.217   3.256
12962TIP3    H238828   6.386   3.104   3.341
12963TIP3   OH238829   7.679   0.816   5.005
12963TIP3    H138830   7.639   0.730   5.017
12963TIP3    H238831   7.609   0.878   5.026
12964TIP3   OH238832   4.022   2.323   2.332
12964TIP3    H138833   3.946   2.275   2.363
12964TIP3    H238834   3.987   2.384   2.267
12965TIP3   OH238835   7.796   1.354   2.194
12965TIP3    H138836   7.789   1.259   2.185
12965TIP3    H238837   7.890   1.370   2.205
12966TIP3   OH238838   7.624   4.931   2.307
12966TIP3    H138839   7.589   4.966   2.390
12966TIP3    H238840   7.717   4.952   2.310
12967TIP3   OH238841   5.185   7.231   6.643
12967TIP3    H138842   5.154   7.145   6.617
12967TIP3    H238843   5.256   7.214   6.706
12968TIP3   OH238844   5.618   0.339   5.478
12968TIP3    H138845   5.590   0.254   5.444
12968TIP3    H238846   5.537   0.390   5.486
12969TIP3   OH238847   0.140   1.423   4.815
12969TIP3    H138848   0.182   1.359   4.757
12969TIP3    H238849   0.140   1.504   4.764
12970TIP3   OH238850   8.158   7.661   3.909
12970TIP3    H138851   8.127   7.644   3.998
12970TIP3    H238852   8.229   7.598   3.895
12971TIP3   OH238853   0.358   3.503   4.571
12971TIP3    H138854   0.283   3.467   4.524
12971TIP3    H238855   0.349   3.467   4.660
12972TIP3   OH238856   3.740   4.253   2.578
12972TIP3    H138857   3.832   4.280   2.577
12972TIP3    H238858   3.691   4.335   2.575
12973TIP3   OH238859   5.262   6.959   5.291
12973TIP3    H138860   5.357   6.947   5.299
12973TIP3    H238861   5.228   6.871   5.276
12974TIP3   OH238862   5.354   5.767   3.919
12974TIP3    H138863   5.412   5.737   3.848
12974TIP3    H238864   5.266   5.756   3.884
12975TIP3   OH238865  -0.007   4.141   1.141
12975TIP3    H138866   0.087   4.125   1.141
12975TIP3    H238867  -0.020   4.202   1.069
12976TIP3   OH238868   1.790   3.395   5.121
12976TIP3    H138869   1.755   3.340   5.051
12976TIP3    H238870   1.884   3.376   5.122
12977TIP3   OH238871   5.310   0.882   4.218
12977TIP3    H138872   5.258   0.824   4.163
12977TIP3    H238873   5.399   0.846   4.213
12978TIP3   OH238874   5.114   5.606   1.377
12978TIP3    H138875   5.057   5.648   1.312
12978TIP3    H238876   5.106   5.660   1.455
12979TIP3   OH238877   0.922   7.123   6.796
12979TIP3    H138878   0.957   7.180   6.727
12979TIP3    H238879   0.835   7.157   6.814
12980TIP3   OH238880   7.377   4.340   0.531
12980TIP3    H138881   7.307   4.315   0.470
12980TIP3    H238882   7.411   4.256   0.563
12981TIP3   OH238883   2.063   0.448   6.295
12981TIP3    H138884   2.056   0.429   6.388
12981TIP3    H238885   1.988   0.504   6.276
12982TIP3   OH238886   4.024   6.169   4.628
12982TIP3    H138887   4.054   6.252   4.666
12982TIP3    H238888   3.947   6.145   4.680
12983TIP3   OH238889   1.548   6.858   2.199
12983TIP3    H138890   1.566   6.871   2.106
12983TIP3    H238891   1.453   6.867   2.207
12984TIP3   OH238892   6.505   5.988   3.046
12984TIP3    H138893   6.572   5.999   3.112
12984TIP3    H238894   6.432   6.042   3.076
12985TIP3   OH238895   0.608   4.211   3.176
12985TIP3    H138896   0.632   4.119   3.188
12985TIP3    H238897   0.512   4.211   3.179
12986TIP3   OH238898   7.019   2.038   4.060
12986TIP3    H138899   7.034   2.013   3.969
12986TIP3    H238900   7.042   2.130   4.064
12987TIP3   OH238901   5.631   7.227   1.791
12987TIP3    H138902   5.686   7.235   1.713
12987TIP3    H238903   5.555   7.282   1.772
12988TIP3   OH238904   4.044   1.029   0.089
12988TIP3    H138905   3.952   1.049   0.069
12988TIP3    H238906   4.065   1.085   0.164
12989TIP3   OH238907   7.046   0.825   6.606
12989TIP3    H138908   7.002   0.839   6.522
12989TIP3    H238909   7.105   0.752   6.590
12990TIP3   OH238910   5.961   6.296   6.304
12990TIP3    H138911   5.981   6.203   6.315
12990TIP3    H238912   5.900   6.299   6.230
12991TIP3   OH238913   5.670   2.000   4.511
12991TIP3    H138914   5.655   1.941   4.437
12991TIP3    H238915   5.765   1.999   4.523
12992TIP3   OH238916   8.241   3.205   3.442
12992TIP3    H138917   8.164   3.153   3.465
12992TIP3    H238918   8.278   3.231   3.526
12993TIP3   OH238919   0.530   6.017   0.874
12993TIP3    H138920   0.582   6.008   0.794
12993TIP3    H238921   0.465   5.946   0.869
12994TIP3   OH238922   4.660   6.023   3.017
12994TIP3    H138923   4.586   5.990   2.966
12994TIP3    H238924   4.650   6.118   3.015
12995TIP3   OH238925   4.777   3.141   2.390
12995TIP3    H138926   4.807   3.050   2.391
12995TIP3    H238927   4.683   3.135   2.372
12996TIP3   OH238928   0.710   4.104   4.168
12996TIP3    H138929   0.665   4.167   4.224
12996TIP3    H238930   0.741   4.156   4.094
12997TIP3   OH238931   7.779   0.996   1.860
12997TIP3    H138932   7.700   1.037   1.824
12997TIP3    H238933   7.793   1.040   1.944
12998TIP3   OH238934   6.105   5.741   0.604
12998TIP3    H138935   6.179   5.734   0.544
12998TIP3    H238936   6.144   5.768   0.687
12999TIP3   OH238937   4.875   5.624   6.348
12999TIP3    H138938   4.921   5.605   6.266
12999TIP3    H238939   4.929   5.689   6.392
13000TIP3   OH238940   4.845   4.610   6.113
13000TIP3    H138941   4.885   4.696   6.112
13000TIP3    H238942   4.765   4.620   6.061
13001TIP3   OH238943   0.427   7.634   5.449
13001TIP3    H138944   0.358   7.692   5.418
13001TIP3    H238945   0.509   7.677   5.423
13002TIP3   OH238946   2.392   3.396   1.464
13002TIP3    H138947   2.436   3.394   1.379
13002TIP3    H238948   2.303   3.424   1.444
13003TIP3   OH238949   4.855   5.464   5.833
13003TIP3    H138950   4.773   5.441   5.789
13003TIP3    H238951   4.828   5.497   5.919
13004TIP3   OH238952   7.003   1.109   4.557
13004TIP3    H138953   7.088   1.086   4.518
13004TIP3    H238954   6.976   1.187   4.509
13005TIP3   OH238955   7.557   4.188   4.270
13005TIP3    H138956   7.521   4.259   4.323
13005TIP3    H238957   7.556   4.222   4.181
13006TIP3   OH238958   6.604   0.949   1.806
13006TIP3    H138959   6.525   0.916   1.846
13006TIP3    H238960   6.593   0.932   1.712
13007TIP3   OH238961   6.700   4.883   1.886
13007TIP3    H138962   6.667   4.820   1.821
13007TIP3    H238963   6.715   4.963   1.836
13008TIP3   OH238964   2.678   7.354   1.681
13008TIP3    H138965   2.762   7.384   1.647
13008TIP3    H238966   2.613   7.410   1.639
13009TIP3   OH238967   0.833   2.832   5.691
13009TIP3    H138968   0.754   2.784   5.670
13009TIP3    H238969   0.804   2.922   5.706
13010TIP3   OH238970   2.490   1.758   0.601
13010TIP3    H138971   2.525   1.689   0.657
13010TIP3    H238972   2.396   1.754   0.613
13011TIP3   OH238973   5.521   1.519   2.826
13011TIP3    H138974   5.472   1.447   2.784
13011TIP3    H238975   5.583   1.548   2.759
13012TIP3   OH238976   2.968   0.619   0.691
13012TIP3    H138977   2.956   0.595   0.783
13012TIP3    H238978   2.960   0.714   0.689
13013TIP3   OH238979   6.735   7.092   2.413
13013TIP3    H138980   6.824   7.056   2.415
13013TIP3    H238981   6.737   7.157   2.343
13014TIP3   OH238982   7.745   1.759   5.873
13014TIP3    H138983   7.790   1.706   5.808
13014TIP3    H238984   7.728   1.699   5.946
13015TIP3   OH238985   0.837   2.925   4.244
13015TIP3    H138986   0.763   2.888   4.292
13015TIP3    H238987   0.807   3.013   4.219
13016TIP3   OH238988   0.748   1.989   1.105
13016TIP3    H138989   0.841   1.981   1.123
13016TIP3    H238990   0.742   1.993   1.009
13017TIP3   OH238991   5.951   6.678   0.069
13017TIP3    H138992   6.029   6.623   0.070
13017TIP3    H238993   5.899   6.646  -0.005
13018TIP3   OH238994   7.187   1.310   1.518
13018TIP3    H138995   7.211   1.397   1.484
13018TIP3    H238996   7.114   1.282   1.463
13019TIP3   OH238997   5.497   7.412  -0.015
13019TIP3    H138998   5.587   7.399   0.015
13019TIP3    H238999   5.445   7.350   0.036
13020TIP3   OH239000   4.262   5.536   3.156
13020TIP3    H139001   4.228   5.611   3.107
13020TIP3    H239002   4.285   5.472   3.089
13021TIP3   OH239003   0.214   4.035   2.258
13021TIP3    H139004   0.299   3.990   2.259
13021TIP3    H239005   0.151   3.964   2.248
13022TIP3   OH239006   2.607   0.252   2.349
13022TIP3    H139007   2.679   0.204   2.309
13022TIP3    H239008   2.633   0.262   2.441
13023TIP3   OH239009   4.093   1.109   1.495
13023TIP3    H139010   4.009   1.064   1.492
13023TIP3    H239011   4.072   1.197   1.526
13024TIP3   OH239012   0.136   1.634   5.954
13024TIP3    H139013   0.194   1.560   5.970
13024TIP3    H239014   0.153   1.693   6.027
13025TIP3   OH239015   2.758   5.233   0.259
13025TIP3    H139016   2.817   5.275   0.322
13025TIP3    H239017   2.812   5.164   0.220
13026TIP3   OH239018   1.572   3.289   5.773
13026TIP3    H139019   1.656   3.291   5.726
13026TIP3    H239020   1.589   3.236   5.850
13027TIP3   OH239021   1.900   5.337   2.605
13027TIP3    H139022   1.844   5.330   2.528
13027TIP3    H239023   1.874   5.419   2.647
13028TIP3   OH239024   6.351   6.707   4.916
13028TIP3    H139025   6.285   6.639   4.931
13028TIP3    H239026   6.301   6.782   4.883
13029TIP3   OH239027   4.403   3.018   5.469
13029TIP3    H139028   4.449   3.028   5.386
13029TIP3    H239029   4.426   3.096   5.519
13030TIP3   OH239030   1.177   6.310   4.503
13030TIP3    H139031   1.093   6.356   4.505
13030TIP3    H239032   1.234   6.363   4.558
13031TIP3   OH239033   6.650   1.829   4.969
13031TIP3    H139034   6.629   1.870   5.053
13031TIP3    H239035   6.727   1.776   4.986
13032TIP3   OH239036   8.049   2.580   3.318
13032TIP3    H139037   8.115   2.513   3.336
13032TIP3    H239038   8.021   2.611   3.404
13033TIP3   OH239039   1.169   6.908   0.812
13033TIP3    H139040   1.226   6.836   0.788
13033TIP3    H239041   1.080   6.874   0.800
13034TIP3   OH239042   0.961   0.726   0.125
13034TIP3    H139043   0.954   0.631   0.129
13034TIP3    H239044   0.975   0.745   0.032
13035TIP3   OH239045   4.251   4.563   3.455
13035TIP3    H139046   4.220   4.473   3.460
13035TIP3    H239047   4.300   4.566   3.372
13036TIP3   OH239048   4.497   6.087   0.539
13036TIP3    H139049   4.536   6.150   0.599
13036TIP3    H239050   4.481   6.137   0.458
13037TIP3   OH239051   3.211   7.858   2.690
13037TIP3    H139052   3.273   7.880   2.620
13037TIP3    H239053   3.210   7.763   2.693
13038TIP3   OH239054   8.240   0.245   3.305
13038TIP3    H139055   8.237   0.150   3.296
13038TIP3    H239056   8.166   0.266   3.362
13039TIP3   OH239057   6.649   2.436   2.777
13039TIP3    H139058   6.574   2.379   2.792
13039TIP3    H239059   6.677   2.463   2.864
13040TIP3   OH239060   7.446   7.836   2.443
13040TIP3    H139061   7.447   7.878   2.357
13040TIP3    H239062   7.389   7.760   2.432
13041TIP3   OH239063   6.313   3.986   4.473
13041TIP3    H139064   6.385   3.957   4.528
13041TIP3    H239065   6.263   4.047   4.527
13042TIP3   OH239066   5.998   5.737   6.041
13042TIP3    H139067   5.947   5.815   6.021
13042TIP3    H239068   6.066   5.735   5.974
13043TIP3   OH239069   1.386   6.494   4.608
13043TIP3    H139070   1.325   6.542   4.663
13043TIP3    H239071   1.406   6.554   4.536
13044TIP3   OH239072   1.422   3.407   4.394
13044TIP3    H139073   1.503   3.413   4.444
13044TIP3    H239074   1.443   3.349   4.321
13045TIP3   OH239075   4.007   3.564   3.378
13045TIP3    H139076   3.929   3.593   3.332
13045TIP3    H239077   4.062   3.525   3.309
13046TIP3   OH239078   3.514   6.816   6.520
13046TIP3    H139079   3.463   6.763   6.459
13046TIP3    H239080   3.535   6.757   6.592
13047TIP3   OH239081   0.899   6.924   1.934
13047TIP3    H139082   0.831   6.990   1.947
13047TIP3    H239083   0.937   6.944   1.849
13048TIP3   OH239084   6.111   0.822   5.162
13048TIP3    H139085   6.165   0.841   5.086
13048TIP3    H239086   6.096   0.728   5.158
13049TIP3   OH239087   6.078   2.017   5.381
13049TIP3    H139088   6.058   1.995   5.290
13049TIP3    H239089   6.043   1.944   5.432
13050TIP3   OH239090   0.595   3.901   4.570
13050TIP3    H139091   0.602   3.835   4.639
13050TIP3    H239092   0.505   3.894   4.539
13051TIP3   OH239093   0.864   7.200   1.268
13051TIP3    H139094   0.953   7.232   1.283
13051TIP3    H239095   0.809   7.279   1.275
13052TIP3   OH239096   5.612   3.320   5.521
13052TIP3    H139097   5.586   3.233   5.490
13052TIP3    H239098   5.705   3.311   5.539
13053TIP3   OH239099   1.742   0.421   4.631
13053TIP3    H139100   1.810   0.394   4.570
13053TIP3    H239101   1.660   0.394   4.590
13054TIP3   OH239102   1.373   1.226   6.274
13054TIP3    H139103   1.285   1.263   6.267
13054TIP3    H239104   1.414   1.275   6.345
13055TIP3   OH239105   4.316   4.607   5.326
13055TIP3    H139106   4.359   4.523   5.313
13055TIP3    H239107   4.223   4.586   5.336
13056TIP3   OH239108   6.580   4.091   2.127
13056TIP3    H139109   6.654   4.038   2.099
13056TIP3    H239110   6.533   4.112   2.046
13057TIP3   OH239111   3.024   1.888   2.850
13057TIP3    H139112   2.956   1.823   2.832
13057TIP3    H239113   3.019   1.902   2.945
13058TIP3   OH239114   4.095   3.772   4.826
13058TIP3    H139115   4.002   3.781   4.845
13058TIP3    H239116   4.101   3.779   4.731
13059TIP3   OH239117   2.714   4.541   0.105
13059TIP3    H139118   2.800   4.519   0.070
13059TIP3    H239119   2.659   4.551   0.027
13060TIP3   OH239120   4.086   6.205   5.803
13060TIP3    H139121   4.182   6.197   5.806
13060TIP3    H239122   4.060   6.153   5.728
13061TIP3   OH239123   3.805   0.934   5.903
13061TIP3    H139124   3.750   0.935   5.824
13061TIP3    H239125   3.886   0.892   5.875
13062TIP3   OH239126   0.323   3.824   1.284
13062TIP3    H139127   0.406   3.833   1.237
13062TIP3    H239128   0.323   3.734   1.316
13063TIP3   OH239129   4.120   4.362   2.322
13063TIP3    H139130   4.149   4.332   2.236
13063TIP3    H239131   4.135   4.287   2.379
13064TIP3   OH239132   6.837   3.362   5.128
13064TIP3    H139133   6.785   3.443   5.128
13064TIP3    H239134   6.880   3.361   5.214
13065TIP3   OH239135   4.153   7.275   4.233
13065TIP3    H139136   4.228   7.330   4.257
13065TIP3    H239137   4.106   7.327   4.168
13066TIP3   OH239138   7.602   3.500   0.046
13066TIP3    H139139   7.654   3.546   0.112
13066TIP3    H239140   7.666   3.444   0.001
13067TIP3   OH239141   4.150   1.763   5.905
13067TIP3    H139142   4.060   1.754   5.938
13067TIP3    H239143   4.176   1.674   5.882
13068TIP3   OH239144   7.144   7.026   3.242
13068TIP3    H139145   7.111   7.103   3.196
13068TIP3    H239146   7.208   7.060   3.304
13069TIP3   OH239147   5.843   4.917   3.760
13069TIP3    H139148   5.748   4.908   3.763
13069TIP3    H239149   5.876   4.846   3.815
13070TIP3   OH239150   3.858   3.306   5.208
13070TIP3    H139151   3.809   3.225   5.196
13070TIP3    H239152   3.903   3.320   5.125
13071TIP3   OH239153   7.368   3.656   1.721
13071TIP3    H139154   7.397   3.746   1.706
13071TIP3    H239155   7.305   3.639   1.651
13072TIP3   OH239156   0.595   3.004   4.580
13072TIP3    H139157   0.520   3.051   4.543
13072TIP3    H239158   0.617   2.939   4.514
13073TIP3   OH239159   1.427   4.906   4.099
13073TIP3    H139160   1.341   4.933   4.129
13073TIP3    H239161   1.456   4.841   4.163
13074TIP3   OH239162   5.695   3.813   3.704
13074TIP3    H139163   5.702   3.727   3.663
13074TIP3    H239164   5.685   3.794   3.797
13075TIP3   OH239165   7.070   0.183   4.877
13075TIP3    H139166   7.010   0.142   4.815
13075TIP3    H239167   7.013   0.219   4.945
13076TIP3   OH239168   0.655   4.679   5.237
13076TIP3    H139169   0.603   4.618   5.185
13076TIP3    H239170   0.594   4.751   5.257
13077TIP3   OH239171   1.160   5.215   6.535
13077TIP3    H139172   1.073   5.248   6.513
13077TIP3    H239173   1.218   5.290   6.523
13078TIP3   OH239174   4.249   5.743   5.354
13078TIP3    H139175   4.322   5.692   5.318
13078TIP3    H239176   4.284   5.831   5.363
13079TIP3   OH239177   5.353   7.053   5.647
13079TIP3    H139178   5.417   7.004   5.596
13079TIP3    H239179   5.404   7.093   5.717
13080TIP3   OH239180   6.222   1.309   1.870
13080TIP3    H139181   6.286   1.321   1.940
13080TIP3    H239182   6.153   1.372   1.889
13081TIP3   OH239183   6.331   0.045   5.817
13081TIP3    H139184   6.317  -0.048   5.803
13081TIP3    H239185   6.275   0.088   5.752
13082TIP3   OH239186   2.573   2.727   5.319
13082TIP3    H139187   2.656   2.680   5.323
13082TIP3    H239188   2.580   2.794   5.388
13083TIP3   OH239189   8.100   4.121   5.227
13083TIP3    H139190   8.187   4.155   5.206
13083TIP3    H239191   8.114   4.068   5.306
13084TIP3   OH239192   2.946   7.158   4.421
13084TIP3    H139193   2.875   7.174   4.483
13084TIP3    H239194   2.961   7.243   4.380
13085TIP3   OH239195   0.423   0.200   1.259
13085TIP3    H139196   0.433   0.112   1.296
13085TIP3    H239197   0.476   0.256   1.316
13086TIP3   OH239198   6.182   5.327   3.779
13086TIP3    H139199   6.174   5.234   3.757
13086TIP3    H239200   6.097   5.351   3.814
13087TIP3   OH239201   2.070   4.729   1.881
13087TIP3    H139202   2.096   4.638   1.871
13087TIP3    H239203   1.986   4.735   1.837
13088TIP3   OH239204   7.961   6.477   6.603
13088TIP3    H139205   7.885   6.520   6.640
13088TIP3    H239206   7.938   6.384   6.602
13089TIP3   OH239207   6.690   1.258   2.133
13089TIP3    H139208   6.760   1.271   2.069
13089TIP3    H239209   6.617   1.310   2.100
13090TIP3   OH239210   2.514   0.650   0.323
13090TIP3    H139211   2.472   0.731   0.294
13090TIP3    H239212   2.478   0.582   0.267
13091TIP3   OH239213   5.572   4.832   3.682
13091TIP3    H139214   5.563   4.840   3.587
13091TIP3    H239215   5.530   4.749   3.704
13092TIP3   OH239216   7.402   2.757   4.763
13092TIP3    H139217   7.377   2.724   4.677
13092TIP3    H239218   7.341   2.714   4.824
13093TIP3   OH239219   2.211   1.783   0.599
13093TIP3    H139220   2.136   1.840   0.614
13093TIP3    H239221   2.176   1.694   0.606
13094TIP3   OH239222   4.253   1.081   1.043
13094TIP3    H139223   4.346   1.063   1.030
13094TIP3    H239224   4.245   1.098   1.137
13095TIP3   OH239225   4.838   7.859   4.980
13095TIP3    H139226   4.758   7.840   4.929
13095TIP3    H239227   4.868   7.773   5.009
13096TIP3   OH239228   7.292   3.650   4.549
13096TIP3    H139229   7.307   3.718   4.483
13096TIP3    H239230   7.355   3.670   4.618
13097TIP3   OH239231   3.622   6.634   5.795
13097TIP3    H139232   3.608   6.600   5.706
13097TIP3    H239233   3.640   6.556   5.848
13098TIP3   OH239234   1.217   4.582   5.490
13098TIP3    H139235   1.124   4.598   5.503
13098TIP3    H239236   1.258   4.667   5.507
13099TIP3   OH239237   6.126   4.509   2.447
13099TIP3    H139238   6.201   4.456   2.417
13099TIP3    H239239   6.144   4.525   2.539
13100TIP3   OH239240   5.962   1.823   6.338
13100TIP3    H139241   5.875   1.841   6.302
13100TIP3    H239242   6.015   1.897   6.310
13101TIP3   OH239243   1.083   2.476   0.191
13101TIP3    H139244   1.001   2.519   0.169
13101TIP3    H239245   1.066   2.434   0.275
13102TIP3   OH239246   3.225   5.628   6.343
13102TIP3    H139247   3.173   5.705   6.362
13102TIP3    H239248   3.242   5.587   6.428
13103TIP3   OH239249   5.725   1.244   2.364
13103TIP3    H139250   5.810   1.200   2.375
13103TIP3    H239251   5.662   1.185   2.405
13104TIP3   OH239252   2.425   7.537   3.753
13104TIP3    H139253   2.514   7.500   3.752
13104TIP3    H239254   2.378   7.485   3.688
13105TIP3   OH239255   8.116   3.732   5.016
13105TIP3    H139256   8.052   3.802   5.001
13105TIP3    H239257   8.123   3.687   4.932
13106TIP3   OH239258   6.368   6.054   4.528
13106TIP3    H139259   6.328   6.140   4.513
13106TIP3    H239260   6.300   6.003   4.572
13107TIP3   OH239261   1.997   0.290   0.916
13107TIP3    H139262   2.076   0.281   0.862
13107TIP3    H239263   2.030   0.287   1.006
13108TIP3   OH239264   1.459   6.652   2.629
13108TIP3    H139265   1.492   6.564   2.651
13108TIP3    H239266   1.380   6.635   2.577
13109TIP3   OH239267   3.819   0.158   5.910
13109TIP3    H139268   3.743   0.174   5.967
13109TIP3    H239269   3.783   0.108   5.837
13110TIP3   OH239270   4.893   4.960   0.302
13110TIP3    H139271   4.932   4.890   0.249
13110TIP3    H239272   4.859   5.022   0.238
13111TIP3   OH239273   5.291   6.555   2.616
13111TIP3    H139274   5.364   6.558   2.554
13111TIP3    H239275   5.237   6.482   2.586
13112TIP3   OH239276   0.981   0.191   6.474
13112TIP3    H139277   0.907   0.192   6.414
13112TIP3    H239278   0.969   0.112   6.527
13113TIP3   OH239279   7.964   0.655   2.896
13113TIP3    H139280   7.909   0.633   2.971
13113TIP3    H239281   7.929   0.738   2.864
13114TIP3   OH239282   5.764   6.916   5.999
13114TIP3    H139283   5.833   6.903   5.935
13114TIP3    H239284   5.798   6.878   6.080
13115TIP3   OH239285   1.644   1.466   4.179
13115TIP3    H139286   1.705   1.416   4.233
13115TIP3    H239287   1.640   1.418   4.096
13116TIP3   OH239288   7.387   0.251   1.955
13116TIP3    H139289   7.481   0.255   1.937
13116TIP3    H239290   7.348   0.312   1.892
13117TIP3   OH239291   2.057   5.985   0.625
13117TIP3    H139292   2.021   5.897   0.624
13117TIP3    H239293   2.151   5.972   0.643
13118TIP3   OH239294   2.201   6.410   0.729
13118TIP3    H139295   2.130   6.355   0.763
13118TIP3    H239296   2.164   6.451   0.651
13119TIP3   OH239297   4.255   7.132   3.016
13119TIP3    H139298   4.297   7.138   3.101
13119TIP3    H239299   4.230   7.040   3.008
13120TIP3   OH239300   2.699   1.833   1.332
13120TIP3    H139301   2.735   1.759   1.381
13120TIP3    H239302   2.752   1.838   1.253
13121TIP3   OH239303   3.138   4.014   1.847
13121TIP3    H139304   3.189   4.067   1.786
13121TIP3    H239305   3.158   3.924   1.823
13122TIP3   OH239306   6.123   0.716   5.428
13122TIP3    H139307   6.117   0.789   5.490
13122TIP3    H239308   6.113   0.758   5.342
13123TIP3   OH239309   5.590   4.743   2.287
13123TIP3    H139310   5.498   4.767   2.279
13123TIP3    H239311   5.616   4.719   2.198
13124TIP3   OH239312   0.258   7.465   6.200
13124TIP3    H139313   0.173   7.496   6.170
13124TIP3    H239314   0.238   7.399   6.266
13125TIP3   OH239315   1.593   5.765   2.837
13125TIP3    H139316   1.499   5.785   2.836
13125TIP3    H239317   1.613   5.748   2.929
13126TIP3   OH239318   5.667   1.765   5.554
13126TIP3    H139319   5.687   1.767   5.460
13126TIP3    H239320   5.575   1.789   5.560
13127TIP3   OH239321   8.074   4.322   6.151
13127TIP3    H139322   8.082   4.386   6.222
13127TIP3    H239323   8.079   4.237   6.195
13128TIP3   OH239324   2.481   1.022   3.029
13128TIP3    H139325   2.413   0.961   2.999
13128TIP3    H239326   2.441   1.068   3.102
13129TIP3   OH239327   3.353   5.719   0.907
13129TIP3    H139328   3.434   5.696   0.861
13129TIP3    H239329   3.370   5.698   0.999
13130TIP3   OH239330   0.416   1.111   4.206
13130TIP3    H139331   0.429   1.133   4.114
13130TIP3    H239332   0.322   1.100   4.216
13131TIP3   OH239333   6.860   0.262   6.053
13131TIP3    H139334   6.923   0.244   5.983
13131TIP3    H239335   6.914   0.285   6.128
13132TIP3   OH239336   5.321   4.972   2.436
13132TIP3    H139337   5.262   4.969   2.512
13132TIP3    H239338   5.334   4.881   2.412
13133TIP3   OH239339   8.107   2.889   1.324
13133TIP3    H139340   8.176   2.938   1.279
13133TIP3    H239341   8.032   2.893   1.264
13134TIP3   OH239342   2.343   0.793   1.003
13134TIP3    H139343   2.305   0.820   1.087
13134TIP3    H239344   2.304   0.851   0.938
13135TIP3   OH239345   1.965   6.321   0.861
13135TIP3    H139346   1.903   6.375   0.812
13135TIP3    H239347   1.910   6.264   0.914
13136TIP3   OH239348   8.025   0.756   3.486
13136TIP3    H139349   8.105   0.704   3.490
13136TIP3    H239350   7.988   0.749   3.575
13137TIP3   OH239351   2.175   0.456   0.352
13137TIP3    H139352   2.250   0.435   0.409
13137TIP3    H239353   2.165   0.379   0.296
13138TIP3   OH239354   1.503   5.268   2.161
13138TIP3    H139355   1.493   5.274   2.256
13138TIP3    H239356   1.574   5.328   2.139
13139TIP3   OH239357   5.699   0.758   3.014
13139TIP3    H139358   5.655   0.826   3.065
13139TIP3    H239359   5.792   0.770   3.034
13140TIP3   OH239360   5.545   0.988   3.560
13140TIP3    H139361   5.496   0.939   3.626
13140TIP3    H239362   5.630   1.005   3.601
13141TIP3   OH239363   0.759   0.113   4.272
13141TIP3    H139364   0.683   0.102   4.329
13141TIP3    H239365   0.833   0.119   4.332
13142TIP3   OH239366   4.661   2.213   5.391
13142TIP3    H139367   4.686   2.299   5.357
13142TIP3    H239368   4.687   2.152   5.321
13143TIP3   OH239369   3.104   1.098   6.681
13143TIP3    H139370   3.116   1.094   6.776
13143TIP3    H239371   3.150   1.177   6.654
13144TIP3   OH239372   3.068   6.417   5.761
13144TIP3    H139373   3.020   6.469   5.697
13144TIP3    H239374   3.014   6.419   5.840
13145TIP3   OH239375   7.182   7.841   1.190
13145TIP3    H139376   7.134   7.872   1.113
13145TIP3    H239377   7.273   7.837   1.162
13146TIP3   OH239378   5.169   4.252   0.881
13146TIP3    H139379   5.250   4.200   0.885
13146TIP3    H239380   5.188   4.319   0.816
13147TIP3   OH239381   2.768   1.281   2.537
13147TIP3    H139382   2.759   1.375   2.550
13147TIP3    H239383   2.811   1.272   2.452
13148TIP3   OH239384   3.527   4.282   5.245
13148TIP3    H139385   3.488   4.212   5.297
13148TIP3    H239386   3.452   4.333   5.213
13149TIP3   OH239387   2.029   3.748   2.775
13149TIP3    H139388   1.960   3.689   2.743
13149TIP3    H239389   2.043   3.721   2.865
13150TIP3   OH239390   1.735   6.082   5.374
13150TIP3    H139391   1.752   6.156   5.431
13150TIP3    H239392   1.802   6.089   5.306
13151TIP3   OH239393   5.175   0.264   0.180
13151TIP3    H139394   5.224   0.262   0.262
13151TIP3    H239395   5.234   0.306   0.117
13152TIP3   OH239396   2.436   1.698   1.091
13152TIP3    H139397   2.368   1.710   1.025
13152TIP3    H239398   2.518   1.715   1.045
13153TIP3   OH239399   5.725   2.713   0.860
13153TIP3    H139400   5.744   2.702   0.953
13153TIP3    H239401   5.798   2.765   0.827
13154TIP3   OH239402   4.122   7.375   0.484
13154TIP3    H139403   4.085   7.394   0.570
13154TIP3    H239404   4.117   7.280   0.476
13155TIP3   OH239405   2.197   0.187   4.401
13155TIP3    H139406   2.184   0.211   4.493
13155TIP3    H239407   2.255   0.112   4.404
13156TIP3   OH239408   6.607   0.575   6.525
13156TIP3    H139409   6.547   0.608   6.592
13156TIP3    H239410   6.638   0.491   6.559
13157TIP3   OH239411   1.426   6.300   3.908
13157TIP3    H139412   1.374   6.228   3.942
13157TIP3    H239413   1.496   6.313   3.973
13158TIP3   OH239414   5.896   1.144   2.584
13158TIP3    H139415   5.867   1.061   2.622
13158TIP3    H239416   5.977   1.123   2.538
13159TIP3   OH239417   4.033   0.859   5.798
13159TIP3    H139418   4.010   0.831   5.710
13159TIP3    H239419   4.111   0.913   5.787
13160TIP3   OH239420   0.713   7.031   1.421
13160TIP3    H139421   0.770   7.102   1.391
13160TIP3    H239422   0.751   6.952   1.383
13161TIP3   OH239423   0.901   2.319   0.804
13161TIP3    H139424   0.942   2.266   0.735
13161TIP3    H239425   0.833   2.369   0.759
13162TIP3   OH239426   0.703   0.981   1.020
13162TIP3    H139427   0.789   0.962   0.981
13162TIP3    H239428   0.716   0.968   1.114
13163TIP3   OH239429   0.225   7.231   5.770
13163TIP3    H139430   0.309   7.188   5.785
13163TIP3    H239431   0.177   7.171   5.714
13164TIP3   OH239432   3.003   3.146   5.990
13164TIP3    H139433   3.070   3.188   5.936
13164TIP3    H239434   2.948   3.099   5.927
13165TIP3   OH239435   7.393   6.253   0.781
13165TIP3    H139436   7.367   6.223   0.868
13165TIP3    H239437   7.348   6.195   0.720
13166TIP3   OH239438   7.218   4.795   2.043
13166TIP3    H139439   7.263   4.879   2.039
13166TIP3    H239440   7.125   4.818   2.041
13167TIP3   OH239441   6.852   6.792   0.921
13167TIP3    H139442   6.817   6.773   1.008
13167TIP3    H239443   6.826   6.883   0.904
13168TIP3   OH239444   0.419   4.143   2.664
13168TIP3    H139445   0.377   4.062   2.635
13168TIP3    H239446   0.381   4.211   2.608
13169TIP3   OH239447   3.003   5.735   0.721
13169TIP3    H139448   3.084   5.782   0.705
13169TIP3    H239449   3.030   5.647   0.746
13170TIP3   OH239450   5.896   1.354   0.211
13170TIP3    H139451   5.951   1.406   0.270
13170TIP3    H239452   5.954   1.285   0.178
13171TIP3   OH239453   2.998   7.096   1.848
13171TIP3    H139454   2.957   7.100   1.762
13171TIP3    H239455   3.022   7.187   1.868
13172TIP3   OH239456   4.983   5.060   6.395
13172TIP3    H139457   4.891   5.038   6.406
13172TIP3    H239458   4.993   5.077   6.301
13173TIP3   OH239459   2.191   0.714   0.072
13173TIP3    H139460   2.120   0.687   0.014
13173TIP3    H239461   2.175   0.807   0.088
13174TIP3   OH239462   7.097   2.000   0.493
13174TIP3    H139463   7.023   1.956   0.536
13174TIP3    H239464   7.128   1.936   0.428
13175TIP3   OH239465   5.500   7.055   4.703
13175TIP3    H139466   5.566   7.020   4.764
13175TIP3    H239467   5.421   7.064   4.756
13176TIP3   OH239468   1.884   5.728   2.104
13176TIP3    H139469   1.958   5.744   2.047
13176TIP3    H239470   1.834   5.810   2.103
13177TIP3   OH239471   7.367   6.233   6.061
13177TIP3    H139472   7.459   6.256   6.057
13177TIP3    H239473   7.320   6.316   6.048
13178TIP3   OH239474   2.703   5.356   5.639
13178TIP3    H139475   2.609   5.342   5.643
13178TIP3    H239476   2.741   5.269   5.640
13179TIP3   OH239477   4.542   2.027   4.169
13179TIP3    H139478   4.554   2.059   4.079
13179TIP3    H239479   4.537   2.107   4.222
13180TIP3   OH239480   7.548   5.816   0.503
13180TIP3    H139481   7.562   5.722   0.512
13180TIP3    H239482   7.464   5.832   0.547
13181TIP3   OH239483   6.668   0.453   5.227
13181TIP3    H139484   6.739   0.434   5.165
13181TIP3    H239485   6.714   0.484   5.306
13182TIP3   OH239486   4.282   2.974   6.769
13182TIP3    H139487   4.295   2.879   6.778
13182TIP3    H239488   4.304   3.009   6.855
13183TIP3   OH239489   2.892   1.139   0.750
13183TIP3    H139490   2.966   1.199   0.743
13183TIP3    H239491   2.835   1.179   0.816
13184TIP3   OH239492   5.744   5.512   2.866
13184TIP3    H139493   5.827   5.524   2.819
13184TIP3    H239494   5.678   5.513   2.798
13185TIP3   OH239495   0.633   4.298   6.607
13185TIP3    H139496   0.665   4.260   6.689
13185TIP3    H239497   0.678   4.248   6.539
13186TIP3   OH239498   0.204   0.156   4.738
13186TIP3    H139499   0.178   0.155   4.830
13186TIP3    H239500   0.124   0.178   4.690
13187TIP3   OH239501   0.364   1.443   6.054
13187TIP3    H139502   0.432   1.377   6.073
13187TIP3    H239503   0.360   1.496   6.134
13188TIP3   OH239504   3.462   0.878   3.889
13188TIP3    H139505   3.386   0.879   3.830
13188TIP3    H239506   3.471   0.969   3.917
13189TIP3   OH239507   5.842   5.848   2.469
13189TIP3    H139508   5.843   5.885   2.558
13189TIP3    H239509   5.850   5.925   2.412
13190TIP3   OH239510   8.010   1.122   1.653
13190TIP3    H139511   8.078   1.189   1.654
13190TIP3    H239512   7.934   1.165   1.693
13191TIP3   OH239513   6.945   1.343   5.421
13191TIP3    H139514   7.016   1.397   5.387
13191TIP3    H239515   6.942   1.267   5.364
13192TIP3   OH239516   7.076   5.302   5.056
13192TIP3    H139517   6.996   5.305   5.109
13192TIP3    H239518   7.045   5.312   4.966
13193TIP3   OH239519   3.033   3.672   1.749
13193TIP3    H139520   3.079   3.594   1.719
13193TIP3    H239521   3.052   3.738   1.682
13194TIP3   OH239522   5.993   0.372   5.467
13194TIP3    H139523   5.970   0.301   5.407
13194TIP3    H239524   6.079   0.402   5.438
13195TIP3   OH239525   4.869   5.784   4.617
13195TIP3    H139526   4.903   5.830   4.694
13195TIP3    H239527   4.893   5.840   4.543
13196TIP3   OH239528   0.054   2.836   0.644
13196TIP3    H139529   0.105   2.764   0.607
13196TIP3    H239530   0.049   2.818   0.737
13197TIP3   OH239531   0.734   0.246   2.647
13197TIP3    H139532   0.674   0.201   2.587
13197TIP3    H239533   0.808   0.271   2.592
13198TIP3   OH239534   8.044   3.675   0.484
13198TIP3    H139535   8.136   3.693   0.501
13198TIP3    H239536   8.023   3.725   0.406
13199TIP3   OH239537   5.290   5.371   2.495
13199TIP3    H139538   5.282   5.291   2.442
13199TIP3    H239539   5.383   5.391   2.495
13200TIP3   OH239540   3.558   4.074   6.362
13200TIP3    H139541   3.575   3.983   6.339
13200TIP3    H239542   3.516   4.112   6.284
13201TIP3   OH239543   2.453   5.578   1.252
13201TIP3    H139544   2.510   5.656   1.252
13201TIP3    H239545   2.414   5.577   1.165
13202TIP3   OH239546   4.969   0.704   3.894
13202TIP3    H139547   5.065   0.710   3.893
13202TIP3    H239548   4.945   0.686   3.803
13203TIP3   OH239549   2.017   2.727   3.404
13203TIP3    H139550   2.089   2.744   3.344
13203TIP3    H239551   1.958   2.670   3.356
13204TIP3   OH239552   5.708   7.674   0.081
13204TIP3    H139553   5.700   7.717  -0.004
13204TIP3    H239554   5.784   7.716   0.121
13205TIP3   OH239555   5.143   6.390   5.350
13205TIP3    H139556   5.054   6.417   5.327
13205TIP3    H239557   5.147   6.399   5.446
13206TIP3   OH239558   4.796   0.490   4.032
13206TIP3    H139559   4.841   0.562   3.988
13206TIP3    H239560   4.752   0.442   3.961
13207TIP3   OH239561   1.564   7.837   4.084
13207TIP3    H139562   1.559   7.763   4.144
13207TIP3    H239563   1.549   7.914   4.139
13208TIP3   OH239564   2.215   4.509   5.756
13208TIP3    H139565   2.246   4.461   5.679
13208TIP3    H239566   2.281   4.490   5.823
13209TIP3   OH239567   6.281   1.435   3.218
13209TIP3    H139568   6.352   1.425   3.282
13209TIP3    H239569   6.304   1.514   3.170
13210TIP3   OH239570   7.699   4.318   6.325
13210TIP3    H139571   7.689   4.400   6.277
13210TIP3    H239572   7.737   4.344   6.409
13211TIP3   OH239573   0.521   0.384   2.217
13211TIP3    H139574   0.539   0.344   2.132
13211TIP3    H239575   0.436   0.426   2.206
13212TIP3   OH239576   5.424   7.006   3.593
13212TIP3    H139577   5.496   7.025   3.654
13212TIP3    H239578   5.448   6.921   3.555
13213TIP3   OH239579   8.303   3.790   0.503
13213TIP3    H139580   8.301   3.865   0.443
13213TIP3    H239581   8.318   3.829   0.590
13214TIP3   OH239582   8.250   7.167   4.608
13214TIP3    H139583   8.183   7.225   4.643
13214TIP3    H239584   8.331   7.194   4.652
13215TIP3   OH239585   0.508   2.537   4.689
13215TIP3    H139586   0.417   2.559   4.670
13215TIP3    H239587   0.525   2.574   4.776
13216TIP3   OH239588   0.826   6.275   1.876
13216TIP3    H139589   0.733   6.279   1.896
13216TIP3    H239590   0.869   6.264   1.961
13217TIP3   OH239591   0.902   0.914   4.853
13217TIP3    H139592   0.997   0.912   4.861
13217TIP3    H239593   0.870   0.868   4.931
13218TIP3   OH239594   2.404   6.501   5.551
13218TIP3    H139595   2.358   6.442   5.492
13218TIP3    H239596   2.472   6.446   5.591
13219TIP3   OH239597   5.367   0.184   6.233
13219TIP3    H139598   5.403   0.096   6.247
13219TIP3    H239599   5.443   0.241   6.233
13220TIP3   OH239600   3.754   5.709   6.384
13220TIP3    H139601   3.840   5.748   6.366
13220TIP3    H239602   3.696   5.783   6.396
13221TIP3   OH239603   6.507   6.644   4.517
13221TIP3    H139604   6.543   6.583   4.581
13221TIP3    H239605   6.551   6.727   4.534
13222TIP3   OH239606   6.182   7.142   3.158
13222TIP3    H139607   6.109   7.102   3.111
13222TIP3    H239608   6.233   7.186   3.090
13223TIP3   OH239609   0.088   6.724   3.229
13223TIP3    H139610   0.125   6.699   3.314
13223TIP3    H239611   0.104   6.818   3.222
13224TIP3   OH239612   6.723   2.405   1.669
13224TIP3    H139613   6.658   2.357   1.618
13224TIP3    H239614   6.691   2.399   1.759
13225TIP3   OH239615   3.320   2.082   4.838
13225TIP3    H139616   3.322   2.155   4.900
13225TIP3    H239617   3.227   2.065   4.824
13226TIP3   OH239618   7.445   4.071   0.575
13226TIP3    H139619   7.417   3.999   0.632
13226TIP3    H239620   7.453   4.031   0.488
13227TIP3   OH239621   5.125   2.619   0.149
13227TIP3    H139622   5.170   2.543   0.113
13227TIP3    H239623   5.124   2.682   0.077
13228TIP3   OH239624   3.360   7.833   3.037
13228TIP3    H139625   3.371   7.853   2.944
13228TIP3    H239626   3.271   7.861   3.057
13229TIP3   OH239627   7.483   4.451   2.005
13229TIP3    H139628   7.494   4.487   1.917
13229TIP3    H239629   7.485   4.356   1.992
13230TIP3   OH239630   1.584   1.842   4.750
13230TIP3    H139631   1.546   1.802   4.829
13230TIP3    H239632   1.677   1.851   4.770
13231TIP3   OH239633   8.126   3.017   3.221
13231TIP3    H139634   8.111   2.945   3.159
13231TIP3    H239635   8.222   3.024   3.226
13232TIP3   OH239636   6.210   4.444   3.724
13232TIP3    H139637   6.120   4.411   3.731
13232TIP3    H239638   6.265   4.367   3.737
13233TIP3   OH239639   3.302   2.754   5.041
13233TIP3    H139640   3.324   2.698   4.967
13233TIP3    H239641   3.234   2.706   5.088
13234TIP3   OH239642   2.379   2.578   0.217
13234TIP3    H139643   2.420   2.492   0.211
13234TIP3    H239644   2.316   2.570   0.288
13235TIP3   OH239645   5.857   0.027   4.217
13235TIP3    H139646   5.917   0.099   4.235
13235TIP3    H239647   5.869  -0.032   4.291
13236TIP3   OH239648   0.702   4.222   5.995
13236TIP3    H139649   0.643   4.284   5.953
13236TIP3    H239650   0.660   4.202   6.079
13237TIP3   OH239651   5.969   0.882   6.354
13237TIP3    H139652   5.960   0.809   6.414
13237TIP3    H239653   6.052   0.923   6.378
13238TIP3   OH239654   0.164   2.200   5.363
13238TIP3    H139655   0.163   2.256   5.441
13238TIP3    H239656   0.175   2.111   5.397
13239TIP3   OH239657   6.981   0.746   6.068
13239TIP3    H139658   7.027   0.663   6.077
13239TIP3    H239659   7.040   0.811   6.107
13240TIP3   OH239660   4.092   2.615   4.214
13240TIP3    H139661   3.998   2.597   4.221
13240TIP3    H239662   4.097   2.708   4.192
13241TIP3   OH239663   7.804   1.710   6.257
13241TIP3    H139664   7.891   1.689   6.292
13241TIP3    H239665   7.753   1.630   6.271
13242TIP3   OH239666   3.048   2.162   0.291
13242TIP3    H139667   2.959   2.126   0.288
13242TIP3    H239668   3.105   2.086   0.291
13243TIP3   OH239669   3.519   4.100   1.800
13243TIP3    H139670   3.432   4.074   1.772
13243TIP3    H239671   3.517   4.091   1.895
13244TIP3   OH239672   3.189   5.114   1.459
13244TIP3    H139673   3.217   5.195   1.416
13244TIP3    H239674   3.190   5.049   1.390
13245TIP3   OH239675   6.869   5.747   5.133
13245TIP3    H139676   6.822   5.681   5.184
13245TIP3    H239677   6.820   5.752   5.050
13246TIP3   OH239678   4.323   5.007   5.437
13246TIP3    H139679   4.365   4.928   5.403
13246TIP3    H239680   4.253   4.974   5.494
13247TIP3   OH239681   1.697   2.152   3.501
13247TIP3    H139682   1.761   2.213   3.464
13247TIP3    H239683   1.655   2.113   3.424
13248TIP3   OH239684   5.628   2.099   1.895
13248TIP3    H139685   5.674   2.019   1.920
13248TIP3    H239686   5.697   2.159   1.867
13249TIP3   OH239687   0.151   1.934   3.569
13249TIP3    H139688   0.056   1.939   3.558
13249TIP3    H239689   0.174   2.015   3.615
13250TIP3   OH239690   1.958   1.189   1.413
13250TIP3    H139691   1.999   1.110   1.378
13250TIP3    H239692   2.020   1.221   1.478
13251TIP3   OH239693   7.704   1.699   1.717
13251TIP3    H139694   7.631   1.644   1.689
13251TIP3    H239695   7.697   1.778   1.663
13252TIP3   OH239696   1.893   6.480   4.427
13252TIP3    H139697   1.973   6.496   4.478
13252TIP3    H239698   1.855   6.402   4.466
13253TIP3   OH239699   8.124   7.335   4.784
13253TIP3    H139700   8.127   7.327   4.879
13253TIP3    H239701   8.141   7.428   4.767
13254TIP3   OH239702   0.863   1.718   6.803
13254TIP3    H139703   0.829   1.738   6.890
13254TIP3    H239704   0.798   1.754   6.743
13255TIP3   OH239705   1.447   3.188   3.681
13255TIP3    H139706   1.455   3.229   3.767
13255TIP3    H239707   1.454   3.261   3.619
13256TIP3   OH239708   2.658   3.236   4.890
13256TIP3    H139709   2.705   3.174   4.945
13256TIP3    H239710   2.589   3.184   4.849
13257TIP3   OH239711   7.879   1.905   3.266
13257TIP3    H139712   7.867   1.937   3.355
13257TIP3    H239713   7.851   1.813   3.270
13258TIP3   OH239714   7.411   0.487   5.441
13258TIP3    H139715   7.427   0.561   5.383
13258TIP3    H239716   7.451   0.413   5.397
13259TIP3   OH239717   1.379   4.657   2.311
13259TIP3    H139718   1.438   4.733   2.314
13259TIP3    H239719   1.309   4.685   2.253
13260TIP3   OH239720   3.434   5.667   1.926
13260TIP3    H139721   3.458   5.704   2.011
13260TIP3    H239722   3.396   5.741   1.878
13261TIP3   OH239723   3.058   0.570   0.416
13261TIP3    H139724   3.042   0.596   0.507
13261TIP3    H239725   3.001   0.494   0.403
13262TIP3   OH239726   4.757   6.351   2.061
13262TIP3    H139727   4.728   6.441   2.079
13262TIP3    H239728   4.751   6.343   1.966
13263TIP3   OH239729   5.508   4.778   3.393
13263TIP3    H139730   5.417   4.768   3.420
13263TIP3    H239731   5.536   4.690   3.368
13264TIP3   OH239732   7.194   1.820   6.362
13264TIP3    H139733   7.272   1.876   6.362
13264TIP3    H239734   7.156   1.831   6.275
13265TIP3   OH239735   3.862   7.327   1.813
13265TIP3    H139736   3.850   7.319   1.718
13265TIP3    H239737   3.779   7.360   1.845
13266TIP3   OH239738   5.105   5.844   3.768
13266TIP3    H139739   5.069   5.920   3.814
13266TIP3    H239740   5.161   5.882   3.700
13267TIP3   OH239741   7.344   7.530   1.731
13267TIP3    H139742   7.347   7.601   1.667
13267TIP3    H239743   7.371   7.452   1.682
13268TIP3   OH239744   7.849   7.216   1.766
13268TIP3    H139745   7.815   7.241   1.852
13268TIP3    H239746   7.818   7.285   1.708
13269TIP3   OH239747   6.495   0.052   3.292
13269TIP3    H139748   6.566   0.068   3.355
13269TIP3    H239749   6.533  -0.007   3.227
13270TIP3   OH239750   6.219   6.643   4.644
13270TIP3    H139751   6.199   6.731   4.675
13270TIP3    H239752   6.280   6.655   4.572
13271TIP3   OH239753   7.686   3.655   1.741
13271TIP3    H139754   7.639   3.638   1.660
13271TIP3    H239755   7.659   3.585   1.800
13272TIP3   OH239756   5.490   5.072   0.260
13272TIP3    H139757   5.522   5.075   0.170
13272TIP3    H239758   5.563   5.034   0.309
13273TIP3   OH239759   3.162   1.227   5.288
13273TIP3    H139760   3.180   1.299   5.227
13273TIP3    H239761   3.094   1.176   5.245
13274TIP3   OH239762   0.229   7.271   0.359
13274TIP3    H139763   0.265   7.183   0.344
13274TIP3    H239764   0.187   7.265   0.445
13275TIP3   OH239765   1.653   0.970   4.316
13275TIP3    H139766   1.587   0.957   4.384
13275TIP3    H239767   1.674   0.882   4.286
13276TIP3   OH239768   4.974   5.240   3.353
13276TIP3    H139769   5.006   5.251   3.443
13276TIP3    H239770   4.955   5.147   3.346
13277TIP3   OH239771   1.417   6.156   0.412
13277TIP3    H139772   1.485   6.185   0.350
13277TIP3    H239773   1.383   6.237   0.449
13278TIP3   OH239774   6.152   1.651   3.824
13278TIP3    H139775   6.240   1.653   3.786
13278TIP3    H239776   6.110   1.730   3.791
13279TIP3   OH239777   1.126   3.649   4.208
13279TIP3    H139778   1.219   3.670   4.213
13279TIP3    H239779   1.101   3.673   4.118
13280TIP3   OH239780   4.360   4.385   0.492
13280TIP3    H139781   4.281   4.332   0.477
13280TIP3    H239782   4.430   4.321   0.506
13281TIP3   OH239783   2.047   5.372   2.847
13281TIP3    H139784   2.125   5.317   2.860
13281TIP3    H239785   2.023   5.358   2.755
13282TIP3   OH239786   0.042   3.485   0.206
13282TIP3    H139787  -0.045   3.524   0.201
13282TIP3    H239788   0.037   3.408   0.149
13283TIP3   OH239789   4.880   7.545   3.802
13283TIP3    H139790   4.862   7.573   3.891
13283TIP3    H239791   4.842   7.613   3.747
13284TIP3   OH239792   6.839   7.901   4.659
13284TIP3    H139793   6.763   7.844   4.659
13284TIP3    H239794   6.854   7.922   4.752
13285TIP3   OH239795   3.361   4.874   3.413
13285TIP3    H139796   3.336   4.953   3.461
13285TIP3    H239797   3.279   4.826   3.401
13286TIP3   OH239798   6.495   6.761   0.730
13286TIP3    H139799   6.451   6.696   0.676
13286TIP3    H239800   6.514   6.715   0.812
13287TIP3   OH239801   1.277   2.430   2.391
13287TIP3    H139802   1.317   2.421   2.304
13287TIP3    H239803   1.323   2.367   2.446
13288TIP3   OH239804   0.328   1.895   4.232
13288TIP3    H139805   0.351   1.987   4.245
13288TIP3    H239806   0.294   1.892   4.142
13289TIP3   OH239807   2.024   4.939   3.537
13289TIP3    H139808   2.044   5.029   3.561
13289TIP3    H239809   2.109   4.898   3.524
13290TIP3   OH239810   0.500   2.341   2.990
13290TIP3    H139811   0.469   2.279   3.057
13290TIP3    H239812   0.557   2.289   2.934
13291TIP3   OH239813   8.199   0.966   2.858
13291TIP3    H139814   8.176   0.879   2.826
13291TIP3    H239815   8.228   0.951   2.948
13292TIP3   OH239816   7.105   4.227   2.518
13292TIP3    H139817   7.128   4.217   2.425
13292TIP3    H239818   7.099   4.322   2.531
13293TIP3   OH239819   6.401   3.814   6.374
13293TIP3    H139820   6.315   3.798   6.414
13293TIP3    H239821   6.455   3.740   6.404
13294TIP3   OH239822   6.227   3.551   5.460
13294TIP3    H139823   6.232   3.645   5.478
13294TIP3    H239824   6.239   3.510   5.546
13295TIP3   OH239825   3.974   1.048   6.751
13295TIP3    H139826   4.013   1.066   6.665
13295TIP3    H239827   3.890   1.092   6.749
13296TIP3   OH239828   3.800   3.855   3.377
13296TIP3    H139829   3.719   3.804   3.369
13296TIP3    H239830   3.786   3.932   3.323
13297TIP3   OH239831   0.969   3.291   6.303
13297TIP3    H139832   0.992   3.358   6.238
13297TIP3    H239833   1.053   3.262   6.339
13298TIP3   OH239834   4.857   3.590   6.567
13298TIP3    H139835   4.929   3.640   6.607
13298TIP3    H239836   4.892   3.562   6.482
13299TIP3   OH239837   5.564   4.296   6.833
13299TIP3    H139838   5.651   4.337   6.838
13299TIP3    H239839   5.580   4.212   6.790
13300TIP3   OH239840   0.300   4.183   0.321
13300TIP3    H139841   0.286   4.103   0.270
13300TIP3    H239842   0.336   4.246   0.258
13301TIP3   OH239843   8.240   5.721   1.241
13301TIP3    H139844   8.187   5.798   1.261
13301TIP3    H239845   8.217   5.657   1.308
13302TIP3   OH239846   0.443   4.244   1.401
13302TIP3    H139847   0.464   4.167   1.455
13302TIP3    H239848   0.424   4.313   1.464
13303TIP3   OH239849   6.966   0.352   1.822
13303TIP3    H139850   6.878   0.336   1.857
13303TIP3    H239851   6.969   0.447   1.808
13304TIP3   OH239852   2.774   1.873   5.473
13304TIP3    H139853   2.722   1.794   5.489
13304TIP3    H239854   2.710   1.941   5.455
13305TIP3   OH239855   2.792   3.567   5.686
13305TIP3    H139856   2.710   3.568   5.636
13305TIP3    H239857   2.807   3.659   5.708
13306TIP3   OH239858   4.597   0.564   5.442
13306TIP3    H139859   4.599   0.557   5.347
13306TIP3    H239860   4.681   0.527   5.471
13307TIP3   OH239861   0.864   5.553   6.371
13307TIP3    H139862   0.769   5.566   6.364
13307TIP3    H239863   0.889   5.516   6.287
13308TIP3   OH239864   4.808   7.855   5.820
13308TIP3    H139865   4.737   7.792   5.807
13308TIP3    H239866   4.786   7.899   5.902
13309TIP3   OH239867   5.809   3.934   2.745
13309TIP3    H139868   5.898   3.900   2.754
13309TIP3    H239869   5.783   3.955   2.835
13310TIP3   OH239870   1.127   4.632   3.300
13310TIP3    H139871   1.063   4.699   3.323
13310TIP3    H239872   1.210   4.666   3.333
13311TIP3   OH239873   3.797   6.274   2.406
13311TIP3    H139874   3.776   6.193   2.360
13311TIP3    H239875   3.874   6.253   2.459
13312TIP3   OH239876   1.098   4.204   1.976
13312TIP3    H139877   1.142   4.239   2.053
13312TIP3    H239878   1.014   4.250   1.973
13313TIP3   OH239879   2.937   7.323   0.059
13313TIP3    H139880   2.931   7.228   0.064
13313TIP3    H239881   2.908   7.353   0.146
13314TIP3   OH239882   4.557   5.892   5.692
13314TIP3    H139883   4.482   5.900   5.751
13314TIP3    H239884   4.593   5.980   5.686
13315TIP3   OH239885   3.158   5.400   6.616
13315TIP3    H139886   3.068   5.433   6.611
13315TIP3    H239887   3.208   5.474   6.652
13316TIP3   OH239888   4.108   0.453   6.566
13316TIP3    H139889   4.058   0.372   6.570
13316TIP3    H239890   4.109   0.486   6.656
13317TIP3   OH239891   8.205   2.505   2.342
13317TIP3    H139892   8.284   2.556   2.359
13317TIP3    H239893   8.224   2.459   2.260
13318TIP3   OH239894   1.308   6.711   5.484
13318TIP3    H139895   1.332   6.767   5.411
13318TIP3    H239896   1.251   6.765   5.539
13319TIP3   OH239897   5.581   0.833   3.831
13319TIP3    H139898   5.592   0.898   3.900
13319TIP3    H239899   5.659   0.842   3.776
13320TIP3   OH239900   7.484   7.511   0.545
13320TIP3    H139901   7.474   7.523   0.451
13320TIP3    H239902   7.566   7.463   0.555
13321TIP3   OH239903   1.708   5.677   3.779
13321TIP3    H139904   1.735   5.766   3.801
13321TIP3    H239905   1.769   5.621   3.826
13322TIP3   OH239906   2.407   3.701   0.850
13322TIP3    H139907   2.331   3.693   0.908
13322TIP3    H239908   2.396   3.787   0.808
13323TIP3   OH239909   5.396   7.742   2.989
13323TIP3    H139910   5.426   7.782   2.907
13323TIP3    H239911   5.467   7.684   3.014
13324TIP3   OH239912   4.922   0.814   1.788
13324TIP3    H139913   4.977   0.870   1.733
13324TIP3    H239914   4.875   0.874   1.844
13325TIP3   OH239915   1.643   6.589   1.485
13325TIP3    H139916   1.665   6.611   1.395
13325TIP3    H239917   1.709   6.524   1.510
13326TIP3   OH239918   3.322   6.644   1.999
13326TIP3    H139919   3.236   6.684   1.984
13326TIP3    H239920   3.329   6.636   2.094
13327TIP3   OH239921   7.710   0.359   5.765
13327TIP3    H139922   7.699   0.443   5.721
13327TIP3    H239923   7.621   0.328   5.781
13328TIP3   OH239924   0.701   7.346   6.792
13328TIP3    H139925   0.642   7.325   6.865
13328TIP3    H239926   0.668   7.294   6.719
13329TIP3   OH239927   1.248   7.358   5.055
13329TIP3    H139928   1.316   7.396   5.110
13329TIP3    H239929   1.166   7.395   5.088
13330TIP3   OH239930   4.285   3.202   4.686
13330TIP3    H139931   4.233   3.124   4.709
13330TIP3    H239932   4.355   3.169   4.630
13331TIP3   OH239933   7.261   2.765   1.242
13331TIP3    H139934   7.168   2.785   1.233
13331TIP3    H239935   7.301   2.848   1.269
13332TIP3   OH239936   3.492   1.457   6.545
13332TIP3    H139937   3.413   1.503   6.570
13332TIP3    H239938   3.564   1.508   6.583
13333TIP3   OH239939   3.168   3.072   1.643
13333TIP3    H139940   3.148   3.077   1.550
13333TIP3    H239941   3.125   2.991   1.672
13334TIP3   OH239942   7.989   0.540   1.508
13334TIP3    H139943   8.014   0.453   1.477
13334TIP3    H239944   8.063   0.568   1.562
13335TIP3   OH239945   1.336   6.695   0.722
13335TIP3    H139946   1.305   6.615   0.679
13335TIP3    H239947   1.432   6.687   0.721
13336TIP3   OH239948   4.377   5.265   4.556
13336TIP3    H139949   4.442   5.297   4.493
13336TIP3    H239950   4.311   5.221   4.502
13337TIP3   OH239951   5.702   3.539   2.731
13337TIP3    H139952   5.790   3.538   2.769
13337TIP3    H239953   5.710   3.595   2.654
13338TIP3   OH239954   7.941   6.207   1.284
13338TIP3    H139955   7.986   6.129   1.251
13338TIP3    H239956   7.876   6.227   1.216
13339TIP3   OH239957   3.822   3.599   5.037
13339TIP3    H139958   3.849   3.674   4.983
13339TIP3    H239959   3.833   3.523   4.979
13340TIP3   OH239960   6.463   2.792   3.492
13340TIP3    H139961   6.509   2.876   3.484
13340TIP3    H239962   6.470   2.770   3.585
13341TIP3   OH239963   5.102   0.609   4.174
13341TIP3    H139964   5.139   0.553   4.106
13341TIP3    H239965   5.146   0.581   4.254
13342TIP3   OH239966   5.989   4.453   5.224
13342TIP3    H139967   6.009   4.545   5.243
13342TIP3    H239968   5.983   4.449   5.129
13343TIP3   OH239969   1.932   1.665   6.802
13343TIP3    H139970   2.024   1.651   6.823
13343TIP3    H239971   1.894   1.576   6.801
13344TIP3   OH239972   5.222   3.786   6.091
13344TIP3    H139973   5.297   3.733   6.116
13344TIP3    H239974   5.229   3.796   5.996
13345TIP3   OH239975   6.783   0.872   1.256
13345TIP3    H139976   6.790   0.866   1.352
13345TIP3    H239977   6.732   0.951   1.241
13346TIP3   OH239978   7.980   3.620   3.099
13346TIP3    H139979   8.028   3.619   3.017
13346TIP3    H239980   7.902   3.566   3.083
13347TIP3   OH239981   3.116   6.679   2.610
13347TIP3    H139982   3.180   6.628   2.560
13347TIP3    H239983   3.111   6.635   2.695
13348TIP3   OH239984   2.514   7.347   2.794
13348TIP3    H139985   2.534   7.259   2.825
13348TIP3    H239986   2.479   7.392   2.871
13349TIP3   OH239987   0.087   6.984   0.836
13349TIP3    H139988   0.033   6.906   0.829
13349TIP3    H239989   0.107   6.992   0.929
13350TIP3   OH239990   1.756   4.544   4.684
13350TIP3    H139991   1.757   4.450   4.669
13350TIP3    H239992   1.718   4.580   4.604
13351TIP3   OH239993   0.573   0.753   2.303
13351TIP3    H139994   0.495   0.796   2.338
13351TIP3    H239995   0.596   0.804   2.226
13352TIP3   OH239996   4.636   7.466   5.692
13352TIP3    H139997   4.605   7.378   5.712
13352TIP3    H239998   4.731   7.456   5.685
13353TIP3   OH239999   5.796   2.862   1.170
13353TIP3    H140000   5.837   2.865   1.256
13353TIP3    H240001   5.783   2.954   1.146
13354TIP3   OH240002   2.728   3.369   3.188
13354TIP3    H140003   2.812   3.406   3.215
13354TIP3    H240004   2.666   3.441   3.200
13355TIP3   OH240005   1.913   4.401   1.216
13355TIP3    H140006   1.864   4.451   1.281
13355TIP3    H240007   1.863   4.413   1.135
13356TIP3   OH240008   4.029   1.487   6.117
13356TIP3    H140009   3.977   1.562   6.144
13356TIP3    H240010   4.117   1.506   6.149
13357TIP3   OH240011   3.142   7.012   5.156
13357TIP3    H140012   3.176   7.090   5.200
13357TIP3    H240013   3.099   6.962   5.225
13358TIP3   OH240014   4.598   6.153   4.812
13358TIP3    H140015   4.693   6.152   4.800
13358TIP3    H240016   4.572   6.241   4.788
13359TIP3   OH240017   2.953   4.248   3.282
13359TIP3    H140018   3.012   4.196   3.228
13359TIP3    H240019   2.879   4.189   3.300
13360TIP3   OH240020   7.893   6.081   3.771
13360TIP3    H140021   7.862   5.993   3.749
13360TIP3    H240022   7.813   6.134   3.774
13361TIP3   OH240023   3.113   4.401   3.612
13361TIP3    H140024   3.152   4.391   3.699
13361TIP3    H240025   3.033   4.452   3.627
13362TIP3   OH240026   7.165   4.167   5.404
13362TIP3    H140027   7.218   4.094   5.435
13362TIP3    H240028   7.150   4.149   5.311
13363TIP3   OH240029   0.149   0.159   5.355
13363TIP3    H140030   0.058   0.144   5.328
13363TIP3    H240031   0.141   0.189   5.446
13364TIP3   OH240032   6.188  -0.024   2.480
13364TIP3    H140033   6.261   0.037   2.493
13364TIP3    H240034   6.153  -0.003   2.394
13365TIP3   OH240035   6.170   5.676   4.401
13365TIP3    H140036   6.229   5.691   4.327
13365TIP3    H240037   6.133   5.589   4.385
13366TIP3   OH240038   3.386   2.549   4.851
13366TIP3    H140039   3.433   2.490   4.793
13366TIP3    H240040   3.435   2.631   4.847
13367TIP3   OH240041   0.118   2.738   3.315
13367TIP3    H140042   0.124   2.657   3.265
13367TIP3    H240043   0.115   2.710   3.406
13368TIP3   OH240044   8.404   3.946   5.028
13368TIP3    H140045   8.409   4.026   5.080
13368TIP3    H240046   8.322   3.954   4.980
13369TIP3   OH240047   7.917   4.446   2.710
13369TIP3    H140048   7.829   4.444   2.672
13369TIP3    H240049   7.974   4.468   2.637
13370TIP3   OH240050   5.888   0.989   3.126
13370TIP3    H140051   5.935   1.066   3.159
13370TIP3    H240052   5.817   0.975   3.189
13371TIP3   OH240053   8.079   2.587   5.564
13371TIP3    H140054   8.086   2.507   5.616
13371TIP3    H240055   8.042   2.558   5.481
13372TIP3   OH240056   1.344   5.004   0.575
13372TIP3    H140057   1.319   5.083   0.527
13372TIP3    H240058   1.263   4.976   0.617
13373TIP3   OH240059   5.913   6.142   4.126
13373TIP3    H140060   5.959   6.179   4.050
13373TIP3    H240061   5.983   6.117   4.186
13374TIP3   OH240062   6.851   1.867   6.178
13374TIP3    H140063   6.946   1.880   6.183
13374TIP3    H240064   6.824   1.912   6.098
13375TIP3   OH240065   8.402   1.725   2.384
13375TIP3    H140066   8.351   1.664   2.331
13375TIP3    H240067   8.342   1.754   2.453
13376TIP3   OH240068   4.249   4.942   2.372
13376TIP3    H140069   4.240   5.036   2.354
13376TIP3    H240070   4.316   4.912   2.310
13377TIP3   OH240071   2.529   1.744   6.023
13377TIP3    H140072   2.448   1.744   5.973
13377TIP3    H240073   2.587   1.684   5.976
13378TIP3   OH240074   7.700   5.786   1.280
13378TIP3    H140075   7.683   5.702   1.322
13378TIP3    H240076   7.759   5.832   1.341
13379TIP3   OH240077   0.263   0.714   1.807
13379TIP3    H140078   0.188   0.766   1.835
13379TIP3    H240079   0.230   0.660   1.735
13380TIP3   OH240080   0.379   0.793   5.917
13380TIP3    H140081   0.362   0.842   5.997
13380TIP3    H240082   0.462   0.828   5.884
13381TIP3   OH240083   2.513   3.419   2.255
13381TIP3    H140084   2.509   3.433   2.161
13381TIP3    H240085   2.596   3.460   2.282
13382TIP3   OH240086   7.515   5.482   3.003
13382TIP3    H140087   7.421   5.488   3.016
13382TIP3    H240088   7.531   5.391   2.979
13383TIP3   OH240089   3.415   3.398   6.792
13383TIP3    H140090   3.432   3.306   6.812
13383TIP3    H240091   3.502   3.436   6.777
13384TIP3   OH240092   8.052   2.712   0.281
13384TIP3    H140093   8.050   2.617   0.273
13384TIP3    H240094   8.037   2.745   0.193
13385TIP3   OH240095   7.973   1.234   3.193
13385TIP3    H140096   7.988   1.328   3.186
13385TIP3    H240097   8.013   1.209   3.276
13386TIP3   OH240098   2.982   0.404   6.626
13386TIP3    H140099   2.907   0.380   6.572
13386TIP3    H240100   2.948   0.401   6.716
13387TIP3   OH240101   3.131   5.301   5.334
13387TIP3    H140102   3.122   5.396   5.327
13387TIP3    H240103   3.064   5.275   5.397
13388TIP3   OH240104   7.429   3.673   3.159
13388TIP3    H140105   7.334   3.685   3.153
13388TIP3    H240106   7.446   3.657   3.251
13389TIP3   OH240107   6.390   1.390   0.659
13389TIP3    H140108   6.366   1.307   0.701
13389TIP3    H240109   6.336   1.393   0.580
13390TIP3   OH240110   6.743   0.667   2.863
13390TIP3    H140111   6.667   0.724   2.853
13390TIP3    H240112   6.730   0.624   2.947
13391TIP3   OH240113   3.091   2.974   4.417
13391TIP3    H140114   2.996   2.966   4.431
13391TIP3    H240115   3.112   2.900   4.359
13392TIP3   OH240116   5.749   2.045   5.925
13392TIP3    H140117   5.827   2.001   5.889
13392TIP3    H240118   5.680   1.979   5.918
13393TIP3   OH240119   8.254   7.396   6.575
13393TIP3    H140120   8.331   7.342   6.592
13393TIP3    H240121   8.285   7.486   6.583
13394TIP3   OH240122   6.400   4.887   3.678
13394TIP3    H140123   6.471   4.883   3.614
13394TIP3    H240124   6.442   4.864   3.761
13395TIP3   OH240125   3.231   5.436   6.154
13395TIP3    H140126   3.156   5.379   6.174
13395TIP3    H240127   3.237   5.494   6.230
13396TIP3   OH240128   4.735   7.429   2.836
13396TIP3    H140129   4.654   7.396   2.799
13396TIP3    H240130   4.803   7.371   2.801
13397TIP3   OH240131   0.435   4.929   1.318
13397TIP3    H140132   0.471   5.018   1.319
13397TIP3    H240133   0.340   4.941   1.331
13398TIP3   OH240134   1.292   4.723   0.865
13398TIP3    H140135   1.283   4.632   0.892
13398TIP3    H240136   1.332   4.718   0.778
13399TIP3   OH240137   5.265   3.816   1.406
13399TIP3    H140138   5.298   3.903   1.383
13399TIP3    H240139   5.217   3.830   1.488
13400TIP3   OH240140   1.759   0.099   1.714
13400TIP3    H140141   1.849   0.087   1.743
13400TIP3    H240142   1.762   0.089   1.619
13401TIP3   OH240143   2.723   7.296   4.540
13401TIP3    H140144   2.696   7.357   4.471
13401TIP3    H240145   2.699   7.340   4.622
13402TIP3   OH240146   3.925   3.681   0.686
13402TIP3    H140147   4.001   3.713   0.735
13402TIP3    H240148   3.912   3.746   0.617
13403TIP3   OH240149   5.297   4.881   4.098
13403TIP3    H140150   5.294   4.821   4.172
13403TIP3    H240151   5.210   4.919   4.094
13404TIP3   OH240152   5.215   1.849   1.742
13404TIP3    H140153   5.279   1.920   1.747
13404TIP3    H240154   5.265   1.773   1.710
13405TIP3   OH240155   2.428   1.587   2.756
13405TIP3    H140156   2.344   1.570   2.713
13405TIP3    H240157   2.440   1.511   2.814
13406TIP3   OH240158   3.628   2.403   6.181
13406TIP3    H140159   3.604   2.496   6.177
13406TIP3    H240160   3.607   2.377   6.271
13407TIP3   OH240161   1.562   0.244   5.771
13407TIP3    H140162   1.536   0.317   5.715
13407TIP3    H240163   1.576   0.171   5.710
13408TIP3   OH240164   3.267   1.110   5.001
13408TIP3    H140165   3.342   1.125   5.058
13408TIP3    H240166   3.219   1.193   5.003
13409TIP3   OH240167   1.741   5.761   0.219
13409TIP3    H140168   1.767   5.669   0.226
13409TIP3    H240169   1.677   5.762   0.148
13410TIP3   OH240170   7.272   4.827   5.638
13410TIP3    H140171   7.195   4.811   5.693
13410TIP3    H240172   7.343   4.840   5.700
13411TIP3   OH240173   5.238   6.941   1.412
13411TIP3    H140174   5.220   6.964   1.503
13411TIP3    H240175   5.273   6.852   1.415
13412TIP3   OH240176   8.236   1.310   1.670
13412TIP3    H140177   8.211   1.282   1.582
13412TIP3    H240178   8.260   1.402   1.660
13413TIP3   OH240179   3.830   4.258   6.714
13413TIP3    H140180   3.756   4.242   6.656
13413TIP3    H240181   3.802   4.226   6.799
13414TIP3   OH240182   1.168   6.522   4.115
13414TIP3    H140183   1.247   6.479   4.149
13414TIP3    H240184   1.101   6.454   4.116
13415TIP3   OH240185   6.941   1.220   3.718
13415TIP3    H140186   7.036   1.227   3.709
13415TIP3    H240187   6.907   1.246   3.632
13416TIP3   OH240188   8.329   0.864   6.421
13416TIP3    H140189   8.359   0.942   6.373
13416TIP3    H240190   8.339   0.888   6.513
13417TIP3   OH240191   3.666   3.261   1.968
13417TIP3    H140192   3.587   3.315   1.956
13417TIP3    H240193   3.714   3.304   2.039
13418TIP3   OH240194   4.079   7.511   4.006
13418TIP3    H140195   4.127   7.467   3.936
13418TIP3    H240196   4.128   7.592   4.021
13419TIP3   OH240197   4.170   5.346   1.846
13419TIP3    H140198   4.198   5.265   1.805
13419TIP3    H240199   4.174   5.412   1.777
13420TIP3   OH240200   0.266   3.054   2.672
13420TIP3    H140201   0.217   3.127   2.710
13420TIP3    H240202   0.350   3.054   2.718
13421TIP3   OH240203   4.600   4.381   2.455
13421TIP3    H140204   4.564   4.355   2.370
13421TIP3    H240205   4.661   4.310   2.477
13422TIP3   OH240206   7.130   4.208   0.406
13422TIP3    H140207   7.138   4.115   0.424
13422TIP3    H240208   7.036   4.222   0.393
13423TIP3   OH240209   4.265   1.955   5.114
13423TIP3    H140210   4.236   2.017   5.048
13423TIP3    H240211   4.255   2.001   5.197
13424TIP3   OH240212   1.340   3.646   4.730
13424TIP3    H140213   1.306   3.674   4.645
13424TIP3    H240214   1.429   3.681   4.733
13425TIP3   OH240215   8.293   6.897   3.099
13425TIP3    H140216   8.312   6.840   3.173
13425TIP3    H240217   8.197   6.904   3.098
13426TIP3   OH240218   8.062   3.927   3.688
13426TIP3    H140219   8.138   3.971   3.727
13426TIP3    H240220   8.095   3.889   3.606
13427TIP3   OH240221   2.514   4.126   4.302
13427TIP3    H140222   2.597   4.117   4.254
13427TIP3    H240223   2.479   4.037   4.304
13428TIP3   OH240224   0.237   7.398   2.227
13428TIP3    H140225   0.226   7.354   2.312
13428TIP3    H240226   0.156   7.446   2.214
13429TIP3   OH240227   7.015   2.222   1.984
13429TIP3    H140228   6.941   2.163   1.972
13429TIP3    H240229   7.080   2.170   2.032
13430TIP3   OH240230   0.612   0.134   5.845
13430TIP3    H140231   0.692   0.165   5.889
13430TIP3    H240232   0.643   0.068   5.783
13431TIP3   OH240233   7.141   6.263   6.523
13431TIP3    H140234   7.145   6.214   6.440
13431TIP3    H240235   7.142   6.195   6.591
13432TIP3   OH240236   5.786   1.043   3.704
13432TIP3    H140237   5.841   1.072   3.777
13432TIP3    H240238   5.849   1.021   3.634
13433TIP3   OH240239   6.261   4.300   4.951
13433TIP3    H140240   6.182   4.354   4.958
13433TIP3    H240241   6.328   4.349   4.998
13434TIP3   OH240242   1.906   2.773   0.912
13434TIP3    H140243   1.876   2.684   0.892
13434TIP3    H240244   1.991   2.779   0.868
13435TIP3   OH240245   6.277   7.552   1.789
13435TIP3    H140246   6.187   7.563   1.821
13435TIP3    H240247   6.284   7.612   1.715
13436TIP3   OH240248   4.431   1.643   0.318
13436TIP3    H140249   4.363   1.593   0.273
13436TIP3    H240250   4.405   1.642   0.410
13437TIP3   OH240251   4.849   3.853   3.800
13437TIP3    H140252   4.831   3.798   3.877
13437TIP3    H240253   4.786   3.822   3.734
13438TIP3   OH240254   0.962   6.004   3.844
13438TIP3    H140255   0.969   6.019   3.939
13438TIP3    H240256   0.896   6.068   3.815
13439TIP3   OH240257   4.476   5.729   0.049
13439TIP3    H140258   4.553   5.672   0.042
13439TIP3    H240259   4.439   5.730  -0.039
13440TIP3   OH240260   1.759   3.840   3.178
13440TIP3    H140261   1.725   3.775   3.116
13440TIP3    H240262   1.771   3.919   3.125
13441TIP3   OH240263   1.309   7.482   2.785
13441TIP3    H140264   1.265   7.504   2.867
13441TIP3    H240265   1.402   7.501   2.801
13442TIP3   OH240266   1.174   5.161   4.487
13442TIP3    H140267   1.087   5.143   4.523
13442TIP3    H240268   1.171   5.252   4.459
13443TIP3   OH240269   1.671   1.087   3.953
13443TIP3    H140270   1.701   1.020   4.014
13443TIP3    H240271   1.646   1.038   3.874
13444TIP3   OH240272   0.762   5.536   4.055
13444TIP3    H140273   0.746   5.443   4.068
13444TIP3    H240274   0.687   5.579   4.095
13445TIP3   OH240275   1.954   1.903   3.350
13445TIP3    H140276   1.895   1.930   3.280
13445TIP3    H240277   1.974   1.983   3.398
13446TIP3   OH240278   1.537   0.972   3.442
13446TIP3    H140279   1.457   0.923   3.464
13446TIP3    H240280   1.507   1.062   3.428
13447TIP3   OH240281   4.924   4.418   3.770
13447TIP3    H140282   4.985   4.358   3.813
13447TIP3    H240283   4.900   4.481   3.838
13448TIP3   OH240284   5.140   6.667   0.958
13448TIP3    H140285   5.162   6.620   0.878
13448TIP3    H240286   5.221   6.710   0.984
13449TIP3   OH240287   8.373   1.214   1.196
13449TIP3    H140288   8.334   1.301   1.194
13449TIP3    H240289   8.344   1.172   1.116
13450TIP3   OH240290   3.594   3.841   2.799
13450TIP3    H140291   3.520   3.794   2.761
13450TIP3    H240292   3.563   3.930   2.813
13451TIP3   OH240293   3.712   6.697   1.812
13451TIP3    H140294   3.725   6.738   1.897
13451TIP3    H240295   3.673   6.766   1.758
13452TIP3   OH240296   6.773   3.266   4.089
13452TIP3    H140297   6.756   3.175   4.063
13452TIP3    H240298   6.857   3.287   4.049
13453TIP3   OH240299   1.194   0.722   1.243
13453TIP3    H140300   1.120   0.670   1.213
13453TIP3    H240301   1.256   0.657   1.278
13454TIP3   OH240302   7.230   5.688   1.570
13454TIP3    H140303   7.204   5.731   1.651
13454TIP3    H240304   7.322   5.663   1.584
13455TIP3   OH240305   2.233   0.352   3.332
13455TIP3    H140306   2.305   0.303   3.372
13455TIP3    H240307   2.226   0.431   3.385
13456TIP3   OH240308   2.951   4.962   4.608
13456TIP3    H140309   2.885   4.979   4.541
13456TIP3    H240310   3.029   4.935   4.558
13457TIP3   OH240311   4.114   0.701   5.015
13457TIP3    H140312   4.202   0.666   5.026
13457TIP3    H240313   4.117   0.746   4.930
13458TIP3   OH240314   0.727   5.279   0.407
13458TIP3    H140315   0.681   5.196   0.420
13458TIP3    H240316   0.678   5.324   0.339
13459TIP3   OH240317   7.212   3.333   0.699
13459TIP3    H140318   7.248   3.286   0.774
13459TIP3    H240319   7.152   3.271   0.658
13460TIP3   OH240320   7.071   7.691   2.913
13460TIP3    H140321   7.149   7.715   2.864
13460TIP3    H240322   7.003   7.750   2.881
13461TIP3   OH240323   0.467   4.325   5.829
13461TIP3    H140324   0.517   4.359   5.754
13461TIP3    H240325   0.397   4.273   5.789
13462TIP3   OH240326   0.912   2.781   5.125
13462TIP3    H140327   0.956   2.813   5.047
13462TIP3    H240328   0.873   2.698   5.099
13463TIP3   OH240329   2.084   6.777   6.131
13463TIP3    H140330   2.167   6.780   6.084
13463TIP3    H240331   2.030   6.844   6.091
13464TIP3   OH240332   0.506   6.675   5.504
13464TIP3    H140333   0.533   6.735   5.434
13464TIP3    H240334   0.422   6.710   5.534
13465TIP3   OH240335   3.147   5.143   0.493
13465TIP3    H140336   3.198   5.186   0.424
13465TIP3    H240337   3.148   5.205   0.566
13466TIP3   OH240338   4.873   7.288   1.554
13466TIP3    H140339   4.814   7.214   1.537
13466TIP3    H240340   4.845   7.321   1.639
13467TIP3   OH240341   2.379   1.436   4.137
13467TIP3    H140342   2.474   1.442   4.141
13467TIP3    H240343   2.356   1.484   4.057
13468TIP3   OH240344   1.772   3.692   5.091
13468TIP3    H140345   1.756   3.602   5.119
13468TIP3    H240346   1.823   3.730   5.163
13469TIP3   OH240347   7.145   2.394   0.132
13469TIP3    H140348   7.087   2.459   0.093
13469TIP3    H240349   7.152   2.326   0.066
13470TIP3   OH240350   0.140   7.190   5.385
13470TIP3    H140351   0.120   7.160   5.473
13470TIP3    H240352   0.218   7.140   5.360
13471TIP3   OH240353   1.353   0.223   0.888
13471TIP3    H140354   1.374   0.284   0.958
13471TIP3    H240355   1.318   0.277   0.818
13472TIP3   OH240356   4.859   6.925   0.753
13472TIP3    H140357   4.822   7.012   0.735
13472TIP3    H240358   4.899   6.899   0.670
13473TIP3   OH240359   3.905   0.299   4.305
13473TIP3    H140360   3.964   0.316   4.232
13473TIP3    H240361   3.840   0.369   4.300
13474TIP3   OH240362   4.079   1.850   2.773
13474TIP3    H140363   4.032   1.767   2.764
13474TIP3    H240364   4.152   1.844   2.712
13475TIP3   OH240365   6.921   2.515   2.062
13475TIP3    H140366   6.958   2.431   2.035
13475TIP3    H240367   6.959   2.578   2.000
13476TIP3   OH240368  -0.014   4.207   2.510
13476TIP3    H140369  -0.040   4.169   2.594
13476TIP3    H240370   0.061   4.154   2.482
13477TIP3   OH240371   6.260   3.545   0.564
13477TIP3    H140372   6.193   3.608   0.590
13477TIP3    H240373   6.336   3.599   0.542
13478TIP3   OH240374   6.435   4.633   2.611
13478TIP3    H140375   6.340   4.636   2.622
13478TIP3    H240376   6.466   4.580   2.684
13479TIP3   OH240377   0.501   5.780   1.117
13479TIP3    H140378   0.556   5.783   1.196
13479TIP3    H240379   0.417   5.816   1.145
13480TIP3   OH240380   6.383   2.981   0.911
13480TIP3    H140381   6.423   2.968   0.825
13480TIP3    H240382   6.413   3.068   0.939
13481TIP3   OH240383   7.870   3.240   3.881
13481TIP3    H140384   7.840   3.155   3.849
13481TIP3    H240385   7.832   3.304   3.821
13482TIP3   OH240386   3.329   5.793   3.390
13482TIP3    H140387   3.374   5.713   3.417
13482TIP3    H240388   3.400   5.854   3.369
13483TIP3   OH240389   5.141   1.229   1.349
13483TIP3    H140390   5.198   1.159   1.380
13483TIP3    H240391   5.172   1.247   1.260
13484TIP3   OH240392   0.479   1.853   3.188
13484TIP3    H140393   0.453   1.858   3.096
13484TIP3    H240394   0.558   1.907   3.193
13485TIP3   OH240395   0.516   3.899   3.457
13485TIP3    H140396   0.473   3.983   3.472
13485TIP3    H240397   0.533   3.865   3.545
13486TIP3   OH240398   3.455   1.532   0.388
13486TIP3    H140399   3.529   1.508   0.445
13486TIP3    H240400   3.480   1.617   0.351
13487TIP3   OH240401   6.238   7.558   4.325
13487TIP3    H140402   6.256   7.514   4.408
13487TIP3    H240403   6.261   7.650   4.341
13488TIP3   OH240404   6.568   6.460   6.815
13488TIP3    H140405   6.649   6.511   6.806
13488TIP3    H240406   6.538   6.479   6.904
13489TIP3   OH240407   1.948   7.374   6.167
13489TIP3    H140408   1.962   7.443   6.232
13489TIP3    H240409   2.020   7.385   6.105
13490TIP3   OH240410   0.502   2.102   6.795
13490TIP3    H140411   0.416   2.114   6.756
13490TIP3    H240412   0.551   2.180   6.770
13491TIP3   OH240413   3.713   1.100   6.634
13491TIP3    H140414   3.648   1.160   6.670
13491TIP3    H240415   3.673   1.067   6.553
13492TIP3   OH240416   5.046   5.813   0.284
13492TIP3    H140417   5.017   5.790   0.373
13492TIP3    H240418   5.099   5.892   0.297
13493TIP3   OH240419   5.293   0.630   4.369
13493TIP3    H140420   5.305   0.708   4.422
13493TIP3    H240421   5.348   0.563   4.410
13494TIP3   OH240422   6.868   2.942   2.623
13494TIP3    H140423   6.819   2.991   2.557
13494TIP3    H240424   6.804   2.882   2.661
13495TIP3   OH240425   5.436   3.293   3.789
13495TIP3    H140426   5.507   3.263   3.733
13495TIP3    H240427   5.430   3.227   3.858
13496TIP3   OH240428   8.021   1.407   0.165
13496TIP3    H140429   8.003   1.423   0.257
13496TIP3    H240430   7.936   1.387   0.126
13497TIP3   OH240431   5.174   3.606   0.514
13497TIP3    H140432   5.249   3.551   0.497
13497TIP3    H240433   5.106   3.574   0.454
13498TIP3   OH240434   7.091   3.741   0.622
13498TIP3    H140435   7.041   3.715   0.700
13498TIP3    H240436   7.082   3.667   0.562
13499TIP3   OH240437   5.704   2.096   2.752
13499TIP3    H140438   5.700   2.187   2.782
13499TIP3    H240439   5.697   2.103   2.656
13500TIP3   OH240440   0.645   4.069   2.796
13500TIP3    H140441   0.589   4.108   2.729
13500TIP3    H240442   0.591   4.000   2.835
13501TIP3   OH240443   7.048   4.301   4.139
13501TIP3    H140444   7.020   4.347   4.060
13501TIP3    H240445   7.006   4.349   4.210
13502TIP3   OH240446   6.083   4.227   4.091
13502TIP3    H140447   6.078   4.260   4.001
13502TIP3    H240448   6.008   4.168   4.099
13503TIP3   OH240449   6.740   1.473   6.102
13503TIP3    H140450   6.813   1.480   6.040
13503TIP3    H240451   6.728   1.562   6.134
13504TIP3   OH240452   5.555   5.860   1.924
13504TIP3    H140453   5.510   5.777   1.906
13504TIP3    H240454   5.484   5.922   1.940
13505TIP3   OH240455   7.547   6.353   4.662
13505TIP3    H140456   7.572   6.346   4.570
13505TIP3    H240457   7.629   6.375   4.707
13506TIP3   OH240458   5.874   3.052   4.200
13506TIP3    H140459   5.944   3.102   4.241
13506TIP3    H240460   5.883   3.070   4.106
13507TIP3   OH240461   5.621   2.652   2.831
13507TIP3    H140462   5.554   2.695   2.884
13507TIP3    H240463   5.703   2.669   2.876
13508TIP3   OH240464   6.045   3.804   2.809
13508TIP3    H140465   6.023   3.712   2.823
13508TIP3    H240466   6.139   3.804   2.794
13509TIP3   OH240467   5.274   2.296   4.736
13509TIP3    H140468   5.192   2.270   4.778
13509TIP3    H240469   5.254   2.381   4.696
13510TIP3   OH240470   5.634   0.337   3.544
13510TIP3    H140471   5.577   0.329   3.467
13510TIP3    H240472   5.639   0.431   3.560
13511TIP3   OH240473   3.442   6.867   1.219
13511TIP3    H140474   3.395   6.785   1.204
13511TIP3    H240475   3.475   6.860   1.308
13512TIP3   OH240476   4.247   5.221   5.851
13512TIP3    H140477   4.207   5.249   5.768
13512TIP3    H240478   4.199   5.141   5.874
13513TIP3   OH240479   6.755   4.877   5.789
13513TIP3    H140480   6.796   4.855   5.706
13513TIP3    H240481   6.811   4.946   5.826
13514TIP3   OH240482   2.511   1.369   3.831
13514TIP3    H140483   2.564   1.368   3.751
13514TIP3    H240484   2.564   1.416   3.895
13515TIP3   OH240485   2.406   3.405   6.773
13515TIP3    H140486   2.359   3.322   6.772
13515TIP3    H240487   2.490   3.386   6.732
13516TIP3   OH240488   1.033   4.379   2.435
13516TIP3    H140489   1.077   4.444   2.381
13516TIP3    H240490   0.949   4.419   2.457
13517TIP3   OH240491   0.602   7.873   5.956
13517TIP3    H140492   0.548   7.875   5.878
13517TIP3    H240493   0.578   7.792   6.000
13518TIP3   OH240494   3.550   4.779   6.455
13518TIP3    H140495   3.625   4.729   6.486
13518TIP3    H240496   3.536   4.845   6.524
13519TIP3   OH240497   6.954   4.347   2.767
13519TIP3    H140498   6.964   4.426   2.714
13519TIP3    H240499   6.915   4.283   2.707
13520TIP3   OH240500   5.570   2.818   5.750
13520TIP3    H140501   5.543   2.910   5.759
13520TIP3    H240502   5.523   2.787   5.673
13521TIP3   OH240503   4.538   4.000   1.349
13521TIP3    H140504   4.581   4.026   1.430
13521TIP3    H240505   4.609   3.994   1.285
13522TIP3   OH240506   6.826   4.383   3.962
13522TIP3    H140507   6.791   4.370   4.050
13522TIP3    H240508   6.758   4.351   3.904
13523TIP3   OH240509   7.779   3.037   6.690
13523TIP3    H140510   7.747   3.080   6.770
13523TIP3    H240511   7.729   3.077   6.619
13524TIP3   OH240512   4.878   6.878   5.311
13524TIP3    H140513   4.890   6.959   5.263
13524TIP3    H240514   4.848   6.815   5.245
13525TIP3   OH240515   1.646   2.772   1.116
13525TIP3    H140516   1.729   2.740   1.151
13525TIP3    H240517   1.629   2.853   1.164
13526TIP3   OH240518   6.471   0.381   0.408
13526TIP3    H140519   6.455   0.473   0.386
13526TIP3    H240520   6.443   0.333   0.330
13527TIP3   OH240521   6.498   7.443   3.944
13527TIP3    H140522   6.407   7.413   3.944
13527TIP3    H240523   6.499   7.517   4.004
13528TIP3   OH240524   8.215   1.691   6.544
13528TIP3    H140525   8.246   1.702   6.634
13528TIP3    H240526   8.263   1.614   6.512
13529TIP3   OH240527   0.482   1.092   5.088
13529TIP3    H140528   0.504   1.117   4.998
13529TIP3    H240529   0.405   1.145   5.110
13530TIP3   OH240530   5.489   7.563   4.865
13530TIP3    H140531   5.415   7.582   4.808
13530TIP3    H240532   5.552   7.518   4.808
13531TIP3   OH240533   2.136   7.917   5.769
13531TIP3    H140534   2.175   7.861   5.702
13531TIP3    H240535   2.142   7.866   5.850
13532TIP3   OH240536   7.054   3.711   2.395
13532TIP3    H140537   7.090   3.799   2.405
13532TIP3    H240538   7.030   3.706   2.302
13533TIP3   OH240539   7.954   2.183   5.298
13533TIP3    H140540   8.004   2.172   5.380
13533TIP3    H240541   8.021   2.201   5.232
13534TIP3   OH240542   5.739   1.209   5.745
13534TIP3    H140543   5.667   1.159   5.707
13534TIP3    H240544   5.811   1.145   5.752
13535TIP3   OH240545   0.093   3.566   6.462
13535TIP3    H140546   0.110   3.494   6.401
13535TIP3    H240547   0.150   3.548   6.537
13536TIP3   OH240548   7.526   5.048   6.025
13536TIP3    H140549   7.433   5.025   6.026
13536TIP3    H240550   7.560   5.012   6.107
13537TIP3   OH240551   5.807   7.270   4.861
13537TIP3    H140552   5.798   7.346   4.804
13537TIP3    H240553   5.792   7.195   4.803
13538TIP3   OH240554   0.822   3.285   3.609
13538TIP3    H140555   0.783   3.307   3.525
13538TIP3    H240556   0.752   3.242   3.658
13539TIP3   OH240557   5.197   4.070   1.134
13539TIP3    H140558   5.229   4.097   1.048
13539TIP3    H240559   5.267   4.096   1.194
13540TIP3   OH240560   6.068   1.625   6.515
13540TIP3    H140561   6.059   1.699   6.455
13540TIP3    H240562   6.088   1.551   6.457
13541TIP3   OH240563   1.716   0.397   2.899
13541TIP3    H140564   1.647   0.371   2.960
13541TIP3    H240565   1.693   0.356   2.816
13542TIP3   OH240566   4.983   2.445   5.408
13542TIP3    H140567   5.006   2.437   5.501
13542TIP3    H240568   5.027   2.372   5.366
13543TIP3   OH240569   3.390   4.145   4.953
13543TIP3    H140570   3.482   4.131   4.974
13543TIP3    H240571   3.389   4.229   4.907
13544TIP3   OH240572   6.356   1.300   6.085
13544TIP3    H140573   6.317   1.228   6.134
13544TIP3    H240574   6.282   1.352   6.055
13545TIP3   OH240575   4.967   0.850   4.140
13545TIP3    H140576   5.003   0.779   4.193
13545TIP3    H240577   4.976   0.820   4.049
13546TIP3   OH240578   6.620   7.186   0.586
13546TIP3    H140579   6.639   7.276   0.561
13546TIP3    H240580   6.682   7.167   0.658
13547TIP3   OH240581   6.399  -0.023   6.335
13547TIP3    H140582   6.428   0.056   6.289
13547TIP3    H240583   6.323   0.006   6.386
13548TIP3   OH240584   4.869   6.761   4.529
13548TIP3    H140585   4.797   6.748   4.590
13548TIP3    H240586   4.838   6.826   4.467
13549TIP3   OH240587   7.136   5.251   0.465
13549TIP3    H140588   7.179   5.191   0.404
13549TIP3    H240589   7.199   5.321   0.479
13550TIP3   OH240590   8.081   4.879   1.484
13550TIP3    H140591   8.164   4.923   1.464
13550TIP3    H240592   8.053   4.918   1.567
13551TIP3   OH240593   5.029   4.599   2.169
13551TIP3    H140594   5.002   4.549   2.245
13551TIP3    H240595   5.062   4.534   2.107
13552TIP3   OH240596   0.249   2.345   0.099
13552TIP3    H140597   0.276   2.367   0.188
13552TIP3    H240598   0.331   2.320   0.054
13553TIP3   OH240599   2.029   0.376   1.944
13553TIP3    H140600   2.023   0.462   1.985
13553TIP3    H240601   1.989   0.316   2.007
13554TIP3   OH240602   4.968   0.686   0.888
13554TIP3    H140603   4.987   0.603   0.932
13554TIP3    H240604   5.019   0.751   0.937
13555TIP3   OH240605   3.900   0.821   3.608
13555TIP3    H140606   3.809   0.807   3.634
13555TIP3    H240607   3.922   0.907   3.642
13556TIP3   OH240608   2.516   0.498   2.271
13556TIP3    H140609   2.549   0.551   2.343
13556TIP3    H240610   2.581   0.428   2.262
13557TIP3   OH240611   6.327   2.472   4.159
13557TIP3    H140612   6.235   2.462   4.133
13557TIP3    H240613   6.335   2.424   4.241
13558TIP3   OH240614   3.237   6.390   2.059
13558TIP3    H140615   3.231   6.468   2.005
13558TIP3    H240616   3.315   6.404   2.112
13559TIP3   OH240617   0.254   7.732   1.496
13559TIP3    H140618   0.314   7.806   1.505
13559TIP3    H240619   0.178   7.757   1.549
13560TIP3   OH240620   7.652   1.389   3.959
13560TIP3    H140621   7.629   1.476   3.993
13560TIP3    H240622   7.568   1.353   3.929
13561TIP3   OH240623   3.798   6.643   5.052
13561TIP3    H140624   3.853   6.643   4.973
13561TIP3    H240625   3.741   6.567   5.041
13562TIP3   OH240626   0.912   2.070   2.188
13562TIP3    H140627   0.900   2.164   2.203
13562TIP3    H240628   0.824   2.033   2.193
13563TIP3   OH240629   2.209   1.372   5.761
13563TIP3    H140630   2.305   1.372   5.765
13563TIP3    H240631   2.190   1.379   5.667
13564TIP3   OH240632   4.815   3.693   6.842
13564TIP3    H140633   4.807   3.667   6.750
13564TIP3    H240634   4.845   3.614   6.887
13565TIP3   OH240635   4.100   1.274   4.849
13565TIP3    H140636   4.067   1.331   4.779
13565TIP3    H240637   4.028   1.268   4.911
13566TIP3   OH240638   1.317   0.912   3.049
13566TIP3    H140639   1.399   0.955   3.022
13566TIP3    H240640   1.344   0.824   3.075
13567TIP3   OH240641   0.354   1.092  -0.005
13567TIP3    H140642   0.291   1.139   0.050
13567TIP3    H240643   0.434   1.145   0.000
13568TIP3   OH240644   7.425   0.653   1.471
13568TIP3    H140645   7.434   0.597   1.548
13568TIP3    H240646   7.455   0.739   1.499
13569TIP3   OH240647   6.809   4.100   5.965
13569TIP3    H140648   6.731   4.135   5.923
13569TIP3    H240649   6.800   4.005   5.955
13570TIP3   OH240650   0.024   2.052   1.929
13570TIP3    H140651  -0.069   2.032   1.940
13570TIP3    H240652   0.068   1.967   1.939
13571TIP3   OH240653   3.394   1.689   2.427
13571TIP3    H140654   3.401   1.688   2.522
13571TIP3    H240655   3.457   1.756   2.399
13572TIP3   OH240656   1.930   6.995   5.386
13572TIP3    H140657   1.924   6.899   5.390
13572TIP3    H240658   2.023   7.013   5.379
13573TIP3   OH240659   5.149   4.395   4.998
13573TIP3    H140660   5.130   4.372   5.089
13573TIP3    H240661   5.214   4.330   4.970
13574TIP3   OH240662   4.951   7.374   6.330
13574TIP3    H140663   4.902   7.327   6.263
13574TIP3    H240664   4.949   7.465   6.300
13575TIP3   OH240665   0.183   0.394   1.837
13575TIP3    H140666   0.175   0.483   1.872
13575TIP3    H240667   0.120   0.342   1.888
13576TIP3   OH240668   2.447   6.650   4.824
13576TIP3    H140669   2.510   6.578   4.832
13576TIP3    H240670   2.479   6.702   4.750
13577TIP3   OH240671   4.914   3.672   2.271
13577TIP3    H140672   4.844   3.639   2.328
13577TIP3    H240673   4.963   3.732   2.326
13578TIP3   OH240674   0.911   0.133   1.507
13578TIP3    H140675   0.989   0.121   1.561
13578TIP3    H240676   0.857   0.194   1.557
13579TIP3   OH240677   2.255   1.989   2.615
13579TIP3    H140678   2.161   1.971   2.612
13579TIP3    H240679   2.290   1.941   2.540
13580TIP3   OH240680   8.009   1.800   2.982
13580TIP3    H140681   7.935   1.746   3.008
13580TIP3    H240682   7.970   1.880   2.946
13581TIP3   OH240683   0.735   4.734   2.805
13581TIP3    H140684   0.758   4.817   2.846
13581TIP3    H240685   0.714   4.757   2.714
13582TIP3   OH240686   4.550   6.487   1.597
13582TIP3    H140687   4.620   6.483   1.532
13582TIP3    H240688   4.471   6.463   1.548
13583TIP3   OH240689   3.556   6.111   6.676
13583TIP3    H140690   3.613   6.187   6.689
13583TIP3    H240691   3.556   6.067   6.760
13584TIP3   OH240692   0.980   2.851   2.089
13584TIP3    H140693   1.067   2.824   2.117
13584TIP3    H240694   0.990   2.944   2.068
13585TIP3   OH240695   5.298   0.786   6.679
13585TIP3    H140696   5.383   0.757   6.713
13585TIP3    H240697   5.318   0.867   6.632
13586TIP3   OH240698   7.291   1.664   3.169
13586TIP3    H140699   7.285   1.616   3.086
13586TIP3    H240700   7.370   1.717   3.160
13587TIP3   OH240701   3.760   1.261   4.573
13587TIP3    H140702   3.836   1.310   4.544
13587TIP3    H240703   3.686   1.302   4.529
13588TIP3   OH240704   6.025   4.830   4.564
13588TIP3    H140705   5.951   4.805   4.508
13588TIP3    H240706   6.049   4.918   4.535
13589TIP3   OH240707   3.493   2.194   0.568
13589TIP3    H140708   3.449   2.179   0.651
13589TIP3    H240709   3.455   2.275   0.534
13590TIP3   OH240710   6.625   1.372   2.622
13590TIP3    H140711   6.617   1.332   2.536
13590TIP3    H240712   6.719   1.374   2.640
13591TIP3   OH240713   8.216   2.391   3.440
13591TIP3    H140714   8.304   2.383   3.402
13591TIP3    H240715   8.231   2.415   3.531
13592TIP3   OH240716   2.975   1.437   0.482
13592TIP3    H140717   2.933   1.461   0.399
13592TIP3    H240718   2.947   1.347   0.497
13593TIP3   OH240719   2.542   3.061   4.716
13593TIP3    H140720   2.510   3.011   4.790
13593TIP3    H240721   2.610   3.007   4.677
13594TIP3   OH240722   5.992   5.623   5.181
13594TIP3    H140723   5.915   5.579   5.217
13594TIP3    H240724   5.972   5.717   5.189
13595TIP3   OH240725   2.830   7.543   2.979
13595TIP3    H140726   2.826   7.628   3.023
13595TIP3    H240727   2.785   7.556   2.896
13596TIP3   OH240728   0.426   7.418   5.160
13596TIP3    H140729   0.393   7.453   5.242
13596TIP3    H240730   0.516   7.391   5.179
13597TIP3   OH240731   7.288   3.919   2.365
13597TIP3    H140732   7.383   3.913   2.375
13597TIP3    H240733   7.260   3.976   2.436
13598TIP3   OH240734   7.845   2.745   5.192
13598TIP3    H140735   7.869   2.686   5.264
13598TIP3    H240736   7.764   2.708   5.157
13599TIP3   OH240737   3.248   6.140   2.845
13599TIP3    H140738   3.162   6.155   2.884
13599TIP3    H240739   3.277   6.226   2.816
13600TIP3   OH240740   0.127   7.135   4.049
13600TIP3    H140741   0.222   7.140   4.062
13600TIP3    H240742   0.090   7.157   4.135
13601TIP3   OH240743   5.032   6.831   0.535
13601TIP3    H140744   5.062   6.863   0.450
13601TIP3    H240745   5.106   6.847   0.594
13602TIP3   OH240746   1.395   3.795   4.188
13602TIP3    H140747   1.372   3.775   4.097
13602TIP3    H240748   1.419   3.887   4.188
13603TIP3   OH240749   7.259   0.013   4.968
13603TIP3    H140750   7.286   0.012   5.060
13603TIP3    H240751   7.190   0.079   4.964
13604TIP3   OH240752   5.727   5.929   5.053
13604TIP3    H140753   5.815   5.909   5.087
13604TIP3    H240754   5.742   5.958   4.963
13605TIP3   OH240755   8.163   0.516   2.475
13605TIP3    H140756   8.152   0.440   2.418
13605TIP3    H240757   8.113   0.494   2.554
13606TIP3   OH240758   4.962   7.861   1.536
13606TIP3    H140759   4.889   7.870   1.475
13606TIP3    H240760   4.922   7.865   1.623
13607TIP3   OH240761   0.396   7.219   4.005
13607TIP3    H140762   0.468   7.184   3.951
13607TIP3    H240763   0.438   7.246   4.086
13608TIP3   OH240764   8.179   0.776   2.576
13608TIP3    H140765   8.274   0.784   2.588
13608TIP3    H240766   8.169   0.700   2.519
13609TIP3   OH240767   0.980   1.883   2.421
13609TIP3    H140768   0.975   1.951   2.353
13609TIP3    H240769   1.064   1.899   2.465
13610TIP3   OH240770   4.824   6.212   6.678
13610TIP3    H140771   4.810   6.219   6.583
13610TIP3    H240772   4.916   6.188   6.687
13611TIP3   OH240773   2.850   4.362   5.686
13611TIP3    H140774   2.855   4.286   5.744
13611TIP3    H240775   2.937   4.368   5.645
13612TIP3   OH240776   2.516   2.915   0.818
13612TIP3    H140777   2.576   2.989   0.820
13612TIP3    H240778   2.561   2.849   0.765
13613TIP3   OH240779   1.750   4.599   3.848
13613TIP3    H140780   1.839   4.616   3.817
13613TIP3    H240781   1.699   4.673   3.815
13614TIP3   OH240782   2.728   4.153   5.914
13614TIP3    H140783   2.639   4.174   5.943
13614TIP3    H240784   2.771   4.117   5.992
13615TIP3   OH240785   5.459   6.650   3.743
13615TIP3    H140786   5.481   6.714   3.811
13615TIP3    H240787   5.379   6.685   3.703
13616TIP3   OH240788   5.228   7.231   3.165
13616TIP3    H140789   5.240   7.326   3.164
13616TIP3    H240790   5.296   7.199   3.224
13617TIP3   OH240791   5.933   1.940   6.658
13617TIP3    H140792   5.956   1.898   6.576
13617TIP3    H240793   6.017   1.970   6.695
13618TIP3   OH240794   1.813   1.396   5.636
13618TIP3    H140795   1.736   1.424   5.685
13618TIP3    H240796   1.784   1.320   5.587
13619TIP3   OH240797   3.859   4.960   4.566
13619TIP3    H140798   3.836   4.943   4.657
13619TIP3    H240799   3.830   5.050   4.550
13620TIP3   OH240800   3.040   1.836   5.396
13620TIP3    H140801   2.947   1.856   5.411
13620TIP3    H240802   3.064   1.779   5.470
13621TIP3   OH240803   5.649   5.532   3.832
13621TIP3    H140804   5.641   5.618   3.873
13621TIP3    H240805   5.699   5.548   3.752
13622TIP3   OH240806   2.840   1.782   5.730
13622TIP3    H140807   2.910   1.745   5.676
13622TIP3    H240808   2.800   1.848   5.674
13623TIP3   OH240809   2.487   4.513   2.741
13623TIP3    H140810   2.392   4.526   2.734
13623TIP3    H240811   2.515   4.494   2.651
13624TIP3   OH240812   4.377   6.030   4.597
13624TIP3    H140813   4.323   6.109   4.611
13624TIP3    H240814   4.322   5.973   4.544
13625TIP3   OH240815   3.408   6.669   3.231
13625TIP3    H140816   3.399   6.764   3.245
13625TIP3    H240817   3.336   6.630   3.281
13626TIP3   OH240818   2.826   4.925   6.676
13626TIP3    H140819   2.821   4.849   6.733
13626TIP3    H240820   2.790   4.997   6.728
13627TIP3   OH240821   6.904   7.454   5.700
13627TIP3    H140822   6.839   7.472   5.767
13627TIP3    H240823   6.877   7.370   5.662
13628TIP3   OH240824   2.424   4.126   2.768
13628TIP3    H140825   2.503   4.173   2.743
13628TIP3    H240826   2.370   4.191   2.813
13629TIP3   OH240827   2.381   7.506   2.972
13629TIP3    H140828   2.384   7.601   2.957
13629TIP3    H240829   2.432   7.493   3.052
13630TIP3   OH240830   3.559   2.760   4.789
13630TIP3    H140831   3.517   2.816   4.722
13630TIP3    H240832   3.653   2.774   4.776
13631TIP3   OH240833   1.843   6.852   2.189
13631TIP3    H140834   1.860   6.930   2.136
13631TIP3    H240835   1.859   6.779   2.130
13632TIP3   OH240836   3.090   6.105   2.524
13632TIP3    H140837   3.157   6.104   2.592
13632TIP3    H240838   3.048   6.019   2.529
13633TIP3   OH240839   7.329   5.050   5.175
13633TIP3    H140840   7.350   5.141   5.154
13633TIP3    H240841   7.346   5.002   5.094
13634TIP3   OH240842   3.608   0.485   3.034
13634TIP3    H140843   3.598   0.404   3.084
13634TIP3    H240844   3.550   0.474   2.959
13635TIP3   OH240845   5.944   7.000   0.591
13635TIP3    H140846   5.958   7.084   0.548
13635TIP3    H240847   5.978   6.935   0.530
13636TIP3   OH240848   1.902   5.003   3.311
13636TIP3    H140849   1.929   4.988   3.401
13636TIP3    H240850   1.808   4.988   3.311
13637TIP3   OH240851   3.565   3.576   0.641
13637TIP3    H140852   3.510   3.650   0.614
13637TIP3    H240853   3.643   3.616   0.679
13638TIP3   OH240854   5.587   0.295   2.907
13638TIP3    H140855   5.600   0.347   2.986
13638TIP3    H240856   5.633   0.213   2.924
13639TIP3   OH240857   5.830   5.801   0.502
13639TIP3    H140858   5.918   5.795   0.539
13639TIP3    H240859   5.774   5.757   0.565
13640TIP3   OH240860   4.389   6.052   6.496
13640TIP3    H140861   4.410   6.002   6.417
13640TIP3    H240862   4.345   6.131   6.463
13641TIP3   OH240863   1.046   0.251   3.519
13641TIP3    H140864   1.123   0.205   3.554
13641TIP3    H240865   1.005   0.186   3.462
13642TIP3   OH240866   6.131   1.107   6.051
13642TIP3    H140867   6.051   1.131   6.098
13642TIP3    H240868   6.134   1.168   5.977
13643TIP3   OH240869   0.671   3.513   6.089
13643TIP3    H140870   0.669   3.578   6.019
13643TIP3    H240871   0.580   3.482   6.095
13644TIP3   OH240872   5.370   4.833   4.652
13644TIP3    H140873   5.310   4.760   4.644
13644TIP3    H240874   5.314   4.909   4.664
13645TIP3   OH240875   4.846   2.755   2.947
13645TIP3    H140876   4.855   2.771   3.041
13645TIP3    H240877   4.917   2.694   2.926
13646TIP3   OH240878   3.677   4.016   6.617
13646TIP3    H140879   3.630   4.048   6.540
13646TIP3    H240880   3.614   3.959   6.661
13647TIP3   OH240881   7.789   6.840   2.875
13647TIP3    H140882   7.738   6.772   2.831
13647TIP3    H240883   7.860   6.792   2.918
13648TIP3   OH240884   0.541   7.596   2.276
13648TIP3    H140885   0.505   7.546   2.349
13648TIP3    H240886   0.510   7.550   2.198
13649TIP3   OH240887   2.223   2.627   2.609
13649TIP3    H140888   2.269   2.572   2.545
13649TIP3    H240889   2.276   2.706   2.616
13650TIP3   OH240890   5.770   3.199   2.592
13650TIP3    H140891   5.707   3.172   2.659
13650TIP3    H240892   5.853   3.162   2.623
13651TIP3   OH240893   1.263   1.761   1.998
13651TIP3    H140894   1.257   1.847   2.041
13651TIP3    H240895   1.191   1.711   2.036
13652TIP3   OH240896   2.537   1.093   0.528
13652TIP3    H140897   2.534   1.184   0.499
13652TIP3    H240898   2.618   1.059   0.491
13653TIP3   OH240899   5.664   1.198   0.243
13653TIP3    H140900   5.711   1.281   0.237
13653TIP3    H240901   5.575   1.223   0.269
13654TIP3   OH240902   6.381   1.745   3.555
13654TIP3    H140903   6.451   1.704   3.606
13654TIP3    H240904   6.400   1.838   3.558
13655TIP3   OH240905   8.115   0.344   5.533
13655TIP3    H140906   8.115   0.390   5.448
13655TIP3    H240907   8.024   0.318   5.546
13656TIP3   OH240908   5.225   4.318   4.582
13656TIP3    H140909   5.262   4.255   4.520
13656TIP3    H240910   5.161   4.268   4.633
13657TIP3   OH240911   2.312   6.944   4.903
13657TIP3    H140912   2.365   6.897   4.838
13657TIP3    H240913   2.227   6.902   4.900
13658TIP3   OH240914   7.014   1.750   0.990
13658TIP3    H140915   7.007   1.845   1.001
13658TIP3    H240916   7.089   1.725   1.043
13659TIP3   OH240917   0.022   5.501   4.428
13659TIP3    H140918   0.092   5.549   4.472
13659TIP3    H240919  -0.053   5.560   4.429
13660TIP3   OH240920   0.942   1.568   0.740
13660TIP3    H140921   0.960   1.489   0.689
13660TIP3    H240922   0.947   1.540   0.832
13661TIP3   OH240923   4.673   0.242   2.828
13661TIP3    H140924   4.757   0.289   2.831
13661TIP3    H240925   4.610   0.302   2.868
13662TIP3   OH240926   6.714   7.345   4.286
13662TIP3    H140927   6.630   7.345   4.241
13662TIP3    H240928   6.719   7.431   4.328
13663TIP3   OH240929   2.259   0.444   2.333
13663TIP3    H140930   2.344   0.461   2.292
13663TIP3    H240931   2.231   0.360   2.296
13664TIP3   OH240932   4.054   4.170   4.398
13664TIP3    H140933   3.988   4.110   4.364
13664TIP3    H240934   4.115   4.115   4.447
13665TIP3   OH240935   6.071   7.715   1.835
13665TIP3    H140936   5.988   7.685   1.873
13665TIP3    H240937   6.107   7.774   1.901
13666TIP3   OH240938   2.424   5.952   3.395
13666TIP3    H140939   2.437   5.908   3.479
13666TIP3    H240940   2.423   6.045   3.417
13667TIP3   OH240941   6.330   7.239   5.169
13667TIP3    H140942   6.337   7.186   5.089
13667TIP3    H240943   6.298   7.324   5.139
13668TIP3   OH240944   5.924   4.985   5.355
13668TIP3    H140945   5.855   5.018   5.414
13668TIP3    H240946   5.930   5.051   5.286
13669TIP3   OH240947   5.760   6.641   0.791
13669TIP3    H140948   5.780   6.691   0.712
13669TIP3    H240949   5.707   6.567   0.760
13670TIP3   OH240950   3.183   7.329   0.520
13670TIP3    H140951   3.178   7.408   0.466
13670TIP3    H240952   3.218   7.360   0.604
13671TIP3   OH240953   3.348   1.229   1.828
13671TIP3    H140954   3.313   1.229   1.918
13671TIP3    H240955   3.305   1.154   1.786
13672TIP3   OH240956   5.626   2.236   0.786
13672TIP3    H140957   5.710   2.201   0.757
13672TIP3    H240958   5.628   2.328   0.762
13673TIP3   OH240959   5.989   4.675   5.538
13673TIP3    H140960   5.990   4.672   5.442
13673TIP3    H240961   6.026   4.591   5.565
13674TIP3   OH240962   0.981   7.287   5.914
13674TIP3    H140963   0.897   7.331   5.902
13674TIP3    H240964   1.045   7.346   5.873
13675TIP3   OH240965   7.546   1.997   2.969
13675TIP3    H140966   7.634   2.028   2.993
13675TIP3    H240967   7.559   1.952   2.886
13676TIP3   OH240968   2.615   1.036   1.427
13676TIP3    H140969   2.555   0.966   1.400
13676TIP3    H240970   2.619   1.028   1.523
13677TIP3   OH240971   4.457   3.101   2.155
13677TIP3    H140972   4.475   3.007   2.148
13677TIP3    H240973   4.480   3.136   2.069
13678TIP3   OH240974   2.494   1.427   1.085
13678TIP3    H140975   2.475   1.386   1.170
13678TIP3    H240976   2.447   1.510   1.088
13679TIP3   OH240977   5.256   0.716   1.637
13679TIP3    H140978   5.203   0.791   1.665
13679TIP3    H240979   5.319   0.704   1.708
13680TIP3   OH240980   1.750   3.142   4.520
13680TIP3    H140981   1.691   3.163   4.593
13680TIP3    H240982   1.780   3.053   4.539
13681TIP3   OH240983   4.759   5.696   1.780
13681TIP3    H140984   4.829   5.748   1.741
13681TIP3    H240985   4.709   5.758   1.833
13682TIP3   OH240986   6.053   6.501   0.543
13682TIP3    H140987   6.010   6.491   0.459
13682TIP3    H240988   6.016   6.431   0.597
13683TIP3   OH240989   4.138   6.099   2.114
13683TIP3    H140990   4.145   6.008   2.145
13683TIP3    H240991   4.198   6.148   2.171
13684TIP3   OH240992   6.939   5.202   5.676
13684TIP3    H140993   6.846   5.196   5.696
13684TIP3    H240994   6.957   5.124   5.622
13685TIP3   OH240995   2.270   5.843   1.263
13685TIP3    H140996   2.336   5.877   1.323
13685TIP3    H240997   2.225   5.774   1.312
13686TIP3   OH240998   7.482   3.539   1.940
13686TIP3    H140999   7.436   3.574   1.864
13686TIP3    H241000   7.481   3.611   2.004
13687TIP3   OH241001   8.353   7.599   3.384
13687TIP3    H141002   8.326   7.570   3.296
13687TIP3    H241003   8.270   7.621   3.427
13688TIP3   OH241004   4.078   7.356   0.753
13688TIP3    H141005   4.058   7.269   0.790
13688TIP3    H241006   4.120   7.402   0.825
13689TIP3   OH241007   6.116   1.786   5.776
13689TIP3    H141008   6.088   1.802   5.866
13689TIP3    H241009   6.177   1.712   5.782
13690TIP3   OH241010   5.509   3.214   0.893
13690TIP3    H141011   5.426   3.238   0.934
13690TIP3    H241012   5.489   3.209   0.800
13691TIP3   OH241013   4.791   7.029   3.424
13691TIP3    H141014   4.716   6.974   3.444
13691TIP3    H241015   4.791   7.095   3.494
13692TIP3   OH241016   2.522   5.141   2.492
13692TIP3    H141017   2.469   5.076   2.538
13692TIP3    H241018   2.526   5.109   2.402
13693TIP3   OH241019   2.514   7.398   2.108
13693TIP3    H141020   2.594   7.357   2.074
13693TIP3    H241021   2.545   7.474   2.157
13694TIP3   OH241022   7.979   4.000   4.376
13694TIP3    H141023   8.054   3.998   4.317
13694TIP3    H241024   8.003   4.063   4.444
13695TIP3   OH241025   0.763   7.824   4.624
13695TIP3    H141026   0.766   7.795   4.532
13695TIP3    H241027   0.855   7.834   4.648
13696TIP3   OH241028   8.219   1.866   4.770
13696TIP3    H141029   8.153   1.804   4.740
13696TIP3    H241030   8.250   1.830   4.853
13697TIP3   OH241031   0.893   4.836   2.205
13697TIP3    H141032   0.909   4.892   2.281
13697TIP3    H241033   0.811   4.791   2.225
13698TIP3   OH241034   7.046   5.462   2.031
13698TIP3    H141035   7.035   5.366   2.030
13698TIP3    H241036   6.999   5.490   2.110
13699TIP3   OH241037   2.128   1.071   5.060
13699TIP3    H141038   2.080   1.037   4.984
13699TIP3    H241039   2.173   1.149   5.027
13700TIP3   OH241040   0.044   0.597   2.369
13700TIP3    H141041   0.052   0.635   2.457
13700TIP3    H241042  -0.040   0.630   2.336
13701TIP3   OH241043   6.518   1.518   1.395
13701TIP3    H141044   6.557   1.443   1.439
13701TIP3    H241045   6.587   1.550   1.337
13702TIP3   OH241046   3.958   5.247   0.730
13702TIP3    H141047   3.970   5.283   0.817
13702TIP3    H241048   4.046   5.227   0.699
13703TIP3   OH241049   7.707   6.527   3.243
13703TIP3    H141050   7.786   6.580   3.230
13703TIP3    H241051   7.717   6.453   3.183
13704TIP3   OH241052   1.086   2.016   5.436
13704TIP3    H141053   1.100   1.966   5.517
13704TIP3    H241054   1.006   2.066   5.452
13705TIP3   OH241055   7.247   1.249   0.692
13705TIP3    H141056   7.314   1.287   0.749
13705TIP3    H241057   7.269   1.282   0.604
13706TIP3   OH241058   7.398   6.068   2.368
13706TIP3    H141059   7.353   5.987   2.393
13706TIP3    H241060   7.475   6.072   2.425
13707TIP3   OH241061   1.777   3.666   2.475
13707TIP3    H141062   1.802   3.685   2.384
13707TIP3    H241063   1.850   3.615   2.509
13708TIP3   OH241064   0.141   2.684   3.667
13708TIP3    H141065   0.141   2.775   3.636
13708TIP3    H241066   0.224   2.648   3.636
13709TIP3   OH241067   0.192   0.050   1.118
13709TIP3    H141068   0.255   0.090   1.177
13709TIP3    H241069   0.138  -0.006   1.174
13710TIP3   OH241070   3.934   5.851   4.840
13710TIP3    H141071   4.011   5.842   4.784
13710TIP3    H241072   3.874   5.905   4.789
13711TIP3   OH241073   5.682   4.924   0.447
13711TIP3    H141074   5.763   4.887   0.482
13711TIP3    H241075   5.673   5.009   0.490
13712TIP3   OH241076   6.992   2.856   5.020
13712TIP3    H141077   6.948   2.820   4.943
13712TIP3    H241078   6.953   2.942   5.033
13713TIP3   OH241079   0.604   0.836   4.606
13713TIP3    H141080   0.585   0.902   4.539
13713TIP3    H241081   0.637   0.761   4.556
13714TIP3   OH241082   8.036   5.105   3.640
13714TIP3    H141083   8.096   5.046   3.686
13714TIP3    H241084   8.091   5.152   3.578
13715TIP3   OH241085   1.272   3.125   2.742
13715TIP3    H141086   1.246   3.216   2.754
13715TIP3    H241087   1.360   3.130   2.706
13716TIP3   OH241088   7.882   3.239   6.100
13716TIP3    H141089   7.869   3.267   6.009
13716TIP3    H241090   7.805   3.270   6.146
13717TIP3   OH241091   0.901   6.257   0.706
13717TIP3    H141092   0.946   6.262   0.791
13717TIP3    H241093   0.849   6.337   0.702
13718TIP3   OH241094   5.148   6.210   6.378
13718TIP3    H141095   5.176   6.300   6.359
13718TIP3    H241096   5.160   6.163   6.296
13719TIP3   OH241097   7.612   2.015   0.972
13719TIP3    H141098   7.617   1.922   0.950
13719TIP3    H241099   7.696   2.034   1.014
13720TIP3   OH241100   4.029   7.232   0.114
13720TIP3    H141101   3.983   7.284   0.179
13720TIP3    H241102   4.114   7.215   0.153
13721TIP3   OH241103   1.667   3.470   4.523
13721TIP3    H141104   1.761   3.451   4.521
13721TIP3    H241105   1.656   3.540   4.458
13722TIP3   OH241106   7.191   6.053   0.915
13722TIP3    H141107   7.106   6.039   0.874
13722TIP3    H241108   7.240   5.972   0.896
13723TIP3   OH241109   5.662   6.635   1.788
13723TIP3    H141110   5.739   6.668   1.834
13723TIP3    H241111   5.637   6.706   1.729
13724TIP3   OH241112   6.051   5.208   1.279
13724TIP3    H141113   6.022   5.140   1.340
13724TIP3    H241114   6.086   5.161   1.204
13725TIP3   OH241115   0.944   0.058   0.643
13725TIP3    H141116   0.871   0.094   0.694
13725TIP3    H241117   1.021   0.075   0.698
13726TIP3   OH241118   0.918   6.247   3.429
13726TIP3    H141119   1.001   6.273   3.467
13726TIP3    H241120   0.940   6.178   3.366
13727TIP3   OH241121   5.509   2.541   1.027
13727TIP3    H141122   5.439   2.547   0.962
13727TIP3    H241123   5.511   2.628   1.068
13728TIP3   OH241124   6.882   5.519   2.932
13728TIP3    H141125   6.831   5.477   2.863
13728TIP3    H241126   6.860   5.471   3.011
13729TIP3   OH241127   7.674   2.965   2.914
13729TIP3    H141128   7.647   2.874   2.911
13729TIP3    H241129   7.642   3.002   2.831
13730TIP3   OH241130   5.686   7.360   0.329
13730TIP3    H141131   5.618   7.294   0.337
13730TIP3    H241132   5.640   7.441   0.308
13731TIP3   OH241133   3.084   7.768   4.789
13731TIP3    H141134   3.110   7.676   4.787
13731TIP3    H241135   2.992   7.768   4.762
13732TIP3   OH241136   6.686   5.859   5.600
13732TIP3    H141137   6.759   5.849   5.661
13732TIP3    H241138   6.622   5.794   5.628
13733TIP3   OH241139   8.344   4.726   3.895
13733TIP3    H141140   8.362   4.690   3.808
13733TIP3    H241141   8.429   4.728   3.938
13734TIP3   OH241142   3.287   7.234   5.520
13734TIP3    H141143   3.201   7.276   5.521
13734TIP3    H241144   3.309   7.226   5.427
13735TIP3   OH241145   7.156   4.884   2.780
13735TIP3    H141146   7.190   4.815   2.724
13735TIP3    H241147   7.179   4.965   2.735
13736TIP3   OH241148   8.285   4.163   3.804
13736TIP3    H141149   8.282   4.231   3.736
13736TIP3    H241150   8.367   4.117   3.787
13737TIP3   OH241151   7.269   6.591   2.526
13737TIP3    H141152   7.268   6.496   2.535
13737TIP3    H241153   7.195   6.621   2.579
13738TIP3   OH241154   2.881   1.291   1.589
13738TIP3    H141155   2.896   1.384   1.576
13738TIP3    H241156   2.946   1.248   1.534
13739TIP3   OH241157   4.928   7.430   0.268
13739TIP3    H141158   4.987   7.354   0.266
13739TIP3    H241159   4.894   7.431   0.358
13740TIP3   OH241160   0.873   2.359   3.787
13740TIP3    H141161   0.949   2.412   3.762
13740TIP3    H241162   0.905   2.306   3.860
13741TIP3   OH241163   0.552   3.965   2.120
13741TIP3    H141164   0.509   4.012   2.049
13741TIP3    H241165   0.617   4.028   2.154
13742TIP3   OH241166   8.040   5.776   4.408
13742TIP3    H141167   8.109   5.796   4.471
13742TIP3    H241168   8.081   5.790   4.323
13743TIP3   OH241169   3.131   7.745   0.699
13743TIP3    H141170   3.220   7.774   0.720
13743TIP3    H241171   3.119   7.665   0.751
13744TIP3   OH241172   0.640   6.820   2.361
13744TIP3    H141173   0.626   6.887   2.295
13744TIP3    H241174   0.627   6.737   2.315
13745TIP3   OH241175   4.913   6.385   3.409
13745TIP3    H141176   4.904   6.304   3.461
13745TIP3    H241177   4.986   6.431   3.449
13746TIP3   OH241178   0.107   5.328   2.045
13746TIP3    H141179   0.050   5.403   2.026
13746TIP3    H241180   0.184   5.366   2.087
13747TIP3   OH241181   0.840   2.246   4.822
13747TIP3    H141182   0.761   2.198   4.846
13747TIP3    H241183   0.876   2.198   4.748
13748TIP3   OH241184   4.076   7.109   0.500
13748TIP3    H141185   4.013   7.058   0.449
13748TIP3    H241186   4.069   7.075   0.589
13749TIP3   OH241187   2.464   7.281   6.055
13749TIP3    H141188   2.545   7.273   6.106
13749TIP3    H241189   2.477   7.221   5.981
13750TIP3   OH241190   4.275   1.447   2.713
13750TIP3    H141191   4.281   1.401   2.629
13750TIP3    H241192   4.236   1.382   2.772
13751TIP3   OH241193   6.050   2.823   1.826
13751TIP3    H141194   5.967   2.855   1.863
13751TIP3    H241195   6.031   2.732   1.803
13752TIP3   OH241196   2.184   2.840   1.848
13752TIP3    H141197   2.175   2.933   1.868
13752TIP3    H241198   2.111   2.798   1.893
13753TIP3   OH241199   2.637   6.581   6.770
13753TIP3    H141200   2.696   6.653   6.792
13753TIP3    H241201   2.695   6.506   6.757
13754TIP3   OH241202   5.706   2.991   3.382
13754TIP3    H141203   5.716   2.914   3.326
13754TIP3    H241204   5.622   3.029   3.355
13755TIP3   OH241205   5.943   4.908   6.677
13755TIP3    H141206   5.955   4.845   6.748
13755TIP3    H241207   5.883   4.974   6.713
13756TIP3   OH241208   0.157   3.076   3.788
13756TIP3    H141209   0.250   3.090   3.806
13756TIP3    H241210   0.156   3.009   3.720
13757TIP3   OH241211   0.940   0.156   3.289
13757TIP3    H141212   0.953   0.069   3.253
13757TIP3    H241213   0.891   0.203   3.222
13758TIP3   OH241214   1.333   5.906   4.263
13758TIP3    H141215   1.379   5.851   4.326
13758TIP3    H241216   1.354   5.867   4.178
13759TIP3   OH241217   1.652   3.674   4.249
13759TIP3    H141218   1.653   3.618   4.171
13759TIP3    H241219   1.573   3.727   4.239
13760TIP3   OH241220   3.447   5.682   4.715
13760TIP3    H141221   3.480   5.698   4.627
13760TIP3    H241222   3.526   5.672   4.769
13761TIP3   OH241223   5.337   1.139   4.087
13761TIP3    H141224   5.337   1.050   4.122
13761TIP3    H241225   5.244   1.164   4.085
13762TIP3   OH241226   0.630   7.495   3.962
13762TIP3    H141227   0.667   7.439   4.031
13762TIP3    H241228   0.705   7.517   3.907
13763TIP3   OH241229   6.320   4.185   6.418
13763TIP3    H141230   6.253   4.236   6.372
13763TIP3    H241231   6.317   4.216   6.508
13764TIP3   OH241232   1.067   3.372   5.343
13764TIP3    H141233   1.104   3.314   5.409
13764TIP3    H241234   1.087   3.460   5.375
13765TIP3   OH241235   6.249   1.445   2.527
13765TIP3    H141236   6.253   1.521   2.469
13765TIP3    H241237   6.330   1.396   2.508
13766TIP3   OH241238   1.563   7.613   4.266
13766TIP3    H141239   1.622   7.615   4.341
13766TIP3    H241240   1.594   7.540   4.212
13767TIP3   OH241241   5.715   7.276   5.117
13767TIP3    H141242   5.782   7.334   5.151
13767TIP3    H241243   5.734   7.270   5.023
13768TIP3   OH241244   3.971   7.265   1.125
13768TIP3    H141245   4.030   7.259   1.200
13768TIP3    H241246   4.006   7.202   1.062
13769TIP3   OH241247   4.910   6.243   5.001
13769TIP3    H141248   4.871   6.328   4.982
13769TIP3    H241249   5.001   6.251   4.973
13770TIP3   OH241250   2.307   4.727   5.537
13770TIP3    H141251   2.271   4.809   5.571
13770TIP3    H241252   2.385   4.712   5.591
13771TIP3   OH241253   0.777   4.443   6.399
13771TIP3    H141254   0.721   4.474   6.471
13771TIP3    H241255   0.721   4.445   6.322
13772TIP3   OH241256   3.503   3.651   1.597
13772TIP3    H141257   3.438   3.592   1.561
13772TIP3    H241258   3.586   3.624   1.557
13773TIP3   OH241259   0.842   5.677   1.840
13773TIP3    H141260   0.768   5.733   1.819
13773TIP3    H241261   0.803   5.596   1.871
13774TIP3   OH241262   2.674   7.832   4.296
13774TIP3    H141263   2.682   7.737   4.296
13774TIP3    H241264   2.757   7.863   4.332
13775TIP3   OH241265   7.771   5.975   0.545
13775TIP3    H141266   7.860   5.939   0.543
13775TIP3    H241267   7.714   5.899   0.544
13776TIP3   OH241268   0.346   6.941   6.142
13776TIP3    H141269   0.301   7.019   6.110
13776TIP3    H241270   0.281   6.871   6.134
13777TIP3   OH241271   0.864   2.776   1.241
13777TIP3    H141272   0.954   2.755   1.215
13777TIP3    H241273   0.834   2.699   1.288
13778TIP3   OH241274   1.156   0.923   0.552
13778TIP3    H141275   1.078   0.892   0.506
13778TIP3    H241276   1.133   0.919   0.645
13779TIP3   OH241277   3.677   0.712   2.534
13779TIP3    H141278   3.677   0.722   2.630
13779TIP3    H241279   3.620   0.637   2.519
13780TIP3   OH241280   8.079   3.309   1.150
13780TIP3    H141281   8.130   3.229   1.138
13780TIP3    H241282   8.143   3.374   1.179
13781TIP3   OH241283   6.855   5.924   1.104
13781TIP3    H141284   6.892   5.973   1.178
13781TIP3    H241285   6.855   5.833   1.133
13782TIP3   OH241286   4.068   6.453   6.756
13782TIP3    H141287   4.048   6.414   6.672
13782TIP3    H241288   4.135   6.397   6.794
13783TIP3   OH241289   8.358   0.841   6.692
13783TIP3    H141290   8.409   0.842   6.773
13783TIP3    H241291   8.341   0.748   6.675
13784TIP3   OH241292   8.151   7.003   6.777
13784TIP3    H141293   8.153   7.039   6.689
13784TIP3    H241294   8.089   6.930   6.771
13785TIP3   OH241295   4.785   5.245   3.053
13785TIP3    H141296   4.737   5.327   3.060
13785TIP3    H241297   4.876   5.269   3.074
13786TIP3   OH241298   4.681   7.928   4.221
13786TIP3    H141299   4.665   7.874   4.298
13786TIP3    H241300   4.618   7.896   4.156
13787TIP3   OH241301   5.326   5.166   4.004
13787TIP3    H141302   5.358   5.161   3.914
13787TIP3    H241303   5.383   5.108   4.054
13788TIP3   OH241304   2.287   5.617   4.936
13788TIP3    H141305   2.347   5.588   5.004
13788TIP3    H241306   2.281   5.544   4.875
13789TIP3   OH241307   1.961   0.355   3.045
13789TIP3    H141308   1.976   0.307   2.964
13789TIP3    H241309   1.868   0.378   3.042
13790TIP3   OH241310   2.980   1.546   6.745
13790TIP3    H141311   2.887   1.556   6.763
13790TIP3    H241312   2.984   1.508   6.657
13791TIP3   OH241313   4.608   5.344   1.536
13791TIP3    H141314   4.680   5.406   1.523
13791TIP3    H241315   4.540   5.394   1.578
13792TIP3   OH241316   1.407   0.395   5.599
13792TIP3    H141317   1.325   0.346   5.591
13792TIP3    H241318   1.392   0.452   5.675
13793TIP3   OH241319   1.104   6.439   1.278
13793TIP3    H141320   1.011   6.427   1.299
13793TIP3    H241321   1.150   6.423   1.360
13794TIP3   OH241322   5.229   7.317   4.008
13794TIP3    H141323   5.317   7.320   3.972
13794TIP3    H241324   5.239   7.280   4.095
13795TIP3   OH241325   5.321   1.032   1.775
13795TIP3    H141326   5.366   0.973   1.835
13795TIP3    H241327   5.391   1.078   1.729
13796TIP3   OH241328   0.745   5.661   4.409
13796TIP3    H141329   0.811   5.719   4.371
13796TIP3    H241330   0.787   5.575   4.412
13797TIP3   OH241331   3.163   2.180   5.970
13797TIP3    H141332   3.200   2.112   6.026
13797TIP3    H241333   3.073   2.151   5.954
13798TIP3   OH241334   5.608   3.107   3.698
13798TIP3    H141335   5.682   3.076   3.646
13798TIP3    H241336   5.549   3.032   3.703
13799TIP3   OH241337   0.748   4.719   1.406
13799TIP3    H141338   0.746   4.676   1.320
13799TIP3    H241339   0.841   4.739   1.420
13800TIP3   OH241340   0.492   5.575   4.536
13800TIP3    H141341   0.495   5.479   4.539
13800TIP3    H241342   0.582   5.600   4.516
13801TIP3   OH241343   0.617   2.939   1.930
13801TIP3    H141344   0.673   3.016   1.941
13801TIP3    H241345   0.609   2.929   1.835
13802TIP3   OH241346   4.511   1.328   3.611
13802TIP3    H141347   4.498   1.382   3.689
13802TIP3    H241348   4.603   1.301   3.615
13803TIP3   OH241349   4.106   2.557   6.682
13803TIP3    H141350   4.043   2.495   6.720
13803TIP3    H241351   4.066   2.643   6.696
13804TIP3   OH241352   3.991   5.794   3.151
13804TIP3    H141353   3.972   5.798   3.245
13804TIP3    H241354   3.984   5.701   3.130
13805TIP3   OH241355   0.298   3.018   1.243
13805TIP3    H141356   0.368   2.982   1.188
13805TIP3    H241357   0.285   3.107   1.211
13806TIP3   OH241358   5.311   4.208   5.881
13806TIP3    H141359   5.354   4.287   5.847
13806TIP3    H241360   5.381   4.143   5.885
13807TIP3   OH241361   0.692   1.587   2.957
13807TIP3    H141362   0.716   1.545   3.039
13807TIP3    H241363   0.742   1.669   2.956
13808TIP3   OH241364   1.746   5.324   1.731
13808TIP3    H141365   1.765   5.370   1.649
13808TIP3    H241366   1.788   5.377   1.799
13809TIP3   OH241367   3.725   3.144   4.129
13809TIP3    H141368   3.812   3.145   4.089
13809TIP3    H241369   3.676   3.080   4.077
13810TIP3   OH241370   6.376   4.022   2.278
13810TIP3    H141371   6.302   4.063   2.232
13810TIP3    H241372   6.453   4.068   2.244
13811TIP3   OH241373   6.143   2.028   3.228
13811TIP3    H141374   6.238   2.030   3.224
13811TIP3    H241375   6.115   2.033   3.136
13812TIP3   OH241376   5.875   7.406   2.683
13812TIP3    H141377   5.838   7.429   2.598
13812TIP3    H241378   5.969   7.396   2.667
13813TIP3   OH241379   6.373   1.302   0.164
13813TIP3    H141380   6.423   1.221   0.150
13813TIP3    H241381   6.390   1.354   0.085
13814TIP3   OH241382   5.707   7.029   3.629
13814TIP3    H141383   5.707   7.104   3.569
13814TIP3    H241384   5.770   7.053   3.697
13815TIP3   OH241385   7.021   3.968   3.578
13815TIP3    H141386   6.967   3.996   3.652
13815TIP3    H241387   7.021   4.042   3.518
13816TIP3   OH241388   3.858   6.733   3.900
13816TIP3    H141389   3.806   6.807   3.870
13816TIP3    H241390   3.881   6.755   3.991
13817TIP3   OH241391   3.621   1.035   1.342
13817TIP3    H141392   3.599   0.989   1.423
13817TIP3    H241393   3.560   1.108   1.338
13818TIP3   OH241394   5.435   1.048   6.788
13818TIP3    H141395   5.502   1.012   6.846
13818TIP3    H241396   5.484   1.091   6.718
13819TIP3   OH241397   1.769   1.152   0.706
13819TIP3    H141398   1.848   1.124   0.660
13819TIP3    H241399   1.752   1.082   0.769
13820TIP3   OH241400   3.432   3.071   0.188
13820TIP3    H141401   3.395   3.158   0.175
13820TIP3    H241402   3.524   3.087   0.210
13821TIP3   OH241403   5.803   7.015   4.761
13821TIP3    H141404   5.776   6.942   4.705
13821TIP3    H241405   5.897   7.003   4.772
13822TIP3   OH241406   0.600   5.048   1.010
13822TIP3    H141407   0.612   4.960   1.046
13822TIP3    H241408   0.506   5.054   0.993
13823TIP3   OH241409   4.787   1.733   0.454
13823TIP3    H141410   4.803   1.647   0.493
13823TIP3    H241411   4.779   1.715   0.360
13824TIP3   OH241412   6.194   1.810   2.034
13824TIP3    H141413   6.137   1.784   1.962
13824TIP3    H241414   6.139   1.802   2.112
13825TIP3   OH241415   7.232   0.111   5.874
13825TIP3    H141416   7.156   0.168   5.889
13825TIP3    H241417   7.198   0.039   5.821
13826TIP3   OH241418   5.557   5.380   5.791
13826TIP3    H141419   5.606   5.462   5.789
13826TIP3    H241420   5.619   5.314   5.760
13827TIP3   OH241421   7.896   4.315   5.189
13827TIP3    H141422   7.948   4.246   5.230
13827TIP3    H241423   7.927   4.396   5.230
13828TIP3   OH241424   6.235   1.998   0.393
13828TIP3    H141425   6.291   2.065   0.431
13828TIP3    H241426   6.158   1.996   0.449
13829TIP3   OH241427   6.879   5.666   5.500
13829TIP3    H141428   6.876   5.760   5.518
13829TIP3    H241429   6.799   5.632   5.540
13830TIP3   OH241430   3.773   6.931   2.942
13830TIP3    H141431   3.721   6.957   3.018
13830TIP3    H241432   3.864   6.933   2.973
13831TIP3   OH241433   3.303   5.539   4.910
13831TIP3    H141434   3.343   5.590   4.840
13831TIP3    H241435   3.261   5.465   4.865
13832TIP3   OH241436   7.587   2.679   6.612
13832TIP3    H141437   7.613   2.610   6.552
13832TIP3    H241438   7.663   2.692   6.668
13833TIP3   OH241439   0.453   3.002   3.479
13833TIP3    H141440   0.409   3.069   3.427
13833TIP3    H241441   0.545   3.028   3.478
13834TIP3   OH241442   1.806   0.514   5.116
13834TIP3    H141443   1.889   0.550   5.146
13834TIP3    H241444   1.741   0.580   5.142
13835TIP3   OH241445   5.572   6.976   0.181
13835TIP3    H141446   5.553   7.041   0.249
13835TIP3    H241447   5.506   6.907   0.194
13836TIP3   OH241448   1.995   2.448   5.598
13836TIP3    H141449   2.013   2.522   5.655
13836TIP3    H241450   1.923   2.401   5.641
13837TIP3   OH241451   6.382   7.211   0.202
13837TIP3    H141452   6.437   7.136   0.221
13837TIP3    H241453   6.383   7.263   0.283
13838TIP3   OH241454   5.579   7.139   5.308
13838TIP3    H141455   5.632   7.175   5.237
13838TIP3    H241456   5.624   7.165   5.388
13839TIP3   OH241457   2.104   2.279   2.591
13839TIP3    H141458   2.179   2.305   2.644
13839TIP3    H241459   2.086   2.189   2.618
13840TIP3   OH241460   8.018   3.065   4.376
13840TIP3    H141461   7.954   3.003   4.340
13840TIP3    H241462   7.975   3.103   4.452
13841TIP3   OH241463   6.286   3.142   1.747
13841TIP3    H141464   6.253   3.228   1.774
13841TIP3    H241465   6.376   3.158   1.721
13842TIP3   OH241466   1.577   7.056   0.667
13842TIP3    H141467   1.589   7.066   0.573
13842TIP3    H241468   1.649   7.107   0.706
13843TIP3   OH241469   0.824   7.248   3.059
13843TIP3    H141470   0.779   7.202   2.988
13843TIP3    H241471   0.763   7.246   3.132
13844TIP3   OH241472   6.656   2.424   1.929
13844TIP3    H141473   6.732   2.444   1.984
13844TIP3    H241474   6.581   2.436   1.988
13845TIP3   OH241475   7.299   5.055   2.044
13845TIP3    H141476   7.287   5.129   1.985
13845TIP3    H241477   7.310   5.095   2.131
13846TIP3   OH241478   1.615   6.774   3.403
13846TIP3    H141479   1.632   6.684   3.433
13846TIP3    H241480   1.690   6.795   3.347
13847TIP3   OH241481   5.955   6.459   0.272
13847TIP3    H141482   5.875   6.494   0.234
13847TIP3    H241483   6.015   6.449   0.197
13848TIP3   OH241484   6.611   7.611   3.013
13848TIP3    H141485   6.545   7.644   2.952
13848TIP3    H241486   6.692   7.610   2.962
13849TIP3   OH241487   1.112   0.391   4.374
13849TIP3    H141488   1.052   0.444   4.428
13849TIP3    H241489   1.121   0.441   4.293
13850TIP3   OH241490   0.413   1.598   4.076
13850TIP3    H141491   0.414   1.680   4.125
13850TIP3    H241492   0.375   1.534   4.137
13851TIP3   OH241493   5.842   1.993   2.460
13851TIP3    H141494   5.884   1.967   2.378
13851TIP3    H241495   5.808   2.081   2.443
13852TIP3   OH241496   0.888   5.976   0.953
13852TIP3    H141497   0.849   5.914   1.015
13852TIP3    H241498   0.901   6.056   1.006
13853TIP3   OH241499   1.541   1.053   6.664
13853TIP3    H141500   1.475   1.119   6.688
13853TIP3    H241501   1.501   1.004   6.592
13854TIP3   OH241502   3.179   4.675   3.416
13854TIP3    H141503   3.172   4.593   3.368
13854TIP3    H241504   3.164   4.652   3.508
13855TIP3   OH241505   4.448   4.796   0.803
13855TIP3    H141506   4.444   4.744   0.722
13855TIP3    H241507   4.449   4.887   0.773
13856TIP3   OH241508   0.485   3.401   6.439
13856TIP3    H141509   0.416   3.443   6.490
13856TIP3    H241510   0.486   3.449   6.356
13857TIP3   OH241511   2.912   4.117   6.158
13857TIP3    H141512   2.952   4.199   6.189
13857TIP3    H241513   2.953   4.049   6.211
13858TIP3   OH241514   3.963   7.408   2.232
13858TIP3    H141515   3.872   7.396   2.261
13858TIP3    H241516   4.010   7.334   2.272
13859TIP3   OH241517   3.320   5.278   0.343
13859TIP3    H141518   3.382   5.239   0.282
13859TIP3    H241519   3.362   5.358   0.372
13860TIP3   OH241520   6.782   2.313   0.226
13860TIP3    H141521   6.822   2.241   0.275
13860TIP3    H241522   6.829   2.391   0.255
13861TIP3   OH241523   5.374   7.809   3.626
13861TIP3    H141524   5.350   7.892   3.667
13861TIP3    H241525   5.320   7.804   3.547
13862TIP3   OH241526   2.490   0.957   2.016
13862TIP3    H141527   2.471   1.043   2.054
13862TIP3    H241528   2.559   0.921   2.071
13863TIP3   OH241529   8.228   1.163   4.682
13863TIP3    H141530   8.214   1.240   4.626
13863TIP3    H241531   8.141   1.126   4.693
13864TIP3   OH241532   3.098   0.022   6.767
13864TIP3    H141533   3.024   0.044   6.710
13864TIP3    H241534   3.057  -0.002   6.851
13865TIP3   OH241535   7.771   3.449   3.017
13865TIP3    H141536   7.704   3.401   3.066
13865TIP3    H241537   7.828   3.381   2.981
13866TIP3   OH241538   7.512   2.061   2.645
13866TIP3    H141539   7.526   1.998   2.574
13866TIP3    H241540   7.419   2.085   2.638
13867TIP3   OH241541   3.769   4.622   5.834
13867TIP3    H141542   3.741   4.671   5.757
13867TIP3    H241543   3.723   4.539   5.827
13868TIP3   OH241544   6.757   3.321   3.380
13868TIP3    H141545   6.699   3.397   3.383
13868TIP3    H241546   6.764   3.292   3.471
13869TIP3   OH241547   4.490   6.200   3.541
13869TIP3    H141548   4.421   6.246   3.491
13869TIP3    H241549   4.446   6.122   3.575
13870TIP3   OH241550   2.452   1.775   1.752
13870TIP3    H141551   2.411   1.714   1.814
13870TIP3    H241552   2.378   1.823   1.714
13871TIP3   OH241553   3.314   3.032   6.042
13871TIP3    H141554   3.356   2.965   5.989
13871TIP3    H241555   3.286   3.099   5.979
13872TIP3   OH241556   4.067   5.231   5.635
13872TIP3    H141557   3.999   5.169   5.609
13872TIP3    H241558   4.034   5.317   5.608
13873TIP3   OH241559   6.224   4.809   3.333
13873TIP3    H141560   6.283   4.774   3.266
13873TIP3    H241561   6.238   4.754   3.410
13874TIP3   OH241562   7.454   3.283   4.201
13874TIP3    H141563   7.537   3.246   4.172
13874TIP3    H241564   7.462   3.377   4.185
13875TIP3   OH241565   4.505   1.424   1.084
13875TIP3    H141566   4.574   1.450   1.024
13875TIP3    H241567   4.519   1.330   1.097
13876TIP3   OH241568   1.492   6.185   0.011
13876TIP3    H141569   1.488   6.112   0.072
13876TIP3    H241570   1.517   6.260   0.065
13877TIP3   OH241571   7.721   2.124   3.613
13877TIP3    H141572   7.662   2.051   3.630
13877TIP3    H241573   7.803   2.082   3.586
13878TIP3   OH241574   1.658   3.649   3.582
13878TIP3    H141575   1.659   3.723   3.643
13878TIP3    H241576   1.751   3.632   3.565
13879TIP3   OH241577   3.760   6.321   5.276
13879TIP3    H141578   3.840   6.320   5.328
13879TIP3    H241579   3.775   6.256   5.207
13880TIP3   OH241580   7.865   2.028   5.602
13880TIP3    H141581   7.928   1.979   5.550
13880TIP3    H241582   7.881   2.001   5.692
13881TIP3   OH241583   2.810   2.918   4.767
13881TIP3    H141584   2.890   2.925   4.818
13881TIP3    H241585   2.794   3.007   4.735
13882TIP3   OH241586   7.951   4.960   1.950
13882TIP3    H141587   7.920   5.037   1.999
13882TIP3    H241588   7.946   4.987   1.858
13883TIP3   OH241589   3.346   5.246   3.515
13883TIP3    H141590   3.274   5.308   3.507
13883TIP3    H241591   3.307   5.169   3.556
13884TIP3   OH241592   2.370   7.386   4.326
13884TIP3    H141593   2.452   7.436   4.330
13884TIP3    H241594   2.394   7.299   4.357
13885TIP3   OH241595   0.965   3.104   2.014
13885TIP3    H141596   0.870   3.105   2.003
13885TIP3    H241597   0.987   3.192   2.044
13886TIP3   OH241598   1.193   4.882   5.369
13886TIP3    H141599   1.161   4.908   5.456
13886TIP3    H241600   1.288   4.891   5.374
13887TIP3   OH241601   2.005   3.145   1.818
13887TIP3    H141602   1.910   3.151   1.826
13887TIP3    H241603   2.033   3.104   1.900
13888TIP3   OH241604   2.597   0.749   4.737
13888TIP3    H141605   2.577   0.717   4.825
13888TIP3    H241606   2.520   0.725   4.685
13889TIP3   OH241607   6.841   4.460   1.625
13889TIP3    H141608   6.777   4.462   1.554
13889TIP3    H241609   6.918   4.418   1.586
13890TIP3   OH241610   5.619   7.555   3.070
13890TIP3    H141611   5.632   7.580   3.162
13890TIP3    H241612   5.703   7.516   3.044
13891TIP3   OH241613   7.776   4.791   5.292
13891TIP3    H141614   7.785   4.795   5.388
13891TIP3    H241615   7.743   4.703   5.275
13892TIP3   OH241616   1.237   2.372   6.356
13892TIP3    H141617   1.223   2.458   6.396
13892TIP3    H241618   1.160   2.321   6.379
13893TIP3   OH241619   1.476   0.059   6.308
13893TIP3    H141620   1.415   0.119   6.351
13893TIP3    H241621   1.539   0.116   6.264
13894TIP3   OH241622   2.756   6.804   5.125
13894TIP3    H141623   2.691   6.853   5.075
13894TIP3    H241624   2.773   6.726   5.072
13895TIP3   OH241625   6.400   3.615   6.716
13895TIP3    H141626   6.436   3.692   6.759
13895TIP3    H241627   6.456   3.603   6.639
13896TIP3   OH241628   6.974   5.290   6.440
13896TIP3    H141629   7.057   5.287   6.392
13896TIP3    H241630   6.916   5.232   6.391
13897TIP3   OH241631   2.677   1.693   2.985
13897TIP3    H141632   2.597   1.722   2.943
13897TIP3    H241633   2.696   1.761   3.050
13898TIP3   OH241634   6.202   3.188   3.909
13898TIP3    H141635   6.294   3.211   3.909
13898TIP3    H241636   6.172   3.210   3.821
13899TIP3   OH241637   0.732   7.432   5.514
13899TIP3    H141638   0.712   7.435   5.420
13899TIP3    H241639   0.647   7.441   5.557
13900TIP3   OH241640   6.498   1.830   1.216
13900TIP3    H141641   6.585   1.790   1.210
13900TIP3    H241642   6.449   1.770   1.272
13901TIP3   OH241643   8.008   3.446   6.606
13901TIP3    H141644   7.976   3.369   6.654
13901TIP3    H241645   8.094   3.419   6.573
13902TIP3   OH241646   7.953   4.716   2.800
13902TIP3    H141647   7.970   4.695   2.708
13902TIP3    H241648   7.869   4.673   2.819
13903TIP3   OH241649   3.970   7.371   5.977
13903TIP3    H141650   3.989   7.456   6.017
13903TIP3    H241651   3.887   7.344   6.016
13904TIP3   OH241652   0.179   3.255   0.986
13904TIP3    H141653   0.196   3.197   0.912
13904TIP3    H241654   0.145   3.335   0.946
13905TIP3   OH241655   2.577   7.629   1.300
13905TIP3    H141656   2.508   7.690   1.274
13905TIP3    H241657   2.656   7.661   1.256
13906TIP3   OH241658   6.270   5.654   1.503
13906TIP3    H141659   6.212   5.636   1.429
13906TIP3    H241660   6.321   5.573   1.513
13907TIP3   OH241661   0.563   2.677   1.966
13907TIP3    H141662   0.480   2.666   1.920
13907TIP3    H241663   0.575   2.772   1.971
13908TIP3   OH241664   2.933   1.026   6.303
13908TIP3    H141665   3.020   0.990   6.291
13908TIP3    H241666   2.947   1.120   6.314
13909TIP3   OH241667   4.842   6.356   4.431
13909TIP3    H141668   4.904   6.404   4.485
13909TIP3    H241669   4.854   6.392   4.343
13910TIP3   OH241670   7.450   0.512   0.923
13910TIP3    H141671   7.416   0.586   0.973
13910TIP3    H241672   7.543   0.508   0.946
13911TIP3   OH241673   7.615   6.306   2.123
13911TIP3    H141674   7.662   6.299   2.040
13911TIP3    H241675   7.525   6.281   2.102
13912TIP3   OH241676   0.968   5.810   5.185
13912TIP3    H141677   0.981   5.739   5.122
13912TIP3    H241678   1.002   5.775   5.268
13913TIP3   OH241679   4.216   1.989   1.794
13913TIP3    H141680   4.197   1.963   1.704
13913TIP3    H241681   4.134   2.027   1.826
13914TIP3   OH241682   1.363   1.401   1.873
13914TIP3    H141683   1.287   1.459   1.864
13914TIP3    H241684   1.342   1.346   1.949
13915TIP3   OH241685   4.195   2.858   5.344
13915TIP3    H141686   4.237   2.927   5.395
13915TIP3    H241687   4.263   2.827   5.284
13916TIP3   OH241688   4.015   1.231   6.184
13916TIP3    H141689   4.065   1.234   6.266
13916TIP3    H241690   4.023   1.320   6.148
13917TIP3   OH241691   0.490   4.789   4.831
13917TIP3    H141692   0.466   4.811   4.921
13917TIP3    H241693   0.424   4.726   4.803
13918TIP3   OH241694   6.068   7.795   4.633
13918TIP3    H141695   5.988   7.743   4.623
13918TIP3    H241696   6.120   7.748   4.697
13919TIP3   OH241697   0.357   5.346   5.765
13919TIP3    H141698   0.395   5.267   5.726
13919TIP3    H241699   0.409   5.418   5.731
13920TIP3   OH241700   5.690   0.017   2.158
13920TIP3    H141701   5.613   0.029   2.103
13920TIP3    H241702   5.744   0.095   2.142
13921TIP3   OH241703   1.429   0.664   2.399
13921TIP3    H141704   1.461   0.742   2.444
13921TIP3    H241705   1.458   0.675   2.308
13922TIP3   OH241706   0.961   1.689   4.173
13922TIP3    H141707   1.016   1.670   4.097
13922TIP3    H241708   0.877   1.715   4.137
13923TIP3   OH241709   3.532   3.812   4.912
13923TIP3    H141710   3.476   3.844   4.841
13923TIP3    H241711   3.531   3.882   4.977
13924TIP3   OH241712   4.907   6.661   2.601
13924TIP3    H141713   4.944   6.728   2.659
13924TIP3    H241714   4.830   6.629   2.648
13925TIP3   OH241715   6.507   5.118   1.713
13925TIP3    H141716   6.602   5.109   1.721
13925TIP3    H241717   6.477   5.033   1.680
13926TIP3   OH241718   7.120   1.793   6.098
13926TIP3    H141719   7.071   1.723   6.056
13926TIP3    H241720   7.206   1.790   6.056
13927TIP3   OH241721   4.645   5.552   2.220
13927TIP3    H141722   4.681   5.514   2.139
13927TIP3    H241723   4.721   5.589   2.265
13928TIP3   OH241724   5.829   0.695   1.485
13928TIP3    H141725   5.747   0.648   1.501
13928TIP3    H241726   5.811   0.785   1.510
13929TIP3   OH241727   8.013   6.983   3.055
13929TIP3    H141728   8.024   7.036   3.134
13929TIP3    H241729   7.936   6.930   3.073
13930TIP3   OH241730   5.228   7.062   0.629
13930TIP3    H141731   5.264   7.058   0.718
13930TIP3    H241732   5.153   7.121   0.635
13931TIP3   OH241733   7.215   1.431   1.062
13931TIP3    H141734   7.251   1.507   1.015
13931TIP3    H241735   7.291   1.391   1.105
13932TIP3   OH241736   2.073   2.708   6.513
13932TIP3    H141737   2.084   2.674   6.424
13932TIP3    H241738   2.056   2.630   6.566
13933TIP3   OH241739   3.262   4.625   5.251
13933TIP3    H141740   3.225   4.538   5.267
13933TIP3    H241741   3.280   4.660   5.339
13934TIP3   OH241742   0.368   0.994   0.324
13934TIP3    H141743   0.345   0.939   0.249
13934TIP3    H241744   0.332   1.080   0.303
13935TIP3   OH241745   5.189   6.247   3.384
13935TIP3    H141746   5.247   6.231   3.459
13935TIP3    H241747   5.112   6.194   3.402
13936TIP3   OH241748   1.986   3.461   1.079
13936TIP3    H141749   1.897   3.492   1.094
13936TIP3    H241750   2.020   3.444   1.166
13937TIP3   OH241751   7.873   6.805   4.662
13937TIP3    H141752   7.831   6.773   4.582
13937TIP3    H241753   7.963   6.825   4.636
13938TIP3   OH241754   8.270   3.809   1.406
13938TIP3    H141755   8.240   3.827   1.317
13938TIP3    H241756   8.234   3.723   1.426
13939TIP3   OH241757   5.809   1.704   1.671
13939TIP3    H141758   5.767   1.730   1.589
13939TIP3    H241759   5.741   1.655   1.717
13940TIP3   OH241760   6.627   2.489   1.292
13940TIP3    H141761   6.671   2.491   1.207
13940TIP3    H241762   6.559   2.556   1.285
13941TIP3   OH241763   4.592   3.043   2.721
13941TIP3    H141764   4.580   3.014   2.812
13941TIP3    H241765   4.665   2.990   2.689
13942TIP3   OH241766   8.094   7.879   3.771
13942TIP3    H141767   8.162   7.940   3.801
13942TIP3    H241768   8.094   7.809   3.836
13943TIP3   OH241769   0.882   2.665   2.360
13943TIP3    H141770   0.838   2.694   2.440
13943TIP3    H241771   0.912   2.745   2.318
13944TIP3   OH241772   6.774   1.542   0.946
13944TIP3    H141773   6.816   1.567   0.864
13944TIP3    H241774   6.845   1.507   1.000
13945TIP3   OH241775   6.139   3.963   3.871
13945TIP3    H141776   6.101   3.937   3.956
13945TIP3    H241777   6.219   4.010   3.894
13946TIP3   OH241778   4.912   0.623   5.068
13946TIP3    H141779   4.841   0.565   5.041
13946TIP3    H241780   4.991   0.584   5.031
13947TIP3   OH241781   5.020   5.698   0.758
13947TIP3    H141782   5.028   5.638   0.832
13947TIP3    H241783   5.109   5.726   0.740
13948TIP3   OH241784   2.834   3.825   1.840
13948TIP3    H141785   2.840   3.895   1.775
13948TIP3    H241786   2.899   3.760   1.811
13949TIP3   OH241787   7.419   5.284   3.796
13949TIP3    H141788   7.494   5.236   3.832
13949TIP3    H241789   7.434   5.375   3.822
13950TIP3   OH241790   4.044   6.229   2.501
13950TIP3    H141791   4.076   6.189   2.582
13950TIP3    H241792   4.121   6.232   2.444
13951TIP3   OH241793   7.359   3.308   2.746
13951TIP3    H141794   7.273   3.292   2.706
13951TIP3    H241795   7.343   3.303   2.840
13952TIP3   OH241796   3.570   2.056   2.179
13952TIP3    H141797   3.474   2.057   2.181
13952TIP3    H241798   3.592   2.052   2.086
13953TIP3   OH241799   0.204   0.927   4.962
13953TIP3    H141800   0.248   0.980   4.895
13953TIP3    H241801   0.142   0.873   4.913
13954TIP3   OH241802   3.296   0.403   0.939
13954TIP3    H141803   3.252   0.387   1.023
13954TIP3    H241804   3.246   0.351   0.876
13955TIP3   OH241805   5.830   5.205   3.724
13955TIP3    H141806   5.826   5.109   3.726
13955TIP3    H241807   5.779   5.233   3.800
13956TIP3   OH241808   1.508   1.881   6.104
13956TIP3    H141809   1.601   1.904   6.112
13956TIP3    H241810   1.461   1.954   6.144
13957TIP3   OH241811   8.104   2.746   3.073
13957TIP3    H141812   8.165   2.712   3.008
13957TIP3    H241813   8.085   2.672   3.131
13958TIP3   OH241814   4.684   2.127   5.101
13958TIP3    H141815   4.644   2.050   5.060
13958TIP3    H241816   4.778   2.108   5.100
13959TIP3   OH241817   1.163   3.450   4.757
13959TIP3    H141818   1.089   3.487   4.709
13959TIP3    H241819   1.221   3.525   4.774
13960TIP3   OH241820   6.839   4.688   6.632
13960TIP3    H141821   6.861   4.670   6.540
13960TIP3    H241822   6.782   4.764   6.628
13961TIP3   OH241823   0.777   4.060   4.725
13961TIP3    H141824   0.771   4.124   4.654
13961TIP3    H241825   0.717   3.990   4.699
13962TIP3   OH241826   8.344   4.940   1.322
13962TIP3    H141827   8.412   4.898   1.374
13962TIP3    H241828   8.371   4.927   1.231
13963TIP3   OH241829   1.641   6.290   4.083
13963TIP3    H141830   1.665   6.374   4.122
13963TIP3    H241831   1.599   6.242   4.153
13964TIP3   OH241832   7.625   6.135   2.482
13964TIP3    H141833   7.591   6.201   2.542
13964TIP3    H241834   7.696   6.179   2.435
13965TIP3   OH241835   7.806   3.945   1.695
13965TIP3    H141836   7.762   3.859   1.695
13965TIP3    H241837   7.756   3.997   1.632
13966TIP3   OH241838   1.706   2.648   2.041
13966TIP3    H141839   1.713   2.607   2.127
13966TIP3    H241840   1.638   2.715   2.052
13967TIP3   OH241841   5.083   1.027   5.528
13967TIP3    H141842   5.020   1.032   5.456
13967TIP3    H241843   5.030   1.004   5.604
13968TIP3   OH241844   5.793   0.331   5.701
13968TIP3    H141845   5.746   0.340   5.618
13968TIP3    H241846   5.884   0.349   5.680
13969TIP3   OH241847   7.570   5.992   4.177
13969TIP3    H141848   7.551   6.068   4.121
13969TIP3    H241849   7.557   6.024   4.266
13970TIP3   OH241850   1.363   1.464   1.367
13970TIP3    H141851   1.430   1.396   1.358
13970TIP3    H241852   1.290   1.433   1.314
13971TIP3   OH241853   6.386   5.470   3.913
13971TIP3    H141854   6.326   5.428   3.852
13971TIP3    H241855   6.329   5.519   3.973
13972TIP3   OH241856   1.052   2.521   3.667
13972TIP3    H141857   1.138   2.503   3.629
13972TIP3    H241858   0.998   2.547   3.592
13973TIP3   OH241859   0.311   6.806   4.179
13973TIP3    H141860   0.378   6.760   4.228
13973TIP3    H241861   0.320   6.774   4.089
13974TIP3   OH241862   3.096   2.551   6.684
13974TIP3    H141863   3.139   2.467   6.700
13974TIP3    H241864   3.124   2.576   6.596
13975TIP3   OH241865   2.376   2.341   2.704
13975TIP3    H141866   2.415   2.397   2.770
13975TIP3    H241867   2.401   2.381   2.620
13976TIP3   OH241868   4.857   6.558   3.039
13976TIP3    H141869   4.775   6.567   2.990
13976TIP3    H241870   4.902   6.641   3.024
13977TIP3   OH241871   3.901   1.274   3.927
13977TIP3    H141872   3.846   1.297   4.002
13977TIP3    H241873   3.908   1.179   3.931
13978TIP3   OH241874   0.216   6.865   0.617
13978TIP3    H141875   0.200   6.915   0.697
13978TIP3    H241876   0.131   6.860   0.574
13979TIP3   OH241877   0.219   2.263   0.673
13979TIP3    H141878   0.239   2.170   0.680
13979TIP3    H241879   0.274   2.293   0.600
13980TIP3   OH241880   2.779   6.658   3.135
13980TIP3    H141881   2.773   6.611   3.051
13980TIP3    H241882   2.754   6.592   3.200
13981TIP3   OH241883   3.573   2.215   3.452
13981TIP3    H141884   3.637   2.144   3.447
13981TIP3    H241885   3.615   2.282   3.506
13982TIP3   OH241886   6.155   7.443   2.264
13982TIP3    H141887   6.230   7.401   2.222
13982TIP3    H241888   6.108   7.486   2.192
13983TIP3   OH241889   3.985   1.106   2.150
13983TIP3    H141890   4.027   1.107   2.064
13983TIP3    H241891   3.916   1.040   2.141
13984TIP3   OH241892   7.853   5.293   3.767
13984TIP3    H141893   7.920   5.328   3.826
13984TIP3    H241894   7.886   5.206   3.742
13985TIP3   OH241895   8.392   7.925   4.762
13985TIP3    H141896   8.435   7.856   4.712
13985TIP3    H241897   8.301   7.924   4.731
13986TIP3   OH241898   1.555   4.060   0.046
13986TIP3    H141899   1.591   3.997  -0.016
13986TIP3    H241900   1.624   4.125   0.058
13987TIP3   OH241901   4.153   5.164   4.800
13987TIP3    H141902   4.081   5.209   4.756
13987TIP3    H241903   4.198   5.116   4.730
13988TIP3   OH241904   4.294   0.858   5.171
13988TIP3    H141905   4.253   0.889   5.090
13988TIP3    H241906   4.230   0.796   5.208
13989TIP3   OH241907   4.224   4.376   1.758
13989TIP3    H141908   4.249   4.416   1.675
13989TIP3    H241909   4.155   4.314   1.735
13990TIP3   OH241910   4.093   7.614   4.614
13990TIP3    H141911   4.067   7.606   4.522
13990TIP3    H241912   4.102   7.708   4.628
13991TIP3   OH241913   7.864   5.287   6.803
13991TIP3    H141914   7.921   5.361   6.823
13991TIP3    H241915   7.802   5.285   6.876
13992TIP3   OH241916   5.658   7.446   1.124
13992TIP3    H141917   5.646   7.374   1.062
13992TIP3    H241918   5.667   7.402   1.209
13993TIP3   OH241919   2.332   6.241   3.089
13993TIP3    H141920   2.310   6.152   3.062
13993TIP3    H241921   2.423   6.252   3.061
13994TIP3   OH241922   3.281   7.053   2.692
13994TIP3    H141923   3.257   7.087   2.606
13994TIP3    H241924   3.362   7.099   2.715
13995TIP3   OH241925   8.062   1.936   6.120
13995TIP3    H141926   8.072   1.937   6.215
13995TIP3    H241927   8.152   1.940   6.086
13996TIP3   OH241928   6.550   6.441   4.324
13996TIP3    H141929   6.568   6.488   4.243
13996TIP3    H241930   6.530   6.509   4.388
13997TIP3   OH241931   4.882   3.478   0.659
13997TIP3    H141932   4.816   3.472   0.729
13997TIP3    H241933   4.877   3.569   0.630
13998TIP3   OH241934   8.057   7.693   5.563
13998TIP3    H141935   8.111   7.630   5.516
13998TIP3    H241936   8.061   7.665   5.654
13999TIP3   OH241937   3.636   3.877   2.494
13999TIP3    H141938   3.562   3.932   2.470
13999TIP3    H241939   3.602   3.788   2.493
14000TIP3   OH241940   6.374   7.178   0.915
14000TIP3    H141941   6.349   7.130   0.994
14000TIP3    H241942   6.451   7.131   0.881
14001TIP3   OH241943   8.050   4.836   3.274
14001TIP3    H141944   8.099   4.758   3.251
14001TIP3    H241945   8.027   4.876   3.190
14002TIP3   OH241946   7.022   5.530   4.715
14002TIP3    H141947   6.980   5.449   4.745
14002TIP3    H241948   7.018   5.588   4.790
14003TIP3   OH241949   7.022   4.467   1.216
14003TIP3    H141950   6.945   4.511   1.180
14003TIP3    H241951   7.004   4.460   1.310
14004TIP3   OH241952   7.572   0.665   1.874
14004TIP3    H141953   7.538   0.752   1.896
14004TIP3    H241954   7.658   0.682   1.836
14005TIP3   OH241955   7.730   2.289   5.601
14005TIP3    H141956   7.788   2.214   5.592
14005TIP3    H241957   7.645   2.251   5.621
14006TIP3   OH241958   0.806   5.917   5.572
14006TIP3    H141959   0.786   5.893   5.482
14006TIP3    H241960   0.901   5.933   5.573
14007TIP3   OH241961   2.040   1.080   2.832
14007TIP3    H141962   2.026   1.167   2.793
14007TIP3    H241963   2.108   1.094   2.898
14008TIP3   OH241964   2.202   0.878   3.086
14008TIP3    H141965   2.114   0.859   3.120
14008TIP3    H241966   2.201   0.972   3.069
14009TIP3   OH241967   4.991   2.433   5.049
14009TIP3    H141968   4.944   2.490   4.990
14009TIP3    H241969   4.992   2.348   5.005
14010TIP3   OH241970   1.535   4.261   5.043
14010TIP3    H141971   1.571   4.260   5.131
14010TIP3    H241972   1.520   4.354   5.024
14011TIP3   OH241973   3.780   2.215   2.300
14011TIP3    H141974   3.723   2.287   2.328
14011TIP3    H241975   3.720   2.150   2.263
14012TIP3   OH241976   4.753   6.977   3.866
14012TIP3    H141977   4.759   6.947   3.775
14012TIP3    H241978   4.689   6.919   3.907
14013TIP3   OH241979   0.040   6.406   3.061
14013TIP3    H141980   0.020   6.482   3.007
14013TIP3    H241981   0.060   6.336   2.998
14014TIP3   OH241982   3.319   3.933   2.552
14014TIP3    H141983   3.285   3.956   2.466
14014TIP3    H241984   3.392   3.994   2.565
14015TIP3   OH241985   6.715   6.887   0.509
14015TIP3    H141986   6.638   6.892   0.566
14015TIP3    H241987   6.789   6.884   0.570
14016TIP3   OH241988   0.801   2.535   5.126
14016TIP3    H141989   0.859   2.520   5.200
14016TIP3    H241990   0.747   2.456   5.121
14017TIP3   OH241991   6.101   3.847   6.711
14017TIP3    H141992   6.119   3.813   6.623
14017TIP3    H241993   6.031   3.912   6.697
14018TIP3   OH241994   7.987   0.265   1.971
14018TIP3    H141995   7.986   0.360   1.965
14018TIP3    H241996   7.926   0.236   1.903
14019TIP3   OH241997   6.241   7.786   5.666
14019TIP3    H141998   6.182   7.845   5.620
14019TIP3    H241999   6.183   7.724   5.711
14020TIP3   OH242000   3.540   7.606   2.897
14020TIP3    H142001   3.568   7.521   2.933
14020TIP3    H242002   3.454   7.621   2.935
14021TIP3   OH242003   3.049   7.574   0.911
14021TIP3    H142004   3.094   7.493   0.932
14021TIP3    H242005   2.989   7.551   0.840
14022TIP3   OH242006   0.046   4.845   6.584
14022TIP3    H142007   0.020   4.772   6.528
14022TIP3    H242008   0.094   4.804   6.656
14023TIP3   OH242009   2.964   7.449   5.191
14023TIP3    H142010   2.923   7.482   5.110
14023TIP3    H242011   2.911   7.373   5.215
14024TIP3   OH242012   7.259   6.837   3.436
14024TIP3    H142013   7.291   6.926   3.449
14024TIP3    H242014   7.186   6.846   3.375
14025TIP3   OH242015   2.526   6.805   1.638
14025TIP3    H142016   2.545   6.874   1.702
14025TIP3    H242017   2.444   6.831   1.598
14026TIP3   OH242018   6.010   7.838   6.418
14026TIP3    H142019   5.961   7.838   6.336
14026TIP3    H242020   6.062   7.757   6.414
14027TIP3   OH242021   7.379   6.754   0.387
14027TIP3    H142022   7.473   6.734   0.388
14027TIP3    H242023   7.342   6.696   0.453
14028TIP3   OH242024   7.190   4.714   4.468
14028TIP3    H142025   7.097   4.727   4.483
14028TIP3    H242026   7.221   4.799   4.438
14029TIP3   OH242027   2.245   0.971   3.747
14029TIP3    H142028   2.230   1.040   3.811
14029TIP3    H242029   2.198   0.999   3.669
14030TIP3   OH242030   4.027   1.395   2.050
14030TIP3    H142031   4.001   1.378   1.959
14030TIP3    H242032   4.039   1.490   2.054
14031TIP3   OH242033   2.466   0.045   2.939
14031TIP3    H142034   2.516  -0.023   2.984
14031TIP3    H242035   2.397   0.069   3.000
14032TIP3   OH242036   1.107   6.061   4.380
14032TIP3    H142037   1.184   6.049   4.323
14032TIP3    H242038   1.124   6.142   4.427
14033TIP3   OH242039   2.693   6.324   4.447
14033TIP3    H142040   2.620   6.265   4.426
14033TIP3    H242041   2.762   6.266   4.480
14034TIP3   OH242042   1.259   6.316   6.394
14034TIP3    H142043   1.351   6.310   6.418
14034TIP3    H242044   1.212   6.313   6.478
14035TIP3   OH242045   5.090   4.091   4.679
14035TIP3    H142046   5.113   4.023   4.616
14035TIP3    H242047   5.036   4.046   4.745
14036TIP3   OH242048   7.842   0.069   3.041
14036TIP3    H142049   7.750   0.049   3.024
14036TIP3    H242050   7.841   0.160   3.071
14037TIP3   OH242051   4.381   4.799   6.046
14037TIP3    H142052   4.345   4.800   6.135
14037TIP3    H242053   4.340   4.874   6.003
14038TIP3   OH242054   8.189   1.610   1.351
14038TIP3    H142055   8.229   1.589   1.436
14038TIP3    H242056   8.235   1.688   1.322
14039TIP3   OH242057   7.036   6.282   5.777
14039TIP3    H142058   7.012   6.374   5.777
14039TIP3    H242059   7.035   6.256   5.869
14040TIP3   OH242060   7.283   4.587   4.238
14040TIP3    H142061   7.222   4.603   4.166
14040TIP3    H242062   7.241   4.626   4.314
14041TIP3   OH242063   4.490   6.230   2.110
14041TIP3    H142064   4.451   6.246   2.024
14041TIP3    H242065   4.468   6.308   2.161
14042TIP3   OH242066   1.405   5.318   4.655
14042TIP3    H142067   1.354   5.322   4.736
14042TIP3    H242068   1.392   5.229   4.622
14043TIP3   OH242069   7.125   3.046   1.259
14043TIP3    H142070   7.107   3.140   1.266
14043TIP3    H242071   7.218   3.038   1.283
14044TIP3   OH242072   6.914   3.264   6.485
14044TIP3    H142073   6.833   3.273   6.537
14044TIP3    H242074   6.908   3.334   6.420
14045TIP3   OH242075   3.922   4.974   2.722
14045TIP3    H142076   3.907   4.965   2.816
14045TIP3    H242077   4.009   4.934   2.708
14046TIP3   OH242078   1.392   1.546   2.221
14046TIP3    H142079   1.313   1.600   2.226
14046TIP3    H242080   1.361   1.459   2.198
14047TIP3   OH242081   8.273   1.468   1.146
14047TIP3    H142082   8.309   1.538   1.092
14047TIP3    H242083   8.221   1.513   1.212
14048TIP3   OH242084   0.056   5.829   2.483
14048TIP3    H142085   0.092   5.894   2.423
14048TIP3    H242086  -0.035   5.855   2.494
14049TIP3   OH242087   3.083   5.836   1.909
14049TIP3    H142088   3.160   5.854   1.856
14049TIP3    H242089   3.099   5.884   1.991
14050TIP3   OH242090   6.278   1.909   5.147
14050TIP3    H142091   6.328   1.844   5.196
14050TIP3    H242092   6.325   1.991   5.161
14051TIP3   OH242093   1.722   4.408   0.957
14051TIP3    H142094   1.720   4.469   0.884
14051TIP3    H242095   1.679   4.455   1.029
14052TIP3   OH242096   3.633   7.402   2.491
14052TIP3    H142097   3.612   7.351   2.413
14052TIP3    H242098   3.552   7.449   2.512
14053TIP3   OH242099   7.853   5.805   1.771
14053TIP3    H142100   7.795   5.873   1.805
14053TIP3    H242101   7.923   5.799   1.836
14054TIP3   OH242102   2.167   7.116   3.378
14054TIP3    H142103   2.141   7.045   3.319
14054TIP3    H242104   2.121   7.193   3.344
14055TIP3   OH242105   7.169   4.146   0.768
14055TIP3    H142106   7.120   4.153   0.687
14055TIP3    H242107   7.213   4.061   0.762
14056TIP3   OH242108   4.796   6.404   5.300
14056TIP3    H142109   4.818   6.316   5.271
14056TIP3    H242110   4.721   6.429   5.246
14057TIP3   OH242111   5.913   2.442   5.844
14057TIP3    H142112   5.999   2.483   5.851
14057TIP3    H242113   5.911   2.407   5.755
14058TIP3   OH242114   6.565   4.910   3.201
14058TIP3    H142115   6.554   4.833   3.145
14058TIP3    H242116   6.626   4.966   3.154
14059TIP3   OH242117   1.851   0.177   2.567
14059TIP3    H142118   1.848   0.180   2.663
14059TIP3    H242119   1.843   0.084   2.545
14060TIP3   OH242120   2.091   0.335   4.701
14060TIP3    H142121   2.108   0.380   4.783
14060TIP3    H242122   2.040   0.398   4.649
14061TIP3   OH242123   4.067   4.608   5.528
14061TIP3    H142124   4.090   4.622   5.619
14061TIP3    H242125   4.105   4.524   5.506
14062TIP3   OH242126   4.320   6.483   2.976
14062TIP3    H142127   4.329   6.520   3.064
14062TIP3    H242128   4.225   6.480   2.962
14063TIP3   OH242129   2.291   7.876   2.563
14063TIP3    H142130   2.246   7.907   2.641
14063TIP3    H242131   2.383   7.875   2.587
14064TIP3   OH242132   5.863   7.822   2.640
14064TIP3    H142133   5.787   7.806   2.697
14064TIP3    H242134   5.882   7.736   2.602
14065TIP3   OH242135   1.426   3.250   6.717
14065TIP3    H142136   1.336   3.239   6.747
14065TIP3    H242137   1.440   3.176   6.657
14066TIP3   OH242138   0.030   0.343   2.551
14066TIP3    H142139  -0.034   0.406   2.520
14066TIP3    H242140   0.097   0.396   2.594
14067TIP3   OH242141   5.875   2.441   2.810
14067TIP3    H142142   5.786   2.406   2.814
14067TIP3    H242143   5.869   2.527   2.851
14068TIP3   OH242144   3.217   1.907   5.709
14068TIP3    H142145   3.277   1.929   5.638
14068TIP3    H242146   3.232   1.975   5.775
14069TIP3   OH242147   3.036   7.684   2.439
14069TIP3    H142148   3.033   7.623   2.513
14069TIP3    H242149   3.024   7.770   2.477
14070TIP3   OH242150   7.581   4.178   5.928
14070TIP3    H142151   7.656   4.166   5.986
14070TIP3    H242152   7.558   4.271   5.937
14071TIP3   OH242153   2.897   4.321   1.587
14071TIP3    H142154   2.909   4.262   1.513
14071TIP3    H242155   2.972   4.381   1.582
14072TIP3   OH242156   1.741   7.696   1.449
14072TIP3    H142157   1.782   7.781   1.465
14072TIP3    H242158   1.650   7.718   1.425
14073TIP3   OH242159   6.102   0.279   1.877
14073TIP3    H142160   6.152   0.320   1.806
14073TIP3    H242161   6.081   0.191   1.844
14074TIP3   OH242162   4.871   4.824   4.012
14074TIP3    H142163   4.889   4.918   4.020
14074TIP3    H242164   4.954   4.787   3.981
14075TIP3   OH242165   6.965   4.698   1.640
14075TIP3    H142166   6.924   4.731   1.560
14075TIP3    H242167   6.927   4.611   1.652
14076TIP3   OH242168   2.022   0.939   0.512
14076TIP3    H142169   2.062   0.865   0.558
14076TIP3    H242170   2.046   1.016   0.564
14077TIP3   OH242171   6.308   7.812   3.189
14077TIP3    H142172   6.401   7.807   3.167
14077TIP3    H242173   6.305   7.791   3.283
14078TIP3   OH242174   4.502   0.184   1.832
14078TIP3    H142175   4.577   0.221   1.785
14078TIP3    H242176   4.429   0.242   1.809
14079TIP3   OH242177   3.418   1.690   3.591
14079TIP3    H142178   3.475   1.735   3.529
14079TIP3    H242179   3.385   1.760   3.648
14080TIP3   OH242180   0.674   7.378   0.729
14080TIP3    H142181   0.628   7.397   0.810
14080TIP3    H242182   0.612   7.325   0.678
14081TIP3   OH242183   0.575   6.398   6.035
14081TIP3    H142184   0.493   6.423   6.077
14081TIP3    H242185   0.589   6.465   5.968
14082TIP3   OH242186   5.219   3.833   0.046
14082TIP3    H142187   5.228   3.765  -0.021
14082TIP3    H242188   5.227   3.786   0.129
14083TIP3   OH242189   6.094   3.482   1.109
14083TIP3    H142190   6.147   3.559   1.088
14083TIP3    H242191   6.042   3.466   1.030
14084TIP3   OH242192   7.156   1.273   0.353
14084TIP3    H142193   7.251   1.265   0.342
14084TIP3    H242194   7.119   1.244   0.269
14085TIP3   OH242195   8.097   7.078   6.528
14085TIP3    H142196   8.005   7.097   6.506
14085TIP3    H242197   8.135   7.050   6.445
14086TIP3   OH242198   0.730   2.372   0.537
14086TIP3    H142199   0.736   2.323   0.456
14086TIP3    H242200   0.787   2.449   0.523
14087TIP3   OH242201   2.618   6.607   5.275
14087TIP3    H142202   2.674   6.645   5.207
14087TIP3    H242203   2.677   6.586   5.347
14088TIP3   OH242204   3.032   4.149   1.254
14088TIP3    H142205   2.988   4.196   1.183
14088TIP3    H242206   2.984   4.066   1.261
14089TIP3   OH242207   7.177   3.935   5.083
14089TIP3    H142208   7.187   3.899   5.172
14089TIP3    H242209   7.208   4.025   5.090
14090TIP3   OH242210   6.407   3.707   4.977
14090TIP3    H142211   6.393   3.647   5.050
14090TIP3    H242212   6.397   3.794   5.015
14091TIP3   OH242213   6.891   4.194   5.101
14091TIP3    H142214   6.806   4.232   5.125
14091TIP3    H242215   6.891   4.107   5.142
14092TIP3   OH242216   0.423   0.720   0.536
14092TIP3    H142217   0.423   0.661   0.612
14092TIP3    H242218   0.356   0.785   0.556
14093TIP3   OH242219   6.952   4.162   3.417
14093TIP3    H142220   6.900   4.227   3.465
14093TIP3    H242221   6.995   4.213   3.349
14094TIP3   OH242222   3.623   7.191   4.769
14094TIP3    H142223   3.620   7.281   4.801
14094TIP3    H242224   3.574   7.140   4.833
14095TIP3   OH242225   2.988   2.981   3.969
14095TIP3    H142226   2.999   3.030   3.887
14095TIP3    H242227   2.928   2.910   3.946
14096TIP3   OH242228   8.055   5.173   0.334
14096TIP3    H142229   8.054   5.092   0.283
14096TIP3    H242230   8.043   5.243   0.270
14097TIP3   OH242231   3.062   1.045   1.130
14097TIP3    H142232   3.049   1.120   1.071
14097TIP3    H242233   2.977   1.001   1.133
14098TIP3   OH242234   6.737   5.226   3.400
14098TIP3    H142235   6.825   5.216   3.437
14098TIP3    H242236   6.678   5.212   3.474
14099TIP3   OH242237   5.648   7.728   3.994
14099TIP3    H142238   5.726   7.764   4.037
14099TIP3    H242239   5.598   7.688   4.064
14100TIP3   OH242240   8.071   7.495   4.147
14100TIP3    H142241   8.145   7.435   4.159
14100TIP3    H242242   7.997   7.451   4.190
14101TIP3   OH242243   6.096   0.249   3.794
14101TIP3    H142244   6.004   0.230   3.812
14101TIP3    H242245   6.139   0.245   3.879
14102TIP3   OH242246   8.258   3.746   3.161
14102TIP3    H142247   8.236   3.702   3.080
14102TIP3    H242248   8.273   3.675   3.224
14103TIP3   OH242249   2.911   1.351   4.209
14103TIP3    H142250   2.889   1.350   4.116
14103TIP3    H242251   2.853   1.286   4.248
14104TIP3   OH242252   0.633   2.425   4.164
14104TIP3    H142253   0.609   2.510   4.127
14104TIP3    H242254   0.654   2.442   4.255
14105TIP3   OH242255   2.357   1.888   2.030
14105TIP3    H142256   2.289   1.914   2.092
14105TIP3    H242257   2.380   1.799   2.056
14106TIP3   OH242258   2.174   7.545   4.401
14106TIP3    H142259   2.141   7.603   4.333
14106TIP3    H242260   2.242   7.493   4.358
14107TIP3   OH242261   2.577   0.681   6.075
14107TIP3    H142262   2.531   0.612   6.026
14107TIP3    H242263   2.642   0.633   6.127
14108TIP3   OH242264   2.628   5.684   1.776
14108TIP3    H142265   2.687   5.681   1.701
14108TIP3    H242266   2.588   5.597   1.779
14109TIP3   OH242267   3.836   0.705   6.218
14109TIP3    H142268   3.841   0.613   6.240
14109TIP3    H242269   3.821   0.750   6.301
14110TIP3   OH242270   8.007   3.262   3.104
14110TIP3    H142271   8.057   3.218   3.173
14110TIP3    H242272   8.071   3.276   3.034
14111TIP3   OH242273   7.377   1.312   5.756
14111TIP3    H142274   7.458   1.275   5.722
14111TIP3    H242275   7.393   1.324   5.849
14112TIP3   OH242276   6.571   6.107   2.758
14112TIP3    H142277   6.620   6.106   2.840
14112TIP3    H242278   6.495   6.163   2.776
14113TIP3   OH242279   5.816   2.677   3.834
14113TIP3    H142280   5.759   2.685   3.911
14113TIP3    H242281   5.869   2.757   3.836
14114TIP3   OH242282   2.172   3.792   3.256
14114TIP3    H142283   2.094   3.822   3.303
14114TIP3    H242284   2.226   3.750   3.323
14115TIP3   OH242285   7.111   3.948   0.430
14115TIP3    H142286   7.136   3.901   0.351
14115TIP3    H242287   7.111   3.881   0.499
14116TIP3   OH242288   6.178   2.228   4.955
14116TIP3    H142289   6.261   2.207   4.999
14116TIP3    H242290   6.164   2.320   4.974
14117TIP3   OH242291   4.919   2.641   4.848
14117TIP3    H142292   4.827   2.653   4.872
14117TIP3    H242293   4.918   2.575   4.778
14118TIP3   OH242294   6.372   1.750   4.256
14118TIP3    H142295   6.384   1.660   4.225
14118TIP3    H242296   6.282   1.751   4.289
14119TIP3   OH242297   3.784   7.550   5.021
14119TIP3    H142298   3.738   7.626   5.057
14119TIP3    H242299   3.727   7.519   4.950
14120TIP3   OH242300   1.266   7.249   2.641
14120TIP3    H142301   1.215   7.224   2.718
14120TIP3    H242302   1.325   7.317   2.672
14121TIP3   OH242303   2.676   5.761   2.925
14121TIP3    H142304   2.609   5.742   2.990
14121TIP3    H242305   2.740   5.691   2.935
14122TIP3   OH242306   4.431   6.897   1.979
14122TIP3    H142307   4.356   6.852   2.018
14122TIP3    H242308   4.462   6.837   1.911
14123TIP3   OH242309   4.021   4.274   1.041
14123TIP3    H142310   3.977   4.284   1.125
14123TIP3    H242311   4.058   4.360   1.023
14124TIP3   OH242312   3.989   6.850   3.126
14124TIP3    H142313   3.950   6.762   3.133
14124TIP3    H242314   4.072   6.835   3.080
14125TIP3   OH242315   7.665   5.727   0.245
14125TIP3    H142316   7.595   5.729   0.180
14125TIP3    H242317   7.641   5.794   0.309
14126TIP3   OH242318   5.109   2.220   5.971
14126TIP3    H142319   5.110   2.153   6.040
14126TIP3    H242320   5.196   2.261   5.976
14127TIP3   OH242321   5.219   2.352   0.060
14127TIP3    H142322   5.291   2.371   0.120
14127TIP3    H242323   5.201   2.259   0.073
14128TIP3   OH242324   5.490   5.618   4.705
14128TIP3    H142325   5.453   5.644   4.621
14128TIP3    H242326   5.564   5.561   4.682
14129TIP3   OH242327   7.014   0.290   5.821
14129TIP3    H142328   7.017   0.235   5.742
14129TIP3    H242329   7.036   0.378   5.790
14130TIP3   OH242330   0.287   4.143   6.090
14130TIP3    H142331   0.263   4.234   6.072
14130TIP3    H242332   0.227   4.091   6.037
14131TIP3   OH242333   4.538   0.126   0.771
14131TIP3    H142334   4.513   0.073   0.846
14131TIP3    H242335   4.631   0.109   0.759
14132TIP3   OH242336   2.619   3.391   4.669
14132TIP3    H142337   2.553   3.333   4.631
14132TIP3    H242338   2.611   3.377   4.764
14133TIP3   OH242339   4.059   5.543   6.594
14133TIP3    H142340   4.010   5.527   6.513
14133TIP3    H242341   4.063   5.458   6.637
14134TIP3   OH242342   1.976   1.986   2.650
14134TIP3    H142343   1.940   1.964   2.736
14134TIP3    H242344   1.948   1.914   2.593
14135TIP3   OH242345   1.831   5.531   5.120
14135TIP3    H142346   1.898   5.462   5.113
14135TIP3    H242347   1.801   5.544   5.030
14136TIP3   OH242348   7.208   0.764   1.312
14136TIP3    H142349   7.136   0.749   1.373
14136TIP3    H242350   7.287   0.736   1.359
14137TIP3   OH242351   3.923   4.209   5.508
14137TIP3    H142352   3.847   4.267   5.514
14137TIP3    H242353   3.898   4.142   5.444
14138TIP3   OH242354   1.755   1.863   3.138
14138TIP3    H142355   1.793   1.783   3.101
14138TIP3    H242356   1.685   1.832   3.196
14139TIP3   OH242357   6.567   3.315   2.217
14139TIP3    H142358   6.546   3.328   2.310
14139TIP3    H242359   6.605   3.227   2.214
14140TIP3   OH242360   2.002   4.000   2.675
14140TIP3    H142361   1.998   3.914   2.718
14140TIP3    H242362   2.048   3.982   2.593
14141TIP3   OH242363   6.216   7.442   5.975
14141TIP3    H142364   6.155   7.450   5.901
14141TIP3    H242365   6.171   7.384   6.036
14142TIP3   OH242366   6.003   0.048   6.821
14142TIP3    H142367   5.994   0.005   6.736
14142TIP3    H242368   5.984   0.140   6.803
14143TIP3   OH242369   3.241   3.146   3.512
14143TIP3    H142370   3.328   3.185   3.507
14143TIP3    H242371   3.256   3.052   3.501
14144TIP3   OH242372   6.130   6.240   5.405
14144TIP3    H142373   6.078   6.219   5.327
14144TIP3    H242374   6.144   6.156   5.448
14145TIP3   OH242375   3.531   5.145   0.921
14145TIP3    H142376   3.565   5.122   1.008
14145TIP3    H242377   3.461   5.081   0.905
14146TIP3   OH242378   7.212   7.299   0.468
14146TIP3    H142379   7.301   7.279   0.441
14146TIP3    H242380   7.218   7.310   0.563
14147TIP3   OH242381   6.001   4.019   0.522
14147TIP3    H142382   6.025   4.068   0.443
14147TIP3    H242383   6.082   3.975   0.549
14148TIP3   OH242384   5.965   5.544   3.864
14148TIP3    H142385   5.870   5.544   3.878
14148TIP3    H242386   5.998   5.613   3.922
14149TIP3   OH242387   5.803   1.806   4.053
14149TIP3    H142388   5.750   1.786   3.975
14149TIP3    H242389   5.888   1.765   4.036
14150TIP3   OH242390   5.576   1.493   2.366
14150TIP3    H142391   5.636   1.419   2.356
14150TIP3    H242392   5.490   1.457   2.349
14151TIP3   OH242393   7.470   7.934   4.151
14151TIP3    H142394   7.485   7.926   4.057
14151TIP3    H242395   7.466   7.843   4.182
14152TIP3   OH242396   6.531   5.462   3.575
14152TIP3    H142397   6.579   5.382   3.595
14152TIP3    H242398   6.570   5.495   3.495
14153TIP3   OH242399   1.040   5.584   2.517
14153TIP3    H142400   0.971   5.649   2.501
14153TIP3    H242401   1.009   5.535   2.593
14154TIP3   OH242402   4.282   7.836   3.320
14154TIP3    H142403   4.322   7.755   3.289
14154TIP3    H242404   4.348   7.903   3.307
14155TIP3   OH242405   4.951   3.164   5.063
14155TIP3    H142406   4.993   3.078   5.066
14155TIP3    H242407   5.010   3.218   5.011
14156TIP3   OH242408   5.253   6.900   4.146
14156TIP3    H142409   5.342   6.933   4.140
14156TIP3    H242410   5.211   6.928   4.065
14157TIP3   OH242411   2.355   4.726   3.040
14157TIP3    H142412   2.269   4.747   3.077
14157TIP3    H242413   2.335   4.687   2.955
14158TIP3   OH242414   7.706   7.785   6.347
14158TIP3    H142415   7.784   7.770   6.295
14158TIP3    H242416   7.663   7.860   6.305
14159TIP3   OH242417   7.450   5.948   6.537
14159TIP3    H142418   7.479   5.875   6.482
14159TIP3    H242419   7.367   5.976   6.498
14160TIP3   OH242420   3.563   0.466   0.970
14160TIP3    H142421   3.609   0.435   0.892
14160TIP3    H242422   3.477   0.425   0.965
14161TIP3   OH242423   6.291   6.680   2.632
14161TIP3    H142424   6.258   6.655   2.718
14161TIP3    H242425   6.367   6.736   2.651
14162TIP3   OH242426   1.093   4.948   1.732
14162TIP3    H142427   1.061   4.880   1.791
14162TIP3    H242428   1.183   4.965   1.761
14163TIP3   OH242429   0.096   1.487   1.952
14163TIP3    H142430   0.016   1.518   1.908
14163TIP3    H242431   0.114   1.555   2.017
14164TIP3   OH242432   4.897   5.785   5.688
14164TIP3    H142433   4.990   5.778   5.711
14164TIP3    H242434   4.857   5.827   5.764
14165TIP3   OH242435   0.115   4.847   5.139
14165TIP3    H142436   0.143   4.933   5.170
14165TIP3    H242437   0.148   4.842   5.049
14166TIP3   OH242438   6.253   0.982   4.549
14166TIP3    H142439   6.279   0.895   4.518
14166TIP3    H242440   6.260   1.038   4.471
14167TIP3   OH242441   7.580   5.917   2.191
14167TIP3    H142442   7.673   5.939   2.188
14167TIP3    H242443   7.542   5.981   2.251
14168TIP3   OH242444   4.132   3.733   2.917
14168TIP3    H142445   4.209   3.765   2.870
14168TIP3    H242446   4.060   3.788   2.885
14169TIP3   OH242447   6.894   3.422   6.257
14169TIP3    H142448   6.917   3.470   6.178
14169TIP3    H242449   6.813   3.462   6.287
14170TIP3   OH242450   0.608   2.195   2.786
14170TIP3    H142451   0.680   2.245   2.747
14170TIP3    H242452   0.635   2.104   2.778
14171TIP3   OH242453   6.575   1.660   3.725
14171TIP3    H142454   6.652   1.606   3.740
14171TIP3    H242455   6.583   1.732   3.788
14172TIP3   OH242456   5.801   0.328   6.404
14172TIP3    H142457   5.791   0.234   6.388
14172TIP3    H242458   5.796   0.368   6.316
14173TIP3   OH242459   4.803   6.798   1.455
14173TIP3    H142460   4.841   6.724   1.407
14173TIP3    H242461   4.712   6.801   1.428
14174TIP3   OH242462   3.227   6.514   4.355
14174TIP3    H142463   3.142   6.555   4.373
14174TIP3    H242464   3.289   6.563   4.409
14175TIP3   OH242465   2.311   6.774   0.654
14175TIP3    H142466   2.397   6.763   0.614
14175TIP3    H242467   2.250   6.761   0.582
14176TIP3   OH242468   5.784   3.197   1.964
14176TIP3    H142469   5.706   3.205   1.908
14176TIP3    H242470   5.758   3.236   2.047
14177TIP3   OH242471   0.044   0.045   2.026
14177TIP3    H142472  -0.004   0.128   2.027
14177TIP3    H242473   0.136   0.070   2.020
14178TIP3   OH242474   3.625   3.616   2.008
14178TIP3    H142475   3.573   3.693   1.985
14178TIP3    H242476   3.595   3.548   1.948
14179TIP3   OH242477   3.776   4.513   5.224
14179TIP3    H142478   3.854   4.463   5.197
14179TIP3    H242479   3.719   4.510   5.148
14180TIP3   OH242480   3.737   5.253   4.410
14180TIP3    H142481   3.672   5.223   4.474
14180TIP3    H242482   3.688   5.310   4.351
14181TIP3   OH242483   4.491   5.650   6.752
14181TIP3    H142484   4.447   5.723   6.706
14181TIP3    H242485   4.576   5.643   6.710
14182TIP3   OH242486   7.279   6.926   6.477
14182TIP3    H142487   7.322   6.875   6.546
14182TIP3    H242488   7.316   6.891   6.396
14183TIP3   OH242489   7.896   6.251   3.068
14183TIP3    H142490   7.813   6.204   3.064
14183TIP3    H242491   7.962   6.182   3.058
14184TIP3   OH242492   7.509   0.474   1.672
14184TIP3    H142493   7.568   0.400   1.657
14184TIP3    H242494   7.558   0.531   1.732
14185TIP3   OH242495   2.588   3.043   0.184
14185TIP3    H142496   2.528   2.971   0.164
14185TIP3    H242497   2.656   3.002   0.237
14186TIP3   OH242498   7.811   1.044   6.806
14186TIP3    H142499   7.854   1.067   6.888
14186TIP3    H242500   7.880   1.002   6.754
14187TIP3   OH242501   6.663   6.221   1.269
14187TIP3    H142502   6.668   6.306   1.314
14187TIP3    H242503   6.629   6.242   1.182
14188TIP3   OH242504   2.506   7.804   5.707
14188TIP3    H142505   2.446   7.876   5.687
14188TIP3    H242506   2.593   7.839   5.690
14189TIP3   OH242507   3.676   6.031   0.111
14189TIP3    H142508   3.648   6.008   0.023
14189TIP3    H242509   3.608   6.089   0.144
14190TIP3   OH242510   2.938   4.750   3.987
14190TIP3    H142511   3.013   4.750   4.047
14190TIP3    H242512   2.882   4.678   4.018
14191TIP3   OH242513   6.247   1.253   4.139
14191TIP3    H142514   6.286   1.180   4.091
14191TIP3    H242515   6.208   1.308   4.071
14192TIP3   OH242516   1.790   0.087   3.148
14192TIP3    H142517   1.795   0.003   3.193
14192TIP3    H242518   1.752   0.146   3.213
14193TIP3   OH242519   4.488   2.521   3.602
14193TIP3    H142520   4.558   2.568   3.647
14193TIP3    H242521   4.533   2.451   3.554
14194TIP3   OH242522   3.684   4.061   5.453
14194TIP3    H142523   3.661   3.979   5.410
14194TIP3    H242524   3.740   4.035   5.526
14195TIP3   OH242525   3.138   2.062   3.549
14195TIP3    H142526   3.127   2.099   3.462
14195TIP3    H242527   3.072   2.106   3.602
14196TIP3   OH242528   6.717   6.604   1.766
14196TIP3    H142529   6.737   6.645   1.682
14196TIP3    H242530   6.653   6.662   1.806
14197TIP3   OH242531   7.409   0.504   3.854
14197TIP3    H142532   7.417   0.431   3.792
14197TIP3    H242533   7.357   0.569   3.807
14198TIP3   OH242534   8.022   3.292   2.513
14198TIP3    H142535   8.057   3.307   2.426
14198TIP3    H242536   8.025   3.197   2.524
14199TIP3   OH242537   7.321   5.368   1.934
14199TIP3    H142538   7.310   5.380   2.028
14199TIP3    H242539   7.231   5.361   1.900
14200TIP3   OH242540   2.508   5.756   6.338
14200TIP3    H142541   2.479   5.818   6.272
14200TIP3    H242542   2.493   5.670   6.298
14201TIP3   OH242543   8.031   6.478   1.233
14201TIP3    H142544   8.040   6.383   1.238
14201TIP3    H242545   7.977   6.494   1.156
14202TIP3   OH242546   8.182   0.130   6.455
14202TIP3    H142547   8.125   0.078   6.399
14202TIP3    H242548   8.267   0.129   6.410
14203TIP3   OH242549   7.731   3.448   5.002
14203TIP3    H142550   7.768   3.516   4.947
14203TIP3    H242551   7.680   3.393   4.942
14204TIP3   OH242552   0.599   3.272   3.789
14204TIP3    H142553   0.579   3.178   3.783
14204TIP3    H242554   0.514   3.315   3.783
14205TIP3   OH242555   0.925   3.484   3.299
14205TIP3    H142556   1.004   3.435   3.320
14205TIP3    H242557   0.949   3.537   3.223
14206TIP3   OH242558   1.280   0.826   2.718
14206TIP3    H142559   1.220   0.900   2.707
14206TIP3    H242560   1.367   0.864   2.707
14207TIP3   OH242561   4.384   0.904   0.879
14207TIP3    H142562   4.327   0.872   0.810
14207TIP3    H242563   4.363   0.849   0.955
14208TIP3   OH242564   0.828   3.862   2.679
14208TIP3    H142565   0.840   3.935   2.618
14208TIP3    H242566   0.771   3.897   2.747
14209TIP3   OH242567   3.265   3.578   2.116
14209TIP3    H142568   3.239   3.622   2.197
14209TIP3    H242569   3.323   3.640   2.072
14210TIP3   OH242570   4.545   2.974   3.641
14210TIP3    H142571   4.540   2.901   3.580
14210TIP3    H242572   4.468   3.028   3.621
14211TIP3   OH242573   7.280   5.162   0.938
14211TIP3    H142574   7.244   5.167   1.026
14211TIP3    H242575   7.320   5.076   0.933
14212TIP3   OH242576   7.993   7.121   2.047
14212TIP3    H142577   8.054   7.049   2.064
14212TIP3    H242578   8.032   7.170   1.974
14213TIP3   OH242579   3.851   7.036   4.792
14213TIP3    H142580   3.795   6.961   4.772
14213TIP3    H242581   3.792   7.112   4.785
14214TIP3   OH242582   1.868   0.672   4.143
14214TIP3    H142583   1.805   0.694   4.212
14214TIP3    H242584   1.818   0.677   4.062
14215TIP3   OH242585   6.675   3.642   1.471
14215TIP3    H142586   6.746   3.581   1.492
14215TIP3    H242587   6.718   3.727   1.462
14216TIP3   OH242588   2.038   0.600   2.213
14216TIP3    H142589   1.968   0.629   2.271
14216TIP3    H242590   2.074   0.523   2.256
14217TIP3   OH242591   6.181   0.724   4.414
14217TIP3    H142592   6.251   0.676   4.369
14217TIP3    H242593   6.108   0.662   4.417
14218TIP3   OH242594   3.163   1.977   6.445
14218TIP3    H142595   3.091   1.920   6.418
14218TIP3    H242596   3.148   1.993   6.538
14219TIP3   OH242597   5.515   6.954   2.527
14219TIP3    H142598   5.449   6.896   2.490
14219TIP3    H242599   5.468   7.011   2.588
14220TIP3   OH242600   0.368   7.647   0.782
14220TIP3    H142601   0.397   7.591   0.710
14220TIP3    H242602   0.279   7.674   0.759
14221TIP3   OH242603   3.847   0.493   6.419
14221TIP3    H142604   3.755   0.488   6.446
14221TIP3    H242605   3.896   0.504   6.500
14222TIP3   OH242606   3.425   7.402   0.365
14222TIP3    H142607   3.442   7.309   0.349
14222TIP3    H242608   3.364   7.427   0.296
14223TIP3   OH242609   4.578   1.515   5.939
14223TIP3    H142610   4.646   1.510   6.006
14223TIP3    H242611   4.549   1.607   5.941
14224TIP3   OH242612   5.072   5.306   3.080
14224TIP3    H142613   5.064   5.300   3.176
14224TIP3    H242614   5.091   5.398   3.063
14225TIP3   OH242615   7.623   5.011   6.283
14225TIP3    H142616   7.717   5.013   6.299
14225TIP3    H242617   7.589   5.084   6.334
14226TIP3   OH242618   2.673   3.901   2.362
14226TIP3    H142619   2.696   3.980   2.411
14226TIP3    H242620   2.727   3.906   2.283
14227TIP3   OH242621   7.871   4.238   1.619
14227TIP3    H142622   7.962   4.229   1.591
14227TIP3    H242623   7.872   4.310   1.682
14228TIP3   OH242624   7.228   3.843   5.332
14228TIP3    H142625   7.249   3.757   5.370
14228TIP3    H242626   7.308   3.894   5.343
14229TIP3   OH242627   3.949   4.311   3.949
14229TIP3    H142628   4.016   4.319   4.018
14229TIP3    H242629   3.960   4.221   3.917
14230TIP3   OH242630   5.545   5.920   3.094
14230TIP3    H142631   5.591   5.921   3.178
14230TIP3    H242632   5.613   5.910   3.028
14231TIP3   OH242633   0.195   0.888   1.386
14231TIP3    H142634   0.214   0.799   1.416
14231TIP3    H242635   0.103   0.902   1.409
14232TIP3   OH242636   4.574   5.910   0.950
14232TIP3    H142637   4.528   5.860   0.882
14232TIP3    H242638   4.665   5.910   0.923
14233TIP3   OH242639   2.634   2.598   6.170
14233TIP3    H142640   2.663   2.687   6.151
14233TIP3    H242641   2.677   2.544   6.104
14234TIP3   OH242642   2.706   2.652   3.646
14234TIP3    H142643   2.708   2.578   3.707
14234TIP3    H242644   2.626   2.638   3.595
14235TIP3   OH242645   2.245   4.770   1.069
14235TIP3    H142646   2.331   4.746   1.035
14235TIP3    H242647   2.218   4.845   1.015
14236TIP3   OH242648   0.484   7.456   3.745
14236TIP3    H142649   0.467   7.550   3.744
14236TIP3    H242650   0.541   7.443   3.821
14237TIP3   OH242651   3.143   7.783   1.472
14237TIP3    H142652   3.158   7.689   1.466
14237TIP3    H242653   3.051   7.794   1.449
14238TIP3   OH242654   7.205   1.361   4.287
14238TIP3    H142655   7.294   1.393   4.302
14238TIP3    H242656   7.205   1.272   4.324
14239TIP3   OH242657   1.436   7.367   4.129
14239TIP3    H142658   1.482   7.342   4.048
14239TIP3    H242659   1.366   7.302   4.137
14240TIP3   OH242660   0.051   1.218   3.730
14240TIP3    H142661   0.032   1.241   3.639
14240TIP3    H242662   0.007   1.287   3.781
14241TIP3   OH242663   1.282   0.738   0.157
14241TIP3    H142664   1.228   0.660   0.145
14241TIP3    H242665   1.370   0.711   0.130
14242TIP3   OH242666   7.824   7.299   5.038
14242TIP3    H142667   7.882   7.326   5.109
14242TIP3    H242668   7.758   7.245   5.082
14243TIP3   OH242669   0.965   1.532   3.180
14243TIP3    H142670   0.938   1.624   3.178
14243TIP3    H242671   1.000   1.515   3.092
14244TIP3   OH242672   6.400   2.130   5.193
14244TIP3    H142673   6.454   2.205   5.167
14244TIP3    H242674   6.410   2.125   5.288
14245TIP3   OH242675   7.580   0.244   2.777
14245TIP3    H142676   7.589   0.185   2.852
14245TIP3    H242677   7.611   0.193   2.702
14246TIP3   OH242678   7.738   1.497   5.993
14246TIP3    H142679   7.659   1.443   5.987
14246TIP3    H242680   7.747   1.515   6.086
14247TIP3   OH242681   6.756   0.933   2.468
14247TIP3    H142682   6.791   0.872   2.532
14247TIP3    H242683   6.806   1.014   2.481
14248TIP3   OH242684   3.836   1.750   5.861
14248TIP3    H142685   3.804   1.769   5.774
14248TIP3    H242686   3.826   1.832   5.909
14249TIP3   OH242687   7.553   3.280   4.878
14249TIP3    H142688   7.475   3.252   4.926
14249TIP3    H242689   7.549   3.232   4.795
14250TIP3   OH242690   8.319   3.619   3.549
14250TIP3    H142691   8.412   3.641   3.545
14250TIP3    H242692   8.280   3.662   3.473
14251TIP3   OH242693   5.963   2.345   0.922
14251TIP3    H142694   5.980   2.280   0.990
14251TIP3    H242695   5.895   2.402   0.960
14252TIP3   OH242696   8.230   2.147   5.957
14252TIP3    H142697   8.279   2.067   5.973
14252TIP3    H242698   8.232   2.157   5.862
14253TIP3   OH242699   2.601   6.938   3.994
14253TIP3    H142700   2.635   6.852   4.015
14253TIP3    H242701   2.540   6.923   3.922
14254TIP3   OH242702   5.495   4.881   5.525
14254TIP3    H142703   5.414   4.910   5.482
14254TIP3    H242704   5.487   4.786   5.529
14255TIP3   OH242705   3.512   3.401   3.742
14255TIP3    H142706   3.528   3.477   3.686
14255TIP3    H242707   3.553   3.423   3.825
14256TIP3   OH242708   7.017   4.178   3.146
14256TIP3    H142709   7.011   4.235   3.069
14256TIP3    H242710   7.111   4.167   3.160
14257TIP3   OH242711   8.246   1.329   4.923
14257TIP3    H142712   8.210   1.275   4.853
14257TIP3    H242713   8.330   1.361   4.887
14258TIP3   OH242714   4.635   7.737   5.490
14258TIP3    H142715   4.578   7.660   5.500
14258TIP3    H242716   4.702   7.709   5.428
14259TIP3   OH242717   1.438   1.451   0.139
14259TIP3    H142718   1.482   1.433   0.056
14259TIP3    H242719   1.437   1.366   0.184
14260TIP3   OH242720   2.759   4.850   4.788
14260TIP3    H142721   2.728   4.916   4.849
14260TIP3    H242722   2.822   4.896   4.732
14261TIP3   OH242723   1.080   3.720   5.682
14261TIP3    H142724   1.011   3.672   5.638
14261TIP3    H242725   1.138   3.749   5.612
14262TIP3   OH242726   0.045   5.740   5.264
14262TIP3    H142727   0.099   5.803   5.217
14262TIP3    H242728   0.081   5.739   5.353
14263TIP3   OH242729   5.822   0.885   1.886
14263TIP3    H142730   5.869   0.804   1.906
14263TIP3    H242731   5.853   0.910   1.799
14264TIP3   OH242732   7.927   0.752   3.729
14264TIP3    H142733   7.915   0.820   3.795
14264TIP3    H242734   7.846   0.701   3.734
14265TIP3   OH242735   5.713   5.898   3.648
14265TIP3    H142736   5.722   5.970   3.586
14265TIP3    H242737   5.622   5.903   3.677
14266TIP3   OH242738   2.940   1.970   4.011
14266TIP3    H142739   2.944   1.942   4.102
14266TIP3    H242740   3.009   2.035   4.002
14267TIP3   OH242741   4.920   6.372   6.084
14267TIP3    H142742   4.994   6.363   6.023
14267TIP3    H242743   4.860   6.302   6.060
14268TIP3   OH242744   2.461   6.681   6.525
14268TIP3    H142745   2.542   6.673   6.576
14268TIP3    H242746   2.455   6.600   6.476
14269TIP3   OH242747   7.721   4.904   3.076
14269TIP3    H142748   7.706   4.820   3.120
14269TIP3    H242749   7.783   4.884   3.006
14270TIP3   OH242750   4.936   2.754   5.196
14270TIP3    H142751   4.930   2.824   5.132
14270TIP3    H242752   4.892   2.680   5.155
14271TIP3   OH242753   6.314   5.890   6.004
14271TIP3    H142754   6.291   5.930   6.088
14271TIP3    H242755   6.234   5.897   5.952
14272TIP3   OH242756   7.929   4.489   0.668
14272TIP3    H142757   7.942   4.428   0.596
14272TIP3    H242758   7.899   4.435   0.741
14273TIP3   OH242759   7.487   7.701   5.972
14273TIP3    H142760   7.414   7.762   5.962
14273TIP3    H242761   7.563   7.758   5.985
14274TIP3   OH242762   3.880   4.001   2.535
14274TIP3    H142763   3.848   4.085   2.566
14274TIP3    H242764   3.803   3.957   2.499
14275TIP3   OH242765   3.539   6.256   3.266
14275TIP3    H142766   3.578   6.172   3.287
14275TIP3    H242767   3.613   6.316   3.259
14276TIP3   OH242768   0.217   7.843   2.781
14276TIP3    H142769   0.285   7.883   2.836
14276TIP3    H242770   0.171   7.783   2.840
14277TIP3   OH242771   1.652   6.808   1.645
14277TIP3    H142772   1.627   6.883   1.591
14277TIP3    H242773   1.630   6.732   1.590
14278TIP3   OH242774   0.628   0.723   5.408
14278TIP3    H142775   0.722   0.702   5.410
14278TIP3    H242776   0.619   0.784   5.335
14279TIP3   OH242777   1.437   7.487   6.826
14279TIP3    H142778   1.495   7.488   6.902
14279TIP3    H242779   1.495   7.466   6.752
14280TIP3   OH242780   7.708   1.653   6.558
14280TIP3    H142781   7.713   1.739   6.517
14280TIP3    H242782   7.793   1.612   6.540
14281TIP3   OH242783   6.482   0.214   3.642
14281TIP3    H142784   6.532   0.135   3.622
14281TIP3    H242785   6.391   0.188   3.628
14282TIP3   OH242786   6.586   4.050   2.662
14282TIP3    H142787   6.608   3.966   2.621
14282TIP3    H242788   6.663   4.070   2.715
14283TIP3   OH242789   7.546   4.586   4.123
14283TIP3    H142790   7.464   4.601   4.170
14283TIP3    H242791   7.520   4.543   4.042
14284TIP3   OH242792   7.587   0.474   4.332
14284TIP3    H142793   7.586   0.379   4.340
14284TIP3    H242794   7.568   0.491   4.240
14285TIP3   OH242795   1.226   7.740   5.858
14285TIP3    H142796   1.192   7.819   5.816
14285TIP3    H242797   1.263   7.771   5.941
14286TIP3   OH242798   1.499   0.674   4.564
14286TIP3    H142799   1.515   0.713   4.650
14286TIP3    H242800   1.408   0.695   4.545
14287TIP3   OH242801   5.608   1.061   1.906
14287TIP3    H142802   5.675   0.994   1.897
14287TIP3    H242803   5.641   1.120   1.974
14288TIP3   OH242804   1.502   7.648   3.905
14288TIP3    H142805   1.541   7.577   3.955
14288TIP3    H242806   1.508   7.724   3.963
14289TIP3   OH242807   2.018   3.541   2.561
14289TIP3    H142808   2.087   3.484   2.595
14289TIP3    H242809   2.064   3.603   2.504
14290TIP3   OH242810   3.174   0.053   4.062
14290TIP3    H142811   3.225  -0.028   4.067
14290TIP3    H242812   3.185   0.094   4.148
14291TIP3   OH242813   5.422   4.298   5.201
14291TIP3    H142814   5.329   4.299   5.224
14291TIP3    H242815   5.467   4.302   5.285
14292TIP3   OH242816   1.356   2.852   3.214
14292TIP3    H142817   1.386   2.904   3.140
14292TIP3    H242818   1.327   2.916   3.279
14293TIP3   OH242819   6.073   1.919   0.624
14293TIP3    H142820   6.094   1.829   0.650
14293TIP3    H242821   6.135   1.973   0.673
14294TIP3   OH242822   3.751   0.502   5.298
14294TIP3    H142823   3.658   0.521   5.301
14294TIP3    H242824   3.793   0.587   5.286
14295TIP3   OH242825   4.097   3.080   4.431
14295TIP3    H142826   4.001   3.079   4.438
14295TIP3    H242827   4.121   3.171   4.451
14296TIP3   OH242828   6.517   3.315   5.295
14296TIP3    H142829   6.552   3.380   5.234
14296TIP3    H242830   6.534   3.352   5.382
14297TIP3   OH242831   2.942   0.970   4.697
14297TIP3    H142832   2.859   1.018   4.693
14297TIP3    H242833   3.008   1.032   4.665
14298TIP3   OH242834   3.173   0.817   0.077
14298TIP3    H142835   3.106   0.868   0.123
14298TIP3    H242836   3.204   0.754   0.143
14299TIP3   OH242837   7.151   3.933   5.828
14299TIP3    H142838   7.211   3.866   5.794
14299TIP3    H242839   7.199   4.015   5.821
14300TIP3   OH242840   2.412   3.104   4.079
14300TIP3    H142841   2.413   3.025   4.134
14300TIP3    H242842   2.324   3.107   4.042
14301TIP3   OH242843   1.262   1.921   2.837
14301TIP3    H142844   1.198   1.876   2.782
14301TIP3    H242845   1.229   1.910   2.926
14302TIP3   OH242846   0.931   5.218   1.235
14302TIP3    H142847   0.951   5.304   1.271
14302TIP3    H242848   0.859   5.234   1.174
14303TIP3   OH242849   1.165   1.076   0.794
14303TIP3    H142850   1.239   1.082   0.733
14303TIP3    H242851   1.200   1.106   0.878
14304TIP3   OH242852   4.881   0.195   3.860
14304TIP3    H142853   4.806   0.166   3.808
14304TIP3    H242854   4.941   0.234   3.795
14305TIP3   OH242855   7.541   5.510   2.646
14305TIP3    H142856   7.597   5.519   2.569
14305TIP3    H242857   7.601   5.514   2.720
14306TIP3   OH242858   5.964   6.659   4.114
14306TIP3    H142859   5.923   6.742   4.139
14306TIP3    H242860   5.893   6.606   4.081
14307TIP3   OH242861   4.686   4.779   5.037
14307TIP3    H142862   4.674   4.800   4.945
14307TIP3    H242863   4.765   4.827   5.063
14308TIP3   OH242864   5.477   0.048   1.977
14308TIP3    H142865   5.493  -0.001   1.896
14308TIP3    H242866   5.452   0.136   1.947
14309TIP3   OH242867   6.536   1.935   4.400
14309TIP3    H142868   6.477   1.879   4.349
14309TIP3    H242869   6.606   1.957   4.339
14310TIP3   OH242870   2.322   6.956   2.656
14310TIP3    H142871   2.399   6.988   2.609
14310TIP3    H242872   2.351   6.948   2.747
14311TIP3   OH242873   1.321   7.586   6.445
14311TIP3    H142874   1.299   7.664   6.394
14311TIP3    H242875   1.396   7.614   6.499
14312TIP3   OH242876   6.467   2.150   5.463
14312TIP3    H142877   6.529   2.166   5.534
14312TIP3    H242878   6.397   2.098   5.502
14313TIP3   OH242879   2.852   1.861   1.902
14313TIP3    H142880   2.829   1.895   1.815
14313TIP3    H242881   2.857   1.766   1.890
14314TIP3   OH242882   4.451   5.188   6.446
14314TIP3    H142883   4.454   5.237   6.363
14314TIP3    H242884   4.417   5.251   6.510
14315TIP3   OH242885   3.736   3.700   4.526
14315TIP3    H142886   3.708   3.623   4.577
14315TIP3    H242887   3.654   3.745   4.505
14316TIP3   OH242888   0.875   7.821   3.326
14316TIP3    H142889   0.945   7.871   3.284
14316TIP3    H242890   0.919   7.742   3.359
14317TIP3   OH242891   6.652   1.102   1.191
14317TIP3    H142892   6.684   1.178   1.143
14317TIP3    H242893   6.627   1.039   1.122
14318TIP3   OH242894   6.428   1.290   1.625
14318TIP3    H142895   6.383   1.273   1.707
14318TIP3    H242896   6.380   1.362   1.585
14319TIP3   OH242897   2.693   5.317   3.620
14319TIP3    H142898   2.611   5.273   3.643
14319TIP3    H242899   2.745   5.250   3.577
14320TIP3   OH242900   4.887   0.557   3.308
14320TIP3    H142901   4.897   0.550   3.213
14320TIP3    H242902   4.957   0.616   3.335
14321TIP3   OH242903   3.237   6.912   2.924
14321TIP3    H142904   3.144   6.895   2.907
14321TIP3    H242905   3.265   6.964   2.848
14322TIP3   OH242906   1.038   3.527   0.249
14322TIP3    H142907   1.008   3.615   0.273
14322TIP3    H242908   1.025   3.523   0.154
14323TIP3   OH242909   0.485   4.523   6.618
14323TIP3    H142910   0.545   4.450   6.602
14323TIP3    H242911   0.420   4.488   6.680
14324TIP3   OH242912   6.874   1.600   6.426
14324TIP3    H142913   6.875   1.673   6.488
14324TIP3    H242914   6.790   1.608   6.381
14325TIP3   OH242915   1.714   3.499   1.077
14325TIP3    H142916   1.684   3.412   1.051
14325TIP3    H242917   1.637   3.555   1.067
14326TIP3   OH242918   0.205   7.465   4.599
14326TIP3    H142919   0.190   7.375   4.629
14326TIP3    H242920   0.276   7.457   4.534
14327TIP3   OH242921   7.900   6.739   2.625
14327TIP3    H142922   7.931   6.802   2.690
14327TIP3    H242923   7.911   6.785   2.541
14328TIP3   OH242924   4.477   5.838   0.646
14328TIP3    H142925   4.485   5.783   0.568
14328TIP3    H242926   4.511   5.923   0.619
14329TIP3   OH242927   5.368   1.110   3.359
14329TIP3    H142928   5.401   1.030   3.400
14329TIP3    H242929   5.440   1.172   3.368
14330TIP3   OH242930   3.682   5.537   2.989
14330TIP3    H142931   3.663   5.446   3.014
14330TIP3    H242932   3.672   5.538   2.893
14331TIP3   OH242933   3.529   5.402   2.068
14331TIP3    H142934   3.551   5.428   1.979
14331TIP3    H242935   3.470   5.471   2.099
14332TIP3   OH242936   5.107   3.915   3.948
14332TIP3    H142937   5.046   3.958   4.008
14332TIP3    H242938   5.119   3.977   3.877
14333TIP3   OH242939   3.167   0.110   2.388
14333TIP3    H142940   3.175   0.023   2.350
14333TIP3    H242941   3.097   0.152   2.338
14334TIP3   OH242942   3.850   6.326   1.176
14334TIP3    H142943   3.812   6.239   1.162
14334TIP3    H242944   3.864   6.361   1.088
14335TIP3   OH242945   1.608   7.806   0.539
14335TIP3    H142946   1.552   7.842   0.470
14335TIP3    H242947   1.696   7.837   0.518
14336TIP3   OH242948   7.878   0.090   6.470
14336TIP3    H142949   7.875   0.124   6.380
14336TIP3    H242950   7.897   0.167   6.524
14337TIP3   OH242951   7.287   7.715   0.484
14337TIP3    H142952   7.353   7.745   0.421
14337TIP3    H242953   7.272   7.623   0.461
14338TIP3   OH242954   2.673   6.143   1.769
14338TIP3    H142955   2.592   6.163   1.815
14338TIP3    H242956   2.686   6.217   1.709
14339TIP3   OH242957   0.273   1.230   0.223
14339TIP3    H142958   0.186   1.270   0.218
14339TIP3    H242959   0.324   1.293   0.275
14340TIP3   OH242960   1.045   7.834   1.345
14340TIP3    H142961   0.996   7.812   1.424
14340TIP3    H242962   1.097   7.911   1.369
14341TIP3   OH242963   5.887   6.712   4.969
14341TIP3    H142964   5.920   6.696   5.058
14341TIP3    H242965   5.831   6.789   4.978
14342TIP3   OH242966   4.131   2.581   0.604
14342TIP3    H142967   4.209   2.609   0.557
14342TIP3    H242968   4.164   2.534   0.680
14343TIP3   OH242969   7.551   0.023   1.361
14343TIP3    H142970   7.613   0.074   1.310
14343TIP3    H242971   7.469   0.028   1.312
14344TIP3   OH242972   4.257   5.450   5.494
14344TIP3    H142973   4.200   5.470   5.419
14344TIP3    H242974   4.248   5.526   5.551
14345TIP3   OH242975   5.276   7.715   2.270
14345TIP3    H142976   5.370   7.729   2.268
14345TIP3    H242977   5.240   7.790   2.222
14346TIP3   OH242978   0.409   3.853   4.314
14346TIP3    H142979   0.446   3.886   4.232
14346TIP3    H242980   0.362   3.928   4.351
14347TIP3   OH242981   0.850   4.182   6.433
14347TIP3    H142982   0.860   4.120   6.361
14347TIP3    H242983   0.826   4.265   6.391
14348TIP3   OH242984   5.161   3.816   5.158
14348TIP3    H142985   5.151   3.737   5.210
14348TIP3    H242986   5.211   3.876   5.213
14349TIP3   OH242987   2.234   6.703   1.306
14349TIP3    H142988   2.326   6.707   1.280
14349TIP3    H242989   2.187   6.744   1.233
14350TIP3   OH242990   0.476   2.180   1.751
14350TIP3    H142991   0.381   2.171   1.752
14350TIP3    H242992   0.492   2.263   1.706
14351TIP3   OH242993   1.164   5.896   1.599
14351TIP3    H142994   1.238   5.925   1.546
14351TIP3    H242995   1.136   5.814   1.558
14352TIP3   OH242996   0.680   0.130   0.180
14352TIP3    H142997   0.627   0.055   0.152
14352TIP3    H242998   0.713   0.106   0.267
14353TIP3   OH242999   6.630   1.481   5.741
14353TIP3    H143000   6.546   1.449   5.776
14353TIP3    H243001   6.693   1.414   5.768
14354TIP3   OH243002   4.275   5.221   5.277
14354TIP3    H143003   4.220   5.282   5.327
14354TIP3    H243004   4.314   5.164   5.344
14355TIP3   OH243005   3.292   0.618   4.283
14355TIP3    H143006   3.266   0.537   4.239
14355TIP3    H243007   3.376   0.641   4.245
14356TIP3   OH243008   5.667   6.356   5.649
14356TIP3    H143009   5.723   6.427   5.681
14356TIP3    H243010   5.725   6.280   5.646
14357TIP3   OH243011   3.732   3.007   2.080
14357TIP3    H143012   3.736   3.036   2.171
14357TIP3    H243013   3.736   3.089   2.029
14358TIP3   OH243014   3.154   2.488   0.299
14358TIP3    H143015   3.131   2.396   0.312
14358TIP3    H243016   3.248   2.488   0.284
14359TIP3   OH243017   2.809   0.702   0.294
14359TIP3    H143018   2.736   0.660   0.339
14359TIP3    H243019   2.878   0.636   0.291
14360TIP3   OH243020   2.817   4.852   1.734
14360TIP3    H143021   2.907   4.868   1.765
14360TIP3    H243022   2.768   4.832   1.814
14361TIP3   OH243023   3.998   2.922   6.307
14361TIP3    H143024   4.060   2.858   6.342
14361TIP3    H243025   3.994   2.991   6.374
14362TIP3   OH243026   4.949   3.119   6.775
14362TIP3    H143027   4.956   3.045   6.715
14362TIP3    H243028   4.885   3.177   6.735
14363TIP3   OH243029   3.980   3.440   0.208
14363TIP3    H143030   3.948   3.522   0.170
14363TIP3    H243031   4.022   3.466   0.290
14364TIP3   OH243032   3.793   3.138   4.787
14364TIP3    H143033   3.724   3.155   4.722
14364TIP3    H243034   3.807   3.043   4.782
14365TIP3   OH243035   5.042   1.642   4.819
14365TIP3    H143036   4.963   1.592   4.799
14365TIP3    H243037   5.088   1.648   4.736
14366TIP3   OH243038   1.352   3.577   2.992
14366TIP3    H143039   1.345   3.672   2.980
14366TIP3    H243040   1.384   3.544   2.908
14367TIP3   OH243041   0.967   4.141   4.395
14367TIP3    H143042   1.062   4.150   4.392
14367TIP3    H243043   0.951   4.047   4.386
14368TIP3   OH243044   7.817   4.620   2.340
14368TIP3    H143045   7.837   4.681   2.269
14368TIP3    H243046   7.727   4.641   2.364
14369TIP3   OH243047   2.345   5.693   0.274
14369TIP3    H143048   2.292   5.647   0.340
14369TIP3    H243049   2.331   5.786   0.293
14370TIP3   OH243050   1.713   5.643   3.471
14370TIP3    H143051   1.692   5.689   3.552
14370TIP3    H243052   1.808   5.634   3.473
14371TIP3   OH243053   1.787   2.177   4.265
14371TIP3    H143054   1.692   2.178   4.280
14371TIP3    H243055   1.801   2.240   4.194
14372TIP3   OH243056   7.426   2.104   1.864
14372TIP3    H143057   7.422   2.151   1.780
14372TIP3    H243058   7.421   2.172   1.930
14373TIP3   OH243059   6.689   0.544   1.733
14373TIP3    H143060   6.627   0.560   1.804
14373TIP3    H243061   6.775   0.552   1.775
14374TIP3   OH243062   7.899   5.365   0.961
14374TIP3    H143063   7.879   5.271   0.963
14374TIP3    H243064   7.989   5.369   0.930
14375TIP3   OH243065   7.919   6.414   2.044
14375TIP3    H143066   7.911   6.381   1.954
14375TIP3    H243067   7.994   6.367   2.080
14376TIP3   OH243068   0.184   2.681   0.261
14376TIP3    H143069   0.119   2.626   0.306
14376TIP3    H243070   0.201   2.752   0.323
14377TIP3   OH243071   0.194   4.781   4.853
14377TIP3    H143072   0.171   4.874   4.842
14377TIP3    H243073   0.117   4.734   4.823
14378TIP3   OH243074   4.272   0.920   6.771
14378TIP3    H143075   4.220   0.948   6.695
14378TIP3    H243076   4.207   0.890   6.834
14379TIP3   OH243077   5.760   7.114   0.795
14379TIP3    H143078   5.759   7.199   0.750
14379TIP3    H243079   5.783   7.051   0.726
14380TIP3   OH243080   6.057   7.100   0.219
14380TIP3    H143081   5.997   7.063   0.154
14380TIP3    H243082   6.025   7.188   0.234
14381TIP3   OH243083   1.617   0.681   2.174
14381TIP3    H143084   1.690   0.709   2.229
14381TIP3    H243085   1.604   0.755   2.114
14382TIP3   OH243086   6.354   7.116   6.536
14382TIP3    H143087   6.272   7.125   6.584
14382TIP3    H243088   6.423   7.130   6.601
14383TIP3   OH243089   1.033   4.709   0.062
14383TIP3    H143090   1.113   4.690   0.013
14383TIP3    H243091   0.975   4.751  -0.001
14384TIP3   OH243092   0.761   6.383   1.572
14384TIP3    H143093   0.801   6.442   1.635
14384TIP3    H243094   0.708   6.440   1.516
14385TIP3   OH243095   6.594   3.327   0.570
14385TIP3    H143096   6.498   3.327   0.561
14385TIP3    H243097   6.615   3.236   0.592
14386TIP3   OH243098   3.902   3.515   5.928
14386TIP3    H143099   3.896   3.603   5.889
14386TIP3    H243100   3.952   3.528   6.008
14387TIP3   OH243101   7.794   6.075   4.726
14387TIP3    H143102   7.788   6.159   4.772
14387TIP3    H243103   7.851   6.093   4.651
14388TIP3   OH243104   2.975   1.896   4.265
14388TIP3    H143105   3.033   1.823   4.240
14388TIP3    H243106   2.947   1.875   4.354
14389TIP3   OH243107   5.482   3.376   2.800
14389TIP3    H143108   5.510   3.294   2.841
14389TIP3    H243109   5.563   3.423   2.782
14390TIP3   OH243110   2.824   7.654   0.474
14390TIP3    H143111   2.799   7.745   0.457
14390TIP3    H243112   2.764   7.602   0.420
14391TIP3   OH243113   2.854   6.559   5.027
14391TIP3    H143114   2.902   6.549   5.109
14391TIP3    H243115   2.920   6.546   4.958
14392TIP3   OH243116   7.720   3.832   3.655
14392TIP3    H143117   7.732   3.782   3.735
14392TIP3    H243118   7.749   3.773   3.585
14393TIP3   OH243119   6.347   5.957   2.078
14393TIP3    H143120   6.360   5.941   2.171
14393TIP3    H243121   6.252   5.960   2.067
14394TIP3   OH243122   4.877   2.875   1.811
14394TIP3    H143123   4.844   2.901   1.725
14394TIP3    H243124   4.917   2.789   1.797
14395TIP3   OH243125   1.527   3.449   1.935
14395TIP3    H143126   1.510   3.537   1.969
14395TIP3    H243127   1.619   3.452   1.907
14396TIP3   OH243128   7.638   0.514   2.479
14396TIP3    H143129   7.682   0.434   2.507
14396TIP3    H243130   7.597   0.491   2.395
14397TIP3   OH243131   1.641   5.049   1.395
14397TIP3    H143132   1.661   5.108   1.322
14397TIP3    H243133   1.582   5.100   1.451
14398TIP3   OH243134   4.945   0.269   2.939
14398TIP3    H143135   4.922   0.361   2.957
14398TIP3    H243136   4.960   0.231   3.026
14399TIP3   OH243137   2.257   4.042   3.602
14399TIP3    H143138   2.203   3.976   3.646
14399TIP3    H243139   2.334   3.993   3.573
14400TIP3   OH243140   6.163   1.630   3.457
14400TIP3    H143141   6.169   1.668   3.370
14400TIP3    H243142   6.248   1.648   3.497
14401TIP3   OH243143   4.038   5.602   4.192
14401TIP3    H143144   3.975   5.530   4.200
14401TIP3    H243145   3.992   5.668   4.140
14402TIP3   OH243146   5.273   4.149   1.503
14402TIP3    H143147   5.237   4.158   1.415
14402TIP3    H243148   5.197   4.132   1.558
14403TIP3   OH243149   7.509   0.271   1.127
14403TIP3    H143150   7.508   0.340   1.193
14403TIP3    H243151   7.418   0.265   1.098
14404TIP3   OH243152   8.338   3.613   0.860
14404TIP3    H143153   8.304   3.594   0.947
14404TIP3    H243154   8.397   3.687   0.872
14405TIP3   OH243155   1.520   5.791   1.524
14405TIP3    H143156   1.554   5.879   1.511
14405TIP3    H243157   1.437   5.789   1.477
14406TIP3   OH243158   0.534   2.602   6.529
14406TIP3    H143159   0.607   2.543   6.508
14406TIP3    H243160   0.456   2.547   6.525
14407TIP3   OH243161   4.175   1.141   5.415
14407TIP3    H143162   4.198   1.054   5.445
14407TIP3    H243163   4.082   1.150   5.436
14408TIP3   OH243164   8.373   7.549   2.246
14408TIP3    H143165   8.387   7.576   2.156
14408TIP3    H243166   8.325   7.622   2.286
14409TIP3   OH243167   6.727   1.202   1.743
14409TIP3    H143168   6.662   1.134   1.762
14409TIP3    H243169   6.778   1.210   1.824
14410TIP3   OH243170   4.092   5.806   0.773
14410TIP3    H143171   4.140   5.732   0.736
14410TIP3    H243172   4.154   5.878   0.773
14411TIP3   OH243173   4.670   2.549   1.802
14411TIP3    H143174   4.619   2.629   1.818
14411TIP3    H243175   4.754   2.564   1.845
14412TIP3   OH243176   3.345   2.889   4.260
14412TIP3    H143177   3.281   2.945   4.217
14412TIP3    H243178   3.338   2.805   4.213
14413TIP3   OH243179   6.789   2.105   5.022
14413TIP3    H143180   6.722   2.164   4.987
14413TIP3    H243181   6.769   2.097   5.115
14414TIP3   OH243182   5.721   2.932   6.525
14414TIP3    H143183   5.800   2.897   6.565
14414TIP3    H243184   5.704   3.014   6.572
14415TIP3   OH243185   0.567   7.214   0.532
14415TIP3    H143186   0.632   7.238   0.465
14415TIP3    H243187   0.538   7.127   0.505
14416TIP3   OH243188   8.120   6.840   1.729
14416TIP3    H143189   8.063   6.801   1.796
14416TIP3    H243190   8.087   6.929   1.717
14417TIP3   OH243191   1.211   0.057   0.545
14417TIP3    H143192   1.292   0.012   0.520
14417TIP3    H243193   1.173   0.001   0.612
14418TIP3   OH243194   7.021   5.212   4.040
14418TIP3    H143195   6.946   5.173   3.994
14418TIP3    H243196   7.095   5.199   3.979
14419TIP3   OH243197   8.096   4.674   4.848
14419TIP3    H143198   8.067   4.742   4.909
14419TIP3    H243199   8.072   4.708   4.762
14420TIP3   OH243200   0.704   1.246   4.957
14420TIP3    H143201   0.693   1.165   4.907
14420TIP3    H243202   0.799   1.256   4.966
14421TIP3   OH243203   7.102   7.142   0.110
14421TIP3    H143204   7.040   7.201   0.152
14421TIP3    H243205   7.123   7.186   0.027
14422TIP3   OH243206   6.013   4.151   1.689
14422TIP3    H143207   6.010   4.243   1.714
14422TIP3    H243208   5.949   4.143   1.618
14423TIP3   OH243209   0.540   6.276   2.717
14423TIP3    H143210   0.484   6.200   2.700
14423TIP3    H243211   0.571   6.263   2.807
14424TIP3   OH243212   3.696   3.337   2.466
14424TIP3    H143213   3.765   3.357   2.530
14424TIP3    H243214   3.722   3.253   2.428
14425TIP3   OH243215   4.114   3.259   5.535
14425TIP3    H143216   4.175   3.267   5.462
14425TIP3    H243217   4.169   3.275   5.613
14426TIP3   OH243218   2.202   1.211   6.671
14426TIP3    H143219   2.240   1.218   6.758
14426TIP3    H243220   2.277   1.200   6.612
14427TIP3   OH243221   0.395   7.541   2.018
14427TIP3    H143222   0.448   7.478   1.968
14427TIP3    H243223   0.356   7.488   2.088
14428TIP3   OH243224   1.170   2.559   5.754
14428TIP3    H143225   1.163   2.477   5.706
14428TIP3    H243226   1.174   2.626   5.687
14429TIP3   OH243227   3.131   2.897   2.202
14429TIP3    H143228   3.192   2.853   2.143
14429TIP3    H243229   3.068   2.939   2.143
14430TIP3   OH243230   3.462   1.028   2.994
14430TIP3    H143231   3.388   0.970   3.013
14430TIP3    H243232   3.537   0.983   3.033
14431TIP3   OH243233   1.524   6.841   3.077
14431TIP3    H143234   1.576   6.919   3.096
14431TIP3    H243235   1.491   6.813   3.163
14432TIP3   OH243236   3.870   5.289   1.901
14432TIP3    H143237   3.896   5.237   1.977
14432TIP3    H243238   3.778   5.310   1.917
14433TIP3   OH243239   1.425   2.966   0.709
14433TIP3    H143240   1.441   2.942   0.618
14433TIP3    H243241   1.415   2.881   0.754
14434TIP3   OH243242   3.603   4.485   5.017
14434TIP3    H143243   3.546   4.435   4.958
14434TIP3    H243244   3.545   4.550   5.056
14435TIP3   OH243245   3.684   7.341   2.206
14435TIP3    H143246   3.707   7.278   2.137
14435TIP3    H243247   3.629   7.406   2.162
14436TIP3   OH243248   6.966   6.702   3.818
14436TIP3    H143249   7.061   6.695   3.830
14436TIP3    H243250   6.930   6.628   3.867
14437TIP3   OH243251   1.095   4.891   6.263
14437TIP3    H143252   1.174   4.945   6.271
14437TIP3    H243253   1.046   4.907   6.344
14438TIP3   OH243254   2.001   0.613   4.620
14438TIP3    H143255   1.937   0.600   4.689
14438TIP3    H243256   1.956   0.586   4.540
14439TIP3   OH243257   8.123   7.399   5.395
14439TIP3    H143258   8.068   7.462   5.349
14439TIP3    H243259   8.162   7.347   5.325
14440TIP3   OH243260   5.399   7.099   3.327
14440TIP3    H143261   5.392   7.085   3.421
14440TIP3    H243262   5.454   7.178   3.319
14441TIP3   OH243263   4.421   0.694   3.411
14441TIP3    H143264   4.488   0.627   3.410
14441TIP3    H243265   4.372   0.679   3.492
14442TIP3   OH243266   7.510   4.606   0.972
14442TIP3    H143267   7.551   4.630   0.889
14442TIP3    H243268   7.569   4.542   1.011
14443TIP3   OH243269   1.951   5.514   3.044
14443TIP3    H143270   1.993   5.600   3.047
14443TIP3    H243271   1.998   5.467   2.974
14444TIP3   OH243272   6.872   5.260   4.822
14444TIP3    H143273   6.804   5.327   4.818
14444TIP3    H243274   6.828   5.180   4.794
14445TIP3   OH243275   2.472   7.200   1.523
14445TIP3    H143276   2.499   7.290   1.507
14445TIP3    H243277   2.537   7.147   1.477
14446TIP3   OH243278   7.508   5.460   5.832
14446TIP3    H143279   7.576   5.494   5.774
14446TIP3    H243280   7.540   5.375   5.860
14447TIP3   OH243281   1.275   6.882   4.420
14447TIP3    H143282   1.257   6.932   4.499
14447TIP3    H243283   1.298   6.947   4.354
14448TIP3   OH243284   5.045   4.923   3.149
14448TIP3    H143285   5.125   4.873   3.137
14448TIP3    H243286   5.010   4.893   3.233
14449TIP3   OH243287   1.553   1.146   0.540
14449TIP3    H143288   1.603   1.153   0.459
14449TIP3    H243289   1.619   1.146   0.609
14450TIP3   OH243290   5.375   2.551   3.567
14450TIP3    H143291   5.314   2.528   3.496
14450TIP3    H243292   5.421   2.470   3.587
14451TIP3   OH243293   5.358   5.057   1.235
14451TIP3    H143294   5.347   5.021   1.323
14451TIP3    H243295   5.275   5.041   1.191
14452TIP3   OH243296   6.248   2.418   6.776
14452TIP3    H143297   6.339   2.433   6.751
14452TIP3    H243298   6.204   2.397   6.694
14453TIP3   OH243299   4.460   6.811   0.902
14453TIP3    H143300   4.419   6.844   0.982
14453TIP3    H243301   4.415   6.856   0.831
14454TIP3   OH243302   8.077   3.438   2.244
14454TIP3    H143303   8.149   3.380   2.270
14454TIP3    H243304   8.034   3.391   2.173
14455TIP3   OH243305   5.937   2.183   3.350
14455TIP3    H143306   6.004   2.235   3.394
14455TIP3    H243307   5.978   2.099   3.333
14456TIP3   OH243308   2.327   6.265   5.915
14456TIP3    H143309   2.292   6.315   5.989
14456TIP3    H243310   2.250   6.227   5.874
14457TIP3   OH243311   2.495   5.638   5.874
14457TIP3    H143312   2.495   5.734   5.873
14457TIP3    H243313   2.586   5.613   5.859
14458TIP3   OH243314   1.559   0.886   1.970
14458TIP3    H143315   1.635   0.937   1.996
14458TIP3    H243316   1.545   0.907   1.878
14459TIP3   OH243317   3.587   6.677   3.026
14459TIP3    H143318   3.522   6.651   3.092
14459TIP3    H243319   3.617   6.763   3.054
14460TIP3   OH243320   8.198   2.444   1.486
14460TIP3    H143321   8.244   2.368   1.524
14460TIP3    H243322   8.247   2.465   1.407
14461TIP3   OH243323   7.945   4.211   3.766
14461TIP3    H143324   7.855   4.217   3.734
14461TIP3    H243325   7.979   4.132   3.724
14462TIP3   OH243326   8.207   1.957   2.758
14462TIP3    H143327   8.113   1.961   2.739
14462TIP3    H243328   8.235   1.874   2.720
14463TIP3   OH243329   5.194   3.356   1.803
14463TIP3    H143330   5.257   3.303   1.753
14463TIP3    H243331   5.162   3.297   1.871
14464TIP3   OH243332   2.252   5.318   0.782
14464TIP3    H143333   2.266   5.364   0.700
14464TIP3    H243334   2.341   5.297   0.812
14465TIP3   OH243335   3.768   6.607   0.705
14465TIP3    H143336   3.751   6.515   0.726
14465TIP3    H243337   3.788   6.648   0.789
14466TIP3   OH243338   1.146   1.001   1.703
14466TIP3    H143339   1.087   1.065   1.661
14466TIP3    H243340   1.104   0.980   1.786
14467TIP3   OH243341   5.437   4.105   2.566
14467TIP3    H143342   5.457   4.049   2.641
14467TIP3    H243343   5.502   4.175   2.571
14468TIP3   OH243344   8.093   7.678   1.190
14468TIP3    H143345   8.082   7.733   1.267
14468TIP3    H243346   8.184   7.692   1.164
14469TIP3   OH243347   2.819   4.493   1.309
14469TIP3    H143348   2.800   4.555   1.380
14469TIP3    H243349   2.911   4.469   1.322
14470TIP3   OH243350   3.476   3.446   0.388
14470TIP3    H143351   3.390   3.477   0.418
14470TIP3    H243352   3.503   3.382   0.454
14471TIP3   OH243353   1.202   4.240   2.973
14471TIP3    H143354   1.183   4.310   2.910
14471TIP3    H243355   1.169   4.161   2.931
14472TIP3   OH243356   0.066   3.189   4.898
14472TIP3    H143357  -0.009   3.243   4.871
14472TIP3    H243358   0.028   3.103   4.915
14473TIP3   OH243359   6.791   4.780   5.517
14473TIP3    H143360   6.849   4.741   5.451
14473TIP3    H243361   6.721   4.716   5.529
14474TIP3   OH243362   2.205   0.902   5.272
14474TIP3    H143363   2.278   0.940   5.320
14474TIP3    H243364   2.174   0.973   5.215
14475TIP3   OH243365   4.385   4.757   4.214
14475TIP3    H143366   4.384   4.774   4.120
14475TIP3    H243367   4.395   4.844   4.254
14476TIP3   OH243368   1.613   6.168   0.603
14476TIP3    H143369   1.677   6.109   0.563
14476TIP3    H243370   1.530   6.122   0.597
14477TIP3   OH243371   0.476   6.895   3.319
14477TIP3    H143372   0.569   6.873   3.325
14477TIP3    H243373   0.438   6.860   3.400
14478TIP3   OH243374   3.203   3.109   3.806
14478TIP3    H143375   3.166   3.095   3.719
14478TIP3    H243376   3.171   3.196   3.832
14479TIP3   OH243377   8.050   7.077   1.613
14479TIP3    H143378   7.966   7.117   1.634
14479TIP3    H243379   8.115   7.146   1.629
14480TIP3   OH243380   5.877   1.185   6.137
14480TIP3    H143381   5.815   1.237   6.086
14480TIP3    H243382   5.830   1.104   6.157
14481TIP3   OH243383   3.129   3.698   2.346
14481TIP3    H143384   3.038   3.694   2.374
14481TIP3    H243385   3.177   3.725   2.424
14482TIP3   OH243386   5.242   3.030   5.556
14482TIP3    H143387   5.168   3.091   5.559
14482TIP3    H243388   5.209   2.950   5.596
14483TIP3   OH243389   0.341   3.446   5.200
14483TIP3    H143390   0.372   3.493   5.122
14483TIP3    H243391   0.390   3.483   5.272
14484TIP3   OH243392   5.250   0.413   1.082
14484TIP3    H143393   5.266   0.446   0.994
14484TIP3    H243394   5.157   0.426   1.096
14485TIP3   OH243395   6.756   4.414   3.269
14485TIP3    H143396   6.779   4.377   3.354
14485TIP3    H243397   6.694   4.484   3.289
14486TIP3   OH243398   6.215   6.246   4.018
14486TIP3    H143399   6.293   6.207   3.979
14486TIP3    H243400   6.239   6.261   4.110
14487TIP3   OH243401   3.413   1.471   6.011
14487TIP3    H143402   3.469   1.393   6.012
14487TIP3    H243403   3.431   1.514   6.094
14488TIP3   OH243404   7.120   0.744   0.844
14488TIP3    H143405   7.028   0.722   0.864
14488TIP3    H243406   7.114   0.810   0.776
14489TIP3   OH243407   6.722   0.220   0.061
14489TIP3    H143408   6.633   0.220   0.097
14489TIP3    H243409   6.778   0.242   0.135
14490TIP3   OH243410   5.624   6.014   5.843
14490TIP3    H143411   5.531   6.032   5.854
14490TIP3    H243412   5.653   6.074   5.775
14491TIP3   OH243413   3.666   6.778   0.081
14491TIP3    H143414   3.676   6.760  -0.012
14491TIP3    H243415   3.723   6.853   0.097
14492TIP3   OH243416   5.435   4.763   0.371
14492TIP3    H143417   5.467   4.680   0.406
14492TIP3    H243418   5.510   4.823   0.377
14493TIP3   OH243419   4.713   1.430   2.128
14493TIP3    H143420   4.705   1.452   2.035
14493TIP3    H243421   4.803   1.396   2.136
14494TIP3   OH243422   7.191   6.230   4.356
14494TIP3    H143423   7.222   6.198   4.440
14494TIP3    H243424   7.096   6.216   4.359
14495TIP3   OH243425   3.164   0.845   5.664
14495TIP3    H143426   3.166   0.940   5.651
14495TIP3    H243427   3.133   0.834   5.754
14496TIP3   OH243428   3.715   1.818   4.873
14496TIP3    H143429   3.701   1.912   4.862
14496TIP3    H243430   3.658   1.778   4.807
14497TIP3   OH243431   6.442   2.476   0.975
14497TIP3    H143432   6.359   2.523   0.979
14497TIP3    H243433   6.509   2.544   0.985
14498TIP3   OH243434   3.249   4.677   0.456
14498TIP3    H143435   3.207   4.610   0.403
14498TIP3    H243436   3.333   4.693   0.413
14499TIP3   OH243437   8.141   1.785   1.139
14499TIP3    H143438   8.183   1.715   1.088
14499TIP3    H243439   8.056   1.797   1.098
14500TIP3   OH243440   4.441   0.397   0.746
14500TIP3    H143441   4.481   0.311   0.739
14500TIP3    H243442   4.397   0.397   0.832
14501TIP3   OH243443   2.912   0.503   3.325
14501TIP3    H143444   2.931   0.420   3.368
14501TIP3    H243445   2.936   0.489   3.233
14502TIP3   OH243446   5.515   0.247   3.800
14502TIP3    H143447   5.579   0.270   3.733
14502TIP3    H243448   5.431   0.275   3.764
14503TIP3   OH243449   6.275   3.496   5.731
14503TIP3    H143450   6.245   3.567   5.787
14503TIP3    H243451   6.275   3.419   5.788
14504TIP3   OH243452   8.018   2.865   3.956
14504TIP3    H143453   8.049   2.788   4.004
14504TIP3    H243454   8.015   2.935   4.021
14505TIP3   OH243455   2.833   1.309   3.059
14505TIP3    H143456   2.770   1.299   2.987
14505TIP3    H243457   2.901   1.245   3.040
14506TIP3   OH243458   5.936   2.253   6.051
14506TIP3    H143459   5.889   2.186   6.001
14506TIP3    H243460   5.932   2.331   5.996
14507TIP3   OH243461   5.836   0.643   0.180
14507TIP3    H143462   5.838   0.583   0.105
14507TIP3    H243463   5.814   0.587   0.254
14508TIP3   OH243464   2.078   1.164   4.783
14508TIP3    H143465   1.985   1.179   4.765
14508TIP3    H243466   2.112   1.123   4.703
14509TIP3   OH243467   3.630   4.490   2.485
14509TIP3    H143468   3.703   4.486   2.422
14509TIP3    H243469   3.590   4.576   2.469
14510TIP3   OH243470   5.729   4.496   2.354
14510TIP3    H143471   5.775   4.412   2.364
14510TIP3    H243472   5.685   4.489   2.270
14511TIP3   OH243473   1.326   4.932   5.607
14511TIP3    H143474   1.373   4.953   5.527
14511TIP3    H243475   1.379   4.971   5.677
14512TIP3   OH243476   8.301   5.968   0.567
14512TIP3    H143477   8.284   6.051   0.611
14512TIP3    H243478   8.261   5.902   0.624
14513TIP3   OH243479   0.853   3.539   0.507
14513TIP3    H143480   0.775   3.508   0.551
14513TIP3    H243481   0.874   3.470   0.444
14514TIP3   OH243482   8.219   4.291   3.562
14514TIP3    H143483   8.192   4.382   3.573
14514TIP3    H243484   8.148   4.252   3.511
14515TIP3   OH243485   1.079   3.452   0.638
14515TIP3    H143486   1.130   3.386   0.591
14515TIP3    H243487   0.998   3.461   0.588
14516TIP3   OH243488   5.085   4.434   6.667
14516TIP3    H143489   5.049   4.517   6.635
14516TIP3    H243490   5.010   4.388   6.704
14517TIP3   OH243491   0.594   0.109   5.122
14517TIP3    H143492   0.662   0.160   5.078
14517TIP3    H243493   0.515   0.162   5.115
14518TIP3   OH243494   8.186   3.647   0.130
14518TIP3    H143495   8.163   3.714   0.195
14518TIP3    H243496   8.223   3.696   0.057
14519TIP3   OH243497   4.836   0.515   6.114
14519TIP3    H143498   4.787   0.597   6.118
14519TIP3    H243499   4.905   0.532   6.050
14520TIP3   OH243500   4.929   3.675   4.851
14520TIP3    H143501   4.902   3.704   4.938
14520TIP3    H243502   4.862   3.611   4.825
14521TIP3   OH243503   7.802   6.253   6.713
14521TIP3    H143504   7.853   6.260   6.793
14521TIP3    H243505   7.729   6.196   6.735
14522TIP3   OH243506   0.733   5.098   4.437
14522TIP3    H143507   0.718   5.096   4.343
14522TIP3    H243508   0.646   5.088   4.475
14523TIP3   OH243509   2.433   4.477   5.060
14523TIP3    H143510   2.489   4.431   4.997
14523TIP3    H243511   2.366   4.413   5.083
14524TIP3   OH243512   1.684   0.976   4.887
14524TIP3    H143513   1.711   1.054   4.935
14524TIP3    H243514   1.744   0.973   4.812
14525TIP3   OH243515   1.596   1.971   5.131
14525TIP3    H143516   1.590   2.049   5.076
14525TIP3    H243517   1.608   2.006   5.220
14526TIP3   OH243518   0.069   5.179   3.778
14526TIP3    H143519   0.067   5.106   3.717
14526TIP3    H243520  -0.021   5.213   3.778
14527TIP3   OH243521   2.303   2.397   6.648
14527TIP3    H143522   2.393   2.431   6.651
14527TIP3    H243523   2.263   2.426   6.730
14528TIP3   OH243524   0.255   4.618   6.513
14528TIP3    H143525   0.326   4.561   6.541
14528TIP3    H243526   0.237   4.673   6.589
14529TIP3   OH243527   5.064   1.474   0.308
14529TIP3    H143528   5.119   1.544   0.272
14529TIP3    H243529   5.047   1.499   0.398
14530TIP3   OH243530   4.131   1.937   4.657
14530TIP3    H143531   4.190   1.906   4.725
14530TIP3    H243532   4.048   1.953   4.702
14531TIP3   OH243533   2.741   0.406   3.645
14531TIP3    H143534   2.724   0.386   3.737
14531TIP3    H243535   2.833   0.381   3.631
14532TIP3   OH243536   0.874   3.373   5.960
14532TIP3    H143537   0.803   3.408   6.015
14532TIP3    H243538   0.944   3.354   6.022
14533TIP3   OH243539   7.315   1.261   3.636
14533TIP3    H143540   7.387   1.222   3.684
14533TIP3    H243541   7.318   1.354   3.659
14534TIP3   OH243542   6.063   6.307   4.828
14534TIP3    H143543   6.104   6.304   4.742
14534TIP3    H243544   5.970   6.321   4.810
14535TIP3   OH243545   2.658   0.337   1.652
14535TIP3    H143546   2.691   0.411   1.600
14535TIP3    H243547   2.568   0.325   1.623
14536TIP3   OH243548   4.736   5.038   2.327
14536TIP3    H143549   4.808   5.006   2.380
14536TIP3    H243550   4.776   5.060   2.242
14537TIP3   OH243551   7.871   1.413   1.884
14537TIP3    H143552   7.899   1.328   1.917
14537TIP3    H243553   7.824   1.392   1.803
14538TIP3   OH243554   3.687   1.621   6.108
14538TIP3    H143555   3.658   1.703   6.149
14538TIP3    H243556   3.691   1.642   6.014
14539TIP3   OH243557   0.892   1.287   5.819
14539TIP3    H143558   0.828   1.251   5.758
14539TIP3    H243559   0.871   1.246   5.903
14540TIP3   OH243560   7.629   5.921   1.882
14540TIP3    H143561   7.551   5.892   1.835
14540TIP3    H243562   7.614   5.895   1.972
14541TIP3   OH243563   0.554   2.331   1.956
14541TIP3    H143564   0.518   2.250   1.920
14541TIP3    H243565   0.483   2.394   1.949
14542TIP3   OH243566   3.090   7.790   1.066
14542TIP3    H143567   3.065   7.718   1.008
14542TIP3    H243568   3.185   7.780   1.076
14543TIP3   OH243569   3.551   4.567   2.012
14543TIP3    H143570   3.571   4.660   2.009
14543TIP3    H243571   3.600   4.529   1.939
14544TIP3   OH243572   5.217   1.741   0.251
14544TIP3    H143573   5.297   1.769   0.295
14544TIP3    H243574   5.149   1.799   0.284
14545TIP3   OH243575   5.836   4.134   0.274
14545TIP3    H143576   5.781   4.088   0.210
14545TIP3    H243577   5.926   4.109   0.252
14546TIP3   OH243578   2.925   5.095   5.419
14546TIP3    H143579   2.908   5.002   5.430
14546TIP3    H243580   2.931   5.129   5.508
14547TIP3   OH243581   4.351   6.527   2.060
14547TIP3    H143582   4.326   6.458   2.000
14547TIP3    H243583   4.288   6.598   2.042
14548TIP3   OH243584   2.630   7.331   5.402
14548TIP3    H143585   2.534   7.326   5.401
14548TIP3    H243586   2.656   7.309   5.313
14549TIP3   OH243587   2.958   5.834   4.699
14549TIP3    H143588   2.891   5.878   4.648
14549TIP3    H243589   3.002   5.904   4.747
14550TIP3   OH243590   0.807   6.921   2.649
14550TIP3    H143591   0.872   6.988   2.630
14550TIP3    H243592   0.842   6.841   2.610
14551TIP3   OH243593   2.479   6.130   6.468
14551TIP3    H143594   2.421   6.106   6.396
14551TIP3    H243595   2.562   6.087   6.448
14552TIP3   OH243596   7.489   7.184   3.270
14552TIP3    H143597   7.467   7.204   3.179
14552TIP3    H243598   7.486   7.269   3.315
14553TIP3   OH243599   1.815   4.886   6.642
14553TIP3    H143600   1.832   4.907   6.734
14553TIP3    H243601   1.801   4.971   6.600
14554TIP3   OH243602   5.282   1.604   1.239
14554TIP3    H143603   5.338   1.681   1.253
14554TIP3    H243604   5.343   1.530   1.240
14555TIP3   OH243605   2.014   0.857   4.863
14555TIP3    H143606   1.971   0.771   4.864
14555TIP3    H243607   1.972   0.903   4.790
14556TIP3   OH243608   0.063   6.010   5.536
14556TIP3    H143609   0.123   5.936   5.538
14556TIP3    H243610   0.099   6.072   5.600
14557TIP3   OH243611   4.405   6.631   0.221
14557TIP3    H143612   4.410   6.546   0.264
14557TIP3    H243613   4.476   6.630   0.156
14558TIP3   OH243614   4.443   5.770   0.320
14558TIP3    H143615   4.536   5.749   0.329
14558TIP3    H243616   4.427   5.765   0.226
14559TIP3   OH243617   1.118   2.280   5.962
14559TIP3    H143618   1.124   2.368   5.999
14559TIP3    H243619   1.024   2.266   5.949
14560TIP3   OH243620   7.628   7.363   2.830
14560TIP3    H143621   7.667   7.449   2.839
14560TIP3    H243622   7.694   7.311   2.783
14561TIP3   OH243623   7.469   0.568   0.628
14561TIP3    H143624   7.446   0.564   0.721
14561TIP3    H243625   7.395   0.611   0.586
14562TIP3   OH243626   4.451   2.148   4.745
14562TIP3    H143627   4.457   2.237   4.710
14562TIP3    H243628   4.376   2.151   4.804
14563TIP3   OH243629   6.502   7.342   2.510
14563TIP3    H143630   6.561   7.278   2.549
14563TIP3    H243631   6.453   7.293   2.444
14564TIP3   OH243632   5.916   5.834   0.257
14564TIP3    H143633   5.877   5.799   0.337
14564TIP3    H243634   5.962   5.913   0.285
14565TIP3   OH243635   7.939   6.252   2.564
14565TIP3    H143636   7.895   6.201   2.632
14565TIP3    H243637   7.969   6.187   2.501
14566TIP3   OH243638   2.055   6.246   4.033
14566TIP3    H143639   2.035   6.315   3.968
14566TIP3    H243640   1.973   6.197   4.041
14567TIP3   OH243641   7.806   6.568   4.783
14567TIP3    H143642   7.819   6.662   4.783
14567TIP3    H243643   7.835   6.540   4.696
14568TIP3   OH243644   4.440   6.958   6.706
14568TIP3    H143645   4.364   7.002   6.668
14568TIP3    H243646   4.508   6.964   6.638
14569TIP3   OH243647   4.172   1.757   4.011
14569TIP3    H143648   4.104   1.735   3.947
14569TIP3    H243649   4.244   1.792   3.959
14570TIP3   OH243650   4.169   2.293   6.407
14570TIP3    H143651   4.107   2.364   6.421
14570TIP3    H243652   4.116   2.219   6.379
14571TIP3   OH243653   7.312   4.643   5.948
14571TIP3    H143654   7.255   4.719   5.940
14571TIP3    H243655   7.301   4.615   6.039
14572TIP3   OH243656   1.163   0.086   1.622
14572TIP3    H143657   1.247   0.132   1.627
14572TIP3    H243658   1.144   0.058   1.711
14573TIP3   OH243659   1.365   5.426   5.213
14573TIP3    H143660   1.421   5.399   5.140
14573TIP3    H243661   1.277   5.399   5.187
14574TIP3   OH243662   6.998   6.853   3.576
14574TIP3    H143663   7.088   6.835   3.550
14574TIP3    H243664   6.992   6.820   3.666
14575TIP3   OH243665   7.021   1.794   0.706
14575TIP3    H143666   7.003   1.745   0.786
14575TIP3    H243667   7.117   1.802   0.704
14576TIP3   OH243668   0.709   7.708   0.414
14576TIP3    H143669   0.743   7.797   0.418
14576TIP3    H243670   0.687   7.687   0.504
14577TIP3   OH243671   3.293   2.878   3.455
14577TIP3    H143672   3.350   2.900   3.381
14577TIP3    H243673   3.247   2.799   3.427
14578TIP3   OH243674   4.978   1.751   1.796
14578TIP3    H143675   4.994   1.803   1.874
14578TIP3    H243676   5.038   1.786   1.731
14579TIP3   OH243677   7.475   5.344   6.238
14579TIP3    H143678   7.416   5.371   6.308
14579TIP3    H243679   7.418   5.303   6.173
14580TIP3   OH243680   0.724   1.978   3.111
14580TIP3    H143681   0.751   2.060   3.069
14580TIP3    H243682   0.721   1.914   3.040
14581TIP3   OH243683   1.347   1.317   3.714
14581TIP3    H143684   1.334   1.279   3.801
14581TIP3    H243685   1.270   1.372   3.700
14582TIP3   OH243686   0.932   1.176   2.393
14582TIP3    H143687   0.908   1.094   2.437
14582TIP3    H243688   0.925   1.157   2.300
14583TIP3   OH243689   0.315   5.981   1.615
14583TIP3    H143690   0.241   6.039   1.596
14583TIP3    H243691   0.392   6.037   1.608
14584TIP3   OH243692   6.587   3.054   3.051
14584TIP3    H143693   6.649   3.005   3.105
14584TIP3    H243694   6.532   3.101   3.115
14585TIP3   OH243695   1.739   3.351   3.485
14585TIP3    H143696   1.776   3.439   3.476
14585TIP3    H243697   1.647   3.361   3.459
14586TIP3   OH243698   2.281   6.149   4.668
14586TIP3    H143699   2.343   6.211   4.705
14586TIP3    H243700   2.231   6.116   4.743
14587TIP3   OH243701   0.370   1.623   0.066
14587TIP3    H143702   0.433   1.555   0.091
14587TIP3    H243703   0.406   1.660  -0.015
14588TIP3   OH243704   5.731   6.785   4.613
14588TIP3    H143705   5.730   6.729   4.535
14588TIP3    H243706   5.669   6.744   4.673
14589TIP3   OH243707   6.340   4.194   4.269
14589TIP3    H143708   6.361   4.110   4.309
14589TIP3    H243709   6.257   4.179   4.223
14590TIP3   OH243710   2.322   2.403   0.638
14590TIP3    H143711   2.372   2.327   0.666
14590TIP3    H243712   2.238   2.367   0.609
14591TIP3   OH243713   3.720   6.631   4.245
14591TIP3    H143714   3.807   6.598   4.267
14591TIP3    H243715   3.664   6.553   4.247
14592TIP3   OH243716   5.061   0.861   4.417
14592TIP3    H143717   5.008   0.905   4.351
14592TIP3    H243718   5.139   0.833   4.369
14593TIP3   OH243719   5.858   3.323   5.129
14593TIP3    H143720   5.779   3.269   5.137
14593TIP3    H243721   5.839   3.401   5.179
14594TIP3   OH243722   6.710   1.372   1.510
14594TIP3    H143723   6.760   1.449   1.483
14594TIP3    H243724   6.746   1.348   1.595
14595TIP3   OH243725   3.954   6.631   0.223
14595TIP3    H143726   3.989   6.712   0.259
14595TIP3    H243727   3.866   6.625   0.259
14596TIP3   OH243728   2.568   2.161   3.392
14596TIP3    H143729   2.513   2.099   3.345
14596TIP3    H243730   2.510   2.200   3.458
14597TIP3   OH243731   3.514   4.975   6.661
14597TIP3    H143732   3.461   4.949   6.737
14597TIP3    H243733   3.451   5.010   6.599
14598TIP3   OH243734   6.792   1.306   6.314
14598TIP3    H143735   6.784   1.361   6.236
14598TIP3    H243736   6.832   1.363   6.379
14599TIP3   OH243737   6.984   1.609   2.078
14599TIP3    H143738   7.022   1.523   2.058
14599TIP3    H243739   6.901   1.588   2.122
14600TIP3   OH243740   4.725   3.315   2.659
14600TIP3    H143741   4.667   3.239   2.667
14600TIP3    H243742   4.767   3.304   2.574
14601TIP3   OH243743   4.497   0.549   0.997
14601TIP3    H143744   4.421   0.608   1.003
14601TIP3    H243745   4.504   0.529   0.904
14602TIP3   OH243746   1.616   4.816   3.790
14602TIP3    H143747   1.537   4.863   3.761
14602TIP3    H243748   1.666   4.882   3.839
14603TIP3   OH243749   2.866   3.854   6.672
14603TIP3    H143750   2.902   3.776   6.630
14603TIP3    H243751   2.815   3.896   6.603
14604TIP3   OH243752   4.310   1.175   1.718
14604TIP3    H143753   4.329   1.231   1.793
14604TIP3    H243754   4.267   1.233   1.655
14605TIP3   OH243755   1.834   4.230   3.053
14605TIP3    H143756   1.914   4.187   3.085
14605TIP3    H243757   1.782   4.159   3.015
14606TIP3   OH243758   5.050   4.521   3.524
14606TIP3    H143759   5.038   4.499   3.617
14606TIP3    H243760   4.976   4.478   3.480
14607TIP3   OH243761   2.682   0.272   3.279
14607TIP3    H143762   2.628   0.302   3.352
14607TIP3    H243763   2.661   0.332   3.207
14608TIP3   OH243764   0.590   2.737   2.960
14608TIP3    H143765   0.511   2.753   3.011
14608TIP3    H243766   0.569   2.661   2.906
14609TIP3   OH243767   5.476   2.880   1.953
14609TIP3    H143768   5.431   2.964   1.954
14609TIP3    H243769   5.517   2.873   2.039
14610TIP3   OH243770   0.664   1.046   4.775
14610TIP3    H143771   0.632   0.976   4.718
14610TIP3    H243772   0.743   1.010   4.814
14611TIP3   OH243773   1.280   6.066   3.753
14611TIP3    H143774   1.198   6.077   3.705
14611TIP3    H243775   1.254   6.069   3.846
14612TIP3   OH243776   4.585   7.221   5.824
14612TIP3    H143777   4.533   7.173   5.760
14612TIP3    H243778   4.523   7.280   5.866
14613TIP3   OH243779   5.158   0.149   5.862
14613TIP3    H143780   5.163   0.186   5.950
14613TIP3    H243781   5.065   0.152   5.840
14614TIP3   OH243782   4.034   4.286   2.620
14614TIP3    H143783   4.101   4.229   2.581
14614TIP3    H243784   4.077   4.327   2.694
14615TIP3   OH243785   3.725   3.826   6.333
14615TIP3    H143786   3.769   3.803   6.414
14615TIP3    H243787   3.674   3.749   6.310
14616TIP3   OH243788   0.039   3.973   0.724
14616TIP3    H143789   0.104   3.981   0.654
14616TIP3    H243790  -0.018   4.049   0.713
14617TIP3   OH243791   7.697   2.925   4.840
14617TIP3    H143792   7.766   2.948   4.902
14617TIP3    H243793   7.742   2.875   4.772
14618TIP3   OH243794   1.995   4.347   5.310
14618TIP3    H143795   1.916   4.379   5.267
14618TIP3    H243796   2.041   4.426   5.337
14619TIP3   OH243797   5.335   4.166   3.793
14619TIP3    H143798   5.265   4.135   3.736
14619TIP3    H243799   5.414   4.123   3.760
14620TIP3   OH243800   6.202   3.958   5.210
14620TIP3    H143801   6.160   4.042   5.228
14620TIP3    H243802   6.258   3.975   5.134
14621TIP3   OH243803   6.767   2.086   2.928
14621TIP3    H143804   6.781   2.010   2.871
14621TIP3    H243805   6.820   2.155   2.888
14622TIP3   OH243806   2.501   0.596   1.845
14622TIP3    H143807   2.454   0.513   1.841
14622TIP3    H243808   2.589   0.573   1.876
14623TIP3   OH243809   6.075   4.736   3.018
14623TIP3    H143810   6.073   4.646   3.050
14623TIP3    H243811   6.163   4.747   2.982
14624TIP3   OH243812   4.875   0.923   5.677
14624TIP3    H143813   4.814   0.908   5.605
14624TIP3    H243814   4.879   0.838   5.723
14625TIP3   OH243815   7.935   2.638   5.859
14625TIP3    H143816   7.872   2.612   5.926
14625TIP3    H243817   7.883   2.649   5.780
14626TIP3   OH243818   0.465   0.038   5.551
14626TIP3    H143819   0.443   0.110   5.492
14626TIP3    H243820   0.382  -0.006   5.567
14627TIP3   OH243821   7.056   4.529   3.623
14627TIP3    H143822   7.059   4.603   3.684
14627TIP3    H243823   7.142   4.487   3.631
14628TIP3   OH243824   5.305   0.074   4.919
14628TIP3    H143825   5.265   0.034   4.997
14628TIP3    H243826   5.269   0.162   4.917
14629TIP3   OH243827   4.991   4.118   1.315
14629TIP3    H143828   4.981   4.213   1.311
14629TIP3    H243829   5.054   4.097   1.246
14630TIP3   OH243830   2.134   3.108   1.179
14630TIP3    H143831   2.075   3.139   1.111
14630TIP3    H243832   2.203   3.061   1.132
14631TIP3   OH243833   7.627   5.824   3.899
14631TIP3    H143834   7.575   5.795   3.975
14631TIP3    H243835   7.697   5.878   3.937
14632TIP3   OH243836   5.950   5.993   6.248
14632TIP3    H143837   5.894   5.983   6.171
14632TIP3    H243838   5.932   5.915   6.300
14633TIP3   OH243839   7.207   2.969   3.421
14633TIP3    H143840   7.272   2.910   3.382
14633TIP3    H243841   7.189   3.033   3.352
14634TIP3   OH243842   7.359   6.314   1.580
14634TIP3    H143843   7.432   6.289   1.524
14634TIP3    H243844   7.294   6.245   1.567
14635TIP3   OH243845   4.529   7.167   0.467
14635TIP3    H143846   4.489   7.211   0.392
14635TIP3    H243847   4.515   7.228   0.540
14636TIP3   OH243848   2.456   3.156   2.355
14636TIP3    H143849   2.374   3.131   2.312
14636TIP3    H243850   2.482   3.237   2.312
14637TIP3   OH243851   3.420   1.342   3.099
14637TIP3    H143852   3.466   1.356   3.016
14637TIP3    H243853   3.425   1.248   3.114
14638TIP3   OH243854   7.611   1.041   4.046
14638TIP3    H143855   7.562   0.978   4.099
14638TIP3    H243856   7.548   1.110   4.026
14639TIP3   OH243857   6.935   2.731   6.320
14639TIP3    H143858   6.947   2.826   6.325
14639TIP3    H243859   6.862   2.719   6.259
14640TIP3   OH243860   5.828   5.750   1.304
14640TIP3    H143861   5.827   5.665   1.347
14640TIP3    H243862   5.736   5.767   1.283
14641TIP3   OH243863   3.577   4.304   6.576
14641TIP3    H143864   3.568   4.218   6.534
14641TIP3    H243865   3.521   4.299   6.653
14642TIP3   OH243866   7.864   0.039   4.882
14642TIP3    H143867   7.784   0.007   4.924
14642TIP3    H243868   7.935   0.010   4.938
14643TIP3   OH243869   7.915   2.338   3.225
14643TIP3    H143870   7.919   2.355   3.131
14643TIP3    H243871   7.965   2.410   3.265
14644TIP3   OH243872   1.433   2.848   5.162
14644TIP3    H143873   1.510   2.888   5.202
14644TIP3    H243874   1.359   2.892   5.205
14645TIP3   OH243875   1.341   4.394   4.122
14645TIP3    H143876   1.414   4.431   4.072
14645TIP3    H243877   1.297   4.335   4.060
14646TIP3   OH243878   0.570   2.324   5.131
14646TIP3    H143879   0.593   2.313   5.039
14646TIP3    H243880   0.617   2.254   5.177
14647TIP3   OH243881   0.510   7.421   6.418
14647TIP3    H143882   0.511   7.504   6.467
14647TIP3    H243883   0.583   7.429   6.357
14648TIP3   OH243884   2.395   2.619   0.825
14648TIP3    H143885   2.366   2.547   0.769
14648TIP3    H243886   2.481   2.643   0.790
14649TIP3   OH243887  -0.022   1.723   3.266
14649TIP3    H143888   0.071   1.715   3.286
14649TIP3    H243889  -0.029   1.806   3.218
14650TIP3   OH243890   8.041   6.064   2.396
14650TIP3    H143891   7.996   5.983   2.374
14650TIP3    H243892   8.134   6.042   2.390
14651TIP3   OH243893   5.605   2.371   2.785
14651TIP3    H143894   5.581   2.456   2.822
14651TIP3    H243895   5.549   2.362   2.708
14652TIP3   OH243896   1.243   2.665   2.511
14652TIP3    H143897   1.235   2.636   2.602
14652TIP3    H243898   1.218   2.588   2.459
14653TIP3   OH243899   1.182   3.379   3.669
14653TIP3    H143900   1.265   3.409   3.703
14653TIP3    H243901   1.129   3.458   3.660
14654TIP3   OH243902   1.967   1.334   6.608
14654TIP3    H143903   1.914   1.255   6.610
14654TIP3    H243904   2.053   1.307   6.639
14655TIP3   OH243905   5.632   0.600   1.994
14655TIP3    H143906   5.677   0.666   2.047
14655TIP3    H243907   5.697   0.571   1.931
14656TIP3   OH243908   2.383   5.434   0.170
14656TIP3    H143909   2.354   5.525   0.173
14656TIP3    H243910   2.303   5.384   0.155
14657TIP3   OH243911   7.894   7.530   3.795
14657TIP3    H143912   7.922   7.485   3.874
14657TIP3    H243913   7.861   7.461   3.738
14658TIP3   OH243914   2.309   5.547   2.725
14658TIP3    H143915   2.220   5.554   2.691
14658TIP3    H243916   2.316   5.457   2.757
14659TIP3   OH243917   3.886   4.335   2.859
14659TIP3    H143918   3.806   4.345   2.911
14659TIP3    H243919   3.861   4.367   2.772
14660TIP3   OH243920   0.547   0.069   2.492
14660TIP3    H143921   0.457   0.080   2.464
14660TIP3    H243922   0.569  -0.021   2.468
14661TIP3   OH243923   3.671   1.418   1.183
14661TIP3    H143924   3.694   1.427   1.275
14661TIP3    H243925   3.615   1.340   1.179
14662TIP3   OH243926   5.965   2.774   4.175
14662TIP3    H143927   5.908   2.850   4.166
14662TIP3    H243928   6.044   2.808   4.218
14663TIP3   OH243929   2.029   0.483   6.556
14663TIP3    H143930   1.968   0.521   6.620
14663TIP3    H243931   2.094   0.551   6.540
14664TIP3   OH243932   5.335   1.341   2.359
14664TIP3    H143933   5.367   1.292   2.283
14664TIP3    H243934   5.260   1.390   2.326
14665TIP3   OH243935   3.386   3.735   0.887
14665TIP3    H143936   3.452   3.666   0.898
14665TIP3    H243937   3.352   3.750   0.975
14666TIP3   OH243938   3.079   4.343   5.569
14666TIP3    H143939   3.162   4.302   5.545
14666TIP3    H243940   3.103   4.426   5.609
14667TIP3   OH243941   8.365   4.159   1.838
14667TIP3    H143942   8.314   4.086   1.873
14667TIP3    H243943   8.391   4.130   1.751
14668TIP3   OH243944   0.541   3.389   2.108
14668TIP3    H143945   0.556   3.479   2.134
14668TIP3    H243946   0.449   3.373   2.131
14669TIP3   OH243947   0.622   6.205   3.339
14669TIP3    H143948   0.699   6.259   3.355
14669TIP3    H243949   0.550   6.268   3.333
14670TIP3   OH243950   3.877   5.466   6.420
14670TIP3    H143951   3.822   5.395   6.387
14670TIP3    H243952   3.829   5.546   6.398
14671TIP3   OH243953   8.258   3.729   6.432
14671TIP3    H143954   8.350   3.708   6.419
14671TIP3    H243955   8.211   3.650   6.405
14672TIP3   OH243956   7.040   3.205   6.079
14672TIP3    H143957   7.051   3.244   5.992
14672TIP3    H243958   7.000   3.274   6.132
14673TIP3   OH243959   6.571   2.401   5.179
14673TIP3    H143960   6.521   2.461   5.235
14673TIP3    H243961   6.633   2.360   5.239
14674TIP3   OH243962   4.034   4.773   5.006
14674TIP3    H143963   4.076   4.855   5.032
14674TIP3    H243964   4.094   4.734   4.943
14675TIP3   OH243965   7.012   7.842   0.379
14675TIP3    H143966   7.093   7.809   0.418
14675TIP3    H243967   6.971   7.765   0.340
14676TIP3   OH243968   4.047   3.776   1.656
14676TIP3    H143969   4.092   3.854   1.625
14676TIP3    H243970   3.987   3.808   1.724
14677TIP3   OH243971   0.095   2.945   5.479
14677TIP3    H143972   0.121   2.906   5.562
14677TIP3    H243973   0.004   2.919   5.467
14678TIP3   OH243974   8.262   2.458   4.048
14678TIP3    H143975   8.262   2.507   3.966
14678TIP3    H243976   8.325   2.387   4.034
14679TIP3   OH243977   8.355   1.117   4.177
14679TIP3    H143978   8.361   1.080   4.089
14679TIP3    H243979   8.291   1.062   4.222
14680TIP3   OH243980   6.083   1.829   6.036
14680TIP3    H143981   5.992   1.847   6.060
14680TIP3    H243982   6.098   1.739   6.064
14681TIP3   OH243983   6.565   1.531   1.706
14681TIP3    H143984   6.497   1.588   1.670
14681TIP3    H243985   6.537   1.443   1.681
14682TIP3   OH243986   4.834   7.218   3.989
14682TIP3    H143987   4.806   7.149   3.929
14682TIP3    H243988   4.866   7.288   3.933
14683TIP3   OH243989   7.856   5.390   6.489
14683TIP3    H143990   7.859   5.395   6.585
14683TIP3    H243991   7.915   5.460   6.460
14684TIP3   OH243992   6.931   4.673   0.805
14684TIP3    H143993   6.863   4.733   0.836
14684TIP3    H243994   7.007   4.729   0.790
14685TIP3   OH243995   4.040   0.760   5.280
14685TIP3    H143996   4.009   0.788   5.193
14685TIP3    H243997   4.053   0.666   5.270
14686TIP3   OH243998   4.309   6.176   2.340
14686TIP3    H143999   4.340   6.259   2.377
14686TIP3    H244000   4.378   6.113   2.360
14687TIP3   OH244001   3.577   7.924   4.436
14687TIP3    H144002   3.532   7.843   4.409
14687TIP3    H244003   3.576   7.921   4.531
14688TIP3   OH244004   7.349   3.184   5.044
14688TIP3    H144005   7.303   3.262   5.013
14688TIP3    H244006   7.279   3.126   5.074
14689TIP3   OH244007   0.887   6.202   1.133
14689TIP3    H144008   0.911   6.210   1.225
14689TIP3    H244009   0.792   6.208   1.132
14690TIP3   OH244010   7.974   2.918   0.108
14690TIP3    H144011   7.929   2.855   0.053
14690TIP3    H244012   7.903   2.969   0.148
14691TIP3   OH244013   7.010   5.168   6.770
14691TIP3    H144014   6.982   5.260   6.766
14691TIP3    H244015   6.953   5.129   6.837
14692TIP3   OH244016   3.410   4.192   6.149
14692TIP3    H144017   3.492   4.216   6.106
14692TIP3    H244018   3.355   4.270   6.142
14693TIP3   OH244019   1.558   5.370   3.480
14693TIP3    H144020   1.533   5.449   3.528
14693TIP3    H244021   1.568   5.303   3.548
14694TIP3   OH244022   2.905   1.016   5.857
14694TIP3    H144023   2.832   1.076   5.845
14694TIP3    H244024   2.900   0.990   5.949
14695TIP3   OH244025   8.169   4.914   2.116
14695TIP3    H144026   8.214   4.982   2.067
14695TIP3    H244027   8.087   4.900   2.069
14696TIP3   OH244028   4.804   4.502   4.011
14696TIP3    H144029   4.737   4.435   4.022
14696TIP3    H244030   4.814   4.541   4.098
14697TIP3   OH244031   5.990   6.060   1.619
14697TIP3    H144032   6.036   5.978   1.638
14697TIP3    H244033   6.041   6.127   1.664
14698TIP3   OH244034   7.723   6.600   1.405
14698TIP3    H144035   7.781   6.661   1.451
14698TIP3    H244036   7.780   6.527   1.379
14699TIP3   OH244037   6.990   6.781   2.533
14699TIP3    H144038   6.926   6.716   2.506
14699TIP3    H244039   6.962   6.808   2.620
14700TIP3   OH244040   7.383   0.548   3.312
14700TIP3    H144041   7.373   0.535   3.218
14700TIP3    H244042   7.477   0.561   3.324
14701TIP3   OH244043   1.890   5.374   4.655
14701TIP3    H144044   1.901   5.333   4.569
14701TIP3    H244045   1.923   5.309   4.716
14702TIP3   OH244046   4.075   3.275   1.923
14702TIP3    H144047   4.145   3.268   1.988
14702TIP3    H244048   4.039   3.363   1.936
14703TIP3   OH244049   3.546   3.508   4.936
14703TIP3    H144050   3.475   3.561   4.973
14703TIP3    H244051   3.580   3.458   5.009
14704TIP3   OH244052   7.018   7.333   1.119
14704TIP3    H144053   7.110   7.358   1.110
14704TIP3    H244054   6.970   7.416   1.117
14705TIP3   OH244055   3.395   6.958   5.861
14705TIP3    H144056   3.475   7.009   5.873
14705TIP3    H244057   3.360   6.947   5.949
14706TIP3   OH244058   3.974   2.157   5.070
14706TIP3    H144059   3.964   2.064   5.092
14706TIP3    H244060   3.903   2.174   5.008
14707TIP3   OH244061   4.575   6.532   5.153
14707TIP3    H144062   4.514   6.477   5.203
14707TIP3    H244063   4.538   6.534   5.065
14708TIP3   OH244064   7.011   6.422   0.306
14708TIP3    H144065   7.031   6.501   0.356
14708TIP3    H244066   6.939   6.448   0.249
14709TIP3   OH244067   0.133   1.809   4.929
14709TIP3    H144068   0.085   1.745   4.981
14709TIP3    H244069   0.131   1.774   4.840
14710TIP3   OH244070   5.466   5.802   4.899
14710TIP3    H144071   5.484   5.724   4.847
14710TIP3    H244072   5.502   5.874   4.847
14711TIP3   OH244073   2.033   7.182   6.642
14711TIP3    H144074   2.085   7.257   6.613
14711TIP3    H244075   1.954   7.186   6.587
14712TIP3   OH244076   4.849   0.449   0.004
14712TIP3    H144077   4.755   0.462   0.000
14712TIP3    H244078   4.862   0.386   0.075
14713TIP3   OH244079   3.805   3.115   4.396
14713TIP3    H144080   3.798   3.206   4.427
14713TIP3    H244081   3.756   3.114   4.314
14714TIP3   OH244082   7.392  -0.001   2.226
14714TIP3    H144083   7.435   0.078   2.260
14714TIP3    H244084   7.444  -0.073   2.261
14715TIP3   OH244085   2.801   3.151   4.618
14715TIP3    H144086   2.735   3.212   4.652
14715TIP3    H244087   2.849   3.203   4.553
14716TIP3   OH244088   6.958   2.744   0.551
14716TIP3    H144089   7.040   2.779   0.517
14716TIP3    H244090   6.976   2.726   0.643
14717TIP3   OH244091   5.440   3.960   2.801
14717TIP3    H144092   5.360   3.910   2.781
14717TIP3    H244093   5.418   4.009   2.880
14718TIP3   OH244094   5.147   2.719   1.036
14718TIP3    H144095   5.168   2.679   0.952
14718TIP3    H244096   5.155   2.813   1.019
14719TIP3   OH244097   5.459   7.368   5.072
14719TIP3    H144098   5.552   7.353   5.092
14719TIP3    H244099   5.460   7.419   4.991
14720TIP3   OH244100   2.486   3.227   3.049
14720TIP3    H144101   2.527   3.164   2.990
14720TIP3    H244102   2.559   3.274   3.090
14721TIP3   OH244103   7.063   6.048   3.809
14721TIP3    H144104   7.069   6.076   3.718
14721TIP3    H244105   7.053   5.953   3.805
14722TIP3   OH244106   0.926   3.959   5.347
14722TIP3    H144107   0.866   4.002   5.286
14722TIP3    H244108   0.872   3.937   5.423
14723TIP3   OH244109   5.097   0.723   2.041
14723TIP3    H144110   5.047   0.788   1.991
14723TIP3    H244111   5.188   0.741   2.019
14724TIP3   OH244112   1.253   4.075   4.033
14724TIP3    H144113   1.231   4.139   3.965
14724TIP3    H244114   1.172   4.064   4.083
14725TIP3   OH244115   5.490   6.346   0.043
14725TIP3    H144116   5.420   6.378   0.100
14725TIP3    H244117   5.473   6.387  -0.041
14726TIP3   OH244118   4.275   5.443   4.747
14726TIP3    H144119   4.302   5.388   4.673
14726TIP3    H244120   4.257   5.380   4.817
14727TIP3   OH244121   4.919   6.633   1.141
14727TIP3    H144122   5.003   6.665   1.108
14727TIP3    H244123   4.853   6.673   1.084
14728TIP3   OH244124   2.885   4.814   1.286
14728TIP3    H144125   2.911   4.893   1.333
14728TIP3    H244126   2.799   4.835   1.249
14729TIP3   OH244127   7.032   4.980   4.849
14729TIP3    H144128   7.041   4.899   4.798
14729TIP3    H244129   7.116   5.025   4.839
14730TIP3   OH244130   3.722   1.605   3.508
14730TIP3    H144131   3.746   1.534   3.568
14730TIP3    H244132   3.683   1.672   3.563
14731TIP3   OH244133   8.338   5.210   1.322
14731TIP3    H144134   8.350   5.116   1.335
14731TIP3    H244135   8.374   5.226   1.235
14732TIP3   OH244136   6.875   2.944   0.110
14732TIP3    H144137   6.809   2.950   0.178
14732TIP3    H244138   6.849   2.869   0.057
14733TIP3   OH244139   4.013   7.390   5.679
14733TIP3    H144140   4.080   7.424   5.738
14733TIP3    H244141   4.018   7.295   5.688
14734TIP3   OH244142   0.973   0.537   5.057
14734TIP3    H144143   1.044   0.502   5.111
14734TIP3    H244144   0.983   0.495   4.972
14735TIP3   OH244145   7.135   2.463   4.499
14735TIP3    H144146   7.230   2.470   4.513
14735TIP3    H244147   7.115   2.535   4.439
14736TIP3   OH244148   7.549   2.803   5.702
14736TIP3    H144149   7.610   2.864   5.743
14736TIP3    H244150   7.588   2.782   5.617
14737TIP3   OH244151   0.909   7.242   1.577
14737TIP3    H144152   1.003   7.254   1.572
14737TIP3    H244153   0.872   7.328   1.556
14738TIP3   OH244154   4.704   1.614   4.874
14738TIP3    H144155   4.621   1.584   4.836
14738TIP3    H244156   4.703   1.581   4.964
14739TIP3   OH244157   8.121   7.199   0.509
14739TIP3    H144158   8.187   7.186   0.578
14739TIP3    H244159   8.121   7.116   0.462
14740TIP3   OH244160   6.143   6.067   0.857
14740TIP3    H144161   6.079   6.028   0.917
14740TIP3    H244162   6.178   5.993   0.809
14741TIP3   OH244163   7.904   2.844   1.516
14741TIP3    H144164   7.972   2.830   1.450
14741TIP3    H244165   7.951   2.878   1.592
14742TIP3   OH244166   5.286   3.059   2.316
14742TIP3    H144167   5.369   3.029   2.354
14742TIP3    H244168   5.291   3.154   2.317
14743TIP3   OH244169   2.269   0.565   6.803
14743TIP3    H144170   2.306   0.641   6.758
14743TIP3    H244171   2.321   0.557   6.883
14744TIP3   OH244172   7.794   2.077   3.042
14744TIP3    H144173   7.869   2.112   2.995
14744TIP3    H244174   7.826   2.061   3.131
14745TIP3   OH244175   0.412   6.280   5.435
14745TIP3    H144176   0.460   6.329   5.369
14745TIP3    H244177   0.467   6.203   5.453
14746TIP3   OH244178   6.535   0.146   1.532
14746TIP3    H144179   6.598   0.082   1.568
14746TIP3    H244180   6.585   0.193   1.466
14747TIP3   OH244181   0.954   7.763   0.021
14747TIP3    H144182   0.891   7.816   0.069
14747TIP3    H244183   1.004   7.826  -0.031
14748TIP3   OH244184   0.560   4.227   4.361
14748TIP3    H144185   0.633   4.244   4.420
14748TIP3    H244186   0.495   4.292   4.383
14749TIP3   OH244187   3.596   5.339   1.577
14749TIP3    H144188   3.576   5.248   1.599
14749TIP3    H244189   3.671   5.334   1.518
14750TIP3   OH244190   6.214   7.687   0.810
14750TIP3    H144191   6.211   7.596   0.838
14750TIP3    H244192   6.160   7.734   0.873
14751TIP3   OH244193   7.070   5.689   2.916
14751TIP3    H144194   7.025   5.675   2.833
14751TIP3    H244195   7.050   5.612   2.969
14752TIP3   OH244196   1.666   0.872   1.303
14752TIP3    H144197   1.647   0.870   1.209
14752TIP3    H244198   1.645   0.961   1.330
14753TIP3   OH244199   1.691   0.947   3.225
14753TIP3    H144200   1.640   0.968   3.304
14753TIP3    H244201   1.654   0.864   3.194
14754TIP3   OH244202   3.211   3.170   1.893
14754TIP3    H144203   3.137   3.125   1.934
14754TIP3    H244204   3.226   3.122   1.811
14755TIP3   OH244205   6.189   5.058   3.737
14755TIP3    H144206   6.218   5.085   3.824
14755TIP3    H244207   6.263   5.009   3.701
14756TIP3   OH244208   8.170   6.063   4.272
14756TIP3    H144209   8.208   5.978   4.252
14756TIP3    H244210   8.197   6.081   4.362
14757TIP3   OH244211   7.083   6.631   4.243
14757TIP3    H144212   7.129   6.664   4.165
14757TIP3    H244213   7.032   6.557   4.212
14758TIP3   OH244214   2.613   7.297   4.878
14758TIP3    H144215   2.604   7.370   4.816
14758TIP3    H244216   2.523   7.269   4.894
14759TIP3   OH244217   4.902   7.719   6.538
14759TIP3    H144218   4.905   7.747   6.446
14759TIP3    H244219   4.976   7.659   6.547
14760TIP3   OH244220   2.004   6.264   4.760
14760TIP3    H144221   2.063   6.315   4.705
14760TIP3    H244222   2.055   6.246   4.839
14761TIP3   OH244223   5.408   5.282   3.682
14761TIP3    H144224   5.450   5.219   3.741
14761TIP3    H244225   5.473   5.350   3.669
14762TIP3   OH244226   4.194   6.932  -0.023
14762TIP3    H144227   4.274   6.880  -0.018
14762TIP3    H244228   4.173   6.952   0.068
14763TIP3   OH244229   2.642   0.244   6.663
14763TIP3    H144230   2.640   0.337   6.639
14763TIP3    H244231   2.557   0.227   6.704
14764TIP3   OH244232   1.678   5.032   4.044
14764TIP3    H144233   1.701   5.117   4.080
14764TIP3    H244234   1.582   5.029   4.045
14765TIP3   OH244235   1.476   3.433   3.537
14765TIP3    H144236   1.427   3.462   3.460
14765TIP3    H244237   1.531   3.508   3.560
14766TIP3   OH244238   0.484   0.953   0.866
14766TIP3    H144239   0.545   0.984   0.933
14766TIP3    H244240   0.404   0.933   0.914
14767TIP3   OH244241   0.460   3.044   3.741
14767TIP3    H144242   0.502   2.970   3.785
14767TIP3    H244243   0.467   3.023   3.648
14768TIP3   OH244244   6.562   4.586   3.352
14768TIP3    H144245   6.510   4.539   3.417
14768TIP3    H244246   6.497   4.619   3.289
14769TIP3   OH244247   5.277   2.320   1.637
14769TIP3    H144248   5.203   2.337   1.580
14769TIP3    H244249   5.240   2.276   1.713
14770TIP3   OH244250   4.349   1.626   1.029
14770TIP3    H144251   4.401   1.564   1.080
14770TIP3    H244252   4.332   1.582   0.946
14771TIP3   OH244253   0.572   5.758   6.097
14771TIP3    H144254   0.508   5.792   6.159
14771TIP3    H244255   0.640   5.826   6.093
14772TIP3   OH244256   1.852   6.906   3.600
14772TIP3    H144257   1.926   6.851   3.575
14772TIP3    H244258   1.837   6.962   3.524
14773TIP3   OH244259   3.755   5.055   3.549
14773TIP3    H144260   3.821   5.086   3.486
14773TIP3    H244261   3.797   5.065   3.634
14774TIP3   OH244262   0.877   6.082   0.004
14774TIP3    H144263   0.972   6.096   0.010
14774TIP3    H244264   0.839   6.158   0.048
14775TIP3   OH244265   8.211   5.171   1.997
14775TIP3    H144266   8.269   5.238   1.960
14775TIP3    H244267   8.139   5.221   2.035
14776TIP3   OH244268   6.381   2.802   1.707
14776TIP3    H144269   6.363   2.895   1.695
14776TIP3    H244270   6.456   2.784   1.650
14777TIP3   OH244271   7.274   5.123   4.755
14777TIP3    H144272   7.345   5.112   4.691
14777TIP3    H244273   7.271   5.217   4.770
14778TIP3   OH244274   2.646   7.318   3.725
14778TIP3    H144275   2.568   7.268   3.750
14778TIP3    H244276   2.719   7.263   3.754
14779TIP3   OH244277   4.846   6.436   6.463
14779TIP3    H144278   4.836   6.498   6.392
14779TIP3    H244279   4.821   6.351   6.425
14780TIP3   OH244280   0.062   5.836   5.770
14780TIP3    H144281  -0.001   5.901   5.738
14780TIP3    H244282   0.016   5.791   5.841
14781TIP3   OH244283   4.488   4.639   2.800
14781TIP3    H144284   4.402   4.620   2.836
14781TIP3    H244285   4.546   4.575   2.840
14782TIP3   OH244286   4.673   0.250   6.755
14782TIP3    H144287   4.618   0.176   6.779
14782TIP3    H244288   4.619   0.327   6.770
14783TIP3   OH244289   0.190   4.406   3.816
14783TIP3    H144290   0.280   4.400   3.783
14783TIP3    H244291   0.143   4.337   3.769
14784TIP3   OH244292   3.617   3.635   4.186
14784TIP3    H144293   3.628   3.725   4.156
14784TIP3    H244294   3.559   3.642   4.262
14785TIP3   OH244295   5.928   5.363   2.090
14785TIP3    H144296   6.002   5.342   2.033
14785TIP3    H244297   5.852   5.329   2.043
14786TIP3   OH244298   5.507   0.652   5.158
14786TIP3    H144299   5.532   0.737   5.194
14786TIP3    H244300   5.414   0.642   5.181
14787TIP3   OH244301   5.331   3.156   6.245
14787TIP3    H144302   5.360   3.071   6.210
14787TIP3    H244303   5.246   3.137   6.286
14788TIP3   OH244304   6.124   6.108   2.329
14788TIP3    H144305   6.159   6.018   2.328
14788TIP3    H244306   6.056   6.106   2.396
14789TIP3   OH244307   0.867   2.493   5.802
14789TIP3    H144308   0.858   2.565   5.864
14789TIP3    H244309   0.864   2.414   5.857
14790TIP3   OH244310   5.150   6.189   0.062
14790TIP3    H144311   5.178   6.209   0.151
14790TIP3    H244312   5.142   6.275   0.020
14791TIP3   OH244313   4.784   5.123   0.103
14791TIP3    H144314   4.833   5.204   0.090
14791TIP3    H244315   4.711   5.129   0.042
14792TIP3   OH244316   3.159   6.994   1.601
14792TIP3    H144317   3.068   7.021   1.588
14792TIP3    H244318   3.177   6.935   1.527
14793TIP3   OH244319   6.557   5.233   2.653
14793TIP3    H144320   6.489   5.300   2.656
14793TIP3    H244321   6.515   5.159   2.610
14794TIP3   OH244322   7.317   5.259   5.813
14794TIP3    H144323   7.340   5.351   5.804
14794TIP3    H244324   7.278   5.253   5.900
14795TIP3   OH244325   0.622   7.115   3.880
14795TIP3    H144326   0.672   7.193   3.855
14795TIP3    H244327   0.585   7.083   3.798
14796TIP3   OH244328   7.302   3.707   3.826
14796TIP3    H144329   7.293   3.785   3.771
14796TIP3    H244330   7.386   3.718   3.869
14797TIP3   OH244331   6.251   7.049  -0.001
14797TIP3    H144332   6.214   7.070   0.084
14797TIP3    H244333   6.340   7.020   0.018
14798TIP3   OH244334   5.466   0.318   3.324
14798TIP3    H144335   5.484   0.387   3.260
14798TIP3    H244336   5.374   0.294   3.308
14799TIP3   OH244337   0.209   2.438   4.787
14799TIP3    H144338   0.208   2.525   4.747
14799TIP3    H244339   0.281   2.442   4.850
14800TIP3   OH244340   8.345   1.507   0.207
14800TIP3    H144341   8.324   1.551   0.289
14800TIP3    H244342   8.296   1.425   0.210
14801TIP3   OH244343   2.017   5.204   0.754
14801TIP3    H144344   1.952   5.271   0.733
14801TIP3    H244345   2.100   5.252   0.755
14802TIP3   OH244346   1.356   4.104   6.010
14802TIP3    H144347   1.307   4.068   5.936
14802TIP3    H244348   1.289   4.129   6.074
14803TIP3   OH244349   7.840   6.195   4.206
14803TIP3    H144350   7.785   6.220   4.280
14803TIP3    H244351   7.870   6.277   4.168
14804TIP3   OH244352   5.935   4.182   4.478
14804TIP3    H144353   5.901   4.126   4.547
14804TIP3    H244354   5.993   4.125   4.427
14805TIP3   OH244355   0.980   1.448   0.992
14805TIP3    H144356   0.950   1.378   1.049
14805TIP3    H244357   1.012   1.516   1.051
14806TIP3   OH244358   1.821   1.034   1.654
14806TIP3    H144359   1.863   1.105   1.702
14806TIP3    H244360   1.785   1.076   1.576
14807TIP3   OH244361   7.961   0.793   2.120
14807TIP3    H144362   7.941   0.716   2.173
14807TIP3    H244363   7.885   0.802   2.062
14808TIP3   OH244364   2.180   0.957   4.189
14808TIP3    H144365   2.186   0.887   4.123
14808TIP3    H244366   2.098   1.002   4.168
14809TIP3   OH244367   3.280   4.399   1.206
14809TIP3    H144368   3.188   4.420   1.190
14809TIP3    H244369   3.277   4.334   1.276
14810TIP3   OH244370   2.292   7.504   0.567
14810TIP3    H144371   2.246   7.471   0.490
14810TIP3    H244372   2.269   7.442   0.636
14811TIP3   OH244373   2.877   7.593   6.005
14811TIP3    H144374   2.880   7.549   6.090
14811TIP3    H244375   2.898   7.684   6.025
14812TIP3   OH244376   3.301   4.786   1.019
14812TIP3    H144377   3.278   4.693   1.009
14812TIP3    H244378   3.292   4.822   0.931
14813TIP3   OH244379   6.532   0.612   1.963
14813TIP3    H144380   6.555   0.670   2.036
14813TIP3    H244381   6.437   0.616   1.958
14814TIP3   OH244382   7.886   0.580   4.419
14814TIP3    H144383   7.886   0.572   4.324
14814TIP3    H244384   7.871   0.491   4.450
14815TIP3   OH244385   2.115   6.349   1.262
14815TIP3    H144386   2.118   6.400   1.343
14815TIP3    H244387   2.040   6.385   1.213
14816TIP3   OH244388   6.006   3.745   5.098
14816TIP3    H144389   6.013   3.682   5.170
14816TIP3    H244390   6.076   3.808   5.114
14817TIP3   OH244391   2.225   6.962   3.630
14817TIP3    H144392   2.181   6.999   3.554
14817TIP3    H244393   2.170   6.989   3.704
14818TIP3   OH244394   1.903   3.241   6.735
14818TIP3    H144395   1.860   3.165   6.776
14818TIP3    H244396   1.884   3.314   6.795
14819TIP3   OH244397   1.862   2.784   2.392
14819TIP3    H144398   1.844   2.691   2.377
14819TIP3    H244399   1.846   2.796   2.486
14820TIP3   OH244400   8.134   7.433   6.314
14820TIP3    H144401   8.195   7.395   6.378
14820TIP3    H244402   8.062   7.369   6.309
14821TIP3   OH244403   3.121   7.588   6.327
14821TIP3    H144404   3.037   7.542   6.336
14821TIP3    H244405   3.183   7.519   6.304
14822TIP3   OH244406   6.580   0.573   3.089
14822TIP3    H144407   6.587   0.478   3.076
14822TIP3    H244408   6.652   0.595   3.147
14823TIP3   OH244409   2.076   6.153   2.247
14823TIP3    H144410   2.129   6.214   2.197
14823TIP3    H244411   2.054   6.200   2.328
14824TIP3   OH244412   7.673   2.713   1.303
14824TIP3    H144413   7.662   2.793   1.356
14824TIP3    H244414   7.717   2.744   1.223
14825TIP3   OH244415   7.393   0.585   6.172
14825TIP3    H144416   7.460   0.631   6.122
14825TIP3    H244417   7.387   0.632   6.255
14826TIP3   OH244418   1.620   0.179   5.376
14826TIP3    H144419   1.527   0.158   5.366
14826TIP3    H244420   1.652   0.192   5.287
14827TIP3   OH244421   5.727   3.444   6.530
14827TIP3    H144422   5.668   3.425   6.457
14827TIP3    H244423   5.716   3.537   6.546
14828TIP3   OH244424   4.933   1.244   2.642
14828TIP3    H144425   4.866   1.303   2.607
14828TIP3    H244426   4.965   1.290   2.720
14829TIP3   OH244427   6.172   0.956   4.212
14829TIP3    H144428   6.137   0.883   4.263
14829TIP3    H244429   6.095   0.995   4.170
14830TIP3   OH244430   5.101   4.773   6.538
14830TIP3    H144431   5.032   4.724   6.496
14830TIP3    H244432   5.088   4.863   6.508
14831TIP3   OH244433   6.896   4.012   0.134
14831TIP3    H144434   6.865   4.098   0.106
14831TIP3    H244435   6.974   4.030   0.186
14832TIP3   OH244436   4.417   0.304   0.032
14832TIP3    H144437   4.332   0.260   0.028
14832TIP3    H244438   4.477   0.237   0.065
14833TIP3   OH244439   0.669   0.451   0.253
14833TIP3    H144440   0.652   0.376   0.310
14833TIP3    H244441   0.634   0.526   0.301
14834TIP3   OH244442   1.686   0.803   6.633
14834TIP3    H144443   1.647   0.858   6.701
14834TIP3    H244444   1.696   0.862   6.558
14835TIP3   OH244445   5.366   5.385   3.422
14835TIP3    H144446   5.375   5.340   3.506
14835TIP3    H244447   5.322   5.467   3.443
14836TIP3   OH244448   0.657   7.009   4.290
14836TIP3    H144449   0.562   7.017   4.286
14836TIP3    H244450   0.674   6.929   4.340
14837TIP3   OH244451   2.345   7.540   5.191
14837TIP3    H144452   2.290   7.466   5.217
14837TIP3    H244453   2.432   7.503   5.180
14838TIP3   OH244454   1.766   4.696   5.460
14838TIP3    H144455   1.861   4.695   5.453
14838TIP3    H244456   1.736   4.650   5.382
14839TIP3   OH244457   3.467   6.019   6.012
14839TIP3    H144458   3.434   5.929   6.006
14839TIP3    H244459   3.389   6.074   6.006
14840TIP3   OH244460   4.255   3.032   3.576
14840TIP3    H144461   4.211   3.071   3.501
14840TIP3    H244462   4.213   2.947   3.588
14841TIP3   OH244463   4.604   1.665   5.143
14841TIP3    H144464   4.648   1.625   5.218
14841TIP3    H244465   4.515   1.630   5.147
14842TIP3   OH244466   2.991   0.109   3.858
14842TIP3    H144467   2.975   0.023   3.818
14842TIP3    H244468   3.045   0.089   3.934
14843TIP3   OH244469   5.437   0.426   4.525
14843TIP3    H144470   5.401   0.361   4.464
14843TIP3    H244471   5.387   0.413   4.606
14844TIP3   OH244472   6.335   5.365   4.193
14844TIP3    H144473   6.244   5.381   4.218
14844TIP3    H244474   6.374   5.452   4.185
14845TIP3   OH244475   0.849   4.503   0.467
14845TIP3    H144476   0.809   4.480   0.551
14845TIP3    H244477   0.872   4.418   0.428
14846TIP3   OH244478   5.378   7.547   6.197
14846TIP3    H144479   5.360   7.489   6.271
14846TIP3    H244480   5.306   7.532   6.136
14847TIP3   OH244481   5.519   3.004   2.428
14847TIP3    H144482   5.507   3.091   2.466
14847TIP3    H244483   5.550   2.950   2.501
14848TIP3   OH244484   3.380   6.919   6.152
14848TIP3    H144485   3.290   6.906   6.123
14848TIP3    H244486   3.428   6.845   6.116
14849TIP3   OH244487   2.117   7.115   1.899
14849TIP3    H144488   2.196   7.165   1.920
14849TIP3    H244489   2.130   7.086   1.809
14850TIP3   OH244490   8.346   4.270   6.088
14850TIP3    H144491   8.250   4.281   6.090
14850TIP3    H244492   8.363   4.199   6.150
14851TIP3   OH244493   2.235   2.112   1.128
14851TIP3    H144494   2.306   2.138   1.186
14851TIP3    H244495   2.222   2.188   1.071
14852TIP3   OH244496   4.281   2.528   2.289
14852TIP3    H144497   4.331   2.569   2.359
14852TIP3    H244498   4.190   2.528   2.321
14853TIP3   OH244499   2.159   4.187   4.587
14853TIP3    H144500   2.254   4.173   4.587
14853TIP3    H244501   2.125   4.116   4.533
14854TIP3   OH244502   6.411   7.371   0.425
14854TIP3    H144503   6.500   7.392   0.453
14854TIP3    H244504   6.362   7.361   0.506
14855TIP3   OH244505   3.852   3.881   0.502
14855TIP3    H144506   3.788   3.871   0.431
14855TIP3    H244507   3.846   3.973   0.528
14856TIP3   OH244508   4.128   5.477   0.292
14856TIP3    H144509   4.184   5.437   0.358
14856TIP3    H244510   4.042   5.483   0.333
14857TIP3   OH244511   7.596   3.347   6.768
14857TIP3    H144512   7.515   3.300   6.749
14857TIP3    H244513   7.631   3.368   6.681
14858TIP3   OH244514   7.911   0.964   3.151
14858TIP3    H144515   7.995   0.991   3.188
14858TIP3    H244516   7.848   1.027   3.187
14859TIP3   OH244517   3.809   7.484   1.160
14859TIP3    H144518   3.858   7.402   1.162
14859TIP3    H244519   3.845   7.532   1.086
14860TIP3   OH244520   7.315   3.702   4.971
14860TIP3    H144521   7.385   3.698   5.036
14860TIP3    H244522   7.291   3.795   4.967
14861TIP3   OH244523   3.794   5.226   2.711
14861TIP3    H144524   3.756   5.227   2.799
14861TIP3    H244525   3.836   5.141   2.704
14862TIP3   OH244526   6.720   7.058   4.302
14862TIP3    H144527   6.773   7.128   4.341
14862TIP3    H244528   6.783   7.003   4.255
14863TIP3   OH244529   1.391   0.957   1.753
14863TIP3    H144530   1.417   1.045   1.725
14863TIP3    H244531   1.296   0.957   1.745
14864TIP3   OH244532   2.473   2.487   3.662
14864TIP3    H144533   2.550   2.443   3.696
14864TIP3    H244534   2.431   2.422   3.605
14865TIP3   OH244535   1.224   3.884   0.435
14865TIP3    H144536   1.160   3.847   0.374
14865TIP3    H244537   1.249   3.967   0.396
14866TIP3   OH244538   4.287   1.997   4.308
14866TIP3    H144539   4.217   2.023   4.247
14866TIP3    H244540   4.365   1.992   4.254
14867TIP3   OH244541   3.657   7.760   5.156
14867TIP3    H144542   3.655   7.815   5.235
14867TIP3    H244543   3.577   7.785   5.109
14868TIP3   OH244544   3.773   7.631   3.363
14868TIP3    H144545   3.730   7.713   3.389
14868TIP3    H244546   3.741   7.615   3.274
14869TIP3   OH244547   3.646   5.835   1.334
14869TIP3    H144548   3.565   5.874   1.301
14869TIP3    H244549   3.624   5.806   1.423
14870TIP3   OH244550   6.944   3.366   1.217
14870TIP3    H144551   7.024   3.402   1.178
14870TIP3    H244552   6.896   3.329   1.143
14871TIP3   OH244553   8.257   4.863   5.910
14871TIP3    H144554   8.184   4.892   5.965
14871TIP3    H244555   8.322   4.829   5.972
14872TIP3   OH244556   2.079   3.024   2.766
14872TIP3    H144557   2.110   2.978   2.688
14872TIP3    H244558   2.159   3.047   2.813
14873TIP3   OH244559   4.962   4.396   2.356
14873TIP3    H144560   4.942   4.370   2.446
14873TIP3    H244561   5.055   4.420   2.358
14874TIP3   OH244562   0.962   4.841   4.039
14874TIP3    H144563   0.927   4.902   3.973
14874TIP3    H244564   1.019   4.782   3.989
14875TIP3   OH244565   7.551   1.395   2.492
14875TIP3    H144566   7.537   1.407   2.399
14875TIP3    H244567   7.472   1.429   2.533
14876TIP3   OH244568   5.847   0.265   1.968
14876TIP3    H144569   5.802   0.193   1.923
14876TIP3    H244570   5.935   0.266   1.929
14877TIP3   OH244571   1.293   2.864   3.893
14877TIP3    H144572   1.215   2.814   3.919
14877TIP3    H244573   1.350   2.800   3.851
14878TIP3   OH244574   7.138   3.647   2.117
14878TIP3    H144575   7.126   3.574   2.057
14878TIP3    H244576   7.226   3.635   2.152
14879TIP3   OH244577   6.894   6.737   0.074
14879TIP3    H144578   6.841   6.792   0.017
14879TIP3    H244579   6.940   6.798   0.131
14880TIP3   OH244580   6.453   2.590   5.703
14880TIP3    H144581   6.512   2.534   5.753
14880TIP3    H244582   6.509   2.663   5.675
14881TIP3   OH244583   2.872   7.251   5.600
14881TIP3    H144584   2.826   7.299   5.530
14881TIP3    H244585   2.834   7.286   5.681
14882TIP3   OH244586   4.662   7.290   5.263
14882TIP3    H144587   4.700   7.246   5.338
14882TIP3    H244588   4.575   7.250   5.253
14883TIP3   OH244589   7.565   1.899   1.995
14883TIP3    H144590   7.530   1.984   1.967
14883TIP3    H244591   7.643   1.886   1.940
14884TIP3   OH244592   2.787   7.857   2.612
14884TIP3    H144593   2.857   7.890   2.555
14884TIP3    H244594   2.706   7.874   2.563
14885TIP3   OH244595   7.977   6.751   4.300
14885TIP3    H144596   8.018   6.807   4.234
14885TIP3    H244597   8.050   6.705   4.341
14886TIP3   OH244598   7.769   0.868   3.411
14886TIP3    H144599   7.862   0.884   3.426
14886TIP3    H244600   7.726   0.898   3.491
14887TIP3   OH244601   0.400   3.538   2.442
14887TIP3    H144602   0.340   3.500   2.507
14887TIP3    H244603   0.358   3.519   2.358
14888TIP3   OH244604   1.190   0.960   4.959
14888TIP3    H144605   1.204   0.890   4.894
14888TIP3    H244606   1.254   0.942   5.027
14889TIP3   OH244607   1.151   4.106   5.504
14889TIP3    H144608   1.094   4.181   5.489
14889TIP3    H244609   1.117   4.039   5.445
14890TIP3   OH244610   1.732   5.416   3.945
14890TIP3    H144611   1.642   5.449   3.940
14890TIP3    H244612   1.734   5.366   4.026
14891TIP3   OH244613   3.785   3.018   5.446
14891TIP3    H144614   3.828   3.098   5.478
14891TIP3    H244615   3.716   3.050   5.388
14892TIP3   OH244616   7.761   7.422   1.627
14892TIP3    H144617   7.800   7.497   1.583
14892TIP3    H244618   7.676   7.411   1.584
14893TIP3   OH244619   6.283   5.211   4.753
14893TIP3    H144620   6.341   5.138   4.731
14893TIP3    H244621   6.325   5.288   4.714
14894TIP3   OH244622   5.934   5.662   6.592
14894TIP3    H144623   5.903   5.695   6.508
14894TIP3    H244624   6.024   5.694   6.599
14895TIP3   OH244625   1.814   0.113   0.812
14895TIP3    H144626   1.746   0.094   0.877
14895TIP3    H244627   1.883   0.157   0.862
14896TIP3   OH244628   1.089   4.979   0.910
14896TIP3    H144629   1.005   4.993   0.867
14896TIP3    H244630   1.139   4.927   0.847
14897TIP3   OH244631   1.824   1.280   4.703
14897TIP3    H144632   1.826   1.364   4.658
14897TIP3    H244633   1.789   1.300   4.790
14898TIP3   OH244634   6.872   5.979   6.578
14898TIP3    H144635   6.913   5.963   6.663
14898TIP3    H244636   6.872   5.894   6.535
14899TIP3   OH244637   1.762   5.259   4.180
14899TIP3    H144638   1.815   5.338   4.196
14899TIP3    H244639   1.755   5.218   4.265
14900TIP3   OH244640   1.565   5.045   1.971
14900TIP3    H144641   1.499   5.045   1.901
14900TIP3    H244642   1.549   5.127   2.018
14901TIP3   OH244643   1.610   0.277   6.198
14901TIP3    H144644   1.667   0.344   6.236
14901TIP3    H244645   1.662   0.239   6.127
14902TIP3   OH244646   2.436   3.461   1.969
14902TIP3    H144647   2.402   3.542   1.932
14902TIP3    H244648   2.389   3.392   1.922
14903TIP3   OH244649   5.892   5.393   1.013
14903TIP3    H144650   5.974   5.383   1.060
14903TIP3    H244651   5.912   5.454   0.942
14904TIP3   OH244652   3.533   5.105   1.721
14904TIP3    H144653   3.591   5.053   1.776
14904TIP3    H244654   3.490   5.041   1.665
14905TIP3   OH244655   8.279   6.038   2.590
14905TIP3    H144656   8.223   5.966   2.617
14905TIP3    H244657   8.244   6.114   2.636
14906TIP3   OH244658   3.731   6.337   6.712
14906TIP3    H144659   3.743   6.400   6.641
14906TIP3    H244660   3.670   6.381   6.772
14907TIP3   OH244661   3.937   2.264   6.059
14907TIP3    H144662   3.945   2.356   6.082
14907TIP3    H244663   3.914   2.264   5.966
14908TIP3   OH244664   7.922   7.266   0.698
14908TIP3    H144665   7.914   7.212   0.777
14908TIP3    H244666   7.993   7.225   0.648
14909TIP3   OH244667   4.978   0.664   2.333
14909TIP3    H144668   5.010   0.724   2.267
14909TIP3    H244669   4.911   0.612   2.289
14910TIP3   OH244670   7.688   4.227   3.697
14910TIP3    H144671   7.643   4.299   3.652
14910TIP3    H244672   7.636   4.149   3.678
14911TIP3   OH244673   4.939   0.660   6.764
14911TIP3    H144674   4.970   0.644   6.675
14911TIP3    H244675   4.844   0.647   6.759
14912TIP3   OH244676   7.736   4.965   3.609
14912TIP3    H144677   7.800   5.032   3.586
14912TIP3    H244678   7.776   4.882   3.583
14913TIP3   OH244679   3.829   1.576   6.401
14913TIP3    H144680   3.798   1.574   6.310
14913TIP3    H244681   3.902   1.639   6.400
14914TIP3   OH244682   7.816   2.721   1.051
14914TIP3    H144683   7.822   2.627   1.071
14914TIP3    H244684   7.755   2.726   0.978
14915TIP3   OH244685   1.982   1.208   0.949
14915TIP3    H144686   1.920   1.220   1.021
14915TIP3    H244687   2.044   1.280   0.959
14916TIP3   OH244688   5.534   7.516   5.343
14916TIP3    H144689   5.455   7.464   5.355
14916TIP3    H244690   5.538   7.533   5.249
14917TIP3   OH244691   6.640   4.428   0.534
14917TIP3    H144692   6.567   4.438   0.596
14917TIP3    H244693   6.676   4.342   0.553
14918TIP3   OH244694   1.659   4.588   0.743
14918TIP3    H144695   1.601   4.594   0.668
14918TIP3    H244696   1.659   4.675   0.782
14919TIP3   OH244697   0.363   1.022   6.725
14919TIP3    H144698   0.381   1.024   6.631
14919TIP3    H244699   0.347   1.113   6.749
14920TIP3   OH244700   3.880   3.920   1.845
14920TIP3    H144701   3.926   3.978   1.906
14920TIP3    H244702   3.826   3.864   1.902
14921TIP3   OH244703   6.427   5.901   3.737
14921TIP3    H144704   6.339   5.891   3.701
14921TIP3    H244705   6.451   5.813   3.767
14922TIP3   OH244706   1.584   0.429   2.149
14922TIP3    H144707   1.584   0.521   2.177
14922TIP3    H244708   1.641   0.385   2.212
14923TIP3   OH244709   5.355   7.109   2.687
14923TIP3    H144710   5.321   7.093   2.775
14923TIP3    H244711   5.387   7.199   2.689
14924TIP3   OH244712   4.820   5.965   2.483
14924TIP3    H144713   4.874   6.044   2.492
14924TIP3    H244714   4.750   5.991   2.423
14925TIP3   OH244715   0.250   1.110   1.067
14925TIP3    H144716   0.171   1.061   1.045
14925TIP3    H244717   0.299   1.052   1.125
14926TIP3   OH244718   5.329   2.282   3.753
14926TIP3    H144719   5.413   2.297   3.709
14926TIP3    H244720   5.354   2.259   3.843
14927TIP3   OH244721   5.345   6.044   2.006
14927TIP3    H144722   5.289   6.111   1.965
14927TIP3    H244723   5.287   5.999   2.067
14928TIP3   OH244724   4.949   4.027   2.577
14928TIP3    H144725   4.899   3.964   2.628
14928TIP3    H244726   4.968   3.982   2.494
14929TIP3   OH244727   6.711   0.339   6.563
14929TIP3    H144728   6.693   0.260   6.512
14929TIP3    H244729   6.798   0.367   6.535
14930TIP3   OH244730   1.604   4.713   3.359
14930TIP3    H144731   1.590   4.794   3.310
14930TIP3    H244732   1.685   4.728   3.408
14931TIP3   OH244733   1.122   4.878   6.797
14931TIP3    H144734   1.056   4.898   6.863
14931TIP3    H244735   1.164   4.962   6.777
14932TIP3   OH244736   7.615   3.236   3.091
14932TIP3    H144737   7.535   3.288   3.080
14932TIP3    H244738   7.593   3.151   3.055
14933TIP3   OH244739   5.304   1.328   1.683
14933TIP3    H144740   5.380   1.270   1.685
14933TIP3    H244741   5.331   1.400   1.626
14934TIP3   OH244742   1.314   6.331   4.257
14934TIP3    H144743   1.276   6.335   4.345
14934TIP3    H244744   1.404   6.302   4.271
14935TIP3   OH244745   6.357   6.306   0.172
14935TIP3    H144746   6.368   6.271   0.260
14935TIP3    H244747   6.423   6.260   0.120
14936TIP3   OH244748   1.231   3.940   2.019
14936TIP3    H144749   1.306   3.946   1.960
14936TIP3    H244750   1.182   4.021   2.004
14937TIP3   OH244751   7.011   2.585   5.702
14937TIP3    H144752   6.998   2.596   5.796
14937TIP3    H244753   7.097   2.546   5.693
14938TIP3   OH244754   8.094   0.618   1.184
14938TIP3    H144755   8.020   0.557   1.188
14938TIP3    H244756   8.170   0.563   1.164
14939TIP3   OH244757   7.498   7.567   5.669
14939TIP3    H144758   7.557   7.568   5.744
14939TIP3    H244759   7.479   7.660   5.653
14940TIP3   OH244760   8.088   2.439   0.704
14940TIP3    H144761   8.118   2.523   0.670
14940TIP3    H244762   8.140   2.425   0.784
14941TIP3   OH244763   8.234   0.570   2.915
14941TIP3    H144764   8.139   0.581   2.918
14941TIP3    H244765   8.250   0.486   2.958
14942TIP3   OH244766   7.473   5.138   0.448
14942TIP3    H144767   7.489   5.200   0.377
14942TIP3    H244768   7.427   5.189   0.515
14943TIP3   OH244769   7.005   0.137   0.143
14943TIP3    H144770   7.101   0.134   0.150
14943TIP3    H244771   6.979   0.210   0.199
14944TIP3   OH244772   3.604   2.263   2.771
14944TIP3    H144773   3.549   2.185   2.759
14944TIP3    H244774   3.693   2.231   2.759
14945TIP3   OH244775   1.973   7.473   5.135
14945TIP3    H144776   2.033   7.502   5.066
14945TIP3    H244777   1.963   7.379   5.120
14946TIP3   OH244778   4.035   5.530   3.558
14946TIP3    H144779   4.111   5.517   3.501
14946TIP3    H244780   3.964   5.554   3.499
14947TIP3   OH244781   1.834   6.882   1.046
14947TIP3    H144782   1.870   6.963   1.009
14947TIP3    H244783   1.742   6.902   1.060
14948TIP3   OH244784   1.447  -0.020   0.972
14948TIP3    H144785   1.530  -0.025   0.926
14948TIP3    H244786   1.400   0.052   0.931
14949TIP3   OH244787   7.422   1.652   2.102
14949TIP3    H144788   7.495   1.658   2.040
14949TIP3    H244789   7.391   1.742   2.111
14950TIP3   OH244790   7.068   7.613   1.324
14950TIP3    H144791   6.988   7.593   1.277
14950TIP3    H244792   7.105   7.688   1.278
14951TIP3   OH244793   7.734   3.887   6.582
14951TIP3    H144794   7.818   3.845   6.561
14951TIP3    H244795   7.694   3.828   6.645
14952TIP3   OH244796   0.952   4.098   3.190
14952TIP3    H144797   0.868   4.053   3.181
14952TIP3    H244798   0.966   4.139   3.104
14953TIP3   OH244799   0.971   3.608   4.640
14953TIP3    H144800   1.006   3.661   4.569
14953TIP3    H244801   0.903   3.662   4.680
14954TIP3   OH244802   4.617   4.666   1.397
14954TIP3    H144803   4.679   4.711   1.455
14954TIP3    H244804   4.669   4.645   1.319
14955TIP3   OH244805   0.199   4.698   3.325
14955TIP3    H144806   0.229   4.769   3.382
14955TIP3    H244807   0.210   4.734   3.236
14956TIP3   OH244808   1.189   4.738   4.900
14956TIP3    H144809   1.203   4.714   4.991
14956TIP3    H244810   1.247   4.680   4.851
14957TIP3   OH244811   0.400   3.984   5.867
14957TIP3    H144812   0.432   4.057   5.920
14957TIP3    H244813   0.319   3.957   5.910
14958TIP3   OH244814   1.070   7.155   0.436
14958TIP3    H144815   1.135   7.161   0.507
14958TIP3    H244816   1.043   7.064   0.436
14959TIP3   OH244817   7.855   1.338   3.775
14959TIP3    H144818   7.795   1.362   3.845
14959TIP3    H244819   7.913   1.413   3.765
14960TIP3   OH244820   3.075   3.961   5.381
14960TIP3    H144821   3.012   4.032   5.393
14960TIP3    H244822   3.059   3.903   5.455
14961TIP3   OH244823   5.786   7.354   0.610
14961TIP3    H144824   5.874   7.338   0.576
14961TIP3    H244825   5.737   7.391   0.537
14962TIP3   OH244826   6.903   3.191   5.470
14962TIP3    H144827   6.957   3.135   5.527
14962TIP3    H244828   6.828   3.136   5.447
14963TIP3   OH244829   5.578   2.552   5.004
14963TIP3    H144830   5.514   2.525   4.939
14963TIP3    H244831   5.663   2.527   4.967
14964TIP3   OH244832   6.851   0.708   0.856
14964TIP3    H144833   6.861   0.765   0.779
14964TIP3    H244834   6.759   0.681   0.854
14965TIP3   OH244835   2.551   2.085   2.257
14965TIP3    H144836   2.568   2.078   2.163
14965TIP3    H244837   2.489   2.158   2.265
14966TIP3   OH244838   4.158   2.085   2.495
14966TIP3    H144839   4.063   2.079   2.508
14966TIP3    H244840   4.169   2.079   2.400
14967TIP3   OH244841   3.313   4.276   2.378
14967TIP3    H144842   3.310   4.357   2.430
14967TIP3    H244843   3.221   4.253   2.365
14968TIP3   OH244844   1.502   2.751   5.591
14968TIP3    H144845   1.475   2.842   5.577
14968TIP3    H244846   1.436   2.699   5.545
14969TIP3   OH244847   5.795   6.144   5.299
14969TIP3    H144848   5.708   6.167   5.332
14969TIP3    H244849   5.788   6.152   5.204
14970TIP3   OH244850   7.028   7.408   2.232
14970TIP3    H144851   7.003   7.483   2.286
14970TIP3    H244852   7.089   7.359   2.287
14971TIP3   OH244853   2.871   7.707   4.505
14971TIP3    H144854   2.797   7.739   4.555
14971TIP3    H244855   2.835   7.637   4.451
14972TIP3   OH244856   5.075   4.868   4.401
14972TIP3    H144857   5.011   4.797   4.396
14972TIP3    H244858   5.025   4.943   4.434
14973TIP3   OH244859   0.179   3.675   5.655
14973TIP3    H144860   0.260   3.653   5.701
14973TIP3    H244861   0.151   3.758   5.693
14974TIP3   OH244862   4.311   1.044   1.299
14974TIP3    H144863   4.242   1.033   1.365
14974TIP3    H244864   4.380   0.984   1.326
14975TIP3   OH244865   8.133   7.050   3.857
14975TIP3    H144866   8.072   7.119   3.827
14975TIP3    H244867   8.190   7.094   3.920
14976TIP3   OH244868   1.536   6.214   3.630
14976TIP3    H144869   1.566   6.135   3.585
14976TIP3    H244870   1.481   6.182   3.701
14977TIP3   OH244871   5.484   3.267   2.511
14977TIP3    H144872   5.559   3.301   2.560
14977TIP3    H244873   5.408   3.312   2.548
14978TIP3   OH244874   4.104   6.263   0.216
14978TIP3    H144875   4.048   6.185   0.215
14978TIP3    H244876   4.140   6.266   0.127
14979TIP3   OH244877   4.978   6.644   4.309
14979TIP3    H144878   4.957   6.660   4.401
14979TIP3    H244879   5.072   6.660   4.303
14980TIP3   OH244880   2.513   7.913   3.445
14980TIP3    H144881   2.604   7.884   3.433
14980TIP3    H244882   2.500   7.909   3.540
14981TIP3   OH244883   1.352   6.013   1.430
14981TIP3    H144884   1.436   5.985   1.392
14981TIP3    H244885   1.373   6.096   1.474
14982TIP3   OH244886   1.037   1.613   3.434
14982TIP3    H144887   1.013   1.553   3.363
14982TIP3    H244888   0.954   1.647   3.466
14983TIP3   OH244889   6.189   2.878   4.274
14983TIP3    H144890   6.265   2.917   4.231
14983TIP3    H244891   6.217   2.864   4.365
14984TIP3   OH244892   2.041   1.708   4.817
14984TIP3    H144893   2.041   1.612   4.820
14984TIP3    H244894   2.060   1.729   4.726
14985TIP3   OH244895   4.571   5.407   5.319
14985TIP3    H144896   4.524   5.355   5.383
14985TIP3    H244897   4.654   5.361   5.307
14986TIP3   OH244898   6.858   3.089   5.144
14986TIP3    H144899   6.881   3.182   5.146
14986TIP3    H244900   6.785   3.082   5.205
14987TIP3   OH244901   2.733   7.139   3.207
14987TIP3    H144902   2.781   7.121   3.126
14987TIP3    H244903   2.656   7.083   3.202
14988TIP3   OH244904   1.992   3.158   0.935
14988TIP3    H144905   1.905   3.118   0.936
14988TIP3    H244906   1.986   3.227   0.869
14989TIP3   OH244907   4.213   5.814   2.671
14989TIP3    H144908   4.161   5.835   2.593
14989TIP3    H244909   4.280   5.753   2.639
14990TIP3   OH244910   4.236   6.231   3.913
14990TIP3    H144911   4.327   6.226   3.883
14990TIP3    H244912   4.184   6.234   3.833
14991TIP3   OH244913   2.391   4.797   0.601
14991TIP3    H144914   2.307   4.801   0.648
14991TIP3    H244915   2.442   4.869   0.637
14992TIP3   OH244916   2.529   6.312   4.139
14992TIP3    H144917   2.495   6.250   4.203
14992TIP3    H244918   2.591   6.262   4.087
14993TIP3   OH244919   7.253   2.171   2.164
14993TIP3    H144920   7.344   2.198   2.152
14993TIP3    H244921   7.216   2.236   2.223
14994TIP3   OH244922   5.388   0.684   1.885
14994TIP3    H144923   5.394   0.763   1.939
14994TIP3    H244924   5.458   0.628   1.918
14995TIP3   OH244925   2.313   4.459   5.483
14995TIP3    H144926   2.396   4.467   5.435
14995TIP3    H244927   2.276   4.547   5.480
14996TIP3   OH244928   7.677   2.371   5.871
14996TIP3    H144929   7.601   2.419   5.837
14996TIP3    H244930   7.737   2.365   5.796
14997TIP3   OH244931   6.046   5.654   4.735
14997TIP3    H144932   5.979   5.591   4.762
14997TIP3    H244933   6.128   5.605   4.739
14998TIP3   OH244934   5.447   2.285   6.715
14998TIP3    H144935   5.444   2.358   6.655
14998TIP3    H244936   5.364   2.289   6.763
14999TIP3   OH244937   6.113   6.850   1.598
14999TIP3    H144938   6.055   6.875   1.670
14999TIP3    H244939   6.119   6.755   1.605
15000TIP3   OH244940   5.499   2.598   3.918
15000TIP3    H144941   5.556   2.523   3.901
15000TIP3    H244942   5.543   2.645   3.989
15001TIP3   OH244943   5.081   3.048   1.594
15001TIP3    H144944   5.082   2.961   1.553
15001TIP3    H244945   5.071   3.108   1.520
15002TIP3   OH244946   0.534   3.197   0.119
15002TIP3    H144947   0.469   3.177   0.052
15002TIP3    H244948   0.524   3.128   0.184
15003TIP3   OH244949   1.414   7.017   1.831
15003TIP3    H144950   1.466   7.019   1.751
15003TIP3    H244951   1.358   6.940   1.820
15004TIP3   OH244952   7.121   5.759   6.527
15004TIP3    H144953   7.149   5.684   6.579
15004TIP3    H244954   7.035   5.735   6.493
15005TIP3   OH244955   0.291   0.836   2.483
15005TIP3    H144956   0.321   0.927   2.493
15005TIP3    H244957   0.284   0.824   2.389
15006TIP3   OH244958   6.660   4.755   4.418
15006TIP3    H144959   6.584   4.780   4.365
15006TIP3    H244960   6.625   4.691   4.480
15007TIP3   OH244961   0.493   5.515   2.262
15007TIP3    H144962   0.548   5.526   2.340
15007TIP3    H244963   0.464   5.424   2.266
15008TIP3   OH244964   6.910   5.744   4.478
15008TIP3    H144965   6.911   5.698   4.562
15008TIP3    H244966   6.818   5.744   4.452
15009TIP3   OH244967   0.407   1.920   4.956
15009TIP3    H144968   0.421   1.963   5.040
15009TIP3    H244969   0.313   1.905   4.952
15010TIP3   OH244970   1.612   5.208   5.633
15010TIP3    H144971   1.563   5.209   5.715
15010TIP3    H244972   1.548   5.231   5.566
15011TIP3   OH244973   6.410   5.379   0.576
15011TIP3    H144974   6.502   5.355   0.588
15011TIP3    H244975   6.364   5.330   0.645
15012TIP3   OH244976   1.216   0.378   2.666
15012TIP3    H144977   1.131   0.399   2.704
15012TIP3    H244978   1.278   0.390   2.737
15013TIP3   OH244979   2.410   0.143   5.216
15013TIP3    H144980   2.403   0.154   5.121
15013TIP3    H244981   2.325   0.169   5.250
15014TIP3   OH244982   7.471   1.430   1.820
15014TIP3    H144983   7.476   1.478   1.738
15014TIP3    H244984   7.487   1.495   1.888
15015TIP3   OH244985   5.785   2.596   5.379
15015TIP3    H144986   5.701   2.552   5.392
15015TIP3    H244987   5.816   2.614   5.468
15016TIP3   OH244988   4.004   0.743   6.721
15016TIP3    H144989   3.989   0.649   6.710
15016TIP3    H244990   4.046   0.750   6.807
15017TIP3   OH244991   3.650   0.935   3.463
15017TIP3    H144992   3.647   0.839   3.460
15017TIP3    H244993   3.743   0.956   3.461
15018TIP3   OH244994   0.861   1.638   2.159
15018TIP3    H144995   0.821   1.640   2.246
15018TIP3    H244996   0.865   1.545   2.136
15019TIP3   OH244997   0.850   1.812   3.719
15019TIP3    H144998   0.942   1.814   3.745
15019TIP3    H244999   0.831   1.902   3.691
15020TIP3   OH245000   2.187   7.300   0.160
15020TIP3    H145001   2.179   7.206   0.177
15020TIP3    H245002   2.151   7.311   0.072
15021TIP3   OH245003   2.222   4.115   5.987
15021TIP3    H145004   2.210   4.095   5.894
15021TIP3    H245005   2.139   4.153   6.014
15022TIP3   OH245006   6.558   0.868   1.512
15022TIP3    H145007   6.475   0.866   1.464
15022TIP3    H245008   6.614   0.925   1.459
15023TIP3   OH245009   5.925   5.154   0.308
15023TIP3    H145010   5.979   5.203   0.371
15023TIP3    H245011   5.853   5.212   0.287
15024TIP3   OH245012   1.183   0.304   5.889
15024TIP3    H145013   1.230   0.276   5.968
15024TIP3    H245014   1.199   0.398   5.883
15025TIP3   OH245015   6.081   7.103   5.252
15025TIP3    H145016   6.023   7.157   5.307
15025TIP3    H245017   6.160   7.156   5.242
15026TIP3   OH245018   7.405   5.481   0.827
15026TIP3    H145019   7.453   5.445   0.753
15026TIP3    H245020   7.439   5.570   0.837
15027TIP3   OH245021   0.729   3.373   1.694
15027TIP3    H145022   0.794   3.438   1.666
15027TIP3    H245023   0.780   3.297   1.722
15028TIP3   OH245024   5.480   3.524   3.409
15028TIP3    H145025   5.428   3.601   3.429
15028TIP3    H245026   5.569   3.545   3.438
15029TIP3   OH245027   5.090   1.198   6.796
15029TIP3    H145028   5.156   1.147   6.843
15029TIP3    H245029   5.104   1.288   6.826
15030TIP3   OH245030   5.830   0.170   3.863
15030TIP3    H145031   5.810   0.104   3.929
15030TIP3    H245032   5.819   0.254   3.909
15031TIP3   OH245033   7.482   0.051   1.703
15031TIP3    H145034   7.518   0.126   1.656
15031TIP3    H245035   7.440  -0.002   1.636
15032TIP3   OH245036   2.528   1.023   0.801
15032TIP3    H145037   2.514   1.060   0.714
15032TIP3    H245038   2.553   1.099   0.855
15033TIP3   OH245039   1.107   1.193   3.301
15033TIP3    H145040   1.082   1.115   3.252
15033TIP3    H245041   1.039   1.257   3.282
15034TIP3   OH245042   4.346   5.925   1.404
15034TIP3    H145043   4.375   6.016   1.393
15034TIP3    H245044   4.315   5.899   1.318
15035TIP3   OH245045   3.960   5.747   0.280
15035TIP3    H145046   4.050   5.719   0.298
15035TIP3    H245047   3.921   5.760   0.366
15036TIP3   OH245048   0.618   4.480   4.092
15036TIP3    H145049   0.646   4.513   4.178
15036TIP3    H245050   0.666   4.534   4.029
15037TIP3   OH245051   6.692   2.889   6.219
15037TIP3    H145052   6.740   2.922   6.295
15037TIP3    H245053   6.727   2.938   6.145
15038TIP3   OH245054   6.612   7.353   6.450
15038TIP3    H145055   6.669   7.428   6.468
15038TIP3    H245056   6.595   7.314   6.536
15039TIP3   OH245057   7.699   4.180   5.354
15039TIP3    H145058   7.746   4.256   5.318
15039TIP3    H245059   7.764   4.132   5.404
15040TIP3   OH245060   7.159   1.999   1.147
15040TIP3    H145061   7.152   1.969   1.237
15040TIP3    H245062   7.190   1.922   1.098
15041TIP3   OH245063   1.224   7.774   6.232
15041TIP3    H145064   1.154   7.709   6.236
15041TIP3    H245065   1.180   7.859   6.238
15042TIP3   OH245066   0.629   3.170   1.220
15042TIP3    H145067   0.673   3.220   1.289
15042TIP3    H245068   0.538   3.201   1.221
15043TIP3   OH245069   6.749   6.515   3.322
15043TIP3    H145070   6.747   6.589   3.383
15043TIP3    H245071   6.657   6.501   3.299
15044TIP3   OH245072   4.232   4.202   6.235
15044TIP3    H145073   4.143   4.236   6.236
15044TIP3    H245074   4.266   4.225   6.148
15045TIP3   OH245075   8.310   3.587   4.298
15045TIP3    H145076   8.223   3.611   4.330
15045TIP3    H245077   8.298   3.570   4.205
15046TIP3   OH245078   6.404   0.869   3.920
15046TIP3    H145079   6.473   0.896   3.980
15046TIP3    H245080   6.426   0.912   3.837
15047TIP3   OH245081   5.558   1.700   6.699
15047TIP3    H145082   5.603   1.693   6.783
15047TIP3    H245083   5.522   1.789   6.699
15048TIP3   OH245084   2.344   2.301   3.498
15048TIP3    H145085   2.268   2.275   3.549
15048TIP3    H245086   2.307   2.341   3.419
15049TIP3   OH245087   3.156   2.533   5.229
15049TIP3    H145088   3.173   2.482   5.308
15049TIP3    H245089   3.108   2.473   5.171
15050TIP3   OH245090   5.555   1.328   3.318
15050TIP3    H145091   5.589   1.320   3.229
15050TIP3    H245092   5.630   1.315   3.375
15051TIP3   OH245093   2.531   3.425   6.308
15051TIP3    H145094   2.502   3.513   6.333
15051TIP3    H245095   2.539   3.428   6.213
15052TIP3   OH245096   3.327   6.698   5.848
15052TIP3    H145097   3.376   6.779   5.829
15052TIP3    H245098   3.310   6.660   5.762
15053TIP3   OH245099   4.180   6.086   0.453
15053TIP3    H145100   4.254   6.143   0.429
15053TIP3    H245101   4.106   6.146   0.462
15054TIP3   OH245102   3.119   4.494   0.890
15054TIP3    H145103   3.114   4.560   0.821
15054TIP3    H245104   3.103   4.411   0.846
15055TIP3   OH245105   1.156   2.061   1.313
15055TIP3    H145106   1.123   2.126   1.251
15055TIP3    H245107   1.192   2.113   1.385
15056TIP3   OH245108   4.274   3.239   2.805
15056TIP3    H145109   4.208   3.173   2.782
15056TIP3    H245110   4.356   3.206   2.769
15057TIP3   OH245111   7.710   5.572   6.186
15057TIP3    H145112   7.783   5.545   6.242
15057TIP3    H245113   7.651   5.497   6.185
15058TIP3   OH245114   8.270   3.831   6.717
15058TIP3    H145115   8.293   3.757   6.661
15058TIP3    H245116   8.336   3.831   6.786
15059TIP3   OH245117   0.404   0.348   2.494
15059TIP3    H145118   0.395   0.433   2.536
15059TIP3    H245119   0.459   0.364   2.417
15060TIP3   OH245120   3.689   1.627   6.661
15060TIP3    H145121   3.669   1.721   6.670
15060TIP3    H245122   3.742   1.622   6.581
15061TIP3   OH245123   4.231   2.211   6.127
15061TIP3    H145124   4.148   2.205   6.175
15061TIP3    H245125   4.235   2.301   6.096
15062TIP3   OH245126   0.346   4.423   3.327
15062TIP3    H145127   0.277   4.472   3.372
15062TIP3    H245128   0.427   4.470   3.350
15063TIP3   OH245129   0.719   4.320   0.967
15063TIP3    H145130   0.624   4.318   0.973
15063TIP3    H245131   0.749   4.252   1.028
15064TIP3   OH245132   0.758   6.527   3.367
15064TIP3    H145133   0.732   6.546   3.277
15064TIP3    H245134   0.837   6.473   3.358
15065TIP3   OH245135   3.942   1.068   2.476
15065TIP3    H145136   3.967   1.041   2.387
15065TIP3    H245137   3.995   1.012   2.533
15066TIP3   OH245138   1.635   7.637   4.781
15066TIP3    H145139   1.565   7.701   4.796
15066TIP3    H245140   1.700   7.656   4.848
15067TIP3   OH245141   7.934   0.188   4.092
15067TIP3    H145142   7.984   0.114   4.058
15067TIP3    H245143   7.999   0.256   4.109
15068TIP3   OH245144   1.997   7.210   2.826
15068TIP3    H145145   1.969   7.268   2.755
15068TIP3    H245146   2.091   7.228   2.835
15069TIP3   OH245147   7.864   4.708   1.772
15069TIP3    H145148   7.957   4.693   1.760
15069TIP3    H245149   7.856   4.802   1.791
15070TIP3   OH245150   3.123   1.268   0.748
15070TIP3    H145151   3.184   1.201   0.779
15070TIP3    H245152   3.177   1.326   0.693
15071TIP3   OH245153   6.891   0.661   6.804
15071TIP3    H145154   6.907   0.729   6.738
15071TIP3    H245155   6.945   0.588   6.776
15072TIP3   OH245156   1.839   5.070   1.706
15072TIP3    H145157   1.816   5.039   1.794
15072TIP3    H245158   1.796   5.155   1.698
15073TIP3   OH245159   7.459   7.572   2.632
15073TIP3    H145160   7.475   7.514   2.557
15073TIP3    H245161   7.458   7.513   2.707
15074TIP3   OH245162   4.051   5.667   2.334
15074TIP3    H145163   3.961   5.637   2.321
15074TIP3    H245164   4.048   5.715   2.417
15075TIP3   OH245165   4.141   3.337   3.011
15075TIP3    H145166   4.201   3.298   2.948
15075TIP3    H245167   4.194   3.354   3.088
15076TIP3   OH245168   4.221   0.270   4.786
15076TIP3    H145169   4.175   0.229   4.713
15076TIP3    H245170   4.308   0.229   4.786
15077TIP3   OH245171   0.942   5.909   6.442
15077TIP3    H145172   0.914   5.915   6.351
15077TIP3    H245173   0.899   5.983   6.485
15078TIP3   OH245174   3.713   5.167   6.649
15078TIP3    H145175   3.641   5.105   6.643
15078TIP3    H245176   3.706   5.204   6.737
15079TIP3   OH245177   8.184   7.673   5.208
15079TIP3    H145178   8.192   7.728   5.130
15079TIP3    H245179   8.104   7.622   5.193
15080TIP3   OH245180   7.033   4.586   6.227
15080TIP3    H145181   7.128   4.598   6.238
15080TIP3    H245182   7.025   4.539   6.144
15081TIP3   OH245183   4.677   0.228   5.102
15081TIP3    H145184   4.704   0.140   5.075
15081TIP3    H245185   4.610   0.213   5.169
15082TIP3   OH245186   8.101   7.661   5.852
15082TIP3    H145187   8.173   7.601   5.835
15082TIP3    H245188   8.121   7.699   5.938
15083TIP3   OH245189   3.659   5.493   5.342
15083TIP3    H145190   3.591   5.439   5.302
15083TIP3    H245191   3.674   5.455   5.428
15084TIP3   OH245192   5.706   3.877   0.121
15084TIP3    H145193   5.624   3.889   0.168
15084TIP3    H245194   5.695   3.796   0.072
15085TIP3   OH245195   0.207   6.543   0.848
15085TIP3    H145196   0.150   6.472   0.876
15085TIP3    H245197   0.153   6.622   0.852
15086TIP3   OH245198   5.528   0.792   0.088
15086TIP3    H145199   5.619   0.770   0.069
15086TIP3    H245200   5.478   0.721   0.049
15087TIP3   OH245201   0.027   5.628   3.003
15087TIP3    H145202  -0.024   5.629   3.084
15087TIP3    H245203   0.077   5.710   3.006
15088TIP3   OH245204   6.481   4.685   6.622
15088TIP3    H145205   6.427   4.736   6.681
15088TIP3    H245206   6.540   4.636   6.679
15089TIP3   OH245207   7.970   7.016   2.623
15089TIP3    H145208   8.060   6.988   2.609
15089TIP3    H245209   7.952   7.076   2.551
15090TIP3   OH245210   1.011   3.359   4.261
15090TIP3    H145211   1.050   3.283   4.217
15090TIP3    H245212   1.084   3.418   4.278
15091TIP3   OH245213   3.571   1.934   1.220
15091TIP3    H145214   3.569   1.865   1.286
15091TIP3    H245215   3.635   1.997   1.253
15092TIP3   OH245216   1.407   7.090   0.871
15092TIP3    H145217   1.457   7.072   0.792
15092TIP3    H245218   1.342   7.019   0.876
15093TIP3   OH245219   7.455   1.568   5.580
15093TIP3    H145220   7.506   1.493   5.612
15093TIP3    H245221   7.517   1.640   5.577
15094TIP3   OH245222   4.254   6.353   4.149
15094TIP3    H145223   4.232   6.344   4.056
15094TIP3    H245224   4.310   6.278   4.168
15095TIP3   OH245225   1.906   5.755   4.832
15095TIP3    H145226   1.840   5.825   4.829
15095TIP3    H245227   1.967   5.782   4.900
15096TIP3   OH245228   1.880   7.369   1.549
15096TIP3    H145229   1.913   7.286   1.583
15096TIP3    H245230   1.866   7.424   1.627
15097TIP3   OH245231   4.682   0.377   2.052
15097TIP3    H145232   4.746   0.330   2.105
15097TIP3    H245233   4.706   0.359   1.961
15098TIP3   OH245234   6.729   4.344   4.477
15098TIP3    H145235   6.769   4.390   4.550
15098TIP3    H245236   6.635   4.351   4.493
15099TIP3   OH245237   4.618   1.022   2.209
15099TIP3    H145238   4.575   1.065   2.136
15099TIP3    H245239   4.553   1.022   2.279
15100TIP3   OH245240   6.903   7.067   6.590
15100TIP3    H145241   6.994   7.094   6.601
15100TIP3    H245242   6.882   7.090   6.499
15101TIP3   OH245243   7.827   5.043   4.674
15101TIP3    H145244   7.868   5.118   4.632
15101TIP3    H245245   7.806   5.074   4.762
15102TIP3   OH245246   0.925   6.630   4.222
15102TIP3    H145247   0.931   6.540   4.191
15102TIP3    H245248   0.986   6.636   4.295
15103TIP3   OH245249   1.402   2.289   4.026
15103TIP3    H145250   1.421   2.382   4.021
15103TIP3    H245251   1.485   2.246   4.009
15104TIP3   OH245252   1.095   3.293   1.100
15104TIP3    H145253   1.135   3.346   1.032
15104TIP3    H245254   1.165   3.277   1.163
15105TIP3   OH245255   4.864   3.520   5.661
15105TIP3    H145256   4.807   3.595   5.681
15105TIP3    H245257   4.804   3.451   5.632
15106TIP3   OH245258   4.525   7.294   2.672
15106TIP3    H145259   4.510   7.202   2.692
15106TIP3    H245260   4.537   7.297   2.577
15107TIP3   OH245261   2.628   4.293   0.848
15107TIP3    H145262   2.538   4.295   0.880
15107TIP3    H245263   2.677   4.347   0.910
15108TIP3   OH245264   3.434   1.924   0.990
15108TIP3    H145265   3.344   1.909   1.019
15108TIP3    H245266   3.484   1.930   1.072
15109TIP3   OH245267   3.676   6.487   6.475
15109TIP3    H145268   3.684   6.565   6.420
15109TIP3    H245269   3.657   6.416   6.414
15110TIP3   OH245270   2.389   7.131   4.422
15110TIP3    H145271   2.398   7.043   4.386
15110TIP3    H245272   2.343   7.119   4.505
15111TIP3   OH245273   8.350   0.251   4.653
15111TIP3    H145274   8.325   0.306   4.578
15111TIP3    H245275   8.269   0.209   4.681
15112TIP3   OH245276   3.991   2.132   6.287
15112TIP3    H145277   3.941   2.183   6.224
15112TIP3    H245278   3.985   2.042   6.256
15113TIP3   OH245279   5.591   6.623   6.329
15113TIP3    H145280   5.567   6.629   6.236
15113TIP3    H245281   5.541   6.549   6.362
15114TIP3   OH245282   4.039   6.867   6.491
15114TIP3    H145283   4.073   6.782   6.464
15114TIP3    H245284   3.945   6.861   6.474
15115TIP3   OH245285   4.115   1.874   1.563
15115TIP3    H145286   4.116   1.942   1.495
15115TIP3    H245287   4.159   1.799   1.523
15116TIP3   OH245288   0.708   2.030   1.815
15116TIP3    H145289   0.633   2.083   1.787
15116TIP3    H245290   0.677   1.940   1.811
15117TIP3   OH245291   1.004   4.948   1.268
15117TIP3    H145292   0.970   5.037   1.258
15117TIP3    H245293   1.023   4.920   1.178
15118TIP3   OH245294   8.075   5.143   1.194
15118TIP3    H145295   8.122   5.060   1.185
15118TIP3    H245296   8.129   5.205   1.145
15119TIP3   OH245297   1.556   1.063   5.558
15119TIP3    H145298   1.643   1.089   5.590
15119TIP3    H245299   1.514   1.146   5.535
15120TIP3   OH245300   3.681   6.345   0.086
15120TIP3    H145301   3.730   6.304   0.016
15120TIP3    H245302   3.637   6.419   0.044
15121TIP3   OH245303   3.475   0.145   4.004
15121TIP3    H145304   3.482   0.156   4.099
15121TIP3    H245305   3.384   0.120   3.989
15122TIP3   OH245306   6.568   1.795   5.532
15122TIP3    H145307   6.653   1.756   5.549
15122TIP3    H245308   6.532   1.813   5.619
15123TIP3   OH245309   4.094   4.375   0.699
15123TIP3    H145310   4.014   4.427   0.702
15123TIP3    H245311   4.134   4.398   0.614
15124TIP3   OH245312   4.400   1.256   5.718
15124TIP3    H145313   4.452   1.184   5.680
15124TIP3    H245314   4.411   1.328   5.656
15125TIP3   OH245315   2.237   3.153   2.939
15125TIP3    H145316   2.308   3.216   2.948
15125TIP3    H245317   2.237   3.105   3.022
15126TIP3   OH245318   3.306   3.730   5.464
15126TIP3    H145319   3.211   3.725   5.471
15126TIP3    H245320   3.327   3.685   5.383
15127TIP3   OH245321   4.869   7.535   0.907
15127TIP3    H145322   4.857   7.514   0.814
15127TIP3    H245323   4.796   7.492   0.951
15128TIP3   OH245324   2.457   2.074   4.249
15128TIP3    H145325   2.401   2.147   4.220
15128TIP3    H245326   2.524   2.068   4.181
15129TIP3   OH245327   5.601   7.858   4.858
15129TIP3    H145328   5.649   7.862   4.775
15129TIP3    H245329   5.602   7.765   4.882
15130TIP3   OH245330   5.389   3.767   2.063
15130TIP3    H145331   5.394   3.684   2.014
15130TIP3    H245332   5.297   3.793   2.056
15131TIP3   OH245333   6.228   4.746   0.841
15131TIP3    H145334   6.147   4.787   0.812
15131TIP3    H245335   6.241   4.672   0.783
15132TIP3   OH245336   7.588   2.725   2.749
15132TIP3    H145337   7.504   2.767   2.728
15132TIP3    H245338   7.629   2.712   2.663
15133TIP3   OH245339   6.812   3.639   6.574
15133TIP3    H145340   6.886   3.679   6.620
15133TIP3    H245341   6.844   3.622   6.486
15134TIP3   OH245342   4.931   7.620   4.752
15134TIP3    H145343   4.938   7.667   4.836
15134TIP3    H245344   4.853   7.566   4.761
15135TIP3   OH245345   1.809   7.655   1.118
15135TIP3    H145346   1.726   7.650   1.070
15135TIP3    H245347   1.853   7.732   1.082
15136TIP3   OH245348   2.732   7.557   3.783
15136TIP3    H145349   2.706   7.573   3.874
15136TIP3    H245350   2.705   7.467   3.765
15137TIP3   OH245351   6.555   3.847   4.686
15137TIP3    H145352   6.598   3.920   4.729
15137TIP3    H245353   6.464   3.851   4.717
15138TIP3   OH245354   1.540   7.065   1.563
15138TIP3    H145355   1.603   7.083   1.493
15138TIP3    H245356   1.489   7.146   1.571
15139TIP3   OH245357   2.337   3.718   0.121
15139TIP3    H145358   2.355   3.730   0.215
15139TIP3    H245359   2.388   3.640   0.097
15140TIP3   OH245360   5.703   1.051   1.219
15140TIP3    H145361   5.792   1.017   1.210
15140TIP3    H245362   5.660   1.030   1.136
15141TIP3   OH245363   5.407   4.632   5.427
15141TIP3    H145364   5.404   4.536   5.426
15141TIP3    H245365   5.492   4.654   5.391
15142TIP3   OH245366   0.619   6.555   1.389
15142TIP3    H145367   0.559   6.485   1.364
15142TIP3    H245368   0.668   6.574   1.309
15143TIP3   OH245369   6.345   0.460   4.915
15143TIP3    H145370   6.410   0.526   4.890
15143TIP3    H245371   6.320   0.419   4.832
15144TIP3   OH245372   3.269   3.669   0.242
15144TIP3    H145373   3.355   3.711   0.234
15144TIP3    H245374   3.244   3.648   0.153
15145TIP3   OH245375   5.260   1.833   4.418
15145TIP3    H145376   5.294   1.917   4.449
15145TIP3    H245377   5.310   1.815   4.338
15146TIP3   OH245378   1.695   4.025   0.810
15146TIP3    H145379   1.690   4.120   0.803
15146TIP3    H245380   1.671   3.994   0.722
15147TIP3   OH245381   1.051   2.338   1.290
15147TIP3    H145382   1.088   2.408   1.237
15147TIP3    H245383   0.963   2.324   1.255
15148TIP3   OH245384   1.565   4.366   6.102
15148TIP3    H145385   1.548   4.273   6.121
15148TIP3    H245386   1.528   4.379   6.015
15149TIP3   OH245387   5.316   7.192   2.261
15149TIP3    H145388   5.376   7.155   2.196
15149TIP3    H245389   5.374   7.227   2.329
15150TIP3   OH245390   8.348   4.262   4.087
15150TIP3    H145391   8.318   4.226   4.004
15150TIP3    H245392   8.424   4.209   4.110
15151TIP3   OH245393   4.060   2.412   3.438
15151TIP3    H145394   3.973   2.451   3.444
15151TIP3    H245395   4.043   2.321   3.410
15152TIP3   OH245396   3.872   5.027   3.789
15152TIP3    H145397   3.899   5.112   3.821
15152TIP3    H245398   3.952   4.974   3.792
15153TIP3   OH245399   3.310   0.429   1.469
15153TIP3    H145400   3.330   0.456   1.380
15153TIP3    H245401   3.250   0.497   1.501
15154TIP3   OH245402   7.208   5.115   5.436
15154TIP3    H145403   7.149   5.191   5.435
15154TIP3    H245404   7.240   5.110   5.346
15155TIP3   OH245405   8.017   2.858   5.605
15155TIP3    H145406   8.040   2.764   5.603
15155TIP3    H245407   7.924   2.860   5.584
15156TIP3   OH245408   5.448   6.431   2.150
15156TIP3    H145409   5.461   6.356   2.209
15156TIP3    H245410   5.354   6.431   2.134
15157TIP3   OH245411   5.028   7.376   4.694
15157TIP3    H145412   5.029   7.469   4.718
15157TIP3    H245413   5.119   7.348   4.700
15158TIP3   OH245414   3.693   7.652   0.240
15158TIP3    H145415   3.730   7.569   0.268
15158TIP3    H245416   3.718   7.714   0.308
15159TIP3   OH245417   3.626   3.542   6.329
15159TIP3    H145418   3.707   3.499   6.301
15159TIP3    H245419   3.559   3.508   6.270
15160TIP3   OH245420   6.336   3.822   1.565
15160TIP3    H145421   6.391   3.832   1.487
15160TIP3    H245422   6.320   3.911   1.595
15161TIP3   OH245423   2.335   1.233   4.359
15161TIP3    H145424   2.363   1.321   4.333
15161TIP3    H245425   2.350   1.179   4.282
15162TIP3   OH245426   7.238   1.923   1.740
15162TIP3    H145427   7.301   1.919   1.667
15162TIP3    H245428   7.290   1.953   1.815
15163TIP3   OH245429   1.469   5.502   4.059
15163TIP3    H145430   1.390   5.520   4.109
15163TIP3    H245431   1.537   5.556   4.099
15164TIP3   OH245432   5.317   3.674   0.242
15164TIP3    H145433   5.393   3.618   0.224
15164TIP3    H245434   5.271   3.628   0.313
15165TIP3   OH245435   7.024   4.428   3.312
15165TIP3    H145436   6.940   4.465   3.342
15165TIP3    H245437   7.054   4.489   3.245
15166TIP3   OH245438   8.192   6.541   3.963
15166TIP3    H145439   8.208   6.451   3.935
15166TIP3    H245440   8.217   6.595   3.888
15167TIP3   OH245441   4.934   3.582   2.686
15167TIP3    H145442   5.024   3.554   2.703
15167TIP3    H245443   4.906   3.622   2.769
15168TIP3   OH245444   7.324   2.174   4.628
15168TIP3    H145445   7.275   2.154   4.549
15168TIP3    H245446   7.264   2.150   4.700
15169TIP3   OH245447   5.235   3.716   3.778
15169TIP3    H145448   5.330   3.709   3.787
15169TIP3    H245449   5.209   3.779   3.845
15170TIP3   OH245450   0.125   7.625   2.932
15170TIP3    H145451   0.106   7.541   2.890
15170TIP3    H245452   0.160   7.602   3.018
15171TIP3   OH245453   3.188   0.064   1.475
15171TIP3    H145454   3.132   0.141   1.485
15171TIP3    H245455   3.275   0.094   1.503
15172TIP3   OH245456   2.792   1.729   0.589
15172TIP3    H145457   2.710   1.690   0.558
15172TIP3    H245458   2.770   1.820   0.609
15173TIP3   OH245459   2.397   7.185   1.173
15173TIP3    H145460   2.467   7.230   1.219
15173TIP3    H245461   2.441   7.118   1.121
15174TIP3   OH245462   7.438   5.215   0.707
15174TIP3    H145463   7.395   5.180   0.785
15174TIP3    H245464   7.532   5.208   0.727
15175TIP3   OH245465   1.309   5.071   3.891
15175TIP3    H145466   1.340   5.148   3.937
15175TIP3    H245467   1.331   4.998   3.950
15176TIP3   OH245468   6.204   0.752   6.605
15176TIP3    H145469   6.287   0.745   6.651
15176TIP3    H245470   6.196   0.845   6.582
15177TIP3   OH245471   0.945   2.010   1.673
15177TIP3    H145472   0.906   2.023   1.759
15177TIP3    H245473   1.028   1.966   1.690
15178TIP3   OH245474   2.744   4.048   5.645
15178TIP3    H145475   2.714   4.107   5.714
15178TIP3    H245476   2.789   4.105   5.582
15179TIP3   OH245477   6.319   5.183   0.314
15179TIP3    H145478   6.397   5.166   0.261
15179TIP3    H245479   6.338   5.142   0.398
15180TIP3   OH245480   2.841   6.983   5.609
15180TIP3    H145481   2.879   7.071   5.599
15180TIP3    H245482   2.879   6.949   5.690
15181TIP3   OH245483   4.664   2.082   2.819
15181TIP3    H145484   4.674   1.996   2.861
15181TIP3    H245485   4.645   2.061   2.727
15182TIP3   OH245486   7.774   5.849   0.913
15182TIP3    H145487   7.842   5.834   0.979
15182TIP3    H245488   7.756   5.762   0.878
15183TIP3   OH245489   0.200   7.750   3.700
15183TIP3    H145490   0.155   7.800   3.632
15183TIP3    H245491   0.293   7.772   3.688
15184TIP3   OH245492   6.998   6.035   5.613
15184TIP3    H145493   6.998   6.123   5.652
15184TIP3    H245494   7.019   6.049   5.521
15185TIP3   OH245495   4.581   3.381   0.744
15185TIP3    H145496   4.589   3.377   0.649
15185TIP3    H245497   4.533   3.462   0.761
15186TIP3   OH245498   4.798   4.814   2.982
15186TIP3    H145499   4.763   4.735   3.024
15186TIP3    H245500   4.868   4.842   3.042
15187TIP3   OH245501   2.387   3.075   1.898
15187TIP3    H145502   2.407   3.065   1.805
15187TIP3    H245503   2.356   3.165   1.906
15188TIP3   OH245504   3.488   7.767   5.537
15188TIP3    H145505   3.562   7.822   5.512
15188TIP3    H245506   3.413   7.803   5.488
15189TIP3   OH245507   2.005   1.770   4.561
15189TIP3    H145508   1.979   1.767   4.469
15189TIP3    H245509   2.091   1.813   4.560
15190TIP3   OH245510   5.444   4.830   6.638
15190TIP3    H145511   5.424   4.774   6.564
15190TIP3    H245512   5.473   4.913   6.599
15191TIP3   OH245513   6.228   4.616   4.220
15191TIP3    H145514   6.168   4.554   4.261
15191TIP3    H245515   6.171   4.676   4.172
15192TIP3   OH245516   3.973   3.036   5.982
15192TIP3    H145517   3.936   3.028   6.070
15192TIP3    H245518   3.929   3.113   5.946
15193TIP3   OH245519   8.417   1.096   2.804
15193TIP3    H145520   8.390   1.188   2.802
15193TIP3    H245521   8.335   1.048   2.817
15194TIP3   OH245522   2.926   0.257   4.683
15194TIP3    H145523   2.874   0.193   4.732
15194TIP3    H245524   2.971   0.308   4.751
15195TIP3   OH245525   0.183   3.208   1.477
15195TIP3    H145526   0.232   3.226   1.396
15195TIP3    H245527   0.247   3.222   1.547
15196TIP3   OH245528   5.280   0.507   2.988
15196TIP3    H145529   5.277   0.417   2.954
15196TIP3    H245530   5.193   0.543   2.967
15197TIP3   OH245531   1.150   0.312   0.661
15197TIP3    H145532   1.159   0.217   0.668
15197TIP3    H245533   1.136   0.328   0.568
15198TIP3   OH245534   2.401   7.876   0.268
15198TIP3    H145535   2.425   7.936   0.338
15198TIP3    H245536   2.485   7.844   0.234
15199TIP3   OH245537   7.514   5.200   2.284
15199TIP3    H145538   7.535   5.115   2.247
15199TIP3    H245539   7.441   5.183   2.344
15200TIP3   OH245540   5.727   7.171   5.537
15200TIP3    H145541   5.682   7.175   5.621
15200TIP3    H245542   5.777   7.090   5.539
15201TIP3   OH245543   0.361   7.128   2.284
15201TIP3    H145544   0.323   7.201   2.234
15201TIP3    H245545   0.362   7.159   2.374
15202TIP3   OH245546   7.931   5.314   2.895
15202TIP3    H145547   7.904   5.222   2.893
15202TIP3    H245548   8.016   5.313   2.938
15203TIP3   OH245549   6.486   5.906   6.648
15203TIP3    H145550   6.530   5.941   6.571
15203TIP3    H245551   6.435   5.979   6.682
15204TIP3   OH245552   2.889   4.772   0.106
15204TIP3    H145553   2.812   4.726   0.139
15204TIP3    H245554   2.946   4.703   0.072
15205TIP3   OH245555   5.637   1.664   2.575
15205TIP3    H145556   5.621   1.595   2.511
15205TIP3    H245557   5.556   1.715   2.577
15206TIP3   OH245558   7.976   1.647   1.740
15206TIP3    H145559   7.892   1.660   1.696
15206TIP3    H245560   7.965   1.564   1.787
15207TIP3   OH245561   5.907   7.789   5.965
15207TIP3    H145562   5.948   7.868   6.001
15207TIP3    H245563   5.920   7.722   6.032
15208TIP3   OH245564   6.109   6.244   1.777
15208TIP3    H145565   6.169   6.289   1.837
15208TIP3    H245566   6.023   6.278   1.799
15209TIP3   OH245567   1.552   7.368   5.153
15209TIP3    H145568   1.488   7.392   5.220
15209TIP3    H245569   1.625   7.330   5.202
15210TIP3   OH245570   3.226   0.936   5.287
15210TIP3    H145571   3.258   0.908   5.373
15210TIP3    H245572   3.216   1.031   5.296
15211TIP3   OH245573   3.139   0.474   3.897
15211TIP3    H145574   3.120   0.567   3.891
15211TIP3    H245575   3.058   0.435   3.931
15212TIP3   OH245576   1.202   4.484   2.814
15212TIP3    H145577   1.211   4.520   2.726
15212TIP3    H245578   1.277   4.519   2.863
15213TIP3   OH245579   0.493   2.100   1.464
15213TIP3    H145580   0.419   2.071   1.515
15213TIP3    H245581   0.569   2.086   1.520
15214TIP3   OH245582   1.151   4.418   1.829
15214TIP3    H145583   1.172   4.332   1.864
15214TIP3    H245584   1.221   4.475   1.862
15215TIP3   OH245585   4.972   1.051   3.506
15215TIP3    H145586   5.022   0.980   3.547
15215TIP3    H245587   4.898   1.007   3.464
15216TIP3   OH245588   7.296   1.023   6.448
15216TIP3    H145589   7.232   1.090   6.424
15216TIP3    H245590   7.316   1.041   6.540
15217TIP3   OH245591   7.238   2.769   6.059
15217TIP3    H145592   7.195   2.850   6.085
15217TIP3    H245593   7.228   2.765   5.964
15218TIP3   OH245594   3.566   5.980   3.362
15218TIP3    H145595   3.572   5.994   3.457
15218TIP3    H245596   3.623   5.904   3.346
15219TIP3   OH245597   4.114   5.177   2.477
15219TIP3    H145598   4.021   5.154   2.480
15219TIP3    H245599   4.155   5.116   2.539
15220TIP3   OH245600   8.352   3.408   1.677
15220TIP3    H145601   8.296   3.349   1.729
15220TIP3    H245602   8.439   3.399   1.717
15221TIP3   OH245603   2.827   4.685   0.931
15221TIP3    H145604   2.895   4.751   0.914
15221TIP3    H245605   2.791   4.665   0.844
15222TIP3   OH245606   7.059   2.539   6.012
15222TIP3    H145607   7.127   2.590   6.057
15222TIP3    H245608   7.000   2.513   6.082
15223TIP3   OH245609   7.604   1.982   6.562
15223TIP3    H145610   7.601   2.037   6.640
15223TIP3    H245611   7.688   2.000   6.522
15224TIP3   OH245612   8.094   5.114   3.091
15224TIP3    H145613   8.172   5.083   3.137
15224TIP3    H245614   8.089   5.061   3.012
15225TIP3   OH245615   1.969   4.852   2.494
15225TIP3    H145616   1.989   4.791   2.565
15225TIP3    H245617   2.034   4.833   2.427
15226TIP3   OH245618   2.668   3.779   6.248
15226TIP3    H145619   2.746   3.725   6.264
15226TIP3    H245620   2.658   3.831   6.328
15227TIP3   OH245621   3.111   0.446   1.148
15227TIP3    H145622   3.068   0.494   1.077
15227TIP3    H245623   3.044   0.386   1.181
15228TIP3   OH245624   1.999   2.220   2.037
15228TIP3    H145625   2.090   2.243   2.018
15228TIP3    H245626   1.995   2.216   2.132
15229TIP3   OH245627   4.765   2.970   3.343
15229TIP3    H145628   4.844   2.997   3.391
15229TIP3    H245629   4.711   3.049   3.340
15230TIP3   OH245630   1.194   3.969   6.671
15230TIP3    H145631   1.167   4.014   6.751
15230TIP3    H245632   1.124   3.905   6.656
15231TIP3   OH245633   2.203   1.155   3.018
15231TIP3    H145634   2.129   1.194   3.065
15231TIP3    H245635   2.278   1.206   3.047
15232TIP3   OH245636   3.536   6.879   6.819
15232TIP3    H145637   3.534   6.903   6.727
15232TIP3    H245638   3.619   6.913   6.851
15233TIP3   OH245639   1.794   3.104   3.962
15233TIP3    H145640   1.718   3.161   3.948
15233TIP3    H245641   1.867   3.152   3.924
15234TIP3   OH245642   1.783   2.284   0.656
15234TIP3    H145643   1.714   2.284   0.722
15234TIP3    H245644   1.746   2.334   0.583
15235TIP3   OH245645   7.096   7.560   5.558
15235TIP3    H145646   7.016   7.513   5.581
15235TIP3    H245647   7.084   7.647   5.596
15236TIP3   OH245648   4.118   5.781   1.064
15236TIP3    H145649   4.128   5.695   1.106
15236TIP3    H245650   4.095   5.760   0.974
15237TIP3   OH245651   3.528   1.802   2.944
15237TIP3    H145652   3.559   1.875   2.997
15237TIP3    H245653   3.604   1.744   2.937
15238TIP3   OH245654   3.119   6.520   5.443
15238TIP3    H145655   3.165   6.452   5.494
15238TIP3    H245656   3.150   6.603   5.481
15239TIP3   OH245657   4.914   1.578   2.727
15239TIP3    H145658   4.976   1.568   2.654
15239TIP3    H245659   4.968   1.599   2.803
15240TIP3   OH245660   0.284   1.773   2.225
15240TIP3    H145661   0.240   1.693   2.254
15240TIP3    H245662   0.300   1.822   2.306
15241TIP3   OH245663   3.912   2.535   0.824
15241TIP3    H145664   3.953   2.605   0.875
15241TIP3    H245665   3.981   2.504   0.766
15242TIP3   OH245666   5.830   1.937   1.808
15242TIP3    H145667   5.826   2.021   1.763
15242TIP3    H245668   5.870   1.877   1.744
15243TIP3   OH245669   5.331   7.507   2.513
15243TIP3    H145670   5.322   7.588   2.463
15243TIP3    H245671   5.260   7.511   2.578
15244TIP3   OH245672   7.734   4.733   6.621
15244TIP3    H145673   7.816   4.684   6.623
15244TIP3    H245674   7.761   4.824   6.633
15245TIP3   OH245675   3.680   2.166   0.989
15245TIP3    H145676   3.610   2.101   0.989
15245TIP3    H245677   3.739   2.139   1.060
15246TIP3   OH245678   0.803   2.394   2.756
15246TIP3    H145679   0.866   2.421   2.690
15246TIP3    H245680   0.809   2.463   2.823
15247TIP3   OH245681   0.971   2.814   6.270
15247TIP3    H145682   1.066   2.803   6.266
15247TIP3    H245683   0.936   2.727   6.287
15248TIP3   OH245684   2.645   1.994   1.764
15248TIP3    H145685   2.573   1.967   1.707
15248TIP3    H245686   2.603   2.034   1.840
15249TIP3   OH245687   1.902   6.843   0.685
15249TIP3    H145688   1.900   6.797   0.601
15249TIP3    H245689   1.916   6.775   0.750
15250TIP3   OH245690   1.064   4.098   0.614
15250TIP3    H145691   1.056   4.016   0.565
15250TIP3    H245692   1.138   4.084   0.673
15251TIP3   OH245693   1.370   3.721   5.869
15251TIP3    H145694   1.306   3.732   5.799
15251TIP3    H245695   1.377   3.626   5.881
15252TIP3   OH245696   7.638   4.688   1.593
15252TIP3    H145697   7.610   4.776   1.619
15252TIP3    H245698   7.707   4.666   1.655
15253TIP3   OH245699   1.240   0.311   3.255
15253TIP3    H145700   1.155   0.292   3.294
15253TIP3    H245701   1.280   0.225   3.243
15254TIP3   OH245702   4.654   6.301   2.989
15254TIP3    H145703   4.731   6.354   3.011
15254TIP3    H245704   4.609   6.289   3.072
15255TIP3   OH245705   6.956   4.822   1.974
15255TIP3    H145706   6.886   4.832   1.910
15255TIP3    H245707   6.911   4.815   2.058
15256TIP3   OH245708   4.634   2.414   5.003
15256TIP3    H145709   4.541   2.421   5.023
15256TIP3    H245710   4.655   2.322   5.019
15257TIP3   OH245711   2.105   4.470   1.031
15257TIP3    H145712   2.064   4.526   0.965
15257TIP3    H245713   2.033   4.442   1.087
15258TIP3   OH245714   5.489   7.170   0.362
15258TIP3    H145715   5.467   7.178   0.455
15258TIP3    H245716   5.414   7.207   0.316
15259TIP3   OH245717   4.706   5.203   4.115
15259TIP3    H145718   4.782   5.183   4.060
15259TIP3    H245719   4.741   5.206   4.204
15260TIP3   OH245720   3.036   2.630   1.459
15260TIP3    H145721   2.949   2.596   1.477
15260TIP3    H245722   3.080   2.559   1.412
15261TIP3   OH245723   2.843   6.963   2.284
15261TIP3    H145724   2.755   6.930   2.266
15261TIP3    H245725   2.888   6.890   2.327
15262TIP3   OH245726   1.493   7.055   2.866
15262TIP3    H145727   1.588   7.050   2.853
15262TIP3    H245728   1.472   6.978   2.918
15263TIP3   OH245729   4.684   4.361   1.253
15263TIP3    H145730   4.652   4.347   1.342
15263TIP3    H245731   4.641   4.293   1.201
15264TIP3   OH245732   8.297   2.211   1.608
15264TIP3    H145733   8.336   2.225   1.694
15264TIP3    H245734   8.282   2.116   1.605
15265TIP3   OH245735   5.619   7.856   6.101
15265TIP3    H145736   5.682   7.903   6.047
15265TIP3    H245737   5.534   7.875   6.060
15266TIP3   OH245738   1.918   2.720   1.895
15266TIP3    H145739   1.840   2.719   1.950
15266TIP3    H245740   1.952   2.631   1.900
15267TIP3   OH245741   4.988   5.972   4.882
15267TIP3    H145742   5.040   6.016   4.814
15267TIP3    H245743   4.963   6.041   4.942
15268TIP3   OH245744   2.490   4.723   0.989
15268TIP3    H145745   2.548   4.677   0.929
15268TIP3    H245746   2.524   4.813   0.991
15269TIP3   OH245747   7.540   4.732   6.289
15269TIP3    H145748   7.572   4.821   6.307
15269TIP3    H245749   7.517   4.697   6.375
15270TIP3   OH245750   4.231   7.824   0.493
15270TIP3    H145751   4.163   7.821   0.425
15270TIP3    H245752   4.217   7.745   0.545
15271TIP3   OH245753   1.988   7.865   4.589
15271TIP3    H145754   2.051   7.890   4.522
15271TIP3    H245755   1.910   7.838   4.540
15272TIP3   OH245756   1.308   0.062   4.985
15272TIP3    H145757   1.323   0.099   5.072
15272TIP3    H245758   1.366   0.112   4.928
15273TIP3   OH245759   4.216   5.943   3.778
15273TIP3    H145760   4.157   5.898   3.838
15273TIP3    H245761   4.166   6.017   3.745
15274TIP3   OH245762   6.158   0.868   3.748
15274TIP3    H145763   6.232   0.893   3.803
15274TIP3    H245764   6.195   0.859   3.660
15275TIP3   OH245765   1.470   2.740   0.890
15275TIP3    H145766   1.509   2.783   0.966
15275TIP3    H245767   1.377   2.733   0.912
15276TIP3   OH245768   5.234   1.413   1.956
15276TIP3    H145769   5.144   1.399   1.986
15276TIP3    H245770   5.241   1.361   1.876
15277TIP3   OH245771   1.351   6.372   5.805
15277TIP3    H145772   1.409   6.295   5.805
15277TIP3    H245773   1.405   6.442   5.769
15278TIP3   OH245774   3.122   2.283   0.050
15278TIP3    H145775   3.110   2.266   0.144
15278TIP3    H245776   3.181   2.213   0.021
15279TIP3   OH245777   1.570   3.467   6.586
15279TIP3    H145778   1.637   3.521   6.628
15279TIP3    H245779   1.532   3.416   6.657
15280TIP3   OH245780   0.574   3.298   1.487
15280TIP3    H145781   0.642   3.323   1.550
15280TIP3    H245782   0.507   3.256   1.540
15281TIP3   OH245783   7.218   1.599   1.395
15281TIP3    H145784   7.162   1.635   1.464
15281TIP3    H245785   7.168   1.610   1.315
15282TIP3   OH245786   7.441   5.436   5.464
15282TIP3    H145787   7.362   5.414   5.415
15282TIP3    H245788   7.488   5.352   5.472
15283TIP3   OH245789   7.327   1.517   2.930
15283TIP3    H145790   7.325   1.529   2.835
15283TIP3    H245791   7.235   1.506   2.955
15284TIP3   OH245792   3.126   2.632   6.413
15284TIP3    H145793   3.084   2.557   6.370
15284TIP3    H245794   3.059   2.700   6.415
15285TIP3   OH245795   6.528   5.730   0.241
15285TIP3    H145796   6.594   5.784   0.283
15285TIP3    H245797   6.463   5.792   0.208
15286TIP3   OH245798   3.478   5.696   5.611
15286TIP3    H145799   3.566   5.680   5.644
15286TIP3    H245800   3.491   5.747   5.531
15287TIP3   OH245801   3.012   7.119   3.279
15287TIP3    H145802   2.983   7.028   3.280
15287TIP3    H245803   2.938   7.168   3.316
15288TIP3   OH245804   0.139   3.478   4.388
15288TIP3    H145805   0.142   3.383   4.373
15288TIP3    H245806   0.059   3.506   4.343
15289TIP3   OH245807   4.889   3.282   3.439
15289TIP3    H145808   4.926   3.228   3.509
15289TIP3    H245809   4.920   3.371   3.459
15290TIP3   OH245810   6.068   3.535   4.770
15290TIP3    H145811   6.047   3.492   4.687
15290TIP3    H245812   6.159   3.514   4.786
15291TIP3   OH245813   0.954   3.266   2.917
15291TIP3    H145814   1.015   3.229   2.981
15291TIP3    H245815   1.009   3.284   2.840
15292TIP3   OH245816   7.399   3.034   6.472
15292TIP3    H145817   7.360   2.949   6.492
15292TIP3    H245818   7.330   3.081   6.426
15293TIP3   OH245819   5.715   5.620   2.359
15293TIP3    H145820   5.762   5.699   2.385
15293TIP3    H245821   5.696   5.634   2.266
15294TIP3   OH245822   0.868   2.671   5.992
15294TIP3    H145823   0.830   2.757   5.972
15294TIP3    H245824   0.850   2.658   6.085
15295TIP3   OH245825   3.616   6.838   4.806
15295TIP3    H145826   3.613   6.775   4.734
15295TIP3    H245827   3.657   6.791   4.878
15296TIP3   OH245828   0.587   6.498   3.840
15296TIP3    H145829   0.530   6.474   3.768
15296TIP3    H245830   0.631   6.578   3.811
15297TIP3   OH245831   3.796   3.010   2.347
15297TIP3    H145832   3.775   2.949   2.418
15297TIP3    H245833   3.891   3.009   2.341
15298TIP3   OH245834   0.590   5.298   3.789
15298TIP3    H145835   0.527   5.363   3.820
15298TIP3    H245836   0.537   5.234   3.741
15299TIP3   OH245837   5.696   4.072   5.374
15299TIP3    H145838   5.643   4.015   5.319
15299TIP3    H245839   5.771   4.018   5.400
15300TIP3   OH245840   4.743   1.868   3.482
15300TIP3    H145841   4.709   1.929   3.548
15300TIP3    H245842   4.669   1.811   3.462
15301TIP3   OH245843   0.200   6.510   6.404
15301TIP3    H145844   0.119   6.553   6.431
15301TIP3    H245845   0.266   6.541   6.466
15302TIP3   OH245846   3.946   7.524   0.033
15302TIP3    H145847   3.993   7.604   0.052
15302TIP3    H245848   3.954   7.471   0.113
15303TIP3   OH245849   2.054   6.841   4.776
15303TIP3    H145850   2.021   6.930   4.788
15303TIP3    H245851   2.036   6.821   4.684
15304TIP3   OH245852   1.320   4.196   5.283
15304TIP3    H145853   1.239   4.152   5.308
15304TIP3    H245854   1.292   4.276   5.239
15305TIP3   OH245855   3.847   2.697   2.951
15305TIP3    H145856   3.772   2.649   2.986
15305TIP3    H245857   3.856   2.666   2.861
15306TIP3   OH245858   1.940   7.383   3.667
15306TIP3    H145859   1.938   7.465   3.617
15306TIP3    H245860   1.884   7.400   3.743
15307TIP3   OH245861   0.577   1.542   0.470
15307TIP3    H145862   0.642   1.527   0.401
15307TIP3    H245863   0.501   1.491   0.442
15308TIP3   OH245864   4.009   2.531   2.518
15308TIP3    H145865   4.062   2.504   2.592
15308TIP3    H245866   4.045   2.483   2.443
15309TIP3   OH245867   2.636   3.052   4.305
15309TIP3    H145868   2.647   2.958   4.287
15309TIP3    H245869   2.618   3.090   4.219
15310TIP3   OH245870   3.289   4.246   0.574
15310TIP3    H145871   3.323   4.158   0.558
15310TIP3    H245872   3.358   4.289   0.623
15311TIP3   OH245873   0.644   0.873   5.188
15311TIP3    H145874   0.590   0.930   5.134
15311TIP3    H245875   0.726   0.922   5.201
15312TIP3   OH245876   0.786   0.291   3.102
15312TIP3    H145877   0.703   0.268   3.144
15312TIP3    H245878   0.779   0.384   3.082
15313TIP3   OH245879   5.482   4.333   4.402
15313TIP3    H145880   5.455   4.370   4.486
15313TIP3    H245881   5.577   4.339   4.403
15314TIP3   OH245882   5.531   3.897   2.285
15314TIP3    H145883   5.498   3.864   2.201
15314TIP3    H245884   5.478   3.974   2.303
15315TIP3   OH245885   3.464   1.184   0.954
15315TIP3    H145886   3.435   1.272   0.980
15315TIP3    H245887   3.428   1.126   1.021
15316TIP3   OH245888   0.145   7.865   5.528
15316TIP3    H145889   0.059   7.845   5.489
15316TIP3    H245890   0.203   7.877   5.453
15317TIP3   OH245891   6.058   0.644   4.689
15317TIP3    H145892   6.088   0.714   4.747
15317TIP3    H245893   5.975   0.615   4.727
15318TIP3   OH245894   7.814   2.946   6.322
15318TIP3    H145895   7.758   2.997   6.379
15318TIP3    H245896   7.762   2.932   6.243
15319TIP3   OH245897   7.304   1.917   2.136
15319TIP3    H145898   7.301   2.012   2.136
15319TIP3    H245899   7.390   1.895   2.099
15320TIP3   OH245900   2.405   7.568   2.312
15320TIP3    H145901   2.416   7.657   2.277
15320TIP3    H245902   2.316   7.568   2.348
15321TIP3   OH245903   4.948   0.980   5.271
15321TIP3    H145904   4.935   0.894   5.312
15321TIP3    H245905   4.862   1.020   5.270
15322TIP3   OH245906   2.733   7.857   3.811
15322TIP3    H145907   2.741   7.951   3.826
15322TIP3    H245908   2.809   7.819   3.854
15323TIP3   OH245909   5.992   1.105   0.430
15323TIP3    H145910   5.917   1.133   0.481
15323TIP3    H245911   6.020   1.023   0.472
15324TIP3   OH245912   6.852   4.133   3.743
15324TIP3    H145913   6.821   4.204   3.686
15324TIP3    H245914   6.774   4.081   3.761
15325TIP3   OH245915   1.573   4.433   3.996
15325TIP3    H145916   1.649   4.489   3.980
15325TIP3    H245917   1.538   4.415   3.909
15326TIP3   OH245918   2.483   4.693   3.850
15326TIP3    H145919   2.570   4.681   3.887
15326TIP3    H245920   2.435   4.614   3.873
15327TIP3   OH245921   2.320   6.878   6.271
15327TIP3    H145922   2.228   6.907   6.276
15327TIP3    H245923   2.315   6.783   6.273
15328TIP3   OH245924   4.291   4.064   1.890
15328TIP3    H145925   4.346   3.990   1.918
15328TIP3    H245926   4.335   4.098   1.812
15329TIP3   OH245927   4.194   2.614   5.523
15329TIP3    H145928   4.285   2.583   5.519
15329TIP3    H245929   4.181   2.663   5.442
15330TIP3   OH245930   0.680   7.514   4.545
15330TIP3    H145931   0.628   7.448   4.500
15330TIP3    H245932   0.619   7.558   4.603
15331TIP3   OH245933   1.234   5.700   4.700
15331TIP3    H145934   1.277   5.687   4.785
15331TIP3    H245935   1.172   5.771   4.715
15332TIP3   OH245936   3.337   1.869   3.243
15332TIP3    H145937   3.245   1.889   3.258
15332TIP3    H245938   3.337   1.778   3.212
15333TIP3   OH245939   5.420   6.527   4.783
15333TIP3    H145940   5.484   6.490   4.843
15333TIP3    H245941   5.378   6.451   4.742
15334TIP3   OH245942   4.181   1.740   3.312
15334TIP3    H145943   4.098   1.758   3.355
15334TIP3    H245944   4.182   1.800   3.237
15335TIP3   OH245945   3.957   0.755   5.558
15335TIP3    H145946   4.022   0.687   5.540
15335TIP3    H245947   3.958   0.811   5.480
15336TIP3   OH245948   1.305   0.557   3.157
15336TIP3    H145949   1.259   0.569   3.073
15336TIP3    H245950   1.276   0.472   3.188
15337TIP3   OH245951   0.203   1.507   2.270
15337TIP3    H145952   0.174   1.529   2.359
15337TIP3    H245953   0.162   1.423   2.252
15338TIP3   OH245954   3.547   2.008   4.612
15338TIP3    H145955   3.464   2.045   4.581
15338TIP3    H245956   3.562   2.050   4.697
15339TIP3   OH245957   0.735   0.165   0.818
15339TIP3    H145958   0.764   0.147   0.908
15339TIP3    H245959   0.661   0.226   0.830
15340TIP3   OH245960   1.603   2.353   5.336
15340TIP3    H145961   1.528   2.330   5.390
15340TIP3    H245962   1.658   2.275   5.337
15341TIP3   OH245963   6.317   0.609   3.913
15341TIP3    H145964   6.344   0.701   3.911
15341TIP3    H245965   6.322   0.584   4.005
15342TIP3   OH245966   3.544   3.526   4.654
15342TIP3    H145967   3.450   3.528   4.672
15342TIP3    H245968   3.584   3.508   4.739
15343TIP3   OH245969   7.855   6.359   6.030
15343TIP3    H145970   7.855   6.317   5.944
15343TIP3    H245971   7.919   6.308   6.081
15344TIP3   OH245972   7.271   7.415   3.748
15344TIP3    H145973   7.250   7.394   3.839
15344TIP3    H245974   7.362   7.389   3.738
15345TIP3   OH245975   1.121   2.229   2.920
15345TIP3    H145976   1.109   2.323   2.908
15345TIP3    H245977   1.088   2.212   3.008
15346TIP3   OH245978   5.053   2.645   0.429
15346TIP3    H145979   5.094   2.650   0.343
15346TIP3    H245980   4.975   2.701   0.421
15347TIP3   OH245981   3.754   2.722   0.692
15347TIP3    H145982   3.802   2.640   0.703
15347TIP3    H245983   3.819   2.790   0.709
15348TIP3   OH245984   5.229   1.394   6.560
15348TIP3    H145985   5.266   1.441   6.635
15348TIP3    H245986   5.263   1.305   6.569
15349TIP3   OH245987   0.683   7.013   3.603
15349TIP3    H145988   0.708   7.009   3.511
15349TIP3    H245989   0.673   6.922   3.629
15350TIP3   OH245990   1.223   2.875   6.414
15350TIP3    H145991   1.217   2.970   6.404
15350TIP3    H245992   1.314   2.854   6.393
15351TIP3   OH245993   5.562   6.391   3.045
15351TIP3    H145994   5.557   6.394   3.141
15351TIP3    H245995   5.641   6.342   3.026
15352TIP3   OH245996   3.337   6.580   6.115
15352TIP3    H145997   3.308   6.522   6.044
15352TIP3    H245998   3.406   6.632   6.075
15353TIP3   OH245999   8.069   1.217   6.776
15353TIP3    H146000   8.056   1.228   6.870
15353TIP3    H246001   8.154   1.174   6.769
15354TIP3   OH246002   3.809   0.231   1.787
15354TIP3    H146003   3.766   0.235   1.873
15354TIP3    H246004   3.882   0.171   1.800
15355TIP3   OH246005   3.013   6.544   3.538
15355TIP3    H146006   2.995   6.602   3.463
15355TIP3    H246007   2.932   6.497   3.552
15356TIP3   OH246008   6.004   0.585   6.478
15356TIP3    H146009   5.977   0.499   6.445
15356TIP3    H246010   6.100   0.581   6.477
15357TIP3   OH246011   5.423   4.567   0.989
15357TIP3    H146012   5.374   4.577   1.070
15357TIP3    H246013   5.480   4.645   0.985
15358TIP3   OH246014   3.327   2.146   0.788
15358TIP3    H146015   3.257   2.082   0.798
15358TIP3    H246016   3.352   2.169   0.878
15359TIP3   OH246017   0.202   5.633   4.554
15359TIP3    H146018   0.290   5.607   4.528
15359TIP3    H246019   0.205   5.728   4.559
15360TIP3   OH246020   4.724   2.455   5.286
15360TIP3    H146021   4.819   2.451   5.297
15360TIP3    H246022   4.712   2.478   5.194
15361TIP3   OH246023   7.557   3.307   5.201
15361TIP3    H146024   7.608   3.295   5.121
15361TIP3    H246025   7.478   3.255   5.187
15362TIP3   OH246026   6.276   5.139   2.063
15362TIP3    H146027   6.244   5.120   1.975
15362TIP3    H246028   6.367   5.165   2.051
15363TIP3   OH246029   4.451   7.739   6.480
15363TIP3    H146030   4.367   7.695   6.465
15363TIP3    H246031   4.509   7.704   6.413
15364TIP3   OH246032   4.455   1.855   0.866
15364TIP3    H146033   4.427   1.771   0.903
15364TIP3    H246034   4.499   1.831   0.784
15365TIP3   OH246035   0.287   4.539   4.391
15365TIP3    H146036   0.290   4.476   4.319
15365TIP3    H246037   0.237   4.612   4.356
15366TIP3   OH246038   7.035   6.893   3.013
15366TIP3    H146039   7.059   6.806   3.043
15366TIP3    H246040   7.080   6.953   3.071
15367TIP3   OH246041   3.142   3.796   1.549
15367TIP3    H146042   3.099   3.872   1.510
15367TIP3    H246043   3.156   3.735   1.477
15368TIP3   OH246044   3.066   1.151   3.065
15368TIP3    H146045   3.093   1.074   3.115
15368TIP3    H246046   3.142   1.171   3.010
15369TIP3   OH246047   6.147   2.606   0.064
15369TIP3    H146048   6.220   2.548   0.041
15369TIP3    H246049   6.163   2.686   0.014
15370TIP3   OH246050   5.579   5.329   4.611
15370TIP3    H146051   5.525   5.299   4.685
15370TIP3    H246052   5.649   5.264   4.606
15371TIP3   OH246053   1.923   6.006   4.643
15371TIP3    H146054   1.958   6.079   4.695
15371TIP3    H246055   1.903   5.939   4.708
   8.38771   7.90800   6.84853   0.00000   0.00000  -2.79590   0.00000  -2.79590  -3.95400
