Title t= 387.00000 step= 193500
29212
    1ASP      N    1   2.508   1.520   2.167
    1ASP    HT1    2   2.556   1.611   2.182
    1ASP    HT2    3   2.430   1.525   2.099
    1ASP    HT3    4   2.572   1.448   2.128
    1ASP     CA    5   2.455   1.495   2.308
    1ASP     HA    6   2.405   1.400   2.308
    1ASP     CB    7   2.568   1.463   2.410
    1ASP    HB1    8   2.525   1.430   2.506
    1ASP    HB2    9   2.624   1.559   2.420
    1ASP     CG   10   2.662   1.352   2.364
    1ASP    OD1   11   2.630   1.279   2.268
    1ASP    OD2   12   2.764   1.323   2.435
    1ASP      C   13   2.351   1.594   2.348
    1ASP      O   14   2.285   1.649   2.264
    2GLY      N   15   2.346   1.624   2.478
    2GLY     HN   16   2.409   1.579   2.542
    2GLY     CA   17   2.246   1.724   2.534
    2GLY    HA1   18   2.241   1.811   2.472
    2GLY    HA2   19   2.273   1.743   2.637
    2GLY      C   20   2.103   1.679   2.549
    2GLY      O   21   2.067   1.567   2.514
    3ASP      N   22   2.018   1.764   2.597
    3ASP     HN   23   2.062   1.848   2.629
    3ASP     CA   24   1.874   1.748   2.613
    3ASP     HA   25   1.846   1.646   2.589
    3ASP     CB   26   1.836   1.781   2.757
    3ASP    HB1   27   1.728   1.769   2.779
    3ASP    HB2   28   1.849   1.887   2.787
    3ASP     CG   29   1.917   1.695   2.849
    3ASP    OD1   30   2.012   1.736   2.925
    3ASP    OD2   31   1.889   1.573   2.842
    3ASP      C   32   1.792   1.823   2.513
    3ASP      O   33   1.832   1.927   2.461
    4GLY      N   34   1.670   1.770   2.479
    4GLY     HN   35   1.645   1.694   2.540
    4GLY     CA   36   1.566   1.833   2.392
    4GLY    HA1   37   1.478   1.770   2.384
    4GLY    HA2   38   1.624   1.857   2.305
    4GLY      C   39   1.509   1.951   2.459
    4GLY      O   40   1.530   1.989   2.575
    5PRO      N   41   1.426   2.023   2.388
    5PRO     CD   42   1.388   2.001   2.248
    5PRO    HD1   43   1.358   1.895   2.232
    5PRO    HD2   44   1.479   2.026   2.190
    5PRO     CA   45   1.370   2.149   2.443
    5PRO     HA   46   1.446   2.213   2.485
    5PRO     CB   47   1.293   2.209   2.318
    5PRO    HB1   48   1.382   2.261   2.277
    5PRO    HB2   49   1.203   2.270   2.344
    5PRO     CG   50   1.263   2.096   2.225
    5PRO    HG1   51   1.167   2.057   2.264
    5PRO    HG2   52   1.243   2.127   2.120
    5PRO      C   53   1.264   2.121   2.551
    5PRO      O   54   1.233   2.214   2.629
    6GLY      N   55   1.200   1.999   2.543
    6GLY     HN   56   1.237   1.942   2.470
    6GLY     CA   57   1.081   1.970   2.619
    6GLY    HA1   58   1.083   1.863   2.631
    6GLY    HA2   59   0.992   1.995   2.563
    6GLY      C   60   1.039   2.030   2.759
    6GLY      O   61   1.122   2.073   2.834
    7ASP      N   62   0.905   2.025   2.793
    7ASP     HN   63   0.839   1.975   2.738
    7ASP     CA   64   0.839   2.077   2.915
    7ASP     HA   65   0.893   2.169   2.928
    7ASP     CB   66   0.685   2.106   2.897
    7ASP    HB1   67   0.630   2.134   2.989
    7ASP    HB2   68   0.633   2.016   2.858
    7ASP     CG   69   0.669   2.206   2.785
    7ASP    OD1   70   0.759   2.292   2.776
    7ASP    OD2   71   0.560   2.220   2.721
    7ASP      C   72   0.859   1.994   3.045
    7ASP      O   73   0.898   1.881   3.032
    8PRO      N   74   0.835   2.037   3.165
    8PRO     CD   75   0.839   2.183   3.192
    8PRO    HD1   76   0.744   2.228   3.155
    8PRO    HD2   77   0.926   2.238   3.149
    8PRO     CA   78   0.820   1.960   3.292
    8PRO     HA   79   0.919   1.924   3.314
    8PRO     CB   80   0.766   2.065   3.395
    8PRO    HB1   81   0.802   2.028   3.493
    8PRO    HB2   82   0.657   2.083   3.388
    8PRO     CG   83   0.840   2.194   3.354
    8PRO    HG1   84   0.795   2.287   3.393
    8PRO    HG2   85   0.948   2.192   3.380
    8PRO      C   86   0.731   1.839   3.276
    8PRO      O   87   0.633   1.846   3.199
    9GLY      N   88   0.754   1.724   3.344
    9GLY     HN   89   0.820   1.726   3.419
    9GLY     CA   90   0.675   1.607   3.323
    9GLY    HA1   91   0.648   1.590   3.220
    9GLY    HA2   92   0.589   1.617   3.388
    9GLY      C   93   0.747   1.485   3.370
    9GLY      O   94   0.862   1.461   3.340
   10ASP      N   95   0.669   1.401   3.445
   10ASP     HN   96   0.576   1.428   3.469
   10ASP     CA   97   0.714   1.271   3.510
   10ASP     HA   98   0.820   1.281   3.527
   10ASP     CB   99   0.634   1.239   3.643
   10ASP    HB1  100   0.628   1.130   3.665
   10ASP    HB2  101   0.532   1.270   3.613
   10ASP     CG  102   0.677   1.322   3.760
   10ASP    OD1  103   0.583   1.374   3.830
   10ASP    OD2  104   0.796   1.338   3.787
   10ASP      C  105   0.712   1.147   3.411
   10ASP      O  106   0.782   1.048   3.434
   11GLY      N  107   0.640   1.167   3.295
   11GLY     HN  108   0.604   1.257   3.273
   11GLY     CA  109   0.589   1.072   3.198
   11GLY    HA1  110   0.515   1.130   3.146
   11GLY    HA2  111   0.544   0.995   3.259
   11GLY      C  112   0.683   1.012   3.094
   11GLY    OT1  113   0.731   1.086   3.003
   11GLY    OT2  114   0.709   0.889   3.103
   12LIT    LIT  115   4.850   5.301   1.756
   13LIT    LIT  116   5.329   5.698   0.330
   14LIT    LIT  117   5.579   0.802   0.105
   15LIT    LIT  118   2.823   1.863   1.038
   16LIT    LIT  119   0.890   0.948   3.053
   17LIT    LIT  120   0.252   1.931   1.084
   18LIT    LIT  121   5.006   4.665   0.053
   19LIT    LIT  122   4.144   0.718   1.231
   20LIT    LIT  123   0.862   3.126   4.033
   21LIT    LIT  124   0.214   5.603   0.590
   22LIT    LIT  125   4.313   4.914   0.480
   23LIT    LIT  126   5.793   6.399   0.123
   24LIT    LIT  127   5.464   4.659   2.486
   25LIT    LIT  128   6.397   1.461   2.331
   26LIT    LIT  129   0.695   1.440   3.961
   27LIT    LIT  130   3.813   2.819   2.757
   28LIT    LIT  131   6.489   4.490   5.162
   29LIT    LIT  132   1.337   2.170   3.267
   30LIT    LIT  133   6.895   3.080   1.112
   31LIT    LIT  134   4.399   1.052   1.815
   32LIT    LIT  135   5.652   2.115   1.075
   33LIT    LIT  136   4.406   3.153   2.826
   34LIT    LIT  137   5.161   2.842   5.721
   35LIT    LIT  138   6.597   1.079   1.501
   36LIT    LIT  139   3.217   2.907   4.981
   37LIT    LIT  140   3.333   4.238   2.221
   38LIT    LIT  141   0.746   4.868   1.795
   39LIT    LIT  142   2.562   1.132   2.189
   40LIT    LIT  143   1.967   6.431   1.720
   41LIT    LIT  144   6.206   3.252   0.029
   42LIT    LIT  145   2.080   1.565   2.953
   43CLA    CLA  146   2.103   6.343   1.883
   44CLA    CLA  147   6.387   1.772   3.057
   45CLA    CLA  148   6.531   4.854   0.323
   46CLA    CLA  149   6.473   5.616   0.683
   47CLA    CLA  150   6.588   0.388   1.295
   48CLA    CLA  151   2.749   3.350   4.895
   49CLA    CLA  152   3.197   4.375   3.781
   50CLA    CLA  153   5.308   5.074   0.771
   51CLA    CLA  154   1.085   1.778   0.703
   52CLA    CLA  155   3.357  -0.026   0.586
   53CLA    CLA  156   3.328   2.847   4.020
   54CLA    CLA  157   6.165   3.324   3.430
   55CLA    CLA  158   1.415   4.613   4.882
   56CLA    CLA  159   5.567   3.164   1.547
   57CLA    CLA  160   6.402   0.854   5.098
   58CLA    CLA  161   5.283   3.161   2.202
   59CLA    CLA  162   4.497   4.540   4.972
   60CLA    CLA  163   1.145   5.969   0.038
   61CLA    CLA  164   2.486   0.035   1.176
   62CLA    CLA  165   6.793   4.399   4.791
   63CLA    CLA  166   1.736   1.785   3.704
   64CLA    CLA  167   6.623   5.853   5.743
   65CLA    CLA  168   4.901   5.090   2.104
   66CLA    CLA  169   3.333   0.119   5.526
   67CLA    CLA  170   2.893   4.447   1.636
   68CLA    CLA  171   0.859   3.207   1.647
   69CLA    CLA  172   5.145   6.293   2.279
   70TIP3   OH2  173   0.667   4.212   2.080
   70TIP3    H1  174   0.573   4.193   2.085
   70TIP3    H2  175   0.672   4.297   2.037
   71TIP3   OH2  176   5.020   1.219   4.326
   71TIP3    H1  177   4.959   1.246   4.257
   71TIP3    H2  178   5.098   1.274   4.311
   72TIP3   OH2  179   5.616   5.336   0.870
   72TIP3    H1  180   5.675   5.408   0.892
   72TIP3    H2  181   5.670   5.257   0.878
   73TIP3   OH2  182   5.564   2.933   1.773
   73TIP3    H1  183   5.590   3.014   1.817
   73TIP3    H2  184   5.557   2.958   1.681
   74TIP3   OH2  185   5.362   5.137   3.189
   74TIP3    H1  186   5.362   5.205   3.257
   74TIP3    H2  187   5.448   5.095   3.196
   75TIP3   OH2  188   3.165   4.113   1.055
   75TIP3    H1  189   3.239   4.113   0.995
   75TIP3    H2  190   3.091   4.143   1.002
   76TIP3   OH2  191   0.447   0.499   5.022
   76TIP3    H1  192   0.417   0.461   4.940
   76TIP3    H2  193   0.529   0.543   5.000
   77TIP3   OH2  194   2.188   4.126   3.324
   77TIP3    H1  195   2.267   4.082   3.292
   77TIP3    H2  196   2.188   4.108   3.418
   78TIP3   OH2  197   1.197   3.643   0.226
   78TIP3    H1  198   1.185   3.638   0.321
   78TIP3    H2  199   1.227   3.556   0.201
   79TIP3   OH2  200   4.395   6.629   1.035
   79TIP3    H1  201   4.482   6.612   1.072
   79TIP3    H2  202   4.412   6.686   0.960
   80TIP3   OH2  203   1.926   0.275   5.047
   80TIP3    H1  204   2.016   0.277   5.015
   80TIP3    H2  205   1.932   0.309   5.137
   81TIP3   OH2  206   7.043   4.321   3.932
   81TIP3    H1  207   7.099   4.399   3.930
   81TIP3    H2  208   7.105   4.248   3.939
   82TIP3   OH2  209   3.819   5.188   4.152
   82TIP3    H1  210   3.853   5.104   4.121
   82TIP3    H2  211   3.766   5.220   4.080
   83TIP3   OH2  212   5.051   6.808   1.603
   83TIP3    H1  213   5.043   6.845   1.515
   83TIP3    H2  214   5.028   6.716   1.593
   84TIP3   OH2  215   3.819   4.697   2.963
   84TIP3    H1  216   3.812   4.760   3.034
   84TIP3    H2  217   3.884   4.734   2.903
   85TIP3   OH2  218   5.054   2.054   1.094
   85TIP3    H1  219   5.026   2.022   1.009
   85TIP3    H2  220   4.977   2.045   1.150
   86TIP3   OH2  221   1.270   2.654   1.488
   86TIP3    H1  222   1.232   2.703   1.415
   86TIP3    H2  223   1.261   2.712   1.563
   87TIP3   OH2  224   5.105   2.687   3.158
   87TIP3    H1  225   5.036   2.624   3.137
   87TIP3    H2  226   5.061   2.772   3.159
   88TIP3   OH2  227   4.402   1.846   0.046
   88TIP3    H1  228   4.327   1.822   0.101
   88TIP3    H2  229   4.365   1.903  -0.021
   89TIP3   OH2  230   4.654   5.901   3.627
   89TIP3    H1  231   4.711   5.832   3.660
   89TIP3    H2  232   4.652   5.888   3.532
   90TIP3   OH2  233   4.348   2.022   5.148
   90TIP3    H1  234   4.308   2.022   5.235
   90TIP3    H2  235   4.427   2.075   5.158
   91TIP3   OH2  236   0.413   2.772   2.595
   91TIP3    H1  237   0.359   2.699   2.622
   91TIP3    H2  238   0.488   2.732   2.551
   92TIP3   OH2  239   2.771   5.271   1.141
   92TIP3    H1  240   2.850   5.296   1.188
   92TIP3    H2  241   2.699   5.307   1.193
   93TIP3   OH2  242   5.498   3.759   4.326
   93TIP3    H1  243   5.553   3.837   4.318
   93TIP3    H2  244   5.417   3.782   4.282
   94TIP3   OH2  245   5.749   4.166   4.562
   94TIP3    H1  246   5.808   4.147   4.634
   94TIP3    H2  247   5.807   4.190   4.489
   95TIP3   OH2  248   1.139   0.962   0.392
   95TIP3    H1  249   1.218   1.016   0.396
   95TIP3    H2  250   1.082   1.008   0.331
   96TIP3   OH2  251   5.945   1.978   3.858
   96TIP3    H1  252   5.862   2.023   3.871
   96TIP3    H2  253   5.921   1.886   3.846
   97TIP3   OH2  254   0.996   6.257   0.897
   97TIP3    H1  255   0.959   6.345   0.907
   97TIP3    H2  256   1.001   6.223   0.986
   98TIP3   OH2  257   7.043   5.891   1.436
   98TIP3    H1  258   7.134   5.920   1.447
   98TIP3    H2  259   7.006   5.950   1.370
   99TIP3   OH2  260   5.995   4.523   1.258
   99TIP3    H1  261   5.948   4.441   1.271
   99TIP3    H2  262   6.078   4.497   1.218
  100TIP3   OH2  263   4.262   5.997   3.212
  100TIP3    H1  264   4.210   5.952   3.144
  100TIP3    H2  265   4.241   5.950   3.293
  101TIP3   OH2  266   2.392   4.176   4.135
  101TIP3    H1  267   2.392   4.220   4.220
  101TIP3    H2  268   2.472   4.206   4.092
  102TIP3   OH2  269   1.727   6.811   2.759
  102TIP3    H1  270   1.728   6.733   2.815
  102TIP3    H2  271   1.726   6.885   2.821
  103TIP3   OH2  272   6.029   5.494   2.683
  103TIP3    H1  273   6.038   5.518   2.775
  103TIP3    H2  274   5.934   5.497   2.667
  104TIP3   OH2  275   5.097   0.828   4.843
  104TIP3    H1  276   5.074   0.739   4.869
  104TIP3    H2  277   5.031   0.853   4.779
  105TIP3   OH2  278   6.297   4.973   0.518
  105TIP3    H1  279   6.362   4.931   0.461
  105TIP3    H2  280   6.262   4.902   0.571
  106TIP3   OH2  281   2.188   0.648   1.578
  106TIP3    H1  282   2.181   0.557   1.548
  106TIP3    H2  283   2.204   0.698   1.498
  107TIP3   OH2  284   0.523   4.860   2.729
  107TIP3    H1  285   0.444   4.840   2.679
  107TIP3    H2  286   0.513   4.951   2.755
  108TIP3   OH2  287   0.119   6.491   2.663
  108TIP3    H1  288   0.145   6.515   2.752
  108TIP3    H2  289   0.080   6.571   2.627
  109TIP3   OH2  290   6.292   6.204   1.466
  109TIP3    H1  291   6.288   6.155   1.548
  109TIP3    H2  292   6.205   6.241   1.456
  110TIP3   OH2  293   0.087   6.019   1.572
  110TIP3    H1  294   0.145   6.057   1.638
  110TIP3    H2  295   0.032   6.091   1.543
  111TIP3   OH2  296   3.662   1.515   5.633
  111TIP3    H1  297   3.729   1.580   5.653
  111TIP3    H2  298   3.711   1.440   5.598
  112TIP3   OH2  299   1.072   1.032   4.714
  112TIP3    H1  300   0.994   1.088   4.704
  112TIP3    H2  301   1.113   1.063   4.795
  113TIP3   OH2  302   6.615   0.261   3.275
  113TIP3    H1  303   6.520   0.272   3.265
  113TIP3    H2  304   6.650   0.349   3.258
  114TIP3   OH2  305   0.750   1.588   0.243
  114TIP3    H1  306   0.762   1.618   0.333
  114TIP3    H2  307   0.694   1.512   0.250
  115TIP3   OH2  308   2.220   6.712   4.956
  115TIP3    H1  309   2.239   6.734   4.865
  115TIP3    H2  310   2.146   6.651   4.951
  116TIP3   OH2  311   4.404   2.407   3.845
  116TIP3    H1  312   4.456   2.437   3.919
  116TIP3    H2  313   4.465   2.357   3.791
  117TIP3   OH2  314   1.588   6.729   1.532
  117TIP3    H1  315   1.590   6.807   1.477
  117TIP3    H2  316   1.496   6.717   1.554
  118TIP3   OH2  317   6.624   1.464   3.797
  118TIP3    H1  318   6.640   1.468   3.703
  118TIP3    H2  319   6.562   1.392   3.809
  119TIP3   OH2  320   0.281   5.781   0.552
  119TIP3    H1  321   0.376   5.795   0.548
  119TIP3    H2  322   0.247   5.829   0.477
  120TIP3   OH2  323   3.639   1.434   1.256
  120TIP3    H1  324   3.655   1.394   1.170
  120TIP3    H2  325   3.700   1.508   1.259
  121TIP3   OH2  326   2.912   0.542   1.529
  121TIP3    H1  327   2.821   0.548   1.558
  121TIP3    H2  328   2.923   0.614   1.467
  122TIP3   OH2  329   0.531   6.685   2.090
  122TIP3    H1  330   0.446   6.680   2.134
  122TIP3    H2  331   0.554   6.593   2.071
  123TIP3   OH2  332   4.759   0.058   4.208
  123TIP3    H1  333   4.837   0.110   4.222
  123TIP3    H2  334   4.735   0.025   4.295
  124TIP3   OH2  335   6.819   0.400   5.519
  124TIP3    H1  336   6.908   0.375   5.495
  124TIP3    H2  337   6.763   0.357   5.455
  125TIP3   OH2  338   4.657   2.776   1.479
  125TIP3    H1  339   4.638   2.682   1.474
  125TIP3    H2  340   4.575   2.816   1.507
  126TIP3   OH2  341   3.160   2.342   1.593
  126TIP3    H1  342   3.242   2.306   1.561
  126TIP3    H2  343   3.179   2.371   1.683
  127TIP3   OH2  344   3.977   6.307   5.660
  127TIP3    H1  345   4.000   6.357   5.582
  127TIP3    H2  346   3.979   6.372   5.731
  128TIP3   OH2  347   1.691   0.391   5.488
  128TIP3    H1  348   1.636   0.406   5.411
  128TIP3    H2  349   1.777   0.368   5.452
  129TIP3   OH2  350   0.927   0.763   3.009
  129TIP3    H1  351   0.898   0.672   3.014
  129TIP3    H2  352   1.019   0.757   2.984
  130TIP3   OH2  353   4.237   0.089   0.127
  130TIP3    H1  354   4.182   0.012   0.137
  130TIP3    H2  355   4.174   0.161   0.115
  131TIP3   OH2  356   0.979   3.810   0.160
  131TIP3    H1  357   1.051   3.749   0.180
  131TIP3    H2  358   0.901   3.768   0.198
  132TIP3   OH2  359   0.656   2.008   1.197
  132TIP3    H1  360   0.711   1.958   1.137
  132TIP3    H2  361   0.714   2.074   1.234
  133TIP3   OH2  362   5.144   1.977   5.583
  133TIP3    H1  363   5.109   2.048   5.636
  133TIP3    H2  364   5.155   1.904   5.643
  134TIP3   OH2  365   6.358   1.281   2.406
  134TIP3    H1  366   6.326   1.220   2.340
  134TIP3    H2  367   6.423   1.231   2.456
  135TIP3   OH2  368   5.307   6.218   4.891
  135TIP3    H1  369   5.303   6.293   4.833
  135TIP3    H2  370   5.278   6.251   4.976
  136TIP3   OH2  371   4.304   3.121   5.211
  136TIP3    H1  372   4.338   3.057   5.274
  136TIP3    H2  373   4.351   3.202   5.231
  137TIP3   OH2  374   5.554   4.710   5.219
  137TIP3    H1  375   5.566   4.678   5.130
  137TIP3    H2  376   5.463   4.688   5.240
  138TIP3   OH2  377   5.193   6.504   0.092
  138TIP3    H1  378   5.150   6.419   0.090
  138TIP3    H2  379   5.126   6.566   0.061
  139TIP3   OH2  380   5.694   1.725   4.278
  139TIP3    H1  381   5.634   1.744   4.207
  139TIP3    H2  382   5.775   1.699   4.234
  140TIP3   OH2  383   2.232   5.181   2.750
  140TIP3    H1  384   2.256   5.156   2.661
  140TIP3    H2  385   2.308   5.157   2.803
  141TIP3   OH2  386   1.417   0.707   3.652
  141TIP3    H1  387   1.400   0.670   3.739
  141TIP3    H2  388   1.482   0.649   3.614
  142TIP3   OH2  389   7.153   5.192   0.210
  142TIP3    H1  390   7.221   5.193   0.142
  142TIP3    H2  391   7.200   5.219   0.290
  143TIP3   OH2  392   5.171   4.719   2.078
  143TIP3    H1  393   5.263   4.702   2.056
  143TIP3    H2  394   5.151   4.800   2.031
  144TIP3   OH2  395   0.117   2.518   3.762
  144TIP3    H1  396   0.198   2.474   3.735
  144TIP3    H2  397   0.061   2.514   3.684
  145TIP3   OH2  398   0.607   2.564   1.659
  145TIP3    H1  399   0.524   2.569   1.706
  145TIP3    H2  400   0.674   2.558   1.728
  146TIP3   OH2  401   3.457   1.551   4.700
  146TIP3    H1  402   3.520   1.607   4.745
  146TIP3    H2  403   3.447   1.591   4.614
  147TIP3   OH2  404   4.535   0.413   1.686
  147TIP3    H1  405   4.487   0.411   1.769
  147TIP3    H2  406   4.503   0.338   1.637
  148TIP3   OH2  407   3.227   4.187   1.315
  148TIP3    H1  408   3.320   4.190   1.296
  148TIP3    H2  409   3.185   4.189   1.229
  149TIP3   OH2  410   4.898   5.049   2.939
  149TIP3    H1  411   4.937   4.965   2.916
  149TIP3    H2  412   4.937   5.112   2.879
  150TIP3   OH2  413   6.420   2.541   3.768
  150TIP3    H1  414   6.329   2.549   3.737
  150TIP3    H2  415   6.447   2.632   3.785
  151TIP3   OH2  416   2.235   4.302   3.647
  151TIP3    H1  417   2.142   4.306   3.626
  151TIP3    H2  418   2.277   4.353   3.577
  152TIP3   OH2  419   3.781   2.048   5.828
  152TIP3    H1  420   3.781   2.013   5.739
  152TIP3    H2  421   3.778   2.143   5.817
  153TIP3   OH2  422   3.133   1.473   5.031
  153TIP3    H1  423   3.115   1.526   5.108
  153TIP3    H2  424   3.068   1.403   5.035
  154TIP3   OH2  425   1.307   2.370   4.167
  154TIP3    H1  426   1.247   2.307   4.126
  154TIP3    H2  427   1.251   2.417   4.230
  155TIP3   OH2  428   2.963   3.943   0.765
  155TIP3    H1  429   2.975   4.020   0.822
  155TIP3    H2  430   2.964   3.869   0.825
  156TIP3   OH2  431   2.894   1.962   3.355
  156TIP3    H1  432   2.870   1.975   3.263
  156TIP3    H2  433   2.988   1.945   3.353
  157TIP3   OH2  434   1.394   5.535   1.621
  157TIP3    H1  435   1.473   5.515   1.670
  157TIP3    H2  436   1.407   5.495   1.535
  158TIP3   OH2  437   3.413   5.017   3.141
  158TIP3    H1  438   3.372   4.969   3.213
  158TIP3    H2  439   3.442   5.099   3.181
  159TIP3   OH2  440   3.113   6.057   2.991
  159TIP3    H1  441   3.124   6.012   2.907
  159TIP3    H2  442   3.025   6.094   2.986
  160TIP3   OH2  443   2.319   5.673   3.573
  160TIP3    H1  444   2.303   5.685   3.667
  160TIP3    H2  445   2.248   5.721   3.530
  161TIP3   OH2  446   1.246   2.634   0.724
  161TIP3    H1  447   1.287   2.548   0.718
  161TIP3    H2  448   1.155   2.616   0.749
  162TIP3   OH2  449   6.466   2.887   0.141
  162TIP3    H1  450   6.507   2.922   0.219
  162TIP3    H2  451   6.420   2.808   0.171
  163TIP3   OH2  452   1.562   6.779   4.587
  163TIP3    H1  453   1.609   6.737   4.659
  163TIP3    H2  454   1.628   6.793   4.519
  164TIP3   OH2  455   3.941   2.596   0.751
  164TIP3    H1  456   3.873   2.649   0.792
  164TIP3    H2  457   4.022   2.644   0.769
  165TIP3   OH2  458   3.957   3.184   3.229
  165TIP3    H1  459   3.944   3.201   3.323
  165TIP3    H2  460   3.965   3.271   3.190
  166TIP3   OH2  461   2.942   3.621   3.896
  166TIP3    H1  462   2.867   3.581   3.940
  166TIP3    H2  463   3.013   3.558   3.907
  167TIP3   OH2  464   0.830   3.560   2.742
  167TIP3    H1  465   0.882   3.633   2.708
  167TIP3    H2  466   0.740   3.584   2.724
  168TIP3   OH2  467   7.031   0.582   0.824
  168TIP3    H1  468   6.937   0.564   0.827
  168TIP3    H2  469   7.072   0.497   0.840
  169TIP3   OH2  470   6.324   4.159   2.644
  169TIP3    H1  471   6.365   4.151   2.558
  169TIP3    H2  472   6.298   4.251   2.650
  170TIP3   OH2  473   4.918   3.296   4.083
  170TIP3    H1  474   4.958   3.281   3.997
  170TIP3    H2  475   4.913   3.209   4.123
  171TIP3   OH2  476   6.189   2.140   3.793
  171TIP3    H1  477   6.144   2.224   3.792
  171TIP3    H2  478   6.126   2.079   3.832
  172TIP3   OH2  479   2.665   5.440   2.205
  172TIP3    H1  480   2.630   5.357   2.172
  172TIP3    H2  481   2.639   5.505   2.139
  173TIP3   OH2  482   0.646   1.021   1.993
  173TIP3    H1  483   0.586   0.975   2.052
  173TIP3    H2  484   0.733   1.003   2.029
  174TIP3   OH2  485   1.895   1.324   4.325
  174TIP3    H1  486   1.923   1.383   4.255
  174TIP3    H2  487   1.805   1.350   4.344
  175TIP3   OH2  488   0.229  -0.019   2.575
  175TIP3    H1  489   0.226   0.072   2.547
  175TIP3    H2  490   0.235  -0.069   2.493
  176TIP3   OH2  491   0.514   4.505   0.887
  176TIP3    H1  492   0.427   4.506   0.846
  176TIP3    H2  493   0.574   4.531   0.816
  177TIP3   OH2  494   0.054   0.057   3.910
  177TIP3    H1  495  -0.014   0.005   3.953
  177TIP3    H2  496   0.068   0.131   3.969
  178TIP3   OH2  497   5.231   5.100   2.950
  178TIP3    H1  498   5.260   5.101   3.041
  178TIP3    H2  499   5.136   5.089   2.955
  179TIP3   OH2  500   5.027   3.877   1.109
  179TIP3    H1  501   4.970   3.806   1.139
  179TIP3    H2  502   5.115   3.850   1.133
  180TIP3   OH2  503   4.075   1.442   5.030
  180TIP3    H1  504   4.145   1.457   5.093
  180TIP3    H2  505   4.010   1.390   5.079
  181TIP3   OH2  506   0.285   1.745   1.868
  181TIP3    H1  507   0.309   1.826   1.823
  181TIP3    H2  508   0.339   1.678   1.828
  182TIP3   OH2  509   2.201   3.145   4.421
  182TIP3    H1  510   2.200   3.201   4.344
  182TIP3    H2  511   2.209   3.205   4.495
  183TIP3   OH2  512   2.369   3.344   2.656
  183TIP3    H1  513   2.441   3.281   2.652
  183TIP3    H2  514   2.302   3.307   2.600
  184TIP3   OH2  515   6.364   3.109   4.957
  184TIP3    H1  516   6.412   3.160   4.891
  184TIP3    H2  517   6.272   3.127   4.940
  185TIP3   OH2  518   6.422   5.034   5.271
  185TIP3    H1  519   6.451   5.110   5.220
  185TIP3    H2  520   6.462   5.047   5.357
  186TIP3   OH2  521   3.266   2.513   5.325
  186TIP3    H1  522   3.337   2.572   5.299
  186TIP3    H2  523   3.228   2.483   5.243
  187TIP3   OH2  524   0.989   2.242   0.363
  187TIP3    H1  525   0.954   2.317   0.315
  187TIP3    H2  526   1.032   2.189   0.296
  188TIP3   OH2  527   0.147   6.626   1.666
  188TIP3    H1  528   0.178   6.548   1.713
  188TIP3    H2  529   0.217   6.646   1.604
  189TIP3   OH2  530   4.741   0.704   0.196
  189TIP3    H1  531   4.813   0.644   0.215
  189TIP3    H2  532   4.717   0.685   0.106
  190TIP3   OH2  533   6.444   2.102   0.159
  190TIP3    H1  534   6.420   2.019   0.200
  190TIP3    H2  535   6.377   2.116   0.092
  191TIP3   OH2  536   5.096   1.709   4.365
  191TIP3    H1  537   5.183   1.706   4.326
  191TIP3    H2  538   5.102   1.649   4.440
  192TIP3   OH2  539   1.921   3.608   2.515
  192TIP3    H1  540   1.985   3.645   2.454
  192TIP3    H2  541   1.836   3.633   2.478
  193TIP3   OH2  542   3.794   2.066   2.696
  193TIP3    H1  543   3.758   1.977   2.694
  193TIP3    H2  544   3.887   2.055   2.679
  194TIP3   OH2  545   1.958   2.371   5.381
  194TIP3    H1  546   1.955   2.299   5.318
  194TIP3    H2  547   2.038   2.419   5.357
  195TIP3   OH2  548   1.786   2.354   3.848
  195TIP3    H1  549   1.799   2.269   3.806
  195TIP3    H2  550   1.815   2.341   3.939
  196TIP3   OH2  551   2.607   1.209   2.637
  196TIP3    H1  552   2.671   1.253   2.581
  196TIP3    H2  553   2.661   1.159   2.699
  197TIP3   OH2  554   2.498   6.613   1.593
  197TIP3    H1  555   2.429   6.608   1.526
  197TIP3    H2  556   2.474   6.545   1.656
  198TIP3   OH2  557   6.903   3.974   5.261
  198TIP3    H1  558   6.835   4.030   5.225
  198TIP3    H2  559   6.888   3.975   5.355
  199TIP3   OH2  560   0.838   0.677   3.284
  199TIP3    H1  561   0.933   0.666   3.293
  199TIP3    H2  562   0.827   0.749   3.222
  200TIP3   OH2  563   4.678   3.197   0.975
  200TIP3    H1  564   4.729   3.232   0.902
  200TIP3    H2  565   4.673   3.269   1.038
  201TIP3   OH2  566   6.262   1.331   0.904
  201TIP3    H1  567   6.340   1.309   0.853
  201TIP3    H2  568   6.201   1.368   0.840
  202TIP3   OH2  569   6.633   4.026   4.253
  202TIP3    H1  570   6.585   4.105   4.226
  202TIP3    H2  571   6.632   3.970   4.175
  203TIP3   OH2  572   6.081   1.667   2.557
  203TIP3    H1  573   6.051   1.615   2.632
  203TIP3    H2  574   6.088   1.756   2.591
  204TIP3   OH2  575   6.136   3.307   3.853
  204TIP3    H1  576   6.195   3.239   3.820
  204TIP3    H2  577   6.140   3.298   3.948
  205TIP3   OH2  578   4.032   4.706   3.352
  205TIP3    H1  579   3.992   4.742   3.273
  205TIP3    H2  580   4.126   4.723   3.341
  206TIP3   OH2  581   4.156   3.763   1.630
  206TIP3    H1  582   4.146   3.845   1.580
  206TIP3    H2  583   4.177   3.791   1.719
  207TIP3   OH2  584   1.033   6.451   0.382
  207TIP3    H1  585   1.115   6.411   0.352
  207TIP3    H2  586   1.060   6.532   0.426
  208TIP3   OH2  587   5.445   6.127   3.221
  208TIP3    H1  588   5.362   6.175   3.228
  208TIP3    H2  589   5.432   6.069   3.145
  209TIP3   OH2  590   2.845   5.541   1.270
  209TIP3    H1  591   2.784   5.500   1.331
  209TIP3    H2  592   2.791   5.602   1.220
  210TIP3   OH2  593   6.374   4.213   1.723
  210TIP3    H1  594   6.390   4.190   1.814
  210TIP3    H2  595   6.392   4.132   1.674
  211TIP3   OH2  596   1.723   6.300   1.953
  211TIP3    H1  597   1.772   6.218   1.941
  211TIP3    H2  598   1.720   6.312   2.047
  212TIP3   OH2  599   5.183   3.425   0.983
  212TIP3    H1  600   5.205   3.333   0.969
  212TIP3    H2  601   5.264   3.464   1.017
  213TIP3   OH2  602   0.867   4.545   2.513
  213TIP3    H1  603   0.948   4.580   2.477
  213TIP3    H2  604   0.809   4.621   2.521
  214TIP3   OH2  605   0.631   4.558   3.971
  214TIP3    H1  606   0.636   4.476   3.921
  214TIP3    H2  607   0.575   4.615   3.919
  215TIP3   OH2  608   6.527   0.142   4.125
  215TIP3    H1  609   6.440   0.181   4.114
  215TIP3    H2  610   6.577   0.175   4.051
  216TIP3   OH2  611   4.200   2.952   2.130
  216TIP3    H1  612   4.145   2.930   2.205
  216TIP3    H2  613   4.147   3.012   2.077
  217TIP3   OH2  614   4.080   0.756   5.200
  217TIP3    H1  615   4.085   0.823   5.131
  217TIP3    H2  616   4.025   0.687   5.162
  218TIP3   OH2  617   2.092   5.112   0.569
  218TIP3    H1  618   2.093   5.207   0.577
  218TIP3    H2  619   2.015   5.085   0.620
  219TIP3   OH2  620   1.451   0.313   5.356
  219TIP3    H1  621   1.392   0.319   5.431
  219TIP3    H2  622   1.413   0.373   5.291
  220TIP3   OH2  623   4.923   6.328   1.334
  220TIP3    H1  624   4.906   6.406   1.386
  220TIP3    H2  625   4.994   6.353   1.275
  221TIP3   OH2  626   5.918   2.024   3.359
  221TIP3    H1  627   5.998   2.007   3.408
  221TIP3    H2  628   5.933   1.984   3.273
  222TIP3   OH2  629   4.920   0.175   2.882
  222TIP3    H1  630   4.881   0.261   2.866
  222TIP3    H2  631   4.959   0.183   2.969
  223TIP3   OH2  632   2.239   1.517   3.387
  223TIP3    H1  633   2.330   1.531   3.412
  223TIP3    H2  634   2.190   1.577   3.443
  224TIP3   OH2  635   2.253   3.539   3.091
  224TIP3    H1  636   2.233   3.537   3.185
  224TIP3    H2  637   2.337   3.495   3.083
  225TIP3   OH2  638   6.372   0.303   4.422
  225TIP3    H1  639   6.393   0.229   4.479
  225TIP3    H2  640   6.302   0.270   4.366
  226TIP3   OH2  641   0.116   3.734   2.053
  226TIP3    H1  642   0.117   3.829   2.047
  226TIP3    H2  643   0.069   3.704   1.975
  227TIP3   OH2  644   2.912   2.916   4.556
  227TIP3    H1  645   2.825   2.878   4.542
  227TIP3    H2  646   2.971   2.859   4.506
  228TIP3   OH2  647   1.791   1.627   0.915
  228TIP3    H1  648   1.787   1.544   0.961
  228TIP3    H2  649   1.723   1.681   0.955
  229TIP3   OH2  650   5.831   5.770   3.522
  229TIP3    H1  651   5.743   5.763   3.560
  229TIP3    H2  652   5.837   5.862   3.494
  230TIP3   OH2  653   5.938   5.016   2.435
  230TIP3    H1  654   5.997   5.048   2.504
  230TIP3    H2  655   5.873   5.085   2.426
  231TIP3   OH2  656   4.424   1.227   0.490
  231TIP3    H1  657   4.337   1.187   0.497
  231TIP3    H2  658   4.482   1.166   0.535
  232TIP3   OH2  659   2.788   6.576   1.527
  232TIP3    H1  660   2.814   6.652   1.475
  232TIP3    H2  661   2.695   6.592   1.546
  233TIP3   OH2  662   6.542   2.656   4.212
  233TIP3    H1  663   6.597   2.711   4.155
  233TIP3    H2  664   6.506   2.718   4.276
  234TIP3   OH2  665   4.287   2.004   4.359
  234TIP3    H1  666   4.374   2.000   4.400
  234TIP3    H2  667   4.264   2.097   4.363
  235TIP3   OH2  668   6.569   4.064   4.510
  235TIP3    H1  669   6.590   4.073   4.417
  235TIP3    H2  670   6.511   4.137   4.529
  236TIP3   OH2  671   7.120   4.668   3.750
  236TIP3    H1  672   7.102   4.631   3.836
  236TIP3    H2  673   7.208   4.706   3.757
  237TIP3   OH2  674   5.370   6.308   2.507
  237TIP3    H1  675   5.309   6.332   2.438
  237TIP3    H2  676   5.390   6.216   2.492
  238TIP3   OH2  677   2.023   3.188   0.001
  238TIP3    H1  678   2.002   3.204  -0.091
  238TIP3    H2  679   1.942   3.156   0.039
  239TIP3   OH2  680   2.772   0.053   1.921
  239TIP3    H1  681   2.827  -0.012   1.965
  239TIP3    H2  682   2.720   0.093   1.991
  240TIP3   OH2  683   0.366   0.377   0.454
  240TIP3    H1  684   0.303   0.369   0.383
  240TIP3    H2  685   0.413   0.458   0.436
  241TIP3   OH2  686   1.822   4.611   1.673
  241TIP3    H1  687   1.860   4.615   1.585
  241TIP3    H2  688   1.898   4.600   1.731
  242TIP3   OH2  689   6.160   2.166   4.463
  242TIP3    H1  690   6.240   2.122   4.434
  242TIP3    H2  691   6.101   2.094   4.487
  243TIP3   OH2  692   2.806   3.563   2.647
  243TIP3    H1  693   2.733   3.551   2.709
  243TIP3    H2  694   2.770   3.540   2.562
  244TIP3   OH2  695   2.651   0.998   3.921
  244TIP3    H1  696   2.585   0.964   3.859
  244TIP3    H2  697   2.601   1.050   3.983
  245TIP3   OH2  698   0.836   5.222   2.438
  245TIP3    H1  699   0.796   5.279   2.372
  245TIP3    H2  700   0.929   5.240   2.432
  246TIP3   OH2  701   2.774   0.113   0.254
  246TIP3    H1  702   2.856   0.078   0.290
  246TIP3    H2  703   2.792   0.206   0.241
  247TIP3   OH2  704   7.105   0.935   2.639
  247TIP3    H1  705   7.165   0.901   2.706
  247TIP3    H2  706   7.161   0.949   2.563
  248TIP3   OH2  707   3.620   3.851   4.958
  248TIP3    H1  708   3.593   3.799   5.034
  248TIP3    H2  709   3.715   3.845   4.958
  249TIP3   OH2  710   1.516   6.598   5.018
  249TIP3    H1  711   1.564   6.647   4.951
  249TIP3    H2  712   1.569   6.520   5.032
  250TIP3   OH2  713   3.645   2.801   2.660
  250TIP3    H1  714   3.551   2.792   2.676
  250TIP3    H2  715   3.652   2.807   2.565
  251TIP3   OH2  716   4.016   4.042   4.711
  251TIP3    H1  717   4.108   4.016   4.717
  251TIP3    H2  718   4.019   4.137   4.698
  252TIP3   OH2  719   6.137   3.021   3.958
  252TIP3    H1  720   6.051   2.980   3.947
  252TIP3    H2  721   6.198   2.948   3.962
  253TIP3   OH2  722   4.087   4.499   2.534
  253TIP3    H1  723   4.127   4.584   2.550
  253TIP3    H2  724   4.049   4.473   2.618
  254TIP3   OH2  725   3.514   2.807   2.112
  254TIP3    H1  726   3.529   2.898   2.139
  254TIP3    H2  727   3.542   2.756   2.188
  255TIP3   OH2  728   3.274   2.360   0.438
  255TIP3    H1  729   3.185   2.333   0.461
  255TIP3    H2  730   3.314   2.281   0.400
  256TIP3   OH2  731   2.087   5.068   4.270
  256TIP3    H1  732   1.993   5.054   4.272
  256TIP3    H2  733   2.122   4.991   4.224
  257TIP3   OH2  734   5.287   4.584   0.249
  257TIP3    H1  735   5.329   4.666   0.276
  257TIP3    H2  736   5.246   4.551   0.329
  258TIP3   OH2  737   4.563   2.690   3.738
  258TIP3    H1  738   4.481   2.663   3.695
  258TIP3    H2  739   4.619   2.719   3.666
  259TIP3   OH2  740   3.152   5.404   4.938
  259TIP3    H1  741   3.127   5.487   4.979
  259TIP3    H2  742   3.082   5.386   4.875
  260TIP3   OH2  743   1.312   4.428   1.976
  260TIP3    H1  744   1.299   4.517   1.944
  260TIP3    H2  745   1.249   4.375   1.927
  261TIP3   OH2  746   1.745   0.947   2.876
  261TIP3    H1  747   1.722   1.013   2.941
  261TIP3    H2  748   1.833   0.972   2.846
  262TIP3   OH2  749   1.780   1.435   5.771
  262TIP3    H1  750   1.788   1.530   5.763
  262TIP3    H2  751   1.868   1.405   5.795
  263TIP3   OH2  752   0.372   1.059   4.760
  263TIP3    H1  753   0.302   1.100   4.709
  263TIP3    H2  754   0.328   0.994   4.814
  264TIP3   OH2  755   0.571   3.882  -0.009
  264TIP3    H1  756   0.486   3.847  -0.035
  264TIP3    H2  757   0.561   3.902   0.085
  265TIP3   OH2  758   3.383   0.609   4.236
  265TIP3    H1  759   3.457   0.550   4.226
  265TIP3    H2  760   3.414   0.676   4.298
  266TIP3   OH2  761   1.577   4.508   1.760
  266TIP3    H1  762   1.661   4.550   1.739
  266TIP3    H2  763   1.563   4.528   1.852
  267TIP3   OH2  764   0.557   1.881   1.845
  267TIP3    H1  765   0.517   1.920   1.923
  267TIP3    H2  766   0.639   1.843   1.876
  268TIP3   OH2  767   4.785   5.613   0.143
  268TIP3    H1  768   4.758   5.689   0.194
  268TIP3    H2  769   4.723   5.610   0.070
  269TIP3   OH2  770   3.283   6.642   4.351
  269TIP3    H1  771   3.196   6.652   4.312
  269TIP3    H2  772   3.265   6.620   4.443
  270TIP3   OH2  773   3.859   0.330   3.119
  270TIP3    H1  774   3.892   0.246   3.151
  270TIP3    H2  775   3.765   0.316   3.109
  271TIP3   OH2  776   4.686   0.633   2.719
  271TIP3    H1  777   4.596   0.640   2.752
  271TIP3    H2  778   4.678   0.657   2.626
  272TIP3   OH2  779   5.977   5.667   1.536
  272TIP3    H1  780   6.009   5.744   1.584
  272TIP3    H2  781   5.883   5.683   1.525
  273TIP3   OH2  782   3.004   4.283   4.171
  273TIP3    H1  783   3.001   4.376   4.190
  273TIP3    H2  784   2.948   4.243   4.238
  274TIP3   OH2  785   7.002   4.561   0.341
  274TIP3    H1  786   6.944   4.613   0.397
  274TIP3    H2  787   6.963   4.567   0.254
  275TIP3   OH2  788   3.083   3.830   4.128
  275TIP3    H1  789   3.044   3.751   4.167
  275TIP3    H2  790   3.101   3.887   4.203
  276TIP3   OH2  791   3.492   0.244   3.633
  276TIP3    H1  792   3.563   0.183   3.611
  276TIP3    H2  793   3.535   0.316   3.679
  277TIP3   OH2  794   6.902   2.287   4.159
  277TIP3    H1  795   6.992   2.313   4.138
  277TIP3    H2  796   6.855   2.370   4.168
  278TIP3   OH2  797   6.950   2.564   1.137
  278TIP3    H1  798   6.965   2.641   1.083
  278TIP3    H2  799   7.020   2.566   1.202
  279TIP3   OH2  800   5.192   0.628   0.102
  279TIP3    H1  801   5.101   0.625   0.070
  279TIP3    H2  802   5.213   0.537   0.121
  280TIP3   OH2  803   4.460   1.056   5.680
  280TIP3    H1  804   4.411   1.116   5.735
  280TIP3    H2  805   4.552   1.074   5.700
  281TIP3   OH2  806   0.900   5.875   2.314
  281TIP3    H1  807   0.910   5.868   2.219
  281TIP3    H2  808   0.877   5.966   2.329
  282TIP3   OH2  809   3.914   4.661   4.095
  282TIP3    H1  810   3.970   4.671   4.172
  282TIP3    H2  811   3.974   4.631   4.026
  283TIP3   OH2  812   4.741   6.542   1.409
  283TIP3    H1  813   4.718   6.534   1.317
  283TIP3    H2  814   4.669   6.499   1.456
  284TIP3   OH2  815   6.790   1.054   1.564
  284TIP3    H1  816   6.865   1.108   1.588
  284TIP3    H2  817   6.816   0.964   1.588
  285TIP3   OH2  818   2.714   1.262   3.153
  285TIP3    H1  819   2.799   1.293   3.121
  285TIP3    H2  820   2.722   1.266   3.248
  286TIP3   OH2  821   5.183   5.885   3.413
  286TIP3    H1  822   5.151   5.811   3.465
  286TIP3    H2  823   5.185   5.852   3.323
  287TIP3   OH2  824   6.249   0.386   4.810
  287TIP3    H1  825   6.198   0.311   4.841
  287TIP3    H2  826   6.203   0.462   4.845
  288TIP3   OH2  827   1.306   6.218   4.728
  288TIP3    H1  828   1.237   6.261   4.679
  288TIP3    H2  829   1.314   6.131   4.689
  289TIP3   OH2  830   4.098   6.393   0.347
  289TIP3    H1  831   4.076   6.476   0.305
  289TIP3    H2  832   4.097   6.329   0.277
  290TIP3   OH2  833   4.493   0.317   3.341
  290TIP3    H1  834   4.533   0.267   3.412
  290TIP3    H2  835   4.549   0.300   3.265
  291TIP3   OH2  836   1.460   4.785   4.147
  291TIP3    H1  837   1.524   4.730   4.102
  291TIP3    H2  838   1.397   4.724   4.183
  292TIP3   OH2  839   5.418   5.686   1.214
  292TIP3    H1  840   5.375   5.635   1.146
  292TIP3    H2  841   5.448   5.621   1.278
  293TIP3   OH2  842   4.666   1.812   4.226
  293TIP3    H1  843   4.642   1.812   4.134
  293TIP3    H2  844   4.636   1.727   4.259
  294TIP3   OH2  845   1.822   2.249   2.962
  294TIP3    H1  846   1.776   2.166   2.960
  294TIP3    H2  847   1.876   2.244   3.041
  295TIP3   OH2  848   6.999   6.454   2.027
  295TIP3    H1  849   7.010   6.533   1.974
  295TIP3    H2  850   6.920   6.471   2.078
  296TIP3   OH2  851   2.540   6.557   5.517
  296TIP3    H1  852   2.510   6.648   5.508
  296TIP3    H2  853   2.548   6.526   5.427
  297TIP3   OH2  854   2.886   1.025   3.092
  297TIP3    H1  855   2.822   1.084   3.132
  297TIP3    H2  856   2.968   1.043   3.139
  298TIP3   OH2  857   1.902   2.870   0.436
  298TIP3    H1  858   1.911   2.783   0.474
  298TIP3    H2  859   1.848   2.857   0.358
  299TIP3   OH2  860   4.110   4.568   3.896
  299TIP3    H1  861   4.172   4.496   3.894
  299TIP3    H2  862   4.025   4.527   3.881
  300TIP3   OH2  863   5.743   2.126   1.612
  300TIP3    H1  864   5.661   2.175   1.604
  300TIP3    H2  865   5.715   2.034   1.619
  301TIP3   OH2  866   0.313   3.585   1.251
  301TIP3    H1  867   0.358   3.577   1.335
  301TIP3    H2  868   0.243   3.648   1.267
  302TIP3   OH2  869   3.638   4.965   5.823
  302TIP3    H1  870   3.571   4.978   5.890
  302TIP3    H2  871   3.640   5.049   5.776
  303TIP3   OH2  872   0.292   3.050   5.088
  303TIP3    H1  873   0.300   3.134   5.134
  303TIP3    H2  874   0.251   3.073   5.004
  304TIP3   OH2  875   5.938   5.105   4.812
  304TIP3    H1  876   6.021   5.142   4.840
  304TIP3    H2  877   5.942   5.013   4.839
  305TIP3   OH2  878   5.824   4.801   3.755
  305TIP3    H1  879   5.733   4.778   3.733
  305TIP3    H2  880   5.862   4.718   3.785
  306TIP3   OH2  881   1.565   3.394   2.989
  306TIP3    H1  882   1.645   3.387   2.937
  306TIP3    H2  883   1.562   3.313   3.040
  307TIP3   OH2  884   5.083   1.720   0.454
  307TIP3    H1  885   5.021   1.698   0.384
  307TIP3    H2  886   5.169   1.717   0.412
  308TIP3   OH2  887   1.582   6.689   1.828
  308TIP3    H1  888   1.528   6.654   1.899
  308TIP3    H2  889   1.523   6.695   1.753
  309TIP3   OH2  890   1.774   1.203   0.688
  309TIP3    H1  891   1.717   1.158   0.625
  309TIP3    H2  892   1.833   1.256   0.633
  310TIP3   OH2  893   3.117   1.636   5.544
  310TIP3    H1  894   3.160   1.722   5.537
  310TIP3    H2  895   3.182   1.580   5.586
  311TIP3   OH2  896   2.832   0.633   2.809
  311TIP3    H1  897   2.830   0.648   2.904
  311TIP3    H2  898   2.895   0.698   2.777
  312TIP3   OH2  899   2.135   6.478   2.340
  312TIP3    H1  900   2.062   6.425   2.373
  312TIP3    H2  901   2.095   6.562   2.317
  313TIP3   OH2  902   2.564   2.204   0.449
  313TIP3    H1  903   2.505   2.227   0.378
  313TIP3    H2  904   2.626   2.141   0.410
  314TIP3   OH2  905   2.016   2.963   1.603
  314TIP3    H1  906   2.013   3.057   1.622
  314TIP3    H2  907   2.046   2.957   1.513
  315TIP3   OH2  908   6.067   4.165   1.734
  315TIP3    H1  909   6.135   4.132   1.793
  315TIP3    H2  910   6.075   4.260   1.740
  316TIP3   OH2  911   1.647   6.114   2.538
  316TIP3    H1  912   1.713   6.053   2.569
  316TIP3    H2  913   1.631   6.173   2.612
  317TIP3   OH2  914   2.350   1.725   3.158
  317TIP3    H1  915   2.257   1.749   3.156
  317TIP3    H2  916   2.349   1.629   3.169
  318TIP3   OH2  917   0.075   5.077   4.656
  318TIP3    H1  918   0.003   5.043   4.708
  318TIP3    H2  919   0.053   5.052   4.566
  319TIP3   OH2  920   1.104   1.915   0.376
  319TIP3    H1  921   1.056   1.842   0.417
  319TIP3    H2  922   1.040   1.956   0.318
  320TIP3   OH2  923   5.167   2.574   1.626
  320TIP3    H1  924   5.086   2.561   1.577
  320TIP3    H2  925   5.184   2.668   1.621
  321TIP3   OH2  926   4.313   4.139   1.730
  321TIP3    H1  927   4.274   4.134   1.643
  321TIP3    H2  928   4.319   4.048   1.759
  322TIP3   OH2  929   2.818   4.801   4.231
  322TIP3    H1  930   2.803   4.893   4.254
  322TIP3    H2  931   2.756   4.784   4.160
  323TIP3   OH2  932   1.388   2.859   1.832
  323TIP3    H1  933   1.338   2.885   1.755
  323TIP3    H2  934   1.428   2.940   1.864
  324TIP3   OH2  935   0.871   3.962   3.517
  324TIP3    H1  936   0.925   3.902   3.568
  324TIP3    H2  937   0.783   3.924   3.522
  325TIP3   OH2  938   4.356   0.185   3.686
  325TIP3    H1  939   4.351   0.276   3.656
  325TIP3    H2  940   4.446   0.158   3.667
  326TIP3   OH2  941   0.335   3.156   2.495
  326TIP3    H1  942   0.420   3.184   2.459
  326TIP3    H2  943   0.358   3.109   2.575
  327TIP3   OH2  944   2.581   2.934   1.180
  327TIP3    H1  945   2.535   2.960   1.260
  327TIP3    H2  946   2.671   2.964   1.193
  328TIP3   OH2  947   2.476   1.964   5.742
  328TIP3    H1  948   2.432   2.046   5.718
  328TIP3    H2  949   2.568   1.988   5.753
  329TIP3   OH2  950   2.173   5.555   3.037
  329TIP3    H1  951   2.149   5.578   2.947
  329TIP3    H2  952   2.240   5.488   3.028
  330TIP3   OH2  953   5.927   0.080   0.895
  330TIP3    H1  954   5.935   0.154   0.835
  330TIP3    H2  955   5.885   0.117   0.973
  331TIP3   OH2  956   2.007   6.731   2.275
  331TIP3    H1  957   1.945   6.751   2.344
  331TIP3    H2  958   2.013   6.811   2.224
  332TIP3   OH2  959   4.757   1.150   2.948
  332TIP3    H1  960   4.851   1.161   2.956
  332TIP3    H2  961   4.746   1.078   2.886
  333TIP3   OH2  962   1.109   0.743   1.237
  333TIP3    H1  963   1.047   0.703   1.176
  333TIP3    H2  964   1.088   0.836   1.235
  334TIP3   OH2  965   3.843   0.886   3.136
  334TIP3    H1  966   3.853   0.976   3.105
  334TIP3    H2  967   3.762   0.888   3.188
  335TIP3   OH2  968   6.486   4.290   1.074
  335TIP3    H1  969   6.415   4.322   1.017
  335TIP3    H2  970   6.566   4.303   1.023
  336TIP3   OH2  971   1.899   6.385   3.152
  336TIP3    H1  972   1.845   6.309   3.172
  336TIP3    H2  973   1.850   6.460   3.186
  337TIP3   OH2  974   7.238   1.313   0.708
  337TIP3    H1  975   7.279   1.227   0.705
  337TIP3    H2  976   7.163   1.302   0.767
  338TIP3   OH2  977   0.581   0.431   3.532
  338TIP3    H1  978   0.518   0.384   3.477
  338TIP3    H2  979   0.577   0.522   3.502
  339TIP3   OH2  980   3.865   0.777   0.918
  339TIP3    H1  981   3.875   0.781   0.823
  339TIP3    H2  982   3.913   0.854   0.950
  340TIP3   OH2  983   1.611   2.963   0.872
  340TIP3    H1  984   1.670   2.925   0.937
  340TIP3    H2  985   1.669   3.002   0.807
  341TIP3   OH2  986   0.518   0.082   2.287
  341TIP3    H1  987   0.473   0.142   2.347
  341TIP3    H2  988   0.605   0.071   2.326
  342TIP3   OH2  989   2.389   1.986   3.195
  342TIP3    H1  990   2.420   1.899   3.170
  342TIP3    H2  991   2.299   1.971   3.226
  343TIP3   OH2  992   5.312   0.212   2.648
  343TIP3    H1  993   5.219   0.215   2.671
  343TIP3    H2  994   5.319   0.139   2.586
  344TIP3   OH2  995   2.989   0.688   3.270
  344TIP3    H1  996   2.920   0.735   3.223
  344TIP3    H2  997   2.946   0.653   3.347
  345TIP3   OH2  998   4.071   5.210   2.068
  345TIP3    H1  999   4.042   5.301   2.061
  345TIP3    H2 1000   4.012   5.161   2.011
  346TIP3   OH2 1001   0.409   1.561   3.739
  346TIP3    H1 1002   0.485   1.506   3.758
  346TIP3    H2 1003   0.382   1.535   3.651
  347TIP3   OH2 1004   0.508   6.011   1.489
  347TIP3    H1 1005   0.491   6.074   1.419
  347TIP3    H2 1006   0.552   5.938   1.446
  348TIP3   OH2 1007   0.541   3.508   0.410
  348TIP3    H1 1008   0.525   3.600   0.431
  348TIP3    H2 1009   0.470   3.460   0.453
  349TIP3   OH2 1010   6.993   6.201   1.305
  349TIP3    H1 1011   6.906   6.199   1.265
  349TIP3    H2 1012   7.045   6.257   1.247
  350TIP3   OH2 1013   3.220   3.503   1.165
  350TIP3    H1 1014   3.135   3.460   1.160
  350TIP3    H2 1015   3.238   3.534   1.077
  351TIP3   OH2 1016   0.105   2.213   0.847
  351TIP3    H1 1017   0.128   2.295   0.804
  351TIP3    H2 1018   0.134   2.224   0.937
  352TIP3   OH2 1019   6.556   0.661   3.522
  352TIP3    H1 1020   6.632   0.664   3.464
  352TIP3    H2 1021   6.540   0.753   3.544
  353TIP3   OH2 1022   2.606   2.851   5.806
  353TIP3    H1 1023   2.562   2.767   5.811
  353TIP3    H2 1024   2.535   2.914   5.794
  354TIP3   OH2 1025   3.195   1.562   0.556
  354TIP3    H1 1026   3.111   1.593   0.590
  354TIP3    H2 1027   3.194   1.586   0.464
  355TIP3   OH2 1028   0.215   4.082   2.720
  355TIP3    H1 1029   0.228   4.160   2.667
  355TIP3    H2 1030   0.120   4.079   2.736
  356TIP3   OH2 1031   7.212   4.824   5.355
  356TIP3    H1 1032   7.299   4.859   5.337
  356TIP3    H2 1033   7.186   4.781   5.274
  357TIP3   OH2 1034   1.870   2.419   4.091
  357TIP3    H1 1035   1.858   2.479   4.165
  357TIP3    H2 1036   1.954   2.377   4.107
  358TIP3   OH2 1037   3.870   5.865   1.347
  358TIP3    H1 1038   3.828   5.933   1.400
  358TIP3    H2 1039   3.953   5.848   1.392
  359TIP3   OH2 1040   4.337   2.560   4.523
  359TIP3    H1 1041   4.297   2.639   4.557
  359TIP3    H2 1042   4.401   2.534   4.589
  360TIP3   OH2 1043   6.151   0.170   4.313
  360TIP3    H1 1044   6.064   0.210   4.313
  360TIP3    H2 1045   6.145   0.100   4.378
  361TIP3   OH2 1046   1.986   4.960   2.322
  361TIP3    H1 1047   1.893   4.966   2.302
  361TIP3    H2 1048   1.989   4.930   2.413
  362TIP3   OH2 1049   5.833   3.229   4.335
  362TIP3    H1 1050   5.797   3.244   4.248
  362TIP3    H2 1051   5.837   3.134   4.345
  363TIP3   OH2 1052   4.454   6.541   2.575
  363TIP3    H1 1053   4.523   6.519   2.513
  363TIP3    H2 1054   4.373   6.523   2.528
  364TIP3   OH2 1055   6.857   0.194   4.229
  364TIP3    H1 1056   6.769   0.208   4.263
  364TIP3    H2 1057   6.904   0.151   4.300
  365TIP3   OH2 1058   3.480   6.597   5.077
  365TIP3    H1 1059   3.407   6.537   5.091
  365TIP3    H2 1060   3.534   6.588   5.155
  366TIP3   OH2 1061   5.350   3.317   3.915
  366TIP3    H1 1062   5.381   3.349   3.830
  366TIP3    H2 1063   5.411   3.247   3.938
  367TIP3   OH2 1064   6.536   0.308   2.957
  367TIP3    H1 1065   6.467   0.335   3.017
  367TIP3    H2 1066   6.564   0.222   2.989
  368TIP3   OH2 1067   0.583   0.774   0.623
  368TIP3    H1 1068   0.541   0.793   0.708
  368TIP3    H2 1069   0.648   0.843   0.614
  369TIP3   OH2 1070   1.408   2.812   5.842
  369TIP3    H1 1071   1.393   2.743   5.907
  369TIP3    H2 1072   1.489   2.785   5.797
  370TIP3   OH2 1073   0.698   3.494   4.513
  370TIP3    H1 1074   0.636   3.498   4.441
  370TIP3    H2 1075   0.774   3.542   4.483
  371TIP3   OH2 1076   3.633   4.708   3.291
  371TIP3    H1 1077   3.723   4.736   3.274
  371TIP3    H2 1078   3.641   4.632   3.348
  372TIP3   OH2 1079   1.300   3.965   0.526
  372TIP3    H1 1080   1.370   3.941   0.466
  372TIP3    H2 1081   1.238   3.892   0.522
  373TIP3   OH2 1082   1.444   0.969   3.572
  373TIP3    H1 1083   1.451   0.958   3.477
  373TIP3    H2 1084   1.453   0.880   3.607
  374TIP3   OH2 1085   2.237   0.807   4.052
  374TIP3    H1 1086   2.210   0.756   3.975
  374TIP3    H2 1087   2.331   0.791   4.059
  375TIP3   OH2 1088   1.425   1.040   2.452
  375TIP3    H1 1089   1.420   0.979   2.378
  375TIP3    H2 1090   1.442   1.125   2.412
  376TIP3   OH2 1091   2.461   2.795   0.786
  376TIP3    H1 1092   2.522   2.779   0.714
  376TIP3    H2 1093   2.427   2.708   0.809
  377TIP3   OH2 1094   1.560   4.087   2.691
  377TIP3    H1 1095   1.518   4.001   2.683
  377TIP3    H2 1096   1.576   4.097   2.785
  378TIP3   OH2 1097   4.901   4.275   4.023
  378TIP3    H1 1098   4.934   4.331   3.952
  378TIP3    H2 1099   4.850   4.335   4.079
  379TIP3   OH2 1100   1.072   6.677   0.048
  379TIP3    H1 1101   1.044   6.760   0.009
  379TIP3    H2 1102   1.068   6.693   0.143
  380TIP3   OH2 1103   1.170   1.979   3.731
  380TIP3    H1 1104   1.264   1.976   3.748
  380TIP3    H2 1105   1.144   1.888   3.723
  381TIP3   OH2 1106   1.693   4.153   0.062
  381TIP3    H1 1107   1.777   4.199   0.067
  381TIP3    H2 1108   1.631   4.220   0.033
  382TIP3   OH2 1109  -0.007   0.090   0.665
  382TIP3    H1 1110   0.085   0.077   0.641
  382TIP3    H2 1111  -0.044   0.138   0.590
  383TIP3   OH2 1112   5.400   2.859   3.802
  383TIP3    H1 1113   5.399   2.765   3.819
  383TIP3    H2 1114   5.455   2.869   3.724
  384TIP3   OH2 1115   2.391   6.577   0.953
  384TIP3    H1 1116   2.398   6.630   1.032
  384TIP3    H2 1117   2.312   6.608   0.909
  385TIP3   OH2 1118   3.165   0.421   3.391
  385TIP3    H1 1119   3.171   0.463   3.306
  385TIP3    H2 1120   3.079   0.379   3.392
  386TIP3   OH2 1121   6.662   4.446   2.548
  386TIP3    H1 1122   6.712   4.371   2.579
  386TIP3    H2 1123   6.679   4.449   2.454
  387TIP3   OH2 1124   6.296   2.354   0.732
  387TIP3    H1 1125   6.323   2.431   0.781
  387TIP3    H2 1126   6.201   2.350   0.744
  388TIP3   OH2 1127   4.541   5.544   0.955
  388TIP3    H1 1128   4.455   5.571   0.988
  388TIP3    H2 1129   4.577   5.623   0.914
  389TIP3   OH2 1130   6.346   4.500   2.295
  389TIP3    H1 1131   6.368   4.585   2.332
  389TIP3    H2 1132   6.313   4.519   2.207
  390TIP3   OH2 1133   6.803   2.618   3.402
  390TIP3    H1 1134   6.758   2.658   3.476
  390TIP3    H2 1135   6.853   2.690   3.363
  391TIP3   OH2 1136   6.664   6.472   3.521
  391TIP3    H1 1137   6.640   6.400   3.579
  391TIP3    H2 1138   6.751   6.498   3.549
  392TIP3   OH2 1139   1.746   6.056   3.551
  392TIP3    H1 1140   1.762   5.984   3.612
  392TIP3    H2 1141   1.834   6.090   3.532
  393TIP3   OH2 1142   3.481   4.518   4.135
  393TIP3    H1 1143   3.422   4.566   4.079
  393TIP3    H2 1144   3.425   4.455   4.181
  394TIP3   OH2 1145   6.691   4.441   5.234
  394TIP3    H1 1146   6.755   4.471   5.169
  394TIP3    H2 1147   6.724   4.475   5.318
  395TIP3   OH2 1148   0.212   0.565   0.848
  395TIP3    H1 1149   0.307   0.575   0.841
  395TIP3    H2 1150   0.196   0.473   0.831
  396TIP3   OH2 1151   2.756   5.735   4.283
  396TIP3    H1 1152   2.747   5.744   4.188
  396TIP3    H2 1153   2.730   5.645   4.301
  397TIP3   OH2 1154   6.404   6.635   3.948
  397TIP3    H1 1155   6.366   6.559   3.992
  397TIP3    H2 1156   6.440   6.688   4.019
  398TIP3   OH2 1157   3.258   1.102   4.704
  398TIP3    H1 1158   3.330   1.040   4.694
  398TIP3    H2 1159   3.299   1.188   4.697
  399TIP3   OH2 1160   4.683   5.558   2.258
  399TIP3    H1 1161   4.596   5.518   2.267
  399TIP3    H2 1162   4.677   5.640   2.307
  400TIP3   OH2 1163   3.414   6.180   2.094
  400TIP3    H1 1164   3.396   6.143   2.181
  400TIP3    H2 1165   3.337   6.155   2.042
  401TIP3   OH2 1166   1.879   1.426   3.515
  401TIP3    H1 1167   1.891   1.487   3.588
  401TIP3    H2 1168   1.821   1.358   3.551
  402TIP3   OH2 1169   0.914   0.729   1.604
  402TIP3    H1 1170   0.929   0.824   1.609
  402TIP3    H2 1171   0.893   0.703   1.693
  403TIP3   OH2 1172   1.880   6.212   5.026
  403TIP3    H1 1173   1.875   6.291   5.080
  403TIP3    H2 1174   1.852   6.240   4.939
  404TIP3   OH2 1175   7.103   2.558   1.864
  404TIP3    H1 1176   7.131   2.556   1.772
  404TIP3    H2 1177   7.053   2.477   1.876
  405TIP3   OH2 1178   5.013   3.836   0.278
  405TIP3    H1 1179   5.103   3.823   0.248
  405TIP3    H2 1180   5.020   3.905   0.344
  406TIP3   OH2 1181   6.371   0.472   0.284
  406TIP3    H1 1182   6.285   0.513   0.274
  406TIP3    H2 1183   6.432   0.537   0.249
  407TIP3   OH2 1184   2.016   6.758   3.457
  407TIP3    H1 1185   2.087   6.791   3.513
  407TIP3    H2 1186   2.013   6.664   3.475
  408TIP3   OH2 1187   4.471   2.806   4.108
  408TIP3    H1 1188   4.428   2.868   4.167
  408TIP3    H2 1189   4.458   2.843   4.021
  409TIP3   OH2 1190   0.179   2.701   5.779
  409TIP3    H1 1191   0.193   2.665   5.692
  409TIP3    H2 1192   0.133   2.784   5.764
  410TIP3   OH2 1193   3.286   6.447   5.200
  410TIP3    H1 1194   3.284   6.352   5.196
  410TIP3    H2 1195   3.194   6.473   5.198
  411TIP3   OH2 1196   1.395   6.423   0.929
  411TIP3    H1 1197   1.385   6.518   0.935
  411TIP3    H2 1198   1.369   6.390   1.015
  412TIP3   OH2 1199   4.990   2.643   5.327
  412TIP3    H1 1200   4.906   2.687   5.344
  412TIP3    H2 1201   5.012   2.668   5.238
  413TIP3   OH2 1202   5.840   2.437   3.919
  413TIP3    H1 1203   5.919   2.415   3.970
  413TIP3    H2 1204   5.819   2.527   3.945
  414TIP3   OH2 1205   4.347   2.731   2.028
  414TIP3    H1 1206   4.348   2.807   2.086
  414TIP3    H2 1207   4.439   2.719   2.003
  415TIP3   OH2 1208   3.954   0.214   2.545
  415TIP3    H1 1209   4.002   0.132   2.556
  415TIP3    H2 1210   4.017   0.272   2.501
  416TIP3   OH2 1211   6.478   2.460   2.101
  416TIP3    H1 1212   6.548   2.465   2.167
  416TIP3    H2 1213   6.486   2.372   2.064
  417TIP3   OH2 1214   1.334   4.234   1.161
  417TIP3    H1 1215   1.388   4.237   1.082
  417TIP3    H2 1216   1.338   4.143   1.189
  418TIP3   OH2 1217   3.483   0.222   5.001
  418TIP3    H1 1218   3.465   0.309   4.968
  418TIP3    H2 1219   3.403   0.195   5.045
  419TIP3   OH2 1220   6.183   6.416   2.516
  419TIP3    H1 1221   6.257   6.445   2.570
  419TIP3    H2 1222   6.198   6.458   2.432
  420TIP3   OH2 1223   4.667   3.210   5.000
  420TIP3    H1 1224   4.689   3.210   4.907
  420TIP3    H2 1225   4.730   3.149   5.039
  421TIP3   OH2 1226   0.077   1.567   2.923
  421TIP3    H1 1227   0.066   1.658   2.953
  421TIP3    H2 1228  -0.007   1.526   2.944
  422TIP3   OH2 1229   0.979   0.196   3.292
  422TIP3    H1 1230   0.919   0.269   3.278
  422TIP3    H2 1231   0.960   0.137   3.219
  423TIP3   OH2 1232   5.226   2.910   0.730
  423TIP3    H1 1233   5.274   2.879   0.807
  423TIP3    H2 1234   5.141   2.936   0.763
  424TIP3   OH2 1235   0.344   1.123   0.156
  424TIP3    H1 1236   0.341   1.207   0.201
  424TIP3    H2 1237   0.361   1.145   0.064
  425TIP3   OH2 1238   4.331   6.349   5.548
  425TIP3    H1 1239   4.356   6.372   5.459
  425TIP3    H2 1240   4.341   6.429   5.598
  426TIP3   OH2 1241   5.853   0.900   3.741
  426TIP3    H1 1242   5.776   0.875   3.792
  426TIP3    H2 1243   5.835   0.867   3.653
  427TIP3   OH2 1244   6.380   4.060   4.029
  427TIP3    H1 1245   6.398   4.154   4.021
  427TIP3    H2 1246   6.341   4.035   3.945
  428TIP3   OH2 1247   5.847   0.646   2.155
  428TIP3    H1 1248   5.771   0.590   2.164
  428TIP3    H2 1249   5.870   0.671   2.244
  429TIP3   OH2 1250   3.738   5.949   3.191
  429TIP3    H1 1251   3.666   6.000   3.229
  429TIP3    H2 1252   3.711   5.931   3.101
  430TIP3   OH2 1253   5.681   2.381   2.384
  430TIP3    H1 1254   5.687   2.289   2.361
  430TIP3    H2 1255   5.619   2.418   2.320
  431TIP3   OH2 1256   2.411   3.298   1.044
  431TIP3    H1 1257   2.341   3.283   1.108
  431TIP3    H2 1258   2.434   3.210   1.014
  432TIP3   OH2 1259   6.908   0.280   2.425
  432TIP3    H1 1260   6.891   0.214   2.357
  432TIP3    H2 1261   6.843   0.262   2.493
  433TIP3   OH2 1262   0.417   5.033   4.213
  433TIP3    H1 1263   0.385   5.077   4.292
  433TIP3    H2 1264   0.436   5.105   4.152
  434TIP3   OH2 1265   0.612   4.728   4.526
  434TIP3    H1 1266   0.683   4.705   4.466
  434TIP3    H2 1267   0.655   4.740   4.611
  435TIP3   OH2 1268   1.107   6.560   5.661
  435TIP3    H1 1269   1.017   6.567   5.631
  435TIP3    H2 1270   1.159   6.596   5.588
  436TIP3   OH2 1271   5.691   1.285   5.060
  436TIP3    H1 1272   5.643   1.367   5.051
  436TIP3    H2 1273   5.737   1.276   4.976
  437TIP3   OH2 1274   2.593   1.110   4.678
  437TIP3    H1 1275   2.653   1.128   4.605
  437TIP3    H2 1276   2.634   1.038   4.726
  438TIP3   OH2 1277   4.288   4.197   5.776
  438TIP3    H1 1278   4.362   4.207   5.716
  438TIP3    H2 1279   4.220   4.256   5.741
  439TIP3   OH2 1280   7.166   4.564   3.995
  439TIP3    H1 1281   7.137   4.611   4.073
  439TIP3    H2 1282   7.261   4.557   4.006
  440TIP3   OH2 1283   3.921   6.306   4.842
  440TIP3    H1 1284   3.925   6.357   4.923
  440TIP3    H2 1285   3.902   6.216   4.871
  441TIP3   OH2 1286   3.032   3.591   4.273
  441TIP3    H1 1287   3.098   3.527   4.245
  441TIP3    H2 1288   3.045   3.600   4.367
  442TIP3   OH2 1289   3.812   4.541   4.408
  442TIP3    H1 1290   3.773   4.620   4.445
  442TIP3    H2 1291   3.903   4.566   4.391
  443TIP3   OH2 1292   4.713   4.936   4.873
  443TIP3    H1 1293   4.628   4.928   4.829
  443TIP3    H2 1294   4.761   4.857   4.849
  444TIP3   OH2 1295   3.708   5.837   2.384
  444TIP3    H1 1296   3.648   5.866   2.315
  444TIP3    H2 1297   3.721   5.915   2.438
  445TIP3   OH2 1298   0.385   2.727   3.284
  445TIP3    H1 1299   0.309   2.715   3.341
  445TIP3    H2 1300   0.392   2.821   3.272
  446TIP3   OH2 1301   3.334   2.020   5.210
  446TIP3    H1 1302   3.336   2.069   5.128
  446TIP3    H2 1303   3.275   2.070   5.267
  447TIP3   OH2 1304   5.084   0.951   2.234
  447TIP3    H1 1305   5.089   0.979   2.325
  447TIP3    H2 1306   5.160   0.895   2.222
  448TIP3   OH2 1307   4.609   1.863   4.694
  448TIP3    H1 1308   4.543   1.794   4.700
  448TIP3    H2 1309   4.596   1.916   4.773
  449TIP3   OH2 1310   2.222   2.775   5.889
  449TIP3    H1 1311   2.244   2.790   5.797
  449TIP3    H2 1312   2.196   2.683   5.893
  450TIP3   OH2 1313   6.900   4.786   4.781
  450TIP3    H1 1314   6.881   4.875   4.751
  450TIP3    H2 1315   6.855   4.730   4.718
  451TIP3   OH2 1316   3.829   3.840   4.681
  451TIP3    H1 1317   3.870   3.918   4.719
  451TIP3    H2 1318   3.874   3.827   4.598
  452TIP3   OH2 1319   6.161   1.460   0.677
  452TIP3    H1 1320   6.069   1.436   0.682
  452TIP3    H2 1321   6.190   1.428   0.592
  453TIP3   OH2 1322   2.424   2.174   4.630
  453TIP3    H1 1323   2.397   2.104   4.570
  453TIP3    H2 1324   2.350   2.185   4.689
  454TIP3   OH2 1325   0.782   2.427   0.885
  454TIP3    H1 1326   0.839   2.374   0.940
  454TIP3    H2 1327   0.776   2.378   0.803
  455TIP3   OH2 1328   0.038   5.254   0.473
  455TIP3    H1 1329  -0.013   5.303   0.539
  455TIP3    H2 1330   0.124   5.295   0.474
  456TIP3   OH2 1331   6.437   1.437   3.516
  456TIP3    H1 1332   6.399   1.350   3.522
  456TIP3    H2 1333   6.531   1.422   3.506
  457TIP3   OH2 1334   6.873   1.419   5.044
  457TIP3    H1 1335   6.797   1.368   5.072
  457TIP3    H2 1336   6.917   1.364   4.979
  458TIP3   OH2 1337   5.888   3.762   0.537
  458TIP3    H1 1338   5.852   3.721   0.616
  458TIP3    H2 1339   5.949   3.696   0.502
  459TIP3   OH2 1340   5.561   1.699   4.889
  459TIP3    H1 1341   5.651   1.678   4.866
  459TIP3    H2 1342   5.538   1.636   4.958
  460TIP3   OH2 1343   4.252   6.030   0.373
  460TIP3    H1 1344   4.157   6.043   0.382
  460TIP3    H2 1345   4.286   6.039   0.461
  461TIP3   OH2 1346   1.549   6.405   1.638
  461TIP3    H1 1347   1.620   6.452   1.680
  461TIP3    H2 1348   1.566   6.312   1.656
  462TIP3   OH2 1349   0.287   5.909   4.983
  462TIP3    H1 1350   0.298   5.817   4.958
  462TIP3    H2 1351   0.250   5.906   5.071
  463TIP3   OH2 1352   0.320   1.203   1.812
  463TIP3    H1 1353   0.309   1.178   1.904
  463TIP3    H2 1354   0.401   1.159   1.785
  464TIP3   OH2 1355   1.210   1.376   4.779
  464TIP3    H1 1356   1.290   1.374   4.725
  464TIP3    H2 1357   1.171   1.461   4.760
  465TIP3   OH2 1358   0.435  -0.006   4.596
  465TIP3    H1 1359   0.370   0.054   4.562
  465TIP3    H2 1360   0.468  -0.051   4.518
  466TIP3   OH2 1361   0.381   2.113   0.804
  466TIP3    H1 1362   0.327   2.124   0.882
  466TIP3    H2 1363   0.372   2.020   0.782
  467TIP3   OH2 1364   5.528   2.445   2.173
  467TIP3    H1 1365   5.456   2.504   2.150
  467TIP3    H2 1366   5.561   2.413   2.089
  468TIP3   OH2 1367   6.055   5.627   3.529
  468TIP3    H1 1368   6.096   5.685   3.593
  468TIP3    H2 1369   5.981   5.678   3.495
  469TIP3   OH2 1370   6.946   4.207   0.060
  469TIP3    H1 1371   6.879   4.218   0.128
  469TIP3    H2 1372   6.963   4.295   0.028
  470TIP3   OH2 1373   3.616   3.050   3.701
  470TIP3    H1 1374   3.646   3.025   3.789
  470TIP3    H2 1375   3.580   3.138   3.712
  471TIP3   OH2 1376   3.719   2.561   1.001
  471TIP3    H1 1377   3.663   2.581   1.076
  471TIP3    H2 1378   3.663   2.572   0.925
  472TIP3   OH2 1379   2.174   3.722   4.810
  472TIP3    H1 1380   2.188   3.815   4.792
  472TIP3    H2 1381   2.254   3.679   4.779
  473TIP3   OH2 1382   4.662   1.858   0.813
  473TIP3    H1 1383   4.641   1.942   0.853
  473TIP3    H2 1384   4.715   1.880   0.737
  474TIP3   OH2 1385   6.168   3.984   4.201
  474TIP3    H1 1386   6.237   4.036   4.160
  474TIP3    H2 1387   6.088   4.036   4.188
  475TIP3   OH2 1388   5.166   5.164   5.673
  475TIP3    H1 1389   5.154   5.069   5.674
  475TIP3    H2 1390   5.079   5.200   5.688
  476TIP3   OH2 1391   2.367   6.559   2.461
  476TIP3    H1 1392   2.356   6.606   2.544
  476TIP3    H2 1393   2.277   6.544   2.431
  477TIP3   OH2 1394   5.701   2.494   4.736
  477TIP3    H1 1395   5.665   2.431   4.798
  477TIP3    H2 1396   5.650   2.574   4.750
  478TIP3   OH2 1397   0.569   5.615   3.254
  478TIP3    H1 1398   0.536   5.634   3.342
  478TIP3    H2 1399   0.661   5.642   3.257
  479TIP3   OH2 1400   3.933   6.691   5.188
  479TIP3    H1 1401   3.938   6.740   5.270
  479TIP3    H2 1402   3.923   6.757   5.120
  480TIP3   OH2 1403   0.713   4.998   1.652
  480TIP3    H1 1404   0.619   5.001   1.630
  480TIP3    H2 1405   0.757   5.012   1.568
  481TIP3   OH2 1406   5.136   0.315   1.343
  481TIP3    H1 1407   5.107   0.256   1.412
  481TIP3    H2 1408   5.173   0.258   1.275
  482TIP3   OH2 1409   5.792   2.907   3.232
  482TIP3    H1 1410   5.799   2.838   3.299
  482TIP3    H2 1411   5.838   2.982   3.270
  483TIP3   OH2 1412   6.926   4.384   2.236
  483TIP3    H1 1413   6.958   4.472   2.257
  483TIP3    H2 1414   7.005   4.330   2.235
  484TIP3   OH2 1415   6.160   2.011   3.547
  484TIP3    H1 1416   6.143   2.095   3.505
  484TIP3    H2 1417   6.187   2.032   3.636
  485TIP3   OH2 1418   5.564   4.948   1.661
  485TIP3    H1 1419   5.603   5.018   1.712
  485TIP3    H2 1420   5.490   4.989   1.617
  486TIP3   OH2 1421   7.097   4.465   4.797
  486TIP3    H1 1422   7.095   4.457   4.702
  486TIP3    H2 1423   7.010   4.497   4.821
  487TIP3   OH2 1424   3.979   5.748   4.465
  487TIP3    H1 1425   4.021   5.681   4.519
  487TIP3    H2 1426   4.051   5.805   4.438
  488TIP3   OH2 1427   1.162   2.656   5.268
  488TIP3    H1 1428   1.146   2.750   5.271
  488TIP3    H2 1429   1.118   2.621   5.346
  489TIP3   OH2 1430   6.153   1.607   3.193
  489TIP3    H1 1431   6.174   1.604   3.287
  489TIP3    H2 1432   6.230   1.648   3.153
  490TIP3   OH2 1433   1.801   6.664   1.173
  490TIP3    H1 1434   1.775   6.756   1.185
  490TIP3    H2 1435   1.775   6.644   1.082
  491TIP3   OH2 1436   4.270   0.700   1.379
  491TIP3    H1 1437   4.263   0.659   1.465
  491TIP3    H2 1438   4.361   0.731   1.374
  492TIP3   OH2 1439   0.128   4.709   5.830
  492TIP3    H1 1440   0.069   4.781   5.809
  492TIP3    H2 1441   0.158   4.677   5.745
  493TIP3   OH2 1442   6.476   5.950   0.675
  493TIP3    H1 1443   6.496   5.869   0.722
  493TIP3    H2 1444   6.460   6.014   0.744
  494TIP3   OH2 1445   5.886   5.941   3.972
  494TIP3    H1 1446   5.889   6.017   4.030
  494TIP3    H2 1447   5.801   5.947   3.930
  495TIP3   OH2 1448   2.132   3.545   1.573
  495TIP3    H1 1449   2.072   3.614   1.602
  495TIP3    H2 1450   2.085   3.502   1.501
  496TIP3   OH2 1451   2.844   5.467   5.520
  496TIP3    H1 1452   2.799   5.546   5.550
  496TIP3    H2 1453   2.876   5.425   5.600
  497TIP3   OH2 1454   0.852   5.476   1.468
  497TIP3    H1 1455   0.791   5.480   1.395
  497TIP3    H2 1456   0.927   5.529   1.440
  498TIP3   OH2 1457   0.336   3.433   2.156
  498TIP3    H1 1458   0.265   3.408   2.215
  498TIP3    H2 1459   0.359   3.352   2.111
  499TIP3   OH2 1460   0.248   4.453   3.177
  499TIP3    H1 1461   0.313   4.505   3.129
  499TIP3    H2 1462   0.189   4.518   3.216
  500TIP3   OH2 1463   2.090   0.388   2.340
  500TIP3    H1 1464   2.091   0.373   2.245
  500TIP3    H2 1465   2.150   0.462   2.353
  501TIP3   OH2 1466   2.472   0.484   1.711
  501TIP3    H1 1467   2.382   0.502   1.682
  501TIP3    H2 1468   2.462   0.446   1.798
  502TIP3   OH2 1469   0.551   4.269   2.927
  502TIP3    H1 1470   0.619   4.332   2.952
  502TIP3    H2 1471   0.570   4.192   2.980
  503TIP3   OH2 1472   2.892   0.337   2.291
  503TIP3    H1 1473   2.845   0.357   2.210
  503TIP3    H2 1474   2.969   0.288   2.264
  504TIP3   OH2 1475   5.637   2.017   3.677
  504TIP3    H1 1476   5.661   2.097   3.630
  504TIP3    H2 1477   5.545   2.028   3.698
  505TIP3   OH2 1478   3.664   2.863   1.047
  505TIP3    H1 1479   3.602   2.790   1.054
  505TIP3    H2 1480   3.680   2.889   1.137
  506TIP3   OH2 1481   0.935   0.688   4.948
  506TIP3    H1 1482   1.004   0.640   4.904
  506TIP3    H2 1483   0.979   0.739   5.016
  507TIP3   OH2 1484   4.479   1.766   2.726
  507TIP3    H1 1485   4.403   1.730   2.772
  507TIP3    H2 1486   4.517   1.829   2.787
  508TIP3   OH2 1487   2.048   1.623   4.858
  508TIP3    H1 1488   2.117   1.565   4.890
  508TIP3    H2 1489   2.093   1.704   4.832
  509TIP3   OH2 1490   7.079   2.566   4.411
  509TIP3    H1 1491   7.128   2.544   4.491
  509TIP3    H2 1492   7.121   2.514   4.342
  510TIP3   OH2 1493   3.062   2.700   4.458
  510TIP3    H1 1494   3.129   2.748   4.409
  510TIP3    H2 1495   3.053   2.617   4.411
  511TIP3   OH2 1496   1.603   4.118   2.972
  511TIP3    H1 1497   1.588   4.033   3.013
  511TIP3    H2 1498   1.697   4.134   2.982
  512TIP3   OH2 1499   2.100   4.390   4.448
  512TIP3    H1 1500   2.108   4.294   4.455
  512TIP3    H2 1501   2.163   4.424   4.511
  513TIP3   OH2 1502   6.776   5.045   4.357
  513TIP3    H1 1503   6.750   5.071   4.445
  513TIP3    H2 1504   6.716   4.974   4.334
  514TIP3   OH2 1505   4.330   2.617   0.371
  514TIP3    H1 1506   4.272   2.629   0.296
  514TIP3    H2 1507   4.288   2.667   0.442
  515TIP3   OH2 1508   4.452   3.934   5.739
  515TIP3    H1 1509   4.532   3.953   5.787
  515TIP3    H2 1510   4.481   3.919   5.649
  516TIP3   OH2 1511   4.291   6.417   1.163
  516TIP3    H1 1512   4.247   6.441   1.245
  516TIP3    H2 1513   4.304   6.501   1.118
  517TIP3   OH2 1514   6.629   5.281   1.153
  517TIP3    H1 1515   6.595   5.257   1.067
  517TIP3    H2 1516   6.647   5.375   1.146
  518TIP3   OH2 1517   6.748   6.817   2.661
  518TIP3    H1 1518   6.805   6.741   2.672
  518TIP3    H2 1519   6.800   6.878   2.610
  519TIP3   OH2 1520   6.738   0.149   4.589
  519TIP3    H1 1521   6.696   0.129   4.506
  519TIP3    H2 1522   6.736   0.066   4.637
  520TIP3   OH2 1523   1.208   0.363   2.524
  520TIP3    H1 1524   1.282   0.348   2.465
  520TIP3    H2 1525   1.248   0.397   2.604
  521TIP3   OH2 1526   0.283   2.180   2.366
  521TIP3    H1 1527   0.230   2.248   2.409
  521TIP3    H2 1528   0.373   2.206   2.383
  522TIP3   OH2 1529   6.239   1.771   3.798
  522TIP3    H1 1530   6.176   1.768   3.726
  522TIP3    H2 1531   6.324   1.780   3.755
  523TIP3   OH2 1532   1.065   6.184   0.248
  523TIP3    H1 1533   1.078   6.266   0.201
  523TIP3    H2 1534   1.103   6.118   0.191
  524TIP3   OH2 1535   1.647   3.855   0.083
  524TIP3    H1 1536   1.632   3.944   0.053
  524TIP3    H2 1537   1.725   3.860   0.137
  525TIP3   OH2 1538   1.053   3.068   2.652
  525TIP3    H1 1539   1.022   3.040   2.566
  525TIP3    H2 1540   1.010   3.152   2.666
  526TIP3   OH2 1541   4.849   0.210   0.574
  526TIP3    H1 1542   4.786   0.141   0.596
  526TIP3    H2 1543   4.796   0.289   0.563
  527TIP3   OH2 1544   1.875   3.792   0.983
  527TIP3    H1 1545   1.968   3.793   0.960
  527TIP3    H2 1546   1.833   3.846   0.916
  528TIP3   OH2 1547   0.883   1.597   1.607
  528TIP3    H1 1548   0.922   1.656   1.542
  528TIP3    H2 1549   0.789   1.612   1.599
  529TIP3   OH2 1550   3.202   5.875   4.509
  529TIP3    H1 1551   3.202   5.885   4.604
  529TIP3    H2 1552   3.161   5.790   4.493
  530TIP3   OH2 1553   3.114   4.924   1.350
  530TIP3    H1 1554   3.110   4.921   1.445
  530TIP3    H2 1555   3.121   4.832   1.323
  531TIP3   OH2 1556   0.658   0.724   4.643
  531TIP3    H1 1557   0.603   0.698   4.717
  531TIP3    H2 1558   0.637   0.816   4.628
  532TIP3   OH2 1559   5.008   3.645   4.261
  532TIP3    H1 1560   4.963   3.640   4.177
  532TIP3    H2 1561   5.023   3.553   4.285
  533TIP3   OH2 1562   3.714   0.813   5.150
  533TIP3    H1 1563   3.682   0.724   5.139
  533TIP3    H2 1564   3.723   0.824   5.244
  534TIP3   OH2 1565   3.157   6.484   2.737
  534TIP3    H1 1566   3.219   6.416   2.711
  534TIP3    H2 1567   3.188   6.513   2.823
  535TIP3   OH2 1568   1.728   2.082   3.264
  535TIP3    H1 1569   1.803   2.110   3.317
  535TIP3    H2 1570   1.697   2.002   3.306
  536TIP3   OH2 1571   6.583   0.851   1.023
  536TIP3    H1 1572   6.673   0.867   1.051
  536TIP3    H2 1573   6.582   0.759   0.997
  537TIP3   OH2 1574   4.867   0.662   4.838
  537TIP3    H1 1575   4.798   0.692   4.778
  537TIP3    H2 1576   4.820   0.633   4.916
  538TIP3   OH2 1577   3.125   4.405   5.704
  538TIP3    H1 1578   3.048   4.351   5.684
  538TIP3    H2 1579   3.161   4.366   5.784
  539TIP3   OH2 1580   3.708   4.167   4.083
  539TIP3    H1 1581   3.690   4.260   4.097
  539TIP3    H2 1582   3.801   4.158   4.102
  540TIP3   OH2 1583   2.513   4.963   3.541
  540TIP3    H1 1584   2.433   4.914   3.522
  540TIP3    H2 1585   2.577   4.930   3.478
  541TIP3   OH2 1586   5.087   1.442   4.557
  541TIP3    H1 1587   5.005   1.481   4.588
  541TIP3    H2 1588   5.064   1.354   4.529
  542TIP3   OH2 1589   6.085   5.858   1.292
  542TIP3    H1 1590   6.043   5.925   1.345
  542TIP3    H2 1591   6.104   5.787   1.354
  543TIP3   OH2 1592   1.393   2.060   0.308
  543TIP3    H1 1593   1.457   2.128   0.286
  543TIP3    H2 1594   1.369   2.078   0.399
  544TIP3   OH2 1595   2.406   3.092   4.795
  544TIP3    H1 1596   2.318   3.064   4.820
  544TIP3    H2 1597   2.453   3.102   4.879
  545TIP3   OH2 1598   2.423   3.659   1.351
  545TIP3    H1 1599   2.330   3.658   1.329
  545TIP3    H2 1600   2.440   3.573   1.389
  546TIP3   OH2 1601   1.339   6.724   0.840
  546TIP3    H1 1602   1.263   6.669   0.858
  546TIP3    H2 1603   1.325   6.802   0.895
  547TIP3   OH2 1604   1.208   5.568   0.344
  547TIP3    H1 1605   1.205   5.581   0.438
  547TIP3    H2 1606   1.121   5.593   0.313
  548TIP3   OH2 1607   4.676   2.404   5.768
  548TIP3    H1 1608   4.685   2.498   5.751
  548TIP3    H2 1609   4.586   2.384   5.745
  549TIP3   OH2 1610   4.540   5.594   5.458
  549TIP3    H1 1611   4.454   5.553   5.465
  549TIP3    H2 1612   4.539   5.638   5.373
  550TIP3   OH2 1613   0.923   3.622   3.040
  550TIP3    H1 1614   0.931   3.647   2.948
  550TIP3    H2 1615   0.829   3.626   3.059
  551TIP3   OH2 1616   6.791   6.065   1.044
  551TIP3    H1 1617   6.743   6.116   0.978
  551TIP3    H2 1618   6.727   6.050   1.114
  552TIP3   OH2 1619   0.546   3.574   2.651
  552TIP3    H1 1620   0.530   3.498   2.595
  552TIP3    H2 1621   0.513   3.648   2.601
  553TIP3   OH2 1622   5.898   5.038   1.995
  553TIP3    H1 1623   5.895   4.951   1.955
  553TIP3    H2 1624   5.978   5.038   2.048
  554TIP3   OH2 1625   0.217   3.046   0.799
  554TIP3    H1 1626   0.213   2.966   0.851
  554TIP3    H2 1627   0.297   3.090   0.829
  555TIP3   OH2 1628   5.741   1.784   3.034
  555TIP3    H1 1629   5.808   1.768   3.100
  555TIP3    H2 1630   5.725   1.879   3.039
  556TIP3   OH2 1631   6.679   6.767   3.138
  556TIP3    H1 1632   6.751   6.768   3.201
  556TIP3    H2 1633   6.706   6.828   3.070
  557TIP3   OH2 1634   5.900   0.760   4.838
  557TIP3    H1 1635   5.940   0.729   4.756
  557TIP3    H2 1636   5.948   0.714   4.907
  558TIP3   OH2 1637   1.035   2.129   4.402
  558TIP3    H1 1638   0.994   2.156   4.320
  558TIP3    H2 1639   1.117   2.179   4.406
  559TIP3   OH2 1640   2.324   4.588   5.798
  559TIP3    H1 1641   2.323   4.600   5.703
  559TIP3    H2 1642   2.405   4.539   5.815
  560TIP3   OH2 1643   4.165   1.164   5.412
  560TIP3    H1 1644   4.165   1.257   5.390
  560TIP3    H2 1645   4.102   1.156   5.483
  561TIP3   OH2 1646   2.847   3.985   3.045
  561TIP3    H1 1647   2.877   3.894   3.040
  561TIP3    H2 1648   2.905   4.025   3.109
  562TIP3   OH2 1649   2.787   6.597   0.811
  562TIP3    H1 1650   2.798   6.534   0.881
  562TIP3    H2 1651   2.712   6.651   0.838
  563TIP3   OH2 1652   1.784   4.616   1.197
  563TIP3    H1 1653   1.781   4.564   1.277
  563TIP3    H2 1654   1.764   4.555   1.127
  564TIP3   OH2 1655   1.761   4.199   4.674
  564TIP3    H1 1656   1.807   4.144   4.738
  564TIP3    H2 1657   1.781   4.289   4.702
  565TIP3   OH2 1658   1.523   5.952   5.051
  565TIP3    H1 1659   1.521   6.008   4.973
  565TIP3    H2 1660   1.506   5.864   5.017
  566TIP3   OH2 1661   5.013   1.291   3.284
  566TIP3    H1 1662   5.062   1.283   3.365
  566TIP3    H2 1663   5.079   1.314   3.218
  567TIP3   OH2 1664   2.950   3.196   3.707
  567TIP3    H1 1665   2.867   3.236   3.732
  567TIP3    H2 1666   2.947   3.109   3.745
  568TIP3   OH2 1667   5.622   6.422   5.817
  568TIP3    H1 1668   5.715   6.428   5.840
  568TIP3    H2 1669   5.605   6.328   5.811
  569TIP3   OH2 1670   3.278   4.171   0.695
  569TIP3    H1 1671   3.328   4.233   0.642
  569TIP3    H2 1672   3.219   4.129   0.632
  570TIP3   OH2 1673   2.104   0.838   3.060
  570TIP3    H1 1674   2.064   0.908   3.113
  570TIP3    H2 1675   2.168   0.884   3.005
  571TIP3   OH2 1676   1.171   0.044   5.588
  571TIP3    H1 1677   1.209  -0.041   5.568
  571TIP3    H2 1678   1.153   0.041   5.682
  572TIP3   OH2 1679   2.557   3.781   2.839
  572TIP3    H1 1680   2.575   3.687   2.840
  572TIP3    H2 1681   2.548   3.805   2.931
  573TIP3   OH2 1682   1.294   0.022   2.329
  573TIP3    H1 1683   1.222  -0.006   2.385
  573TIP3    H2 1684   1.251   0.066   2.256
  574TIP3   OH2 1685   6.929   6.019   4.728
  574TIP3    H1 1686   6.983   5.965   4.670
  574TIP3    H2 1687   6.986   6.038   4.802
  575TIP3   OH2 1688   5.313   1.904   3.454
  575TIP3    H1 1689   5.370   1.975   3.484
  575TIP3    H2 1690   5.254   1.945   3.390
  576TIP3   OH2 1691   4.259   4.085   5.296
  576TIP3    H1 1692   4.311   4.040   5.229
  576TIP3    H2 1693   4.265   4.178   5.271
  577TIP3   OH2 1694   4.831   2.278   2.558
  577TIP3    H1 1695   4.779   2.235   2.625
  577TIP3    H2 1696   4.921   2.269   2.588
  578TIP3   OH2 1697   0.592   4.508   1.197
  578TIP3    H1 1698   0.603   4.509   1.102
  578TIP3    H2 1699   0.680   4.491   1.231
  579TIP3   OH2 1700   5.353   5.843   5.518
  579TIP3    H1 1701   5.355   5.835   5.423
  579TIP3    H2 1702   5.277   5.898   5.536
  580TIP3   OH2 1703   3.428   0.656   3.396
  580TIP3    H1 1704   3.380   0.592   3.343
  580TIP3    H2 1705   3.360   0.703   3.444
  581TIP3   OH2 1706   1.290   4.403   3.743
  581TIP3    H1 1707   1.356   4.335   3.751
  581TIP3    H2 1708   1.241   4.379   3.664
  582TIP3   OH2 1709   0.323   5.938   2.656
  582TIP3    H1 1710   0.356   5.859   2.612
  582TIP3    H2 1711   0.394   5.963   2.716
  583TIP3   OH2 1712   0.157   6.380   5.534
  583TIP3    H1 1713   0.217   6.434   5.585
  583TIP3    H2 1714   0.188   6.290   5.547
  584TIP3   OH2 1715   1.742   4.216   2.347
  584TIP3    H1 1716   1.660   4.186   2.386
  584TIP3    H2 1717   1.720   4.300   2.307
  585TIP3   OH2 1718   5.417   2.187   2.613
  585TIP3    H1 1719   5.488   2.128   2.589
  585TIP3    H2 1720   5.409   2.246   2.538
  586TIP3   OH2 1721   1.188   3.964   5.506
  586TIP3    H1 1722   1.172   4.029   5.437
  586TIP3    H2 1723   1.132   3.890   5.482
  587TIP3   OH2 1724   6.267   3.983   2.982
  587TIP3    H1 1725   6.190   3.937   2.948
  587TIP3    H2 1726   6.309   3.919   3.040
  588TIP3   OH2 1727   7.105   6.610   5.962
  588TIP3    H1 1728   7.093   6.646   5.874
  588TIP3    H2 1729   7.124   6.518   5.948
  589TIP3   OH2 1730   1.387   3.740   4.190
  589TIP3    H1 1731   1.363   3.772   4.277
  589TIP3    H2 1732   1.483   3.733   4.192
  590TIP3   OH2 1733   6.575   5.198   5.116
  590TIP3    H1 1734   6.609   5.132   5.055
  590TIP3    H2 1735   6.645   5.209   5.180
  591TIP3   OH2 1736   5.618   3.659   3.569
  591TIP3    H1 1737   5.652   3.749   3.569
  591TIP3    H2 1738   5.653   3.621   3.488
  592TIP3   OH2 1739   1.469   0.766   1.842
  592TIP3    H1 1740   1.379   0.797   1.832
  592TIP3    H2 1741   1.469   0.679   1.802
  593TIP3   OH2 1742   5.827   0.717   0.485
  593TIP3    H1 1743   5.748   0.669   0.461
  593TIP3    H2 1744   5.868   0.738   0.401
  594TIP3   OH2 1745   6.485   1.130   1.650
  594TIP3    H1 1746   6.513   1.097   1.736
  594TIP3    H2 1747   6.466   1.223   1.666
  595TIP3   OH2 1748   1.189   3.170   0.084
  595TIP3    H1 1749   1.196   3.115   0.006
  595TIP3    H2 1750   1.264   3.230   0.077
  596TIP3   OH2 1751   2.099   3.052   3.407
  596TIP3    H1 1752   2.006   3.034   3.389
  596TIP3    H2 1753   2.111   3.143   3.380
  597TIP3   OH2 1754   4.669   4.740   1.269
  597TIP3    H1 1755   4.696   4.687   1.345
  597TIP3    H2 1756   4.743   4.735   1.209
  598TIP3   OH2 1757   7.128   5.928   2.050
  598TIP3    H1 1758   7.132   6.022   2.064
  598TIP3    H2 1759   7.155   5.890   2.134
  599TIP3   OH2 1760   0.747   2.573   3.866
  599TIP3    H1 1761   0.804   2.526   3.804
  599TIP3    H2 1762   0.787   2.557   3.952
  600TIP3   OH2 1763   3.677   5.154   5.607
  600TIP3    H1 1764   3.764   5.169   5.644
  600TIP3    H2 1765   3.690   5.086   5.541
  601TIP3   OH2 1766   6.241   3.451   5.635
  601TIP3    H1 1767   6.286   3.415   5.559
  601TIP3    H2 1768   6.180   3.383   5.661
  602TIP3   OH2 1769   2.784   4.436   3.015
  602TIP3    H1 1770   2.818   4.495   3.082
  602TIP3    H2 1771   2.725   4.490   2.962
  603TIP3   OH2 1772   4.633   6.705   5.233
  603TIP3    H1 1773   4.728   6.714   5.234
  603TIP3    H2 1774   4.616   6.634   5.171
  604TIP3   OH2 1775   1.607   1.260   1.930
  604TIP3    H1 1776   1.676   1.251   1.996
  604TIP3    H2 1777   1.595   1.171   1.896
  605TIP3   OH2 1778  -0.035   5.312   3.843
  605TIP3    H1 1779   0.015   5.393   3.857
  605TIP3    H2 1780  -0.015   5.287   3.753
  606TIP3   OH2 1781   6.714   4.348   1.699
  606TIP3    H1 1782   6.681   4.340   1.788
  606TIP3    H2 1783   6.699   4.440   1.676
  607TIP3   OH2 1784   2.991   3.813   5.749
  607TIP3    H1 1785   3.053   3.842   5.682
  607TIP3    H2 1786   3.021   3.856   5.829
  608TIP3   OH2 1787   0.953   0.638   5.371
  608TIP3    H1 1788   0.900   0.708   5.333
  608TIP3    H2 1789   1.040   0.675   5.379
  609TIP3   OH2 1790   2.932   2.755   5.265
  609TIP3    H1 1791   2.863   2.716   5.319
  609TIP3    H2 1792   2.919   2.849   5.273
  610TIP3   OH2 1793   4.980   0.048   0.813
  610TIP3    H1 1794   4.899  -0.002   0.824
  610TIP3    H2 1795   4.950   0.136   0.788
  611TIP3   OH2 1796   4.422   3.105   4.960
  611TIP3    H1 1797   4.358   3.121   5.029
  611TIP3    H2 1798   4.506   3.131   4.998
  612TIP3   OH2 1799   6.098   1.946   4.936
  612TIP3    H1 1800   6.140   1.867   4.901
  612TIP3    H2 1801   6.137   2.018   4.886
  613TIP3   OH2 1802   3.182   5.730   2.374
  613TIP3    H1 1803   3.093   5.703   2.395
  613TIP3    H2 1804   3.205   5.680   2.296
  614TIP3   OH2 1805   4.121   1.885   3.805
  614TIP3    H1 1806   4.163   1.925   3.729
  614TIP3    H2 1807   4.171   1.917   3.880
  615TIP3   OH2 1808   2.766   2.527   5.674
  615TIP3    H1 1809   2.818   2.583   5.731
  615TIP3    H2 1810   2.733   2.458   5.732
  616TIP3   OH2 1811   2.097   3.333   4.242
  616TIP3    H1 1812   2.026   3.394   4.222
  616TIP3    H2 1813   2.132   3.363   4.325
  617TIP3   OH2 1814   3.550   5.417   1.546
  617TIP3    H1 1815   3.515   5.464   1.470
  617TIP3    H2 1816   3.639   5.392   1.520
  618TIP3   OH2 1817   2.019   5.618   4.481
  618TIP3    H1 1818   2.069   5.674   4.541
  618TIP3    H2 1819   2.013   5.669   4.400
  619TIP3   OH2 1820   3.519   4.430   3.313
  619TIP3    H1 1821   3.538   4.474   3.397
  619TIP3    H2 1822   3.449   4.482   3.274
  620TIP3   OH2 1823   5.434   3.326   5.041
  620TIP3    H1 1824   5.490   3.352   5.114
  620TIP3    H2 1825   5.345   3.337   5.073
  621TIP3   OH2 1826   1.477   5.466   0.996
  621TIP3    H1 1827   1.534   5.399   1.035
  621TIP3    H2 1828   1.390   5.446   1.030
  622TIP3   OH2 1829   4.362   4.745   5.645
  622TIP3    H1 1830   4.419   4.786   5.580
  622TIP3    H2 1831   4.371   4.651   5.630
  623TIP3   OH2 1832   4.368   0.716   4.231
  623TIP3    H1 1833   4.332   0.785   4.174
  623TIP3    H2 1834   4.423   0.763   4.293
  624TIP3   OH2 1835   2.326   5.470   1.969
  624TIP3    H1 1836   2.380   5.393   1.949
  624TIP3    H2 1837   2.275   5.444   2.046
  625TIP3   OH2 1838   4.807   1.495   4.904
  625TIP3    H1 1839   4.855   1.572   4.935
  625TIP3    H2 1840   4.745   1.475   4.973
  626TIP3   OH2 1841   0.989   4.966   2.247
  626TIP3    H1 1842   1.036   4.912   2.184
  626TIP3    H2 1843   0.985   4.912   2.326
  627TIP3   OH2 1844   1.156   4.098   5.214
  627TIP3    H1 1845   1.133   4.185   5.179
  627TIP3    H2 1846   1.211   4.059   5.146
  628TIP3   OH2 1847   4.824   0.104   5.692
  628TIP3    H1 1848   4.873   0.113   5.611
  628TIP3    H2 1849   4.737   0.138   5.672
  629TIP3   OH2 1850   4.121   3.884   1.270
  629TIP3    H1 1851   4.182   3.953   1.241
  629TIP3    H2 1852   4.088   3.847   1.188
  630TIP3   OH2 1853   4.144   2.759   0.833
  630TIP3    H1 1854   4.112   2.749   0.922
  630TIP3    H2 1855   4.237   2.781   0.843
  631TIP3   OH2 1856   5.915   3.232   2.163
  631TIP3    H1 1857   5.958   3.201   2.083
  631TIP3    H2 1858   5.985   3.235   2.227
  632TIP3   OH2 1859   2.508   2.450   4.781
  632TIP3    H1 1860   2.575   2.424   4.719
  632TIP3    H2 1861   2.508   2.546   4.779
  633TIP3   OH2 1862   4.955   4.300   2.063
  633TIP3    H1 1863   4.988   4.357   1.993
  633TIP3    H2 1864   4.980   4.212   2.036
  634TIP3   OH2 1865   3.436   2.147   5.512
  634TIP3    H1 1866   3.487   2.075   5.473
  634TIP3    H2 1867   3.433   2.126   5.605
  635TIP3   OH2 1868   7.202   2.975   2.143
  635TIP3    H1 1869   7.275   3.004   2.089
  635TIP3    H2 1870   7.182   2.887   2.111
  636TIP3   OH2 1871   6.790   5.273   2.843
  636TIP3    H1 1872   6.784   5.348   2.783
  636TIP3    H2 1873   6.805   5.313   2.929
  637TIP3   OH2 1874   0.886   5.272   3.100
  637TIP3    H1 1875   0.969   5.298   3.142
  637TIP3    H2 1876   0.819   5.303   3.160
  638TIP3   OH2 1877   4.945   4.960   5.131
  638TIP3    H1 1878   4.877   5.028   5.134
  638TIP3    H2 1879   5.015   4.998   5.078
  639TIP3   OH2 1880   3.558   2.564   0.785
  639TIP3    H1 1881   3.504   2.485   0.788
  639TIP3    H2 1882   3.495   2.635   0.771
  640TIP3   OH2 1883   2.713   2.135   2.206
  640TIP3    H1 1884   2.746   2.157   2.293
  640TIP3    H2 1885   2.727   2.214   2.154
  641TIP3   OH2 1886   5.111   1.647   0.922
  641TIP3    H1 1887   5.058   1.702   0.864
  641TIP3    H2 1888   5.105   1.689   1.008
  642TIP3   OH2 1889   6.393   2.297   2.889
  642TIP3    H1 1890   6.308   2.297   2.845
  642TIP3    H2 1891   6.444   2.230   2.843
  643TIP3   OH2 1892   0.181   1.549   0.699
  643TIP3    H1 1893   0.117   1.615   0.725
  643TIP3    H2 1894   0.132   1.467   0.702
  644TIP3   OH2 1895   5.580   1.004   0.639
  644TIP3    H1 1896   5.534   1.081   0.605
  644TIP3    H2 1897   5.544   0.931   0.589
  645TIP3   OH2 1898   1.965   6.043   4.731
  645TIP3    H1 1899   2.048   6.045   4.778
  645TIP3    H2 1900   1.981   6.096   4.653
  646TIP3   OH2 1901   2.516   3.038   0.130
  646TIP3    H1 1902   2.541   2.989   0.051
  646TIP3    H2 1903   2.574   3.114   0.131
  647TIP3   OH2 1904   2.941   5.220   0.514
  647TIP3    H1 1905   3.036   5.229   0.525
  647TIP3    H2 1906   2.913   5.164   0.586
  648TIP3   OH2 1907   1.379   0.359   3.987
  648TIP3    H1 1908   1.380   0.309   4.069
  648TIP3    H2 1909   1.296   0.408   3.990
  649TIP3   OH2 1910   3.454   2.188   3.598
  649TIP3    H1 1911   3.515   2.257   3.575
  649TIP3    H2 1912   3.388   2.188   3.528
  650TIP3   OH2 1913   6.692   0.178   4.896
  650TIP3    H1 1914   6.738   0.163   4.814
  650TIP3    H2 1915   6.753   0.146   4.963
  651TIP3   OH2 1916   5.326   5.681   2.362
  651TIP3    H1 1917   5.420   5.673   2.380
  651TIP3    H2 1918   5.285   5.617   2.420
  652TIP3   OH2 1919   5.432   2.550   4.309
  652TIP3    H1 1920   5.462   2.634   4.344
  652TIP3    H2 1921   5.397   2.503   4.385
  653TIP3   OH2 1922   6.091   4.939   2.206
  653TIP3    H1 1923   6.050   4.974   2.284
  653TIP3    H2 1924   6.036   4.865   2.180
  654TIP3   OH2 1925   0.618   5.022   3.055
  654TIP3    H1 1926   0.545   5.019   3.116
  654TIP3    H2 1927   0.623   5.113   3.027
  655TIP3   OH2 1928   0.537   5.622   0.880
  655TIP3    H1 1929   0.595   5.547   0.885
  655TIP3    H2 1930   0.582   5.683   0.821
  656TIP3   OH2 1931   6.877   2.926   1.246
  656TIP3    H1 1932   6.815   2.853   1.251
  656TIP3    H2 1933   6.905   2.940   1.336
  657TIP3   OH2 1934   2.635   4.650   1.176
  657TIP3    H1 1935   2.606   4.575   1.124
  657TIP3    H2 1936   2.647   4.616   1.264
  658TIP3   OH2 1937   4.164   3.993   2.837
  658TIP3    H1 1938   4.227   3.930   2.873
  658TIP3    H2 1939   4.214   4.042   2.772
  659TIP3   OH2 1940   4.775   0.034   2.083
  659TIP3    H1 1941   4.870   0.024   2.094
  659TIP3    H2 1942   4.743  -0.055   2.070
  660TIP3   OH2 1943   1.560   4.999   4.373
  660TIP3    H1 1944   1.577   5.091   4.393
  660TIP3    H2 1945   1.647   4.960   4.363
  661TIP3   OH2 1946   2.140   4.092   0.907
  661TIP3    H1 1947   2.164   4.050   0.824
  661TIP3    H2 1948   2.149   4.022   0.972
  662TIP3   OH2 1949   5.824   0.064   3.284
  662TIP3    H1 1950   5.828   0.089   3.376
  662TIP3    H2 1951   5.876  -0.016   3.279
  663TIP3   OH2 1952   3.980   0.824   0.387
  663TIP3    H1 1953   3.950   0.792   0.471
  663TIP3    H2 1954   3.911   0.884   0.358
  664TIP3   OH2 1955   5.195   0.192   5.310
  664TIP3    H1 1956   5.270   0.214   5.365
  664TIP3    H2 1957   5.217   0.227   5.224
  665TIP3   OH2 1958   5.757   3.000   2.479
  665TIP3    H1 1959   5.806   2.940   2.423
  665TIP3    H2 1960   5.768   2.963   2.567
  666TIP3   OH2 1961   6.502   3.645   3.925
  666TIP3    H1 1962   6.499   3.722   3.981
  666TIP3    H2 1963   6.409   3.621   3.913
  667TIP3   OH2 1964   1.362   4.195   3.398
  667TIP3    H1 1965   1.400   4.237   3.321
  667TIP3    H2 1966   1.305   4.262   3.436
  668TIP3   OH2 1967   6.631   5.815   1.309
  668TIP3    H1 1968   6.543   5.792   1.279
  668TIP3    H2 1969   6.631   5.793   1.402
  669TIP3   OH2 1970   5.503   4.519   1.046
  669TIP3    H1 1971   5.554   4.472   1.112
  669TIP3    H2 1972   5.500   4.609   1.076
  670TIP3   OH2 1973   1.930   4.273   2.542
  670TIP3    H1 1974   1.876   4.255   2.465
  670TIP3    H2 1975   2.019   4.281   2.507
  671TIP3   OH2 1976   2.636   0.352   4.463
  671TIP3    H1 1977   2.560   0.353   4.405
  671TIP3    H2 1978   2.648   0.260   4.487
  672TIP3   OH2 1979   1.961   2.207   4.961
  672TIP3    H1 1980   1.958   2.111   4.959
  672TIP3    H2 1981   1.870   2.233   4.947
  673TIP3   OH2 1982   6.338   1.969   1.542
  673TIP3    H1 1983   6.312   2.048   1.590
  673TIP3    H2 1984   6.267   1.954   1.480
  674TIP3   OH2 1985   1.017   5.875   0.692
  674TIP3    H1 1986   0.984   5.950   0.642
  674TIP3    H2 1987   1.056   5.914   0.771
  675TIP3   OH2 1988   1.938   0.320   3.632
  675TIP3    H1 1989   1.846   0.303   3.655
  675TIP3    H2 1990   1.937   0.334   3.537
  676TIP3   OH2 1991   3.231   0.130   5.083
  676TIP3    H1 1992   3.215   0.129   5.177
  676TIP3    H2 1993   3.154   0.173   5.046
  677TIP3   OH2 1994   2.960   5.522   2.423
  677TIP3    H1 1995   2.874   5.561   2.444
  677TIP3    H2 1996   2.947   5.428   2.436
  678TIP3   OH2 1997   0.077   5.572   3.464
  678TIP3    H1 1998   0.170   5.592   3.479
  678TIP3    H2 1999   0.032   5.653   3.490
  679TIP3   OH2 2000   5.607   0.303   4.910
  679TIP3    H1 2001   5.662   0.309   4.989
  679TIP3    H2 2002   5.622   0.386   4.865
  680TIP3   OH2 2003   0.195   4.769   5.576
  680TIP3    H1 2004   0.250   4.844   5.599
  680TIP3    H2 2005   0.106   4.804   5.573
  681TIP3   OH2 2006   1.757   2.201   2.532
  681TIP3    H1 2007   1.735   2.239   2.447
  681TIP3    H2 2008   1.703   2.122   2.538
  682TIP3   OH2 2009   3.489   5.306   0.883
  682TIP3    H1 2010   3.556   5.300   0.816
  682TIP3    H2 2011   3.500   5.393   0.921
  683TIP3   OH2 2012   5.110   1.666   3.069
  683TIP3    H1 2013   5.089   1.599   3.135
  683TIP3    H2 2014   5.137   1.741   3.121
  684TIP3   OH2 2015   5.502   0.027   1.262
  684TIP3    H1 2016   5.535  -0.026   1.190
  684TIP3    H2 2017   5.550  -0.004   1.339
  685TIP3   OH2 2018   2.562   3.727   2.132
  685TIP3    H1 2019   2.526   3.790   2.070
  685TIP3    H2 2020   2.637   3.771   2.172
  686TIP3   OH2 2021   0.353   1.507   0.193
  686TIP3    H1 2022   0.273   1.484   0.144
  686TIP3    H2 2023   0.341   1.599   0.218
  687TIP3   OH2 2024   0.970   6.196   3.544
  687TIP3    H1 2025   0.970   6.277   3.493
  687TIP3    H2 2026   1.056   6.158   3.529
  688TIP3   OH2 2027   0.920   6.616   3.726
  688TIP3    H1 2028   0.916   6.652   3.638
  688TIP3    H2 2029   0.973   6.679   3.775
  689TIP3   OH2 2030   0.937   3.578   0.429
  689TIP3    H1 2031   0.887   3.646   0.384
  689TIP3    H2 2032   0.877   3.544   0.495
  690TIP3   OH2 2033   4.043   1.457   4.120
  690TIP3    H1 2034   4.092   1.528   4.160
  690TIP3    H2 2035   4.034   1.482   4.028
  691TIP3   OH2 2036   6.295   5.519   4.240
  691TIP3    H1 2037   6.251   5.506   4.156
  691TIP3    H2 2038   6.231   5.488   4.304
  692TIP3   OH2 2039   4.842   1.677   5.217
  692TIP3    H1 2040   4.896   1.671   5.138
  692TIP3    H2 2041   4.905   1.695   5.287
  693TIP3   OH2 2042   2.778   3.266   4.224
  693TIP3    H1 2043   2.781   3.358   4.250
  693TIP3    H2 2044   2.762   3.269   4.129
  694TIP3   OH2 2045   6.041   0.879   3.010
  694TIP3    H1 2046   6.094   0.914   2.939
  694TIP3    H2 2047   6.070   0.927   3.088
  695TIP3   OH2 2048   1.300   1.768   4.229
  695TIP3    H1 2049   1.264   1.812   4.306
  695TIP3    H2 2050   1.354   1.835   4.186
  696TIP3   OH2 2051   6.305   5.887   4.325
  696TIP3    H1 2052   6.236   5.821   4.317
  696TIP3    H2 2053   6.274   5.945   4.394
  697TIP3   OH2 2054   2.013   2.437   5.074
  697TIP3    H1 2055   1.985   2.356   5.031
  697TIP3    H2 2056   1.935   2.493   5.072
  698TIP3   OH2 2057   4.948   2.353   5.785
  698TIP3    H1 2058   4.976   2.432   5.737
  698TIP3    H2 2059   4.894   2.386   5.857
  699TIP3   OH2 2060   5.520   5.517   4.871
  699TIP3    H1 2061   5.513   5.421   4.869
  699TIP3    H2 2062   5.614   5.534   4.870
  700TIP3   OH2 2063   5.761   3.926   2.961
  700TIP3    H1 2064   5.792   3.870   3.032
  700TIP3    H2 2065   5.735   3.865   2.891
  701TIP3   OH2 2066   4.966   0.397   4.839
  701TIP3    H1 2067   4.952   0.491   4.834
  701TIP3    H2 2068   4.892   0.360   4.790
  702TIP3   OH2 2069   1.549   4.809   3.469
  702TIP3    H1 2070   1.548   4.797   3.564
  702TIP3    H2 2071   1.573   4.901   3.457
  703TIP3   OH2 2072   1.720   3.458   0.416
  703TIP3    H1 2073   1.719   3.392   0.485
  703TIP3    H2 2074   1.647   3.516   0.437
  704TIP3   OH2 2075   3.679   6.341   1.568
  704TIP3    H1 2076   3.633   6.324   1.486
  704TIP3    H2 2077   3.714   6.430   1.558
  705TIP3   OH2 2078   1.274   4.927   2.876
  705TIP3    H1 2079   1.217   4.997   2.906
  705TIP3    H2 2080   1.225   4.847   2.892
  706TIP3   OH2 2081   5.253   6.297   5.159
  706TIP3    H1 2082   5.253   6.373   5.217
  706TIP3    H2 2083   5.317   6.237   5.198
  707TIP3   OH2 2084   7.162   4.095   2.809
  707TIP3    H1 2085   7.193   4.143   2.885
  707TIP3    H2 2086   7.137   4.009   2.843
  708TIP3   OH2 2087   2.839   3.545   5.764
  708TIP3    H1 2088   2.907   3.611   5.779
  708TIP3    H2 2089   2.862   3.505   5.680
  709TIP3   OH2 2090   3.024   3.146   0.901
  709TIP3    H1 2091   3.037   3.136   0.995
  709TIP3    H2 2092   3.111   3.134   0.863
  710TIP3   OH2 2093   5.973   1.503   5.787
  710TIP3    H1 2094   5.973   1.553   5.706
  710TIP3    H2 2095   5.947   1.414   5.762
  711TIP3   OH2 2096   1.230   2.665   4.794
  711TIP3    H1 2097   1.189   2.652   4.879
  711TIP3    H2 2098   1.321   2.689   4.814
  712TIP3   OH2 2099   1.097   1.770   4.030
  712TIP3    H1 2100   1.165   1.745   4.092
  712TIP3    H2 2101   1.134   1.747   3.944
  713TIP3   OH2 2102   1.732   0.587   3.259
  713TIP3    H1 2103   1.670   0.573   3.331
  713TIP3    H2 2104   1.788   0.659   3.289
  714TIP3   OH2 2105   0.532   3.591   5.155
  714TIP3    H1 2106   0.550   3.506   5.114
  714TIP3    H2 2107   0.619   3.630   5.167
  715TIP3   OH2 2108   2.093   4.259   5.718
  715TIP3    H1 2109   2.152   4.289   5.648
  715TIP3    H2 2110   2.046   4.186   5.679
  716TIP3   OH2 2111   0.947   1.849   2.329
  716TIP3    H1 2112   0.911   1.776   2.379
  716TIP3    H2 2113   0.911   1.927   2.373
  717TIP3   OH2 2114   3.329   5.143   1.024
  717TIP3    H1 2115   3.259   5.138   0.958
  717TIP3    H2 2116   3.383   5.218   0.997
  718TIP3   OH2 2117   6.596   0.443   3.702
  718TIP3    H1 2118   6.575   0.524   3.656
  718TIP3    H2 2119   6.512   0.409   3.730
  719TIP3   OH2 2120   0.261   0.962   5.250
  719TIP3    H1 2121   0.315   0.903   5.198
  719TIP3    H2 2122   0.205   1.007   5.186
  720TIP3   OH2 2123   2.424   5.412   2.924
  720TIP3    H1 2124   2.445   5.426   2.832
  720TIP3    H2 2125   2.418   5.317   2.933
  721TIP3   OH2 2126   7.117   3.274   1.666
  721TIP3    H1 2127   7.028   3.294   1.637
  721TIP3    H2 2128   7.173   3.301   1.593
  722TIP3   OH2 2129   3.381   5.732   4.949
  722TIP3    H1 2130   3.419   5.712   4.863
  722TIP3    H2 2131   3.392   5.652   4.999
  723TIP3   OH2 2132   3.811   1.279   0.456
  723TIP3    H1 2133   3.855   1.313   0.534
  723TIP3    H2 2134   3.724   1.318   0.459
  724TIP3   OH2 2135   4.452   4.976   1.909
  724TIP3    H1 2136   4.545   4.971   1.885
  724TIP3    H2 2137   4.452   5.004   2.001
  725TIP3   OH2 2138   4.161   0.753   5.446
  725TIP3    H1 2139   4.243   0.800   5.431
  725TIP3    H2 2140   4.125   0.739   5.358
  726TIP3   OH2 2141   4.044   2.125   4.635
  726TIP3    H1 2142   4.037   2.080   4.551
  726TIP3    H2 2143   4.135   2.113   4.662
  727TIP3   OH2 2144   2.863   3.963   1.323
  727TIP3    H1 2145   2.880   3.924   1.409
  727TIP3    H2 2146   2.796   3.908   1.283
  728TIP3   OH2 2147   6.151   6.551   4.598
  728TIP3    H1 2148   6.098   6.626   4.572
  728TIP3    H2 2149   6.124   6.532   4.688
  729TIP3   OH2 2150   5.171   4.620   5.024
  729TIP3    H1 2151   5.165   4.701   5.074
  729TIP3    H2 2152   5.229   4.642   4.950
  730TIP3   OH2 2153   0.726   0.137   4.975
  730TIP3    H1 2154   0.691   0.114   4.889
  730TIP3    H2 2155   0.649   0.164   5.025
  731TIP3   OH2 2156   1.541   1.763   5.354
  731TIP3    H1 2157   1.482   1.688   5.359
  731TIP3    H2 2158   1.486   1.839   5.376
  732TIP3   OH2 2159   2.590   0.947   3.311
  732TIP3    H1 2160   2.514   0.980   3.359
  732TIP3    H2 2161   2.553   0.889   3.244
  733TIP3   OH2 2162   5.894   1.750   5.033
  733TIP3    H1 2163   5.870   1.764   5.125
  733TIP3    H2 2164   5.912   1.837   4.999
  734TIP3   OH2 2165   5.960   5.938   0.457
  734TIP3    H1 2166   5.941   5.845   0.441
  734TIP3    H2 2167   6.044   5.953   0.414
  735TIP3   OH2 2168   4.022   2.503   4.158
  735TIP3    H1 2169   3.955   2.559   4.117
  735TIP3    H2 2170   3.986   2.483   4.245
  736TIP3   OH2 2171   2.490   1.769   5.220
  736TIP3    H1 2172   2.530   1.816   5.294
  736TIP3    H2 2173   2.553   1.780   5.148
  737TIP3   OH2 2174   5.859   1.962   1.418
  737TIP3    H1 2175   5.832   2.047   1.451
  737TIP3    H2 2176   5.806   1.899   1.467
  738TIP3   OH2 2177   1.337   1.225   1.667
  738TIP3    H1 2178   1.319   1.265   1.752
  738TIP3    H2 2179   1.420   1.264   1.639
  739TIP3   OH2 2180   3.543   2.041   1.902
  739TIP3    H1 2181   3.530   2.032   1.996
  739TIP3    H2 2182   3.467   2.090   1.871
  740TIP3   OH2 2183   3.984   1.054   0.662
  740TIP3    H1 2184   4.031   1.007   0.731
  740TIP3    H2 2185   3.938   1.124   0.708
  741TIP3   OH2 2186   6.227   5.215   3.535
  741TIP3    H1 2187   6.256   5.274   3.465
  741TIP3    H2 2188   6.304   5.206   3.591
  742TIP3   OH2 2189   7.034   3.021   2.776
  742TIP3    H1 2190   7.054   2.974   2.695
  742TIP3    H2 2191   7.021   2.952   2.841
  743TIP3   OH2 2192   5.990   0.223   2.384
  743TIP3    H1 2193   5.994   0.205   2.478
  743TIP3    H2 2194   5.902   0.198   2.358
  744TIP3   OH2 2195   5.362   4.694   2.309
  744TIP3    H1 2196   5.351   4.789   2.305
  744TIP3    H2 2197   5.281   4.659   2.273
  745TIP3   OH2 2198   6.891   6.381   1.058
  745TIP3    H1 2199   6.875   6.430   1.138
  745TIP3    H2 2200   6.804   6.366   1.021
  746TIP3   OH2 2201   6.548   1.649   3.985
  746TIP3    H1 2202   6.616   1.714   3.969
  746TIP3    H2 2203   6.577   1.571   3.938
  747TIP3   OH2 2204   1.413   3.630   5.318
  747TIP3    H1 2205   1.476   3.580   5.265
  747TIP3    H2 2206   1.466   3.694   5.365
  748TIP3   OH2 2207   5.256   2.055   1.911
  748TIP3    H1 2208   5.181   2.113   1.895
  748TIP3    H2 2209   5.219   1.980   1.957
  749TIP3   OH2 2210   5.422   0.403   4.338
  749TIP3    H1 2211   5.329   0.397   4.317
  749TIP3    H2 2212   5.432   0.490   4.375
  750TIP3   OH2 2213   4.078   4.556   1.902
  750TIP3    H1 2214   4.086   4.463   1.882
  750TIP3    H2 2215   4.157   4.596   1.865
  751TIP3   OH2 2216   3.660   5.989   0.154
  751TIP3    H1 2217   3.640   6.045   0.229
  751TIP3    H2 2218   3.584   5.932   0.146
  752TIP3   OH2 2219   0.922   3.908   3.222
  752TIP3    H1 2220   0.954   3.942   3.306
  752TIP3    H2 2221   0.851   3.848   3.245
  753TIP3   OH2 2222   5.168   5.661   0.428
  753TIP3    H1 2223   5.200   5.676   0.517
  753TIP3    H2 2224   5.078   5.695   0.429
  754TIP3   OH2 2225   4.359   6.668   4.209
  754TIP3    H1 2226   4.449   6.665   4.241
  754TIP3    H2 2227   4.325   6.752   4.239
  755TIP3   OH2 2228   4.112   1.811   0.169
  755TIP3    H1 2229   4.081   1.779   0.254
  755TIP3    H2 2230   4.154   1.735   0.129
  756TIP3   OH2 2231   2.943   6.798   3.880
  756TIP3    H1 2232   2.947   6.863   3.950
  756TIP3    H2 2233   3.003   6.729   3.907
  757TIP3   OH2 2234   6.755   3.266   3.659
  757TIP3    H1 2235   6.693   3.195   3.642
  757TIP3    H2 2236   6.722   3.308   3.739
  758TIP3   OH2 2237   6.090   2.263   3.475
  758TIP3    H1 2238   6.058   2.292   3.561
  758TIP3    H2 2239   6.078   2.339   3.418
  759TIP3   OH2 2240   5.188   1.383   4.209
  759TIP3    H1 2241   5.219   1.295   4.187
  759TIP3    H2 2242   5.266   1.438   4.202
  760TIP3   OH2 2243   6.039   3.753   1.498
  760TIP3    H1 2244   5.949   3.730   1.476
  760TIP3    H2 2245   6.066   3.686   1.561
  761TIP3   OH2 2246   6.670   1.058   2.755
  761TIP3    H1 2247   6.726   1.073   2.679
  761TIP3    H2 2248   6.724   1.006   2.815
  762TIP3   OH2 2249   5.113   3.409   5.866
  762TIP3    H1 2250   5.123   3.477   5.932
  762TIP3    H2 2251   5.024   3.418   5.834
  763TIP3   OH2 2252   3.402   5.963   4.318
  763TIP3    H1 2253   3.351   5.935   4.394
  763TIP3    H2 2254   3.462   6.029   4.353
  764TIP3   OH2 2255   6.815   3.904   2.738
  764TIP3    H1 2256   6.755   3.970   2.772
  764TIP3    H2 2257   6.758   3.831   2.713
  765TIP3   OH2 2258   4.170   3.096   0.742
  765TIP3    H1 2259   4.221   3.092   0.823
  765TIP3    H2 2260   4.232   3.073   0.673
  766TIP3   OH2 2261   3.715   4.681   0.774
  766TIP3    H1 2262   3.631   4.684   0.819
  766TIP3    H2 2263   3.729   4.588   0.755
  767TIP3   OH2 2264   6.942   1.439   4.549
  767TIP3    H1 2265   6.958   1.438   4.455
  767TIP3    H2 2266   7.013   1.386   4.586
  768TIP3   OH2 2267   6.820   0.558   0.524
  768TIP3    H1 2268   6.725   0.567   0.531
  768TIP3    H2 2269   6.849   0.642   0.489
  769TIP3   OH2 2270   2.501   5.843   1.080
  769TIP3    H1 2271   2.486   5.926   1.034
  769TIP3    H2 2272   2.449   5.779   1.033
  770TIP3   OH2 2273   1.367   6.210   4.073
  770TIP3    H1 2274   1.283   6.172   4.099
  770TIP3    H2 2275   1.416   6.219   4.155
  771TIP3   OH2 2276   1.690   1.227   3.666
  771TIP3    H1 2277   1.703   1.141   3.627
  771TIP3    H2 2278   1.615   1.215   3.725
  772TIP3   OH2 2279   6.880   0.760   4.384
  772TIP3    H1 2280   6.885   0.668   4.357
  772TIP3    H2 2281   6.789   0.785   4.368
  773TIP3   OH2 2282   5.659   0.893   2.906
  773TIP3    H1 2283   5.720   0.826   2.938
  773TIP3    H2 2284   5.714   0.969   2.889
  774TIP3   OH2 2285   1.420   5.573   5.874
  774TIP3    H1 2286   1.351   5.526   5.921
  774TIP3    H2 2287   1.385   5.662   5.865
  775TIP3   OH2 2288   5.540   3.284   0.516
  775TIP3    H1 2289   5.530   3.321   0.428
  775TIP3    H2 2290   5.484   3.339   0.571
  776TIP3   OH2 2291   6.883   2.008   0.860
  776TIP3    H1 2292   6.844   1.947   0.922
  776TIP3    H2 2293   6.813   2.028   0.798
  777TIP3   OH2 2294   4.583   6.517   5.023
  777TIP3    H1 2295   4.673   6.489   5.007
  777TIP3    H2 2296   4.538   6.439   5.054
  778TIP3   OH2 2297   2.337   3.163   2.256
  778TIP3    H1 2298   2.332   3.245   2.306
  778TIP3    H2 2299   2.262   3.168   2.195
  779TIP3   OH2 2300   1.654   1.520   1.987
  779TIP3    H1 2301   1.639   1.448   1.926
  779TIP3    H2 2302   1.585   1.511   2.052
  780TIP3   OH2 2303   2.772   1.058   2.777
  780TIP3    H1 2304   2.762   1.060   2.872
  780TIP3    H2 2305   2.822   0.978   2.761
  781TIP3   OH2 2306   4.963   5.419   5.242
  781TIP3    H1 2307   4.925   5.496   5.282
  781TIP3    H2 2308   4.923   5.415   5.155
  782TIP3   OH2 2309   3.221   4.052   3.421
  782TIP3    H1 2310   3.148   4.086   3.473
  782TIP3    H2 2311   3.295   4.050   3.482
  783TIP3   OH2 2312   3.785   5.880   5.591
  783TIP3    H1 2313   3.861   5.883   5.534
  783TIP3    H2 2314   3.712   5.857   5.533
  784TIP3   OH2 2315   0.948   5.125   2.720
  784TIP3    H1 2316   0.905   5.174   2.650
  784TIP3    H2 2317   0.881   5.065   2.752
  785TIP3   OH2 2318   6.893   1.401   2.324
  785TIP3    H1 2319   6.956   1.389   2.253
  785TIP3    H2 2320   6.946   1.394   2.404
  786TIP3   OH2 2321   3.227   4.668   1.330
  786TIP3    H1 2322   3.218   4.701   1.419
  786TIP3    H2 2323   3.219   4.573   1.338
  787TIP3   OH2 2324   5.108   3.369   3.204
  787TIP3    H1 2325   5.192   3.323   3.210
  787TIP3    H2 2326   5.122   3.437   3.138
  788TIP3   OH2 2327   1.748   3.640   5.713
  788TIP3    H1 2328   1.794   3.723   5.721
  788TIP3    H2 2329   1.730   3.632   5.619
  789TIP3   OH2 2330   3.641   3.357   1.641
  789TIP3    H1 2331   3.729   3.321   1.631
  789TIP3    H2 2332   3.582   3.288   1.612
  790TIP3   OH2 2333   0.717   6.499   2.894
  790TIP3    H1 2334   0.661   6.535   2.825
  790TIP3    H2 2335   0.803   6.540   2.880
  791TIP3   OH2 2336   0.637   5.253   2.925
  791TIP3    H1 2337   0.630   5.311   3.000
  791TIP3    H2 2338   0.732   5.246   2.910
  792TIP3   OH2 2339   3.914   2.004   3.031
  792TIP3    H1 2340   3.876   2.059   2.963
  792TIP3    H2 2341   3.875   1.918   3.017
  793TIP3   OH2 2342   3.283   6.347   1.776
  793TIP3    H1 2343   3.237   6.327   1.695
  793TIP3    H2 2344   3.216   6.385   1.833
  794TIP3   OH2 2345   5.780   3.672   1.391
  794TIP3    H1 2346   5.766   3.578   1.381
  794TIP3    H2 2347   5.813   3.701   1.306
  795TIP3   OH2 2348   3.141   1.968   0.693
  795TIP3    H1 2349   3.155   1.949   0.600
  795TIP3    H2 2350   3.214   2.025   0.717
  796TIP3   OH2 2351   2.708   1.444   2.886
  796TIP3    H1 2352   2.736   1.490   2.807
  796TIP3    H2 2353   2.770   1.372   2.896
  797TIP3   OH2 2354   2.594   4.020   2.108
  797TIP3    H1 2355   2.531   4.059   2.047
  797TIP3    H2 2356   2.553   4.030   2.194
  798TIP3   OH2 2357   1.035   1.479   1.801
  798TIP3    H1 2358   1.023   1.516   1.888
  798TIP3    H2 2359   1.003   1.547   1.742
  799TIP3   OH2 2360   6.579   2.134   1.550
  799TIP3    H1 2361   6.554   2.224   1.533
  799TIP3    H2 2362   6.500   2.083   1.530
  800TIP3   OH2 2363   3.256   6.539   0.306
  800TIP3    H1 2364   3.184   6.584   0.263
  800TIP3    H2 2365   3.312   6.510   0.234
  801TIP3   OH2 2366   0.234   0.841   1.009
  801TIP3    H1 2367   0.156   0.897   1.011
  801TIP3    H2 2368   0.211   0.765   1.062
  802TIP3   OH2 2369   5.224   4.921   1.019
  802TIP3    H1 2370   5.267   4.974   0.952
  802TIP3    H2 2371   5.132   4.947   1.015
  803TIP3   OH2 2372   0.431   1.304   1.272
  803TIP3    H1 2373   0.345   1.265   1.289
  803TIP3    H2 2374   0.484   1.281   1.349
  804TIP3   OH2 2375   5.436   4.978   4.080
  804TIP3    H1 2376   5.514   4.928   4.058
  804TIP3    H2 2377   5.385   4.920   4.137
  805TIP3   OH2 2378   7.178   3.096   3.337
  805TIP3    H1 2379   7.259   3.143   3.354
  805TIP3    H2 2380   7.167   3.101   3.242
  806TIP3   OH2 2381   1.271   1.982   4.926
  806TIP3    H1 2382   1.206   2.001   4.993
  806TIP3    H2 2383   1.280   1.886   4.928
  807TIP3   OH2 2384   1.844   0.480   1.349
  807TIP3    H1 2385   1.850   0.509   1.258
  807TIP3    H2 2386   1.876   0.390   1.348
  808TIP3   OH2 2387   5.343   5.222   0.323
  808TIP3    H1 2388   5.297   5.306   0.321
  808TIP3    H2 2389   5.286   5.165   0.375
  809TIP3   OH2 2390   6.694   2.526   4.803
  809TIP3    H1 2391   6.728   2.450   4.755
  809TIP3    H2 2392   6.637   2.488   4.870
  810TIP3   OH2 2393   4.717   5.888   5.249
  810TIP3    H1 2394   4.781   5.920   5.312
  810TIP3    H2 2395   4.769   5.865   5.172
  811TIP3   OH2 2396   6.669   0.223   3.846
  811TIP3    H1 2397   6.655   0.317   3.834
  811TIP3    H2 2398   6.653   0.186   3.759
  812TIP3   OH2 2399   4.231   2.977   2.556
  812TIP3    H1 2400   4.225   2.883   2.572
  812TIP3    H2 2401   4.325   2.996   2.559
  813TIP3   OH2 2402   0.730   1.694   1.274
  813TIP3    H1 2403   0.810   1.646   1.296
  813TIP3    H2 2404   0.758   1.757   1.207
  814TIP3   OH2 2405   1.112   0.298   5.038
  814TIP3    H1 2406   1.115   0.289   5.133
  814TIP3    H2 2407   1.124   0.392   5.023
  815TIP3   OH2 2408   5.572   1.875   0.721
  815TIP3    H1 2409   5.489   1.846   0.682
  815TIP3    H2 2410   5.571   1.838   0.810
  816TIP3   OH2 2411   5.450   5.196   3.785
  816TIP3    H1 2412   5.489   5.283   3.777
  816TIP3    H2 2413   5.524   5.136   3.792
  817TIP3   OH2 2414   3.762   2.946   2.898
  817TIP3    H1 2415   3.752   3.036   2.865
  817TIP3    H2 2416   3.680   2.928   2.943
  818TIP3   OH2 2417   4.361   6.679   1.363
  818TIP3    H1 2418   4.374   6.746   1.430
  818TIP3    H2 2419   4.425   6.612   1.383
  819TIP3   OH2 2420   2.780   1.085   4.493
  819TIP3    H1 2421   2.876   1.082   4.498
  819TIP3    H2 2422   2.756   1.002   4.452
  820TIP3   OH2 2423   5.085   2.022   4.053
  820TIP3    H1 2424   5.016   2.027   3.987
  820TIP3    H2 2425   5.039   2.007   4.136
  821TIP3   OH2 2426   1.217   5.464   5.646
  821TIP3    H1 2427   1.231   5.528   5.577
  821TIP3    H2 2428   1.179   5.515   5.718
  822TIP3   OH2 2429   0.888   6.694   3.451
  822TIP3    H1 2430   0.830   6.644   3.393
  822TIP3    H2 2431   0.846   6.779   3.459
  823TIP3   OH2 2432   6.318   5.042   2.436
  823TIP3    H1 2433   6.263   5.109   2.396
  823TIP3    H2 2434   6.272   5.017   2.516
  824TIP3   OH2 2435   4.085   3.178   2.023
  824TIP3    H1 2436   4.130   3.246   2.074
  824TIP3    H2 2437   4.053   3.224   1.945
  825TIP3   OH2 2438   1.020   1.649   1.365
  825TIP3    H1 2439   1.074   1.601   1.302
  825TIP3    H2 2440   1.063   1.735   1.372
  826TIP3   OH2 2441   5.548   3.055   3.241
  826TIP3    H1 2442   5.625   2.999   3.243
  826TIP3    H2 2443   5.490   3.014   3.177
  827TIP3   OH2 2444   3.579   3.264   0.176
  827TIP3    H1 2445   3.647   3.196   0.171
  827TIP3    H2 2446   3.547   3.258   0.266
  828TIP3   OH2 2447   2.376   2.418   3.529
  828TIP3    H1 2448   2.471   2.413   3.524
  828TIP3    H2 2449   2.346   2.333   3.495
  829TIP3   OH2 2450   2.228   0.838   5.635
  829TIP3    H1 2451   2.245   0.932   5.633
  829TIP3    H2 2452   2.262   0.810   5.720
  830TIP3   OH2 2453   6.677   2.793   4.685
  830TIP3    H1 2454   6.759   2.828   4.652
  830TIP3    H2 2455   6.703   2.719   4.741
  831TIP3   OH2 2456   1.088   2.418   4.344
  831TIP3    H1 2457   1.059   2.509   4.337
  831TIP3    H2 2458   1.103   2.405   4.437
  832TIP3   OH2 2459   2.552   5.623   5.859
  832TIP3    H1 2460   2.596   5.571   5.926
  832TIP3    H2 2461   2.505   5.559   5.806
  833TIP3   OH2 2462   3.082   0.141   2.144
  833TIP3    H1 2463   3.105   0.142   2.237
  833TIP3    H2 2464   3.042   0.056   2.129
  834TIP3   OH2 2465  -0.087   5.926   2.786
  834TIP3    H1 2466  -0.045   6.012   2.786
  834TIP3    H2 2467  -0.053   5.883   2.865
  835TIP3   OH2 2468   4.234   0.962   4.124
  835TIP3    H1 2469   4.139   0.976   4.117
  835TIP3    H2 2470   4.272   1.046   4.099
  836TIP3   OH2 2471   2.209   6.089   3.352
  836TIP3    H1 2472   2.280   6.026   3.339
  836TIP3    H2 2473   2.211   6.143   3.273
  837TIP3   OH2 2474   3.947   5.773   0.501
  837TIP3    H1 2475   3.948   5.711   0.428
  837TIP3    H2 2476   3.969   5.857   0.461
  838TIP3   OH2 2477   3.533   4.752   0.314
  838TIP3    H1 2478   3.532   4.786   0.403
  838TIP3    H2 2479   3.466   4.803   0.268
  839TIP3   OH2 2480   6.975   2.087   5.740
  839TIP3    H1 2481   7.050   2.041   5.778
  839TIP3    H2 2482   6.956   2.039   5.660
  840TIP3   OH2 2483   0.347   1.520   2.541
  840TIP3    H1 2484   0.321   1.493   2.629
  840TIP3    H2 2485   0.270   1.504   2.486
  841TIP3   OH2 2486   2.086   1.982   1.298
  841TIP3    H1 2487   2.145   1.980   1.223
  841TIP3    H2 2488   2.011   1.929   1.271
  842TIP3   OH2 2489   6.144   2.713   2.203
  842TIP3    H1 2490   6.173   2.647   2.266
  842TIP3    H2 2491   6.130   2.665   2.122
  843TIP3   OH2 2492   1.593   6.096   5.266
  843TIP3    H1 2493   1.599   6.180   5.220
  843TIP3    H2 2494   1.561   6.035   5.200
  844TIP3   OH2 2495   1.635   2.490   1.172
  844TIP3    H1 2496   1.592   2.521   1.252
  844TIP3    H2 2497   1.698   2.425   1.203
  845TIP3   OH2 2498   1.220   5.387   5.250
  845TIP3    H1 2499   1.200   5.315   5.309
  845TIP3    H2 2500   1.316   5.390   5.246
  846TIP3   OH2 2501   7.003   2.903   0.398
  846TIP3    H1 2502   6.914   2.935   0.383
  846TIP3    H2 2503   7.009   2.823   0.345
  847TIP3   OH2 2504   1.522   3.636   2.850
  847TIP3    H1 2505   1.610   3.608   2.827
  847TIP3    H2 2506   1.490   3.569   2.910
  848TIP3   OH2 2507   4.599   2.580   3.247
  848TIP3    H1 2508   4.647   2.662   3.235
  848TIP3    H2 2509   4.666   2.516   3.269
  849TIP3   OH2 2510   3.109   3.071   5.017
  849TIP3    H1 2511   3.107   3.151   4.965
  849TIP3    H2 2512   3.144   3.099   5.102
  850TIP3   OH2 2513   0.642   2.608   0.647
  850TIP3    H1 2514   0.580   2.679   0.632
  850TIP3    H2 2515   0.700   2.609   0.570
  851TIP3   OH2 2516   6.153   1.298   4.526
  851TIP3    H1 2517   6.184   1.359   4.592
  851TIP3    H2 2518   6.213   1.309   4.453
  852TIP3   OH2 2519   1.204   5.940   4.670
  852TIP3    H1 2520   1.253   5.960   4.591
  852TIP3    H2 2521   1.184   5.846   4.663
  853TIP3   OH2 2522   6.067   3.244   0.210
  853TIP3    H1 2523   6.072   3.274   0.300
  853TIP3    H2 2524   5.976   3.216   0.199
  854TIP3   OH2 2525   0.966   0.255   2.472
  854TIP3    H1 2526   1.030   0.325   2.485
  854TIP3    H2 2527   0.891   0.281   2.525
  855TIP3   OH2 2528   1.208   4.974   5.806
  855TIP3    H1 2529   1.144   4.913   5.770
  855TIP3    H2 2530   1.291   4.926   5.801
  856TIP3   OH2 2531   6.683   4.982   3.664
  856TIP3    H1 2532   6.752   5.032   3.707
  856TIP3    H2 2533   6.610   5.043   3.656
  857TIP3   OH2 2534   5.514   0.626   5.599
  857TIP3    H1 2535   5.502   0.670   5.683
  857TIP3    H2 2536   5.591   0.571   5.611
  858TIP3   OH2 2537   5.198   3.171   4.190
  858TIP3    H1 2538   5.231   3.198   4.104
  858TIP3    H2 2539   5.107   3.144   4.173
  859TIP3   OH2 2540   2.443   3.520   0.485
  859TIP3    H1 2541   2.440   3.427   0.460
  859TIP3    H2 2542   2.434   3.567   0.402
  860TIP3   OH2 2543   1.357   1.458   4.011
  860TIP3    H1 2544   1.411   1.496   3.942
  860TIP3    H2 2545   1.413   1.391   4.050
  861TIP3   OH2 2546   2.093   4.828   1.691
  861TIP3    H1 2547   2.122   4.767   1.759
  861TIP3    H2 2548   2.074   4.909   1.739
  862TIP3   OH2 2549   4.817   2.652   0.227
  862TIP3    H1 2550   4.901   2.666   0.271
  862TIP3    H2 2551   4.797   2.559   0.241
  863TIP3   OH2 2552   3.718   5.565   2.258
  863TIP3    H1 2553   3.727   5.628   2.330
  863TIP3    H2 2554   3.719   5.619   2.179
  864TIP3   OH2 2555   3.443   3.210   5.684
  864TIP3    H1 2556   3.533   3.233   5.664
  864TIP3    H2 2557   3.395   3.225   5.603
  865TIP3   OH2 2558   4.038   2.699   3.279
  865TIP3    H1 2559   4.070   2.751   3.353
  865TIP3    H2 2560   4.015   2.763   3.213
  866TIP3   OH2 2561   2.897   2.771   1.002
  866TIP3    H1 2562   2.915   2.832   1.073
  866TIP3    H2 2563   2.846   2.822   0.939
  867TIP3   OH2 2564   3.905   4.247   0.551
  867TIP3    H1 2565   3.898   4.153   0.569
  867TIP3    H2 2566   3.868   4.289   0.628
  868TIP3   OH2 2567   3.264   0.997   1.987
  868TIP3    H1 2568   3.207   1.049   1.930
  868TIP3    H2 2569   3.250   0.907   1.959
  869TIP3   OH2 2570   1.563   0.552   1.421
  869TIP3    H1 2571   1.648   0.595   1.427
  869TIP3    H2 2572   1.532   0.571   1.333
  870TIP3   OH2 2573   5.736   2.977   1.142
  870TIP3    H1 2574   5.694   2.924   1.210
  870TIP3    H2 2575   5.675   2.973   1.068
  871TIP3   OH2 2576   6.441   3.089   3.320
  871TIP3    H1 2577   6.459   3.161   3.381
  871TIP3    H2 2578   6.372   3.123   3.262
  872TIP3   OH2 2579   1.714   3.973   3.960
  872TIP3    H1 2580   1.655   4.049   3.963
  872TIP3    H2 2581   1.744   3.970   3.869
  873TIP3   OH2 2582   4.650   3.967   5.538
  873TIP3    H1 2583   4.745   3.965   5.524
  873TIP3    H2 2584   4.613   3.938   5.455
  874TIP3   OH2 2585   1.416   4.491   5.358
  874TIP3    H1 2586   1.342   4.538   5.395
  874TIP3    H2 2587   1.395   4.483   5.265
  875TIP3   OH2 2588   6.694   4.345   3.643
  875TIP3    H1 2589   6.633   4.272   3.657
  875TIP3    H2 2590   6.754   4.341   3.717
  876TIP3   OH2 2591   1.151   3.487   1.933
  876TIP3    H1 2592   1.115   3.566   1.893
  876TIP3    H2 2593   1.076   3.446   1.978
  877TIP3   OH2 2594   3.025   4.343   0.535
  877TIP3    H1 2595   3.058   4.254   0.545
  877TIP3    H2 2596   2.966   4.355   0.609
  878TIP3   OH2 2597   4.014   5.249   2.777
  878TIP3    H1 2598   3.950   5.273   2.844
  878TIP3    H2 2599   3.999   5.312   2.706
  879TIP3   OH2 2600   3.874   4.368   3.057
  879TIP3    H1 2601   3.878   4.397   3.148
  879TIP3    H2 2602   3.822   4.435   3.013
  880TIP3   OH2 2603   0.165   1.661   4.828
  880TIP3    H1 2604   0.228   1.711   4.777
  880TIP3    H2 2605   0.093   1.722   4.845
  881TIP3   OH2 2606   0.904   1.568   4.945
  881TIP3    H1 2607   0.860   1.486   4.923
  881TIP3    H2 2608   0.984   1.567   4.893
  882TIP3   OH2 2609   3.479   3.074  -0.004
  882TIP3    H1 2610   3.493   3.147   0.055
  882TIP3    H2 2611   3.556   3.019   0.007
  883TIP3   OH2 2612   2.840   1.091   1.063
  883TIP3    H1 2613   2.870   1.132   0.982
  883TIP3    H2 2614   2.767   1.145   1.093
  884TIP3   OH2 2615   3.905   3.302   4.745
  884TIP3    H1 2616   4.001   3.305   4.754
  884TIP3    H2 2617   3.878   3.394   4.741
  885TIP3   OH2 2618   1.638   6.444   1.198
  885TIP3    H1 2619   1.699   6.518   1.196
  885TIP3    H2 2620   1.636   6.412   1.108
  886TIP3   OH2 2621   6.227   5.725   0.915
  886TIP3    H1 2622   6.279   5.736   0.836
  886TIP3    H2 2623   6.151   5.674   0.888
  887TIP3   OH2 2624   6.579   0.073   1.542
  887TIP3    H1 2625   6.563   0.043   1.452
  887TIP3    H2 2626   6.615   0.161   1.532
  888TIP3   OH2 2627   4.512   4.327   1.196
  888TIP3    H1 2628   4.545   4.243   1.163
  888TIP3    H2 2629   4.504   4.313   1.291
  889TIP3   OH2 2630   6.690   4.252   0.902
  889TIP3    H1 2631   6.637   4.199   0.843
  889TIP3    H2 2632   6.760   4.287   0.846
  890TIP3   OH2 2633   0.491   3.150   0.259
  890TIP3    H1 2634   0.517   3.062   0.285
  890TIP3    H2 2635   0.540   3.167   0.178
  891TIP3   OH2 2636   0.958   5.262   1.201
  891TIP3    H1 2637   0.897   5.328   1.233
  891TIP3    H2 2638   0.902   5.201   1.152
  892TIP3   OH2 2639   6.537   2.395   5.032
  892TIP3    H1 2640   6.563   2.315   5.078
  892TIP3    H2 2641   6.441   2.396   5.038
  893TIP3   OH2 2642   2.265   4.615   5.438
  893TIP3    H1 2643   2.186   4.658   5.469
  893TIP3    H2 2644   2.263   4.528   5.479
  894TIP3   OH2 2645   5.865   0.483   0.227
  894TIP3    H1 2646   5.934   0.428   0.188
  894TIP3    H2 2647   5.913   0.549   0.277
  895TIP3   OH2 2648   6.989   2.445   0.863
  895TIP3    H1 2649   7.029   2.482   0.784
  895TIP3    H2 2650   6.998   2.514   0.929
  896TIP3   OH2 2651   0.236   2.745   3.534
  896TIP3    H1 2652   0.273   2.660   3.562
  896TIP3    H2 2653   0.283   2.809   3.587
  897TIP3   OH2 2654   3.235   0.640   5.750
  897TIP3    H1 2655   3.144   0.668   5.754
  897TIP3    H2 2656   3.237   0.574   5.680
  898TIP3   OH2 2657   5.885   6.493   4.101
  898TIP3    H1 2658   5.873   6.538   4.018
  898TIP3    H2 2659   5.855   6.403   4.084
  899TIP3   OH2 2660   2.665   4.382   1.064
  899TIP3    H1 2661   2.727   4.337   1.122
  899TIP3    H2 2662   2.708   4.381   0.979
  900TIP3   OH2 2663   5.705   2.325   4.370
  900TIP3    H1 2664   5.634   2.296   4.313
  900TIP3    H2 2665   5.683   2.290   4.456
  901TIP3   OH2 2666   1.652   1.122   4.799
  901TIP3    H1 2667   1.729   1.066   4.808
  901TIP3    H2 2668   1.640   1.132   4.704
  902TIP3   OH2 2669   0.748   2.067   2.445
  902TIP3    H1 2670   0.789   2.125   2.509
  902TIP3    H2 2671   0.732   1.986   2.494
  903TIP3   OH2 2672   5.833   4.252   0.840
  903TIP3    H1 2673   5.856   4.339   0.871
  903TIP3    H2 2674   5.874   4.246   0.754
  904TIP3   OH2 2675   3.070   1.251   5.510
  904TIP3    H1 2676   3.114   1.282   5.431
  904TIP3    H2 2677   3.128   1.275   5.581
  905TIP3   OH2 2678   7.210   6.323   4.222
  905TIP3    H1 2679   7.265   6.358   4.292
  905TIP3    H2 2680   7.247   6.362   4.142
  906TIP3   OH2 2681   5.884   0.155   3.003
  906TIP3    H1 2682   5.813   0.144   3.068
  906TIP3    H2 2683   5.843   0.202   2.931
  907TIP3   OH2 2684   2.403   6.661   4.447
  907TIP3    H1 2685   2.487   6.702   4.464
  907TIP3    H2 2686   2.424   6.569   4.428
  908TIP3   OH2 2687   2.586   4.618   2.929
  908TIP3    H1 2688   2.532   4.581   2.999
  908TIP3    H2 2689   2.566   4.564   2.853
  909TIP3   OH2 2690   6.691   3.635   1.088
  909TIP3    H1 2691   6.779   3.659   1.117
  909TIP3    H2 2692   6.638   3.713   1.103
  910TIP3   OH2 2693   3.076   0.079   1.494
  910TIP3    H1 2694   3.002   0.057   1.550
  910TIP3    H2 2695   3.051   0.048   1.407
  911TIP3   OH2 2696   4.354   3.542   5.592
  911TIP3    H1 2697   4.359   3.538   5.497
  911TIP3    H2 2698   4.271   3.587   5.610
  912TIP3   OH2 2699   0.377   0.231   3.098
  912TIP3    H1 2700   0.385   0.173   3.022
  912TIP3    H2 2701   0.378   0.172   3.173
  913TIP3   OH2 2702   4.475   1.303   1.011
  913TIP3    H1 2703   4.392   1.313   0.964
  913TIP3    H2 2704   4.542   1.329   0.947
  914TIP3   OH2 2705   3.799   4.387   4.732
  914TIP3    H1 2706   3.795   4.417   4.641
  914TIP3    H2 2707   3.707   4.376   4.757
  915TIP3   OH2 2708   3.604   5.307   4.866
  915TIP3    H1 2709   3.700   5.304   4.867
  915TIP3    H2 2710   3.580   5.261   4.785
  916TIP3   OH2 2711   6.775   2.506   4.267
  916TIP3    H1 2712   6.694   2.546   4.235
  916TIP3    H2 2713   6.836   2.579   4.276
  917TIP3   OH2 2714   5.247   4.989   0.161
  917TIP3    H1 2715   5.319   4.985   0.098
  917TIP3    H2 2716   5.270   5.062   0.218
  918TIP3   OH2 2717   4.384   2.418   3.160
  918TIP3    H1 2718   4.367   2.356   3.230
  918TIP3    H2 2719   4.443   2.482   3.198
  919TIP3   OH2 2720   5.540   6.044   3.871
  919TIP3    H1 2721   5.489   6.009   3.799
  919TIP3    H2 2722   5.550   6.137   3.851
  920TIP3   OH2 2723   1.365   1.942   1.813
  920TIP3    H1 2724   1.388   2.016   1.868
  920TIP3    H2 2725   1.422   1.949   1.737
  921TIP3   OH2 2726   6.598   6.660   1.428
  921TIP3    H1 2727   6.558   6.573   1.431
  921TIP3    H2 2728   6.525   6.718   1.406
  922TIP3   OH2 2729   6.681   4.374   3.370
  922TIP3    H1 2730   6.671   4.356   3.463
  922TIP3    H2 2731   6.680   4.288   3.328
  923TIP3   OH2 2732   0.032   2.525   1.245
  923TIP3    H1 2733   0.110   2.563   1.206
  923TIP3    H2 2734   0.046   2.532   1.340
  924TIP3   OH2 2735   3.121   6.456   0.763
  924TIP3    H1 2736   3.060   6.492   0.828
  924TIP3    H2 2737   3.089   6.367   0.747
  925TIP3   OH2 2738   2.517   6.401   4.460
  925TIP3    H1 2739   2.467   6.355   4.528
  925TIP3    H2 2740   2.601   6.355   4.456
  926TIP3   OH2 2741   5.827   2.048   1.077
  926TIP3    H1 2742   5.916   2.077   1.054
  926TIP3    H2 2743   5.836   1.954   1.094
  927TIP3   OH2 2744   0.464   3.035   4.317
  927TIP3    H1 2745   0.373   3.064   4.328
  927TIP3    H2 2746   0.460   2.971   4.246
  928TIP3   OH2 2747   0.869   1.344   0.235
  928TIP3    H1 2748   0.916   1.418   0.197
  928TIP3    H2 2749   0.866   1.363   0.329
  929TIP3   OH2 2750   1.921   5.674   0.485
  929TIP3    H1 2751   1.912   5.586   0.450
  929TIP3    H2 2752   1.998   5.670   0.542
  930TIP3   OH2 2753   3.410   6.380   0.654
  930TIP3    H1 2754   3.337   6.351   0.599
  930TIP3    H2 2755   3.379   6.368   0.744
  931TIP3   OH2 2756   5.657   5.462   5.605
  931TIP3    H1 2757   5.572   5.489   5.572
  931TIP3    H2 2758   5.678   5.527   5.673
  932TIP3   OH2 2759   4.617   0.056   2.889
  932TIP3    H1 2760   4.594   0.109   2.812
  932TIP3    H2 2761   4.710   0.036   2.877
  933TIP3   OH2 2762   2.998   1.503   3.977
  933TIP3    H1 2763   2.974   1.457   4.057
  933TIP3    H2 2764   3.048   1.579   4.006
  934TIP3   OH2 2765   4.116   5.688   2.010
  934TIP3    H1 2766   4.173   5.627   2.059
  934TIP3    H2 2767   4.173   5.723   1.941
  935TIP3   OH2 2768   5.715   5.361   4.446
  935TIP3    H1 2769   5.700   5.454   4.429
  935TIP3    H2 2770   5.627   5.324   4.454
  936TIP3   OH2 2771   2.779   4.351   4.401
  936TIP3    H1 2772   2.702   4.394   4.364
  936TIP3    H2 2773   2.853   4.392   4.358
  937TIP3   OH2 2774   0.608   4.619   5.747
  937TIP3    H1 2775   0.683   4.627   5.806
  937TIP3    H2 2776   0.543   4.570   5.797
  938TIP3   OH2 2777   6.857   0.825   2.584
  938TIP3    H1 2778   6.859   0.729   2.587
  938TIP3    H2 2779   6.942   0.852   2.618
  939TIP3   OH2 2780   1.131   5.633   5.861
  939TIP3    H1 2781   1.188   5.706   5.888
  939TIP3    H2 2782   1.094   5.661   5.778
  940TIP3   OH2 2783   1.083   0.159   2.724
  940TIP3    H1 2784   1.142   0.155   2.648
  940TIP3    H2 2785   1.138   0.133   2.798
  941TIP3   OH2 2786   0.359   5.345   5.599
  941TIP3    H1 2787   0.405   5.395   5.531
  941TIP3    H2 2788   0.415   5.354   5.677
  942TIP3   OH2 2789   2.937   4.774   4.802
  942TIP3    H1 2790   2.939   4.679   4.796
  942TIP3    H2 2791   2.869   4.801   4.740
  943TIP3   OH2 2792   6.273   0.025  -0.017
  943TIP3    H1 2793   6.302  -0.016  -0.099
  943TIP3    H2 2794   6.346   0.011   0.043
  944TIP3   OH2 2795   5.601   5.006   0.088
  944TIP3    H1 2796   5.688   4.975   0.064
  944TIP3    H2 2797   5.541   4.952   0.037
  945TIP3   OH2 2798   0.565   3.395   2.868
  945TIP3    H1 2799   0.480   3.362   2.838
  945TIP3    H2 2800   0.589   3.461   2.803
  946TIP3   OH2 2801   6.445   3.157   5.224
  946TIP3    H1 2802   6.413   3.079   5.270
  946TIP3    H2 2803   6.425   3.140   5.132
  947TIP3   OH2 2804   6.448   5.784   2.411
  947TIP3    H1 2805   6.507   5.803   2.483
  947TIP3    H2 2806   6.371   5.746   2.452
  948TIP3   OH2 2807   3.928   6.015   0.737
  948TIP3    H1 2808   3.846   5.966   0.745
  948TIP3    H2 2809   3.938   6.029   0.643
  949TIP3   OH2 2810   3.124   3.427   5.756
  949TIP3    H1 2811   3.205   3.476   5.739
  949TIP3    H2 2812   3.086   3.414   5.669
  950TIP3   OH2 2813   6.966   5.562   5.626
  950TIP3    H1 2814   6.991   5.638   5.677
  950TIP3    H2 2815   6.911   5.596   5.556
  951TIP3   OH2 2816   5.603   1.349   3.310
  951TIP3    H1 2817   5.589   1.434   3.268
  951TIP3    H2 2818   5.642   1.370   3.395
  952TIP3   OH2 2819   1.999   5.831   0.084
  952TIP3    H1 2820   2.050   5.831   0.003
  952TIP3    H2 2821   1.911   5.807   0.056
  953TIP3   OH2 2822   5.478   0.889   2.030
  953TIP3    H1 2823   5.477   0.952   1.958
  953TIP3    H2 2824   5.568   0.857   2.032
  954TIP3   OH2 2825   3.965   2.385   2.911
  954TIP3    H1 2826   3.884   2.354   2.953
  954TIP3    H2 2827   4.018   2.416   2.984
  955TIP3   OH2 2828   4.678   0.813   4.103
  955TIP3    H1 2829   4.664   0.850   4.191
  955TIP3    H2 2830   4.715   0.886   4.053
  956TIP3   OH2 2831   4.228   5.694   3.631
  956TIP3    H1 2832   4.301   5.633   3.623
  956TIP3    H2 2833   4.167   5.650   3.690
  957TIP3   OH2 2834   7.031   4.306   2.692
  957TIP3    H1 2835   7.092   4.335   2.625
  957TIP3    H2 2836   7.074   4.231   2.733
  958TIP3   OH2 2837   1.907   5.699   2.726
  958TIP3    H1 2838   1.837   5.679   2.664
  958TIP3    H2 2839   1.988   5.691   2.675
  959TIP3   OH2 2840   1.219   5.512   2.326
  959TIP3    H1 2841   1.262   5.462   2.258
  959TIP3    H2 2842   1.237   5.464   2.407
  960TIP3   OH2 2843   1.051   0.967   2.415
  960TIP3    H1 2844   0.968   0.931   2.446
  960TIP3    H2 2845   1.112   0.952   2.487
  961TIP3   OH2 2846   1.978   2.128   2.716
  961TIP3    H1 2847   1.908   2.141   2.652
  961TIP3    H2 2848   1.954   2.185   2.789
  962TIP3   OH2 2849   0.221   2.592   0.709
  962TIP3    H1 2850   0.213   2.596   0.614
  962TIP3    H2 2851   0.307   2.552   0.724
  963TIP3   OH2 2852   6.824   0.306   1.894
  963TIP3    H1 2853   6.912   0.322   1.861
  963TIP3    H2 2854   6.766   0.333   1.822
  964TIP3   OH2 2855   6.823   4.601   4.988
  964TIP3    H1 2856   6.849   4.674   4.931
  964TIP3    H2 2857   6.829   4.524   4.932
  965TIP3   OH2 2858   5.693   0.537   4.383
  965TIP3    H1 2859   5.726   0.470   4.322
  965TIP3    H2 2860   5.741   0.616   4.359
  966TIP3   OH2 2861   7.141   6.669   2.574
  966TIP3    H1 2862   7.152   6.644   2.482
  966TIP3    H2 2863   7.049   6.650   2.594
  967TIP3   OH2 2864   5.677   2.524   5.769
  967TIP3    H1 2865   5.756   2.521   5.823
  967TIP3    H2 2866   5.610   2.561   5.826
  968TIP3   OH2 2867   5.967   5.885   1.062
  968TIP3    H1 2868   6.003   5.875   1.150
  968TIP3    H2 2869   6.044   5.889   1.005
  969TIP3   OH2 2870   0.079   6.650   3.487
  969TIP3    H1 2871   0.105   6.721   3.429
  969TIP3    H2 2872   0.158   6.596   3.496
  970TIP3   OH2 2873   6.291   0.809   2.777
  970TIP3    H1 2874   6.357   0.779   2.840
  970TIP3    H2 2875   6.267   0.897   2.807
  971TIP3   OH2 2876   5.394   2.652   1.404
  971TIP3    H1 2877   5.397   2.746   1.386
  971TIP3    H2 2878   5.305   2.626   1.379
  972TIP3   OH2 2879   0.045   4.680   1.830
  972TIP3    H1 2880   0.007   4.725   1.754
  972TIP3    H2 2881   0.064   4.750   1.892
  973TIP3   OH2 2882   2.633   5.574   1.831
  973TIP3    H1 2883   2.709   5.631   1.827
  973TIP3    H2 2884   2.594   5.579   1.743
  974TIP3   OH2 2885   5.393   4.445   3.155
  974TIP3    H1 2886   5.458   4.424   3.088
  974TIP3    H2 2887   5.434   4.514   3.208
  975TIP3   OH2 2888   6.121   5.088   2.637
  975TIP3    H1 2889   6.177   5.164   2.651
  975TIP3    H2 2890   6.097   5.060   2.726
  976TIP3   OH2 2891   1.316   1.313   4.443
  976TIP3    H1 2892   1.365   1.334   4.522
  976TIP3    H2 2893   1.292   1.398   4.406
  977TIP3   OH2 2894   0.434   0.707   1.880
  977TIP3    H1 2895   0.400   0.623   1.848
  977TIP3    H2 2896   0.518   0.686   1.920
  978TIP3   OH2 2897   0.603   6.265   3.245
  978TIP3    H1 2898   0.638   6.270   3.155
  978TIP3    H2 2899   0.592   6.172   3.261
  979TIP3   OH2 2900   6.448   3.302   3.545
  979TIP3    H1 2901   6.449   3.317   3.640
  979TIP3    H2 2902   6.357   3.317   3.520
  980TIP3   OH2 2903   3.018   5.371   4.007
  980TIP3    H1 2904   3.096   5.336   4.051
  980TIP3    H2 2905   3.012   5.321   3.926
  981TIP3   OH2 2906   5.159   0.977   5.072
  981TIP3    H1 2907   5.117   0.956   4.988
  981TIP3    H2 2908   5.086   0.985   5.134
  982TIP3   OH2 2909   5.967   4.794   4.349
  982TIP3    H1 2910   5.969   4.889   4.358
  982TIP3    H2 2911   5.949   4.762   4.438
  983TIP3   OH2 2912   0.361   5.301   1.026
  983TIP3    H1 2913   0.272   5.332   1.044
  983TIP3    H2 2914   0.372   5.226   1.084
  984TIP3   OH2 2915   6.989   3.345   3.812
  984TIP3    H1 2916   7.033   3.420   3.773
  984TIP3    H2 2917   6.926   3.316   3.745
  985TIP3   OH2 2918   4.292   2.991   1.145
  985TIP3    H1 2919   4.353   2.977   1.072
  985TIP3    H2 2920   4.253   3.076   1.129
  986TIP3   OH2 2921   3.228   2.042   4.390
  986TIP3    H1 2922   3.213   2.063   4.482
  986TIP3    H2 2923   3.317   2.007   4.387
  987TIP3   OH2 2924   3.949   0.283   5.625
  987TIP3    H1 2925   3.973   0.318   5.539
  987TIP3    H2 2926   3.873   0.334   5.652
  988TIP3   OH2 2927   3.483   0.771   5.722
  988TIP3    H1 2928   3.472   0.843   5.785
  988TIP3    H2 2929   3.399   0.724   5.725
  989TIP3   OH2 2930   2.871   6.000   3.237
  989TIP3    H1 2931   2.852   5.925   3.179
  989TIP3    H2 2932   2.901   5.960   3.318
  990TIP3   OH2 2933   6.794   2.049   0.078
  990TIP3    H1 2934   6.773   2.043  -0.016
  990TIP3    H2 2935   6.888   2.032   0.082
  991TIP3   OH2 2936   2.220   4.914   3.353
  991TIP3    H1 2937   2.239   4.883   3.442
  991TIP3    H2 2938   2.181   4.838   3.310
  992TIP3   OH2 2939   5.251   0.692   5.534
  992TIP3    H1 2940   5.344   0.676   5.516
  992TIP3    H2 2941   5.236   0.782   5.504
  993TIP3   OH2 2942   2.372   6.643   0.234
  993TIP3    H1 2943   2.354   6.555   0.267
  993TIP3    H2 2944   2.299   6.696   0.265
  994TIP3   OH2 2945   5.468   1.196   2.737
  994TIP3    H1 2946   5.402   1.233   2.678
  994TIP3    H2 2947   5.464   1.251   2.815
  995TIP3   OH2 2948   7.070   6.407   5.232
  995TIP3    H1 2949   7.009   6.395   5.304
  995TIP3    H2 2950   7.077   6.502   5.222
  996TIP3   OH2 2951   0.322   2.070   4.618
  996TIP3    H1 2952   0.283   2.116   4.692
  996TIP3    H2 2953   0.412   2.103   4.614
  997TIP3   OH2 2954   2.054   6.280   3.751
  997TIP3    H1 2955   2.131   6.333   3.729
  997TIP3    H2 2956   2.056   6.273   3.846
  998TIP3   OH2 2957   4.625   4.634   3.734
  998TIP3    H1 2958   4.629   4.552   3.684
  998TIP3    H2 2959   4.622   4.703   3.668
  999TIP3   OH2 2960   1.234   5.782   2.298
  999TIP3    H1 2961   1.227   5.689   2.316
  999TIP3    H2 2962   1.293   5.788   2.223
 1000TIP3   OH2 2963   6.627   1.877   3.208
 1000TIP3    H1 2964   6.564   1.819   3.165
 1000TIP3    H2 2965   6.650   1.831   3.289
 1001TIP3   OH2 2966   2.618   0.520   2.676
 1001TIP3    H1 2967   2.669   0.565   2.743
 1001TIP3    H2 2968   2.683   0.482   2.617
 1002TIP3   OH2 2969   0.430   0.374   3.967
 1002TIP3    H1 2970   0.408   0.318   3.892
 1002TIP3    H2 2971   0.348   0.417   3.989
 1003TIP3   OH2 2972   3.879   2.367   1.833
 1003TIP3    H1 2973   3.942   2.306   1.794
 1003TIP3    H2 2974   3.909   2.377   1.924
 1004TIP3   OH2 2975   2.313   5.154   3.856
 1004TIP3    H1 2976   2.227   5.138   3.817
 1004TIP3    H2 2977   2.357   5.069   3.855
 1005TIP3   OH2 2978   1.524   2.128   5.526
 1005TIP3    H1 2979   1.489   2.171   5.604
 1005TIP3    H2 2980   1.543   2.201   5.466
 1006TIP3   OH2 2981   1.430   1.672   4.553
 1006TIP3    H1 2982   1.513   1.705   4.518
 1006TIP3    H2 2983   1.365   1.738   4.528
 1007TIP3   OH2 2984   4.641   3.299   5.755
 1007TIP3    H1 2985   4.557   3.265   5.724
 1007TIP3    H2 2986   4.622   3.330   5.844
 1008TIP3   OH2 2987   4.549   6.455   2.835
 1008TIP3    H1 2988   4.529   6.457   2.742
 1008TIP3    H2 2989   4.538   6.545   2.865
 1009TIP3   OH2 2990   0.141   0.188   4.877
 1009TIP3    H1 2991   0.199   0.113   4.861
 1009TIP3    H2 2992   0.131   0.190   4.973
 1010TIP3   OH2 2993   0.230   0.130   1.852
 1010TIP3    H1 2994   0.321   0.123   1.881
 1010TIP3    H2 2995   0.235   0.120   1.757
 1011TIP3   OH2 2996   0.472   3.155   3.412
 1011TIP3    H1 2997   0.536   3.185   3.347
 1011TIP3    H2 2998   0.464   3.228   3.474
 1012TIP3   OH2 2999   5.069   3.360   4.902
 1012TIP3    H1 3000   4.993   3.412   4.875
 1012TIP3    H2 3001   5.116   3.416   4.964
 1013TIP3   OH2 3002   2.277   6.400   1.481
 1013TIP3    H1 3003   2.190   6.374   1.512
 1013TIP3    H2 3004   2.260   6.452   1.402
 1014TIP3   OH2 3005   6.445   2.136   3.678
 1014TIP3    H1 3006   6.503   2.129   3.754
 1014TIP3    H2 3007   6.358   2.148   3.715
 1015TIP3   OH2 3008   6.002   2.969   0.439
 1015TIP3    H1 3009   5.911   2.986   0.464
 1015TIP3    H2 3010   5.997   2.948   0.346
 1016TIP3   OH2 3011   3.420   3.719   0.144
 1016TIP3    H1 3012   3.364   3.755   0.213
 1016TIP3    H2 3013   3.386   3.631   0.129
 1017TIP3   OH2 3014   7.157   3.161   0.753
 1017TIP3    H1 3015   7.231   3.124   0.801
 1017TIP3    H2 3016   7.193   3.182   0.666
 1018TIP3   OH2 3017   6.049   4.865   4.980
 1018TIP3    H1 3018   6.126   4.877   5.036
 1018TIP3    H2 3019   6.064   4.781   4.937
 1019TIP3   OH2 3020   5.079   1.558   2.493
 1019TIP3    H1 3021   5.135   1.497   2.444
 1019TIP3    H2 3022   5.002   1.506   2.516
 1020TIP3   OH2 3023   1.127   4.461   1.502
 1020TIP3    H1 3024   1.221   4.452   1.521
 1020TIP3    H2 3025   1.102   4.376   1.466
 1021TIP3   OH2 3026   3.484   5.140   2.199
 1021TIP3    H1 3027   3.457   5.213   2.255
 1021TIP3    H2 3028   3.540   5.181   2.132
 1022TIP3   OH2 3029   6.027   6.651   5.291
 1022TIP3    H1 3030   6.119   6.633   5.272
 1022TIP3    H2 3031   6.001   6.583   5.354
 1023TIP3   OH2 3032   3.406   5.859   2.560
 1023TIP3    H1 3033   3.351   5.823   2.491
 1023TIP3    H2 3034   3.493   5.822   2.544
 1024TIP3   OH2 3035   2.813   4.315   2.327
 1024TIP3    H1 3036   2.846   4.316   2.237
 1024TIP3    H2 3037   2.770   4.230   2.336
 1025TIP3   OH2 3038   2.400   1.464   0.611
 1025TIP3    H1 3039   2.440   1.473   0.525
 1025TIP3    H2 3040   2.386   1.554   0.641
 1026TIP3   OH2 3041   2.128   4.589   1.219
 1026TIP3    H1 3042   2.144   4.680   1.195
 1026TIP3    H2 3043   2.101   4.547   1.137
 1027TIP3   OH2 3044   2.944   0.390   2.699
 1027TIP3    H1 3045   2.901   0.473   2.718
 1027TIP3    H2 3046   3.010   0.381   2.768
 1028TIP3   OH2 3047   6.441   4.126   0.761
 1028TIP3    H1 3048   6.389   4.147   0.683
 1028TIP3    H2 3049   6.382   4.144   0.834
 1029TIP3   OH2 3050   2.336   5.115   0.022
 1029TIP3    H1 3051   2.353   5.209   0.025
 1029TIP3    H2 3052   2.300   5.095   0.108
 1030TIP3   OH2 3053   6.436   2.758   1.085
 1030TIP3    H1 3054   6.519   2.741   1.130
 1030TIP3    H2 3055   6.419   2.851   1.102
 1031TIP3   OH2 3056   1.038   0.415   1.037
 1031TIP3    H1 3057   1.056   0.466   0.958
 1031TIP3    H2 3058   1.011   0.329   1.004
 1032TIP3   OH2 3059   1.673   3.836   2.070
 1032TIP3    H1 3060   1.729   3.906   2.039
 1032TIP3    H2 3061   1.733   3.770   2.105
 1033TIP3   OH2 3062   0.652   5.786   5.137
 1033TIP3    H1 3063   0.583   5.819   5.196
 1033TIP3    H2 3064   0.734   5.815   5.178
 1034TIP3   OH2 3065   4.557   3.591   3.588
 1034TIP3    H1 3066   4.550   3.496   3.582
 1034TIP3    H2 3067   4.471   3.620   3.617
 1035TIP3   OH2 3068   1.051   5.953   5.162
 1035TIP3    H1 3069   0.969   5.939   5.208
 1035TIP3    H2 3070   1.118   5.921   5.222
 1036TIP3   OH2 3071   0.551   0.739   1.605
 1036TIP3    H1 3072   0.513   0.743   1.693
 1036TIP3    H2 3073   0.588   0.651   1.598
 1037TIP3   OH2 3074   7.110   0.068   4.760
 1037TIP3    H1 3075   7.162   0.038   4.686
 1037TIP3    H2 3076   7.172   0.075   4.832
 1038TIP3   OH2 3077   1.969   5.923   0.863
 1038TIP3    H1 3078   2.022   5.942   0.940
 1038TIP3    H2 3079   2.029   5.880   0.802
 1039TIP3   OH2 3080   3.852   3.230   3.914
 1039TIP3    H1 3081   3.877   3.242   4.005
 1039TIP3    H2 3082   3.784   3.296   3.898
 1040TIP3   OH2 3083   0.618   5.048   2.497
 1040TIP3    H1 3084   0.706   5.081   2.479
 1040TIP3    H2 3085   0.560   5.122   2.481
 1041TIP3   OH2 3086   5.814   3.804   0.267
 1041TIP3    H1 3087   5.813   3.822   0.361
 1041TIP3    H2 3088   5.808   3.890   0.226
 1042TIP3   OH2 3089   2.948   5.483   0.623
 1042TIP3    H1 3090   2.965   5.530   0.541
 1042TIP3    H2 3091   2.948   5.391   0.598
 1043TIP3   OH2 3092   5.553   6.722   2.348
 1043TIP3    H1 3093   5.498   6.674   2.287
 1043TIP3    H2 3094   5.522   6.695   2.435
 1044TIP3   OH2 3095   4.724   4.160   5.213
 1044TIP3    H1 3096   4.697   4.250   5.229
 1044TIP3    H2 3097   4.787   4.166   5.141
 1045TIP3   OH2 3098   0.163   5.694   4.735
 1045TIP3    H1 3099   0.210   5.647   4.805
 1045TIP3    H2 3100   0.207   5.666   4.655
 1046TIP3   OH2 3101   1.179   1.122   3.283
 1046TIP3    H1 3102   1.219   1.132   3.196
 1046TIP3    H2 3103   1.242   1.161   3.343
 1047TIP3   OH2 3104   4.891   3.586   2.978
 1047TIP3    H1 3105   4.878   3.681   2.970
 1047TIP3    H2 3106   4.986   3.575   2.978
 1048TIP3   OH2 3107   4.090   0.764   4.347
 1048TIP3    H1 3108   4.182   0.762   4.372
 1048TIP3    H2 3109   4.090   0.756   4.252
 1049TIP3   OH2 3110   1.914   0.667   1.812
 1049TIP3    H1 3111   1.890   0.650   1.721
 1049TIP3    H2 3112   2.007   0.647   1.817
 1050TIP3   OH2 3113   1.748   2.489   2.633
 1050TIP3    H1 3114   1.666   2.488   2.585
 1050TIP3    H2 3115   1.779   2.398   2.630
 1051TIP3   OH2 3116   2.024   3.057   5.669
 1051TIP3    H1 3117   1.944   3.109   5.682
 1051TIP3    H2 3118   1.994   2.966   5.671
 1052TIP3   OH2 3119   6.679   2.480   3.191
 1052TIP3    H1 3120   6.736   2.505   3.263
 1052TIP3    H2 3121   6.594   2.465   3.232
 1053TIP3   OH2 3122   0.339   4.357   0.480
 1053TIP3    H1 3123   0.315   4.284   0.423
 1053TIP3    H2 3124   0.297   4.433   0.440
 1054TIP3   OH2 3125   0.757   6.705   4.033
 1054TIP3    H1 3126   0.663   6.723   4.022
 1054TIP3    H2 3127   0.768   6.616   3.999
 1055TIP3   OH2 3128   1.840   4.998   4.381
 1055TIP3    H1 3129   1.854   5.041   4.466
 1055TIP3    H2 3130   1.849   4.904   4.401
 1056TIP3   OH2 3131   0.382   1.996   3.047
 1056TIP3    H1 3132   0.475   1.988   3.067
 1056TIP3    H2 3133   0.344   2.036   3.125
 1057TIP3   OH2 3134   1.920   1.914   3.456
 1057TIP3    H1 3135   1.910   2.003   3.490
 1057TIP3    H2 3136   1.883   1.858   3.524
 1058TIP3   OH2 3137   1.268   3.877   1.956
 1058TIP3    H1 3138   1.310   3.949   1.909
 1058TIP3    H2 3139   1.225   3.826   1.887
 1059TIP3   OH2 3140   6.164   6.753   0.077
 1059TIP3    H1 3141   6.180   6.821   0.142
 1059TIP3    H2 3142   6.198   6.673   0.116
 1060TIP3   OH2 3143   0.875   1.378   5.573
 1060TIP3    H1 3144   0.874   1.306   5.509
 1060TIP3    H2 3145   0.831   1.342   5.650
 1061TIP3   OH2 3146   6.074   2.930   0.163
 1061TIP3    H1 3147   6.128   2.852   0.151
 1061TIP3    H2 3148   6.135   3.003   0.148
 1062TIP3   OH2 3149   3.355   0.601   4.651
 1062TIP3    H1 3150   3.410   0.578   4.576
 1062TIP3    H2 3151   3.412   0.654   4.707
 1063TIP3   OH2 3152   5.944   1.229   3.191
 1063TIP3    H1 3153   6.018   1.225   3.253
 1063TIP3    H2 3154   5.944   1.320   3.161
 1064TIP3   OH2 3155   7.152   3.025   5.491
 1064TIP3    H1 3156   7.075   3.081   5.499
 1064TIP3    H2 3157   7.200   3.061   5.417
 1065TIP3   OH2 3158   1.157   6.452   3.616
 1065TIP3    H1 3159   1.234   6.452   3.673
 1065TIP3    H2 3160   1.091   6.404   3.665
 1066TIP3   OH2 3161   0.425   4.670   3.121
 1066TIP3    H1 3162   0.388   4.755   3.143
 1066TIP3    H2 3163   0.520   4.682   3.129
 1067TIP3   OH2 3164   2.798   5.284   0.232
 1067TIP3    H1 3165   2.839   5.283   0.319
 1067TIP3    H2 3166   2.825   5.200   0.193
 1068TIP3   OH2 3167   0.571   1.255   2.244
 1068TIP3    H1 3168   0.519   1.264   2.164
 1068TIP3    H2 3169   0.654   1.216   2.215
 1069TIP3   OH2 3170   7.055   4.531   1.560
 1069TIP3    H1 3171   6.999   4.526   1.638
 1069TIP3    H2 3172   7.006   4.484   1.493
 1070TIP3   OH2 3173   2.193   6.457   4.653
 1070TIP3    H1 3174   2.175   6.421   4.566
 1070TIP3    H2 3175   2.181   6.552   4.643
 1071TIP3   OH2 3176   4.650   5.674   5.709
 1071TIP3    H1 3177   4.594   5.667   5.631
 1071TIP3    H2 3178   4.667   5.768   5.717
 1072TIP3   OH2 3179   0.344   4.441   5.041
 1072TIP3    H1 3180   0.434   4.475   5.040
 1072TIP3    H2 3181   0.321   4.432   4.949
 1073TIP3   OH2 3182   4.176   3.240   1.037
 1073TIP3    H1 3183   4.229   3.209   0.963
 1073TIP3    H2 3184   4.203   3.331   1.049
 1074TIP3   OH2 3185   1.657   0.920   2.524
 1074TIP3    H1 3186   1.577   0.971   2.531
 1074TIP3    H2 3187   1.648   0.871   2.442
 1075TIP3   OH2 3188   0.027   2.946   4.052
 1075TIP3    H1 3189  -0.041   2.956   4.119
 1075TIP3    H2 3190   0.023   3.027   4.001
 1076TIP3   OH2 3191   0.388   6.176   2.040
 1076TIP3    H1 3192   0.467   6.124   2.049
 1076TIP3    H2 3193   0.339   6.134   1.969
 1077TIP3   OH2 3194   1.551   0.696   1.181
 1077TIP3    H1 3195   1.620   0.732   1.125
 1077TIP3    H2 3196   1.506   0.633   1.125
 1078TIP3   OH2 3197   3.371   2.355   0.750
 1078TIP3    H1 3198   3.400   2.331   0.662
 1078TIP3    H2 3199   3.364   2.273   0.797
 1079TIP3   OH2 3200   6.291   1.613   5.257
 1079TIP3    H1 3201   6.254   1.526   5.268
 1079TIP3    H2 3202   6.303   1.646   5.346
 1080TIP3   OH2 3203   7.153   0.880   3.968
 1080TIP3    H1 3204   7.102   0.830   4.032
 1080TIP3    H2 3205   7.111   0.967   3.967
 1081TIP3   OH2 3206   5.669   6.770   4.540
 1081TIP3    H1 3207   5.660   6.817   4.457
 1081TIP3    H2 3208   5.598   6.803   4.595
 1082TIP3   OH2 3209   1.814   4.537   2.554
 1082TIP3    H1 3210   1.822   4.443   2.538
 1082TIP3    H2 3211   1.743   4.545   2.618
 1083TIP3   OH2 3212   2.268   3.795   1.659
 1083TIP3    H1 3213   2.306   3.855   1.595
 1083TIP3    H2 3214   2.215   3.735   1.607
 1084TIP3   OH2 3215   1.101   0.463   4.005
 1084TIP3    H1 3216   1.061   0.528   4.063
 1084TIP3    H2 3217   1.081   0.495   3.916
 1085TIP3   OH2 3218   1.896   4.717   4.098
 1085TIP3    H1 3219   1.916   4.628   4.129
 1085TIP3    H2 3220   1.838   4.752   4.165
 1086TIP3   OH2 3221   3.533   4.871   3.567
 1086TIP3    H1 3222   3.575   4.930   3.503
 1086TIP3    H2 3223   3.563   4.903   3.652
 1087TIP3   OH2 3224   0.160   3.681   5.441
 1087TIP3    H1 3225   0.078   3.694   5.489
 1087TIP3    H2 3226   0.188   3.769   5.417
 1088TIP3   OH2 3227   4.725   0.406   0.344
 1088TIP3    H1 3228   4.709   0.415   0.438
 1088TIP3    H2 3229   4.649   0.447   0.303
 1089TIP3   OH2 3230   0.511   1.752   2.769
 1089TIP3    H1 3231   0.449   1.825   2.770
 1089TIP3    H2 3232   0.458   1.676   2.744
 1090TIP3   OH2 3233   3.781   0.099   3.317
 1090TIP3    H1 3234   3.742   0.186   3.303
 1090TIP3    H2 3235   3.705   0.041   3.330
 1091TIP3   OH2 3236   5.734   6.579   1.037
 1091TIP3    H1 3237   5.679   6.544   0.967
 1091TIP3    H2 3238   5.705   6.670   1.046
 1092TIP3   OH2 3239   6.709   2.693   1.235
 1092TIP3    H1 3240   6.774   2.651   1.178
 1092TIP3    H2 3241   6.707   2.638   1.313
 1093TIP3   OH2 3242   1.427   2.533   2.698
 1093TIP3    H1 3243   1.455   2.505   2.611
 1093TIP3    H2 3244   1.336   2.507   2.704
 1094TIP3   OH2 3245   3.169   6.459   3.674
 1094TIP3    H1 3246   3.141   6.508   3.597
 1094TIP3    H2 3247   3.196   6.526   3.737
 1095TIP3   OH2 3248   4.187   4.779   0.421
 1095TIP3    H1 3249   4.132   4.783   0.343
 1095TIP3    H2 3250   4.203   4.685   0.434
 1096TIP3   OH2 3251   6.944   6.295   4.038
 1096TIP3    H1 3252   6.915   6.376   4.080
 1096TIP3    H2 3253   6.991   6.248   4.107
 1097TIP3   OH2 3254   5.209   3.086   0.399
 1097TIP3    H1 3255   5.222   3.016   0.464
 1097TIP3    H2 3256   5.182   3.162   0.450
 1098TIP3   OH2 3257   3.494   0.781   2.608
 1098TIP3    H1 3258   3.401   0.762   2.598
 1098TIP3    H2 3259   3.513   0.846   2.540
 1099TIP3   OH2 3260   4.462   0.441   5.304
 1099TIP3    H1 3261   4.429   0.369   5.249
 1099TIP3    H2 3262   4.399   0.448   5.375
 1100TIP3   OH2 3263   0.060   0.259   4.117
 1100TIP3    H1 3264   0.048   0.332   4.055
 1100TIP3    H2 3265   0.038   0.297   4.202
 1101TIP3   OH2 3266   6.240   1.013   5.437
 1101TIP3    H1 3267   6.238   0.964   5.355
 1101TIP3    H2 3268   6.326   1.054   5.439
 1102TIP3   OH2 3269   0.273   6.726   2.219
 1102TIP3    H1 3270   0.229   6.811   2.208
 1102TIP3    H2 3271   0.211   6.662   2.185
 1103TIP3   OH2 3272   3.487   0.942   5.442
 1103TIP3    H1 3273   3.501   0.994   5.521
 1103TIP3    H2 3274   3.488   1.005   5.370
 1104TIP3   OH2 3275   0.541   2.762   4.165
 1104TIP3    H1 3276   0.448   2.759   4.189
 1104TIP3    H2 3277   0.549   2.699   4.093
 1105TIP3   OH2 3278   0.619   4.074   4.567
 1105TIP3    H1 3279   0.548   4.124   4.608
 1105TIP3    H2 3280   0.615   4.097   4.474
 1106TIP3   OH2 3281   4.614   4.089   1.167
 1106TIP3    H1 3282   4.550   4.055   1.230
 1106TIP3    H2 3283   4.655   4.011   1.129
 1107TIP3   OH2 3284   5.187   4.445   4.345
 1107TIP3    H1 3285   5.164   4.353   4.343
 1107TIP3    H2 3286   5.149   4.481   4.265
 1108TIP3   OH2 3287   3.628   4.191   3.293
 1108TIP3    H1 3288   3.602   4.283   3.288
 1108TIP3    H2 3289   3.721   4.191   3.270
 1109TIP3   OH2 3290   4.362   2.503   0.929
 1109TIP3    H1 3291   4.436   2.458   0.889
 1109TIP3    H2 3292   4.314   2.540   0.855
 1110TIP3   OH2 3293   4.246   5.923   4.446
 1110TIP3    H1 3294   4.191   5.958   4.517
 1110TIP3    H2 3295   4.332   5.911   4.487
 1111TIP3   OH2 3296   1.935   5.625   0.826
 1111TIP3    H1 3297   1.871   5.689   0.796
 1111TIP3    H2 3298   2.020   5.667   0.813
 1112TIP3   OH2 3299   0.782   4.783   4.059
 1112TIP3    H1 3300   0.746   4.813   4.142
 1112TIP3    H2 3301   0.720   4.716   4.029
 1113TIP3   OH2 3302   4.007   1.687   2.087
 1113TIP3    H1 3303   4.017   1.670   1.993
 1113TIP3    H2 3304   3.919   1.724   2.096
 1114TIP3   OH2 3305   1.232   5.652   4.626
 1114TIP3    H1 3306   1.268   5.564   4.617
 1114TIP3    H2 3307   1.205   5.677   4.538
 1115TIP3   OH2 3308   1.014   4.696   5.036
 1115TIP3    H1 3309   1.084   4.747   5.077
 1115TIP3    H2 3310   1.050   4.671   4.950
 1116TIP3   OH2 3311   0.420   0.452   5.758
 1116TIP3    H1 3312   0.456   0.524   5.809
 1116TIP3    H2 3313   0.483   0.440   5.686
 1117TIP3   OH2 3314   6.313   6.494   5.217
 1117TIP3    H1 3315   6.398   6.533   5.199
 1117TIP3    H2 3316   6.321   6.462   5.307
 1118TIP3   OH2 3317   4.229   2.184   3.076
 1118TIP3    H1 3318   4.313   2.146   3.050
 1118TIP3    H2 3319   4.210   2.248   3.007
 1119TIP3   OH2 3320   3.666   4.823   0.560
 1119TIP3    H1 3321   3.706   4.785   0.638
 1119TIP3    H2 3322   3.738   4.868   0.516
 1120TIP3   OH2 3323   3.811   0.198   4.602
 1120TIP3    H1 3324   3.725   0.157   4.605
 1120TIP3    H2 3325   3.870   0.128   4.575
 1121TIP3   OH2 3326   2.938   0.507   4.142
 1121TIP3    H1 3327   3.004   0.516   4.073
 1121TIP3    H2 3328   2.978   0.550   4.218
 1122TIP3   OH2 3329  -0.062   4.662   5.123
 1122TIP3    H1 3330  -0.093   4.672   5.033
 1122TIP3    H2 3331  -0.036   4.571   5.130
 1123TIP3   OH2 3332   4.463   3.354   5.225
 1123TIP3    H1 3333   4.502   3.385   5.143
 1123TIP3    H2 3334   4.418   3.432   5.260
 1124TIP3   OH2 3335   0.799   1.707   0.825
 1124TIP3    H1 3336   0.784   1.620   0.789
 1124TIP3    H2 3337   0.887   1.730   0.796
 1125TIP3   OH2 3338   6.136   2.868   5.188
 1125TIP3    H1 3339   6.102   2.779   5.200
 1125TIP3    H2 3340   6.204   2.858   5.122
 1126TIP3   OH2 3341   6.798   4.378   1.174
 1126TIP3    H1 3342   6.809   4.421   1.089
 1126TIP3    H2 3343   6.835   4.290   1.160
 1127TIP3   OH2 3344   6.891   1.576   3.354
 1127TIP3    H1 3345   6.969   1.528   3.381
 1127TIP3    H2 3346   6.921   1.666   3.342
 1128TIP3   OH2 3347   5.094   6.769   4.827
 1128TIP3    H1 3348   5.130   6.722   4.902
 1128TIP3    H2 3349   5.162   6.763   4.760
 1129TIP3   OH2 3350   3.893   2.461   4.405
 1129TIP3    H1 3351   3.921   2.371   4.425
 1129TIP3    H2 3352   3.908   2.509   4.486
 1130TIP3   OH2 3353   5.384   3.816   2.979
 1130TIP3    H1 3354   5.357   3.801   2.888
 1130TIP3    H2 3355   5.308   3.857   3.020
 1131TIP3   OH2 3356   2.718   1.823   0.574
 1131TIP3    H1 3357   2.648   1.885   0.597
 1131TIP3    H2 3358   2.701   1.746   0.629
 1132TIP3   OH2 3359   5.728   2.935   3.941
 1132TIP3    H1 3360   5.805   2.967   3.895
 1132TIP3    H2 3361   5.759   2.858   3.989
 1133TIP3   OH2 3362   6.741   6.478   2.130
 1133TIP3    H1 3363   6.700   6.563   2.137
 1133TIP3    H2 3364   6.672   6.420   2.099
 1134TIP3   OH2 3365   5.190   2.433   2.275
 1134TIP3    H1 3366   5.096   2.448   2.265
 1134TIP3    H2 3367   5.230   2.514   2.244
 1135TIP3   OH2 3368   4.623   5.982   1.389
 1135TIP3    H1 3369   4.555   5.918   1.369
 1135TIP3    H2 3370   4.623   5.988   1.485
 1136TIP3   OH2 3371   2.671   0.919   5.115
 1136TIP3    H1 3372   2.647   0.978   5.043
 1136TIP3    H2 3373   2.615   0.946   5.188
 1137TIP3   OH2 3374   3.062   3.660   1.886
 1137TIP3    H1 3375   3.154   3.654   1.861
 1137TIP3    H2 3376   3.014   3.637   1.807
 1138TIP3   OH2 3377   5.185   2.515   1.899
 1138TIP3    H1 3378   5.192   2.545   1.808
 1138TIP3    H2 3379   5.147   2.428   1.893
 1139TIP3   OH2 3380   0.495   5.820   3.663
 1139TIP3    H1 3381   0.538   5.903   3.684
 1139TIP3    H2 3382   0.567   5.761   3.642
 1140TIP3   OH2 3383   3.921   1.455   0.269
 1140TIP3    H1 3384   3.944   1.385   0.330
 1140TIP3    H2 3385   4.002   1.506   0.259
 1141TIP3   OH2 3386   1.552   1.499   2.268
 1141TIP3    H1 3387   1.529   1.417   2.311
 1141TIP3    H2 3388   1.634   1.526   2.308
 1142TIP3   OH2 3389   6.387   1.168   3.523
 1142TIP3    H1 3390   6.438   1.101   3.478
 1142TIP3    H2 3391   6.356   1.125   3.603
 1143TIP3   OH2 3392   3.516   6.484   2.515
 1143TIP3    H1 3393   3.494   6.490   2.608
 1143TIP3    H2 3394   3.559   6.400   2.505
 1144TIP3   OH2 3395   3.508   0.385   1.778
 1144TIP3    H1 3396   3.574   0.448   1.807
 1144TIP3    H2 3397   3.468   0.355   1.860
 1145TIP3   OH2 3398   2.868   6.238   3.382
 1145TIP3    H1 3399   2.890   6.211   3.471
 1145TIP3    H2 3400   2.868   6.157   3.332
 1146TIP3   OH2 3401   7.110   0.359   4.335
 1146TIP3    H1 3402   7.058   0.288   4.373
 1146TIP3    H2 3403   7.045   0.420   4.299
 1147TIP3   OH2 3404   2.269   6.446   3.643
 1147TIP3    H1 3405   2.231   6.533   3.640
 1147TIP3    H2 3406   2.344   6.454   3.703
 1148TIP3   OH2 3407   4.150   3.988   5.516
 1148TIP3    H1 3408   4.153   4.077   5.551
 1148TIP3    H2 3409   4.180   3.997   5.425
 1149TIP3   OH2 3410   0.936   3.768   3.686
 1149TIP3    H1 3411   0.906   3.828   3.754
 1149TIP3    H2 3412   1.023   3.740   3.714
 1150TIP3   OH2 3413   2.154   6.763   4.619
 1150TIP3    H1 3414   2.147   6.780   4.525
 1150TIP3    H2 3415   2.234   6.808   4.646
 1151TIP3   OH2 3416   6.139   4.539   0.689
 1151TIP3    H1 3417   6.102   4.567   0.773
 1151TIP3    H2 3418   6.216   4.487   0.714
 1152TIP3   OH2 3419   5.182   5.999   0.775
 1152TIP3    H1 3420   5.214   5.937   0.840
 1152TIP3    H2 3421   5.256   6.059   0.762
 1153TIP3   OH2 3422   4.722   4.984   5.407
 1153TIP3    H1 3423   4.702   5.048   5.339
 1153TIP3    H2 3424   4.651   4.993   5.470
 1154TIP3   OH2 3425   3.129   2.435   5.548
 1154TIP3    H1 3426   3.070   2.387   5.490
 1154TIP3    H2 3427   3.194   2.474   5.489
 1155TIP3   OH2 3428   5.836   6.658   1.448
 1155TIP3    H1 3429   5.916   6.638   1.495
 1155TIP3    H2 3430   5.836   6.599   1.373
 1156TIP3   OH2 3431   1.573   6.709   3.419
 1156TIP3    H1 3432   1.498   6.760   3.387
 1156TIP3    H2 3433   1.609   6.760   3.491
 1157TIP3   OH2 3434   2.610   1.832   3.676
 1157TIP3    H1 3435   2.556   1.889   3.622
 1157TIP3    H2 3436   2.677   1.799   3.617
 1158TIP3   OH2 3437   3.546   1.920   5.365
 1158TIP3    H1 3438   3.520   1.836   5.404
 1158TIP3    H2 3439   3.480   1.936   5.298
 1159TIP3   OH2 3440   6.054   3.874   4.755
 1159TIP3    H1 3441   6.106   3.890   4.676
 1159TIP3    H2 3442   5.994   3.803   4.731
 1160TIP3   OH2 3443   5.287   5.896   2.555
 1160TIP3    H1 3444   5.201   5.905   2.597
 1160TIP3    H2 3445   5.271   5.838   2.481
 1161TIP3   OH2 3446   6.629   5.013   3.296
 1161TIP3    H1 3447   6.644   4.967   3.213
 1161TIP3    H2 3448   6.689   5.087   3.293
 1162TIP3   OH2 3449   0.981   4.005   0.407
 1162TIP3    H1 3450   1.028   3.949   0.345
 1162TIP3    H2 3451   0.895   3.965   0.415
 1163TIP3   OH2 3452   4.258   3.871   2.384
 1163TIP3    H1 3453   4.299   3.846   2.466
 1163TIP3    H2 3454   4.176   3.915   2.409
 1164TIP3   OH2 3455   3.441   5.580   0.903
 1164TIP3    H1 3456   3.374   5.642   0.933
 1164TIP3    H2 3457   3.503   5.577   0.976
 1165TIP3   OH2 3458   5.303   1.521   4.726
 1165TIP3    H1 3459   5.237   1.489   4.665
 1165TIP3    H2 3460   5.366   1.569   4.671
 1166TIP3   OH2 3461   3.286   3.645   3.645
 1166TIP3    H1 3462   3.226   3.687   3.706
 1166TIP3    H2 3463   3.268   3.686   3.561
 1167TIP3   OH2 3464   4.209   2.037   3.575
 1167TIP3    H1 3465   4.289   2.032   3.524
 1167TIP3    H2 3466   4.195   2.131   3.589
 1168TIP3   OH2 3467   0.420   1.241   2.491
 1168TIP3    H1 3468   0.373   1.323   2.502
 1168TIP3    H2 3469   0.481   1.256   2.419
 1169TIP3   OH2 3470   4.581   5.951   2.724
 1169TIP3    H1 3471   4.644   5.932   2.793
 1169TIP3    H2 3472   4.516   6.008   2.765
 1170TIP3   OH2 3473   2.444   3.305   3.030
 1170TIP3    H1 3474   2.536   3.320   3.052
 1170TIP3    H2 3475   2.416   3.235   3.090
 1171TIP3   OH2 3476   4.047   0.265   2.193
 1171TIP3    H1 3477   3.993   0.345   2.191
 1171TIP3    H2 3478   4.009   0.209   2.125
 1172TIP3   OH2 3479   2.233   4.413   2.680
 1172TIP3    H1 3480   2.218   4.327   2.640
 1172TIP3    H2 3481   2.176   4.413   2.757
 1173TIP3   OH2 3482   2.328   4.365   5.568
 1173TIP3    H1 3483   2.406   4.375   5.622
 1173TIP3    H2 3484   2.346   4.286   5.516
 1174TIP3   OH2 3485   1.817   5.943   5.092
 1174TIP3    H1 3486   1.846   6.033   5.084
 1174TIP3    H2 3487   1.723   5.945   5.073
 1175TIP3   OH2 3488   0.662   1.759   4.509
 1175TIP3    H1 3489   0.728   1.721   4.451
 1175TIP3    H2 3490   0.580   1.748   4.461
 1176TIP3   OH2 3491   1.563   2.807   2.268
 1176TIP3    H1 3492   1.490   2.842   2.216
 1176TIP3    H2 3493   1.546   2.839   2.357
 1177TIP3   OH2 3494   2.494   1.443   3.089
 1177TIP3    H1 3495   2.534   1.522   3.126
 1177TIP3    H2 3496   2.567   1.382   3.080
 1178TIP3   OH2 3497   1.327   1.615   3.473
 1178TIP3    H1 3498   1.255   1.677   3.459
 1178TIP3    H2 3499   1.286   1.538   3.513
 1179TIP3   OH2 3500   2.756   1.984   5.686
 1179TIP3    H1 3501   2.821   1.999   5.754
 1179TIP3    H2 3502   2.795   2.022   5.607
 1180TIP3   OH2 3503   1.005   4.338   4.712
 1180TIP3    H1 3504   1.068   4.331   4.640
 1180TIP3    H2 3505   1.012   4.255   4.759
 1181TIP3   OH2 3506   3.104   3.497   0.540
 1181TIP3    H1 3507   3.075   3.524   0.454
 1181TIP3    H2 3508   3.034   3.523   0.599
 1182TIP3   OH2 3509   5.383   5.254   1.341
 1182TIP3    H1 3510   5.387   5.159   1.355
 1182TIP3    H2 3511   5.377   5.264   1.246
 1183TIP3   OH2 3512   3.291   3.945   0.828
 1183TIP3    H1 3513   3.321   3.899   0.750
 1183TIP3    H2 3514   3.284   4.036   0.800
 1184TIP3   OH2 3515   0.219   2.468   2.107
 1184TIP3    H1 3516   0.176   2.385   2.128
 1184TIP3    H2 3517   0.312   2.445   2.098
 1185TIP3   OH2 3518   2.933   3.037   5.279
 1185TIP3    H1 3519   2.887   3.067   5.201
 1185TIP3    H2 3520   3.019   3.079   5.275
 1186TIP3   OH2 3521   5.410   3.529   3.301
 1186TIP3    H1 3522   5.406   3.435   3.322
 1186TIP3    H2 3523   5.334   3.567   3.345
 1187TIP3   OH2 3524   5.395   1.380   0.151
 1187TIP3    H1 3525   5.394   1.303   0.207
 1187TIP3    H2 3526   5.306   1.385   0.115
 1188TIP3   OH2 3527   0.723   0.038   2.617
 1188TIP3    H1 3528   0.631   0.011   2.624
 1188TIP3    H2 3529   0.772  -0.035   2.655
 1189TIP3   OH2 3530   0.745   5.951   1.841
 1189TIP3    H1 3531   0.792   5.932   1.922
 1189TIP3    H2 3532   0.764   5.876   1.785
 1190TIP3   OH2 3533   2.098   0.390   0.164
 1190TIP3    H1 3534   2.108   0.326   0.093
 1190TIP3    H2 3535   2.099   0.475   0.120
 1191TIP3   OH2 3536   4.552   2.211   5.175
 1191TIP3    H1 3537   4.518   2.282   5.230
 1191TIP3    H2 3538   4.637   2.190   5.212
 1192TIP3   OH2 3539   2.684   6.843   1.801
 1192TIP3    H1 3540   2.615   6.796   1.848
 1192TIP3    H2 3541   2.714   6.782   1.734
 1193TIP3   OH2 3542   5.150   4.800   0.721
 1193TIP3    H1 3543   5.201   4.878   0.704
 1193TIP3    H2 3544   5.180   4.769   0.806
 1194TIP3   OH2 3545   6.765   4.024   1.862
 1194TIP3    H1 3546   6.690   4.083   1.871
 1194TIP3    H2 3547   6.728   3.941   1.834
 1195TIP3   OH2 3548   0.641   4.137   2.679
 1195TIP3    H1 3549   0.722   4.187   2.670
 1195TIP3    H2 3550   0.582   4.196   2.726
 1196TIP3   OH2 3551   5.817   1.153   1.754
 1196TIP3    H1 3552   5.798   1.163   1.661
 1196TIP3    H2 3553   5.779   1.068   1.777
 1197TIP3   OH2 3554   3.909   2.994   3.540
 1197TIP3    H1 3555   3.897   3.083   3.506
 1197TIP3    H2 3556   3.821   2.958   3.546
 1198TIP3   OH2 3557   1.139   4.765   2.113
 1198TIP3    H1 3558   1.205   4.717   2.163
 1198TIP3    H2 3559   1.072   4.699   2.094
 1199TIP3   OH2 3560   2.855   6.515   0.404
 1199TIP3    H1 3561   2.881   6.606   0.390
 1199TIP3    H2 3562   2.763   6.520   0.430
 1200TIP3   OH2 3563   7.097   3.834   2.855
 1200TIP3    H1 3564   7.125   3.757   2.806
 1200TIP3    H2 3565   7.003   3.838   2.841
 1201TIP3   OH2 3566   3.762   4.919   5.429
 1201TIP3    H1 3567   3.710   4.878   5.360
 1201TIP3    H2 3568   3.841   4.950   5.384
 1202TIP3   OH2 3569   3.258   5.664   0.363
 1202TIP3    H1 3570   3.277   5.686   0.454
 1202TIP3    H2 3571   3.163   5.655   0.360
 1203TIP3   OH2 3572   0.960   4.939   4.607
 1203TIP3    H1 3573   1.001   4.858   4.580
 1203TIP3    H2 3574   0.999   5.006   4.551
 1204TIP3   OH2 3575   4.723   3.508   1.726
 1204TIP3    H1 3576   4.659   3.437   1.721
 1204TIP3    H2 3577   4.806   3.466   1.702
 1205TIP3   OH2 3578   3.821   6.029   2.128
 1205TIP3    H1 3579   3.813   6.073   2.213
 1205TIP3    H2 3580   3.753   5.961   2.130
 1206TIP3   OH2 3581   2.123   3.670   0.875
 1206TIP3    H1 3582   2.164   3.585   0.889
 1206TIP3    H2 3583   2.196   3.732   0.873
 1207TIP3   OH2 3584   3.872   4.725   4.619
 1207TIP3    H1 3585   3.939   4.754   4.682
 1207TIP3    H2 3586   3.856   4.802   4.564
 1208TIP3   OH2 3587   1.683   1.790   4.484
 1208TIP3    H1 3588   1.739   1.728   4.438
 1208TIP3    H2 3589   1.726   1.804   4.568
 1209TIP3   OH2 3590   2.669   6.686   4.633
 1209TIP3    H1 3591   2.606   6.757   4.616
 1209TIP3    H2 3592   2.620   6.621   4.683
 1210TIP3   OH2 3593   3.606   2.108   5.022
 1210TIP3    H1 3594   3.680   2.111   4.961
 1210TIP3    H2 3595   3.528   2.113   4.966
 1211TIP3   OH2 3596   6.861   2.173   5.397
 1211TIP3    H1 3597   6.868   2.133   5.483
 1211TIP3    H2 3598   6.847   2.266   5.415
 1212TIP3   OH2 3599   6.001   1.108   3.859
 1212TIP3    H1 3600   5.965   1.111   3.947
 1212TIP3    H2 3601   5.960   1.032   3.818
 1213TIP3   OH2 3602   2.134   2.431   1.544
 1213TIP3    H1 3603   2.143   2.524   1.568
 1213TIP3    H2 3604   2.170   2.383   1.619
 1214TIP3   OH2 3605   6.191   0.029   4.571
 1214TIP3    H1 3606   6.098   0.005   4.581
 1214TIP3    H2 3607   6.231   0.002   4.654
 1215TIP3   OH2 3608   4.372   1.061   2.299
 1215TIP3    H1 3609   4.405   1.046   2.211
 1215TIP3    H2 3610   4.392   0.980   2.347
 1216TIP3   OH2 3611   2.102   6.328   0.811
 1216TIP3    H1 3612   2.130   6.411   0.773
 1216TIP3    H2 3613   2.152   6.322   0.893
 1217TIP3   OH2 3614   6.551   5.492  -0.103
 1217TIP3    H1 3615   6.638   5.520  -0.073
 1217TIP3    H2 3616   6.513   5.571  -0.142
 1218TIP3   OH2 3617   3.600   5.828   1.590
 1218TIP3    H1 3618   3.601   5.769   1.514
 1218TIP3    H2 3619   3.623   5.913   1.554
 1219TIP3   OH2 3620   2.362   0.564   2.563
 1219TIP3    H1 3621   2.435   0.598   2.615
 1219TIP3    H2 3622   2.313   0.507   2.622
 1220TIP3   OH2 3623   1.540   4.395   0.698
 1220TIP3    H1 3624   1.555   4.488   0.683
 1220TIP3    H2 3625   1.494   4.365   0.620
 1221TIP3   OH2 3626   7.112   3.924   3.642
 1221TIP3    H1 3627   7.120   3.845   3.588
 1221TIP3    H2 3628   7.154   3.993   3.591
 1222TIP3   OH2 3629   5.080   5.395   4.810
 1222TIP3    H1 3630   5.052   5.478   4.772
 1222TIP3    H2 3631   5.005   5.365   4.862
 1223TIP3   OH2 3632   3.385   4.921   4.121
 1223TIP3    H1 3633   3.478   4.901   4.117
 1223TIP3    H2 3634   3.345   4.841   4.155
 1224TIP3   OH2 3635   3.185   4.625   2.229
 1224TIP3    H1 3636   3.250   4.592   2.291
 1224TIP3    H2 3637   3.236   4.655   2.154
 1225TIP3   OH2 3638   5.333   2.420   4.549
 1225TIP3    H1 3639   5.327   2.463   4.634
 1225TIP3    H2 3640   5.267   2.351   4.551
 1226TIP3   OH2 3641   2.711   6.387   1.259
 1226TIP3    H1 3642   2.769   6.356   1.329
 1226TIP3    H2 3643   2.769   6.395   1.182
 1227TIP3   OH2 3644   5.464   6.067   0.963
 1227TIP3    H1 3645   5.496   6.047   1.051
 1227TIP3    H2 3646   5.537   6.046   0.905
 1228TIP3   OH2 3647   3.197   5.403   5.576
 1228TIP3    H1 3648   3.220   5.400   5.669
 1228TIP3    H2 3649   3.252   5.336   5.535
 1229TIP3   OH2 3650   5.923   4.356   2.378
 1229TIP3    H1 3651   5.926   4.273   2.426
 1229TIP3    H2 3652   5.933   4.422   2.446
 1230TIP3   OH2 3653   3.907   0.879   2.664
 1230TIP3    H1 3654   3.931   0.907   2.576
 1230TIP3    H2 3655   3.902   0.784   2.659
 1231TIP3   OH2 3656   0.697   3.820   4.640
 1231TIP3    H1 3657   0.721   3.843   4.729
 1231TIP3    H2 3658   0.722   3.896   4.587
 1232TIP3   OH2 3659   1.561   4.571   1.427
 1232TIP3    H1 3660   1.600   4.485   1.443
 1232TIP3    H2 3661   1.530   4.600   1.512
 1233TIP3   OH2 3662   6.974   2.159   3.296
 1233TIP3    H1 3663   6.903   2.161   3.231
 1233TIP3    H2 3664   6.937   2.205   3.372
 1234TIP3   OH2 3665   6.597   3.440   5.476
 1234TIP3    H1 3666   6.632   3.492   5.549
 1234TIP3    H2 3667   6.563   3.361   5.517
 1235TIP3   OH2 3668   3.373   2.566   4.126
 1235TIP3    H1 3669   3.458   2.544   4.089
 1235TIP3    H2 3670   3.371   2.662   4.126
 1236TIP3   OH2 3671   5.645   2.924   0.267
 1236TIP3    H1 3672   5.699   2.988   0.314
 1236TIP3    H2 3673   5.599   2.876   0.336
 1237TIP3   OH2 3674   3.991   1.519   3.223
 1237TIP3    H1 3675   3.973   1.436   3.179
 1237TIP3    H2 3676   3.982   1.500   3.316
 1238TIP3   OH2 3677   1.960   4.409   2.235
 1238TIP3    H1 3678   2.029   4.459   2.278
 1238TIP3    H2 3679   1.886   4.470   2.231
 1239TIP3   OH2 3680   3.880   6.188   2.618
 1239TIP3    H1 3681   3.922   6.190   2.532
 1239TIP3    H2 3682   3.832   6.270   2.623
 1240TIP3   OH2 3683   5.599   0.895   1.076
 1240TIP3    H1 3684   5.513   0.890   1.116
 1240TIP3    H2 3685   5.602   0.981   1.035
 1241TIP3   OH2 3686   2.492   1.661   0.891
 1241TIP3    H1 3687   2.578   1.656   0.848
 1241TIP3    H2 3688   2.434   1.699   0.825
 1242TIP3   OH2 3689   3.758   1.185   2.086
 1242TIP3    H1 3690   3.671   1.155   2.060
 1242TIP3    H2 3691   3.761   1.276   2.055
 1243TIP3   OH2 3692   4.488   2.405   5.341
 1243TIP3    H1 3693   4.572   2.396   5.386
 1243TIP3    H2 3694   4.425   2.362   5.398
 1244TIP3   OH2 3695   6.783   5.692   5.508
 1244TIP3    H1 3696   6.752   5.744   5.433
 1244TIP3    H2 3697   6.742   5.734   5.584
 1245TIP3   OH2 3698   6.671   1.779   5.240
 1245TIP3    H1 3699   6.749   1.724   5.245
 1245TIP3    H2 3700   6.702   1.862   5.205
 1246TIP3   OH2 3701   2.575   2.506   2.552
 1246TIP3    H1 3702   2.611   2.565   2.618
 1246TIP3    H2 3703   2.642   2.503   2.483
 1247TIP3   OH2 3704   1.563   2.258   0.247
 1247TIP3    H1 3705   1.514   2.341   0.250
 1247TIP3    H2 3706   1.648   2.282   0.211
 1248TIP3   OH2 3707   0.537   5.107   5.607
 1248TIP3    H1 3708   0.566   5.192   5.641
 1248TIP3    H2 3709   0.500   5.062   5.683
 1249TIP3   OH2 3710   6.886   6.784   2.923
 1249TIP3    H1 3711   6.968   6.789   2.873
 1249TIP3    H2 3712   6.867   6.690   2.927
 1250TIP3   OH2 3713   6.302   6.686   3.710
 1250TIP3    H1 3714   6.344   6.670   3.795
 1250TIP3    H2 3715   6.309   6.603   3.663
 1251TIP3   OH2 3716   1.675   0.418   3.658
 1251TIP3    H1 3717   1.600   0.375   3.698
 1251TIP3    H2 3718   1.705   0.481   3.723
 1252TIP3   OH2 3719   6.732   3.170   1.095
 1252TIP3    H1 3720   6.672   3.244   1.098
 1252TIP3    H2 3721   6.685   3.102   1.046
 1253TIP3   OH2 3722   1.606   4.324   2.551
 1253TIP3    H1 3723   1.634   4.255   2.612
 1253TIP3    H2 3724   1.524   4.291   2.514
 1254TIP3   OH2 3725   3.427   4.719   0.857
 1254TIP3    H1 3726   3.400   4.806   0.828
 1254TIP3    H2 3727   3.445   4.728   0.950
 1255TIP3   OH2 3728   4.095   1.242   3.898
 1255TIP3    H1 3729   4.155   1.260   3.970
 1255TIP3    H2 3730   4.107   1.314   3.837
 1256TIP3   OH2 3731   1.324   6.117   2.035
 1256TIP3    H1 3732   1.387   6.080   2.097
 1256TIP3    H2 3733   1.305   6.204   2.070
 1257TIP3   OH2 3734   2.681   1.950   0.931
 1257TIP3    H1 3735   2.616   2.000   0.980
 1257TIP3    H2 3736   2.679   1.988   0.843
 1258TIP3   OH2 3737   1.463   1.421   4.677
 1258TIP3    H1 3738   1.518   1.436   4.754
 1258TIP3    H2 3739   1.451   1.508   4.639
 1259TIP3   OH2 3740   2.185   5.352   4.018
 1259TIP3    H1 3741   2.092   5.335   4.034
 1259TIP3    H2 3742   2.212   5.282   3.960
 1260TIP3   OH2 3743   3.295   5.383   4.128
 1260TIP3    H1 3744   3.343   5.427   4.057
 1260TIP3    H2 3745   3.279   5.294   4.094
 1261TIP3   OH2 3746   2.630   1.914   1.451
 1261TIP3    H1 3747   2.536   1.896   1.458
 1261TIP3    H2 3748   2.640   2.003   1.486
 1262TIP3   OH2 3749   0.767   3.366   5.736
 1262TIP3    H1 3750   0.675   3.347   5.716
 1262TIP3    H2 3751   0.805   3.281   5.757
 1263TIP3   OH2 3752   1.770   0.456   2.824
 1263TIP3    H1 3753   1.821   0.464   2.744
 1263TIP3    H2 3754   1.798   0.373   2.862
 1264TIP3   OH2 3755   5.704   6.016   4.795
 1264TIP3    H1 3756   5.788   6.021   4.750
 1264TIP3    H2 3757   5.656   6.094   4.766
 1265TIP3   OH2 3758   5.241   0.087   5.648
 1265TIP3    H1 3759   5.210   0.175   5.627
 1265TIP3    H2 3760   5.223   0.077   5.742
 1266TIP3   OH2 3761   3.420   4.018   3.198
 1266TIP3    H1 3762   3.480   4.089   3.222
 1266TIP3    H2 3763   3.348   4.026   3.261
 1267TIP3   OH2 3764   5.671   3.109   5.692
 1267TIP3    H1 3765   5.678   3.013   5.691
 1267TIP3    H2 3766   5.642   3.130   5.780
 1268TIP3   OH2 3767   4.507   3.664   5.780
 1268TIP3    H1 3768   4.467   3.589   5.736
 1268TIP3    H2 3769   4.467   3.740   5.738
 1269TIP3   OH2 3770   5.173   6.588   5.013
 1269TIP3    H1 3771   5.267   6.600   5.000
 1269TIP3    H2 3772   5.161   6.493   5.017
 1270TIP3   OH2 3773   3.288   0.856   2.368
 1270TIP3    H1 3774   3.374   0.898   2.372
 1270TIP3    H2 3775   3.234   0.915   2.316
 1271TIP3   OH2 3776   1.782   4.032   1.208
 1271TIP3    H1 3777   1.704   4.010   1.158
 1271TIP3    H2 3778   1.780   3.972   1.283
 1272TIP3   OH2 3779   4.957   4.702   4.599
 1272TIP3    H1 3780   4.899   4.659   4.662
 1272TIP3    H2 3781   4.925   4.792   4.597
 1273TIP3   OH2 3782   0.989   0.443   3.486
 1273TIP3    H1 3783   1.037   0.365   3.457
 1273TIP3    H2 3784   0.913   0.408   3.534
 1274TIP3   OH2 3785   0.489   5.848  -0.035
 1274TIP3    H1 3786   0.464   5.759  -0.059
 1274TIP3    H2 3787   0.518   5.841   0.056
 1275TIP3   OH2 3788   4.373   6.517   3.471
 1275TIP3    H1 3789   4.394   6.425   3.486
 1275TIP3    H2 3790   4.282   6.526   3.500
 1276TIP3   OH2 3791   3.963   1.736   2.648
 1276TIP3    H1 3792   3.904   1.726   2.573
 1276TIP3    H2 3793   4.017   1.657   2.646
 1277TIP3   OH2 3794   0.407   5.819   5.605
 1277TIP3    H1 3795   0.440   5.891   5.659
 1277TIP3    H2 3796   0.419   5.741   5.659
 1278TIP3   OH2 3797   0.728   5.700   4.179
 1278TIP3    H1 3798   0.797   5.713   4.115
 1278TIP3    H2 3799   0.752   5.618   4.223
 1279TIP3   OH2 3800   6.242   3.646   4.554
 1279TIP3    H1 3801   6.301   3.708   4.598
 1279TIP3    H2 3802   6.301   3.589   4.505
 1280TIP3   OH2 3803   2.337   1.076   0.744
 1280TIP3    H1 3804   2.323   1.027   0.824
 1280TIP3    H2 3805   2.325   1.012   0.674
 1281TIP3   OH2 3806   5.149   2.166   5.790
 1281TIP3    H1 3807   5.131   2.094   5.850
 1281TIP3    H2 3808   5.072   2.223   5.797
 1282TIP3   OH2 3809   4.311   2.614   3.637
 1282TIP3    H1 3810   4.268   2.604   3.722
 1282TIP3    H2 3811   4.265   2.687   3.596
 1283TIP3   OH2 3812   0.381   2.436   0.411
 1283TIP3    H1 3813   0.410   2.372   0.476
 1283TIP3    H2 3814   0.298   2.470   0.446
 1284TIP3   OH2 3815   1.118   3.541   4.006
 1284TIP3    H1 3816   1.134   3.454   3.969
 1284TIP3    H2 3817   1.179   3.547   4.079
 1285TIP3   OH2 3818   4.978   2.501   3.008
 1285TIP3    H1 3819   4.964   2.408   2.988
 1285TIP3    H2 3820   4.967   2.545   2.924
 1286TIP3   OH2 3821   1.509   3.922   0.345
 1286TIP3    H1 3822   1.491   3.887   0.258
 1286TIP3    H2 3823   1.604   3.912   0.356
 1287TIP3   OH2 3824   3.571   5.950   4.856
 1287TIP3    H1 3825   3.553   5.862   4.822
 1287TIP3    H2 3826   3.496   6.002   4.826
 1288TIP3   OH2 3827   3.975   0.408   4.225
 1288TIP3    H1 3828   4.057   0.442   4.260
 1288TIP3    H2 3829   3.907   0.452   4.277
 1289TIP3   OH2 3830   5.612   1.429   0.006
 1289TIP3    H1 3831   5.541   1.433   0.070
 1289TIP3    H2 3832   5.613   1.514  -0.036
 1290TIP3   OH2 3833   6.950   2.018   1.940
 1290TIP3    H1 3834   6.945   2.017   2.035
 1290TIP3    H2 3835   6.897   2.094   1.914
 1291TIP3   OH2 3836   4.924   5.842   0.434
 1291TIP3    H1 3837   4.935   5.937   0.438
 1291TIP3    H2 3838   4.945   5.812   0.523
 1292TIP3   OH2 3839   6.971   2.368   5.774
 1292TIP3    H1 3840   6.936   2.279   5.763
 1292TIP3    H2 3841   7.058   2.363   5.735
 1293TIP3   OH2 3842   3.067   2.752   5.806
 1293TIP3    H1 3843   3.044   2.765   5.714
 1293TIP3    H2 3844   2.983   2.740   5.850
 1294TIP3   OH2 3845   2.256   1.513   0.947
 1294TIP3    H1 3846   2.278   1.457   1.022
 1294TIP3    H2 3847   2.336   1.562   0.930
 1295TIP3   OH2 3848   3.659   0.483   2.328
 1295TIP3    H1 3849   3.588   0.540   2.299
 1295TIP3    H2 3850   3.615   0.400   2.348
 1296TIP3   OH2 3851   4.841   1.411   5.583
 1296TIP3    H1 3852   4.911   1.394   5.646
 1296TIP3    H2 3853   4.767   1.442   5.635
 1297TIP3   OH2 3854   4.786   4.255   5.494
 1297TIP3    H1 3855   4.877   4.253   5.524
 1297TIP3    H2 3856   4.781   4.189   5.426
 1298TIP3   OH2 3857   5.261   1.584   5.517
 1298TIP3    H1 3858   5.356   1.574   5.528
 1298TIP3    H2 3859   5.233   1.501   5.480
 1299TIP3   OH2 3860   6.157   6.736   2.637
 1299TIP3    H1 3861   6.147   6.654   2.589
 1299TIP3    H2 3862   6.192   6.711   2.722
 1300TIP3   OH2 3863   5.212   4.747   5.606
 1300TIP3    H1 3864   5.249   4.831   5.578
 1300TIP3    H2 3865   5.266   4.721   5.681
 1301TIP3   OH2 3866   4.154   0.302   4.508
 1301TIP3    H1 3867   4.098   0.262   4.441
 1301TIP3    H2 3868   4.215   0.356   4.459
 1302TIP3   OH2 3869   5.514   4.296   3.418
 1302TIP3    H1 3870   5.480   4.243   3.491
 1302TIP3    H2 3871   5.484   4.385   3.437
 1303TIP3   OH2 3872   5.691   6.242   0.159
 1303TIP3    H1 3873   5.719   6.182   0.229
 1303TIP3    H2 3874   5.597   6.224   0.149
 1304TIP3   OH2 3875   3.148   6.085   1.182
 1304TIP3    H1 3876   3.102   6.020   1.235
 1304TIP3    H2 3877   3.240   6.074   1.206
 1305TIP3   OH2 3878   0.328   0.378   1.615
 1305TIP3    H1 3879   0.270   0.345   1.547
 1305TIP3    H2 3880   0.408   0.327   1.606
 1306TIP3   OH2 3881   2.986   3.384   1.188
 1306TIP3    H1 3882   2.974   3.360   1.280
 1306TIP3    H2 3883   2.941   3.467   1.179
 1307TIP3   OH2 3884   1.798   6.766   4.422
 1307TIP3    H1 3885   1.801   6.718   4.340
 1307TIP3    H2 3886   1.842   6.849   4.403
 1308TIP3   OH2 3887   3.482   1.682   1.053
 1308TIP3    H1 3888   3.528   1.727   0.982
 1308TIP3    H2 3889   3.494   1.589   1.034
 1309TIP3   OH2 3890   6.406   5.107   3.184
 1309TIP3    H1 3891   6.487   5.083   3.229
 1309TIP3    H2 3892   6.389   5.198   3.210
 1310TIP3   OH2 3893   6.767   2.414   1.793
 1310TIP3    H1 3894   6.824   2.372   1.858
 1310TIP3    H2 3895   6.776   2.508   1.811
 1311TIP3   OH2 3896   4.076   4.210   2.429
 1311TIP3    H1 3897   4.055   4.292   2.474
 1311TIP3    H2 3898   3.992   4.164   2.421
 1312TIP3   OH2 3899   6.141   0.360   5.565
 1312TIP3    H1 3900   6.078   0.302   5.521
 1312TIP3    H2 3901   6.107   0.448   5.551
 1313TIP3   OH2 3902   7.047   5.465   3.356
 1313TIP3    H1 3903   7.069   5.510   3.274
 1313TIP3    H2 3904   7.127   5.469   3.408
 1314TIP3   OH2 3905   4.690   0.726   0.986
 1314TIP3    H1 3906   4.773   0.709   1.031
 1314TIP3    H2 3907   4.711   0.718   0.893
 1315TIP3   OH2 3908   0.532   6.659   4.233
 1315TIP3    H1 3909   0.593   6.731   4.247
 1315TIP3    H2 3910   0.453   6.701   4.200
 1316TIP3   OH2 3911   1.719   3.330   0.662
 1316TIP3    H1 3912   1.769   3.308   0.740
 1316TIP3    H2 3913   1.630   3.300   0.680
 1317TIP3   OH2 3914   0.324   5.375   2.652
 1317TIP3    H1 3915   0.317   5.434   2.727
 1317TIP3    H2 3916   0.235   5.345   2.636
 1318TIP3   OH2 3917   0.967   2.792   1.862
 1318TIP3    H1 3918   1.016   2.870   1.839
 1318TIP3    H2 3919   0.905   2.780   1.790
 1319TIP3   OH2 3920   1.253   4.846   3.283
 1319TIP3    H1 3921   1.326   4.822   3.225
 1319TIP3    H2 3922   1.296   4.880   3.361
 1320TIP3   OH2 3923   1.883   0.145   1.053
 1320TIP3    H1 3924   1.901   0.113   0.965
 1320TIP3    H2 3925   1.910   0.237   1.051
 1321TIP3   OH2 3926   3.700   0.433   3.779
 1321TIP3    H1 3927   3.773   0.371   3.784
 1321TIP3    H2 3928   3.690   0.451   3.686
 1322TIP3   OH2 3929   5.423   5.605   5.627
 1322TIP3    H1 3930   5.446   5.599   5.719
 1322TIP3    H2 3931   5.425   5.698   5.607
 1323TIP3   OH2 3932   5.655   4.132   2.568
 1323TIP3    H1 3933   5.613   4.207   2.609
 1323TIP3    H2 3934   5.749   4.146   2.584
 1324TIP3   OH2 3935   3.102   3.305   0.074
 1324TIP3    H1 3936   3.126   3.224   0.118
 1324TIP3    H2 3937   3.030   3.281   0.017
 1325TIP3   OH2 3938   0.570   1.365   0.242
 1325TIP3    H1 3939   0.494   1.421   0.225
 1325TIP3    H2 3940   0.579   1.312   0.162
 1326TIP3   OH2 3941   7.147   4.452   2.510
 1326TIP3    H1 3942   7.091   4.525   2.535
 1326TIP3    H2 3943   7.149   4.455   2.414
 1327TIP3   OH2 3944   1.794   3.411   4.899
 1327TIP3    H1 3945   1.834   3.451   4.976
 1327TIP3    H2 3946   1.831   3.458   4.825
 1328TIP3   OH2 3947   6.095   4.408   2.878
 1328TIP3    H1 3948   6.002   4.426   2.890
 1328TIP3    H2 3949   6.126   4.381   2.964
 1329TIP3   OH2 3950   4.319   0.045   3.201
 1329TIP3    H1 3951   4.272   0.072   3.280
 1329TIP3    H2 3952   4.390  -0.010   3.232
 1330TIP3   OH2 3953   2.552   1.135   4.131
 1330TIP3    H1 3954   2.635   1.166   4.168
 1330TIP3    H2 3955   2.520   1.070   4.194
 1331TIP3   OH2 3956   1.572   4.549   3.095
 1331TIP3    H1 3957   1.633   4.590   3.156
 1331TIP3    H2 3958   1.615   4.554   3.010
 1332TIP3   OH2 3959   5.519   6.654   3.409
 1332TIP3    H1 3960   5.510   6.743   3.443
 1332TIP3    H2 3961   5.465   6.600   3.468
 1333TIP3   OH2 3962   0.056   2.459   4.214
 1333TIP3    H1 3963   0.014   2.433   4.132
 1333TIP3    H2 3964   0.116   2.530   4.188
 1334TIP3   OH2 3965   0.144   6.124   5.604
 1334TIP3    H1 3966   0.108   6.067   5.672
 1334TIP3    H2 3967   0.211   6.070   5.561
 1335TIP3   OH2 3968   3.147   1.744   4.583
 1335TIP3    H1 3969   3.176   1.822   4.630
 1335TIP3    H2 3970   3.220   1.682   4.591
 1336TIP3   OH2 3971   5.386   1.250   4.455
 1336TIP3    H1 3972   5.300   1.247   4.497
 1336TIP3    H2 3973   5.423   1.335   4.481
 1337TIP3   OH2 3974   2.581   3.855   1.009
 1337TIP3    H1 3975   2.609   3.764   1.011
 1337TIP3    H2 3976   2.599   3.887   1.098
 1338TIP3   OH2 3977   2.238   3.497   4.438
 1338TIP3    H1 3978   2.320   3.483   4.485
 1338TIP3    H2 3979   2.214   3.588   4.458
 1339TIP3   OH2 3980   2.066   6.539   4.141
 1339TIP3    H1 3981   1.992   6.585   4.101
 1339TIP3    H2 3982   2.044   6.446   4.133
 1340TIP3   OH2 3983   1.098   6.439   1.152
 1340TIP3    H1 3984   1.180   6.401   1.183
 1340TIP3    H2 3985   1.045   6.448   1.231
 1341TIP3   OH2 3986   2.843   0.572   0.505
 1341TIP3    H1 3987   2.903   0.616   0.445
 1341TIP3    H2 3988   2.900   0.534   0.572
 1342TIP3   OH2 3989   0.326   6.729   5.452
 1342TIP3    H1 3990   0.389   6.659   5.467
 1342TIP3    H2 3991   0.300   6.718   5.360
 1343TIP3   OH2 3992   5.128   0.304   2.071
 1343TIP3    H1 3993   5.132   0.208   2.076
 1343TIP3    H2 3994   5.124   0.332   2.162
 1344TIP3   OH2 3995   6.000   2.576   0.254
 1344TIP3    H1 3996   5.994   2.481   0.250
 1344TIP3    H2 3997   5.962   2.599   0.339
 1345TIP3   OH2 3998   5.047   2.229   0.293
 1345TIP3    H1 3999   5.049   2.142   0.332
 1345TIP3    H2 4000   5.128   2.235   0.243
 1346TIP3   OH2 4001   0.548   1.462   4.402
 1346TIP3    H1 4002   0.524   1.551   4.427
 1346TIP3    H2 4003   0.466   1.422   4.375
 1347TIP3   OH2 4004   6.888   3.026   0.922
 1347TIP3    H1 4005   6.951   3.037   0.850
 1347TIP3    H2 4006   6.822   2.966   0.887
 1348TIP3   OH2 4007   1.178   4.181   3.933
 1348TIP3    H1 4008   1.176   4.129   3.853
 1348TIP3    H2 4009   1.199   4.119   4.002
 1349TIP3   OH2 4010   3.129   1.649   2.507
 1349TIP3    H1 4011   3.066   1.690   2.566
 1349TIP3    H2 4012   3.105   1.557   2.507
 1350TIP3   OH2 4013   3.324   4.715   2.022
 1350TIP3    H1 4014   3.402   4.769   2.029
 1350TIP3    H2 4015   3.261   4.767   1.972
 1351TIP3   OH2 4016   3.498   1.998   4.418
 1351TIP3    H1 4017   3.544   2.074   4.385
 1351TIP3    H2 4018   3.512   2.000   4.513
 1352TIP3   OH2 4019   4.521   1.913   1.652
 1352TIP3    H1 4020   4.534   1.821   1.675
 1352TIP3    H2 4021   4.520   1.915   1.556
 1353TIP3   OH2 4022   4.575   2.273   4.181
 1353TIP3    H1 4023   4.532   2.358   4.168
 1353TIP3    H2 4024   4.641   2.268   4.112
 1354TIP3   OH2 4025   4.544   4.113   4.669
 1354TIP3    H1 4026   4.573   4.199   4.698
 1354TIP3    H2 4027   4.620   4.077   4.623
 1355TIP3   OH2 4028   3.862   4.519   3.596
 1355TIP3    H1 4029   3.874   4.499   3.689
 1355TIP3    H2 4030   3.787   4.577   3.593
 1356TIP3   OH2 4031   0.245   4.609   2.513
 1356TIP3    H1 4032   0.154   4.638   2.517
 1356TIP3    H2 4033   0.273   4.602   2.604
 1357TIP3   OH2 4034   5.003   0.595   5.890
 1357TIP3    H1 4035   5.020   0.681   5.851
 1357TIP3    H2 4036   4.918   0.605   5.934
 1358TIP3   OH2 4037   3.237   5.081   3.517
 1358TIP3    H1 4038   3.159   5.032   3.540
 1358TIP3    H2 4039   3.278   5.030   3.446
 1359TIP3   OH2 4040   6.244   4.804   5.186
 1359TIP3    H1 4041   6.307   4.872   5.208
 1359TIP3    H2 4042   6.183   4.803   5.260
 1360TIP3   OH2 4043   5.494   1.189   1.400
 1360TIP3    H1 4044   5.516   1.273   1.440
 1360TIP3    H2 4045   5.402   1.176   1.420
 1361TIP3   OH2 4046   6.021   2.598   1.964
 1361TIP3    H1 4047   5.929   2.623   1.966
 1361TIP3    H2 4048   6.021   2.503   1.975
 1362TIP3   OH2 4049   6.474   2.514   0.960
 1362TIP3    H1 4050   6.558   2.527   0.915
 1362TIP3    H2 4051   6.448   2.601   0.988
 1363TIP3   OH2 4052   0.998   2.892   4.349
 1363TIP3    H1 4053   1.088   2.922   4.364
 1363TIP3    H2 4054   0.952   2.909   4.431
 1364TIP3   OH2 4055   4.217   0.055   1.724
 1364TIP3    H1 4056   4.179   0.052   1.636
 1364TIP3    H2 4057   4.146   0.024   1.781
 1365TIP3   OH2 4058   2.102   1.089   1.567
 1365TIP3    H1 4059   2.163   1.037   1.514
 1365TIP3    H2 4060   2.016   1.067   1.533
 1366TIP3   OH2 4061   1.811   1.177   1.260
 1366TIP3    H1 4062   1.782   1.109   1.199
 1366TIP3    H2 4063   1.809   1.135   1.346
 1367TIP3   OH2 4064   5.643   0.217   4.398
 1367TIP3    H1 4065   5.657   0.171   4.316
 1367TIP3    H2 4066   5.559   0.262   4.386
 1368TIP3   OH2 4067   0.282   4.372   1.422
 1368TIP3    H1 4068   0.320   4.290   1.453
 1368TIP3    H2 4069   0.218   4.396   1.489
 1369TIP3   OH2 4070   3.592   5.727   3.646
 1369TIP3    H1 4071   3.561   5.723   3.736
 1369TIP3    H2 4072   3.682   5.694   3.650
 1370TIP3   OH2 4073   0.993   1.128   5.079
 1370TIP3    H1 4074   1.005   1.202   5.139
 1370TIP3    H2 4075   1.077   1.120   5.033
 1371TIP3   OH2 4076   2.821   4.940   5.050
 1371TIP3    H1 4077   2.762   4.915   5.121
 1371TIP3    H2 4078   2.837   4.859   5.001
 1372TIP3   OH2 4079   3.442   1.003   0.806
 1372TIP3    H1 4080   3.466   1.074   0.747
 1372TIP3    H2 4081   3.444   0.924   0.751
 1373TIP3   OH2 4082   6.010   1.163   0.250
 1373TIP3    H1 4083   6.080   1.098   0.247
 1373TIP3    H2 4084   6.051   1.244   0.223
 1374TIP3   OH2 4085   5.866   5.601   4.615
 1374TIP3    H1 4086   5.949   5.619   4.660
 1374TIP3    H2 4087   5.832   5.524   4.660
 1375TIP3   OH2 4088   2.124   6.602   5.423
 1375TIP3    H1 4089   2.137   6.525   5.478
 1375TIP3    H2 4090   2.211   6.622   5.389
 1376TIP3   OH2 4091   4.333   6.779   3.536
 1376TIP3    H1 4092   4.386   6.700   3.528
 1376TIP3    H2 4093   4.317   6.806   3.446
 1377TIP3   OH2 4094   7.122   5.108   2.657
 1377TIP3    H1 4095   7.085   5.053   2.726
 1377TIP3    H2 4096   7.112   5.057   2.577
 1378TIP3   OH2 4097   2.514   0.306   3.158
 1378TIP3    H1 4098   2.493   0.287   3.067
 1378TIP3    H2 4099   2.459   0.381   3.181
 1379TIP3   OH2 4100   3.765   4.286   4.438
 1379TIP3    H1 4101   3.693   4.270   4.377
 1379TIP3    H2 4102   3.779   4.380   4.434
 1380TIP3   OH2 4103   2.186   0.061   1.238
 1380TIP3    H1 4104   2.178   0.140   1.185
 1380TIP3    H2 4105   2.270   0.023   1.213
 1381TIP3   OH2 4106   3.310   5.172   3.780
 1381TIP3    H1 4107   3.388   5.219   3.750
 1381TIP3    H2 4108   3.271   5.137   3.699
 1382TIP3   OH2 4109   6.888   2.519   5.186
 1382TIP3    H1 4110   6.839   2.477   5.256
 1382TIP3    H2 4111   6.973   2.541   5.225
 1383TIP3   OH2 4112   2.713   0.222   3.954
 1383TIP3    H1 4113   2.735   0.256   4.041
 1383TIP3    H2 4114   2.795   0.226   3.905
 1384TIP3   OH2 4115   3.000   1.952   1.014
 1384TIP3    H1 4116   3.037   2.040   1.016
 1384TIP3    H2 4117   3.075   1.894   1.030
 1385TIP3   OH2 4118   6.366   6.223   0.167
 1385TIP3    H1 4119   6.399   6.139   0.135
 1385TIP3    H2 4120   6.364   6.213   0.262
 1386TIP3   OH2 4121   5.506   5.008   5.836
 1386TIP3    H1 4122   5.422   4.973   5.863
 1386TIP3    H2 4123   5.485   5.085   5.784
 1387TIP3   OH2 4124   0.018   1.552   4.453
 1387TIP3    H1 4125   0.000   1.534   4.545
 1387TIP3    H2 4126   0.086   1.490   4.429
 1388TIP3   OH2 4127   1.006   4.105   4.382
 1388TIP3    H1 4128   1.098   4.076   4.378
 1388TIP3    H2 4129   1.006   4.190   4.339
 1389TIP3   OH2 4130   1.101   3.151   0.806
 1389TIP3    H1 4131   1.118   3.058   0.819
 1389TIP3    H2 4132   1.080   3.159   0.714
 1390TIP3   OH2 4133   0.190   1.541   1.163
 1390TIP3    H1 4134   0.265   1.579   1.210
 1390TIP3    H2 4135   0.203   1.568   1.073
 1391TIP3   OH2 4136   4.459   2.375   0.519
 1391TIP3    H1 4137   4.450   2.281   0.507
 1391TIP3    H2 4138   4.389   2.413   0.465
 1392TIP3   OH2 4139   6.685   1.863   2.937
 1392TIP3    H1 4140   6.707   1.885   3.027
 1392TIP3    H2 4141   6.602   1.816   2.943
 1393TIP3   OH2 4142   0.862   6.776   1.992
 1393TIP3    H1 4143   0.843   6.683   1.981
 1393TIP3    H2 4144   0.819   6.800   2.074
 1394TIP3   OH2 4145   6.919   4.147   1.071
 1394TIP3    H1 4146   6.840   4.124   1.023
 1394TIP3    H2 4147   6.962   4.215   1.018
 1395TIP3   OH2 4148   4.965   5.037   1.057
 1395TIP3    H1 4149   4.886   5.057   1.007
 1395TIP3    H2 4150   4.961   5.096   1.133
 1396TIP3   OH2 4151   2.263   0.107   3.434
 1396TIP3    H1 4152   2.263   0.152   3.518
 1396TIP3    H2 4153   2.356   0.101   3.410
 1397TIP3   OH2 4154   1.572   6.002   0.803
 1397TIP3    H1 4155   1.565   6.028   0.895
 1397TIP3    H2 4156   1.489   5.958   0.783
 1398TIP3   OH2 4157   0.676   0.496   1.685
 1398TIP3    H1 4158   0.617   0.435   1.728
 1398TIP3    H2 4159   0.762   0.455   1.690
 1399TIP3   OH2 4160   2.822   3.179   5.514
 1399TIP3    H1 4161   2.763   3.204   5.443
 1399TIP3    H2 4162   2.857   3.094   5.487
 1400TIP3   OH2 4163   2.605   4.922   2.330
 1400TIP3    H1 4164   2.671   4.978   2.291
 1400TIP3    H2 4165   2.625   4.924   2.424
 1401TIP3   OH2 4166   7.058   6.039   3.669
 1401TIP3    H1 4167   7.083   6.059   3.759
 1401TIP3    H2 4168   6.988   6.101   3.649
 1402TIP3   OH2 4169   1.607   5.291   4.419
 1402TIP3    H1 4170   1.698   5.294   4.390
 1402TIP3    H2 4171   1.613   5.275   4.513
 1403TIP3   OH2 4172   5.945   4.421   0.498
 1403TIP3    H1 4173   6.018   4.465   0.542
 1403TIP3    H2 4174   5.869   4.476   0.516
 1404TIP3   OH2 4175   3.900   4.906   4.956
 1404TIP3    H1 4176   3.812   4.879   4.929
 1404TIP3    H2 4177   3.930   4.835   5.012
 1405TIP3   OH2 4178   7.069   2.645   4.021
 1405TIP3    H1 4179   7.101   2.558   3.996
 1405TIP3    H2 4180   6.981   2.650   3.983
 1406TIP3   OH2 4181   4.619   1.074   0.607
 1406TIP3    H1 4182   4.673   1.050   0.683
 1406TIP3    H2 4183   4.635   1.004   0.543
 1407TIP3   OH2 4184   0.774   4.933   2.828
 1407TIP3    H1 4185   0.735   4.935   2.916
 1407TIP3    H2 4186   0.713   4.882   2.775
 1408TIP3   OH2 4187   1.425   3.046   5.421
 1408TIP3    H1 4188   1.472   3.023   5.341
 1408TIP3    H2 4189   1.493   3.052   5.488
 1409TIP3   OH2 4190   4.046   6.205   4.288
 1409TIP3    H1 4191   3.955   6.210   4.318
 1409TIP3    H2 4192   4.098   6.205   4.368
 1410TIP3   OH2 4193   4.289   2.242   4.966
 1410TIP3    H1 4194   4.297   2.169   5.027
 1410TIP3    H2 4195   4.371   2.240   4.916
 1411TIP3   OH2 4196   5.762   3.587   3.803
 1411TIP3    H1 4197   5.689   3.621   3.751
 1411TIP3    H2 4198   5.815   3.538   3.741
 1412TIP3   OH2 4199   6.076   0.655   3.715
 1412TIP3    H1 4200   6.160   0.701   3.710
 1412TIP3    H2 4201   6.011   0.723   3.699
 1413TIP3   OH2 4202   2.710   0.859   4.372
 1413TIP3    H1 4203   2.730   0.896   4.286
 1413TIP3    H2 4204   2.746   0.770   4.370
 1414TIP3   OH2 4205   4.852   5.134   1.306
 1414TIP3    H1 4206   4.765   5.095   1.310
 1414TIP3    H2 4207   4.886   5.126   1.395
 1415TIP3   OH2 4208   5.366   6.456   0.332
 1415TIP3    H1 4209   5.444   6.417   0.293
 1415TIP3    H2 4210   5.313   6.483   0.257
 1416TIP3   OH2 4211   0.353   4.012   3.739
 1416TIP3    H1 4212   0.301   3.931   3.744
 1416TIP3    H2 4213   0.352   4.046   3.828
 1417TIP3   OH2 4214   4.645   3.573   0.415
 1417TIP3    H1 4215   4.741   3.566   0.417
 1417TIP3    H2 4216   4.618   3.521   0.340
 1418TIP3   OH2 4217   3.012   5.105   5.693
 1418TIP3    H1 4218   2.955   5.029   5.703
 1418TIP3    H2 4219   3.005   5.130   5.601
 1419TIP3   OH2 4220   6.580   2.573   5.256
 1419TIP3    H1 4221   6.660   2.620   5.234
 1419TIP3    H2 4222   6.552   2.532   5.174
 1420TIP3   OH2 4223   6.613   0.547   4.768
 1420TIP3    H1 4224   6.531   0.521   4.726
 1420TIP3    H2 4225   6.611   0.642   4.768
 1421TIP3   OH2 4226   1.872   0.055   1.929
 1421TIP3    H1 4227   1.878   0.150   1.919
 1421TIP3    H2 4228   1.851   0.023   1.841
 1422TIP3   OH2 4229   3.028   5.454   3.112
 1422TIP3    H1 4230   2.963   5.392   3.144
 1422TIP3    H2 4231   3.111   5.422   3.147
 1423TIP3   OH2 4232   2.226   4.885   4.125
 1423TIP3    H1 4233   2.192   4.834   4.051
 1423TIP3    H2 4234   2.315   4.909   4.099
 1424TIP3   OH2 4235   6.211   2.386   0.331
 1424TIP3    H1 4236   6.229   2.399   0.238
 1424TIP3    H2 4237   6.128   2.338   0.333
 1425TIP3   OH2 4238   1.123   3.666   5.573
 1425TIP3    H1 4239   1.140   3.644   5.665
 1425TIP3    H2 4240   1.032   3.641   5.559
 1426TIP3   OH2 4241   5.678   5.824   1.728
 1426TIP3    H1 4242   5.599   5.786   1.691
 1426TIP3    H2 4243   5.650   5.908   1.763
 1427TIP3   OH2 4244   5.810   1.921   4.425
 1427TIP3    H1 4245   5.803   1.833   4.389
 1427TIP3    H2 4246   5.720   1.945   4.447
 1428TIP3   OH2 4247   0.741   0.429   3.749
 1428TIP3    H1 4248   0.692   0.434   3.667
 1428TIP3    H2 4249   0.826   0.468   3.729
 1429TIP3   OH2 4250   5.993   4.012   0.554
 1429TIP3    H1 4251   5.921   4.075   0.562
 1429TIP3    H2 4252   5.951   3.926   0.561
 1430TIP3   OH2 4253   5.165   6.006   5.596
 1430TIP3    H1 4254   5.176   6.027   5.689
 1430TIP3    H2 4255   5.076   5.970   5.590
 1431TIP3   OH2 4256   6.477   6.286   4.693
 1431TIP3    H1 4257   6.540   6.324   4.755
 1431TIP3    H2 4258   6.532   6.255   4.620
 1432TIP3   OH2 4259   2.769   5.114   0.920
 1432TIP3    H1 4260   2.755   5.032   0.968
 1432TIP3    H2 4261   2.781   5.180   0.988
 1433TIP3   OH2 4262   0.652   5.494   2.511
 1433TIP3    H1 4263   0.720   5.508   2.445
 1433TIP3    H2 4264   0.613   5.410   2.487
 1434TIP3   OH2 4265   2.130   3.214   4.850
 1434TIP3    H1 4266   2.111   3.250   4.763
 1434TIP3    H2 4267   2.082   3.131   4.852
 1435TIP3   OH2 4268   5.754   4.358   0.163
 1435TIP3    H1 4269   5.673   4.369   0.213
 1435TIP3    H2 4270   5.731   4.384   0.074
 1436TIP3   OH2 4271   0.316   4.611   1.939
 1436TIP3    H1 4272   0.227   4.644   1.923
 1436TIP3    H2 4273   0.349   4.590   1.852
 1437TIP3   OH2 4274   1.808   4.865   1.104
 1437TIP3    H1 4275   1.878   4.911   1.150
 1437TIP3    H2 4276   1.805   4.779   1.146
 1438TIP3   OH2 4277   1.242   5.277   3.468
 1438TIP3    H1 4278   1.316   5.276   3.529
 1438TIP3    H2 4279   1.225   5.370   3.452
 1439TIP3   OH2 4280   1.119   2.067   1.699
 1439TIP3    H1 4281   1.201   2.075   1.747
 1439TIP3    H2 4282   1.145   2.045   1.610
 1440TIP3   OH2 4283   0.173   4.244   5.150
 1440TIP3    H1 4284   0.080   4.262   5.133
 1440TIP3    H2 4285   0.216   4.329   5.139
 1441TIP3   OH2 4286   1.176   5.119   3.836
 1441TIP3    H1 4287   1.158   5.108   3.743
 1441TIP3    H2 4288   1.228   5.042   3.860
 1442TIP3   OH2 4289   4.048   1.898   5.171
 1442TIP3    H1 4290   3.977   1.835   5.186
 1442TIP3    H2 4291   4.035   1.928   5.081
 1443TIP3   OH2 4292   1.545   0.387   0.576
 1443TIP3    H1 4293   1.548   0.431   0.661
 1443TIP3    H2 4294   1.538   0.294   0.597
 1444TIP3   OH2 4295   0.366   5.020   1.944
 1444TIP3    H1 4296   0.456   5.015   1.977
 1444TIP3    H2 4297   0.348   5.113   1.939
 1445TIP3   OH2 4298   0.501   6.190   4.313
 1445TIP3    H1 4299   0.550   6.120   4.270
 1445TIP3    H2 4300   0.417   6.150   4.336
 1446TIP3   OH2 4301   5.573   5.017   2.675
 1446TIP3    H1 4302   5.546   5.012   2.767
 1446TIP3    H2 4303   5.652   5.071   2.677
 1447TIP3   OH2 4304   4.062   6.054   3.531
 1447TIP3    H1 4305   4.024   6.129   3.576
 1447TIP3    H2 4306   4.085   6.088   3.444
 1448TIP3   OH2 4307   0.331   5.670   5.382
 1448TIP3    H1 4308   0.369   5.754   5.408
 1448TIP3    H2 4309   0.392   5.605   5.417
 1449TIP3   OH2 4310   4.466   4.432   5.483
 1449TIP3    H1 4311   4.442   4.442   5.391
 1449TIP3    H2 4312   4.461   4.338   5.500
 1450TIP3   OH2 4313   5.924   0.060   0.460
 1450TIP3    H1 4314   5.901  -0.032   0.452
 1450TIP3    H2 4315   5.849   0.100   0.506
 1451TIP3   OH2 4316   2.509   3.480   4.495
 1451TIP3    H1 4317   2.548   3.398   4.524
 1451TIP3    H2 4318   2.583   3.537   4.477
 1452TIP3   OH2 4319   5.920   5.990   4.546
 1452TIP3    H1 4320   5.848   5.976   4.484
 1452TIP3    H2 4321   5.998   5.997   4.491
 1453TIP3   OH2 4322   4.240   0.870   2.079
 1453TIP3    H1 4323   4.153   0.910   2.077
 1453TIP3    H2 4324   4.223   0.776   2.085
 1454TIP3   OH2 4325   2.091   6.666   0.804
 1454TIP3    H1 4326   2.010   6.696   0.762
 1454TIP3    H2 4327   2.062   6.619   0.882
 1455TIP3   OH2 4328   0.402   3.275   0.499
 1455TIP3    H1 4329   0.446   3.204   0.545
 1455TIP3    H2 4330   0.397   3.245   0.408
 1456TIP3   OH2 4331   2.941   5.114   4.251
 1456TIP3    H1 4332   2.910   5.204   4.262
 1456TIP3    H2 4333   3.022   5.111   4.302
 1457TIP3   OH2 4334   3.869   5.191   4.883
 1457TIP3    H1 4335   3.929   5.241   4.938
 1457TIP3    H2 4336   3.869   5.103   4.922
 1458TIP3   OH2 4337   1.276   0.207   2.979
 1458TIP3    H1 4338   1.364   0.217   3.016
 1458TIP3    H2 4339   1.235   0.293   2.989
 1459TIP3   OH2 4340   3.714   5.999   2.746
 1459TIP3    H1 4341   3.775   5.981   2.818
 1459TIP3    H2 4342   3.759   6.063   2.692
 1460TIP3   OH2 4343   0.352   3.457   2.434
 1460TIP3    H1 4344   0.427   3.499   2.393
 1460TIP3    H2 4345   0.341   3.376   2.386
 1461TIP3   OH2 4346   0.736   1.608   5.521
 1461TIP3    H1 4347   0.702   1.600   5.610
 1461TIP3    H2 4348   0.807   1.544   5.516
 1462TIP3   OH2 4349   6.016   3.861   5.294
 1462TIP3    H1 4350   6.065   3.833   5.216
 1462TIP3    H2 4351   5.988   3.779   5.335
 1463TIP3   OH2 4352   6.863   1.893   4.862
 1463TIP3    H1 4353   6.932   1.835   4.831
 1463TIP3    H2 4354   6.905   1.947   4.929
 1464TIP3   OH2 4355   0.939   4.493   0.876
 1464TIP3    H1 4356   1.005   4.454   0.934
 1464TIP3    H2 4357   0.933   4.584   0.906
 1465TIP3   OH2 4358   3.354   2.330   3.808
 1465TIP3    H1 4359   3.433   2.382   3.793
 1465TIP3    H2 4360   3.362   2.255   3.749
 1466TIP3   OH2 4361   2.672   0.709   1.154
 1466TIP3    H1 4362   2.710   0.741   1.072
 1466TIP3    H2 4363   2.676   0.614   1.146
 1467TIP3   OH2 4364   2.956   0.125   2.872
 1467TIP3    H1 4365   2.947   0.032   2.852
 1467TIP3    H2 4366   2.941   0.169   2.789
 1468TIP3   OH2 4367   5.106   6.380   0.607
 1468TIP3    H1 4368   5.044   6.356   0.675
 1468TIP3    H2 4369   5.070   6.341   0.527
 1469TIP3   OH2 4370   7.202   1.591   2.297
 1469TIP3    H1 4371   7.124   1.620   2.344
 1469TIP3    H2 4372   7.208   1.651   2.223
 1470TIP3   OH2 4373   0.814   0.576   0.887
 1470TIP3    H1 4374   0.772   0.494   0.914
 1470TIP3    H2 4375   0.820   0.569   0.792
 1471TIP3   OH2 4376   5.560   2.693   1.917
 1471TIP3    H1 4377   5.506   2.691   1.996
 1471TIP3    H2 4378   5.530   2.771   1.870
 1472TIP3   OH2 4379   5.861   6.331   3.255
 1472TIP3    H1 4380   5.869   6.337   3.160
 1472TIP3    H2 4381   5.768   6.315   3.271
 1473TIP3   OH2 4382   2.930   5.568   3.694
 1473TIP3    H1 4383   2.886   5.483   3.698
 1473TIP3    H2 4384   2.973   5.568   3.608
 1474TIP3   OH2 4385   6.711   3.769   1.776
 1474TIP3    H1 4386   6.702   3.695   1.836
 1474TIP3    H2 4387   6.671   3.739   1.694
 1475TIP3   OH2 4388   1.893   3.636   4.444
 1475TIP3    H1 4389   1.920   3.728   4.445
 1475TIP3    H2 4390   1.903   3.609   4.352
 1476TIP3   OH2 4391   2.380   3.854   4.935
 1476TIP3    H1 4392   2.311   3.900   4.888
 1476TIP3    H2 4393   2.341   3.769   4.958
 1477TIP3   OH2 4394   1.498   4.970   2.504
 1477TIP3    H1 4395   1.517   4.925   2.586
 1477TIP3    H2 4396   1.579   5.015   2.482
 1478TIP3   OH2 4397   5.583   6.300   3.816
 1478TIP3    H1 4398   5.662   6.311   3.763
 1478TIP3    H2 4399   5.565   6.387   3.850
 1479TIP3   OH2 4400   5.804   4.548   3.908
 1479TIP3    H1 4401   5.897   4.537   3.889
 1479TIP3    H2 4402   5.799   4.556   4.003
 1480TIP3   OH2 4403   5.629   6.321   2.275
 1480TIP3    H1 4404   5.549   6.374   2.271
 1480TIP3    H2 4405   5.693   6.378   2.316
 1481TIP3   OH2 4406   0.660   0.662   2.032
 1481TIP3    H1 4407   0.722   0.729   2.060
 1481TIP3    H2 4408   0.673   0.590   2.094
 1482TIP3   OH2 4409   5.212   3.046   3.013
 1482TIP3    H1 4410   5.179   3.052   3.103
 1482TIP3    H2 4411   5.301   3.014   3.022
 1483TIP3   OH2 4412   6.586   6.630   0.206
 1483TIP3    H1 4413   6.563   6.652   0.116
 1483TIP3    H2 4414   6.643   6.553   0.199
 1484TIP3   OH2 4415   3.692   2.533   3.537
 1484TIP3    H1 4416   3.787   2.546   3.538
 1484TIP3    H2 4417   3.670   2.513   3.628
 1485TIP3   OH2 4418   0.296   3.149   3.984
 1485TIP3    H1 4419   0.300   3.170   4.077
 1485TIP3    H2 4420   0.203   3.154   3.962
 1486TIP3   OH2 4421   6.783   5.378   2.153
 1486TIP3    H1 4422   6.755   5.348   2.239
 1486TIP3    H2 4423   6.702   5.397   2.106
 1487TIP3   OH2 4424   3.143   6.353   3.398
 1487TIP3    H1 4425   3.067   6.411   3.390
 1487TIP3    H2 4426   3.107   6.274   3.440
 1488TIP3   OH2 4427   4.029   6.458   2.748
 1488TIP3    H1 4428   3.941   6.422   2.755
 1488TIP3    H2 4429   4.066   6.416   2.670
 1489TIP3   OH2 4430   1.284   3.688   5.041
 1489TIP3    H1 4431   1.271   3.634   5.119
 1489TIP3    H2 4432   1.331   3.630   4.981
 1490TIP3   OH2 4433   5.294   0.316   3.659
 1490TIP3    H1 4434   5.284   0.385   3.593
 1490TIP3    H2 4435   5.204   0.286   3.677
 1491TIP3   OH2 4436   5.676   0.222   1.619
 1491TIP3    H1 4437   5.754   0.276   1.619
 1491TIP3    H2 4438   5.661   0.201   1.527
 1492TIP3   OH2 4439   1.802   1.513   1.651
 1492TIP3    H1 4440   1.837   1.600   1.666
 1492TIP3    H2 4441   1.844   1.484   1.569
 1493TIP3   OH2 4442   7.082   2.476   1.619
 1493TIP3    H1 4443   7.044   2.388   1.615
 1493TIP3    H2 4444   7.018   2.532   1.576
 1494TIP3   OH2 4445   0.189   1.873   4.179
 1494TIP3    H1 4446   0.209   1.915   4.263
 1494TIP3    H2 4447   0.274   1.860   4.138
 1495TIP3   OH2 4448   3.001   4.989   2.633
 1495TIP3    H1 4449   3.051   5.069   2.648
 1495TIP3    H2 4450   3.061   4.918   2.657
 1496TIP3   OH2 4451   0.641   6.649   5.304
 1496TIP3    H1 4452   0.572   6.604   5.352
 1496TIP3    H2 4453   0.623   6.629   5.212
 1497TIP3   OH2 4454   4.698   3.877   1.011
 1497TIP3    H1 4455   4.678   3.785   1.027
 1497TIP3    H2 4456   4.710   3.883   0.916
 1498TIP3   OH2 4457   0.018   2.832   3.380
 1498TIP3    H1 4458   0.031   2.925   3.363
 1498TIP3    H2 4459   0.087   2.810   3.443
 1499TIP3   OH2 4460   5.297   2.176   1.100
 1499TIP3    H1 4461   5.283   2.185   1.194
 1499TIP3    H2 4462   5.226   2.120   1.070
 1500TIP3   OH2 4463   4.104   3.220   1.399
 1500TIP3    H1 4464   4.163   3.145   1.391
 1500TIP3    H2 4465   4.043   3.210   1.327
 1501TIP3   OH2 4466   6.043   2.621   5.127
 1501TIP3    H1 4467   6.032   2.641   5.034
 1501TIP3    H2 4468   5.956   2.596   5.157
 1502TIP3   OH2 4469   4.031   5.357   3.623
 1502TIP3    H1 4470   4.034   5.436   3.677
 1502TIP3    H2 4471   4.093   5.297   3.665
 1503TIP3   OH2 4472   3.178   0.018   0.873
 1503TIP3    H1 4473   3.087   0.028   0.843
 1503TIP3    H2 4474   3.229   0.011   0.793
 1504TIP3   OH2 4475   0.677   1.384   1.687
 1504TIP3    H1 4476   0.642   1.473   1.689
 1504TIP3    H2 4477   0.771   1.396   1.677
 1505TIP3   OH2 4478   2.423   0.867   1.968
 1505TIP3    H1 4479   2.455   0.950   1.934
 1505TIP3    H2 4480   2.362   0.835   1.902
 1506TIP3   OH2 4481   3.176   5.858   3.193
 1506TIP3    H1 4482   3.165   5.904   3.110
 1506TIP3    H2 4483   3.129   5.776   3.181
 1507TIP3   OH2 4484   0.339   4.601   1.281
 1507TIP3    H1 4485   0.312   4.526   1.333
 1507TIP3    H2 4486   0.420   4.573   1.238
 1508TIP3   OH2 4487   4.838   5.601   2.058
 1508TIP3    H1 4488   4.914   5.627   2.110
 1508TIP3    H2 4489   4.771   5.576   2.122
 1509TIP3   OH2 4490   0.007   5.306   3.041
 1509TIP3    H1 4491   0.052   5.381   3.080
 1509TIP3    H2 4492  -0.066   5.288   3.101
 1510TIP3   OH2 4493   2.879   4.911   4.507
 1510TIP3    H1 4494   2.811   4.844   4.498
 1510TIP3    H2 4495   2.830   4.993   4.513
 1511TIP3   OH2 4496   2.040   3.117   1.100
 1511TIP3    H1 4497   1.959   3.076   1.132
 1511TIP3    H2 4498   2.054   3.078   1.014
 1512TIP3   OH2 4499   3.606   5.109   1.710
 1512TIP3    H1 4500   3.665   5.159   1.653
 1512TIP3    H2 4501   3.521   5.114   1.667
 1513TIP3   OH2 4502   7.191   1.985   1.467
 1513TIP3    H1 4503   7.116   1.958   1.518
 1513TIP3    H2 4504   7.250   2.025   1.531
 1514TIP3   OH2 4505   4.584   4.185   1.619
 1514TIP3    H1 4506   4.521   4.182   1.691
 1514TIP3    H2 4507   4.549   4.252   1.560
 1515TIP3   OH2 4508   3.217   0.411   1.807
 1515TIP3    H1 4509   3.132   0.366   1.801
 1515TIP3    H2 4510   3.263   0.366   1.878
 1516TIP3   OH2 4511   3.562   1.347   2.326
 1516TIP3    H1 4512   3.498   1.299   2.275
 1516TIP3    H2 4513   3.631   1.283   2.346
 1517TIP3   OH2 4514   3.294   4.839   3.729
 1517TIP3    H1 4515   3.331   4.869   3.812
 1517TIP3    H2 4516   3.363   4.854   3.664
 1518TIP3   OH2 4517   2.980   5.376   4.424
 1518TIP3    H1 4518   3.057   5.401   4.374
 1518TIP3    H2 4519   2.906   5.395   4.366
 1519TIP3   OH2 4520   3.052   6.289   4.911
 1519TIP3    H1 4521   3.052   6.208   4.962
 1519TIP3    H2 4522   2.981   6.341   4.949
 1520TIP3   OH2 4523   6.443   0.539   4.061
 1520TIP3    H1 4524   6.397   0.495   3.988
 1520TIP3    H2 4525   6.491   0.469   4.104
 1521TIP3   OH2 4526   6.770   0.893   3.957
 1521TIP3    H1 4527   6.780   0.943   4.038
 1521TIP3    H2 4528   6.705   0.942   3.907
 1522TIP3   OH2 4529   1.332   6.753   0.542
 1522TIP3    H1 4530   1.414   6.706   0.559
 1522TIP3    H2 4531   1.284   6.745   0.624
 1523TIP3   OH2 4532   2.161   3.489   5.383
 1523TIP3    H1 4533   2.137   3.550   5.313
 1523TIP3    H2 4534   2.126   3.405   5.353
 1524TIP3   OH2 4535   5.990   2.140   1.749
 1524TIP3    H1 4536   5.917   2.126   1.688
 1524TIP3    H2 4537   6.018   2.053   1.775
 1525TIP3   OH2 4538   4.305   0.333   1.843
 1525TIP3    H1 4539   4.298   0.262   1.778
 1525TIP3    H2 4540   4.215   0.357   1.863
 1526TIP3   OH2 4541   5.247   2.995   3.600
 1526TIP3    H1 4542   5.324   3.050   3.610
 1526TIP3    H2 4543   5.257   2.926   3.666
 1527TIP3   OH2 4544   0.056   5.190   4.955
 1527TIP3    H1 4545   0.106   5.206   4.875
 1527TIP3    H2 4546   0.014   5.105   4.939
 1528TIP3   OH2 4547   0.461   0.964   5.484
 1528TIP3    H1 4548   0.425   0.961   5.395
 1528TIP3    H2 4549   0.493   1.053   5.494
 1529TIP3   OH2 4550   3.448   4.021   0.419
 1529TIP3    H1 4551   3.440   4.111   0.450
 1529TIP3    H2 4552   3.399   4.019   0.336
 1530TIP3   OH2 4553   6.271   0.865   4.807
 1530TIP3    H1 4554   6.294   0.874   4.900
 1530TIP3    H2 4555   6.344   0.906   4.760
 1531TIP3   OH2 4556   0.328   5.371   2.031
 1531TIP3    H1 4557   0.311   5.441   1.969
 1531TIP3    H2 4558   0.242   5.341   2.059
 1532TIP3   OH2 4559   5.149   5.373   0.453
 1532TIP3    H1 4560   5.168   5.465   0.440
 1532TIP3    H2 4561   5.134   5.365   0.548
 1533TIP3   OH2 4562   0.627   0.719   2.365
 1533TIP3    H1 4563   0.635   0.627   2.338
 1533TIP3    H2 4564   0.620   0.714   2.461
 1534TIP3   OH2 4565   4.049   5.843   2.258
 1534TIP3    H1 4566   4.053   5.774   2.191
 1534TIP3    H2 4567   4.106   5.912   2.225
 1535TIP3   OH2 4568   4.995   2.685   2.156
 1535TIP3    H1 4569   4.952   2.712   2.075
 1535TIP3    H2 4570   5.045   2.763   2.184
 1536TIP3   OH2 4571   1.797   4.226   5.572
 1536TIP3    H1 4572   1.774   4.318   5.584
 1536TIP3    H2 4573   1.747   4.179   5.638
 1537TIP3   OH2 4574   5.381   2.498   2.571
 1537TIP3    H1 4575   5.372   2.438   2.497
 1537TIP3    H2 4576   5.429   2.572   2.537
 1538TIP3   OH2 4577   5.158   6.740   3.607
 1538TIP3    H1 4578   5.081   6.698   3.568
 1538TIP3    H2 4579   5.227   6.674   3.600
 1539TIP3   OH2 4580   4.680   2.834   4.607
 1539TIP3    H1 4581   4.619   2.891   4.654
 1539TIP3    H2 4582   4.767   2.863   4.635
 1540TIP3   OH2 4583   2.595   6.375   2.450
 1540TIP3    H1 4584   2.601   6.354   2.543
 1540TIP3    H2 4585   2.545   6.457   2.447
 1541TIP3   OH2 4586   0.013   3.704   1.573
 1541TIP3    H1 4587   0.069   3.665   1.505
 1541TIP3    H2 4588   0.004   3.796   1.548
 1542TIP3   OH2 4589   5.139   6.515   0.929
 1542TIP3    H1 4590   5.123   6.462   0.851
 1542TIP3    H2 4591   5.208   6.576   0.902
 1543TIP3   OH2 4592   0.365   5.620   1.078
 1543TIP3    H1 4593   0.327   5.705   1.059
 1543TIP3    H2 4594   0.434   5.610   1.013
 1544TIP3   OH2 4595   7.079   6.091   4.241
 1544TIP3    H1 4596   7.130   6.020   4.278
 1544TIP3    H2 4597   7.137   6.167   4.245
 1545TIP3   OH2 4598   4.310   1.323   3.140
 1545TIP3    H1 4599   4.332   1.408   3.179
 1545TIP3    H2 4600   4.394   1.287   3.112
 1546TIP3   OH2 4601   2.691   0.555   5.114
 1546TIP3    H1 4602   2.672   0.603   5.194
 1546TIP3    H2 4603   2.606   0.546   5.070
 1547TIP3   OH2 4604   2.231   0.146   3.122
 1547TIP3    H1 4605   2.202   0.133   3.213
 1547TIP3    H2 4606   2.153   0.129   3.069
 1548TIP3   OH2 4607   3.303   6.060   1.506
 1548TIP3    H1 4608   3.338   6.036   1.592
 1548TIP3    H2 4609   3.282   6.153   1.514
 1549TIP3   OH2 4610   5.039   1.122   2.911
 1549TIP3    H1 4611   5.057   1.028   2.912
 1549TIP3    H2 4612   5.049   1.147   2.819
 1550TIP3   OH2 4613   1.140   6.287   5.712
 1550TIP3    H1 4614   1.133   6.383   5.719
 1550TIP3    H2 4615   1.134   6.271   5.618
 1551TIP3   OH2 4616   4.825   1.490   4.618
 1551TIP3    H1 4617   4.748   1.434   4.604
 1551TIP3    H2 4618   4.816   1.520   4.708
 1552TIP3   OH2 4619   1.820   2.741   4.828
 1552TIP3    H1 4620   1.906   2.714   4.795
 1552TIP3    H2 4621   1.835   2.827   4.867
 1553TIP3   OH2 4622   6.209   3.649   4.140
 1553TIP3    H1 4623   6.129   3.646   4.192
 1553TIP3    H2 4624   6.183   3.617   4.053
 1554TIP3   OH2 4625   0.016   5.453   4.977
 1554TIP3    H1 4626   0.090   5.505   5.006
 1554TIP3    H2 4627   0.040   5.363   4.999
 1555TIP3   OH2 4628   3.462   5.424   2.766
 1555TIP3    H1 4629   3.447   5.376   2.685
 1555TIP3    H2 4630   3.381   5.473   2.780
 1556TIP3   OH2 4631   3.475   3.519   5.449
 1556TIP3    H1 4632   3.542   3.472   5.399
 1556TIP3    H2 4633   3.498   3.611   5.440
 1557TIP3   OH2 4634   4.029   4.375   0.307
 1557TIP3    H1 4635   3.958   4.372   0.372
 1557TIP3    H2 4636   4.083   4.299   0.326
 1558TIP3   OH2 4637   5.027   2.323   3.356
 1558TIP3    H1 4638   4.979   2.353   3.433
 1558TIP3    H2 4639   5.102   2.382   3.350
 1559TIP3   OH2 4640   4.941   0.466   3.711
 1559TIP3    H1 4641   4.860   0.448   3.664
 1559TIP3    H2 4642   4.978   0.380   3.729
 1560TIP3   OH2 4643   6.230   2.568   2.740
 1560TIP3    H1 4644   6.260   2.507   2.672
 1560TIP3    H2 4645   6.305   2.624   2.756
 1561TIP3   OH2 4646   2.968   0.757   1.804
 1561TIP3    H1 4647   2.912   0.694   1.758
 1561TIP3    H2 4648   3.052   0.713   1.812
 1562TIP3   OH2 4649   5.918   1.507   2.805
 1562TIP3    H1 4650   5.839   1.453   2.798
 1562TIP3    H2 4651   5.922   1.531   2.898
 1563TIP3   OH2 4652   2.909   6.451   1.049
 1563TIP3    H1 4653   2.874   6.375   1.002
 1563TIP3    H2 4654   3.002   6.433   1.057
 1564TIP3   OH2 4655   6.271   2.708   0.214
 1564TIP3    H1 4656   6.332   2.669   0.276
 1564TIP3    H2 4657   6.188   2.663   0.229
 1565TIP3   OH2 4658   4.960   5.041   2.606
 1565TIP3    H1 4659   4.977   5.133   2.586
 1565TIP3    H2 4660   5.043   5.007   2.639
 1566TIP3   OH2 4661   5.765   3.262   4.633
 1566TIP3    H1 4662   5.854   3.291   4.652
 1566TIP3    H2 4663   5.764   3.249   4.538
 1567TIP3   OH2 4664   4.048   1.574   4.503
 1567TIP3    H1 4665   4.063   1.660   4.463
 1567TIP3    H2 4666   4.058   1.589   4.597
 1568TIP3   OH2 4667   2.669   4.986   2.644
 1568TIP3    H1 4668   2.764   4.980   2.641
 1568TIP3    H2 4669   2.645   4.962   2.733
 1569TIP3   OH2 4670   5.337   0.252   1.792
 1569TIP3    H1 4671   5.309   0.342   1.777
 1569TIP3    H2 4672   5.255   0.204   1.808
 1570TIP3   OH2 4673   4.391   4.943   2.607
 1570TIP3    H1 4674   4.359   5.021   2.653
 1570TIP3    H2 4675   4.482   4.934   2.636
 1571TIP3   OH2 4676   2.850   5.910   4.842
 1571TIP3    H1 4677   2.783   5.927   4.908
 1571TIP3    H2 4678   2.894   5.830   4.872
 1572TIP3   OH2 4679   4.229   5.915   0.913
 1572TIP3    H1 4680   4.158   5.851   0.913
 1572TIP3    H2 4681   4.191   5.993   0.872
 1573TIP3   OH2 4682   1.274   0.837   3.133
 1573TIP3    H1 4683   1.313   0.794   3.057
 1573TIP3    H2 4684   1.295   0.930   3.121
 1574TIP3   OH2 4685   6.408   2.027   4.441
 1574TIP3    H1 4686   6.485   2.082   4.426
 1574TIP3    H2 4687   6.437   1.963   4.506
 1575TIP3   OH2 4688   0.833   4.819   0.534
 1575TIP3    H1 4689   0.791   4.838   0.618
 1575TIP3    H2 4690   0.887   4.742   0.551
 1576TIP3   OH2 4691   2.967   0.344   5.805
 1576TIP3    H1 4692   2.882   0.321   5.843
 1576TIP3    H2 4693   2.976   0.438   5.822
 1577TIP3   OH2 4694   0.235   2.177   2.080
 1577TIP3    H1 4695   0.151   2.135   2.060
 1577TIP3    H2 4696   0.245   2.166   2.175
 1578TIP3   OH2 4697   0.896   1.745   3.580
 1578TIP3    H1 4698   0.913   1.657   3.614
 1578TIP3    H2 4699   0.871   1.796   3.657
 1579TIP3   OH2 4700   6.297   1.284   0.424
 1579TIP3    H1 4701   6.320   1.241   0.341
 1579TIP3    H2 4702   6.317   1.219   0.491
 1580TIP3   OH2 4703   6.960   3.377   1.010
 1580TIP3    H1 4704   6.914   3.455   1.039
 1580TIP3    H2 4705   6.915   3.351   0.929
 1581TIP3   OH2 4706   3.209   6.643   0.588
 1581TIP3    H1 4707   3.209   6.635   0.493
 1581TIP3    H2 4708   3.169   6.563   0.619
 1582TIP3   OH2 4709   2.082   6.637   3.016
 1582TIP3    H1 4710   2.113   6.720   2.980
 1582TIP3    H2 4711   2.161   6.596   3.052
 1583TIP3   OH2 4712   7.081   5.010   4.838
 1583TIP3    H1 4713   7.100   4.917   4.831
 1583TIP3    H2 4714   7.014   5.017   4.905
 1584TIP3   OH2 4715   6.487   3.746   2.301
 1584TIP3    H1 4716   6.484   3.790   2.385
 1584TIP3    H2 4717   6.401   3.707   2.290
 1585TIP3   OH2 4718   4.291   5.406   5.510
 1585TIP3    H1 4719   4.308   5.434   5.600
 1585TIP3    H2 4720   4.195   5.407   5.504
 1586TIP3   OH2 4721   0.607   4.603   2.812
 1586TIP3    H1 4722   0.543   4.534   2.792
 1586TIP3    H2 4723   0.559   4.684   2.798
 1587TIP3   OH2 4724   6.836   0.903   1.065
 1587TIP3    H1 4725   6.906   0.884   1.003
 1587TIP3    H2 4726   6.846   0.837   1.134
 1588TIP3   OH2 4727   3.217   0.333   4.309
 1588TIP3    H1 4728   3.209   0.357   4.401
 1588TIP3    H2 4729   3.181   0.408   4.262
 1589TIP3   OH2 4730   3.904   0.495   2.194
 1589TIP3    H1 4731   3.833   0.499   2.258
 1589TIP3    H2 4732   3.894   0.575   2.142
 1590TIP3   OH2 4733   4.919   3.660   2.280
 1590TIP3    H1 4734   4.840   3.638   2.231
 1590TIP3    H2 4735   4.987   3.603   2.243
 1591TIP3   OH2 4736   6.485   6.728   2.641
 1591TIP3    H1 4737   6.432   6.806   2.654
 1591TIP3    H2 4738   6.572   6.752   2.673
 1592TIP3   OH2 4739   1.443   3.577   3.185
 1592TIP3    H1 4740   1.503   3.516   3.143
 1592TIP3    H2 4741   1.359   3.531   3.188
 1593TIP3   OH2 4742   2.631   5.803   2.262
 1593TIP3    H1 4743   2.710   5.852   2.236
 1593TIP3    H2 4744   2.615   5.745   2.188
 1594TIP3   OH2 4745   1.965   6.098   3.190
 1594TIP3    H1 4746   2.019   6.104   3.269
 1594TIP3    H2 4747   1.962   6.004   3.170
 1595TIP3   OH2 4748   5.544   3.610   3.086
 1595TIP3    H1 4749   5.504   3.569   3.163
 1595TIP3    H2 4750   5.495   3.692   3.076
 1596TIP3   OH2 4751   6.590   4.613   1.792
 1596TIP3    H1 4752   6.520   4.660   1.836
 1596TIP3    H2 4753   6.572   4.624   1.699
 1597TIP3   OH2 4754   2.582   1.048   0.214
 1597TIP3    H1 4755   2.635   0.980   0.255
 1597TIP3    H2 4756   2.496   1.008   0.201
 1598TIP3   OH2 4757   3.069   5.790   5.249
 1598TIP3    H1 4758   2.997   5.740   5.209
 1598TIP3    H2 4759   3.081   5.749   5.335
 1599TIP3   OH2 4760   7.212   2.038   1.979
 1599TIP3    H1 4761   7.232   1.955   2.022
 1599TIP3    H2 4762   7.122   2.028   1.948
 1600TIP3   OH2 4763   5.678   1.178   3.897
 1600TIP3    H1 4764   5.740   1.180   3.970
 1600TIP3    H2 4765   5.687   1.089   3.861
 1601TIP3   OH2 4766   4.805   4.624   1.047
 1601TIP3    H1 4767   4.734   4.570   1.011
 1601TIP3    H2 4768   4.842   4.669   0.971
 1602TIP3   OH2 4769   2.705   3.441   3.416
 1602TIP3    H1 4770   2.782   3.392   3.390
 1602TIP3    H2 4771   2.732   3.490   3.494
 1603TIP3   OH2 4772   5.694   5.911   4.366
 1603TIP3    H1 4773   5.640   5.950   4.298
 1603TIP3    H2 4774   5.640   5.917   4.445
 1604TIP3   OH2 4775   2.987   5.622   0.396
 1604TIP3    H1 4776   2.947   5.689   0.450
 1604TIP3    H2 4777   2.935   5.621   0.316
 1605TIP3   OH2 4778   1.952   0.359   5.334
 1605TIP3    H1 4779   2.017   0.427   5.313
 1605TIP3    H2 4780   2.005   0.282   5.356
 1606TIP3   OH2 4781   5.494   4.461   2.490
 1606TIP3    H1 4782   5.529   4.411   2.564
 1606TIP3    H2 4783   5.514   4.407   2.413
 1607TIP3   OH2 4784   1.925   4.346   0.364
 1607TIP3    H1 4785   1.987   4.284   0.403
 1607TIP3    H2 4786   1.854   4.290   0.331
 1608TIP3   OH2 4787   6.610   2.444   2.581
 1608TIP3    H1 4788   6.683   2.391   2.613
 1608TIP3    H2 4789   6.560   2.467   2.660
 1609TIP3   OH2 4790   0.914   1.189   2.726
 1609TIP3    H1 4791   0.888   1.118   2.668
 1609TIP3    H2 4792   0.926   1.148   2.811
 1610TIP3   OH2 4793   6.812   1.121   2.539
 1610TIP3    H1 4794   6.836   1.029   2.527
 1610TIP3    H2 4795   6.860   1.168   2.471
 1611TIP3   OH2 4796   5.116   1.808   2.650
 1611TIP3    H1 4797   5.072   1.746   2.592
 1611TIP3    H2 4798   5.136   1.884   2.595
 1612TIP3   OH2 4799   4.915   3.997   4.006
 1612TIP3    H1 4800   4.952   4.084   4.016
 1612TIP3    H2 4801   4.836   3.997   4.061
 1613TIP3   OH2 4802   6.460   2.724   2.701
 1613TIP3    H1 4803   6.537   2.780   2.688
 1613TIP3    H2 4804   6.402   2.775   2.757
 1614TIP3   OH2 4805   0.933   5.684   4.834
 1614TIP3    H1 4806   0.993   5.627   4.786
 1614TIP3    H2 4807   0.990   5.749   4.876
 1615TIP3   OH2 4808   1.676   5.566   0.642
 1615TIP3    H1 4809   1.763   5.534   0.618
 1615TIP3    H2 4810   1.675   5.657   0.613
 1616TIP3   OH2 4811   0.737   5.644   0.214
 1616TIP3    H1 4812   0.683   5.721   0.237
 1616TIP3    H2 4813   0.703   5.616   0.129
 1617TIP3   OH2 4814   4.555   3.042   0.467
 1617TIP3    H1 4815   4.480   3.074   0.417
 1617TIP3    H2 4816   4.594   2.975   0.412
 1618TIP3   OH2 4817   5.932   2.451   2.486
 1618TIP3    H1 4818   5.842   2.458   2.454
 1618TIP3    H2 4819   5.928   2.481   2.577
 1619TIP3   OH2 4820   6.673   4.547   5.719
 1619TIP3    H1 4821   6.605   4.479   5.717
 1619TIP3    H2 4822   6.634   4.618   5.770
 1620TIP3   OH2 4823   4.317   3.659   4.777
 1620TIP3    H1 4824   4.395   3.672   4.724
 1620TIP3    H2 4825   4.285   3.748   4.795
 1621TIP3   OH2 4826   5.549   2.039   3.981
 1621TIP3    H1 4827   5.518   2.077   4.063
 1621TIP3    H2 4828   5.636   2.079   3.968
 1622TIP3   OH2 4829   1.449   0.336   2.404
 1622TIP3    H1 4830   1.524   0.396   2.407
 1622TIP3    H2 4831   1.465   0.274   2.476
 1623TIP3   OH2 4832   4.750   5.826   1.639
 1623TIP3    H1 4833   4.765   5.809   1.732
 1623TIP3    H2 4834   4.769   5.920   1.629
 1624TIP3   OH2 4835   3.821   0.386   2.688
 1624TIP3    H1 4836   3.906   0.346   2.667
 1624TIP3    H2 4837   3.758   0.316   2.678
 1625TIP3   OH2 4838   3.530   3.817   5.736
 1625TIP3    H1 4839   3.613   3.862   5.750
 1625TIP3    H2 4840   3.529   3.748   5.803
 1626TIP3   OH2 4841   7.129   3.941   3.918
 1626TIP3    H1 4842   7.197   4.004   3.942
 1626TIP3    H2 4843   7.130   3.940   3.822
 1627TIP3   OH2 4844   4.432   4.315   0.165
 1627TIP3    H1 4845   4.519   4.275   0.162
 1627TIP3    H2 4846   4.392   4.290   0.081
 1628TIP3   OH2 4847   5.559   4.621   2.908
 1628TIP3    H1 4848   5.509   4.573   2.843
 1628TIP3    H2 4849   5.496   4.680   2.949
 1629TIP3   OH2 4850   0.839   2.676   5.789
 1629TIP3    H1 4851   0.910   2.690   5.727
 1629TIP3    H2 4852   0.877   2.695   5.875
 1630TIP3   OH2 4853   4.661   2.641   2.882
 1630TIP3    H1 4854   4.680   2.715   2.825
 1630TIP3    H2 4855   4.665   2.677   2.971
 1631TIP3   OH2 4856   2.908   3.232   3.372
 1631TIP3    H1 4857   2.943   3.175   3.303
 1631TIP3    H2 4858   2.942   3.195   3.453
 1632TIP3   OH2 4859   5.239   6.487   4.728
 1632TIP3    H1 4860   5.324   6.503   4.767
 1632TIP3    H2 4861   5.258   6.466   4.637
 1633TIP3   OH2 4862   1.389   2.185   5.136
 1633TIP3    H1 4863   1.377   2.138   5.054
 1633TIP3    H2 4864   1.468   2.148   5.174
 1634TIP3   OH2 4865   1.795   5.126   3.619
 1634TIP3    H1 4866   1.717   5.092   3.576
 1634TIP3    H2 4867   1.826   5.196   3.562
 1635TIP3   OH2 4868   5.928   0.517   2.432
 1635TIP3    H1 4869   5.836   0.493   2.442
 1635TIP3    H2 4870   5.969   0.438   2.396
 1636TIP3   OH2 4871   5.670   3.273   3.732
 1636TIP3    H1 4872   5.707   3.355   3.699
 1636TIP3    H2 4873   5.745   3.212   3.734
 1637TIP3   OH2 4874   4.229   1.644   4.207
 1637TIP3    H1 4875   4.279   1.652   4.288
 1637TIP3    H2 4876   4.253   1.721   4.156
 1638TIP3   OH2 4877   5.476   3.920   4.942
 1638TIP3    H1 4878   5.481   3.960   4.856
 1638TIP3    H2 4879   5.554   3.865   4.948
 1639TIP3   OH2 4880   4.450   0.804   2.720
 1639TIP3    H1 4881   4.372   0.755   2.746
 1639TIP3    H2 4882   4.433   0.893   2.752
 1640TIP3   OH2 4883   3.177   0.793   3.030
 1640TIP3    H1 4884   3.184   0.872   3.084
 1640TIP3    H2 4885   3.098   0.750   3.060
 1641TIP3   OH2 4886   1.925   5.335   1.258
 1641TIP3    H1 4887   1.927   5.422   1.218
 1641TIP3    H2 4888   1.977   5.344   1.338
 1642TIP3   OH2 4889   2.695   4.874   1.009
 1642TIP3    H1 4890   2.655   4.805   1.062
 1642TIP3    H2 4891   2.682   4.845   0.918
 1643TIP3   OH2 4892   0.057   3.999   0.866
 1643TIP3    H1 4893   0.060   3.907   0.894
 1643TIP3    H2 4894   0.080   4.049   0.944
 1644TIP3   OH2 4895   6.327   4.799   4.785
 1644TIP3    H1 4896   6.264   4.759   4.726
 1644TIP3    H2 4897   6.373   4.725   4.825
 1645TIP3   OH2 4898   4.482   4.533   2.541
 1645TIP3    H1 4899   4.526   4.459   2.584
 1645TIP3    H2 4900   4.551   4.598   2.530
 1646TIP3   OH2 4901   4.168   2.743   2.685
 1646TIP3    H1 4902   4.172   2.756   2.780
 1646TIP3    H2 4903   4.202   2.654   2.671
 1647TIP3   OH2 4904   5.611   5.793   2.297
 1647TIP3    H1 4905   5.592   5.726   2.231
 1647TIP3    H2 4906   5.605   5.876   2.249
 1648TIP3   OH2 4907   7.129   4.407   4.538
 1648TIP3    H1 4908   7.119   4.473   4.469
 1648TIP3    H2 4909   7.120   4.323   4.492
 1649TIP3   OH2 4910   0.715   2.862   3.189
 1649TIP3    H1 4911   0.654   2.866   3.263
 1649TIP3    H2 4912   0.744   2.771   3.187
 1650TIP3   OH2 4913   0.204   3.591   4.811
 1650TIP3    H1 4914   0.153   3.509   4.811
 1650TIP3    H2 4915   0.176   3.636   4.890
 1651TIP3   OH2 4916   3.687   6.197   1.807
 1651TIP3    H1 4917   3.680   6.230   1.717
 1651TIP3    H2 4918   3.774   6.224   1.836
 1652TIP3   OH2 4919   5.000   5.099   0.696
 1652TIP3    H1 4920   5.082   5.086   0.744
 1652TIP3    H2 4921   4.936   5.120   0.764
 1653TIP3   OH2 4922   4.671   6.263   4.859
 1653TIP3    H1 4923   4.651   6.282   4.951
 1653TIP3    H2 4924   4.605   6.310   4.809
 1654TIP3   OH2 4925   3.273   3.840   5.576
 1654TIP3    H1 4926   3.317   3.873   5.497
 1654TIP3    H2 4927   3.337   3.854   5.646
 1655TIP3   OH2 4928   3.981   2.954   4.296
 1655TIP3    H1 4929   3.934   2.939   4.214
 1655TIP3    H2 4930   3.962   2.877   4.349
 1656TIP3   OH2 4931   5.751   4.429   4.339
 1656TIP3    H1 4932   5.809   4.459   4.269
 1656TIP3    H2 4933   5.678   4.387   4.293
 1657TIP3   OH2 4934   6.572   2.328   4.352
 1657TIP3    H1 4935   6.591   2.244   4.309
 1657TIP3    H2 4936   6.640   2.387   4.320
 1658TIP3   OH2 4937   1.196   2.121   3.992
 1658TIP3    H1 4938   1.161   2.052   3.936
 1658TIP3    H2 4939   1.288   2.127   3.969
 1659TIP3   OH2 4940   2.983   0.890   2.680
 1659TIP3    H1 4941   3.074   0.877   2.708
 1659TIP3    H2 4942   2.974   0.837   2.601
 1660TIP3   OH2 4943   0.733   4.964   1.964
 1660TIP3    H1 4944   0.787   5.042   1.976
 1660TIP3    H2 4945   0.730   4.922   2.050
 1661TIP3   OH2 4946  -0.010   2.575   3.255
 1661TIP3    H1 4947   0.066   2.543   3.303
 1661TIP3    H2 4948  -0.007   2.670   3.264
 1662TIP3   OH2 4949   5.327   5.127   1.603
 1662TIP3    H1 4950   5.315   5.079   1.521
 1662TIP3    H2 4951   5.351   5.216   1.576
 1663TIP3   OH2 4952   0.518   0.679   5.382
 1663TIP3    H1 4953   0.445   0.653   5.438
 1663TIP3    H2 4954   0.484   0.674   5.293
 1664TIP3   OH2 4955   3.356   1.967   1.074
 1664TIP3    H1 4956   3.337   1.984   1.167
 1664TIP3    H2 4957   3.423   1.899   1.075
 1665TIP3   OH2 4958   6.113   2.905   3.143
 1665TIP3    H1 4959   6.180   2.838   3.130
 1665TIP3    H2 4960   6.084   2.928   3.055
 1666TIP3   OH2 4961   1.869   2.103   4.561
 1666TIP3    H1 4962   1.788   2.126   4.605
 1666TIP3    H2 4963   1.917   2.051   4.625
 1667TIP3   OH2 4964   6.735   5.073   0.427
 1667TIP3    H1 4965   6.715   5.000   0.367
 1667TIP3    H2 4966   6.661   5.075   0.487
 1668TIP3   OH2 4967   3.362   0.467   4.931
 1668TIP3    H1 4968   3.281   0.421   4.908
 1668TIP3    H2 4969   3.391   0.508   4.849
 1669TIP3   OH2 4970   1.340   0.151   0.515
 1669TIP3    H1 4971   1.287   0.072   0.507
 1669TIP3    H2 4972   1.279   0.223   0.501
 1670TIP3   OH2 4973   5.009   2.573   5.604
 1670TIP3    H1 4974   5.035   2.663   5.619
 1670TIP3    H2 4975   5.000   2.566   5.509
 1671TIP3   OH2 4976   1.625   4.784   5.032
 1671TIP3    H1 4977   1.580   4.747   4.956
 1671TIP3    H2 4978   1.611   4.719   5.101
 1672TIP3   OH2 4979   0.790   2.854   2.084
 1672TIP3    H1 4980   0.800   2.797   2.160
 1672TIP3    H2 4981   0.864   2.833   2.028
 1673TIP3   OH2 4982   4.608   0.188   1.949
 1673TIP3    H1 4983   4.653   0.128   2.009
 1673TIP3    H2 4984   4.561   0.130   1.888
 1674TIP3   OH2 4985   0.114   6.061   3.879
 1674TIP3    H1 4986   0.068   6.142   3.860
 1674TIP3    H2 4987   0.172   6.082   3.952
 1675TIP3   OH2 4988   1.955   0.527   0.554
 1675TIP3    H1 4989   2.034   0.497   0.509
 1675TIP3    H2 4990   1.982   0.609   0.596
 1676TIP3   OH2 4991   1.669   0.758   0.456
 1676TIP3    H1 4992   1.729   0.821   0.415
 1676TIP3    H2 4993   1.726   0.691   0.493
 1677TIP3   OH2 4994   6.948   3.897   0.256
 1677TIP3    H1 4995   6.856   3.920   0.267
 1677TIP3    H2 4996   6.987   3.912   0.343
 1678TIP3   OH2 4997   6.027   6.232   2.082
 1678TIP3    H1 4998   6.015   6.205   2.174
 1678TIP3    H2 4999   6.104   6.288   2.083
 1679TIP3   OH2 5000   4.032   3.105   5.150
 1679TIP3    H1 5001   4.121   3.131   5.172
 1679TIP3    H2 5002   4.026   3.013   5.176
 1680TIP3   OH2 5003   4.175   4.579   4.563
 1680TIP3    H1 5004   4.162   4.485   4.548
 1680TIP3    H2 5005   4.226   4.609   4.488
 1681TIP3   OH2 5006   6.160   0.044   3.507
 1681TIP3    H1 5007   6.187  -0.028   3.565
 1681TIP3    H2 5008   6.075   0.071   3.540
 1682TIP3   OH2 5009   5.712   4.242   3.240
 1682TIP3    H1 5010   5.656   4.170   3.208
 1682TIP3    H2 5011   5.680   4.258   3.329
 1683TIP3   OH2 5012   1.727   4.150   0.334
 1683TIP3    H1 5013   1.725   4.055   0.345
 1683TIP3    H2 5014   1.708   4.164   0.241
 1684TIP3   OH2 5015   1.283   0.693   4.209
 1684TIP3    H1 5016   1.298   0.620   4.269
 1684TIP3    H2 5017   1.349   0.758   4.235
 1685TIP3   OH2 5018   5.447   1.271   1.776
 1685TIP3    H1 5019   5.502   1.329   1.828
 1685TIP3    H2 5020   5.419   1.326   1.702
 1686TIP3   OH2 5021   5.965   3.290   1.339
 1686TIP3    H1 5022   5.953   3.202   1.376
 1686TIP3    H2 5023   5.937   3.282   1.248
 1687TIP3   OH2 5024   0.364   0.419   4.307
 1687TIP3    H1 5025   0.281   0.452   4.342
 1687TIP3    H2 5026   0.390   0.485   4.243
 1688TIP3   OH2 5027   6.344   3.547   2.484
 1688TIP3    H1 5028   6.268   3.576   2.433
 1688TIP3    H2 5029   6.409   3.521   2.419
 1689TIP3   OH2 5030   1.001   0.138   1.123
 1689TIP3    H1 5031   0.963   0.143   1.210
 1689TIP3    H2 5032   1.090   0.106   1.138
 1690TIP3   OH2 5033   3.324   6.162   5.175
 1690TIP3    H1 5034   3.388   6.154   5.104
 1690TIP3    H2 5035   3.284   6.075   5.180
 1691TIP3   OH2 5036   1.489   1.548   3.797
 1691TIP3    H1 5037   1.552   1.614   3.770
 1691TIP3    H2 5038   1.460   1.507   3.715
 1692TIP3   OH2 5039   6.236   1.579   1.097
 1692TIP3    H1 5040   6.234   1.513   1.028
 1692TIP3    H2 5041   6.155   1.566   1.145
 1693TIP3   OH2 5042   5.653   0.227   1.924
 1693TIP3    H1 5043   5.671   0.235   1.831
 1693TIP3    H2 5044   5.566   0.187   1.929
 1694TIP3   OH2 5045   2.334   3.912   0.362
 1694TIP3    H1 5046   2.397   3.945   0.297
 1694TIP3    H2 5047   2.380   3.918   0.445
 1695TIP3   OH2 5048   3.561   6.415   4.446
 1695TIP3    H1 5049   3.499   6.463   4.502
 1695TIP3    H2 5050   3.589   6.341   4.499
 1696TIP3   OH2 5051   5.172   4.807   4.776
 1696TIP3    H1 5052   5.122   4.729   4.802
 1696TIP3    H2 5053   5.208   4.784   4.690
 1697TIP3   OH2 5054   0.502   3.081   0.678
 1697TIP3    H1 5055   0.592   3.048   0.682
 1697TIP3    H2 5056   0.493   3.134   0.757
 1698TIP3   OH2 5057   4.844   3.285   2.923
 1698TIP3    H1 5058   4.870   3.372   2.955
 1698TIP3    H2 5059   4.819   3.300   2.832
 1699TIP3   OH2 5060   3.651   5.866   1.157
 1699TIP3    H1 5061   3.577   5.811   1.181
 1699TIP3    H2 5062   3.717   5.850   1.225
 1700TIP3   OH2 5063   1.183   4.777   0.178
 1700TIP3    H1 5064   1.209   4.828   0.101
 1700TIP3    H2 5065   1.164   4.842   0.245
 1701TIP3   OH2 5066   2.293   2.122   0.546
 1701TIP3    H1 5067   2.199   2.117   0.531
 1701TIP3    H2 5068   2.320   2.203   0.504
 1702TIP3   OH2 5069   3.537   5.239   3.265
 1702TIP3    H1 5070   3.548   5.291   3.344
 1702TIP3    H2 5071   3.532   5.303   3.194
 1703TIP3   OH2 5072   0.123   4.821   2.055
 1703TIP3    H1 5073   0.208   4.851   2.022
 1703TIP3    H2 5074   0.120   4.854   2.145
 1704TIP3   OH2 5075   4.594   5.229   4.918
 1704TIP3    H1 5076   4.513   5.281   4.915
 1704TIP3    H2 5077   4.603   5.195   4.829
 1705TIP3   OH2 5078   0.136   0.956   4.521
 1705TIP3    H1 5079   0.103   0.959   4.431
 1705TIP3    H2 5080   0.186   0.875   4.525
 1706TIP3   OH2 5081   5.904   5.486   4.141
 1706TIP3    H1 5082   5.851   5.536   4.203
 1706TIP3    H2 5083   5.943   5.552   4.084
 1707TIP3   OH2 5084   0.970   4.976   3.195
 1707TIP3    H1 5085   0.990   5.014   3.109
 1707TIP3    H2 5086   1.056   4.963   3.235
 1708TIP3   OH2 5087   4.402   3.665   3.941
 1708TIP3    H1 5088   4.376   3.675   4.032
 1708TIP3    H2 5089   4.337   3.605   3.904
 1709TIP3   OH2 5090   4.662   3.575   0.974
 1709TIP3    H1 5091   4.728   3.510   0.950
 1709TIP3    H2 5092   4.622   3.600   0.891
 1710TIP3   OH2 5093   2.097   5.395   0.639
 1710TIP3    H1 5094   2.154   5.463   0.602
 1710TIP3    H2 5095   2.109   5.403   0.733
 1711TIP3   OH2 5096   4.354   6.058   0.628
 1711TIP3    H1 5097   4.335   6.151   0.641
 1711TIP3    H2 5098   4.415   6.036   0.699
 1712TIP3   OH2 5099   6.340   0.304   5.142
 1712TIP3    H1 5100   6.435   0.309   5.158
 1712TIP3    H2 5101   6.313   0.395   5.131
 1713TIP3   OH2 5102   0.623   2.139   5.165
 1713TIP3    H1 5103   0.635   2.180   5.079
 1713TIP3    H2 5104   0.602   2.048   5.145
 1714TIP3   OH2 5105   3.891   4.669   5.135
 1714TIP3    H1 5106   3.802   4.681   5.170
 1714TIP3    H2 5107   3.882   4.600   5.069
 1715TIP3   OH2 5108   3.615   1.422   0.748
 1715TIP3    H1 5109   3.707   1.425   0.720
 1715TIP3    H2 5110   3.565   1.438   0.669
 1716TIP3   OH2 5111   0.290   2.119   1.141
 1716TIP3    H1 5112   0.225   2.188   1.143
 1716TIP3    H2 5113   0.360   2.149   1.198
 1717TIP3   OH2 5114   3.730   2.928   5.353
 1717TIP3    H1 5115   3.699   2.844   5.387
 1717TIP3    H2 5116   3.781   2.966   5.424
 1718TIP3   OH2 5117   5.463   3.436   1.616
 1718TIP3    H1 5118   5.509   3.355   1.639
 1718TIP3    H2 5119   5.421   3.418   1.532
 1719TIP3   OH2 5120   1.681   0.689   2.049
 1719TIP3    H1 5121   1.612   0.683   1.982
 1719TIP3    H2 5122   1.706   0.598   2.065
 1720TIP3   OH2 5123   4.940   4.518   5.554
 1720TIP3    H1 5124   4.907   4.429   5.545
 1720TIP3    H2 5125   4.887   4.556   5.625
 1721TIP3   OH2 5126   2.223   4.434   0.391
 1721TIP3    H1 5127   2.218   4.455   0.484
 1721TIP3    H2 5128   2.243   4.341   0.388
 1722TIP3   OH2 5129   1.653   3.303   4.340
 1722TIP3    H1 5130   1.574   3.355   4.357
 1722TIP3    H2 5131   1.709   3.359   4.287
 1723TIP3   OH2 5132   2.583   2.275   1.804
 1723TIP3    H1 5133   2.557   2.367   1.807
 1723TIP3    H2 5134   2.530   2.233   1.872
 1724TIP3   OH2 5135   3.529   1.870   2.415
 1724TIP3    H1 5136   3.435   1.864   2.399
 1724TIP3    H2 5137   3.553   1.957   2.382
 1725TIP3   OH2 5138   5.817   5.706   5.348
 1725TIP3    H1 5139   5.745   5.719   5.285
 1725TIP3    H2 5140   5.785   5.747   5.429
 1726TIP3   OH2 5141   6.319   5.192   1.157
 1726TIP3    H1 5142   6.380   5.225   1.224
 1726TIP3    H2 5143   6.277   5.271   1.123
 1727TIP3   OH2 5144   2.597   5.781   3.765
 1727TIP3    H1 5145   2.644   5.717   3.819
 1727TIP3    H2 5146   2.600   5.744   3.677
 1728TIP3   OH2 5147   6.417   5.049   3.915
 1728TIP3    H1 5148   6.497   5.049   3.968
 1728TIP3    H2 5149   6.349   5.017   3.975
 1729TIP3   OH2 5150   3.289   2.508   1.111
 1729TIP3    H1 5151   3.209   2.539   1.154
 1729TIP3    H2 5152   3.272   2.519   1.017
 1730TIP3   OH2 5153   6.581   4.362   2.271
 1730TIP3    H1 5154   6.632   4.422   2.216
 1730TIP3    H2 5155   6.498   4.406   2.285
 1731TIP3   OH2 5156   5.030   6.021   4.025
 1731TIP3    H1 5157   4.979   6.010   3.945
 1731TIP3    H2 5158   4.966   6.053   4.089
 1732TIP3   OH2 5159   4.273   0.654   1.089
 1732TIP3    H1 5160   4.259   0.616   1.002
 1732TIP3    H2 5161   4.358   0.619   1.117
 1733TIP3   OH2 5162   3.353   1.850   0.214
 1733TIP3    H1 5163   3.330   1.799   0.136
 1733TIP3    H2 5164   3.427   1.804   0.253
 1734TIP3   OH2 5165   5.137   2.092   5.115
 1734TIP3    H1 5166   5.120   2.185   5.134
 1734TIP3    H2 5167   5.231   2.082   5.130
 1735TIP3   OH2 5168   1.537   4.050   4.245
 1735TIP3    H1 5169   1.557   3.962   4.277
 1735TIP3    H2 5170   1.608   4.104   4.280
 1736TIP3   OH2 5171   4.815   5.334   3.451
 1736TIP3    H1 5172   4.744   5.272   3.436
 1736TIP3    H2 5173   4.815   5.390   3.374
 1737TIP3   OH2 5174   4.961   0.131   4.539
 1737TIP3    H1 5175   4.953   0.119   4.444
 1737TIP3    H2 5176   4.998   0.218   4.550
 1738TIP3   OH2 5177   0.568   6.757   0.414
 1738TIP3    H1 5178   0.645   6.716   0.375
 1738TIP3    H2 5179   0.513   6.683   0.443
 1739TIP3   OH2 5180   4.199   5.241   1.207
 1739TIP3    H1 5181   4.292   5.220   1.198
 1739TIP3    H2 5182   4.192   5.289   1.289
 1740TIP3   OH2 5183   3.538   1.006   2.410
 1740TIP3    H1 5184   3.567   1.081   2.358
 1740TIP3    H2 5185   3.499   1.045   2.488
 1741TIP3   OH2 5186   7.042   2.609   4.952
 1741TIP3    H1 5187   6.975   2.580   5.014
 1741TIP3    H2 5188   7.003   2.685   4.908
 1742TIP3   OH2 5189   0.328   2.642   4.728
 1742TIP3    H1 5190   0.348   2.673   4.640
 1742TIP3    H2 5191   0.414   2.628   4.769
 1743TIP3   OH2 5192   6.200   3.728   2.266
 1743TIP3    H1 5193   6.145   3.703   2.191
 1743TIP3    H2 5194   6.174   3.817   2.287
 1744TIP3   OH2 5195   0.244   4.888   2.601
 1744TIP3    H1 5196   0.219   4.951   2.534
 1744TIP3    H2 5197   0.181   4.816   2.591
 1745TIP3   OH2 5198   5.728   5.553   0.971
 1745TIP3    H1 5199   5.796   5.575   1.036
 1745TIP3    H2 5200   5.674   5.632   0.965
 1746TIP3   OH2 5201   5.929   5.319   1.887
 1746TIP3    H1 5202   5.946   5.235   1.844
 1746TIP3    H2 5203   5.869   5.364   1.828
 1747TIP3   OH2 5204   2.708   4.584   4.566
 1747TIP3    H1 5205   2.642   4.517   4.546
 1747TIP3    H2 5206   2.792   4.539   4.557
 1748TIP3   OH2 5207   0.511   2.185   5.421
 1748TIP3    H1 5208   0.541   2.177   5.331
 1748TIP3    H2 5209   0.514   2.279   5.439
 1749TIP3   OH2 5210   4.775   1.640   2.708
 1749TIP3    H1 5211   4.741   1.666   2.793
 1749TIP3    H2 5212   4.752   1.712   2.649
 1750TIP3   OH2 5213   1.383   5.091   1.327
 1750TIP3    H1 5214   1.289   5.089   1.309
 1750TIP3    H2 5215   1.420   5.028   1.264
 1751TIP3   OH2 5216   3.947   3.153   5.720
 1751TIP3    H1 5217   3.953   3.158   5.815
 1751TIP3    H2 5218   3.892   3.227   5.696
 1752TIP3   OH2 5219   3.784   1.172   2.365
 1752TIP3    H1 5220   3.854   1.111   2.385
 1752TIP3    H2 5221   3.804   1.205   2.277
 1753TIP3   OH2 5222   0.719   2.207   5.829
 1753TIP3    H1 5223   0.736   2.211   5.735
 1753TIP3    H2 5224   0.659   2.280   5.845
 1754TIP3   OH2 5225   2.815   5.286   3.195
 1754TIP3    H1 5226   2.736   5.340   3.196
 1754TIP3    H2 5227   2.827   5.261   3.287
 1755TIP3   OH2 5228   4.346   1.121   0.783
 1755TIP3    H1 5229   4.435   1.135   0.816
 1755TIP3    H2 5230   4.343   1.028   0.762
 1756TIP3   OH2 5231   0.822   5.719   1.704
 1756TIP3    H1 5232   0.825   5.645   1.765
 1756TIP3    H2 5233   0.795   5.681   1.621
 1757TIP3   OH2 5234   1.252   0.037   1.161
 1757TIP3    H1 5235   1.265  -0.011   1.243
 1757TIP3    H2 5236   1.334   0.084   1.147
 1758TIP3   OH2 5237   0.078   0.835   2.819
 1758TIP3    H1 5238   0.055   0.772   2.887
 1758TIP3    H2 5239   0.173   0.846   2.828
 1759TIP3   OH2 5240   0.570   0.489   1.394
 1759TIP3    H1 5241   0.578   0.468   1.487
 1759TIP3    H2 5242   0.648   0.542   1.375
 1760TIP3   OH2 5243   4.268   5.059   0.359
 1760TIP3    H1 5244   4.219   5.070   0.277
 1760TIP3    H2 5245   4.289   5.149   0.386
 1761TIP3   OH2 5246   6.897   5.214   1.237
 1761TIP3    H1 5247   6.911   5.183   1.327
 1761TIP3    H2 5248   6.802   5.211   1.225
 1762TIP3   OH2 5249   0.568   1.505   4.855
 1762TIP3    H1 5250   0.496   1.463   4.808
 1762TIP3    H2 5251   0.621   1.433   4.889
 1763TIP3   OH2 5252   4.449   4.016   1.377
 1763TIP3    H1 5253   4.359   4.044   1.395
 1763TIP3    H2 5254   4.499   4.048   1.452
 1764TIP3   OH2 5255   0.382   5.615   3.500
 1764TIP3    H1 5256   0.421   5.534   3.533
 1764TIP3    H2 5257   0.396   5.678   3.570
 1765TIP3   OH2 5258   0.072   2.816   0.301
 1765TIP3    H1 5259   0.151   2.812   0.246
 1765TIP3    H2 5260   0.101   2.859   0.381
 1766TIP3   OH2 5261   2.689   4.350   0.563
 1766TIP3    H1 5262   2.702   4.295   0.485
 1766TIP3    H2 5263   2.693   4.288   0.636
 1767TIP3   OH2 5264   3.302   3.863   2.134
 1767TIP3    H1 5265   3.318   3.874   2.041
 1767TIP3    H2 5266   3.315   3.770   2.150
 1768TIP3   OH2 5267   5.775   3.706   2.293
 1768TIP3    H1 5268   5.700   3.765   2.308
 1768TIP3    H2 5269   5.739   3.635   2.239
 1769TIP3   OH2 5270   4.489   4.443   3.040
 1769TIP3    H1 5271   4.486   4.367   2.982
 1769TIP3    H2 5272   4.563   4.495   3.008
 1770TIP3   OH2 5273   0.677   5.268   5.044
 1770TIP3    H1 5274   0.581   5.272   5.034
 1770TIP3    H2 5275   0.708   5.241   4.957
 1771TIP3   OH2 5276   0.018   5.252   1.554
 1771TIP3    H1 5277  -0.009   5.210   1.636
 1771TIP3    H2 5278   0.102   5.294   1.575
 1772TIP3   OH2 5279   0.929   4.781   0.915
 1772TIP3    H1 5280   0.889   4.769   1.001
 1772TIP3    H2 5281   1.007   4.834   0.932
 1773TIP3   OH2 5282   4.028   3.307   2.790
 1773TIP3    H1 5283   3.951   3.258   2.818
 1773TIP3    H2 5284   3.999   3.399   2.791
 1774TIP3   OH2 5285   6.082   1.752   3.561
 1774TIP3    H1 5286   6.123   1.834   3.535
 1774TIP3    H2 5287   5.997   1.778   3.597
 1775TIP3   OH2 5288   5.114   6.621   3.186
 1775TIP3    H1 5289   5.141   6.613   3.095
 1775TIP3    H2 5290   5.019   6.629   3.183
 1776TIP3   OH2 5291   0.181   3.045   1.590
 1776TIP3    H1 5292   0.144   3.013   1.672
 1776TIP3    H2 5293   0.109   3.041   1.528
 1777TIP3   OH2 5294   0.594   5.570   4.973
 1777TIP3    H1 5295   0.645   5.491   4.989
 1777TIP3    H2 5296   0.624   5.632   5.040
 1778TIP3   OH2 5297   4.905   2.907   3.259
 1778TIP3    H1 5298   4.993   2.943   3.268
 1778TIP3    H2 5299   4.862   2.927   3.342
 1779TIP3   OH2 5300   4.324   5.981   2.152
 1779TIP3    H1 5301   4.358   6.057   2.199
 1779TIP3    H2 5302   4.389   5.912   2.169
 1780TIP3   OH2 5303   2.268   1.986   5.062
 1780TIP3    H1 5304   2.289   1.983   5.155
 1780TIP3    H2 5305   2.343   1.946   5.019
 1781TIP3   OH2 5306   4.783   2.015   2.054
 1781TIP3    H1 5307   4.734   2.050   1.979
 1781TIP3    H2 5308   4.756   1.924   2.060
 1782TIP3   OH2 5309   5.816   2.370   1.833
 1782TIP3    H1 5310   5.846   2.328   1.753
 1782TIP3    H2 5311   5.880   2.344   1.899
 1783TIP3   OH2 5312   4.026   1.399   2.845
 1783TIP3    H1 5313   4.027   1.484   2.888
 1783TIP3    H2 5314   4.075   1.412   2.763
 1784TIP3   OH2 5315   0.366   5.894   4.534
 1784TIP3    H1 5316   0.340   5.940   4.614
 1784TIP3    H2 5317   0.375   5.803   4.560
 1785TIP3   OH2 5318   1.826   4.522   5.396
 1785TIP3    H1 5319   1.735   4.549   5.384
 1785TIP3    H2 5320   1.844   4.465   5.322
 1786TIP3   OH2 5321   4.303   4.905   4.238
 1786TIP3    H1 5322   4.272   4.839   4.176
 1786TIP3    H2 5323   4.223   4.943   4.274
 1787TIP3   OH2 5324   3.747   6.347   0.203
 1787TIP3    H1 5325   3.755   6.323   0.110
 1787TIP3    H2 5326   3.830   6.392   0.222
 1788TIP3   OH2 5327   6.486   6.284   1.270
 1788TIP3    H1 5328   6.408   6.244   1.309
 1788TIP3    H2 5329   6.553   6.216   1.274
 1789TIP3   OH2 5330   2.404   1.331   3.922
 1789TIP3    H1 5331   2.442   1.254   3.879
 1789TIP3    H2 5332   2.322   1.299   3.959
 1790TIP3   OH2 5333   5.772   5.592   4.941
 1790TIP3    H1 5334   5.831   5.666   4.939
 1790TIP3    H2 5335   5.819   5.524   4.989
 1791TIP3   OH2 5336   7.112   4.546   3.157
 1791TIP3    H1 5337   7.098   4.454   3.178
 1791TIP3    H2 5338   7.097   4.552   3.062
 1792TIP3   OH2 5339   6.984   1.610   0.690
 1792TIP3    H1 5340   6.927   1.592   0.764
 1792TIP3    H2 5341   6.957   1.548   0.622
 1793TIP3   OH2 5342   0.147   4.103   5.682
 1793TIP3    H1 5343   0.059   4.096   5.719
 1793TIP3    H2 5344   0.133   4.122   5.589
 1794TIP3   OH2 5345   1.312   0.363   1.170
 1794TIP3    H1 5346   1.315   0.421   1.094
 1794TIP3    H2 5347   1.218   0.353   1.189
 1795TIP3   OH2 5348   1.622   5.936   3.032
 1795TIP3    H1 5349   1.588   5.856   3.071
 1795TIP3    H2 5350   1.717   5.926   3.035
 1796TIP3   OH2 5351   3.901   6.374   1.263
 1796TIP3    H1 5352   3.916   6.429   1.186
 1796TIP3    H2 5353   3.918   6.431   1.337
 1797TIP3   OH2 5354   1.242  -0.002   0.897
 1797TIP3    H1 5355   1.211   0.004   0.987
 1797TIP3    H2 5356   1.184   0.057   0.848
 1798TIP3   OH2 5357   1.773   4.812   5.922
 1798TIP3    H1 5358   1.858   4.785   5.956
 1798TIP3    H2 5359   1.784   4.903   5.897
 1799TIP3   OH2 5360   6.917   0.657   3.992
 1799TIP3    H1 5361   6.925   0.592   3.922
 1799TIP3    H2 5362   6.866   0.728   3.953
 1800TIP3   OH2 5363   0.455   3.676   3.965
 1800TIP3    H1 5364   0.367   3.710   3.982
 1800TIP3    H2 5365   0.446   3.622   3.886
 1801TIP3   OH2 5366   2.210   4.957   5.373
 1801TIP3    H1 5367   2.186   4.880   5.321
 1801TIP3    H2 5368   2.131   5.012   5.371
 1802TIP3   OH2 5369   3.339   2.068   3.234
 1802TIP3    H1 5370   3.423   2.025   3.222
 1802TIP3    H2 5371   3.321   2.109   3.149
 1803TIP3   OH2 5372   1.651   3.538   1.240
 1803TIP3    H1 5373   1.640   3.518   1.333
 1803TIP3    H2 5374   1.671   3.454   1.199
 1804TIP3   OH2 5375   4.193   2.959   5.777
 1804TIP3    H1 5376   4.124   3.017   5.744
 1804TIP3    H2 5377   4.179   2.876   5.732
 1805TIP3   OH2 5378   4.180   4.216   2.168
 1805TIP3    H1 5379   4.159   4.200   2.260
 1805TIP3    H2 5380   4.249   4.282   2.171
 1806TIP3   OH2 5381   2.160   1.901   1.560
 1806TIP3    H1 5382   2.156   1.997   1.553
 1806TIP3    H2 5383   2.139   1.870   1.472
 1807TIP3   OH2 5384   5.081   0.124   1.055
 1807TIP3    H1 5385   5.059   0.109   0.963
 1807TIP3    H2 5386   5.175   0.142   1.054
 1808TIP3   OH2 5387   1.475   0.682   2.484
 1808TIP3    H1 5388   1.550   0.665   2.427
 1808TIP3    H2 5389   1.429   0.754   2.442
 1809TIP3   OH2 5390   1.000   4.773   3.704
 1809TIP3    H1 5391   1.035   4.712   3.768
 1809TIP3    H2 5392   1.058   4.765   3.628
 1810TIP3   OH2 5393   2.542   3.171   5.033
 1810TIP3    H1 5394   2.568   3.140   5.119
 1810TIP3    H2 5395   2.616   3.224   5.003
 1811TIP3   OH2 5396   2.194   2.197   4.796
 1811TIP3    H1 5397   2.120   2.177   4.853
 1811TIP3    H2 5398   2.177   2.286   4.765
 1812TIP3   OH2 5399   1.614   4.787   5.679
 1812TIP3    H1 5400   1.540   4.726   5.677
 1812TIP3    H2 5401   1.657   4.769   5.763
 1813TIP3   OH2 5402   3.648   0.493   4.280
 1813TIP3    H1 5403   3.699   0.481   4.200
 1813TIP3    H2 5404   3.685   0.572   4.321
 1814TIP3   OH2 5405   1.426   5.504   2.942
 1814TIP3    H1 5406   1.403   5.423   2.986
 1814TIP3    H2 5407   1.352   5.523   2.885
 1815TIP3   OH2 5408   1.540   0.415   0.301
 1815TIP3    H1 5409   1.627   0.442   0.272
 1815TIP3    H2 5410   1.549   0.403   0.396
 1816TIP3   OH2 5411   0.725   5.329   2.215
 1816TIP3    H1 5412   0.690   5.416   2.198
 1816TIP3    H2 5413   0.700   5.277   2.138
 1817TIP3   OH2 5414   6.515   6.657   5.192
 1817TIP3    H1 5415   6.477   6.741   5.215
 1817TIP3    H2 5416   6.609   6.674   5.182
 1818TIP3   OH2 5417   6.424   5.266   0.440
 1818TIP3    H1 5418   6.476   5.227   0.510
 1818TIP3    H2 5419   6.444   5.213   0.363
 1819TIP3   OH2 5420   1.805   4.930   2.890
 1819TIP3    H1 5421   1.731   4.923   2.831
 1819TIP3    H2 5422   1.860   5.000   2.853
 1820TIP3   OH2 5423   5.276   2.532   3.950
 1820TIP3    H1 5424   5.295   2.454   4.003
 1820TIP3    H2 5425   5.359   2.550   3.905
 1821TIP3   OH2 5426   6.367   2.099   2.002
 1821TIP3    H1 5427   6.313   2.130   2.074
 1821TIP3    H2 5428   6.457   2.111   2.032
 1822TIP3   OH2 5429   5.909   2.851   3.616
 1822TIP3    H1 5430   5.970   2.920   3.642
 1822TIP3    H2 5431   5.938   2.824   3.529
 1823TIP3   OH2 5432   0.518   4.382   0.117
 1823TIP3    H1 5433   0.543   4.310   0.174
 1823TIP3    H2 5434   0.577   4.453   0.140
 1824TIP3   OH2 5435   6.551   3.289   1.643
 1824TIP3    H1 5436   6.606   3.212   1.662
 1824TIP3    H2 5437   6.472   3.253   1.604
 1825TIP3   OH2 5438   4.186   5.350   3.992
 1825TIP3    H1 5439   4.248   5.327   4.060
 1825TIP3    H2 5440   4.101   5.351   4.036
 1826TIP3   OH2 5441   5.144   1.663   3.382
 1826TIP3    H1 5442   5.157   1.603   3.455
 1826TIP3    H2 5443   5.222   1.719   3.383
 1827TIP3   OH2 5444   1.391   4.594   5.665
 1827TIP3    H1 5445   1.323   4.617   5.602
 1827TIP3    H2 5446   1.343   4.557   5.740
 1828TIP3   OH2 5447   6.413   6.761   3.251
 1828TIP3    H1 5448   6.401   6.856   3.256
 1828TIP3    H2 5449   6.491   6.750   3.196
 1829TIP3   OH2 5450   2.424   1.899   0.444
 1829TIP3    H1 5451   2.479   1.924   0.370
 1829TIP3    H2 5452   2.379   1.980   0.470
 1830TIP3   OH2 5453   1.880   6.679   5.916
 1830TIP3    H1 5454   1.974   6.679   5.901
 1830TIP3    H2 5455   1.846   6.612   5.857
 1831TIP3   OH2 5456   4.504   5.090   2.848
 1831TIP3    H1 5457   4.570   5.111   2.782
 1831TIP3    H2 5458   4.421   5.111   2.806
 1832TIP3   OH2 5459   3.064   5.274   1.088
 1832TIP3    H1 5460   3.050   5.208   1.020
 1832TIP3    H2 5461   3.030   5.233   1.168
 1833TIP3   OH2 5462   4.281   3.049   3.735
 1833TIP3    H1 5463   4.201   3.053   3.788
 1833TIP3    H2 5464   4.347   3.014   3.795
 1834TIP3   OH2 5465   0.958   1.492   2.970
 1834TIP3    H1 5466   0.923   1.551   2.903
 1834TIP3    H2 5467   0.881   1.444   3.001
 1835TIP3   OH2 5468   4.805   4.969   4.600
 1835TIP3    H1 5469   4.748   4.987   4.525
 1835TIP3    H2 5470   4.803   5.049   4.652
 1836TIP3   OH2 5471   7.022   5.850   0.819
 1836TIP3    H1 5472   7.000   5.800   0.741
 1836TIP3    H2 5473   7.111   5.823   0.841
 1837TIP3   OH2 5474   6.244  -0.017   2.410
 1837TIP3    H1 5475   6.200  -0.027   2.495
 1837TIP3    H2 5476   6.174   0.003   2.348
 1838TIP3   OH2 5477   7.105   0.218   0.435
 1838TIP3    H1 5478   7.117   0.306   0.469
 1838TIP3    H2 5479   7.011   0.202   0.442
 1839TIP3   OH2 5480   4.482   3.936   3.419
 1839TIP3    H1 5481   4.456   4.001   3.353
 1839TIP3    H2 5482   4.402   3.919   3.469
 1840TIP3   OH2 5483   6.209   4.181   2.364
 1840TIP3    H1 5484   6.150   4.220   2.429
 1840TIP3    H2 5485   6.255   4.255   2.325
 1841TIP3   OH2 5486   5.736   4.990   4.234
 1841TIP3    H1 5487   5.783   5.050   4.293
 1841TIP3    H2 5488   5.754   5.024   4.146
 1842TIP3   OH2 5489   6.326   3.635   0.783
 1842TIP3    H1 5490   6.258   3.579   0.820
 1842TIP3    H2 5491   6.408   3.588   0.801
 1843TIP3   OH2 5492   6.199   2.840   4.767
 1843TIP3    H1 5493   6.272   2.779   4.762
 1843TIP3    H2 5494   6.221   2.899   4.839
 1844TIP3   OH2 5495   3.521   6.577   5.539
 1844TIP3    H1 5496   3.426   6.580   5.553
 1844TIP3    H2 5497   3.556   6.643   5.599
 1845TIP3   OH2 5498   2.843   1.094   5.428
 1845TIP3    H1 5499   2.790   1.048   5.494
 1845TIP3    H2 5500   2.917   1.129   5.478
 1846TIP3   OH2 5501   6.052   2.304   1.952
 1846TIP3    H1 5502   6.009   2.241   2.010
 1846TIP3    H2 5503   6.077   2.252   1.875
 1847TIP3   OH2 5504   4.777   2.547   2.605
 1847TIP3    H1 5505   4.833   2.469   2.606
 1847TIP3    H2 5506   4.831   2.614   2.648
 1848TIP3   OH2 5507   3.189   3.314   1.763
 1848TIP3    H1 5508   3.253   3.371   1.806
 1848TIP3    H2 5509   3.189   3.343   1.671
 1849TIP3   OH2 5510   2.415   3.779   5.298
 1849TIP3    H1 5511   2.360   3.716   5.251
 1849TIP3    H2 5512   2.504   3.746   5.288
 1850TIP3   OH2 5513   3.385   2.089   0.838
 1850TIP3    H1 5514   3.475   2.058   0.848
 1850TIP3    H2 5515   3.345   2.076   0.925
 1851TIP3   OH2 5516   1.151   3.472   3.118
 1851TIP3    H1 5517   1.074   3.526   3.104
 1851TIP3    H2 5518   1.150   3.409   3.046
 1852TIP3   OH2 5519   4.578   5.446   0.220
 1852TIP3    H1 5520   4.576   5.360   0.263
 1852TIP3    H2 5521   4.670   5.462   0.201
 1853TIP3   OH2 5522   1.905   6.624   3.892
 1853TIP3    H1 5523   1.816   6.659   3.896
 1853TIP3    H2 5524   1.896   6.541   3.845
 1854TIP3   OH2 5525   4.204   6.072   1.933
 1854TIP3    H1 5526   4.205   6.167   1.944
 1854TIP3    H2 5527   4.270   6.040   1.995
 1855TIP3   OH2 5528   0.523   2.662   1.409
 1855TIP3    H1 5529   0.473   2.728   1.457
 1855TIP3    H2 5530   0.582   2.624   1.474
 1856TIP3   OH2 5531   0.778   2.169   1.693
 1856TIP3    H1 5532   0.844   2.197   1.630
 1856TIP3    H2 5533   0.724   2.247   1.708
 1857TIP3   OH2 5534   1.049   3.093   1.870
 1857TIP3    H1 5535   1.122   3.153   1.856
 1857TIP3    H2 5536   0.986   3.115   1.801
 1858TIP3   OH2 5537   1.618   4.669   5.307
 1858TIP3    H1 5538   1.596   4.759   5.329
 1858TIP3    H2 5539   1.542   4.618   5.333
 1859TIP3   OH2 5540   6.255   4.793   0.716
 1859TIP3    H1 5541   6.303   4.795   0.799
 1859TIP3    H2 5542   6.196   4.718   0.724
 1860TIP3   OH2 5543   3.134   5.583   1.540
 1860TIP3    H1 5544   3.078   5.565   1.464
 1860TIP3    H2 5545   3.077   5.572   1.616
 1861TIP3   OH2 5546   6.899   3.594   0.731
 1861TIP3    H1 5547   6.920   3.503   0.712
 1861TIP3    H2 5548   6.884   3.633   0.645
 1862TIP3   OH2 5549   1.381   6.152   5.422
 1862TIP3    H1 5550   1.467   6.131   5.386
 1862TIP3    H2 5551   1.337   6.202   5.353
 1863TIP3   OH2 5552   2.925   6.209   2.403
 1863TIP3    H1 5553   2.837   6.184   2.431
 1863TIP3    H2 5554   2.938   6.163   2.320
 1864TIP3   OH2 5555   4.966   0.155   3.991
 1864TIP3    H1 5556   4.919   0.210   4.053
 1864TIP3    H2 5557   4.998   0.082   4.043
 1865TIP3   OH2 5558   2.112   1.683   3.573
 1865TIP3    H1 5559   2.087   1.759   3.625
 1865TIP3    H2 5560   2.094   1.608   3.629
 1866TIP3   OH2 5561   6.510   0.492   2.234
 1866TIP3    H1 5562   6.480   0.435   2.306
 1866TIP3    H2 5563   6.506   0.436   2.157
 1867TIP3   OH2 5564   4.678   5.166   2.653
 1867TIP3    H1 5565   4.745   5.140   2.716
 1867TIP3    H2 5566   4.699   5.116   2.574
 1868TIP3   OH2 5567   1.566   2.685   5.649
 1868TIP3    H1 5568   1.589   2.757   5.590
 1868TIP3    H2 5569   1.644   2.630   5.652
 1869TIP3   OH2 5570   2.414   3.492   2.092
 1869TIP3    H1 5571   2.391   3.468   2.002
 1869TIP3    H2 5572   2.495   3.542   2.084
 1870TIP3   OH2 5573   4.899   4.701   5.075
 1870TIP3    H1 5574   4.810   4.692   5.111
 1870TIP3    H2 5575   4.921   4.793   5.089
 1871TIP3   OH2 5576   2.057   0.344   1.596
 1871TIP3    H1 5577   1.994   0.413   1.616
 1871TIP3    H2 5578   2.019   0.297   1.522
 1872TIP3   OH2 5579   0.545   5.401   4.661
 1872TIP3    H1 5580   0.626   5.401   4.712
 1872TIP3    H2 5581   0.559   5.466   4.592
 1873TIP3   OH2 5582   6.292   5.027   2.082
 1873TIP3    H1 5583   6.372   4.985   2.114
 1873TIP3    H2 5584   6.221   4.974   2.118
 1874TIP3   OH2 5585   4.949   6.523   4.736
 1874TIP3    H1 5586   5.044   6.532   4.732
 1874TIP3    H2 5587   4.916   6.598   4.686
 1875TIP3   OH2 5588   2.256   3.231   0.636
 1875TIP3    H1 5589   2.274   3.227   0.542
 1875TIP3    H2 5590   2.189   3.164   0.650
 1876TIP3   OH2 5591   6.030   1.256   5.162
 1876TIP3    H1 5592   5.996   1.224   5.078
 1876TIP3    H2 5593   6.014   1.184   5.223
 1877TIP3   OH2 5594   6.262   3.813   1.361
 1877TIP3    H1 5595   6.184   3.801   1.414
 1877TIP3    H2 5596   6.231   3.858   1.282
 1878TIP3   OH2 5597   4.152   5.708   0.677
 1878TIP3    H1 5598   4.186   5.796   0.656
 1878TIP3    H2 5599   4.058   5.715   0.660
 1879TIP3   OH2 5600   1.293   3.887   4.723
 1879TIP3    H1 5601   1.260   3.974   4.703
 1879TIP3    H2 5602   1.215   3.836   4.746
 1880TIP3   OH2 5603   4.640   2.483   3.980
 1880TIP3    H1 5604   4.728   2.463   3.948
 1880TIP3    H2 5605   4.615   2.562   3.931
 1881TIP3   OH2 5606   1.266   2.428   3.751
 1881TIP3    H1 5607   1.272   2.497   3.684
 1881TIP3    H2 5608   1.356   2.400   3.764
 1882TIP3   OH2 5609   6.049   2.888   2.589
 1882TIP3    H1 5610   6.140   2.865   2.570
 1882TIP3    H2 5611   6.005   2.883   2.505
 1883TIP3   OH2 5612   5.989   3.892   1.954
 1883TIP3    H1 5613   5.970   3.912   2.045
 1883TIP3    H2 5614   5.904   3.873   1.915
 1884TIP3   OH2 5615   1.454   3.919   5.398
 1884TIP3    H1 5616   1.394   3.947   5.467
 1884TIP3    H2 5617   1.414   3.950   5.317
 1885TIP3   OH2 5618   6.959   3.008   3.622
 1885TIP3    H1 5619   6.904   3.076   3.582
 1885TIP3    H2 5620   6.977   2.947   3.550
 1886TIP3   OH2 5621   3.656   5.733   5.131
 1886TIP3    H1 5622   3.590   5.798   5.104
 1886TIP3    H2 5623   3.713   5.725   5.054
 1887TIP3   OH2 5624   4.224   4.415  -0.029
 1887TIP3    H1 5625   4.306   4.455   0.000
 1887TIP3    H2 5626   4.156   4.461   0.021
 1888TIP3   OH2 5627   3.602   3.160   4.547
 1888TIP3    H1 5628   3.609   3.170   4.642
 1888TIP3    H2 5629   3.576   3.069   4.534
 1889TIP3   OH2 5630   0.642   0.596   3.952
 1889TIP3    H1 5631   0.589   0.518   3.969
 1889TIP3    H2 5632   0.710   0.566   3.892
 1890TIP3   OH2 5633   1.483   0.362   1.833
 1890TIP3    H1 5634   1.432   0.441   1.812
 1890TIP3    H2 5635   1.419   0.291   1.831
 1891TIP3   OH2 5636   6.223  -0.009   1.343
 1891TIP3    H1 5637   6.179  -0.006   1.258
 1891TIP3    H2 5638   6.166   0.041   1.401
 1892TIP3   OH2 5639   0.178   1.223   4.627
 1892TIP3    H1 5640   0.184   1.139   4.580
 1892TIP3    H2 5641   0.084   1.233   4.645
 1893TIP3   OH2 5642   0.180   5.488   5.849
 1893TIP3    H1 5643   0.109   5.504   5.911
 1893TIP3    H2 5644   0.150   5.529   5.768
 1894TIP3   OH2 5645   2.432   5.041   5.481
 1894TIP3    H1 5646   2.421   5.028   5.576
 1894TIP3    H2 5647   2.348   5.015   5.444
 1895TIP3   OH2 5648   2.499   2.560   5.606
 1895TIP3    H1 5649   2.593   2.544   5.604
 1895TIP3    H2 5650   2.474   2.573   5.514
 1896TIP3   OH2 5651   5.649   5.006   3.450
 1896TIP3    H1 5652   5.734   4.978   3.482
 1896TIP3    H2 5653   5.616   5.066   3.517
 1897TIP3   OH2 5654   4.652   1.876   5.090
 1897TIP3    H1 5655   4.601   1.870   5.171
 1897TIP3    H2 5656   4.702   1.795   5.087
 1898TIP3   OH2 5657   2.991   3.713   5.394
 1898TIP3    H1 5658   3.057   3.749   5.454
 1898TIP3    H2 5659   3.034   3.711   5.309
 1899TIP3   OH2 5660   0.752   3.355   0.468
 1899TIP3    H1 5661   0.676   3.390   0.422
 1899TIP3    H2 5662   0.718   3.323   0.552
 1900TIP3   OH2 5663   5.191   5.969   2.901
 1900TIP3    H1 5664   5.161   5.894   2.953
 1900TIP3    H2 5665   5.140   5.964   2.820
 1901TIP3   OH2 5666   1.611   2.537   3.073
 1901TIP3    H1 5667   1.604   2.462   3.014
 1901TIP3    H2 5668   1.704   2.541   3.096
 1902TIP3   OH2 5669   3.919   2.624   1.773
 1902TIP3    H1 5670   3.897   2.534   1.799
 1902TIP3    H2 5671   3.883   2.678   1.843
 1903TIP3   OH2 5672   1.457   3.884   2.817
 1903TIP3    H1 5673   1.373   3.875   2.862
 1903TIP3    H2 5674   1.504   3.803   2.838
 1904TIP3   OH2 5675   0.180   2.740   2.450
 1904TIP3    H1 5676   0.256   2.764   2.503
 1904TIP3    H2 5677   0.208   2.757   2.360
 1905TIP3   OH2 5678   3.977   3.158   2.549
 1905TIP3    H1 5679   4.063   3.159   2.508
 1905TIP3    H2 5680   3.983   3.226   2.617
 1906TIP3   OH2 5681   6.907   5.584   1.807
 1906TIP3    H1 5682   6.947   5.636   1.737
 1906TIP3    H2 5683   6.816   5.574   1.780
 1907TIP3   OH2 5684   2.251   5.947   0.621
 1907TIP3    H1 5685   2.169   5.952   0.571
 1907TIP3    H2 5686   2.320   5.958   0.555
 1908TIP3   OH2 5687   4.337   0.100   5.736
 1908TIP3    H1 5688   4.309   0.063   5.819
 1908TIP3    H2 5689   4.335   0.194   5.750
 1909TIP3   OH2 5690   2.873   5.035   2.321
 1909TIP3    H1 5691   2.903   4.948   2.296
 1909TIP3    H2 5692   2.943   5.094   2.294
 1910TIP3   OH2 5693   0.255   1.047   1.439
 1910TIP3    H1 5694   0.335   1.099   1.437
 1910TIP3    H2 5695   0.210   1.071   1.357
 1911TIP3   OH2 5696   0.782   2.520   1.261
 1911TIP3    H1 5697   0.805   2.504   1.353
 1911TIP3    H2 5698   0.690   2.545   1.263
 1912TIP3   OH2 5699   0.240   5.207   5.863
 1912TIP3    H1 5700   0.186   5.284   5.842
 1912TIP3    H2 5701   0.230   5.150   5.787
 1913TIP3   OH2 5702   5.647   4.455   5.789
 1913TIP3    H1 5703   5.673   4.528   5.845
 1913TIP3    H2 5704   5.587   4.494   5.725
 1914TIP3   OH2 5705   6.227   3.543   1.674
 1914TIP3    H1 5706   6.162   3.484   1.637
 1914TIP3    H2 5707   6.198   3.557   1.765
 1915TIP3   OH2 5708   1.947   4.617   5.053
 1915TIP3    H1 5709   1.895   4.664   4.986
 1915TIP3    H2 5710   1.963   4.683   5.121
 1916TIP3   OH2 5711   4.727   3.376   2.631
 1916TIP3    H1 5712   4.664   3.443   2.658
 1916TIP3    H2 5713   4.807   3.426   2.611
 1917TIP3   OH2 5714   4.828   4.533   3.202
 1917TIP3    H1 5715   4.805   4.533   3.109
 1917TIP3    H2 5716   4.874   4.450   3.216
 1918TIP3   OH2 5717   4.280   3.120   3.473
 1918TIP3    H1 5718   4.286   3.099   3.566
 1918TIP3    H2 5719   4.306   3.212   3.468
 1919TIP3   OH2 5720   2.604   1.785   2.182
 1919TIP3    H1 5721   2.579   1.815   2.094
 1919TIP3    H2 5722   2.685   1.831   2.201
 1920TIP3   OH2 5723   1.633   4.061   5.732
 1920TIP3    H1 5724   1.639   3.969   5.757
 1920TIP3    H2 5725   1.548   4.069   5.689
 1921TIP3   OH2 5726   1.886   0.224   4.720
 1921TIP3    H1 5727   1.940   0.266   4.787
 1921TIP3    H2 5728   1.823   0.292   4.696
 1922TIP3   OH2 5729   6.690   2.094   5.775
 1922TIP3    H1 5730   6.785   2.080   5.777
 1922TIP3    H2 5731   6.653   2.008   5.792
 1923TIP3   OH2 5732   0.207   4.857   1.595
 1923TIP3    H1 5733   0.192   4.924   1.529
 1923TIP3    H2 5734   0.122   4.814   1.605
 1924TIP3   OH2 5735   1.242   4.018   2.498
 1924TIP3    H1 5736   1.170   4.048   2.443
 1924TIP3    H2 5737   1.200   3.964   2.565
 1925TIP3   OH2 5738   4.864   0.424   5.640
 1925TIP3    H1 5739   4.823   0.510   5.637
 1925TIP3    H2 5740   4.848   0.387   5.553
 1926TIP3   OH2 5741   0.193   3.534   2.848
 1926TIP3    H1 5742   0.189   3.615   2.796
 1926TIP3    H2 5743   0.217   3.467   2.784
 1927TIP3   OH2 5744   4.900   0.851   1.947
 1927TIP3    H1 5745   4.955   0.773   1.937
 1927TIP3    H2 5746   4.815   0.818   1.974
 1928TIP3   OH2 5747   4.583   6.645   3.346
 1928TIP3    H1 5748   4.503   6.616   3.391
 1928TIP3    H2 5749   4.588   6.739   3.367
 1929TIP3   OH2 5750   2.326   0.113   2.344
 1929TIP3    H1 5751   2.399   0.120   2.407
 1929TIP3    H2 5752   2.347   0.035   2.292
 1930TIP3   OH2 5753   3.423   4.153   5.755
 1930TIP3    H1 5754   3.413   4.142   5.849
 1930TIP3    H2 5755   3.334   4.169   5.723
 1931TIP3   OH2 5756   3.163   4.244   2.545
 1931TIP3    H1 5757   3.160   4.334   2.513
 1931TIP3    H2 5758   3.257   4.223   2.547
 1932TIP3   OH2 5759   6.993   6.084   1.774
 1932TIP3    H1 5760   6.992   6.179   1.762
 1932TIP3    H2 5761   7.075   6.066   1.820
 1933TIP3   OH2 5762   1.981   3.782   2.703
 1933TIP3    H1 5763   1.960   3.849   2.638
 1933TIP3    H2 5764   1.950   3.700   2.662
 1934TIP3   OH2 5765   4.250   3.637   2.261
 1934TIP3    H1 5766   4.294   3.664   2.181
 1934TIP3    H2 5767   4.258   3.712   2.320
 1935TIP3   OH2 5768   4.357   5.262   2.046
 1935TIP3    H1 5769   4.440   5.227   2.077
 1935TIP3    H2 5770   4.292   5.200   2.078
 1936TIP3   OH2 5771   2.761   3.530   4.286
 1936TIP3    H1 5772   2.850   3.557   4.267
 1936TIP3    H2 5773   2.735   3.584   4.361
 1937TIP3   OH2 5774   4.984   0.118   5.443
 1937TIP3    H1 5775   4.924   0.189   5.421
 1937TIP3    H2 5776   5.060   0.132   5.386
 1938TIP3   OH2 5777   4.451   5.740   2.219
 1938TIP3    H1 5778   4.453   5.729   2.314
 1938TIP3    H2 5779   4.409   5.660   2.187
 1939TIP3   OH2 5780   2.864   4.597   0.025
 1939TIP3    H1 5781   2.815   4.516   0.037
 1939TIP3    H2 5782   2.952   4.578   0.055
 1940TIP3   OH2 5783   4.370   4.235   2.859
 1940TIP3    H1 5784   4.300   4.212   2.799
 1940TIP3    H2 5785   4.336   4.212   2.946
 1941TIP3   OH2 5786   0.361   3.261   1.593
 1941TIP3    H1 5787   0.295   3.195   1.572
 1941TIP3    H2 5788   0.421   3.216   1.653
 1942TIP3   OH2 5789   0.862   6.460   5.776
 1942TIP3    H1 5790   0.769   6.481   5.769
 1942TIP3    H2 5791   0.867   6.368   5.752
 1943TIP3   OH2 5792   6.611   1.273   5.561
 1943TIP3    H1 5793   6.544   1.339   5.546
 1943TIP3    H2 5794   6.581   1.196   5.513
 1944TIP3   OH2 5795   6.431   0.846   0.361
 1944TIP3    H1 5796   6.478   0.810   0.436
 1944TIP3    H2 5797   6.445   0.783   0.291
 1945TIP3   OH2 5798   5.442   1.451   5.035
 1945TIP3    H1 5799   5.380   1.395   4.989
 1945TIP3    H2 5800   5.412   1.450   5.126
 1946TIP3   OH2 5801   0.187   3.709   2.362
 1946TIP3    H1 5802   0.218   3.637   2.418
 1946TIP3    H2 5803   0.211   3.682   2.273
 1947TIP3   OH2 5804   4.330   6.066   3.983
 1947TIP3    H1 5805   4.244   6.100   4.010
 1947TIP3    H2 5806   4.333   6.082   3.889
 1948TIP3   OH2 5807   4.343   3.403   3.411
 1948TIP3    H1 5808   4.338   3.398   3.507
 1948TIP3    H2 5809   4.432   3.375   3.390
 1949TIP3   OH2 5810   2.133   1.860   4.061
 1949TIP3    H1 5811   2.178   1.782   4.027
 1949TIP3    H2 5812   2.045   1.829   4.082
 1950TIP3   OH2 5813   2.649   6.085   2.103
 1950TIP3    H1 5814   2.610   6.029   2.037
 1950TIP3    H2 5815   2.576   6.112   2.159
 1951TIP3   OH2 5816   5.726   3.846   1.850
 1951TIP3    H1 5817   5.683   3.801   1.778
 1951TIP3    H2 5818   5.672   3.825   1.927
 1952TIP3   OH2 5819   6.975   1.748   1.891
 1952TIP3    H1 5820   7.066   1.720   1.885
 1952TIP3    H2 5821   6.979   1.833   1.934
 1953TIP3   OH2 5822   1.170   0.077   5.844
 1953TIP3    H1 5823   1.079   0.098   5.866
 1953TIP3    H2 5824   1.190  -0.002   5.895
 1954TIP3   OH2 5825   5.921   4.392   4.845
 1954TIP3    H1 5826   5.862   4.336   4.894
 1954TIP3    H2 5827   5.864   4.443   4.787
 1955TIP3   OH2 5828   1.886   6.434   5.225
 1955TIP3    H1 5829   1.828   6.504   5.197
 1955TIP3    H2 5830   1.949   6.476   5.284
 1956TIP3   OH2 5831   4.352   3.067   1.534
 1956TIP3    H1 5832   4.372   3.160   1.545
 1956TIP3    H2 5833   4.314   3.041   1.619
 1957TIP3   OH2 5834   1.642   0.090   1.358
 1957TIP3    H1 5835   1.635   0.124   1.269
 1957TIP3    H2 5836   1.561   0.116   1.400
 1958TIP3   OH2 5837   6.607   3.917   5.377
 1958TIP3    H1 5838   6.589   3.884   5.465
 1958TIP3    H2 5839   6.570   3.850   5.319
 1959TIP3   OH2 5840   4.886   3.409   1.957
 1959TIP3    H1 5841   4.849   3.331   1.998
 1959TIP3    H2 5842   4.819   3.436   1.893
 1960TIP3   OH2 5843   5.185   0.322   0.677
 1960TIP3    H1 5844   5.219   0.233   0.668
 1960TIP3    H2 5845   5.112   0.314   0.739
 1961TIP3   OH2 5846   5.879   2.137   4.243
 1961TIP3    H1 5847   5.842   2.217   4.281
 1961TIP3    H2 5848   5.840   2.066   4.295
 1962TIP3   OH2 5849   6.703   2.834   0.810
 1962TIP3    H1 5850   6.690   2.829   0.715
 1962TIP3    H2 5851   6.738   2.748   0.834
 1963TIP3   OH2 5852   5.002   2.227   1.850
 1963TIP3    H1 5853   4.974   2.289   1.917
 1963TIP3    H2 5854   4.939   2.155   1.856
 1964TIP3   OH2 5855   2.446   5.963   3.476
 1964TIP3    H1 5856   2.495   6.014   3.411
 1964TIP3    H2 5857   2.483   5.875   3.472
 1965TIP3   OH2 5858   5.080   3.103   4.840
 1965TIP3    H1 5859   5.065   3.194   4.865
 1965TIP3    H2 5860   5.158   3.106   4.784
 1966TIP3   OH2 5861   1.565   1.067   0.555
 1966TIP3    H1 5862   1.546   1.035   0.467
 1966TIP3    H2 5863   1.479   1.075   0.597
 1967TIP3   OH2 5864   4.782   1.126   0.393
 1967TIP3    H1 5865   4.752   1.216   0.387
 1967TIP3    H2 5866   4.725   1.077   0.333
 1968TIP3   OH2 5867   5.909   1.470   3.627
 1968TIP3    H1 5868   5.962   1.462   3.548
 1968TIP3    H2 5869   5.969   1.448   3.698
 1969TIP3   OH2 5870   1.945   3.787   4.983
 1969TIP3    H1 5871   1.963   3.707   5.033
 1969TIP3    H2 5872   2.028   3.806   4.939
 1970TIP3   OH2 5873   1.254   3.582   5.786
 1970TIP3    H1 5874   1.308   3.565   5.863
 1970TIP3    H2 5875   1.206   3.501   5.771
 1971TIP3   OH2 5876   0.260   0.567   4.078
 1971TIP3    H1 5877   0.258   0.656   4.041
 1971TIP3    H2 5878   0.170   0.553   4.109
 1972TIP3   OH2 5879   6.410   1.235   0.132
 1972TIP3    H1 5880   6.467   1.290   0.078
 1972TIP3    H2 5881   6.416   1.148   0.093
 1973TIP3   OH2 5882   2.369   1.211   3.115
 1973TIP3    H1 5883   2.366   1.307   3.107
 1973TIP3    H2 5884   2.461   1.191   3.129
 1974TIP3   OH2 5885   4.070   6.624   4.497
 1974TIP3    H1 5886   4.113   6.538   4.488
 1974TIP3    H2 5887   4.021   6.618   4.579
 1975TIP3   OH2 5888   2.638   4.313   4.062
 1975TIP3    H1 5889   2.609   4.346   3.977
 1975TIP3    H2 5890   2.596   4.371   4.125
 1976TIP3   OH2 5891   1.775   3.688   3.934
 1976TIP3    H1 5892   1.788   3.770   3.982
 1976TIP3    H2 5893   1.745   3.716   3.847
 1977TIP3   OH2 5894   2.469   1.881   3.922
 1977TIP3    H1 5895   2.498   1.970   3.943
 1977TIP3    H2 5896   2.528   1.853   3.852
 1978TIP3   OH2 5897   2.113   0.874   0.928
 1978TIP3    H1 5898   2.151   0.887   1.015
 1978TIP3    H2 5899   2.064   0.955   0.911
 1979TIP3   OH2 5900   3.165   2.486   5.071
 1979TIP3    H1 5901   3.192   2.462   4.983
 1979TIP3    H2 5902   3.093   2.547   5.058
 1980TIP3   OH2 5903   5.390   3.642   5.361
 1980TIP3    H1 5904   5.414   3.630   5.453
 1980TIP3    H2 5905   5.319   3.707   5.363
 1981TIP3   OH2 5906   6.177   3.968   2.175
 1981TIP3    H1 5907   6.226   3.983   2.094
 1981TIP3    H2 5908   6.198   4.044   2.230
 1982TIP3   OH2 5909   2.136   0.215   4.531
 1982TIP3    H1 5910   2.200   0.187   4.597
 1982TIP3    H2 5911   2.051   0.192   4.568
 1983TIP3   OH2 5912   3.796   1.713   0.335
 1983TIP3    H1 5913   3.730   1.674   0.277
 1983TIP3    H2 5914   3.864   1.645   0.342
 1984TIP3   OH2 5915   3.476   2.738   3.775
 1984TIP3    H1 5916   3.522   2.822   3.766
 1984TIP3    H2 5917   3.422   2.749   3.853
 1985TIP3   OH2 5918   2.995   0.722   1.346
 1985TIP3    H1 5919   2.999   0.811   1.311
 1985TIP3    H2 5920   2.992   0.665   1.269
 1986TIP3   OH2 5921   1.861   3.282   3.204
 1986TIP3    H1 5922   1.792   3.343   3.232
 1986TIP3    H2 5923   1.868   3.294   3.110
 1987TIP3   OH2 5924   5.783   2.297   3.409
 1987TIP3    H1 5925   5.782   2.309   3.504
 1987TIP3    H2 5926   5.823   2.211   3.397
 1988TIP3   OH2 5927   6.974   4.274   0.416
 1988TIP3    H1 5928   6.904   4.215   0.388
 1988TIP3    H2 5929   6.961   4.352   0.362
 1989TIP3   OH2 5930   3.901   4.968   4.037
 1989TIP3    H1 5931   3.894   5.019   3.956
 1989TIP3    H2 5932   3.939   4.885   4.010
 1990TIP3   OH2 5933   6.260   1.557   5.834
 1990TIP3    H1 5934   6.179   1.530   5.790
 1990TIP3    H2 5935   6.306   1.474   5.852
 1991TIP3   OH2 5936   5.631   4.742   4.335
 1991TIP3    H1 5937   5.649   4.821   4.284
 1991TIP3    H2 5938   5.660   4.670   4.280
 1992TIP3   OH2 5939   4.141   3.616   0.724
 1992TIP3    H1 5940   4.086   3.538   0.712
 1992TIP3    H2 5941   4.082   3.681   0.762
 1993TIP3   OH2 5942   5.361   0.771   5.033
 1993TIP3    H1 5943   5.291   0.835   5.044
 1993TIP3    H2 5944   5.399   0.791   4.947
 1994TIP3   OH2 5945   1.775   2.370   0.130
 1994TIP3    H1 5946   1.723   2.445   0.101
 1994TIP3    H2 5947   1.841   2.359   0.062
 1995TIP3   OH2 5948   5.580   3.520   4.618
 1995TIP3    H1 5949   5.658   3.481   4.577
 1995TIP3    H2 5950   5.600   3.614   4.621
 1996TIP3   OH2 5951   0.288   6.005   3.412
 1996TIP3    H1 5952   0.273   6.014   3.507
 1996TIP3    H2 5953   0.264   6.091   3.376
 1997TIP3   OH2 5954   4.594   6.231   0.586
 1997TIP3    H1 5955   4.511   6.277   0.595
 1997TIP3    H2 5956   4.656   6.283   0.638
 1998TIP3   OH2 5957   3.855   2.711   5.222
 1998TIP3    H1 5958   3.841   2.648   5.292
 1998TIP3    H2 5959   3.832   2.796   5.261
 1999TIP3   OH2 5960   5.183   5.323   2.034
 1999TIP3    H1 5961   5.092   5.326   2.002
 1999TIP3    H2 5962   5.219   5.244   1.994
 2000TIP3   OH2 5963   0.975   3.564   2.486
 2000TIP3    H1 5964   0.897   3.515   2.458
 2000TIP3    H2 5965   0.981   3.637   2.424
 2001TIP3   OH2 5966   4.534   5.321   3.917
 2001TIP3    H1 5967   4.439   5.310   3.914
 2001TIP3    H2 5968   4.558   5.349   3.829
 2002TIP3   OH2 5969   3.335   2.836   0.227
 2002TIP3    H1 5970   3.243   2.819   0.210
 2002TIP3    H2 5971   3.380   2.804   0.149
 2003TIP3   OH2 5972   5.297   5.410   2.622
 2003TIP3    H1 5973   5.380   5.443   2.588
 2003TIP3    H2 5974   5.240   5.487   2.624
 2004TIP3   OH2 5975   1.855   3.028   3.317
 2004TIP3    H1 5976   1.839   2.969   3.243
 2004TIP3    H2 5977   1.855   3.115   3.278
 2005TIP3   OH2 5978   7.057   2.431   2.687
 2005TIP3    H1 5979   7.053   2.506   2.628
 2005TIP3    H2 5980   6.965   2.413   2.709
 2006TIP3   OH2 5981   4.945   5.153   3.745
 2006TIP3    H1 5982   5.029   5.129   3.784
 2006TIP3    H2 5983   4.969   5.191   3.660
 2007TIP3   OH2 5984   6.256   1.055   3.742
 2007TIP3    H1 5985   6.175   1.099   3.770
 2007TIP3    H2 5986   6.287   1.009   3.820
 2008TIP3   OH2 5987   6.234   0.472   2.659
 2008TIP3    H1 5988   6.204   0.547   2.607
 2008TIP3    H2 5989   6.304   0.507   2.713
 2009TIP3   OH2 5990   4.330   1.344   1.268
 2009TIP3    H1 5991   4.310   1.437   1.258
 2009TIP3    H2 5992   4.379   1.321   1.189
 2010TIP3   OH2 5993   2.532   5.284   1.268
 2010TIP3    H1 5994   2.479   5.226   1.322
 2010TIP3    H2 5995   2.472   5.351   1.238
 2011TIP3   OH2 5996   6.545   4.153   1.943
 2011TIP3    H1 5997   6.526   4.093   2.015
 2011TIP3    H2 5998   6.563   4.237   1.985
 2012TIP3   OH2 5999   2.197   5.341   4.301
 2012TIP3    H1 6000   2.137   5.271   4.326
 2012TIP3    H2 6001   2.187   5.348   4.206
 2013TIP3   OH2 6002   2.924   1.934   1.541
 2013TIP3    H1 6003   2.942   2.012   1.594
 2013TIP3    H2 6004   2.830   1.920   1.552
 2014TIP3   OH2 6005   4.297   5.271   3.750
 2014TIP3    H1 6006   4.245   5.288   3.829
 2014TIP3    H2 6007   4.291   5.176   3.739
 2015TIP3   OH2 6008   4.340   3.294   5.731
 2015TIP3    H1 6009   4.265   3.323   5.782
 2015TIP3    H2 6010   4.355   3.365   5.668
 2016TIP3   OH2 6011   3.270   6.672   2.416
 2016TIP3    H1 6012   3.267   6.652   2.322
 2016TIP3    H2 6013   3.212   6.608   2.456
 2017TIP3   OH2 6014   5.418   6.499   2.254
 2017TIP3    H1 6015   5.418   6.539   2.167
 2017TIP3    H2 6016   5.331   6.460   2.263
 2018TIP3   OH2 6017   3.979   4.379   2.762
 2018TIP3    H1 6018   3.969   4.417   2.850
 2018TIP3    H2 6019   3.990   4.286   2.778
 2019TIP3   OH2 6020   5.238   1.626   2.798
 2019TIP3    H1 6021   5.208   1.640   2.888
 2019TIP3    H2 6022   5.179   1.679   2.745
 2020TIP3   OH2 6023   5.158   1.803   2.009
 2020TIP3    H1 6024   5.178   1.766   2.095
 2020TIP3    H2 6025   5.094   1.743   1.971
 2021TIP3   OH2 6026   6.283   3.797   5.841
 2021TIP3    H1 6027   6.305   3.889   5.824
 2021TIP3    H2 6028   6.207   3.780   5.785
 2022TIP3   OH2 6029   3.402   6.213   3.960
 2022TIP3    H1 6030   3.401   6.275   3.887
 2022TIP3    H2 6031   3.494   6.207   3.985
 2023TIP3   OH2 6032   4.967   1.000   3.427
 2023TIP3    H1 6033   5.022   1.050   3.488
 2023TIP3    H2 6034   4.957   1.058   3.351
 2024TIP3   OH2 6035   4.858   0.191   0.247
 2024TIP3    H1 6036   4.817   0.263   0.294
 2024TIP3    H2 6037   4.789   0.157   0.190
 2025TIP3   OH2 6038   2.551   5.974   4.589
 2025TIP3    H1 6039   2.462   5.992   4.558
 2025TIP3    H2 6040   2.598   6.057   4.578
 2026TIP3   OH2 6041   0.248   2.275   3.697
 2026TIP3    H1 6042   0.180   2.232   3.644
 2026TIP3    H2 6043   0.240   2.235   3.783
 2027TIP3   OH2 6044   4.074   5.094   3.288
 2027TIP3    H1 6045   4.142   5.041   3.247
 2027TIP3    H2 6046   4.122   5.165   3.331
 2028TIP3   OH2 6047   5.543   3.893   2.517
 2028TIP3    H1 6048   5.607   3.964   2.528
 2028TIP3    H2 6049   5.555   3.839   2.595
 2029TIP3   OH2 6050   0.428   3.694   2.005
 2029TIP3    H1 6051   0.387   3.629   2.062
 2029TIP3    H2 6052   0.495   3.735   2.059
 2030TIP3   OH2 6053   5.376   0.119   1.563
 2030TIP3    H1 6054   5.453   0.163   1.527
 2030TIP3    H2 6055   5.348   0.175   1.635
 2031TIP3   OH2 6056   3.235   3.960   4.646
 2031TIP3    H1 6057   3.197   3.892   4.590
 2031TIP3    H2 6058   3.318   3.922   4.676
 2032TIP3   OH2 6059   0.412   4.673   0.248
 2032TIP3    H1 6060   0.486   4.657   0.188
 2032TIP3    H2 6061   0.452   4.677   0.334
 2033TIP3   OH2 6062   4.925   5.676   1.826
 2033TIP3    H1 6063   4.891   5.648   1.912
 2033TIP3    H2 6064   4.896   5.607   1.766
 2034TIP3   OH2 6065   4.758   4.163   0.355
 2034TIP3    H1 6066   4.722   4.075   0.341
 2034TIP3    H2 6067   4.746   4.179   0.449
 2035TIP3   OH2 6068   1.972   0.357   3.095
 2035TIP3    H1 6069   2.002   0.427   3.039
 2035TIP3    H2 6070   1.923   0.298   3.037
 2036TIP3   OH2 6071   6.047   5.862   2.303
 2036TIP3    H1 6072   6.031   5.773   2.335
 2036TIP3    H2 6073   5.997   5.867   2.221
 2037TIP3   OH2 6074   1.366   6.342   3.840
 2037TIP3    H1 6075   1.429   6.287   3.793
 2037TIP3    H2 6076   1.348   6.294   3.921
 2038TIP3   OH2 6077   5.067   2.625   3.651
 2038TIP3    H1 6078   4.995   2.603   3.592
 2038TIP3    H2 6079   5.129   2.673   3.597
 2039TIP3   OH2 6080   1.261   6.505   1.753
 2039TIP3    H1 6081   1.290   6.578   1.699
 2039TIP3    H2 6082   1.215   6.446   1.693
 2040TIP3   OH2 6083   1.899   4.327   2.825
 2040TIP3    H1 6084   1.911   4.322   2.730
 2040TIP3    H2 6085   1.981   4.295   2.862
 2041TIP3   OH2 6086   1.545   2.399   3.724
 2041TIP3    H1 6087   1.564   2.417   3.632
 2041TIP3    H2 6088   1.630   2.383   3.764
 2042TIP3   OH2 6089   2.491   3.521   4.182
 2042TIP3    H1 6090   2.477   3.464   4.258
 2042TIP3    H2 6091   2.574   3.565   4.200
 2043TIP3   OH2 6092   1.840   5.114   0.665
 2043TIP3    H1 6093   1.834   5.192   0.611
 2043TIP3    H2 6094   1.816   5.142   0.753
 2044TIP3   OH2 6095   5.301   6.223   4.237
 2044TIP3    H1 6096   5.287   6.284   4.309
 2044TIP3    H2 6097   5.221   6.169   4.236
 2045TIP3   OH2 6098   0.451   3.725   4.628
 2045TIP3    H1 6099   0.527   3.784   4.626
 2045TIP3    H2 6100   0.485   3.645   4.668
 2046TIP3   OH2 6101   3.186   0.329   3.643
 2046TIP3    H1 6102   3.277   0.331   3.675
 2046TIP3    H2 6103   3.189   0.375   3.559
 2047TIP3   OH2 6104   5.588   3.761   1.033
 2047TIP3    H1 6105   5.668   3.743   1.082
 2047TIP3    H2 6106   5.602   3.848   0.997
 2048TIP3   OH2 6107   6.056   4.979   5.549
 2048TIP3    H1 6108   6.007   5.060   5.535
 2048TIP3    H2 6109   6.147   5.007   5.558
 2049TIP3   OH2 6110   1.256   1.151   4.924
 2049TIP3    H1 6111   1.327   1.172   4.984
 2049TIP3    H2 6112   1.253   1.225   4.863
 2050TIP3   OH2 6113   6.313   3.462   3.176
 2050TIP3    H1 6114   6.300   3.375   3.139
 2050TIP3    H2 6115   6.298   3.451   3.270
 2051TIP3   OH2 6116   6.151   5.363   3.751
 2051TIP3    H1 6117   6.156   5.454   3.723
 2051TIP3    H2 6118   6.159   5.313   3.669
 2052TIP3   OH2 6119   5.337   4.050   1.169
 2052TIP3    H1 6120   5.317   4.089   1.254
 2052TIP3    H2 6121   5.335   3.956   1.184
 2053TIP3   OH2 6122   6.933   5.684   3.707
 2053TIP3    H1 6123   6.845   5.722   3.703
 2053TIP3    H2 6124   6.934   5.621   3.635
 2054TIP3   OH2 6125   5.766   2.487   0.926
 2054TIP3    H1 6126   5.852   2.527   0.939
 2054TIP3    H2 6127   5.704   2.560   0.929
 2055TIP3   OH2 6128   3.861   0.205   1.272
 2055TIP3    H1 6129   3.812   0.127   1.246
 2055TIP3    H2 6130   3.824   0.275   1.219
 2056TIP3   OH2 6131   4.656   0.317   5.782
 2056TIP3    H1 6132   4.738   0.345   5.741
 2056TIP3    H2 6133   4.588   0.343   5.720
 2057TIP3   OH2 6134   3.968   5.394   4.120
 2057TIP3    H1 6135   3.906   5.452   4.077
 2057TIP3    H2 6136   3.916   5.319   4.148
 2058TIP3   OH2 6137   5.325   1.461   3.853
 2058TIP3    H1 6138   5.318   1.388   3.914
 2058TIP3    H2 6139   5.386   1.431   3.785
 2059TIP3   OH2 6140   5.238   1.928   0.137
 2059TIP3    H1 6141   5.176   1.865   0.099
 2059TIP3    H2 6142   5.226   2.008   0.086
 2060TIP3   OH2 6143   7.146   0.481   1.579
 2060TIP3    H1 6144   7.204   0.557   1.574
 2060TIP3    H2 6145   7.182   0.419   1.515
 2061TIP3   OH2 6146   6.251   0.572   5.207
 2061TIP3    H1 6147   6.202   0.610   5.280
 2061TIP3    H2 6148   6.314   0.640   5.183
 2062TIP3   OH2 6149   2.340   1.328   5.226
 2062TIP3    H1 6150   2.433   1.347   5.239
 2062TIP3    H2 6151   2.338   1.238   5.193
 2063TIP3   OH2 6152  -0.017   1.972   2.377
 2063TIP3    H1 6153  -0.033   2.061   2.409
 2063TIP3    H2 6154   0.054   1.939   2.432
 2064TIP3   OH2 6155   2.832   5.476   4.835
 2064TIP3    H1 6156   2.876   5.397   4.803
 2064TIP3    H2 6157   2.739   5.458   4.821
 2065TIP3   OH2 6158   1.718   0.345   1.673
 2065TIP3    H1 6159   1.746   0.259   1.643
 2065TIP3    H2 6160   1.645   0.328   1.732
 2066TIP3   OH2 6161   5.727   3.783   3.995
 2066TIP3    H1 6162   5.800   3.842   3.977
 2066TIP3    H2 6163   5.734   3.714   3.929
 2067TIP3   OH2 6164   4.191   6.233   4.548
 2067TIP3    H1 6165   4.280   6.238   4.515
 2067TIP3    H2 6166   4.185   6.306   4.610
 2068TIP3   OH2 6167   1.914   6.273   1.617
 2068TIP3    H1 6168   1.936   6.180   1.626
 2068TIP3    H2 6169   1.842   6.275   1.555
 2069TIP3   OH2 6170   5.386   1.012   1.786
 2069TIP3    H1 6171   5.291   1.004   1.792
 2069TIP3    H2 6172   5.401   1.106   1.776
 2070TIP3   OH2 6173   0.042   0.548   2.324
 2070TIP3    H1 6174   0.019   0.478   2.386
 2070TIP3    H2 6175   0.137   0.543   2.317
 2071TIP3   OH2 6176   4.438   6.690   2.921
 2071TIP3    H1 6177   4.435   6.778   2.960
 2071TIP3    H2 6178   4.375   6.639   2.971
 2072TIP3   OH2 6179   4.886   6.775   4.554
 2072TIP3    H1 6180   4.954   6.805   4.614
 2072TIP3    H2 6181   4.912   6.808   4.468
 2073TIP3   OH2 6182   6.922   5.289   5.246
 2073TIP3    H1 6183   7.000   5.332   5.279
 2073TIP3    H2 6184   6.863   5.360   5.221
 2074TIP3   OH2 6185   1.604   5.487   1.774
 2074TIP3    H1 6186   1.683   5.529   1.807
 2074TIP3    H2 6187   1.600   5.404   1.821
 2075TIP3   OH2 6188   5.421   2.192   0.571
 2075TIP3    H1 6189   5.348   2.147   0.614
 2075TIP3    H2 6190   5.479   2.217   0.643
 2076TIP3   OH2 6191   5.915   4.572   4.174
 2076TIP3    H1 6192   6.008   4.560   4.156
 2076TIP3    H2 6193   5.910   4.658   4.218
 2077TIP3   OH2 6194   1.089   4.322   5.056
 2077TIP3    H1 6195   1.090   4.259   4.984
 2077TIP3    H2 6196   1.042   4.397   5.022
 2078TIP3   OH2 6197   0.542   1.664   0.946
 2078TIP3    H1 6198   0.606   1.670   0.875
 2078TIP3    H2 6199   0.555   1.576   0.982
 2079TIP3   OH2 6200   1.821   4.641   2.315
 2079TIP3    H1 6201   1.832   4.601   2.402
 2079TIP3    H2 6202   1.729   4.627   2.293
 2080TIP3   OH2 6203   7.132   0.326   0.822
 2080TIP3    H1 6204   7.065   0.274   0.865
 2080TIP3    H2 6205   7.169   0.269   0.755
 2081TIP3   OH2 6206   4.491   0.725   1.575
 2081TIP3    H1 6207   4.446   0.640   1.576
 2081TIP3    H2 6208   4.584   0.703   1.570
 2082TIP3   OH2 6209   2.509   2.698   4.339
 2082TIP3    H1 6210   2.430   2.650   4.365
 2082TIP3    H2 6211   2.518   2.678   4.245
 2083TIP3   OH2 6212   3.415   5.445   0.293
 2083TIP3    H1 6213   3.344   5.508   0.311
 2083TIP3    H2 6214   3.434   5.405   0.378
 2084TIP3   OH2 6215   4.388   0.191   3.961
 2084TIP3    H1 6216   4.359   0.161   3.874
 2084TIP3    H2 6217   4.481   0.170   3.963
 2085TIP3   OH2 6218   5.429   0.966   5.655
 2085TIP3    H1 6219   5.426   0.909   5.731
 2085TIP3    H2 6220   5.457   0.909   5.583
 2086TIP3   OH2 6221   2.162   1.420   4.631
 2086TIP3    H1 6222   2.214   1.497   4.607
 2086TIP3    H2 6223   2.198   1.349   4.577
 2087TIP3   OH2 6224   6.294   3.098   0.151
 2087TIP3    H1 6225   6.330   3.116   0.238
 2087TIP3    H2 6226   6.353   3.032   0.114
 2088TIP3   OH2 6227   2.115   3.307   3.289
 2088TIP3    H1 6228   2.174   3.382   3.293
 2088TIP3    H2 6229   2.045   3.335   3.230
 2089TIP3   OH2 6230   4.285   0.975   0.244
 2089TIP3    H1 6231   4.249   1.036   0.309
 2089TIP3    H2 6232   4.376   0.961   0.272
 2090TIP3   OH2 6233   0.865   5.274   0.785
 2090TIP3    H1 6234   0.777   5.252   0.756
 2090TIP3    H2 6235   0.886   5.207   0.850
 2091TIP3   OH2 6236   0.477   0.547   0.915
 2091TIP3    H1 6237   0.443   0.462   0.887
 2091TIP3    H2 6238   0.427   0.567   0.994
 2092TIP3   OH2 6239   5.333   4.425   4.868
 2092TIP3    H1 6240   5.349   4.437   4.775
 2092TIP3    H2 6241   5.328   4.330   4.880
 2093TIP3   OH2 6242   1.519   3.356   2.640
 2093TIP3    H1 6243   1.589   3.414   2.670
 2093TIP3    H2 6244   1.460   3.349   2.716
 2094TIP3   OH2 6245   0.976   1.670   0.437
 2094TIP3    H1 6246   1.015   1.713   0.513
 2094TIP3    H2 6247   0.968   1.578   0.463
 2095TIP3   OH2 6248   1.034   6.730   1.366
 2095TIP3    H1 6249   0.996   6.817   1.372
 2095TIP3    H2 6250   1.009   6.687   1.448
 2096TIP3   OH2 6251   5.319   4.321   1.802
 2096TIP3    H1 6252   5.383   4.388   1.778
 2096TIP3    H2 6253   5.365   4.238   1.791
 2097TIP3   OH2 6254   2.676   1.599   4.085
 2097TIP3    H1 6255   2.711   1.631   4.002
 2097TIP3    H2 6256   2.728   1.643   4.152
 2098TIP3   OH2 6257   1.527   2.471   4.035
 2098TIP3    H1 6258   1.555   2.390   3.993
 2098TIP3    H2 6259   1.454   2.444   4.091
 2099TIP3   OH2 6260   6.006   4.562   5.148
 2099TIP3    H1 6261   5.972   4.578   5.060
 2099TIP3    H2 6262   5.928   4.547   5.201
 2100TIP3   OH2 6263   5.684   5.396   3.374
 2100TIP3    H1 6264   5.740   5.322   3.349
 2100TIP3    H2 6265   5.703   5.464   3.310
 2101TIP3   OH2 6266   2.615   4.792   0.753
 2101TIP3    H1 6267   2.534   4.741   0.749
 2101TIP3    H2 6268   2.666   4.763   0.678
 2102TIP3   OH2 6269   5.852   1.158   1.209
 2102TIP3    H1 6270   5.777   1.192   1.160
 2102TIP3    H2 6271   5.903   1.235   1.231
 2103TIP3   OH2 6272   6.371   2.813   4.349
 2103TIP3    H1 6273   6.372   2.909   4.341
 2103TIP3    H2 6274   6.295   2.795   4.404
 2104TIP3   OH2 6275   4.683   0.344   0.966
 2104TIP3    H1 6276   4.633   0.269   0.935
 2104TIP3    H2 6277   4.746   0.306   1.028
 2105TIP3   OH2 6278   2.908   0.354   1.296
 2105TIP3    H1 6279   2.908   0.401   1.379
 2105TIP3    H2 6280   2.967   0.403   1.240
 2106TIP3   OH2 6281   2.162   0.882   4.294
 2106TIP3    H1 6282   2.069   0.903   4.293
 2106TIP3    H2 6283   2.178   0.838   4.210
 2107TIP3   OH2 6284   3.272   5.155   0.526
 2107TIP3    H1 6285   3.244   5.216   0.594
 2107TIP3    H2 6286   3.367   5.168   0.520
 2108TIP3   OH2 6287   4.319   2.583   1.478
 2108TIP3    H1 6288   4.268   2.609   1.555
 2108TIP3    H2 6289   4.339   2.665   1.434
 2109TIP3   OH2 6290   3.608   4.985   4.933
 2109TIP3    H1 6291   3.519   5.012   4.957
 2109TIP3    H2 6292   3.661   5.064   4.944
 2110TIP3   OH2 6293   3.348   3.552   5.685
 2110TIP3    H1 6294   3.385   3.532   5.599
 2110TIP3    H2 6295   3.341   3.648   5.687
 2111TIP3   OH2 6296   2.112   1.401   1.331
 2111TIP3    H1 6297   2.142   1.367   1.247
 2111TIP3    H2 6298   2.185   1.383   1.391
 2112TIP3   OH2 6299   3.212   3.701   5.211
 2112TIP3    H1 6300   3.275   3.769   5.236
 2112TIP3    H2 6301   3.198   3.715   5.117
 2113TIP3   OH2 6302   2.911   4.144   0.927
 2113TIP3    H1 6303   2.817   4.136   0.911
 2113TIP3    H2 6304   2.917   4.184   1.014
 2114TIP3   OH2 6305   5.770   2.837   0.628
 2114TIP3    H1 6306   5.804   2.845   0.717
 2114TIP3    H2 6307   5.725   2.752   0.627
 2115TIP3   OH2 6308   7.134   1.105   1.556
 2115TIP3    H1 6309   7.077   1.143   1.624
 2115TIP3    H2 6310   7.122   1.011   1.564
 2116TIP3   OH2 6311   3.615   0.877   3.328
 2116TIP3    H1 6312   3.561   0.807   3.363
 2116TIP3    H2 6313   3.641   0.928   3.405
 2117TIP3   OH2 6314   4.616   2.614   0.959
 2117TIP3    H1 6315   4.660   2.554   1.019
 2117TIP3    H2 6316   4.533   2.635   1.002
 2118TIP3   OH2 6317   4.044   5.215   4.422
 2118TIP3    H1 6318   3.970   5.275   4.425
 2118TIP3    H2 6319   4.116   5.264   4.462
 2119TIP3   OH2 6320   4.091   1.817   5.774
 2119TIP3    H1 6321   4.092   1.908   5.803
 2119TIP3    H2 6322   4.169   1.808   5.720
 2120TIP3   OH2 6323   3.350   1.911   4.069
 2120TIP3    H1 6324   3.378   2.002   4.058
 2120TIP3    H2 6325   3.431   1.861   4.077
 2121TIP3   OH2 6326   6.047   5.353   4.631
 2121TIP3    H1 6327   5.957   5.322   4.632
 2121TIP3    H2 6328   6.091   5.302   4.699
 2122TIP3   OH2 6329   0.400   1.363   5.687
 2122TIP3    H1 6330   0.407   1.304   5.762
 2122TIP3    H2 6331   0.422   1.310   5.611
 2123TIP3   OH2 6332   2.349   2.120   2.060
 2123TIP3    H1 6333   2.310   2.067   2.130
 2123TIP3    H2 6334   2.325   2.210   2.083
 2124TIP3   OH2 6335   0.417   5.271   4.994
 2124TIP3    H1 6336   0.436   5.188   4.952
 2124TIP3    H2 6337   0.371   5.322   4.928
 2125TIP3   OH2 6338   2.854   2.976   1.262
 2125TIP3    H1 6339   2.933   3.017   1.227
 2125TIP3    H2 6340   2.873   2.962   1.355
 2126TIP3   OH2 6341   6.135   3.293   5.147
 2126TIP3    H1 6342   6.119   3.233   5.075
 2126TIP3    H2 6343   6.191   3.244   5.207
 2127TIP3   OH2 6344   4.038   5.714   1.140
 2127TIP3    H1 6345   4.015   5.759   1.222
 2127TIP3    H2 6346   3.959   5.722   1.086
 2128TIP3   OH2 6347   3.667   1.103   4.442
 2128TIP3    H1 6348   3.643   1.174   4.382
 2128TIP3    H2 6349   3.695   1.032   4.385
 2129TIP3   OH2 6350   4.130   4.370   5.659
 2129TIP3    H1 6351   4.082   4.433   5.712
 2129TIP3    H2 6352   4.092   4.378   5.571
 2130TIP3   OH2 6353   2.592   6.291   0.586
 2130TIP3    H1 6354   2.540   6.291   0.666
 2130TIP3    H2 6355   2.595   6.382   0.558
 2131TIP3   OH2 6356   5.214   4.674   4.513
 2131TIP3    H1 6357   5.128   4.682   4.554
 2131TIP3    H2 6358   5.205   4.600   4.453
 2132TIP3   OH2 6359   1.809   0.871   4.794
 2132TIP3    H1 6360   1.870   0.906   4.729
 2132TIP3    H2 6361   1.776   0.790   4.755
 2133TIP3   OH2 6362   3.724   2.308   5.719
 2133TIP3    H1 6363   3.742   2.317   5.625
 2133TIP3    H2 6364   3.639   2.350   5.731
 2134TIP3   OH2 6365   6.353   1.613   2.431
 2134TIP3    H1 6366   6.258   1.613   2.439
 2134TIP3    H2 6367   6.381   1.698   2.466
 2135TIP3   OH2 6368   0.701   2.657   4.403
 2135TIP3    H1 6369   0.622   2.603   4.396
 2135TIP3    H2 6370   0.716   2.688   4.314
 2136TIP3   OH2 6371   4.349   4.599   0.650
 2136TIP3    H1 6372   4.255   4.580   0.649
 2136TIP3    H2 6373   4.386   4.543   0.582
 2137TIP3   OH2 6374   2.629   0.033   3.779
 2137TIP3    H1 6375   2.533   0.037   3.775
 2137TIP3    H2 6376   2.652   0.080   3.859
 2138TIP3   OH2 6377   6.907   5.628   0.943
 2138TIP3    H1 6378   6.949   5.713   0.936
 2138TIP3    H2 6379   6.970   5.573   0.990
 2139TIP3   OH2 6380   4.046   1.269   1.623
 2139TIP3    H1 6381   4.135   1.234   1.611
 2139TIP3    H2 6382   4.027   1.314   1.540
 2140TIP3   OH2 6383   2.664   2.782   2.363
 2140TIP3    H1 6384   2.736   2.844   2.353
 2140TIP3    H2 6385   2.587   2.837   2.377
 2141TIP3   OH2 6386   2.490   1.100   1.801
 2141TIP3    H1 6387   2.566   1.074   1.749
 2141TIP3    H2 6388   2.464   1.185   1.764
 2142TIP3   OH2 6389   6.598   0.567   1.551
 2142TIP3    H1 6390   6.515   0.610   1.532
 2142TIP3    H2 6391   6.617   0.516   1.472
 2143TIP3   OH2 6392   1.224   2.864   3.869
 2143TIP3    H1 6393   1.213   2.864   3.964
 2143TIP3    H2 6394   1.275   2.785   3.850
 2144TIP3   OH2 6395   6.863   1.207   4.300
 2144TIP3    H1 6396   6.821   1.216   4.385
 2144TIP3    H2 6397   6.905   1.292   4.285
 2145TIP3   OH2 6398   6.836   2.673   1.877
 2145TIP3    H1 6399   6.919   2.717   1.857
 2145TIP3    H2 6400   6.833   2.670   1.973
 2146TIP3   OH2 6401   6.898   5.589   1.370
 2146TIP3    H1 6402   6.992   5.576   1.364
 2146TIP3    H2 6403   6.888   5.675   1.411
 2147TIP3   OH2 6404   2.467   0.661   4.131
 2147TIP3    H1 6405   2.471   0.624   4.219
 2147TIP3    H2 6406   2.559   0.676   4.108
 2148TIP3   OH2 6407   5.886   1.846   2.013
 2148TIP3    H1 6408   5.836   1.840   2.094
 2148TIP3    H2 6409   5.828   1.892   1.953
 2149TIP3   OH2 6410  -0.010   5.872   2.530
 2149TIP3    H1 6411   0.077   5.841   2.504
 2149TIP3    H2 6412  -0.007   5.874   2.626
 2150TIP3   OH2 6413   1.418   3.465   0.903
 2150TIP3    H1 6414   1.413   3.486   0.996
 2150TIP3    H2 6415   1.511   3.472   0.881
 2151TIP3   OH2 6416   4.430   5.670   0.127
 2151TIP3    H1 6417   4.481   5.599   0.166
 2151TIP3    H2 6418   4.357   5.626   0.083
 2152TIP3   OH2 6419   0.014   1.742   2.667
 2152TIP3    H1 6420   0.035   1.834   2.681
 2152TIP3    H2 6421   0.079   1.694   2.718
 2153TIP3   OH2 6422   1.115   3.209   4.618
 2153TIP3    H1 6423   1.056   3.142   4.583
 2153TIP3    H2 6424   1.105   3.202   4.713
 2154TIP3   OH2 6425   2.287   2.677   1.880
 2154TIP3    H1 6426   2.328   2.761   1.899
 2154TIP3    H2 6427   2.257   2.645   1.965
 2155TIP3   OH2 6428   3.104   4.400   1.860
 2155TIP3    H1 6429   3.051   4.392   1.780
 2155TIP3    H2 6430   3.060   4.467   1.911
 2156TIP3   OH2 6431   2.321   0.583   5.516
 2156TIP3    H1 6432   2.291   0.667   5.549
 2156TIP3    H2 6433   2.344   0.600   5.424
 2157TIP3   OH2 6434   3.892   2.171   3.981
 2157TIP3    H1 6435   3.980   2.205   3.966
 2157TIP3    H2 6436   3.893   2.139   4.071
 2158TIP3   OH2 6437   7.056   1.384   1.157
 2158TIP3    H1 6438   7.017   1.317   1.214
 2158TIP3    H2 6439   7.142   1.402   1.196
 2159TIP3   OH2 6440   1.875   5.892   1.290
 2159TIP3    H1 6441   1.883   5.968   1.348
 2159TIP3    H2 6442   1.958   5.890   1.242
 2160TIP3   OH2 6443   5.852   6.096   5.869
 2160TIP3    H1 6444   5.853   6.099   5.774
 2160TIP3    H2 6445   5.858   6.003   5.891
 2161TIP3   OH2 6446   3.249   3.672   1.376
 2161TIP3    H1 6447   3.190   3.740   1.342
 2161TIP3    H2 6448   3.270   3.619   1.299
 2162TIP3   OH2 6449   1.175   4.339   0.295
 2162TIP3    H1 6450   1.203   4.247   0.286
 2162TIP3    H2 6451   1.088   4.334   0.335
 2163TIP3   OH2 6452   0.897   6.176   0.668
 2163TIP3    H1 6453   0.982   6.173   0.623
 2163TIP3    H2 6454   0.916   6.218   0.752
 2164TIP3   OH2 6455   5.572   6.101   1.868
 2164TIP3    H1 6456   5.587   6.148   1.951
 2164TIP3    H2 6457   5.476   6.097   1.860
 2165TIP3   OH2 6458   6.176   1.268   3.355
 2165TIP3    H1 6459   6.184   1.357   3.389
 2165TIP3    H2 6460   6.241   1.217   3.403
 2166TIP3   OH2 6461   4.163   3.592   1.950
 2166TIP3    H1 6462   4.234   3.530   1.934
 2166TIP3    H2 6463   4.198   3.677   1.925
 2167TIP3   OH2 6464   6.890   6.024   3.461
 2167TIP3    H1 6465   6.919   5.965   3.531
 2167TIP3    H2 6466   6.807   6.060   3.494
 2168TIP3   OH2 6467   5.297   4.076   1.458
 2168TIP3    H1 6468   5.249   4.141   1.510
 2168TIP3    H2 6469   5.372   4.052   1.513
 2169TIP3   OH2 6470   5.578   4.291   5.381
 2169TIP3    H1 6471   5.556   4.200   5.400
 2169TIP3    H2 6472   5.502   4.326   5.334
 2170TIP3   OH2 6473   7.052   2.914   0.669
 2170TIP3    H1 6474   7.062   2.903   0.574
 2170TIP3    H2 6475   7.071   3.007   0.684
 2171TIP3   OH2 6476   2.556   2.535   1.850
 2171TIP3    H1 6477   2.633   2.548   1.905
 2171TIP3    H2 6478   2.487   2.584   1.895
 2172TIP3   OH2 6479   4.968   4.206   2.805
 2172TIP3    H1 6480   4.889   4.178   2.760
 2172TIP3    H2 6481   4.961   4.167   2.893
 2173TIP3   OH2 6482   0.015   0.056   3.636
 2173TIP3    H1 6483   0.055  -0.029   3.616
 2173TIP3    H2 6484   0.013   0.060   3.731
 2174TIP3   OH2 6485   4.520   1.266   2.152
 2174TIP3    H1 6486   4.454   1.244   2.218
 2174TIP3    H2 6487   4.571   1.186   2.141
 2175TIP3   OH2 6488   6.535   1.798   4.833
 2175TIP3    H1 6489   6.486   1.802   4.916
 2175TIP3    H2 6490   6.600   1.729   4.847
 2176TIP3   OH2 6491   4.120   4.321   4.504
 2176TIP3    H1 6492   4.201   4.272   4.490
 2176TIP3    H2 6493   4.065   4.298   4.430
 2177TIP3   OH2 6494   5.133   6.163   1.459
 2177TIP3    H1 6495   5.143   6.180   1.553
 2177TIP3    H2 6496   5.084   6.239   1.427
 2178TIP3   OH2 6497   0.843   5.735   3.934
 2178TIP3    H1 6498   0.803   5.665   3.882
 2178TIP3    H2 6499   0.916   5.692   3.979
 2179TIP3   OH2 6500   6.287   4.914   4.108
 2179TIP3    H1 6501   6.193   4.907   4.088
 2179TIP3    H2 6502   6.290   4.940   4.200
 2180TIP3   OH2 6503   3.321   0.624   0.189
 2180TIP3    H1 6504   3.334   0.689   0.119
 2180TIP3    H2 6505   3.410   0.595   0.210
 2181TIP3   OH2 6506   4.509   3.243   2.373
 2181TIP3    H1 6507   4.545   3.205   2.293
 2181TIP3    H2 6508   4.526   3.337   2.364
 2182TIP3   OH2 6509   2.310   6.265   3.896
 2182TIP3    H1 6510   2.365   6.343   3.887
 2182TIP3    H2 6511   2.340   6.206   3.827
 2183TIP3   OH2 6512   5.543   1.572   3.115
 2183TIP3    H1 6513   5.506   1.623   3.186
 2183TIP3    H2 6514   5.617   1.624   3.084
 2184TIP3   OH2 6515   6.907   5.122   3.738
 2184TIP3    H1 6516   6.944   5.207   3.717
 2184TIP3    H2 6517   6.952   5.061   3.679
 2185TIP3   OH2 6518   5.506   5.098   0.525
 2185TIP3    H1 6519   5.431   5.105   0.467
 2185TIP3    H2 6520   5.471   5.117   0.612
 2186TIP3   OH2 6521   5.424   1.324   2.144
 2186TIP3    H1 6522   5.498   1.319   2.204
 2186TIP3    H2 6523   5.387   1.236   2.145
 2187TIP3   OH2 6524   4.177   5.019   4.791
 2187TIP3    H1 6525   4.128   4.937   4.778
 2187TIP3    H2 6526   4.168   5.038   4.884
 2188TIP3   OH2 6527   1.828   6.402   0.939
 2188TIP3    H1 6528   1.916   6.366   0.948
 2188TIP3    H2 6529   1.774   6.325   0.917
 2189TIP3   OH2 6530   4.656   4.135   2.372
 2189TIP3    H1 6531   4.720   4.064   2.371
 2189TIP3    H2 6532   4.706   4.212   2.345
 2190TIP3   OH2 6533   2.739   0.645   2.433
 2190TIP3    H1 6534   2.748   0.666   2.340
 2190TIP3    H2 6535   2.827   0.654   2.469
 2191TIP3   OH2 6536   4.425   0.241   0.266
 2191TIP3    H1 6537   4.377   0.176   0.214
 2191TIP3    H2 6538   4.488   0.190   0.317
 2192TIP3   OH2 6539   3.664   4.113   0.672
 2192TIP3    H1 6540   3.593   4.126   0.609
 2192TIP3    H2 6541   3.714   4.040   0.637
 2193TIP3   OH2 6542   4.624   4.997   1.323
 2193TIP3    H1 6543   4.548   4.983   1.380
 2193TIP3    H2 6544   4.644   4.911   1.288
 2194TIP3   OH2 6545   0.088   6.106   4.575
 2194TIP3    H1 6546   0.047   6.192   4.590
 2194TIP3    H2 6547   0.167   6.109   4.630
 2195TIP3   OH2 6548   1.589   0.064   5.383
 2195TIP3    H1 6549   1.564   0.156   5.380
 2195TIP3    H2 6550   1.667   0.062   5.438
 2196TIP3   OH2 6551   0.736   1.627   3.961
 2196TIP3    H1 6552   0.824   1.630   3.998
 2196TIP3    H2 6553   0.712   1.719   3.949
 2197TIP3   OH2 6554   4.657   0.040   0.684
 2197TIP3    H1 6555   4.632  -0.038   0.732
 2197TIP3    H2 6556   4.610   0.111   0.727
 2198TIP3   OH2 6557   6.980   2.757   4.263
 2198TIP3    H1 6558   7.038   2.735   4.191
 2198TIP3    H2 6559   7.006   2.698   4.334
 2199TIP3   OH2 6560   6.205   5.576   1.243
 2199TIP3    H1 6561   6.284   5.525   1.223
 2199TIP3    H2 6562   6.235   5.642   1.306
 2200TIP3   OH2 6563   7.039   3.267   5.204
 2200TIP3    H1 6564   7.125   3.227   5.208
 2200TIP3    H2 6565   7.010   3.271   5.295
 2201TIP3   OH2 6566   6.767   1.760   2.372
 2201TIP3    H1 6567   6.847   1.769   2.423
 2201TIP3    H2 6568   6.791   1.703   2.299
 2202TIP3   OH2 6569   2.720   6.053   3.773
 2202TIP3    H1 6570   2.784   5.983   3.786
 2202TIP3    H2 6571   2.643   6.008   3.737
 2203TIP3   OH2 6572   0.326   4.490  -0.036
 2203TIP3    H1 6573   0.330   4.581  -0.066
 2203TIP3    H2 6574   0.393   4.485   0.033
 2204TIP3   OH2 6575   3.093   4.826   5.315
 2204TIP3    H1 6576   3.123   4.744   5.354
 2204TIP3    H2 6577   3.078   4.805   5.223
 2205TIP3   OH2 6578   1.232   6.530   2.833
 2205TIP3    H1 6579   1.269   6.455   2.787
 2205TIP3    H2 6580   1.216   6.497   2.922
 2206TIP3   OH2 6581   1.462   4.310   3.167
 2206TIP3    H1 6582   1.468   4.405   3.168
 2206TIP3    H2 6583   1.521   4.283   3.096
 2207TIP3   OH2 6584   1.497   0.245   3.124
 2207TIP3    H1 6585   1.536   0.331   3.106
 2207TIP3    H2 6586   1.488   0.242   3.219
 2208TIP3   OH2 6587   6.225   3.289   0.791
 2208TIP3    H1 6588   6.155   3.353   0.784
 2208TIP3    H2 6589   6.256   3.298   0.882
 2209TIP3   OH2 6590   4.800   3.721   3.717
 2209TIP3    H1 6591   4.790   3.657   3.787
 2209TIP3    H2 6592   4.723   3.709   3.662
 2210TIP3   OH2 6593   1.718   3.860   4.580
 2210TIP3    H1 6594   1.690   3.793   4.518
 2210TIP3    H2 6595   1.642   3.874   4.637
 2211TIP3   OH2 6596   2.184   2.547   5.383
 2211TIP3    H1 6597   2.274   2.576   5.366
 2211TIP3    H2 6598   2.132   2.627   5.373
 2212TIP3   OH2 6599   0.080   5.438   4.675
 2212TIP3    H1 6600   0.002   5.382   4.683
 2212TIP3    H2 6601   0.055   5.520   4.716
 2213TIP3   OH2 6602   0.991   0.345   1.666
 2213TIP3    H1 6603   1.043   0.377   1.740
 2213TIP3    H2 6604   1.051   0.286   1.619
 2214TIP3   OH2 6605   4.659   6.462   2.371
 2214TIP3    H1 6606   4.692   6.547   2.401
 2214TIP3    H2 6607   4.737   6.409   2.357
 2215TIP3   OH2 6608   4.167   4.360   3.475
 2215TIP3    H1 6609   4.139   4.294   3.538
 2215TIP3    H2 6610   4.123   4.441   3.503
 2216TIP3   OH2 6611   5.560   3.998   4.090
 2216TIP3    H1 6612   5.605   3.927   4.044
 2216TIP3    H2 6613   5.475   4.005   4.047
 2217TIP3   OH2 6614   2.034   2.154   0.671
 2217TIP3    H1 6615   2.005   2.240   0.642
 2217TIP3    H2 6616   1.956   2.113   0.707
 2218TIP3   OH2 6617   5.790   3.677   5.571
 2218TIP3    H1 6618   5.864   3.675   5.510
 2218TIP3    H2 6619   5.791   3.766   5.606
 2219TIP3   OH2 6620   4.170   1.928   2.110
 2219TIP3    H1 6621   4.137   1.862   2.049
 2219TIP3    H2 6622   4.118   1.917   2.189
 2220TIP3   OH2 6623   5.175   0.900   2.746
 2220TIP3    H1 6624   5.239   0.926   2.679
 2220TIP3    H2 6625   5.227   0.879   2.823
 2221TIP3   OH2 6626   3.990   3.453   3.217
 2221TIP3    H1 6627   4.015   3.510   3.290
 2221TIP3    H2 6628   3.965   3.514   3.148
 2222TIP3   OH2 6629   7.168   3.461   3.305
 2222TIP3    H1 6630   7.206   3.373   3.298
 2222TIP3    H2 6631   7.102   3.465   3.236
 2223TIP3   OH2 6632   4.546   1.641   1.227
 2223TIP3    H1 6633   4.478   1.676   1.169
 2223TIP3    H2 6634   4.628   1.670   1.187
 2224TIP3   OH2 6635   0.542   0.862   1.347
 2224TIP3    H1 6636   0.589   0.823   1.420
 2224TIP3    H2 6637   0.455   0.822   1.350
 2225TIP3   OH2 6638   3.971   3.278   1.811
 2225TIP3    H1 6639   3.945   3.215   1.742
 2225TIP3    H2 6640   4.036   3.334   1.769
 2226TIP3   OH2 6641   2.979   2.456   3.574
 2226TIP3    H1 6642   3.056   2.441   3.520
 2226TIP3    H2 6643   3.014   2.496   3.654
 2227TIP3   OH2 6644   2.311   0.133   4.731
 2227TIP3    H1 6645   2.372   0.156   4.801
 2227TIP3    H2 6646   2.319   0.038   4.724
 2228TIP3   OH2 6647   4.392   6.113   4.948
 2228TIP3    H1 6648   4.479   6.074   4.956
 2228TIP3    H2 6649   4.394   6.188   5.008
 2229TIP3   OH2 6650   0.044   6.809   2.028
 2229TIP3    H1 6651  -0.012   6.789   1.953
 2229TIP3    H2 6652   0.020   6.743   2.094
 2230TIP3   OH2 6653   1.887   2.600   3.053
 2230TIP3    H1 6654   1.962   2.563   3.100
 2230TIP3    H2 6655   1.901   2.573   2.962
 2231TIP3   OH2 6656   4.736   2.793   5.401
 2231TIP3    H1 6657   4.701   2.867   5.353
 2231TIP3    H2 6658   4.732   2.819   5.493
 2232TIP3   OH2 6659   1.643   6.700   2.408
 2232TIP3    H1 6660   1.684   6.699   2.321
 2232TIP3    H2 6661   1.715   6.719   2.468
 2233TIP3   OH2 6662   3.924   3.635   5.739
 2233TIP3    H1 6663   3.868   3.710   5.758
 2233TIP3    H2 6664   3.986   3.668   5.674
 2234TIP3   OH2 6665   0.318   2.028   0.061
 2234TIP3    H1 6666   0.370   2.003  -0.016
 2234TIP3    H2 6667   0.378   2.081   0.114
 2235TIP3   OH2 6668   6.217   4.551   3.537
 2235TIP3    H1 6669   6.214   4.556   3.441
 2235TIP3    H2 6670   6.306   4.521   3.556
 2236TIP3   OH2 6671   4.494   0.042   1.709
 2236TIP3    H1 6672   4.506   0.104   1.637
 2236TIP3    H2 6673   4.400   0.047   1.728
 2237TIP3   OH2 6674   1.824   2.567   5.722
 2237TIP3    H1 6675   1.808   2.475   5.700
 2237TIP3    H2 6676   1.791   2.576   5.811
 2238TIP3   OH2 6677   7.113   6.643   4.048
 2238TIP3    H1 6678   7.030   6.642   4.000
 2238TIP3    H2 6679   7.106   6.570   4.110
 2239TIP3   OH2 6680   2.138   1.109   2.065
 2239TIP3    H1 6681   2.127   1.083   1.974
 2239TIP3    H2 6682   2.122   1.203   2.066
 2240TIP3   OH2 6683   5.581   1.559   3.585
 2240TIP3    H1 6684   5.510   1.512   3.629
 2240TIP3    H2 6685   5.661   1.516   3.617
 2241TIP3   OH2 6686   6.900   1.305   1.426
 2241TIP3    H1 6687   6.889   1.229   1.368
 2241TIP3    H2 6688   6.866   1.379   1.375
 2242TIP3   OH2 6689   4.581   0.205   2.651
 2242TIP3    H1 6690   4.612   0.246   2.571
 2242TIP3    H2 6691   4.501   0.252   2.674
 2243TIP3   OH2 6692   4.202   2.201   3.896
 2243TIP3    H1 6693   4.272   2.260   3.925
 2243TIP3    H2 6694   4.185   2.226   3.806
 2244TIP3   OH2 6695   1.494   5.818   1.858
 2244TIP3    H1 6696   1.544   5.892   1.824
 2244TIP3    H2 6697   1.520   5.744   1.803
 2245TIP3   OH2 6698   6.532   5.431   5.468
 2245TIP3    H1 6699   6.549   5.463   5.379
 2245TIP3    H2 6700   6.482   5.501   5.510
 2246TIP3   OH2 6701   1.826   0.275   0.110
 2246TIP3    H1 6702   1.818   0.348   0.048
 2246TIP3    H2 6703   1.859   0.316   0.190
 2247TIP3   OH2 6704   0.923   4.788   1.832
 2247TIP3    H1 6705   1.007   4.833   1.827
 2247TIP3    H2 6706   0.934   4.724   1.902
 2248TIP3   OH2 6707   6.971   5.569   2.452
 2248TIP3    H1 6708   7.062   5.594   2.440
 2248TIP3    H2 6709   6.921   5.631   2.399
 2249TIP3   OH2 6710   1.534   2.449   2.457
 2249TIP3    H1 6711   1.452   2.495   2.440
 2249TIP3    H2 6712   1.565   2.423   2.371
 2250TIP3   OH2 6713   5.014   1.989   1.411
 2250TIP3    H1 6714   4.944   2.033   1.363
 2250TIP3    H2 6715   4.996   1.896   1.400
 2251TIP3   OH2 6716   6.930   3.390   4.583
 2251TIP3    H1 6717   6.925   3.485   4.593
 2251TIP3    H2 6718   7.010   3.376   4.533
 2252TIP3   OH2 6719   2.794   1.124   3.675
 2252TIP3    H1 6720   2.764   1.076   3.752
 2252TIP3    H2 6721   2.828   1.057   3.616
 2253TIP3   OH2 6722   5.068   3.489   3.975
 2253TIP3    H1 6723   5.050   3.583   3.983
 2253TIP3    H2 6724   5.004   3.448   4.032
 2254TIP3   OH2 6725   3.741   0.819   5.424
 2254TIP3    H1 6726   3.757   0.738   5.472
 2254TIP3    H2 6727   3.657   0.850   5.457
 2255TIP3   OH2 6728   3.460   3.218   4.311
 2255TIP3    H1 6729   3.513   3.190   4.385
 2255TIP3    H2 6730   3.375   3.176   4.326
 2256TIP3   OH2 6731   1.260   4.994   3.550
 2256TIP3    H1 6732   1.317   4.975   3.625
 2256TIP3    H2 6733   1.265   5.089   3.539
 2257TIP3   OH2 6734   3.853   0.012   5.560
 2257TIP3    H1 6735   3.768   0.055   5.563
 2257TIP3    H2 6736   3.916   0.079   5.587
 2258TIP3   OH2 6737   6.457   0.211   3.524
 2258TIP3    H1 6738   6.527   0.272   3.501
 2258TIP3    H2 6739   6.427   0.176   3.441
 2259TIP3   OH2 6740   0.718   2.832   3.564
 2259TIP3    H1 6741   0.770   2.859   3.639
 2259TIP3    H2 6742   0.775   2.773   3.515
 2260TIP3   OH2 6743   7.140   4.823   1.057
 2260TIP3    H1 6744   7.144   4.918   1.059
 2260TIP3    H2 6745   7.048   4.803   1.074
 2261TIP3   OH2 6746   5.836   1.173   2.301
 2261TIP3    H1 6747   5.841   1.084   2.268
 2261TIP3    H2 6748   5.901   1.176   2.371
 2262TIP3   OH2 6749   3.078   5.180   2.248
 2262TIP3    H1 6750   3.118   5.237   2.314
 2262TIP3    H2 6751   3.026   5.239   2.194
 2263TIP3   OH2 6752   5.722   2.636   1.711
 2263TIP3    H1 6753   5.661   2.669   1.776
 2263TIP3    H2 6754   5.774   2.570   1.757
 2264TIP3   OH2 6755   1.163   4.620   3.867
 2264TIP3    H1 6756   1.103   4.548   3.845
 2264TIP3    H2 6757   1.248   4.578   3.879
 2265TIP3   OH2 6758   3.631   0.023   4.924
 2265TIP3    H1 6759   3.575   0.093   4.958
 2265TIP3    H2 6760   3.634  -0.041   4.995
 2266TIP3   OH2 6761   0.953   4.038   5.747
 2266TIP3    H1 6762   0.912   3.965   5.792
 2266TIP3    H2 6763   1.046   4.015   5.743
 2267TIP3   OH2 6764   0.182   0.380   5.687
 2267TIP3    H1 6765   0.264   0.412   5.726
 2267TIP3    H2 6766   0.116   0.443   5.715
 2268TIP3   OH2 6767   2.521   6.403   2.155
 2268TIP3    H1 6768   2.551   6.410   2.246
 2268TIP3    H2 6769   2.550   6.316   2.127
 2269TIP3   OH2 6770   7.140   4.206   1.274
 2269TIP3    H1 6771   7.069   4.157   1.232
 2269TIP3    H2 6772   7.213   4.200   1.213
 2270TIP3   OH2 6773   6.675   4.154   5.550
 2270TIP3    H1 6774   6.730   4.077   5.541
 2270TIP3    H2 6775   6.602   4.138   5.491
 2271TIP3   OH2 6776   5.365   4.107   3.639
 2271TIP3    H1 6777   5.279   4.114   3.680
 2271TIP3    H2 6778   5.426   4.095   3.712
 2272TIP3   OH2 6779   0.577   6.443   5.773
 2272TIP3    H1 6780   0.597   6.463   5.865
 2272TIP3    H2 6781   0.496   6.393   5.777
 2273TIP3   OH2 6782   4.670   0.775   4.406
 2273TIP3    H1 6783   4.700   0.688   4.379
 2273TIP3    H2 6784   4.664   0.769   4.502
 2274TIP3   OH2 6785   4.776   4.834   4.141
 2274TIP3    H1 6786   4.716   4.797   4.207
 2274TIP3    H2 6787   4.726   4.905   4.102
 2275TIP3   OH2 6788   3.604   4.516   1.699
 2275TIP3    H1 6789   3.561   4.525   1.784
 2275TIP3    H2 6790   3.695   4.541   1.715
 2276TIP3   OH2 6791   2.531   2.658   3.688
 2276TIP3    H1 6792   2.531   2.653   3.593
 2276TIP3    H2 6793   2.450   2.705   3.710
 2277TIP3   OH2 6794   4.221   1.328   4.540
 2277TIP3    H1 6795   4.204   1.422   4.535
 2277TIP3    H2 6796   4.239   1.311   4.632
 2278TIP3   OH2 6797   3.141   2.161   1.137
 2278TIP3    H1 6798   3.148   2.237   1.195
 2278TIP3    H2 6799   3.223   2.114   1.150
 2279TIP3   OH2 6800   1.985   4.244   0.708
 2279TIP3    H1 6801   1.970   4.181   0.778
 2279TIP3    H2 6802   1.899   4.253   0.666
 2280TIP3   OH2 6803   2.784   0.293   4.243
 2280TIP3    H1 6804   2.834   0.368   4.211
 2280TIP3    H2 6805   2.758   0.317   4.331
 2281TIP3   OH2 6806   1.903   5.973   0.319
 2281TIP3    H1 6807   1.868   5.908   0.259
 2281TIP3    H2 6808   1.994   5.945   0.335
 2282TIP3   OH2 6809   0.692   4.043   1.511
 2282TIP3    H1 6810   0.696   3.996   1.594
 2282TIP3    H2 6811   0.708   3.976   1.444
 2283TIP3   OH2 6812   6.835   3.700   5.306
 2283TIP3    H1 6813   6.853   3.724   5.215
 2283TIP3    H2 6814   6.783   3.772   5.340
 2284TIP3   OH2 6815   6.640   0.309   5.346
 2284TIP3    H1 6816   6.548   0.319   5.372
 2284TIP3    H2 6817   6.648   0.357   5.264
 2285TIP3   OH2 6818   5.953   2.872   4.336
 2285TIP3    H1 6819   5.916   2.786   4.354
 2285TIP3    H2 6820   6.009   2.890   4.411
 2286TIP3   OH2 6821   2.074   3.732   3.490
 2286TIP3    H1 6822   2.145   3.735   3.426
 2286TIP3    H2 6823   2.043   3.823   3.495
 2287TIP3   OH2 6824   0.776   0.996   0.618
 2287TIP3    H1 6825   0.749   1.044   0.540
 2287TIP3    H2 6826   0.749   1.052   0.691
 2288TIP3   OH2 6827   5.689   1.135   0.162
 2288TIP3    H1 6828   5.681   1.228   0.141
 2288TIP3    H2 6829   5.775   1.127   0.204
 2289TIP3   OH2 6830   5.282   6.683   4.319
 2289TIP3    H1 6831   5.248   6.684   4.229
 2289TIP3    H2 6832   5.221   6.626   4.366
 2290TIP3   OH2 6833   0.063   5.309   2.735
 2290TIP3    H1 6834   0.018   5.224   2.731
 2290TIP3    H2 6835   0.040   5.344   2.821
 2291TIP3   OH2 6836   0.272   4.984   4.855
 2291TIP3    H1 6837   0.294   4.893   4.834
 2291TIP3    H2 6838   0.215   5.012   4.783
 2292TIP3   OH2 6839   5.739   3.895   3.654
 2292TIP3    H1 6840   5.824   3.852   3.649
 2292TIP3    H2 6841   5.726   3.933   3.567
 2293TIP3   OH2 6842   5.446   0.523   3.413
 2293TIP3    H1 6843   5.389   0.462   3.367
 2293TIP3    H2 6844   5.529   0.519   3.366
 2294TIP3   OH2 6845   4.747   2.767   2.411
 2294TIP3    H1 6846   4.700   2.692   2.377
 2294TIP3    H2 6847   4.839   2.739   2.413
 2295TIP3   OH2 6848   4.356   5.857   1.530
 2295TIP3    H1 6849   4.375   5.764   1.516
 2295TIP3    H2 6850   4.321   5.861   1.619
 2296TIP3   OH2 6851   5.575   5.339   5.871
 2296TIP3    H1 6852   5.671   5.341   5.866
 2296TIP3    H2 6853   5.547   5.304   5.786
 2297TIP3   OH2 6854   3.910   0.524   1.593
 2297TIP3    H1 6855   3.900   0.580   1.516
 2297TIP3    H2 6856   3.894   0.436   1.560
 2298TIP3   OH2 6857   5.084   4.040   2.058
 2298TIP3    H1 6858   5.079   3.954   2.015
 2298TIP3    H2 6859   5.105   4.020   2.149
 2299TIP3   OH2 6860   6.115   4.721   2.576
 2299TIP3    H1 6861   6.102   4.714   2.671
 2299TIP3    H2 6862   6.028   4.741   2.542
 2300TIP3   OH2 6863   1.883   5.831   3.253
 2300TIP3    H1 6864   1.894   5.826   3.158
 2300TIP3    H2 6865   1.808   5.775   3.272
 2301TIP3   OH2 6866   2.636   5.839   0.208
 2301TIP3    H1 6867   2.702   5.901   0.177
 2301TIP3    H2 6868   2.683   5.756   0.217
 2302TIP3   OH2 6869   0.249   4.178   0.266
 2302TIP3    H1 6870   0.214   4.210   0.183
 2302TIP3    H2 6871   0.204   4.095   0.281
 2303TIP3   OH2 6872   5.504   3.545   4.868
 2303TIP3    H1 6873   5.541   3.495   4.795
 2303TIP3    H2 6874   5.441   3.485   4.908
 2304TIP3   OH2 6875   2.890   4.621   3.226
 2304TIP3    H1 6876   2.819   4.669   3.182
 2304TIP3    H2 6877   2.858   4.608   3.315
 2305TIP3   OH2 6878   1.604   2.975   4.797
 2305TIP3    H1 6879   1.556   2.967   4.714
 2305TIP3    H2 6880   1.579   3.060   4.832
 2306TIP3   OH2 6881   0.183   5.286   3.396
 2306TIP3    H1 6882   0.259   5.306   3.452
 2306TIP3    H2 6883   0.156   5.370   3.360
 2307TIP3   OH2 6884   0.705   5.400   1.245
 2307TIP3    H1 6885   0.633   5.440   1.197
 2307TIP3    H2 6886   0.680   5.308   1.254
 2308TIP3   OH2 6887   4.024   5.469   0.308
 2308TIP3    H1 6888   4.007   5.499   0.218
 2308TIP3    H2 6889   3.941   5.480   0.353
 2309TIP3   OH2 6890   3.638   5.475   1.089
 2309TIP3    H1 6891   3.691   5.399   1.114
 2309TIP3    H2 6892   3.701   5.547   1.082
 2310TIP3   OH2 6893   4.929   4.084   0.703
 2310TIP3    H1 6894   4.855   4.026   0.724
 2310TIP3    H2 6895   4.898   4.171   0.728
 2311TIP3   OH2 6896   7.202   0.965   1.028
 2311TIP3    H1 6897   7.143   0.890   1.034
 2311TIP3    H2 6898   7.190   1.011   1.111
 2312TIP3   OH2 6899   1.887   4.801   3.808
 2312TIP3    H1 6900   1.905   4.789   3.902
 2312TIP3    H2 6901   1.866   4.713   3.777
 2313TIP3   OH2 6902   6.148   5.058   4.308
 2313TIP3    H1 6903   6.212   5.127   4.288
 2313TIP3    H2 6904   6.063   5.098   4.288
 2314TIP3   OH2 6905   2.447   3.423   1.500
 2314TIP3    H1 6906   2.373   3.368   1.477
 2314TIP3    H2 6907   2.501   3.368   1.557
 2315TIP3   OH2 6908   5.730   6.213   0.919
 2315TIP3    H1 6909   5.661   6.254   0.971
 2315TIP3    H2 6910   5.687   6.185   0.839
 2316TIP3   OH2 6911   4.589   3.152   2.940
 2316TIP3    H1 6912   4.589   3.090   3.014
 2316TIP3    H2 6913   4.655   3.217   2.964
 2317TIP3   OH2 6914   0.196   2.454   3.353
 2317TIP3    H1 6915   0.287   2.461   3.382
 2317TIP3    H2 6916   0.189   2.366   3.317
 2318TIP3   OH2 6917   5.604   1.875   1.913
 2318TIP3    H1 6918   5.528   1.841   1.865
 2318TIP3    H2 6919   5.578   1.962   1.941
 2319TIP3   OH2 6920   5.200   1.487   0.718
 2319TIP3    H1 6921   5.120   1.449   0.682
 2319TIP3    H2 6922   5.170   1.543   0.789
 2320TIP3   OH2 6923   1.805   0.496   0.298
 2320TIP3    H1 6924   1.852   0.575   0.271
 2320TIP3    H2 6925   1.831   0.482   0.389
 2321TIP3   OH2 6926   6.067   5.332   2.404
 2321TIP3    H1 6927   6.106   5.330   2.492
 2321TIP3    H2 6928   6.139   5.360   2.347
 2322TIP3   OH2 6929   6.498   5.688   3.040
 2322TIP3    H1 6930   6.577   5.676   2.986
 2322TIP3    H2 6931   6.529   5.741   3.114
 2323TIP3   OH2 6932   5.262   6.549   3.422
 2323TIP3    H1 6933   5.218   6.473   3.458
 2323TIP3    H2 6934   5.211   6.573   3.345
 2324TIP3   OH2 6935   0.480   0.865   3.642
 2324TIP3    H1 6936   0.429   0.785   3.659
 2324TIP3    H2 6937   0.546   0.866   3.711
 2325TIP3   OH2 6938   2.813   6.389   3.693
 2325TIP3    H1 6939   2.889   6.330   3.690
 2325TIP3    H2 6940   2.837   6.455   3.758
 2326TIP3   OH2 6941   2.989   1.634   0.802
 2326TIP3    H1 6942   3.029   1.721   0.802
 2326TIP3    H2 6943   3.048   1.581   0.855
 2327TIP3   OH2 6944   4.785   5.270   0.110
 2327TIP3    H1 6945   4.801   5.177   0.098
 2327TIP3    H2 6946   4.837   5.312   0.042
 2328TIP3   OH2 6947   4.112   0.593   3.419
 2328TIP3    H1 6948   4.171   0.542   3.364
 2328TIP3    H2 6949   4.128   0.684   3.395
 2329TIP3   OH2 6950   2.564   0.855   2.522
 2329TIP3    H1 6951   2.536   0.836   2.611
 2329TIP3    H2 6952   2.612   0.777   2.495
 2330TIP3   OH2 6953   2.827   1.510   4.908
 2330TIP3    H1 6954   2.734   1.528   4.897
 2330TIP3    H2 6955   2.866   1.536   4.824
 2331TIP3   OH2 6956   1.905   2.901   4.014
 2331TIP3    H1 6957   1.952   2.955   4.077
 2331TIP3    H2 6958   1.813   2.922   4.028
 2332TIP3   OH2 6959   3.148   4.925   1.834
 2332TIP3    H1 6960   3.060   4.933   1.870
 2332TIP3    H2 6961   3.205   4.962   1.902
 2333TIP3   OH2 6962  -0.040   6.281   2.763
 2333TIP3    H1 6963   0.039   6.237   2.793
 2333TIP3    H2 6964  -0.009   6.349   2.704
 2334TIP3   OH2 6965   0.976   2.592   3.653
 2334TIP3    H1 6966   0.925   2.612   3.575
 2334TIP3    H2 6967   1.062   2.566   3.620
 2335TIP3   OH2 6968   5.589   4.319   1.496
 2335TIP3    H1 6969   5.669   4.356   1.533
 2335TIP3    H2 6970   5.572   4.242   1.550
 2336TIP3   OH2 6971   2.848   1.395   5.563
 2336TIP3    H1 6972   2.842   1.478   5.517
 2336TIP3    H2 6973   2.927   1.353   5.528
 2337TIP3   OH2 6974   6.860   0.899   4.894
 2337TIP3    H1 6975   6.848   0.806   4.915
 2337TIP3    H2 6976   6.814   0.945   4.964
 2338TIP3   OH2 6977   1.694   6.188   4.131
 2338TIP3    H1 6978   1.751   6.138   4.072
 2338TIP3    H2 6979   1.645   6.247   4.074
 2339TIP3   OH2 6980   3.217   3.039   1.538
 2339TIP3    H1 6981   3.205   2.987   1.617
 2339TIP3    H2 6982   3.211   2.976   1.466
 2340TIP3   OH2 6983   4.376   1.052   1.123
 2340TIP3    H1 6984   4.387   1.147   1.126
 2340TIP3    H2 6985   4.402   1.027   1.034
 2341TIP3   OH2 6986   5.498   3.388   2.333
 2341TIP3    H1 6987   5.579   3.338   2.345
 2341TIP3    H2 6988   5.436   3.324   2.297
 2342TIP3   OH2 6989   3.555   3.165   1.992
 2342TIP3    H1 6990   3.619   3.094   1.993
 2342TIP3    H2 6991   3.524   3.172   2.082
 2343TIP3   OH2 6992   5.219   3.996   3.106
 2343TIP3    H1 6993   5.143   3.956   3.149
 2343TIP3    H2 6994   5.252   4.059   3.170
 2344TIP3   OH2 6995   3.300   2.381   1.832
 2344TIP3    H1 6996   3.362   2.398   1.903
 2344TIP3    H2 6997   3.314   2.289   1.810
 2345TIP3   OH2 6998   6.405   6.258   4.029
 2345TIP3    H1 6999   6.390   6.273   3.935
 2345TIP3    H2 7000   6.369   6.336   4.071
 2346TIP3   OH2 7001   4.923   4.416   3.520
 2346TIP3    H1 7002   4.970   4.499   3.507
 2346TIP3    H2 7003   4.963   4.356   3.458
 2347TIP3   OH2 7004   3.694   3.943   0.352
 2347TIP3    H1 7005   3.669   3.938   0.260
 2347TIP3    H2 7006   3.616   3.977   0.396
 2348TIP3   OH2 7007   3.706   2.932   0.051
 2348TIP3    H1 7008   3.712   2.858   0.111
 2348TIP3    H2 7009   3.759   3.001   0.093
 2349TIP3   OH2 7010   0.285   3.628   1.771
 2349TIP3    H1 7011   0.196   3.639   1.802
 2349TIP3    H2 7012   0.337   3.613   1.850
 2350TIP3   OH2 7013   1.630   3.097   1.831
 2350TIP3    H1 7014   1.669   3.035   1.893
 2350TIP3    H2 7015   1.578   3.156   1.886
 2351TIP3   OH2 7016   3.036   4.007   4.820
 2351TIP3    H1 7017   3.095   3.976   4.752
 2351TIP3    H2 7018   2.987   3.929   4.846
 2352TIP3   OH2 7019   5.719   1.484   4.018
 2352TIP3    H1 7020   5.813   1.470   4.006
 2352TIP3    H2 7021   5.709   1.578   4.025
 2353TIP3   OH2 7022   4.237   4.765   3.738
 2353TIP3    H1 7023   4.232   4.711   3.659
 2353TIP3    H2 7024   4.177   4.723   3.800
 2354TIP3   OH2 7025   6.162   3.650   2.728
 2354TIP3    H1 7026   6.252   3.646   2.695
 2354TIP3    H2 7027   6.121   3.570   2.694
 2355TIP3   OH2 7028   6.889   3.591   1.960
 2355TIP3    H1 7029   6.838   3.539   1.898
 2355TIP3    H2 7030   6.838   3.587   2.041
 2356TIP3   OH2 7031   0.908   0.134   1.817
 2356TIP3    H1 7032   1.001   0.113   1.825
 2356TIP3    H2 7033   0.907   0.211   1.760
 2357TIP3   OH2 7034   4.200   4.957   1.172
 2357TIP3    H1 7035   4.163   5.045   1.167
 2357TIP3    H2 7036   4.267   4.964   1.240
 2358TIP3   OH2 7037   2.132   3.222   5.379
 2358TIP3    H1 7038   2.144   3.200   5.472
 2358TIP3    H2 7039   2.200   3.172   5.334
 2359TIP3   OH2 7040   5.520   2.729   4.094
 2359TIP3    H1 7041   5.470   2.720   4.174
 2359TIP3    H2 7042   5.469   2.790   4.040
 2360TIP3   OH2 7043   5.818   5.262   2.348
 2360TIP3    H1 7044   5.788   5.292   2.263
 2360TIP3    H2 7045   5.907   5.296   2.355
 2361TIP3   OH2 7046   6.741   2.544   3.856
 2361TIP3    H1 7047   6.811   2.584   3.803
 2361TIP3    H2 7048   6.742   2.452   3.831
 2362TIP3   OH2 7049   3.526   4.869   1.871
 2362TIP3    H1 7050   3.582   4.848   1.946
 2362TIP3    H2 7051   3.560   4.952   1.839
 2363TIP3   OH2 7052   3.147   4.938   4.704
 2363TIP3    H1 7053   3.081   4.962   4.769
 2363TIP3    H2 7054   3.098   4.906   4.629
 2364TIP3   OH2 7055   5.537   0.445   1.123
 2364TIP3    H1 7056   5.606   0.511   1.116
 2364TIP3    H2 7057   5.548   0.390   1.045
 2365TIP3   OH2 7058   2.078   6.131   5.370
 2365TIP3    H1 7059   2.094   6.150   5.277
 2365TIP3    H2 7060   1.983   6.138   5.380
 2366TIP3   OH2 7061   6.244   6.431   5.505
 2366TIP3    H1 7062   6.246   6.345   5.547
 2366TIP3    H2 7063   6.152   6.455   5.506
 2367TIP3   OH2 7064   6.031   0.384   1.266
 2367TIP3    H1 7065   6.019   0.474   1.236
 2367TIP3    H2 7066   6.126   0.369   1.260
 2368TIP3   OH2 7067   2.278   6.606   1.262
 2368TIP3    H1 7068   2.368   6.635   1.246
 2368TIP3    H2 7069   2.228   6.687   1.268
 2369TIP3   OH2 7070   4.404   2.727   4.891
 2369TIP3    H1 7071   4.327   2.772   4.926
 2369TIP3    H2 7072   4.464   2.721   4.966
 2370TIP3   OH2 7073   4.563   3.935   5.249
 2370TIP3    H1 7074   4.518   3.895   5.175
 2370TIP3    H2 7075   4.600   4.016   5.213
 2371TIP3   OH2 7076   5.185   6.481   1.389
 2371TIP3    H1 7077   5.267   6.524   1.413
 2371TIP3    H2 7078   5.208   6.427   1.313
 2372TIP3   OH2 7079   6.131   1.371   5.583
 2372TIP3    H1 7080   6.154   1.353   5.492
 2372TIP3    H2 7081   6.088   1.456   5.580
 2373TIP3   OH2 7082   2.083   1.555   5.804
 2373TIP3    H1 7083   2.017   1.622   5.823
 2373TIP3    H2 7084   2.096   1.560   5.709
 2374TIP3   OH2 7085   2.447   2.093   2.350
 2374TIP3    H1 7086   2.385   2.151   2.393
 2374TIP3    H2 7087   2.493   2.149   2.287
 2375TIP3   OH2 7088   2.579   2.614   4.068
 2375TIP3    H1 7089   2.657   2.641   4.118
 2375TIP3    H2 7090   2.615   2.572   3.990
 2376TIP3   OH2 7091   7.039   0.866   1.996
 2376TIP3    H1 7092   6.966   0.805   1.986
 2376TIP3    H2 7093   7.095   0.825   2.062
 2377TIP3   OH2 7094   3.764   0.853   5.749
 2377TIP3    H1 7095   3.808   0.819   5.826
 2377TIP3    H2 7096   3.695   0.789   5.730
 2378TIP3   OH2 7097   6.546   3.417   5.203
 2378TIP3    H1 7098   6.503   3.333   5.217
 2378TIP3    H2 7099   6.570   3.447   5.291
 2379TIP3   OH2 7100   6.895   6.737   3.304
 2379TIP3    H1 7101   6.937   6.806   3.356
 2379TIP3    H2 7102   6.959   6.666   3.302
 2380TIP3   OH2 7103   1.682   5.591   5.635
 2380TIP3    H1 7104   1.772   5.573   5.607
 2380TIP3    H2 7105   1.687   5.678   5.675
 2381TIP3   OH2 7106   6.980   0.995   0.256
 2381TIP3    H1 7107   7.048   1.050   0.296
 2381TIP3    H2 7108   6.907   1.055   0.240
 2382TIP3   OH2 7109   6.650   1.986   2.293
 2382TIP3    H1 7110   6.624   1.974   2.202
 2382TIP3    H2 7111   6.665   1.897   2.326
 2383TIP3   OH2 7112   6.660   0.912   5.585
 2383TIP3    H1 7113   6.658   0.817   5.591
 2383TIP3    H2 7114   6.748   0.932   5.552
 2384TIP3   OH2 7115   2.523   0.334   3.789
 2384TIP3    H1 7116   2.524   0.421   3.828
 2384TIP3    H2 7117   2.582   0.282   3.844
 2385TIP3   OH2 7118   4.138   5.930   1.400
 2385TIP3    H1 7119   4.163   5.993   1.333
 2385TIP3    H2 7120   4.220   5.904   1.441
 2386TIP3   OH2 7121   3.083   0.134   5.326
 2386TIP3    H1 7122   3.152   0.137   5.392
 2386TIP3    H2 7123   3.047   0.046   5.332
 2387TIP3   OH2 7124   2.360   2.132   3.739
 2387TIP3    H1 7125   2.419   2.140   3.814
 2387TIP3    H2 7126   2.402   2.065   3.684
 2388TIP3   OH2 7127   4.181   0.272   0.916
 2388TIP3    H1 7128   4.210   0.350   0.868
 2388TIP3    H2 7129   4.086   0.272   0.906
 2389TIP3   OH2 7130   3.047   5.380   2.844
 2389TIP3    H1 7131   3.055   5.403   2.936
 2389TIP3    H2 7132   2.954   5.361   2.831
 2390TIP3   OH2 7133   5.447   5.405   1.970
 2390TIP3    H1 7134   5.484   5.334   2.023
 2390TIP3    H2 7135   5.355   5.409   1.995
 2391TIP3   OH2 7136   0.950   3.627   0.819
 2391TIP3    H1 7137   0.862   3.623   0.782
 2391TIP3    H2 7138   0.957   3.547   0.872
 2392TIP3   OH2 7139   5.864   0.647   2.988
 2392TIP3    H1 7140   5.934   0.583   3.002
 2392TIP3    H2 7141   5.909   0.731   2.980
 2393TIP3   OH2 7142   1.690   0.911   0.794
 2393TIP3    H1 7143   1.667   0.889   0.704
 2393TIP3    H2 7144   1.630   0.980   0.819
 2394TIP3   OH2 7145   1.127   5.410   3.164
 2394TIP3    H1 7146   1.156   5.404   3.255
 2394TIP3    H2 7147   1.120   5.504   3.147
 2395TIP3   OH2 7148   1.381   1.917   1.291
 2395TIP3    H1 7149   1.449   1.853   1.315
 2395TIP3    H2 7150   1.421   2.002   1.310
 2396TIP3   OH2 7151   2.200   3.614   4.159
 2396TIP3    H1 7152   2.257   3.594   4.085
 2396TIP3    H2 7153   2.229   3.554   4.228
 2397TIP3   OH2 7154   4.539   4.632   1.629
 2397TIP3    H1 7155   4.556   4.643   1.723
 2397TIP3    H2 7156   4.610   4.680   1.587
 2398TIP3   OH2 7157   2.751   2.567   2.755
 2398TIP3    H1 7158   2.783   2.479   2.735
 2398TIP3    H2 7159   2.810   2.625   2.708
 2399TIP3   OH2 7160   1.468   2.610   1.972
 2399TIP3    H1 7161   1.483   2.610   1.878
 2399TIP3    H2 7162   1.430   2.696   1.990
 2400TIP3   OH2 7163   5.366   0.152   4.128
 2400TIP3    H1 7164   5.361   0.242   4.161
 2400TIP3    H2 7165   5.459   0.133   4.123
 2401TIP3   OH2 7166   5.240   5.158   4.503
 2401TIP3    H1 7167   5.226   5.136   4.596
 2401TIP3    H2 7168   5.250   5.073   4.460
 2402TIP3   OH2 7169   5.896   3.987   1.329
 2402TIP3    H1 7170   5.992   3.998   1.329
 2402TIP3    H2 7171   5.878   3.939   1.410
 2403TIP3   OH2 7172   4.698   4.214   0.101
 2403TIP3    H1 7173   4.706   4.229   0.195
 2403TIP3    H2 7174   4.689   4.119   0.093
 2404TIP3   OH2 7175   3.605   4.873   5.218
 2404TIP3    H1 7176   3.532   4.812   5.229
 2404TIP3    H2 7177   3.593   4.910   5.131
 2405TIP3   OH2 7178   4.307   3.667   3.293
 2405TIP3    H1 7179   4.346   3.726   3.357
 2405TIP3    H2 7180   4.328   3.579   3.325
 2406TIP3   OH2 7181   3.122   6.762   2.901
 2406TIP3    H1 7182   3.155   6.826   2.963
 2406TIP3    H2 7183   3.110   6.682   2.953
 2407TIP3   OH2 7184   1.288   4.951   4.351
 2407TIP3    H1 7185   1.284   4.856   4.345
 2407TIP3    H2 7186   1.380   4.971   4.365
 2408TIP3   OH2 7187   6.852   0.140   2.126
 2408TIP3    H1 7188   6.940   0.104   2.122
 2408TIP3    H2 7189   6.842   0.190   2.045
 2409TIP3   OH2 7190   7.139   6.061   5.187
 2409TIP3    H1 7191   7.186   6.104   5.115
 2409TIP3    H2 7192   7.048   6.085   5.173
 2410TIP3   OH2 7193   2.275   2.902   4.323
 2410TIP3    H1 7194   2.342   2.932   4.261
 2410TIP3    H2 7195   2.235   2.983   4.356
 2411TIP3   OH2 7196   6.391   4.479   0.800
 2411TIP3    H1 7197   6.420   4.556   0.849
 2411TIP3    H2 7198   6.472   4.433   0.779
 2412TIP3   OH2 7199   5.796   6.581   3.826
 2412TIP3    H1 7200   5.704   6.568   3.848
 2412TIP3    H2 7201   5.794   6.613   3.735
 2413TIP3   OH2 7202   3.632   5.325   2.073
 2413TIP3    H1 7203   3.711   5.379   2.081
 2413TIP3    H2 7204   3.596   5.348   1.987
 2414TIP3   OH2 7205   2.761   2.520   0.984
 2414TIP3    H1 7206   2.821   2.571   0.929
 2414TIP3    H2 7207   2.730   2.582   1.050
 2415TIP3   OH2 7208   0.617   1.531   2.256
 2415TIP3    H1 7209   0.595   1.558   2.167
 2415TIP3    H2 7210   0.575   1.445   2.266
 2416TIP3   OH2 7211   2.833   2.211   2.426
 2416TIP3    H1 7212   2.883   2.269   2.484
 2416TIP3    H2 7213   2.831   2.127   2.473
 2417TIP3   OH2 7214   3.389   4.697   2.412
 2417TIP3    H1 7215   3.308   4.669   2.454
 2417TIP3    H2 7216   3.453   4.631   2.437
 2418TIP3   OH2 7217   6.412   0.750   5.420
 2418TIP3    H1 7218   6.491   0.708   5.453
 2418TIP3    H2 7219   6.426   0.756   5.325
 2419TIP3   OH2 7220   5.066   4.393   1.723
 2419TIP3    H1 7221   5.100   4.407   1.635
 2419TIP3    H2 7222   5.135   4.344   1.768
 2420TIP3   OH2 7223   5.093   0.834   5.766
 2420TIP3    H1 7224   5.103   0.924   5.796
 2420TIP3    H2 7225   5.182   0.800   5.761
 2421TIP3   OH2 7226   3.354   6.125   4.746
 2421TIP3    H1 7227   3.295   6.052   4.766
 2421TIP3    H2 7228   3.295   6.199   4.730
 2422TIP3   OH2 7229   6.325   6.105   2.881
 2422TIP3    H1 7230   6.346   6.165   2.953
 2422TIP3    H2 7231   6.410   6.086   2.841
 2423TIP3   OH2 7232   1.431   0.637   0.480
 2423TIP3    H1 7233   1.488   0.561   0.489
 2423TIP3    H2 7234   1.490   0.707   0.450
 2424TIP3   OH2 7235   4.965   1.587   1.981
 2424TIP3    H1 7236   4.925   1.541   2.056
 2424TIP3    H2 7237   5.024   1.522   1.943
 2425TIP3   OH2 7238   6.388   5.305   5.789
 2425TIP3    H1 7239   6.400   5.388   5.836
 2425TIP3    H2 7240   6.476   5.280   5.761
 2426TIP3   OH2 7241   3.391   1.090   2.625
 2426TIP3    H1 7242   3.337   1.025   2.671
 2426TIP3    H2 7243   3.328   1.140   2.573
 2427TIP3   OH2 7244   0.100   4.438   0.105
 2427TIP3    H1 7245   0.119   4.463   0.195
 2427TIP3    H2 7246   0.177   4.467   0.056
 2428TIP3   OH2 7247   4.618   1.808   0.197
 2428TIP3    H1 7248   4.609   1.882   0.257
 2428TIP3    H2 7249   4.534   1.803   0.152
 2429TIP3   OH2 7250   5.795   4.311   1.700
 2429TIP3    H1 7251   5.868   4.351   1.748
 2429TIP3    H2 7252   5.812   4.217   1.704
 2430TIP3   OH2 7253   2.577   5.694   4.642
 2430TIP3    H1 7254   2.672   5.699   4.652
 2430TIP3    H2 7255   2.549   5.785   4.631
 2431TIP3   OH2 7256   5.701   5.857   2.627
 2431TIP3    H1 7257   5.727   5.791   2.562
 2431TIP3    H2 7258   5.775   5.862   2.687
 2432TIP3   OH2 7259   2.885   4.501   3.997
 2432TIP3    H1 7260   2.880   4.405   4.005
 2432TIP3    H2 7261   2.824   4.533   4.064
 2433TIP3   OH2 7262   2.016   1.015   0.502
 2433TIP3    H1 7263   2.003   1.106   0.528
 2433TIP3    H2 7264   1.938   0.993   0.451
 2434TIP3   OH2 7265   6.924   6.491   4.242
 2434TIP3    H1 7266   6.844   6.532   4.274
 2434TIP3    H2 7267   6.956   6.439   4.316
 2435TIP3   OH2 7268   3.578   0.075   4.648
 2435TIP3    H1 7269   3.531  -0.002   4.613
 2435TIP3    H2 7270   3.603   0.049   4.736
 2436TIP3   OH2 7271   3.098   2.513   4.209
 2436TIP3    H1 7272   3.188   2.530   4.181
 2436TIP3    H2 7273   3.045   2.533   4.132
 2437TIP3   OH2 7274   0.089   0.388   0.320
 2437TIP3    H1 7275   0.040   0.448   0.263
 2437TIP3    H2 7276   0.029   0.315   0.336
 2438TIP3   OH2 7277   2.729   4.948   0.492
 2438TIP3    H1 7278   2.785   4.891   0.439
 2438TIP3    H2 7279   2.665   4.984   0.430
 2439TIP3   OH2 7280   2.272   4.745   5.160
 2439TIP3    H1 7281   2.358   4.759   5.121
 2439TIP3    H2 7282   2.287   4.680   5.229
 2440TIP3   OH2 7283   0.539   6.088   2.704
 2440TIP3    H1 7284   0.490   6.164   2.673
 2440TIP3    H2 7285   0.630   6.118   2.704
 2441TIP3   OH2 7286   3.164   3.414   5.193
 2441TIP3    H1 7287   3.071   3.409   5.169
 2441TIP3    H2 7288   3.193   3.498   5.156
 2442TIP3   OH2 7289   0.184   1.801   4.491
 2442TIP3    H1 7290   0.238   1.858   4.545
 2442TIP3    H2 7291   0.103   1.850   4.478
 2443TIP3   OH2 7292   7.077   5.598   3.114
 2443TIP3    H1 7293   7.132   5.636   3.045
 2443TIP3    H2 7294   7.009   5.663   3.129
 2444TIP3   OH2 7295   4.214   5.020   3.658
 2444TIP3    H1 7296   4.233   4.928   3.677
 2444TIP3    H2 7297   4.135   5.017   3.603
 2445TIP3   OH2 7298   5.755   5.333   4.709
 2445TIP3    H1 7299   5.749   5.305   4.618
 2445TIP3    H2 7300   5.784   5.255   4.756
 2446TIP3   OH2 7301   6.450   2.571   0.363
 2446TIP3    H1 7302   6.379   2.509   0.376
 2446TIP3    H2 7303   6.448   2.626   0.441
 2447TIP3   OH2 7304   3.922   5.227   5.717
 2447TIP3    H1 7305   3.947   5.292   5.782
 2447TIP3    H2 7306   3.993   5.163   5.718
 2448TIP3   OH2 7307   4.812   2.137   5.874
 2448TIP3    H1 7308   4.766   2.085   5.807
 2448TIP3    H2 7309   4.865   2.199   5.823
 2449TIP3   OH2 7310   3.869   3.690   5.023
 2449TIP3    H1 7311   3.852   3.666   5.114
 2449TIP3    H2 7312   3.964   3.702   5.019
 2450TIP3   OH2 7313   4.785   6.766   0.127
 2450TIP3    H1 7314   4.875   6.749   0.098
 2450TIP3    H2 7315   4.772   6.859   0.113
 2451TIP3   OH2 7316   4.317   4.640   4.344
 2451TIP3    H1 7317   4.350   4.721   4.304
 2451TIP3    H2 7318   4.247   4.612   4.286
 2452TIP3   OH2 7319   5.677   5.978   3.356
 2452TIP3    H1 7320   5.670   5.902   3.298
 2452TIP3    H2 7321   5.598   6.028   3.340
 2453TIP3   OH2 7322   1.077   1.136   1.501
 2453TIP3    H1 7323   1.150   1.117   1.560
 2453TIP3    H2 7324   1.003   1.091   1.540
 2454TIP3   OH2 7325   5.573   6.492   0.779
 2454TIP3    H1 7326   5.489   6.447   0.773
 2454TIP3    H2 7327   5.617   6.471   0.697
 2455TIP3   OH2 7328   2.893   1.771   2.353
 2455TIP3    H1 7329   2.973   1.813   2.321
 2455TIP3    H2 7330   2.897   1.783   2.448
 2456TIP3   OH2 7331   4.460   5.444   3.015
 2456TIP3    H1 7332   4.364   5.452   3.007
 2456TIP3    H2 7333   4.472   5.384   3.088
 2457TIP3   OH2 7334   7.166   3.914   5.223
 2457TIP3    H1 7335   7.214   3.996   5.236
 2457TIP3    H2 7336   7.078   3.932   5.254
 2458TIP3   OH2 7337   1.980   4.611   1.451
 2458TIP3    H1 7338   2.012   4.573   1.369
 2458TIP3    H2 7339   2.049   4.671   1.478
 2459TIP3   OH2 7340   0.715   0.173   2.021
 2459TIP3    H1 7341   0.772   0.135   1.953
 2459TIP3    H2 7342   0.776   0.209   2.086
 2460TIP3   OH2 7343   3.765   1.948   0.101
 2460TIP3    H1 7344   3.722   1.863   0.099
 2460TIP3    H2 7345   3.835   1.941   0.036
 2461TIP3   OH2 7346   5.017   3.673   5.269
 2461TIP3    H1 7347   5.038   3.709   5.355
 2461TIP3    H2 7348   4.975   3.745   5.222
 2462TIP3   OH2 7349   2.422   3.823   5.580
 2462TIP3    H1 7350   2.508   3.804   5.618
 2462TIP3    H2 7351   2.435   3.813   5.486
 2463TIP3   OH2 7352   0.430   4.128   1.528
 2463TIP3    H1 7353   0.455   4.147   1.619
 2463TIP3    H2 7354   0.499   4.071   1.496
 2464TIP3   OH2 7355   5.694   6.312   1.350
 2464TIP3    H1 7356   5.647   6.291   1.431
 2464TIP3    H2 7357   5.762   6.245   1.344
 2465TIP3   OH2 7358   0.599   2.677   5.295
 2465TIP3    H1 7359   0.527   2.724   5.252
 2465TIP3    H2 7360   0.612   2.599   5.242
 2466TIP3   OH2 7361   5.026   3.669   5.557
 2466TIP3    H1 7362   5.105   3.721   5.567
 2466TIP3    H2 7363   4.978   3.681   5.639
 2467TIP3   OH2 7364   5.610   5.259   0.238
 2467TIP3    H1 7365   5.518   5.267   0.265
 2467TIP3    H2 7366   5.624   5.165   0.230
 2468TIP3   OH2 7367   6.157   0.187   0.385
 2468TIP3    H1 7368   6.184   0.234   0.464
 2468TIP3    H2 7369   6.089   0.127   0.414
 2469TIP3   OH2 7370   6.385   3.137   5.776
 2469TIP3    H1 7371   6.320   3.184   5.828
 2469TIP3    H2 7372   6.399   3.055   5.822
 2470TIP3   OH2 7373   2.722   6.133   2.940
 2470TIP3    H1 7374   2.700   6.073   3.011
 2470TIP3    H2 7375   2.669   6.211   2.956
 2471TIP3   OH2 7376   4.526   2.996   3.166
 2471TIP3    H1 7377   4.431   3.000   3.176
 2471TIP3    H2 7378   4.559   3.023   3.252
 2472TIP3   OH2 7379   5.394   2.303   2.376
 2472TIP3    H1 7380   5.317   2.342   2.334
 2472TIP3    H2 7381   5.421   2.234   2.315
 2473TIP3   OH2 7382   4.058   5.271   5.038
 2473TIP3    H1 7383   4.140   5.229   5.064
 2473TIP3    H2 7384   4.048   5.344   5.100
 2474TIP3   OH2 7385   4.815   3.344   2.255
 2474TIP3    H1 7386   4.768   3.404   2.313
 2474TIP3    H2 7387   4.907   3.370   2.263
 2475TIP3   OH2 7388   2.515   4.857   1.423
 2475TIP3    H1 7389   2.471   4.784   1.379
 2475TIP3    H2 7390   2.567   4.898   1.354
 2476TIP3   OH2 7391   4.981   5.718   3.932
 2476TIP3    H1 7392   5.028   5.642   3.966
 2476TIP3    H2 7393   4.893   5.709   3.967
 2477TIP3   OH2 7394   2.079   2.570   0.075
 2477TIP3    H1 7395   2.038   2.556  -0.011
 2477TIP3    H2 7396   2.156   2.624   0.056
 2478TIP3   OH2 7397   1.979   5.430   0.174
 2478TIP3    H1 7398   1.994   5.510   0.125
 2478TIP3    H2 7399   1.895   5.397   0.143
 2479TIP3   OH2 7400   1.811   1.684   2.155
 2479TIP3    H1 7401   1.777   1.607   2.110
 2479TIP3    H2 7402   1.760   1.757   2.122
 2480TIP3   OH2 7403   6.292   5.240   2.982
 2480TIP3    H1 7404   6.231   5.172   2.952
 2480TIP3    H2 7405   6.343   5.197   3.051
 2481TIP3   OH2 7406   3.916   4.188   3.318
 2481TIP3    H1 7407   3.902   4.282   3.306
 2481TIP3    H2 7408   3.987   4.167   3.257
 2482TIP3   OH2 7409   1.616   1.199   3.118
 2482TIP3    H1 7410   1.614   1.228   3.210
 2482TIP3    H2 7411   1.645   1.276   3.070
 2483TIP3   OH2 7412   2.311   6.622   4.022
 2483TIP3    H1 7413   2.231   6.572   4.035
 2483TIP3    H2 7414   2.322   6.673   4.103
 2484TIP3   OH2 7415   3.896   2.346   2.575
 2484TIP3    H1 7416   3.833   2.322   2.643
 2484TIP3    H2 7417   3.954   2.270   2.568
 2485TIP3   OH2 7418   0.740   1.001   4.091
 2485TIP3    H1 7419   0.760   1.094   4.080
 2485TIP3    H2 7420   0.817   0.964   4.133
 2486TIP3   OH2 7421   1.040   1.605   2.048
 2486TIP3    H1 7422   1.118   1.576   2.095
 2486TIP3    H2 7423   1.066   1.687   2.005
 2487TIP3   OH2 7424   4.080   1.255   5.766
 2487TIP3    H1 7425   4.136   1.218   5.835
 2487TIP3    H2 7426   4.025   1.182   5.738
 2488TIP3   OH2 7427   0.543   0.226   1.642
 2488TIP3    H1 7428   0.529   0.151   1.699
 2488TIP3    H2 7429   0.549   0.188   1.554
 2489TIP3   OH2 7430   1.328   6.628   3.917
 2489TIP3    H1 7431   1.295   6.649   4.004
 2489TIP3    H2 7432   1.349   6.535   3.921
 2490TIP3   OH2 7433   1.885   4.849   5.224
 2490TIP3    H1 7434   1.889   4.945   5.231
 2490TIP3    H2 7435   1.794   4.828   5.244
 2491TIP3   OH2 7436   3.923   4.858   0.768
 2491TIP3    H1 7437   3.849   4.797   0.774
 2491TIP3    H2 7438   3.936   4.871   0.674
 2492TIP3   OH2 7439   4.499   2.006   4.095
 2492TIP3    H1 7440   4.522   2.096   4.116
 2492TIP3    H2 7441   4.486   1.963   4.180
 2493TIP3   OH2 7442   5.387   2.456   0.068
 2493TIP3    H1 7443   5.381   2.508  -0.012
 2493TIP3    H2 7444   5.383   2.520   0.139
 2494TIP3   OH2 7445   7.004   0.696   5.711
 2494TIP3    H1 7446   6.918   0.653   5.713
 2494TIP3    H2 7447   7.024   0.713   5.803
 2495TIP3   OH2 7448   1.114   6.173   0.535
 2495TIP3    H1 7449   1.105   6.168   0.440
 2495TIP3    H2 7450   1.168   6.251   0.550
 2496TIP3   OH2 7451   5.688   3.281   3.269
 2496TIP3    H1 7452   5.767   3.246   3.228
 2496TIP3    H2 7453   5.626   3.208   3.267
 2497TIP3   OH2 7454   6.808   1.039   3.229
 2497TIP3    H1 7455   6.839   1.123   3.262
 2497TIP3    H2 7456   6.886   0.983   3.230
 2498TIP3   OH2 7457   3.058   6.618   5.120
 2498TIP3    H1 7458   3.024   6.582   5.037
 2498TIP3    H2 7459   2.980   6.640   5.170
 2499TIP3   OH2 7460   3.641   6.144   0.389
 2499TIP3    H1 7461   3.687   6.223   0.362
 2499TIP3    H2 7462   3.628   6.155   0.483
 2500TIP3   OH2 7463   5.309   3.086   4.441
 2500TIP3    H1 7464   5.249   3.028   4.396
 2500TIP3    H2 7465   5.328   3.155   4.378
 2501TIP3   OH2 7466   3.404   3.742   3.403
 2501TIP3    H1 7467   3.394   3.720   3.311
 2501TIP3    H2 7468   3.425   3.835   3.404
 2502TIP3   OH2 7469   7.075   2.066   0.142
 2502TIP3    H1 7470   7.091   2.143   0.087
 2502TIP3    H2 7471   7.064   2.102   0.230
 2503TIP3   OH2 7472   6.452   1.341   5.863
 2503TIP3    H1 7473   6.384   1.278   5.840
 2503TIP3    H2 7474   6.527   1.317   5.810
 2504TIP3   OH2 7475   0.481   1.149   0.938
 2504TIP3    H1 7476   0.411   1.092   0.907
 2504TIP3    H2 7477   0.548   1.090   0.972
 2505TIP3   OH2 7478   5.785   3.543   2.552
 2505TIP3    H1 7479   5.866   3.491   2.556
 2505TIP3    H2 7480   5.797   3.599   2.474
 2506TIP3   OH2 7481   6.312   6.760   1.701
 2506TIP3    H1 7482   6.363   6.726   1.775
 2506TIP3    H2 7483   6.291   6.683   1.649
 2507TIP3   OH2 7484   6.627   1.550   0.312
 2507TIP3    H1 7485   6.606   1.578   0.401
 2507TIP3    H2 7486   6.544   1.520   0.276
 2508TIP3   OH2 7487   1.110   1.762   5.488
 2508TIP3    H1 7488   1.019   1.773   5.459
 2508TIP3    H2 7489   1.158   1.833   5.446
 2509TIP3   OH2 7490   3.833   6.046   5.221
 2509TIP3    H1 7491   3.801   6.136   5.219
 2509TIP3    H2 7492   3.851   6.025   5.130
 2510TIP3   OH2 7493   7.177   3.061   4.654
 2510TIP3    H1 7494   7.199   2.976   4.613
 2510TIP3    H2 7495   7.082   3.068   4.643
 2511TIP3   OH2 7496   3.882   3.973   1.894
 2511TIP3    H1 7497   3.941   4.032   1.940
 2511TIP3    H2 7498   3.894   3.888   1.937
 2512TIP3   OH2 7499   2.504   1.171   3.711
 2512TIP3    H1 7500   2.598   1.193   3.709
 2512TIP3    H2 7501   2.474   1.189   3.622
 2513TIP3   OH2 7502   7.120   1.186   4.542
 2513TIP3    H1 7503   7.079   1.103   4.568
 2513TIP3    H2 7504   7.101   1.193   4.448
 2514TIP3   OH2 7505   2.826   0.410   0.207
 2514TIP3    H1 7506   2.819   0.500   0.239
 2514TIP3    H2 7507   2.738   0.390   0.174
 2515TIP3   OH2 7508   1.483   0.185   2.651
 2515TIP3    H1 7509   1.434   0.103   2.638
 2515TIP3    H2 7510   1.501   0.187   2.745
 2516TIP3   OH2 7511   6.013   6.318   5.661
 2516TIP3    H1 7512   6.035   6.327   5.753
 2516TIP3    H2 7513   5.932   6.266   5.660
 2517TIP3   OH2 7514   0.593   6.364   0.977
 2517TIP3    H1 7515   0.597   6.401   0.889
 2517TIP3    H2 7516   0.548   6.430   1.029
 2518TIP3   OH2 7517   2.959   2.161   1.679
 2518TIP3    H1 7518   3.021   2.226   1.647
 2518TIP3    H2 7519   2.875   2.207   1.682
 2519TIP3   OH2 7520   0.175   5.970   0.405
 2519TIP3    H1 7521   0.141   5.891   0.362
 2519TIP3    H2 7522   0.098   6.020   0.428
 2520TIP3   OH2 7523   4.906   0.301   1.904
 2520TIP3    H1 7524   4.997   0.283   1.928
 2520TIP3    H2 7525   4.854   0.245   1.962
 2521TIP3   OH2 7526   1.166   5.778   4.138
 2521TIP3    H1 7527   1.118   5.700   4.112
 2521TIP3    H2 7528   1.204   5.812   4.057
 2522TIP3   OH2 7529   6.886   6.582   2.639
 2522TIP3    H1 7530   6.830   6.536   2.576
 2522TIP3    H2 7531   6.854   6.555   2.724
 2523TIP3   OH2 7532   0.977   0.568   2.429
 2523TIP3    H1 7533   1.053   0.612   2.393
 2523TIP3    H2 7534   1.008   0.525   2.508
 2524TIP3   OH2 7535   5.952   6.154   3.700
 2524TIP3    H1 7536   5.970   6.244   3.672
 2524TIP3    H2 7537   5.945   6.105   3.618
 2525TIP3   OH2 7538   2.620   3.924   1.644
 2525TIP3    H1 7539   2.669   3.990   1.693
 2525TIP3    H2 7540   2.638   3.842   1.690
 2526TIP3   OH2 7541   0.088   0.945   3.620
 2526TIP3    H1 7542   0.138   0.977   3.695
 2526TIP3    H2 7543   0.039   0.870   3.654
 2527TIP3   OH2 7544   1.777   5.037   4.854
 2527TIP3    H1 7545   1.867   5.009   4.844
 2527TIP3    H2 7546   1.762   5.038   4.949
 2528TIP3   OH2 7547   4.725   2.672   5.721
 2528TIP3    H1 7548   4.816   2.701   5.718
 2528TIP3    H2 7549   4.682   2.736   5.778
 2529TIP3   OH2 7550   5.994   0.406   4.481
 2529TIP3    H1 7551   6.034   0.456   4.552
 2529TIP3    H2 7552   5.977   0.471   4.413
 2530TIP3   OH2 7553   2.375   3.760   3.676
 2530TIP3    H1 7554   2.391   3.759   3.582
 2530TIP3    H2 7555   2.456   3.728   3.715
 2531TIP3   OH2 7556   4.736   1.156   1.250
 2531TIP3    H1 7557   4.700   1.244   1.239
 2531TIP3    H2 7558   4.735   1.142   1.345
 2532TIP3   OH2 7559   5.840   2.813   0.891
 2532TIP3    H1 7560   5.865   2.751   0.960
 2532TIP3    H2 7561   5.771   2.865   0.931
 2533TIP3   OH2 7562   1.031   1.870   4.270
 2533TIP3    H1 7563   0.999   1.961   4.276
 2533TIP3    H2 7564   1.026   1.849   4.177
 2534TIP3   OH2 7565   3.528   5.694   3.906
 2534TIP3    H1 7566   3.457   5.633   3.926
 2534TIP3    H2 7567   3.486   5.780   3.905
 2535TIP3   OH2 7568   3.099   5.695   4.300
 2535TIP3    H1 7569   3.015   5.708   4.257
 2535TIP3    H2 7570   3.151   5.771   4.272
 2536TIP3   OH2 7571   1.113   3.111   3.258
 2536TIP3    H1 7572   1.188   3.128   3.200
 2536TIP3    H2 7573   1.040   3.157   3.217
 2537TIP3   OH2 7574   6.524   5.725   4.332
 2537TIP3    H1 7575   6.442   5.774   4.330
 2537TIP3    H2 7576   6.513   5.656   4.267
 2538TIP3   OH2 7577   5.048   3.694   0.819
 2538TIP3    H1 7578   5.143   3.695   0.828
 2538TIP3    H2 7579   5.016   3.701   0.909
 2539TIP3   OH2 7580   3.366   2.589   3.059
 2539TIP3    H1 7581   3.289   2.632   3.097
 2539TIP3    H2 7582   3.416   2.661   3.020
 2540TIP3   OH2 7583   6.631   1.633   1.979
 2540TIP3    H1 7584   6.547   1.627   1.934
 2540TIP3    H2 7585   6.647   1.727   1.989
 2541TIP3   OH2 7586   2.809   1.512   3.385
 2541TIP3    H1 7587   2.822   1.513   3.290
 2541TIP3    H2 7588   2.816   1.604   3.411
 2542TIP3   OH2 7589   3.187   6.322   0.490
 2542TIP3    H1 7590   3.210   6.383   0.420
 2542TIP3    H2 7591   3.099   6.291   0.467
 2543TIP3   OH2 7592   5.985   1.465   4.378
 2543TIP3    H1 7593   6.003   1.540   4.435
 2543TIP3    H2 7594   6.003   1.389   4.432
 2544TIP3   OH2 7595   4.801   1.650   2.312
 2544TIP3    H1 7596   4.845   1.726   2.351
 2544TIP3    H2 7597   4.822   1.578   2.371
 2545TIP3   OH2 7598   1.683   2.864   0.251
 2545TIP3    H1 7599   1.619   2.933   0.269
 2545TIP3    H2 7600   1.632   2.793   0.211
 2546TIP3   OH2 7601   6.950   2.535   0.259
 2546TIP3    H1 7602   6.980   2.607   0.202
 2546TIP3    H2 7603   6.888   2.486   0.205
 2547TIP3   OH2 7604   2.061   0.025   1.552
 2547TIP3    H1 7605   2.064   0.078   1.473
 2547TIP3    H2 7606   2.140  -0.028   1.549
 2548TIP3   OH2 7607   0.518   4.678   3.450
 2548TIP3    H1 7608   0.521   4.601   3.393
 2548TIP3    H2 7609   0.604   4.680   3.492
 2549TIP3   OH2 7610   1.417   3.593   1.448
 2549TIP3    H1 7611   1.381   3.678   1.472
 2549TIP3    H2 7612   1.348   3.551   1.397
 2550TIP3   OH2 7613   6.558   4.119   2.402
 2550TIP3    H1 7614   6.530   4.078   2.320
 2550TIP3    H2 7615   6.603   4.199   2.375
 2551TIP3   OH2 7616   2.977   0.462   3.062
 2551TIP3    H1 7617   2.907   0.397   3.069
 2551TIP3    H2 7618   2.945   0.537   3.112
 2552TIP3   OH2 7619   2.048   0.598   5.247
 2552TIP3    H1 7620   2.019   0.643   5.327
 2552TIP3    H2 7621   2.075   0.669   5.189
 2553TIP3   OH2 7622   4.910   6.456   4.157
 2553TIP3    H1 7623   4.822   6.487   4.178
 2553TIP3    H2 7624   4.904   6.426   4.066
 2554TIP3   OH2 7625   1.932   6.352   2.461
 2554TIP3    H1 7626   1.877   6.341   2.383
 2554TIP3    H2 7627   1.873   6.391   2.526
 2555TIP3   OH2 7628   6.161   2.444   0.041
 2555TIP3    H1 7629   6.201   2.496  -0.029
 2555TIP3    H2 7630   6.103   2.505   0.086
 2556TIP3   OH2 7631   3.911   6.486   5.408
 2556TIP3    H1 7632   3.930   6.558   5.347
 2556TIP3    H2 7633   3.822   6.459   5.386
 2557TIP3   OH2 7634   6.439   1.015   4.621
 2557TIP3    H1 7635   6.362   1.070   4.635
 2557TIP3    H2 7636   6.488   1.060   4.552
 2558TIP3   OH2 7637   6.294   0.330   1.352
 2558TIP3    H1 7638   6.288   0.350   1.445
 2558TIP3    H2 7639   6.383   0.356   1.327
 2559TIP3   OH2 7640   2.106   0.826   2.636
 2559TIP3    H1 7641   2.045   0.753   2.640
 2559TIP3    H2 7642   2.072   0.889   2.700
 2560TIP3   OH2 7643   0.862   5.601   2.335
 2560TIP3    H1 7644   0.873   5.696   2.339
 2560TIP3    H2 7645   0.907   5.575   2.255
 2561TIP3   OH2 7646   4.465   6.694   1.611
 2561TIP3    H1 7647   4.409   6.708   1.687
 2561TIP3    H2 7648   4.517   6.616   1.633
 2562TIP3   OH2 7649   1.661   3.642   2.455
 2562TIP3    H1 7650   1.648   3.736   2.463
 2562TIP3    H2 7651   1.591   3.613   2.395
 2563TIP3   OH2 7652   2.380   4.642   4.130
 2563TIP3    H1 7653   2.314   4.710   4.147
 2563TIP3    H2 7654   2.345   4.593   4.056
 2564TIP3   OH2 7655   4.067   4.245   3.696
 2564TIP3    H1 7656   4.027   4.189   3.762
 2564TIP3    H2 7657   4.067   4.332   3.735
 2565TIP3   OH2 7658   1.957   1.215   5.652
 2565TIP3    H1 7659   1.893   1.270   5.605
 2565TIP3    H2 7660   1.943   1.127   5.616
 2566TIP3   OH2 7661   5.854   5.269   5.525
 2566TIP3    H1 7662   5.782   5.327   5.552
 2566TIP3    H2 7663   5.841   5.257   5.431
 2567TIP3   OH2 7664   3.257   6.804   5.070
 2567TIP3    H1 7665   3.170   6.767   5.085
 2567TIP3    H2 7666   3.316   6.729   5.072
 2568TIP3   OH2 7667   2.893   6.382   4.057
 2568TIP3    H1 7668   2.817   6.425   4.097
 2568TIP3    H2 7669   2.957   6.375   4.129
 2569TIP3   OH2 7670   5.678   0.775   1.468
 2569TIP3    H1 7671   5.671   0.679   1.472
 2569TIP3    H2 7672   5.772   0.792   1.462
 2570TIP3   OH2 7673   0.464   3.500   4.813
 2570TIP3    H1 7674   0.437   3.426   4.759
 2570TIP3    H2 7675   0.382   3.538   4.845
 2571TIP3   OH2 7676   2.781   1.592   3.113
 2571TIP3    H1 7677   2.833   1.661   3.072
 2571TIP3    H2 7678   2.737   1.548   3.041
 2572TIP3   OH2 7679   1.190   3.690   0.489
 2572TIP3    H1 7680   1.229   3.676   0.575
 2572TIP3    H2 7681   1.113   3.633   0.488
 2573TIP3   OH2 7682   4.765   1.125   4.514
 2573TIP3    H1 7683   4.826   1.142   4.442
 2573TIP3    H2 7684   4.679   1.131   4.474
 2574TIP3   OH2 7685   5.665   1.577   1.270
 2574TIP3    H1 7686   5.752   1.583   1.308
 2574TIP3    H2 7687   5.664   1.647   1.203
 2575TIP3   OH2 7688   4.066   3.573   5.251
 2575TIP3    H1 7689   4.125   3.573   5.326
 2575TIP3    H2 7690   4.058   3.666   5.227
 2576TIP3   OH2 7691   3.406   0.350   5.292
 2576TIP3    H1 7692   3.356   0.280   5.333
 2576TIP3    H2 7693   3.344   0.422   5.281
 2577TIP3   OH2 7694   4.845   2.603   3.482
 2577TIP3    H1 7695   4.807   2.684   3.449
 2577TIP3    H2 7696   4.773   2.540   3.478
 2578TIP3   OH2 7697   1.901   5.970   4.280
 2578TIP3    H1 7698   1.860   5.892   4.317
 2578TIP3    H2 7699   1.828   6.023   4.248
 2579TIP3   OH2 7700   6.099   3.326   4.171
 2579TIP3    H1 7701   6.051   3.403   4.141
 2579TIP3    H2 7702   6.033   3.273   4.216
 2580TIP3   OH2 7703   3.329  -0.040   2.279
 2580TIP3    H1 7704   3.390  -0.066   2.348
 2580TIP3    H2 7705   3.345   0.053   2.266
 2581TIP3   OH2 7706   2.956   6.276   0.333
 2581TIP3    H1 7707   2.925   6.365   0.348
 2581TIP3    H2 7708   2.921   6.252   0.247
 2582TIP3   OH2 7709   5.513   6.004   4.142
 2582TIP3    H1 7710   5.428   6.034   4.177
 2582TIP3    H2 7711   5.508   6.023   4.049
 2583TIP3   OH2 7712   3.252   5.887   1.830
 2583TIP3    H1 7713   3.292   5.805   1.801
 2583TIP3    H2 7714   3.314   5.955   1.802
 2584TIP3   OH2 7715   5.365   1.573   2.106
 2584TIP3    H1 7716   5.287   1.582   2.161
 2584TIP3    H2 7717   5.383   1.479   2.106
 2585TIP3   OH2 7718   0.584   3.200   1.770
 2585TIP3    H1 7719   0.588   3.108   1.797
 2585TIP3    H2 7720   0.668   3.216   1.727
 2586TIP3   OH2 7721   5.805   0.476   5.118
 2586TIP3    H1 7722   5.737   0.541   5.130
 2586TIP3    H2 7723   5.879   0.525   5.083
 2587TIP3   OH2 7724   2.634   2.987   3.444
 2587TIP3    H1 7725   2.616   3.066   3.495
 2587TIP3    H2 7726   2.702   3.013   3.382
 2588TIP3   OH2 7727   0.973   2.592   1.069
 2588TIP3    H1 7728   1.028   2.515   1.080
 2588TIP3    H2 7729   0.899   2.578   1.128
 2589TIP3   OH2 7730   1.460   5.082   0.718
 2589TIP3    H1 7731   1.523   5.054   0.785
 2589TIP3    H2 7732   1.483   5.173   0.701
 2590TIP3   OH2 7733   5.258   2.829   0.051
 2590TIP3    H1 7734   5.329   2.849   0.111
 2590TIP3    H2 7735   5.184   2.881   0.083
 2591TIP3   OH2 7736   1.513   2.797   3.447
 2591TIP3    H1 7737   1.577   2.754   3.504
 2591TIP3    H2 7738   1.486   2.729   3.386
 2592TIP3   OH2 7739   6.507   4.589   4.279
 2592TIP3    H1 7740   6.467   4.622   4.359
 2592TIP3    H2 7741   6.509   4.494   4.290
 2593TIP3   OH2 7742   5.765   1.306   2.714
 2593TIP3    H1 7743   5.684   1.260   2.695
 2593TIP3    H2 7744   5.833   1.251   2.675
 2594TIP3   OH2 7745   5.915   5.603   1.193
 2594TIP3    H1 7746   6.006   5.632   1.190
 2594TIP3    H2 7747   5.872   5.664   1.252
 2595TIP3   OH2 7748   3.674   4.029   4.489
 2595TIP3    H1 7749   3.709   3.976   4.560
 2595TIP3    H2 7750   3.695   4.119   4.514
 2596TIP3   OH2 7751   3.048   3.137   5.801
 2596TIP3    H1 7752   2.975   3.123   5.862
 2596TIP3    H2 7753   3.025   3.217   5.754
 2597TIP3   OH2 7754   4.041   6.594   1.631
 2597TIP3    H1 7755   4.078   6.680   1.610
 2597TIP3    H2 7756   4.085   6.568   1.712
 2598TIP3   OH2 7757   3.888   0.213   4.022
 2598TIP3    H1 7758   3.924   0.287   4.072
 2598TIP3    H2 7759   3.882   0.142   4.086
 2599TIP3   OH2 7760   2.167   2.099   1.842
 2599TIP3    H1 7761   2.241   2.116   1.900
 2599TIP3    H2 7762   2.193   2.136   1.757
 2600TIP3   OH2 7763   4.627   1.409   1.326
 2600TIP3    H1 7764   4.571   1.476   1.286
 2600TIP3    H2 7765   4.581   1.383   1.405
 2601TIP3   OH2 7766   5.507   4.516   3.549
 2601TIP3    H1 7767   5.559   4.464   3.611
 2601TIP3    H2 7768   5.504   4.603   3.588
 2602TIP3   OH2 7769   2.286   3.525   3.388
 2602TIP3    H1 7770   2.261   3.519   3.480
 2602TIP3    H2 7771   2.339   3.604   3.382
 2603TIP3   OH2 7772   3.374   4.514   2.935
 2603TIP3    H1 7773   3.398   4.568   3.010
 2603TIP3    H2 7774   3.281   4.497   2.946
 2604TIP3   OH2 7775   6.095   5.045   2.923
 2604TIP3    H1 7776   6.140   4.993   2.989
 2604TIP3    H2 7777   6.005   5.012   2.923
 2605TIP3   OH2 7778   5.886   0.383   3.292
 2605TIP3    H1 7779   5.863   0.293   3.272
 2605TIP3    H2 7780   5.897   0.385   3.387
 2606TIP3   OH2 7781   2.386   4.599   1.382
 2606TIP3    H1 7782   2.408   4.517   1.427
 2606TIP3    H2 7783   2.325   4.571   1.313
 2607TIP3   OH2 7784   2.089   4.099   4.419
 2607TIP3    H1 7785   2.178   4.062   4.424
 2607TIP3    H2 7786   2.051   4.058   4.341
 2608TIP3   OH2 7787   6.799   6.696   5.409
 2608TIP3    H1 7788   6.803   6.792   5.409
 2608TIP3    H2 7789   6.854   6.670   5.335
 2609TIP3   OH2 7790   0.023   5.405   1.923
 2609TIP3    H1 7791   0.012   5.500   1.928
 2609TIP3    H2 7792   0.005   5.373   2.012
 2610TIP3   OH2 7793   2.552   2.166   3.937
 2610TIP3    H1 7794   2.639   2.189   3.970
 2610TIP3    H2 7795   2.492   2.227   3.979
 2611TIP3   OH2 7796   3.290   5.898   5.125
 2611TIP3    H1 7797   3.322   5.830   5.066
 2611TIP3    H2 7798   3.233   5.852   5.187
 2612TIP3   OH2 7799   4.608   4.819   3.503
 2612TIP3    H1 7800   4.679   4.786   3.447
 2612TIP3    H2 7801   4.651   4.878   3.565
 2613TIP3   OH2 7802   3.704   4.487   0.325
 2613TIP3    H1 7803   3.713   4.461   0.234
 2613TIP3    H2 7804   3.612   4.469   0.346
 2614TIP3   OH2 7805   2.131   5.422   4.859
 2614TIP3    H1 7806   2.136   5.507   4.903
 2614TIP3    H2 7807   2.182   5.363   4.915
 2615TIP3   OH2 7808   3.241   2.030   4.661
 2615TIP3    H1 7809   3.206   2.119   4.653
 2615TIP3    H2 7810   3.219   2.003   4.750
 2616TIP3   OH2 7811   3.128   4.513   3.022
 2616TIP3    H1 7812   3.095   4.460   3.093
 2616TIP3    H2 7813   3.079   4.485   2.945
 2617TIP3   OH2 7814   1.060   5.680   3.089
 2617TIP3    H1 7815   1.116   5.757   3.090
 2617TIP3    H2 7816   1.008   5.688   3.009
 2618TIP3   OH2 7817   4.560   3.706   4.646
 2618TIP3    H1 7818   4.593   3.737   4.730
 2618TIP3    H2 7819   4.633   3.657   4.608
 2619TIP3   OH2 7820   3.813   0.539   0.537
 2619TIP3    H1 7821   3.766   0.515   0.616
 2619TIP3    H2 7822   3.787   0.473   0.473
 2620TIP3   OH2 7823   0.039   0.687   0.431
 2620TIP3    H1 7824  -0.024   0.617   0.416
 2620TIP3    H2 7825   0.035   0.703   0.525
 2621TIP3   OH2 7826   5.101   4.037   0.488
 2621TIP3    H1 7827   5.039   4.026   0.559
 2621TIP3    H2 7828   5.149   4.117   0.509
 2622TIP3   OH2 7829   7.049   5.425   0.672
 2622TIP3    H1 7830   7.049   5.366   0.748
 2622TIP3    H2 7831   6.987   5.387   0.611
 2623TIP3   OH2 7832   1.161   2.101   1.050
 2623TIP3    H1 7833   1.128   2.066   0.967
 2623TIP3    H2 7834   1.216   2.031   1.084
 2624TIP3   OH2 7835   5.028   4.224   0.245
 2624TIP3    H1 7836   5.086   4.187   0.312
 2624TIP3    H2 7837   4.945   4.238   0.291
 2625TIP3   OH2 7838   1.116   1.406   5.223
 2625TIP3    H1 7839   1.086   1.370   5.306
 2625TIP3    H2 7840   1.066   1.487   5.212
 2626TIP3   OH2 7841   6.553   0.545   0.554
 2626TIP3    H1 7842   6.525   0.606   0.622
 2626TIP3    H2 7843   6.473   0.502   0.525
 2627TIP3   OH2 7844   6.712   0.005   1.808
 2627TIP3    H1 7845   6.719   0.068   1.880
 2627TIP3    H2 7846   6.664   0.051   1.740
 2628TIP3   OH2 7847   0.318   6.576   1.128
 2628TIP3    H1 7848   0.231   6.616   1.135
 2628TIP3    H2 7849   0.374   6.646   1.094
 2629TIP3   OH2 7850   0.821   0.967   0.059
 2629TIP3    H1 7851   0.793   0.905   0.127
 2629TIP3    H2 7852   0.899   1.008   0.096
 2630TIP3   OH2 7853   7.060   3.874   1.101
 2630TIP3    H1 7854   7.016   3.957   1.084
 2630TIP3    H2 7855   7.039   3.819   1.025
 2631TIP3   OH2 7856   1.145   1.513   5.639
 2631TIP3    H1 7857   1.164   1.605   5.618
 2631TIP3    H2 7858   1.069   1.492   5.584
 2632TIP3   OH2 7859   0.397   2.101   4.895
 2632TIP3    H1 7860   0.382   2.195   4.889
 2632TIP3    H2 7861   0.347   2.073   4.971
 2633TIP3   OH2 7862   0.482   1.237   5.459
 2633TIP3    H1 7863   0.565   1.281   5.437
 2633TIP3    H2 7864   0.430   1.242   5.379
 2634TIP3   OH2 7865   2.493   2.037   0.199
 2634TIP3    H1 7866   2.579   2.064   0.165
 2634TIP3    H2 7867   2.433   2.050   0.126
 2635TIP3   OH2 7868   2.539   5.365   0.327
 2635TIP3    H1 7869   2.628   5.333   0.312
 2635TIP3    H2 7870   2.517   5.412   0.246
 2636TIP3   OH2 7871   5.565   0.858   3.285
 2636TIP3    H1 7872   5.650   0.877   3.324
 2636TIP3    H2 7873   5.584   0.796   3.215
 2637TIP3   OH2 7874   1.281   6.292   5.008
 2637TIP3    H1 7875   1.189   6.278   5.030
 2637TIP3    H2 7876   1.288   6.266   4.916
 2638TIP3   OH2 7877   6.672   4.731   2.391
 2638TIP3    H1 7878   6.634   4.816   2.415
 2638TIP3    H2 7879   6.675   4.683   2.474
 2639TIP3   OH2 7880   1.007   2.374   2.687
 2639TIP3    H1 7881   1.086   2.320   2.696
 2639TIP3    H2 7882   0.937   2.319   2.724
 2640TIP3   OH2 7883   4.834   2.138   3.272
 2640TIP3    H1 7884   4.854   2.045   3.277
 2640TIP3    H2 7885   4.916   2.181   3.296
 2641TIP3   OH2 7886   3.523   1.594   4.246
 2641TIP3    H1 7887   3.604   1.576   4.197
 2641TIP3    H2 7888   3.454   1.555   4.192
 2642TIP3   OH2 7889   1.488   0.149   0.273
 2642TIP3    H1 7890   1.440   0.154   0.355
 2642TIP3    H2 7891   1.506   0.240   0.250
 2643TIP3   OH2 7892   6.317   2.113   4.759
 2643TIP3    H1 7893   6.292   2.193   4.806
 2643TIP3    H2 7894   6.253   2.106   4.688
 2644TIP3   OH2 7895   2.373   4.095   5.457
 2644TIP3    H1 7896   2.442   4.073   5.519
 2644TIP3    H2 7897   2.415   4.085   5.371
 2645TIP3   OH2 7898   0.697   6.089   0.514
 2645TIP3    H1 7899   0.756   6.122   0.582
 2645TIP3    H2 7900   0.702   6.155   0.444
 2646TIP3   OH2 7901   0.289   5.613   4.509
 2646TIP3    H1 7902   0.282   5.524   4.543
 2646TIP3    H2 7903   0.250   5.609   4.422
 2647TIP3   OH2 7904   5.660   3.715   2.757
 2647TIP3    H1 7905   5.718   3.657   2.707
 2647TIP3    H2 7906   5.605   3.655   2.807
 2648TIP3   OH2 7907   1.358   1.627   2.779
 2648TIP3    H1 7908   1.435   1.593   2.825
 2648TIP3    H2 7909   1.350   1.717   2.810
 2649TIP3   OH2 7910   5.039   2.349   4.789
 2649TIP3    H1 7911   5.107   2.336   4.855
 2649TIP3    H2 7912   5.084   2.333   4.705
 2650TIP3   OH2 7913   5.289   4.220   2.092
 2650TIP3    H1 7914   5.328   4.258   2.013
 2650TIP3    H2 7915   5.221   4.162   2.059
 2651TIP3   OH2 7916   1.929   0.414   3.369
 2651TIP3    H1 7917   1.948   0.383   3.280
 2651TIP3    H2 7918   1.852   0.469   3.360
 2652TIP3   OH2 7919   3.385   4.261   4.968
 2652TIP3    H1 7920   3.382   4.205   5.046
 2652TIP3    H2 7921   3.478   4.267   4.946
 2653TIP3   OH2 7922   4.148   3.725   5.634
 2653TIP3    H1 7923   4.148   3.805   5.582
 2653TIP3    H2 7924   4.171   3.753   5.722
 2654TIP3   OH2 7925   6.943   0.559   2.224
 2654TIP3    H1 7926   7.038   0.565   2.234
 2654TIP3    H2 7927   6.929   0.479   2.173
 2655TIP3   OH2 7928   5.386   1.884   4.805
 2655TIP3    H1 7929   5.448   1.812   4.815
 2655TIP3    H2 7930   5.301   1.847   4.832
 2656TIP3   OH2 7931   0.077   6.601   0.096
 2656TIP3    H1 7932   0.061   6.663   0.025
 2656TIP3    H2 7933  -0.008   6.558   0.110
 2657TIP3   OH2 7934   4.376   5.680   3.174
 2657TIP3    H1 7935   4.320   5.670   3.096
 2657TIP3    H2 7936   4.318   5.715   3.241
 2658TIP3   OH2 7937   4.244   4.156   2.635
 2658TIP3    H1 7938   4.171   4.133   2.577
 2658TIP3    H2 7939   4.319   4.163   2.576
 2659TIP3   OH2 7940   2.792   1.543   3.804
 2659TIP3    H1 7941   2.871   1.533   3.856
 2659TIP3    H2 7942   2.757   1.454   3.797
 2660TIP3   OH2 7943   6.873   0.433   3.658
 2660TIP3    H1 7944   6.929   0.356   3.674
 2660TIP3    H2 7945   6.784   0.398   3.660
 2661TIP3   OH2 7946   3.102   4.078   0.496
 2661TIP3    H1 7947   3.088   3.989   0.527
 2661TIP3    H2 7948   3.126   4.069   0.404
 2662TIP3   OH2 7949   5.330   2.624   2.125
 2662TIP3    H1 7950   5.256   2.594   2.072
 2662TIP3    H2 7951   5.312   2.717   2.140
 2663TIP3   OH2 7952   0.635   5.797   2.286
 2663TIP3    H1 7953   0.660   5.814   2.377
 2663TIP3    H2 7954   0.562   5.857   2.269
 2664TIP3   OH2 7955   0.680   2.371   4.284
 2664TIP3    H1 7956   0.655   2.397   4.196
 2664TIP3    H2 7957   0.764   2.415   4.300
 2665TIP3   OH2 7958   5.290   1.872   4.181
 2665TIP3    H1 7959   5.212   1.922   4.157
 2665TIP3    H2 7960   5.359   1.938   4.189
 2666TIP3   OH2 7961   0.776   6.338   5.299
 2666TIP3    H1 7962   0.756   6.302   5.213
 2666TIP3    H2 7963   0.845   6.403   5.283
 2667TIP3   OH2 7964   6.434   1.798   0.930
 2667TIP3    H1 7965   6.406   1.870   0.987
 2667TIP3    H2 7966   6.354   1.766   0.889
 2668TIP3   OH2 7967   0.288   5.482   0.468
 2668TIP3    H1 7968   0.309   5.471   0.375
 2668TIP3    H2 7969   0.370   5.461   0.513
 2669TIP3   OH2 7970   4.208   1.428   5.339
 2669TIP3    H1 7971   4.253   1.469   5.265
 2669TIP3    H2 7972   4.202   1.497   5.405
 2670TIP3   OH2 7973   1.620   1.698   1.324
 2670TIP3    H1 7974   1.617   1.619   1.271
 2670TIP3    H2 7975   1.604   1.669   1.414
 2671TIP3   OH2 7976   7.007   2.961   5.853
 2671TIP3    H1 7977   6.949   2.895   5.814
 2671TIP3    H2 7978   6.981   3.043   5.812
 2672TIP3   OH2 7979   5.836   5.931   2.129
 2672TIP3    H1 7980   5.758   5.984   2.146
 2672TIP3    H2 7981   5.858   5.948   2.038
 2673TIP3   OH2 7982   3.504   1.726   2.966
 2673TIP3    H1 7983   3.507   1.632   2.951
 2673TIP3    H2 7984   3.531   1.765   2.883
 2674TIP3   OH2 7985   4.591   1.729   2.193
 2674TIP3    H1 7986   4.682   1.724   2.223
 2674TIP3    H2 7987   4.540   1.700   2.268
 2675TIP3   OH2 7988   5.693   2.972   4.289
 2675TIP3    H1 7989   5.702   2.970   4.194
 2675TIP3    H2 7990   5.771   2.927   4.322
 2676TIP3   OH2 7991   3.749   6.147   5.681
 2676TIP3    H1 7992   3.831   6.189   5.656
 2676TIP3    H2 7993   3.750   6.063   5.634
 2677TIP3   OH2 7994   6.200   5.671   0.286
 2677TIP3    H1 7995   6.131   5.666   0.352
 2677TIP3    H2 7996   6.229   5.580   0.275
 2678TIP3   OH2 7997   3.186   0.794   3.492
 2678TIP3    H1 7998   3.122   0.766   3.426
 2678TIP3    H2 7999   3.145   0.772   3.576
 2679TIP3   OH2 8000   3.196   5.530   2.661
 2679TIP3    H1 8001   3.152   5.576   2.590
 2679TIP3    H2 8002   3.127   5.509   2.723
 2680TIP3   OH2 8003   0.591   0.699   4.263
 2680TIP3    H1 8004   0.644   0.634   4.309
 2680TIP3    H2 8005   0.588   0.667   4.172
 2681TIP3   OH2 8006   2.231   6.074   4.826
 2681TIP3    H1 8007   2.303   6.107   4.879
 2681TIP3    H2 8008   2.253   5.983   4.808
 2682TIP3   OH2 8009   4.128   2.137   1.326
 2682TIP3    H1 8010   4.188   2.210   1.339
 2682TIP3    H2 8011   4.047   2.178   1.296
 2683TIP3   OH2 8012   0.134   1.381   0.093
 2683TIP3    H1 8013   0.095   1.310   0.043
 2683TIP3    H2 8014   0.083   1.384   0.174
 2684TIP3   OH2 8015   5.327   4.755   3.355
 2684TIP3    H1 8016   5.352   4.826   3.413
 2684TIP3    H2 8017   5.407   4.704   3.342
 2685TIP3   OH2 8018   6.687   3.945   0.307
 2685TIP3    H1 8019   6.606   3.986   0.337
 2685TIP3    H2 8020   6.678   3.853   0.331
 2686TIP3   OH2 8021   0.222   6.543   4.312
 2686TIP3    H1 8022   0.211   6.523   4.219
 2686TIP3    H2 8023   0.235   6.638   4.315
 2687TIP3   OH2 8024   6.645   5.042   5.811
 2687TIP3    H1 8025   6.582   5.004   5.749
 2687TIP3    H2 8026   6.730   5.022   5.773
 2688TIP3   OH2 8027   0.649   3.763   5.478
 2688TIP3    H1 8028   0.678   3.812   5.555
 2688TIP3    H2 8029   0.620   3.830   5.417
 2689TIP3   OH2 8030   3.470   2.372   2.629
 2689TIP3    H1 8031   3.481   2.285   2.667
 2689TIP3    H2 8032   3.436   2.425   2.700
 2690TIP3   OH2 8033   0.244   0.758   2.057
 2690TIP3    H1 8034   0.265   0.710   1.977
 2690TIP3    H2 8035   0.327   0.758   2.106
 2691TIP3   OH2 8036   1.370   0.307   2.156
 2691TIP3    H1 8037   1.297   0.244   2.154
 2691TIP3    H2 8038   1.395   0.311   2.248
 2692TIP3   OH2 8039   5.566   0.724   2.695
 2692TIP3    H1 8040   5.590   0.814   2.671
 2692TIP3    H2 8041   5.579   0.720   2.789
 2693TIP3   OH2 8042   2.595   3.183   2.519
 2693TIP3    H1 8043   2.576   3.095   2.485
 2693TIP3    H2 8044   2.664   3.170   2.583
 2694TIP3   OH2 8045   2.926   3.020   3.101
 2694TIP3    H1 8046   2.856   2.982   3.048
 2694TIP3    H2 8047   2.964   3.088   3.047
 2695TIP3   OH2 8048   5.987   5.580   2.993
 2695TIP3    H1 8049   6.059   5.643   2.992
 2695TIP3    H2 8050   5.999   5.531   3.075
 2696TIP3   OH2 8051   4.056   2.065   0.281
 2696TIP3    H1 8052   4.105   2.004   0.226
 2696TIP3    H2 8053   3.970   2.071   0.239
 2697TIP3   OH2 8054   1.399   6.196   5.689
 2697TIP3    H1 8055   1.383   6.168   5.599
 2697TIP3    H2 8056   1.311   6.211   5.725
 2698TIP3   OH2 8057   1.534   5.361   5.028
 2698TIP3    H1 8058   1.587   5.283   5.015
 2698TIP3    H2 8059   1.501   5.354   5.117
 2699TIP3   OH2 8060   5.950   3.576   5.388
 2699TIP3    H1 8061   5.956   3.574   5.292
 2699TIP3    H2 8062   5.965   3.485   5.415
 2700TIP3   OH2 8063   4.157   1.328   0.711
 2700TIP3    H1 8064   4.193   1.346   0.797
 2700TIP3    H2 8065   4.191   1.241   0.688
 2701TIP3   OH2 8066   0.325   5.593   4.923
 2701TIP3    H1 8067   0.294   5.615   5.011
 2701TIP3    H2 8068   0.420   5.593   4.931
 2702TIP3   OH2 8069   4.472   4.390   0.466
 2702TIP3    H1 8070   4.420   4.309   0.463
 2702TIP3    H2 8071   4.560   4.361   0.487
 2703TIP3   OH2 8072   0.243   3.956   3.217
 2703TIP3    H1 8073   0.202   3.915   3.140
 2703TIP3    H2 8074   0.336   3.935   3.209
 2704TIP3   OH2 8075   3.416   3.853   1.082
 2704TIP3    H1 8076   3.367   3.878   1.004
 2704TIP3    H2 8077   3.351   3.813   1.140
 2705TIP3   OH2 8078   5.926   2.817   5.734
 2705TIP3    H1 8079   5.921   2.748   5.800
 2705TIP3    H2 8080   5.851   2.801   5.676
 2706TIP3   OH2 8081   2.555   2.343   3.069
 2706TIP3    H1 8082   2.592   2.381   3.149
 2706TIP3    H2 8083   2.546   2.418   3.010
 2707TIP3   OH2 8084   6.654   3.866   4.974
 2707TIP3    H1 8085   6.749   3.865   4.986
 2707TIP3    H2 8086   6.641   3.889   4.882
 2708TIP3   OH2 8087   4.661   0.169   0.047
 2708TIP3    H1 8088   4.594   0.113   0.008
 2708TIP3    H2 8089   4.614   0.248   0.073
 2709TIP3   OH2 8090   3.832   4.625   5.865
 2709TIP3    H1 8091   3.781   4.656   5.790
 2709TIP3    H2 8092   3.921   4.653   5.846
 2710TIP3   OH2 8093   3.604   4.604   3.544
 2710TIP3    H1 8094   3.575   4.696   3.544
 2710TIP3    H2 8095   3.564   4.567   3.623
 2711TIP3   OH2 8096   0.679   1.803   0.102
 2711TIP3    H1 8097   0.660   1.752   0.023
 2711TIP3    H2 8098   0.673   1.740   0.174
 2712TIP3   OH2 8099   1.452   6.713   3.085
 2712TIP3    H1 8100   1.523   6.651   3.103
 2712TIP3    H2 8101   1.447   6.768   3.163
 2713TIP3   OH2 8102   5.903   3.180   1.098
 2713TIP3    H1 8103   5.852   3.112   1.143
 2713TIP3    H2 8104   5.914   3.146   1.009
 2714TIP3   OH2 8105   0.963   0.821   3.820
 2714TIP3    H1 8106   0.947   0.835   3.727
 2714TIP3    H2 8107   0.878   0.833   3.862
 2715TIP3   OH2 8108   2.504   5.494   5.223
 2715TIP3    H1 8109   2.591   5.514   5.188
 2715TIP3    H2 8110   2.517   5.412   5.272
 2716TIP3   OH2 8111   2.553   6.746   0.027
 2716TIP3    H1 8112   2.495   6.781  -0.041
 2716TIP3    H2 8113   2.494   6.706   0.091
 2717TIP3   OH2 8114   2.339   3.424   2.353
 2717TIP3    H1 8115   2.389   3.487   2.404
 2717TIP3    H2 8116   2.368   3.438   2.262
 2718TIP3   OH2 8117   2.080   0.208   2.532
 2718TIP3    H1 8118   2.171   0.210   2.561
 2718TIP3    H2 8119   2.083   0.235   2.440
 2719TIP3   OH2 8120   0.350   4.532   4.565
 2719TIP3    H1 8121   0.292   4.593   4.519
 2719TIP3    H2 8122   0.300   4.503   4.641
 2720TIP3   OH2 8123   6.202   5.767   0.562
 2720TIP3    H1 8124   6.229   5.820   0.486
 2720TIP3    H2 8125   6.281   5.721   0.588
 2721TIP3   OH2 8126   6.453   0.332   2.459
 2721TIP3    H1 8127   6.471   0.238   2.463
 2721TIP3    H2 8128   6.466   0.362   2.549
 2722TIP3   OH2 8129   4.316   1.794   3.373
 2722TIP3    H1 8130   4.366   1.862   3.419
 2722TIP3    H2 8131   4.279   1.839   3.297
 2723TIP3   OH2 8132   1.128   6.335   4.489
 2723TIP3    H1 8133   1.076   6.255   4.491
 2723TIP3    H2 8134   1.076   6.398   4.539
 2724TIP3   OH2 8135   2.399   0.305   4.279
 2724TIP3    H1 8136   2.404   0.233   4.342
 2724TIP3    H2 8137   2.436   0.269   4.198
 2725TIP3   OH2 8138   6.696   4.756   2.669
 2725TIP3    H1 8139   6.702   4.852   2.661
 2725TIP3    H2 8140   6.655   4.743   2.754
 2726TIP3   OH2 8141   4.963   2.246   1.576
 2726TIP3    H1 8142   4.952   2.246   1.671
 2726TIP3    H2 8143   4.978   2.154   1.554
 2727TIP3   OH2 8144   2.885   2.398   4.879
 2727TIP3    H1 8145   2.857   2.422   4.790
 2727TIP3    H2 8146   2.932   2.475   4.910
 2728TIP3   OH2 8147   3.739   3.258   1.393
 2728TIP3    H1 8148   3.691   3.339   1.378
 2728TIP3    H2 8149   3.764   3.228   1.305
 2729TIP3   OH2 8150   4.987   3.301   3.668
 2729TIP3    H1 8151   5.021   3.357   3.597
 2729TIP3    H2 8152   4.989   3.213   3.631
 2730TIP3   OH2 8153   0.805   3.832   1.364
 2730TIP3    H1 8154   0.756   3.751   1.378
 2730TIP3    H2 8155   0.835   3.826   1.274
 2731TIP3   OH2 8156   1.357   1.876   2.859
 2731TIP3    H1 8157   1.294   1.860   2.929
 2731TIP3    H2 8158   1.315   1.943   2.804
 2732TIP3   OH2 8159   4.828   4.560   2.675
 2732TIP3    H1 8160   4.906   4.551   2.622
 2732TIP3    H2 8161   4.762   4.596   2.616
 2733TIP3   OH2 8162   3.662   0.462   2.007
 2733TIP3    H1 8163   3.717   0.410   2.066
 2733TIP3    H2 8164   3.722   0.526   1.968
 2734TIP3   OH2 8165   0.441   5.683   2.557
 2734TIP3    H1 8166   0.503   5.614   2.535
 2734TIP3    H2 8167   0.493   5.763   2.555
 2735TIP3   OH2 8168   7.055   5.691   1.610
 2735TIP3    H1 8169   7.033   5.774   1.568
 2735TIP3    H2 8170   7.104   5.643   1.543
 2736TIP3   OH2 8171   3.461   4.235   1.737
 2736TIP3    H1 8172   3.443   4.317   1.784
 2736TIP3    H2 8173   3.535   4.197   1.784
 2737TIP3   OH2 8174   6.457   4.494   3.264
 2737TIP3    H1 8175   6.539   4.450   3.289
 2737TIP3    H2 8176   6.470   4.585   3.290
 2738TIP3   OH2 8177   1.669   1.272   3.376
 2738TIP3    H1 8178   1.693   1.255   3.468
 2738TIP3    H2 8179   1.693   1.364   3.363
 2739TIP3   OH2 8180   1.794   1.027   0.335
 2739TIP3    H1 8181   1.699   1.031   0.330
 2739TIP3    H2 8182   1.821   0.991   0.250
 2740TIP3   OH2 8183   2.744   5.947   0.903
 2740TIP3    H1 8184   2.671   5.944   0.841
 2740TIP3    H2 8185   2.822   5.938   0.849
 2741TIP3   OH2 8186   6.632   2.293   0.086
 2741TIP3    H1 8187   6.714   2.244   0.086
 2741TIP3    H2 8188   6.565   2.225   0.097
 2742TIP3   OH2 8189   4.633   4.165   3.937
 2742TIP3    H1 8190   4.654   4.108   4.011
 2742TIP3    H2 8191   4.711   4.219   3.924
 2743TIP3   OH2 8192   1.101   6.512   4.263
 2743TIP3    H1 8193   1.117   6.467   4.346
 2743TIP3    H2 8194   1.053   6.448   4.210
 2744TIP3   OH2 8195   4.110   1.775   3.200
 2744TIP3    H1 8196   4.082   1.685   3.218
 2744TIP3    H2 8197   4.046   1.830   3.246
 2745TIP3   OH2 8198   1.008   3.100   0.286
 2745TIP3    H1 8199   1.088   3.121   0.237
 2745TIP3    H2 8200   0.945   3.166   0.257
 2746TIP3   OH2 8201   4.726   5.743   4.507
 2746TIP3    H1 8202   4.682   5.806   4.450
 2746TIP3    H2 8203   4.705   5.658   4.469
 2747TIP3   OH2 8204   0.681   4.928   5.207
 2747TIP3    H1 8205   0.601   4.942   5.156
 2747TIP3    H2 8206   0.652   4.876   5.282
 2748TIP3   OH2 8207   2.481   4.687   3.353
 2748TIP3    H1 8208   2.476   4.778   3.323
 2748TIP3    H2 8209   2.442   4.636   3.282
 2749TIP3   OH2 8210   6.900   2.074   3.987
 2749TIP3    H1 8211   6.986   2.045   4.016
 2749TIP3    H2 8212   6.891   2.163   4.020
 2750TIP3   OH2 8213   6.939   4.003   3.195
 2750TIP3    H1 8214   7.019   3.986   3.245
 2750TIP3    H2 8215   6.932   3.928   3.136
 2751TIP3   OH2 8216   7.124   0.186   1.395
 2751TIP3    H1 8217   7.071   0.196   1.316
 2751TIP3    H2 8218   7.213   0.171   1.363
 2752TIP3   OH2 8219   4.119   2.621   1.275
 2752TIP3    H1 8220   4.177   2.679   1.324
 2752TIP3    H2 8221   4.050   2.598   1.337
 2753TIP3   OH2 8222   0.336   0.685   2.509
 2753TIP3    H1 8223   0.407   0.689   2.573
 2753TIP3    H2 8224   0.306   0.775   2.500
 2754TIP3   OH2 8225   4.265   4.717   2.566
 2754TIP3    H1 8226   4.334   4.652   2.579
 2754TIP3    H2 8227   4.310   4.801   2.572
 2755TIP3   OH2 8228   4.987   2.931   2.675
 2755TIP3    H1 8229   4.946   2.956   2.593
 2755TIP3    H2 8230   5.061   2.875   2.650
 2756TIP3   OH2 8231   7.212   4.439   1.979
 2756TIP3    H1 8232   7.148   4.383   1.935
 2756TIP3    H2 8233   7.249   4.491   1.909
 2757TIP3   OH2 8234   3.297   6.339   2.535
 2757TIP3    H1 8235   3.365   6.379   2.480
 2757TIP3    H2 8236   3.216   6.383   2.509
 2758TIP3   OH2 8237   3.422   6.275   3.519
 2758TIP3    H1 8238   3.397   6.322   3.439
 2758TIP3    H2 8239   3.388   6.187   3.508
 2759TIP3   OH2 8240   3.639   6.226   0.689
 2759TIP3    H1 8241   3.721   6.272   0.705
 2759TIP3    H2 8242   3.572   6.294   0.692
 2760TIP3   OH2 8243   2.440   0.828   0.567
 2760TIP3    H1 8244   2.383   0.765   0.611
 2760TIP3    H2 8245   2.388   0.862   0.495
 2761TIP3   OH2 8246   3.759   1.328   2.776
 2761TIP3    H1 8247   3.753   1.236   2.801
 2761TIP3    H2 8248   3.845   1.356   2.807
 2762TIP3   OH2 8249   4.215   6.242   3.332
 2762TIP3    H1 8250   4.231   6.160   3.284
 2762TIP3    H2 8251   4.166   6.297   3.270
 2763TIP3   OH2 8252   5.364   3.327   5.553
 2763TIP3    H1 8253   5.375   3.332   5.648
 2763TIP3    H2 8254   5.439   3.375   5.518
 2764TIP3   OH2 8255   1.019   1.001   1.207
 2764TIP3    H1 8256   1.025   1.035   1.117
 2764TIP3    H2 8257   0.929   1.018   1.233
 2765TIP3   OH2 8258   1.535   2.959   5.185
 2765TIP3    H1 8259   1.499   2.906   5.114
 2765TIP3    H2 8260   1.620   2.919   5.203
 2766TIP3   OH2 8261   3.643   2.738   4.837
 2766TIP3    H1 8262   3.735   2.725   4.862
 2766TIP3    H2 8263   3.593   2.700   4.909
 2767TIP3   OH2 8264   4.517   5.605   0.491
 2767TIP3    H1 8265   4.527   5.577   0.400
 2767TIP3    H2 8266   4.490   5.696   0.484
 2768TIP3   OH2 8267   2.216   4.165   2.583
 2768TIP3    H1 8268   2.217   4.112   2.504
 2768TIP3    H2 8269   2.216   4.102   2.655
 2769TIP3   OH2 8270   0.382   4.733   2.212
 2769TIP3    H1 8271   0.330   4.747   2.134
 2769TIP3    H2 8272   0.349   4.651   2.249
 2770TIP3   OH2 8273   3.912   6.280   3.652
 2770TIP3    H1 8274   3.852   6.303   3.723
 2770TIP3    H2 8275   3.858   6.286   3.573
 2771TIP3   OH2 8276   5.232   3.145   1.012
 2771TIP3    H1 8277   5.251   3.052   1.003
 2771TIP3    H2 8278   5.177   3.151   1.091
 2772TIP3   OH2 8279   0.179   6.761   0.369
 2772TIP3    H1 8280   0.196   6.688   0.310
 2772TIP3    H2 8281   0.242   6.828   0.343
 2773TIP3   OH2 8282   3.673   3.636   3.126
 2773TIP3    H1 8283   3.709   3.721   3.150
 2773TIP3    H2 8284   3.581   3.653   3.108
 2774TIP3   OH2 8285   7.117   6.091   0.458
 2774TIP3    H1 8286   7.087   6.080   0.548
 2774TIP3    H2 8287   7.097   6.182   0.436
 2775TIP3   OH2 8288   1.691   1.118   5.345
 2775TIP3    H1 8289   1.627   1.085   5.282
 2775TIP3    H2 8290   1.650   1.196   5.381
 2776TIP3   OH2 8291   7.136   2.205   4.486
 2776TIP3    H1 8292   7.131   2.251   4.570
 2776TIP3    H2 8293   7.047   2.207   4.452
 2777TIP3   OH2 8294   0.305   6.514   3.429
 2777TIP3    H1 8295   0.302   6.594   3.378
 2777TIP3    H2 8296   0.398   6.503   3.450
 2778TIP3   OH2 8297   5.404   0.521   2.801
 2778TIP3    H1 8298   5.420   0.600   2.750
 2778TIP3    H2 8299   5.491   0.494   2.831
 2779TIP3   OH2 8300   0.289   0.117   5.137
 2779TIP3    H1 8301   0.367   0.133   5.083
 2779TIP3    H2 8302   0.303   0.171   5.215
 2780TIP3   OH2 8303   6.335   5.827   5.869
 2780TIP3    H1 8304   6.272   5.890   5.833
 2780TIP3    H2 8305   6.419   5.853   5.830
 2781TIP3   OH2 8306   3.871   3.376   5.246
 2781TIP3    H1 8307   3.943   3.437   5.229
 2781TIP3    H2 8308   3.913   3.290   5.249
 2782TIP3   OH2 8309   3.562   3.057   3.998
 2782TIP3    H1 8310   3.494   2.995   4.024
 2782TIP3    H2 8311   3.518   3.142   4.002
 2783TIP3   OH2 8312   4.276   5.824   1.809
 2783TIP3    H1 8313   4.363   5.835   1.848
 2783TIP3    H2 8314   4.226   5.899   1.840
 2784TIP3   OH2 8315   6.661   1.017   5.071
 2784TIP3    H1 8316   6.627   1.105   5.086
 2784TIP3    H2 8317   6.583   0.961   5.071
 2785TIP3   OH2 8318   4.669   1.575   3.245
 2785TIP3    H1 8319   4.662   1.518   3.321
 2785TIP3    H2 8320   4.726   1.527   3.184
 2786TIP3   OH2 8321   4.470   0.227   4.673
 2786TIP3    H1 8322   4.426   0.176   4.605
 2786TIP3    H2 8323   4.402   0.242   4.739
 2787TIP3   OH2 8324   4.930   3.860   3.020
 2787TIP3    H1 8325   4.895   3.947   3.039
 2787TIP3    H2 8326   4.968   3.868   2.933
 2788TIP3   OH2 8327   5.625   2.244   0.942
 2788TIP3    H1 8328   5.678   2.322   0.931
 2788TIP3    H2 8329   5.539   2.268   0.906
 2789TIP3   OH2 8330   5.551   4.131   1.886
 2789TIP3    H1 8331   5.603   4.128   1.966
 2789TIP3    H2 8332   5.476   4.075   1.904
 2790TIP3   OH2 8333   3.525   1.446   3.095
 2790TIP3    H1 8334   3.614   1.482   3.093
 2790TIP3    H2 8335   3.518   1.396   3.014
 2791TIP3   OH2 8336   6.234   0.270   5.807
 2791TIP3    H1 8337   6.234   0.312   5.721
 2791TIP3    H2 8338   6.142   0.249   5.824
 2792TIP3   OH2 8339   5.497   4.588   4.519
 2792TIP3    H1 8340   5.528   4.660   4.464
 2792TIP3    H2 8341   5.405   4.607   4.534
 2793TIP3   OH2 8342   1.526   1.758   0.691
 2793TIP3    H1 8343   1.514   1.696   0.763
 2793TIP3    H2 8344   1.593   1.718   0.636
 2794TIP3   OH2 8345   7.125   3.170   4.277
 2794TIP3    H1 8346   7.210   3.203   4.306
 2794TIP3    H2 8347   7.104   3.224   4.201
 2795TIP3   OH2 8348   4.886   1.498   1.253
 2795TIP3    H1 8349   4.799   1.467   1.279
 2795TIP3    H2 8350   4.870   1.584   1.215
 2796TIP3   OH2 8351   4.372   0.353   2.723
 2796TIP3    H1 8352   4.326   0.390   2.648
 2796TIP3    H2 8353   4.311   0.364   2.796
 2797TIP3   OH2 8354   1.776   0.668   5.311
 2797TIP3    H1 8355   1.763   0.574   5.298
 2797TIP3    H2 8356   1.818   0.697   5.231
 2798TIP3   OH2 8357   3.685   2.757   2.391
 2798TIP3    H1 8358   3.759   2.698   2.377
 2798TIP3    H2 8359   3.613   2.700   2.416
 2799TIP3   OH2 8360   2.913   4.153   4.545
 2799TIP3    H1 8361   2.853   4.218   4.507
 2799TIP3    H2 8362   2.987   4.204   4.577
 2800TIP3   OH2 8363   1.396   0.582   1.639
 2800TIP3    H1 8364   1.312   0.582   1.593
 2800TIP3    H2 8365   1.462   0.576   1.570
 2801TIP3   OH2 8366   4.435   5.415   4.652
 2801TIP3    H1 8367   4.418   5.499   4.609
 2801TIP3    H2 8368   4.349   5.376   4.664
 2802TIP3   OH2 8369   2.507   0.623   3.833
 2802TIP3    H1 8370   2.465   0.640   3.917
 2802TIP3    H2 8371   2.478   0.695   3.777
 2803TIP3   OH2 8372   1.827   1.714   5.417
 2803TIP3    H1 8373   1.737   1.732   5.445
 2803TIP3    H2 8374   1.847   1.628   5.452
 2804TIP3   OH2 8375   0.785   6.395   1.662
 2804TIP3    H1 8376   0.864   6.405   1.715
 2804TIP3    H2 8377   0.737   6.476   1.675
 2805TIP3   OH2 8378   1.204   0.702   5.408
 2805TIP3    H1 8379   1.260   0.663   5.341
 2805TIP3    H2 8380   1.260   0.766   5.452
 2806TIP3   OH2 8381   2.939   0.671   5.026
 2806TIP3    H1 8382   2.853   0.644   5.058
 2806TIP3    H2 8383   2.977   0.719   5.099
 2807TIP3   OH2 8384   5.807   3.971   5.655
 2807TIP3    H1 8385   5.749   3.965   5.731
 2807TIP3    H2 8386   5.784   4.055   5.614
 2808TIP3   OH2 8387   1.156   3.376   0.397
 2808TIP3    H1 8388   1.087   3.423   0.351
 2808TIP3    H2 8389   1.109   3.318   0.458
 2809TIP3   OH2 8390   0.746   2.908   2.787
 2809TIP3    H1 8391   0.740   2.910   2.692
 2809TIP3    H2 8392   0.730   2.999   2.814
 2810TIP3   OH2 8393   3.008   3.678   0.877
 2810TIP3    H1 8394   2.967   3.596   0.905
 2810TIP3    H2 8395   3.099   3.671   0.906
 2811TIP3   OH2 8396   7.150   2.442   2.344
 2811TIP3    H1 8397   7.243   2.440   2.363
 2811TIP3    H2 8398   7.117   2.357   2.375
 2812TIP3   OH2 8399   0.096   5.554   1.201
 2812TIP3    H1 8400   0.179   5.554   1.153
 2812TIP3    H2 8401   0.043   5.621   1.157
 2813TIP3   OH2 8402   5.621   2.851   5.885
 2813TIP3    H1 8403   5.629   2.820   5.794
 2813TIP3    H2 8404   5.703   2.897   5.902
 2814TIP3   OH2 8405   2.204   5.879   2.799
 2814TIP3    H1 8406   2.206   5.814   2.728
 2814TIP3    H2 8407   2.292   5.916   2.800
 2815TIP3   OH2 8408   6.257   3.956   3.818
 2815TIP3    H1 8409   6.214   4.008   3.751
 2815TIP3    H2 8410   6.316   3.898   3.770
 2816TIP3   OH2 8411   1.141   4.351   3.505
 2816TIP3    H1 8412   1.111   4.413   3.439
 2816TIP3    H2 8413   1.061   4.305   3.532
 2817TIP3   OH2 8414   4.622   2.794   0.363
 2817TIP3    H1 8415   4.682   2.746   0.306
 2817TIP3    H2 8416   4.536   2.758   0.343
 2818TIP3   OH2 8417   0.296   5.972   3.098
 2818TIP3    H1 8418   0.338   6.056   3.078
 2818TIP3    H2 8419   0.294   5.969   3.194
 2819TIP3   OH2 8420   2.055   3.587   1.208
 2819TIP3    H1 8421   2.121   3.656   1.218
 2819TIP3    H2 8422   2.050   3.572   1.114
 2820TIP3   OH2 8423   7.046   2.748   0.123
 2820TIP3    H1 8424   7.120   2.803   0.148
 2820TIP3    H2 8425   7.046   2.749   0.028
 2821TIP3   OH2 8426   3.505   0.001   3.821
 2821TIP3    H1 8427   3.537   0.078   3.773
 2821TIP3    H2 8428   3.584  -0.037   3.861
 2822TIP3   OH2 8429   3.349   3.607   2.184
 2822TIP3    H1 8430   3.286   3.549   2.141
 2822TIP3    H2 8431   3.435   3.570   2.162
 2823TIP3   OH2 8432   0.781   2.577   3.166
 2823TIP3    H1 8433   0.817   2.544   3.084
 2823TIP3    H2 8434   0.692   2.544   3.169
 2824TIP3   OH2 8435   3.443   5.987   5.551
 2824TIP3    H1 8436   3.509   5.949   5.493
 2824TIP3    H2 8437   3.407   6.060   5.502
 2825TIP3   OH2 8438   6.739   1.714   5.671
 2825TIP3    H1 8439   6.665   1.749   5.621
 2825TIP3    H2 8440   6.699   1.673   5.748
 2826TIP3   OH2 8441   5.119   6.605   2.382
 2826TIP3    H1 8442   5.159   6.648   2.306
 2826TIP3    H2 8443   5.106   6.514   2.354
 2827TIP3   OH2 8444   4.373   4.050   5.022
 2827TIP3    H1 8445   4.459   4.059   4.981
 2827TIP3    H2 8446   4.322   4.124   4.988
 2828TIP3   OH2 8447   4.442   4.156   5.508
 2828TIP3    H1 8448   4.517   4.096   5.510
 2828TIP3    H2 8449   4.379   4.114   5.449
 2829TIP3   OH2 8450   5.032   4.374   0.506
 2829TIP3    H1 8451   5.094   4.302   0.495
 2829TIP3    H2 8452   5.053   4.410   0.592
 2830TIP3   OH2 8453   4.791   2.049   1.259
 2830TIP3    H1 8454   4.711   1.996   1.266
 2830TIP3    H2 8455   4.763   2.137   1.286
 2831TIP3   OH2 8456   1.232   0.990   2.707
 2831TIP3    H1 8457   1.251   1.073   2.663
 2831TIP3    H2 8458   1.313   0.940   2.699
 2832TIP3   OH2 8459   5.866   4.321   3.497
 2832TIP3    H1 8460   5.886   4.235   3.532
 2832TIP3    H2 8461   5.898   4.318   3.407
 2833TIP3   OH2 8462   5.277   5.526   1.583
 2833TIP3    H1 8463   5.248   5.523   1.674
 2833TIP3    H2 8464   5.201   5.495   1.533
 2834TIP3   OH2 8465   0.050   2.688   2.062
 2834TIP3    H1 8466  -0.008   2.657   1.992
 2834TIP3    H2 8467   0.109   2.615   2.078
 2835TIP3   OH2 8468   5.675   3.035   5.091
 2835TIP3    H1 8469   5.707   3.117   5.054
 2835TIP3    H2 8470   5.738   2.969   5.061
 2836TIP3   OH2 8471   3.980   6.806   5.442
 2836TIP3    H1 8472   3.973   6.902   5.437
 2836TIP3    H2 8473   3.922   6.782   5.514
 2837TIP3   OH2 8474   5.093   6.636   0.478
 2837TIP3    H1 8475   5.143   6.624   0.558
 2837TIP3    H2 8476   5.109   6.555   0.428
 2838TIP3   OH2 8477   6.397   4.305   0.498
 2838TIP3    H1 8478   6.470   4.344   0.546
 2838TIP3    H2 8479   6.340   4.379   0.475
 2839TIP3   OH2 8480   2.970   4.811   2.204
 2839TIP3    H1 8481   2.902   4.762   2.251
 2839TIP3    H2 8482   3.049   4.758   2.212
 2840TIP3   OH2 8483   2.140   3.812   3.224
 2840TIP3    H1 8484   2.152   3.754   3.149
 2840TIP3    H2 8485   2.087   3.884   3.191
 2841TIP3   OH2 8486   0.228   1.405   2.767
 2841TIP3    H1 8487   0.191   1.472   2.824
 2841TIP3    H2 8488   0.184   1.324   2.793
 2842TIP3   OH2 8489   0.673   6.631   3.240
 2842TIP3    H1 8490   0.654   6.711   3.289
 2842TIP3    H2 8491   0.615   6.634   3.164
 2843TIP3   OH2 8492   2.705   4.595   1.433
 2843TIP3    H1 8493   2.646   4.596   1.509
 2843TIP3    H2 8494   2.788   4.562   1.467
 2844TIP3   OH2 8495   2.803   3.597   0.022
 2844TIP3    H1 8496   2.892   3.623  -0.001
 2844TIP3    H2 8497   2.753   3.609  -0.059
 2845TIP3   OH2 8498   5.410   1.324   3.616
 2845TIP3    H1 8499   5.458   1.247   3.645
 2845TIP3    H2 8500   5.394   1.311   3.523
 2846TIP3   OH2 8501   6.740   3.657   5.619
 2846TIP3    H1 8502   6.783   3.713   5.554
 2846TIP3    H2 8503   6.661   3.706   5.644
 2847TIP3   OH2 8504   6.790   0.112   1.194
 2847TIP3    H1 8505   6.727   0.162   1.246
 2847TIP3    H2 8506   6.782   0.022   1.227
 2848TIP3   OH2 8507   5.270   1.781   5.730
 2848TIP3    H1 8508   5.362   1.805   5.740
 2848TIP3    H2 8509   5.272   1.699   5.679
 2849TIP3   OH2 8510   5.398   2.354   3.045
 2849TIP3    H1 8511   5.355   2.426   3.092
 2849TIP3    H2 8512   5.375   2.367   2.954
 2850TIP3   OH2 8513   2.244   3.604   2.643
 2850TIP3    H1 8514   2.317   3.631   2.587
 2850TIP3    H2 8515   2.271   3.519   2.677
 2851TIP3   OH2 8516   0.222   6.376   0.701
 2851TIP3    H1 8517   0.221   6.353   0.794
 2851TIP3    H2 8518   0.288   6.318   0.662
 2852TIP3   OH2 8519   4.810   3.209   4.725
 2852TIP3    H1 8520   4.828   3.246   4.638
 2852TIP3    H2 8521   4.841   3.119   4.720
 2853TIP3   OH2 8522   0.426   1.726   4.381
 2853TIP3    H1 8523   0.351   1.750   4.436
 2853TIP3    H2 8524   0.392   1.730   4.292
 2854TIP3   OH2 8525   0.898   3.012   3.418
 2854TIP3    H1 8526   0.869   2.932   3.373
 2854TIP3    H2 8527   0.980   3.036   3.375
 2855TIP3   OH2 8528   4.445   0.499   0.322
 2855TIP3    H1 8529   4.355   0.532   0.330
 2855TIP3    H2 8530   4.435   0.412   0.284
 2856TIP3   OH2 8531   3.876   3.449   2.388
 2856TIP3    H1 8532   3.912   3.379   2.335
 2856TIP3    H2 8533   3.783   3.429   2.395
 2857TIP3   OH2 8534   2.349   6.592   3.058
 2857TIP3    H1 8535   2.432   6.637   3.069
 2857TIP3    H2 8536   2.354   6.517   3.119
 2858TIP3   OH2 8537   4.322   0.167   2.130
 2858TIP3    H1 8538   4.263   0.240   2.146
 2858TIP3    H2 8539   4.381   0.198   2.061
 2859TIP3   OH2 8540   5.138   1.921   3.149
 2859TIP3    H1 8541   5.174   2.006   3.174
 2859TIP3    H2 8542   5.100   1.935   3.063
 2860TIP3   OH2 8543   3.801   5.640   4.300
 2860TIP3    H1 8544   3.872   5.687   4.344
 2860TIP3    H2 8545   3.738   5.708   4.277
 2861TIP3   OH2 8546   5.773   3.675   0.775
 2861TIP3    H1 8547   5.691   3.659   0.822
 2861TIP3    H2 8548   5.791   3.768   0.790
 2862TIP3   OH2 8549   1.667   2.015   5.259
 2862TIP3    H1 8550   1.744   2.040   5.310
 2862TIP3    H2 8551   1.632   1.939   5.305
 2863TIP3   OH2 8552   3.484   2.945   5.852
 2863TIP3    H1 8553   3.477   2.991   5.768
 2863TIP3    H2 8554   3.560   2.888   5.841
 2864TIP3   OH2 8555   3.693   0.011   5.864
 2864TIP3    H1 8556   3.607   0.007   5.905
 2864TIP3    H2 8557   3.675   0.039   5.774
 2865TIP3   OH2 8558   0.878   4.518   1.662
 2865TIP3    H1 8559   0.953   4.505   1.604
 2865TIP3    H2 8560   0.911   4.501   1.750
 2866TIP3   OH2 8561   0.767   2.986   3.920
 2866TIP3    H1 8562   0.676   2.957   3.916
 2866TIP3    H2 8563   0.818   2.905   3.924
 2867TIP3   OH2 8564   7.034   3.461   0.367
 2867TIP3    H1 8565   7.036   3.446   0.272
 2867TIP3    H2 8566   6.984   3.387   0.402
 2868TIP3   OH2 8567   7.143   4.434   3.592
 2868TIP3    H1 8568   7.080   4.437   3.521
 2868TIP3    H2 8569   7.124   4.512   3.645
 2869TIP3   OH2 8570   3.812   5.306   2.974
 2869TIP3    H1 8571   3.734   5.250   2.976
 2869TIP3    H2 8572   3.780   5.390   2.940
 2870TIP3   OH2 8573   1.804   0.652   5.589
 2870TIP3    H1 8574   1.804   0.666   5.494
 2870TIP3    H2 8575   1.743   0.580   5.603
 2871TIP3   OH2 8576   5.826   6.173   4.135
 2871TIP3    H1 8577   5.744   6.134   4.167
 2871TIP3    H2 8578   5.858   6.225   4.209
 2872TIP3   OH2 8579   2.399   4.266   5.107
 2872TIP3    H1 8580   2.327   4.328   5.113
 2872TIP3    H2 8581   2.357   4.181   5.094
 2873TIP3   OH2 8582   5.185   2.790   2.548
 2873TIP3    H1 8583   5.146   2.709   2.515
 2873TIP3    H2 8584   5.264   2.761   2.593
 2874TIP3   OH2 8585   2.174   5.822   3.141
 2874TIP3    H1 8586   2.111   5.812   3.212
 2874TIP3    H2 8587   2.174   5.737   3.096
 2875TIP3   OH2 8588   0.811   5.041   1.092
 2875TIP3    H1 8589   0.741   5.047   1.157
 2875TIP3    H2 8590   0.767   5.013   1.012
 2876TIP3   OH2 8591   3.141   5.577   2.141
 2876TIP3    H1 8592   3.084   5.500   2.134
 2876TIP3    H2 8593   3.226   5.547   2.110
 2877TIP3   OH2 8594   0.765   1.916   0.464
 2877TIP3    H1 8595   0.814   1.844   0.504
 2877TIP3    H2 8596   0.718   1.956   0.537
 2878TIP3   OH2 8597   4.217   6.705   0.483
 2878TIP3    H1 8598   4.123   6.704   0.502
 2878TIP3    H2 8599   4.240   6.612   0.474
 2879TIP3   OH2 8600   2.580   3.615   5.717
 2879TIP3    H1 8601   2.650   3.573   5.667
 2879TIP3    H2 8602   2.499   3.582   5.678
 2880TIP3   OH2 8603   3.910   5.355   4.673
 2880TIP3    H1 8604   3.878   5.303   4.747
 2880TIP3    H2 8605   3.864   5.320   4.597
 2881TIP3   OH2 8606   1.962   2.803   5.620
 2881TIP3    H1 8607   1.919   2.725   5.656
 2881TIP3    H2 8608   2.046   2.771   5.588
 2882TIP3   OH2 8609   4.113   1.517   2.610
 2882TIP3    H1 8610   4.035   1.468   2.582
 2882TIP3    H2 8611   4.153   1.546   2.528
 2883TIP3   OH2 8612   3.456   4.227   2.558
 2883TIP3    H1 8613   3.507   4.148   2.578
 2883TIP3    H2 8614   3.508   4.273   2.493
 2884TIP3   OH2 8615   1.758   5.835   5.755
 2884TIP3    H1 8616   1.838   5.881   5.730
 2884TIP3    H2 8617   1.770   5.812   5.847
 2885TIP3   OH2 8618   6.797   0.156   5.834
 2885TIP3    H1 8619   6.731   0.168   5.903
 2885TIP3    H2 8620   6.748   0.120   5.761
 2886TIP3   OH2 8621   6.473   1.020   2.541
 2886TIP3    H1 8622   6.548   0.979   2.497
 2886TIP3    H2 8623   6.510   1.061   2.619
 2887TIP3   OH2 8624   1.641   3.964   3.332
 2887TIP3    H1 8625   1.629   3.910   3.254
 2887TIP3    H2 8626   1.568   3.941   3.390
 2888TIP3   OH2 8627   6.799   3.270   4.800
 2888TIP3    H1 8628   6.836   3.312   4.878
 2888TIP3    H2 8629   6.835   3.320   4.726
 2889TIP3   OH2 8630   6.371   1.524   4.953
 2889TIP3    H1 8631   6.318   1.488   5.024
 2889TIP3    H2 8632   6.370   1.618   4.968
 2890TIP3   OH2 8633   3.652   3.663   1.695
 2890TIP3    H1 8634   3.626   3.723   1.626
 2890TIP3    H2 8635   3.719   3.608   1.655
 2891TIP3   OH2 8636   2.607   5.196   4.266
 2891TIP3    H1 8637   2.575   5.284   4.287
 2891TIP3    H2 8638   2.691   5.211   4.221
 2892TIP3   OH2 8639   2.916   6.022   5.423
 2892TIP3    H1 8640   2.979   5.954   5.399
 2892TIP3    H2 8641   2.835   5.974   5.443
 2893TIP3   OH2 8642   5.302   2.363   4.170
 2893TIP3    H1 8643   5.344   2.444   4.198
 2893TIP3    H2 8644   5.211   2.372   4.196
 2894TIP3   OH2 8645   5.347   4.365   3.828
 2894TIP3    H1 8646   5.436   4.394   3.807
 2894TIP3    H2 8647   5.291   4.418   3.772
 2895TIP3   OH2 8648   4.598   4.880   1.025
 2895TIP3    H1 8649   4.606   4.832   0.943
 2895TIP3    H2 8650   4.610   4.814   1.093
 2896TIP3   OH2 8651   1.496   5.462   3.399
 2896TIP3    H1 8652   1.487   5.368   3.418
 2896TIP3    H2 8653   1.410   5.499   3.421
 2897TIP3   OH2 8654   0.289   5.520   0.754
 2897TIP3    H1 8655   0.225   5.494   0.819
 2897TIP3    H2 8656   0.362   5.555   0.804
 2898TIP3   OH2 8657   3.065   1.106   4.459
 2898TIP3    H1 8658   3.128   1.081   4.527
 2898TIP3    H2 8659   3.118   1.132   4.384
 2899TIP3   OH2 8660   4.121   1.285   3.365
 2899TIP3    H1 8661   4.061   1.260   3.294
 2899TIP3    H2 8662   4.199   1.317   3.319
 2900TIP3   OH2 8663   6.569   1.000   3.380
 2900TIP3    H1 8664   6.635   1.011   3.311
 2900TIP3    H2 8665   6.620   0.981   3.458
 2901TIP3   OH2 8666   3.358   6.149   0.141
 2901TIP3    H1 8667   3.380   6.113   0.227
 2901TIP3    H2 8668   3.377   6.243   0.149
 2902TIP3   OH2 8669   3.112   5.557   4.645
 2902TIP3    H1 8670   3.202   5.528   4.629
 2902TIP3    H2 8671   3.060   5.509   4.580
 2903TIP3   OH2 8672   5.094   0.244   3.086
 2903TIP3    H1 8673   5.081   0.315   3.148
 2903TIP3    H2 8674   5.183   0.257   3.052
 2904TIP3   OH2 8675   5.090   3.984   1.709
 2904TIP3    H1 8676   4.997   4.003   1.707
 2904TIP3    H2 8677   5.098   3.896   1.672
 2905TIP3   OH2 8678   0.214   2.405   4.726
 2905TIP3    H1 8679   0.244   2.494   4.706
 2905TIP3    H2 8680   0.119   2.413   4.735
 2906TIP3   OH2 8681   3.504   5.719   1.337
 2906TIP3    H1 8682   3.499   5.623   1.333
 2906TIP3    H2 8683   3.420   5.749   1.303
 2907TIP3   OH2 8684   2.053   0.515   5.786
 2907TIP3    H1 8685   2.016   0.603   5.777
 2907TIP3    H2 8686   2.120   0.523   5.853
 2908TIP3   OH2 8687   1.431   3.793   4.511
 2908TIP3    H1 8688   1.412   3.840   4.593
 2908TIP3    H2 8689   1.350   3.747   4.490
 2909TIP3   OH2 8690   3.201   6.118   0.706
 2909TIP3    H1 8691   3.118   6.125   0.754
 2909TIP3    H2 8692   3.192   6.179   0.633
 2910TIP3   OH2 8693   1.431   1.804   0.236
 2910TIP3    H1 8694   1.416   1.778   0.327
 2910TIP3    H2 8695   1.407   1.896   0.232
 2911TIP3   OH2 8696   0.253   5.773   3.784
 2911TIP3    H1 8697   0.305   5.847   3.750
 2911TIP3    H2 8698   0.227   5.801   3.872
 2912TIP3   OH2 8699   4.228   6.529   2.404
 2912TIP3    H1 8700   4.256   6.548   2.314
 2912TIP3    H2 8701   4.133   6.531   2.401
 2913TIP3   OH2 8702   3.566   4.503   4.801
 2913TIP3    H1 8703   3.498   4.459   4.750
 2913TIP3    H2 8704   3.554   4.596   4.781
 2914TIP3   OH2 8705   2.745   3.368   0.708
 2914TIP3    H1 8706   2.776   3.364   0.799
 2914TIP3    H2 8707   2.684   3.294   0.701
 2915TIP3   OH2 8708   6.745   1.587   2.612
 2915TIP3    H1 8709   6.756   1.611   2.520
 2915TIP3    H2 8710   6.808   1.516   2.626
 2916TIP3   OH2 8711   5.890   2.964   4.923
 2916TIP3    H1 8712   5.912   2.871   4.935
 2916TIP3    H2 8713   5.847   2.968   4.838
 2917TIP3   OH2 8714   5.495   0.917   1.321
 2917TIP3    H1 8715   5.480   0.993   1.378
 2917TIP3    H2 8716   5.543   0.855   1.376
 2918TIP3   OH2 8717   6.129   4.548   4.878
 2918TIP3    H1 8718   6.058   4.485   4.864
 2918TIP3    H2 8719   6.172   4.555   4.793
 2919TIP3   OH2 8720   0.313   1.004   3.448
 2919TIP3    H1 8721   0.240   1.002   3.510
 2919TIP3    H2 8722   0.389   0.976   3.500
 2920TIP3   OH2 8723   3.401   1.548   5.118
 2920TIP3    H1 8724   3.336   1.512   5.057
 2920TIP3    H2 8725   3.402   1.642   5.101
 2921TIP3   OH2 8726   1.012   2.619   5.484
 2921TIP3    H1 8727   0.997   2.536   5.529
 2921TIP3    H2 8728   1.073   2.666   5.541
 2922TIP3   OH2 8729   4.808   0.909   2.831
 2922TIP3    H1 8730   4.822   0.832   2.776
 2922TIP3    H2 8731   4.878   0.906   2.896
 2923TIP3   OH2 8732   5.979   4.451   1.878
 2923TIP3    H1 8733   6.056   4.496   1.912
 2923TIP3    H2 8734   5.954   4.390   1.947
 2924TIP3   OH2 8735   6.344   0.092   1.744
 2924TIP3    H1 8736   6.314   0.146   1.817
 2924TIP3    H2 8737   6.423   0.136   1.712
 2925TIP3   OH2 8738   2.306   4.777   4.404
 2925TIP3    H1 8739   2.211   4.779   4.403
 2925TIP3    H2 8740   2.332   4.857   4.357
 2926TIP3   OH2 8741   6.919   1.288   5.371
 2926TIP3    H1 8742   6.882   1.368   5.409
 2926TIP3    H2 8743   6.962   1.244   5.445
 2927TIP3   OH2 8744   2.033   3.324   4.636
 2927TIP3    H1 8745   2.000   3.409   4.666
 2927TIP3    H2 8746   1.956   3.280   4.600
 2928TIP3   OH2 8747   6.242   3.215   3.038
 2928TIP3    H1 8748   6.179   3.146   3.016
 2928TIP3    H2 8749   6.269   3.251   2.954
 2929TIP3   OH2 8750   6.902   0.526   4.247
 2929TIP3    H1 8751   6.879   0.560   4.160
 2929TIP3    H2 8752   6.828   0.470   4.271
 2930TIP3   OH2 8753   6.793   5.404   5.033
 2930TIP3    H1 8754   6.854   5.477   5.020
 2930TIP3    H2 8755   6.710   5.436   4.997
 2931TIP3   OH2 8756   3.170   0.500   5.352
 2931TIP3    H1 8757   3.218   0.583   5.352
 2931TIP3    H2 8758   3.163   0.476   5.444
 2932TIP3   OH2 8759   4.010   0.852   1.861
 2932TIP3    H1 8760   3.987   0.937   1.824
 2932TIP3    H2 8761   4.080   0.819   1.805
 2933TIP3   OH2 8762   2.192   5.897   0.261
 2933TIP3    H1 8763   2.246   5.962   0.217
 2933TIP3    H2 8764   2.123   5.876   0.198
 2934TIP3   OH2 8765   5.666   1.861   1.615
 2934TIP3    H1 8766   5.689   1.779   1.658
 2934TIP3    H2 8767   5.583   1.843   1.571
 2935TIP3   OH2 8768   1.163   0.684   0.415
 2935TIP3    H1 8769   1.157   0.775   0.387
 2935TIP3    H2 8770   1.257   0.669   0.426
 2936TIP3   OH2 8771   3.743   0.552   4.033
 2936TIP3    H1 8772   3.798   0.614   3.984
 2936TIP3    H2 8773   3.709   0.492   3.966
 2937TIP3   OH2 8774   6.814   0.587   3.243
 2937TIP3    H1 8775   6.826   0.681   3.253
 2937TIP3    H2 8776   6.883   0.548   3.296
 2938TIP3   OH2 8777   3.112   3.646   4.609
 2938TIP3    H1 8778   3.198   3.605   4.610
 2938TIP3    H2 8779   3.051   3.573   4.619
 2939TIP3   OH2 8780   2.106   2.811   3.158
 2939TIP3    H1 8781   2.104   2.845   3.248
 2939TIP3    H2 8782   2.021   2.836   3.122
 2940TIP3   OH2 8783   4.072   6.068   4.045
 2940TIP3    H1 8784   4.072   6.111   4.130
 2940TIP3    H2 8785   4.010   6.118   3.992
 2941TIP3   OH2 8786   5.581   2.541   5.056
 2941TIP3    H1 8787   5.660   2.564   5.105
 2941TIP3    H2 8788   5.512   2.594   5.095
 2942TIP3   OH2 8789   0.253   6.214   0.230
 2942TIP3    H1 8790   0.223   6.130   0.262
 2942TIP3    H2 8791   0.231   6.276   0.300
 2943TIP3   OH2 8792   2.568   5.298   3.837
 2943TIP3    H1 8793   2.475   5.286   3.816
 2943TIP3    H2 8794   2.586   5.231   3.903
 2944TIP3   OH2 8795   5.824   4.244   5.583
 2944TIP3    H1 8796   5.872   4.209   5.509
 2944TIP3    H2 8797   5.858   4.333   5.594
 2945TIP3   OH2 8798   6.065   5.628   1.858
 2945TIP3    H1 8799   6.100   5.542   1.877
 2945TIP3    H2 8800   5.980   5.611   1.816
 2946TIP3   OH2 8801   6.465   2.766   3.576
 2946TIP3    H1 8802   6.445   2.689   3.523
 2946TIP3    H2 8803   6.536   2.810   3.529
 2947TIP3   OH2 8804   1.833   3.138   4.511
 2947TIP3    H1 8805   1.766   3.160   4.576
 2947TIP3    H2 8806   1.788   3.146   4.426
 2948TIP3   OH2 8807   0.995   6.090   4.455
 2948TIP3    H1 8808   1.069   6.038   4.487
 2948TIP3    H2 8809   0.921   6.029   4.455
 2949TIP3   OH2 8810   6.079   4.731   2.865
 2949TIP3    H1 8811   6.107   4.702   2.952
 2949TIP3    H2 8812   5.988   4.756   2.876
 2950TIP3   OH2 8813   2.160   3.120   4.036
 2950TIP3    H1 8814   2.162   3.184   4.108
 2950TIP3    H2 8815   2.069   3.088   4.036
 2951TIP3   OH2 8816   5.668   4.845   3.997
 2951TIP3    H1 8817   5.734   4.830   3.930
 2951TIP3    H2 8818   5.716   4.890   4.068
 2952TIP3   OH2 8819   1.879   0.199   2.892
 2952TIP3    H1 8820   1.800   0.189   2.840
 2952TIP3    H2 8821   1.941   0.136   2.856
 2953TIP3   OH2 8822   7.194   6.580   1.008
 2953TIP3    H1 8823   7.222   6.665   1.043
 2953TIP3    H2 8824   7.155   6.601   0.923
 2954TIP3   OH2 8825   1.758   4.969   2.186
 2954TIP3    H1 8826   1.689   5.003   2.130
 2954TIP3    H2 8827   1.797   4.898   2.135
 2955TIP3   OH2 8828   5.675   2.797   5.610
 2955TIP3    H1 8829   5.611   2.734   5.578
 2955TIP3    H2 8830   5.701   2.847   5.533
 2956TIP3   OH2 8831   1.247   3.496   1.240
 2956TIP3    H1 8832   1.208   3.409   1.247
 2956TIP3    H2 8833   1.171   3.556   1.241
 2957TIP3   OH2 8834   3.058   2.234   0.542
 2957TIP3    H1 8835   2.973   2.259   0.577
 2957TIP3    H2 8836   3.060   2.139   0.548
 2958TIP3   OH2 8837   6.440   2.863   1.440
 2958TIP3    H1 8838   6.451   2.957   1.457
 2958TIP3    H2 8839   6.376   2.860   1.369
 2959TIP3   OH2 8840   6.478   1.962   3.484
 2959TIP3    H1 8841   6.458   2.045   3.528
 2959TIP3    H2 8842   6.434   1.896   3.538
 2960TIP3   OH2 8843   6.052   6.284   1.360
 2960TIP3    H1 8844   6.028   6.372   1.331
 2960TIP3    H2 8845   6.022   6.226   1.291
 2961TIP3   OH2 8846   0.836   6.185   5.697
 2961TIP3    H1 8847   0.893   6.175   5.773
 2961TIP3    H2 8848   0.813   6.095   5.673
 2962TIP3   OH2 8849   6.141   1.495   0.355
 2962TIP3    H1 8850   6.196   1.420   0.378
 2962TIP3    H2 8851   6.199   1.557   0.312
 2963TIP3   OH2 8852   4.011   1.659   4.818
 2963TIP3    H1 8853   4.099   1.628   4.842
 2963TIP3    H2 8854   3.972   1.686   4.901
 2964TIP3   OH2 8855   6.481   6.493   0.837
 2964TIP3    H1 8856   6.537   6.535   0.772
 2964TIP3    H2 8857   6.393   6.527   0.818
 2965TIP3   OH2 8858   4.042   1.342   3.612
 2965TIP3    H1 8859   3.979   1.407   3.580
 2965TIP3    H2 8860   4.092   1.316   3.534
 2966TIP3   OH2 8861   6.589   1.195   1.347
 2966TIP3    H1 8862   6.615   1.285   1.366
 2966TIP3    H2 8863   6.537   1.202   1.267
 2967TIP3   OH2 8864   7.121   3.106   0.249
 2967TIP3    H1 8865   7.123   3.027   0.302
 2967TIP3    H2 8866   7.199   3.099   0.193
 2968TIP3   OH2 8867   1.924   3.377   5.639
 2968TIP3    H1 8868   1.989   3.310   5.664
 2968TIP3    H2 8869   1.973   3.459   5.641
 2969TIP3   OH2 8870   5.106   3.438   3.470
 2969TIP3    H1 8871   5.113   3.412   3.378
 2969TIP3    H2 8872   5.093   3.533   3.467
 2970TIP3   OH2 8873   1.901   2.694   4.201
 2970TIP3    H1 8874   1.991   2.668   4.219
 2970TIP3    H2 8875   1.909   2.762   4.134
 2971TIP3   OH2 8876   5.387   2.708   5.204
 2971TIP3    H1 8877   5.415   2.779   5.147
 2971TIP3    H2 8878   5.298   2.733   5.232
 2972TIP3   OH2 8879   0.618   5.359   3.165
 2972TIP3    H1 8880   0.549   5.305   3.204
 2972TIP3    H2 8881   0.592   5.449   3.184
 2973TIP3   OH2 8882   4.876   4.593   0.397
 2973TIP3    H1 8883   4.793   4.573   0.355
 2973TIP3    H2 8884   4.910   4.507   0.423
 2974TIP3   OH2 8885   2.587   0.830   1.374
 2974TIP3    H1 8886   2.659   0.846   1.435
 2974TIP3    H2 8887   2.630   0.798   1.295
 2975TIP3   OH2 8888   1.503   5.069   5.815
 2975TIP3    H1 8889   1.540   5.156   5.800
 2975TIP3    H2 8890   1.539   5.014   5.746
 2976TIP3   OH2 8891   6.128   6.269   0.414
 2976TIP3    H1 8892   6.191   6.341   0.416
 2976TIP3    H2 8893   6.155   6.212   0.485
 2977TIP3   OH2 8894   2.708   4.432   4.828
 2977TIP3    H1 8895   2.683   4.426   4.920
 2977TIP3    H2 8896   2.653   4.502   4.793
 2978TIP3   OH2 8897   4.551   6.428   3.149
 2978TIP3    H1 8898   4.579   6.354   3.204
 2978TIP3    H2 8899   4.533   6.498   3.211
 2979TIP3   OH2 8900   0.500   0.057   1.862
 2979TIP3    H1 8901   0.552   0.112   1.921
 2979TIP3    H2 8902   0.545  -0.027   1.860
 2980TIP3   OH2 8903   6.502   2.448   1.664
 2980TIP3    H1 8904   6.451   2.479   1.738
 2980TIP3    H2 8905   6.591   2.437   1.699
 2981TIP3   OH2 8906   7.071   4.813   4.109
 2981TIP3    H1 8907   7.051   4.903   4.132
 2981TIP3    H2 8908   7.007   4.790   4.042
 2982TIP3   OH2 8909   2.426   0.016   2.955
 2982TIP3    H1 8910   2.421   0.107   2.925
 2982TIP3    H2 8911   2.370   0.013   3.033
 2983TIP3   OH2 8912   1.138   1.288   2.968
 2983TIP3    H1 8913   1.091   1.372   2.971
 2983TIP3    H2 8914   1.156   1.274   2.875
 2984TIP3   OH2 8915   6.012   6.220   4.702
 2984TIP3    H1 8916   5.943   6.192   4.641
 2984TIP3    H2 8917   5.991   6.312   4.722
 2985TIP3   OH2 8918   5.582   5.785   0.649
 2985TIP3    H1 8919   5.515   5.754   0.710
 2985TIP3    H2 8920   5.655   5.811   0.705
 2986TIP3   OH2 8921   3.272   3.150   5.962
 2986TIP3    H1 8922   3.184   3.147   5.924
 2986TIP3    H2 8923   3.322   3.205   5.902
 2987TIP3   OH2 8924   1.211   6.623   2.236
 2987TIP3    H1 8925   1.162   6.685   2.182
 2987TIP3    H2 8926   1.293   6.668   2.255
 2988TIP3   OH2 8927   4.664   1.694   5.464
 2988TIP3    H1 8928   4.644   1.776   5.419
 2988TIP3    H2 8929   4.731   1.653   5.409
 2989TIP3   OH2 8930   2.476   4.523   3.882
 2989TIP3    H1 8931   2.403   4.462   3.870
 2989TIP3    H2 8932   2.521   4.523   3.797
 2990TIP3   OH2 8933   6.122   5.449   1.651
 2990TIP3    H1 8934   6.096   5.372   1.600
 2990TIP3    H2 8935   6.059   5.517   1.627
 2991TIP3   OH2 8936   6.238   0.422   1.002
 2991TIP3    H1 8937   6.263   0.437   0.911
 2991TIP3    H2 8938   6.295   0.479   1.053
 2992TIP3   OH2 8939   6.607   4.310   4.324
 2992TIP3    H1 8940   6.574   4.304   4.413
 2992TIP3    H2 8941   6.701   4.324   4.334
 2993TIP3   OH2 8942   5.677   2.401   3.158
 2993TIP3    H1 8943   5.584   2.403   3.132
 2993TIP3    H2 8944   5.678   2.353   3.240
 2994TIP3   OH2 8945   3.424   3.744   3.095
 2994TIP3    H1 8946   3.409   3.753   3.001
 2994TIP3    H2 8947   3.424   3.834   3.128
 2995TIP3   OH2 8948   3.123   2.477   3.825
 2995TIP3    H1 8949   3.202   2.423   3.831
 2995TIP3    H2 8950   3.067   2.445   3.896
 2996TIP3   OH2 8951   2.127   1.467   3.721
 2996TIP3    H1 8952   2.197   1.420   3.767
 2996TIP3    H2 8953   2.053   1.467   3.782
 2997TIP3   OH2 8954   3.802   3.910   5.819
 2997TIP3    H1 8955   3.889   3.940   5.844
 2997TIP3    H2 8956   3.751   3.915   5.900
 2998TIP3   OH2 8957   2.430   1.838   2.873
 2998TIP3    H1 8958   2.347   1.880   2.849
 2998TIP3    H2 8959   2.476   1.904   2.925
 2999TIP3   OH2 8960   2.871   1.411   1.032
 2999TIP3    H1 8961   2.959   1.393   1.065
 2999TIP3    H2 8962   2.875   1.390   0.939
 3000TIP3   OH2 8963   6.127   6.468   4.867
 3000TIP3    H1 8964   6.083   6.516   4.938
 3000TIP3    H2 8965   6.212   6.444   4.904
 3001TIP3   OH2 8966   4.261   3.575   1.371
 3001TIP3    H1 8967   4.177   3.620   1.359
 3001TIP3    H2 8968   4.320   3.619   1.310
 3002TIP3   OH2 8969   1.899   2.716   2.615
 3002TIP3    H1 8970   1.862   2.633   2.646
 3002TIP3    H2 8971   1.854   2.732   2.532
 3003TIP3   OH2 8972   0.601   4.853   4.274
 3003TIP3    H1 8973   0.559   4.829   4.357
 3003TIP3    H2 8974   0.564   4.938   4.252
 3004TIP3   OH2 8975   2.628   2.116   5.079
 3004TIP3    H1 8976   2.599   2.088   5.165
 3004TIP3    H2 8977   2.569   2.188   5.056
 3005TIP3   OH2 8978   6.712   2.978   5.328
 3005TIP3    H1 8979   6.797   2.944   5.298
 3005TIP3    H2 8980   6.653   2.962   5.254
 3006TIP3   OH2 8981   7.104   3.732   4.358
 3006TIP3    H1 8982   7.138   3.658   4.306
 3006TIP3    H2 8983   7.112   3.702   4.449
 3007TIP3   OH2 8984   1.139   0.784   2.072
 3007TIP3    H1 8985   1.160   0.770   1.980
 3007TIP3    H2 8986   1.177   0.708   2.117
 3008TIP3   OH2 8987   6.495   0.911   1.417
 3008TIP3    H1 8988   6.453   0.833   1.454
 3008TIP3    H2 8989   6.448   0.927   1.336
 3009TIP3   OH2 8990   5.111   4.936   1.839
 3009TIP3    H1 8991   5.075   4.985   1.913
 3009TIP3    H2 8992   5.195   4.977   1.822
 3010TIP3   OH2 8993   4.340   2.822   1.348
 3010TIP3    H1 8994   4.349   2.894   1.411
 3010TIP3    H2 8995   4.323   2.866   1.265
 3011TIP3   OH2 8996   2.206   6.236   2.216
 3011TIP3    H1 8997   2.180   6.246   2.124
 3011TIP3    H2 8998   2.222   6.325   2.246
 3012TIP3   OH2 8999   6.743   3.064   1.688
 3012TIP3    H1 9000   6.781   3.036   1.604
 3012TIP3    H2 9001   6.786   3.009   1.753
 3013TIP3   OH2 9002   4.493   0.961   4.384
 3013TIP3    H1 9003   4.565   0.904   4.411
 3013TIP3    H2 9004   4.431   0.958   4.457
 3014TIP3   OH2 9005   6.923   3.414   3.409
 3014TIP3    H1 9006   6.903   3.507   3.396
 3014TIP3    H2 9007   7.018   3.410   3.410
 3015TIP3   OH2 9008   1.539   0.380   4.480
 3015TIP3    H1 9009   1.471   0.434   4.439
 3015TIP3    H2 9010   1.538   0.298   4.430
 3016TIP3   OH2 9011   5.348   6.227   0.648
 3016TIP3    H1 9012   5.306   6.281   0.581
 3016TIP3    H2 9013   5.344   6.280   0.728
 3017TIP3   OH2 9014   6.060   4.340   3.755
 3017TIP3    H1 9015   6.104   4.409   3.705
 3017TIP3    H2 9016   6.125   4.270   3.761
 3018TIP3   OH2 9017   3.279   5.797   5.718
 3018TIP3    H1 9018   3.350   5.750   5.762
 3018TIP3    H2 9019   3.322   5.842   5.645
 3019TIP3   OH2 9020   6.598   5.467   3.640
 3019TIP3    H1 9021   6.589   5.448   3.734
 3019TIP3    H2 9022   6.524   5.524   3.620
 3020TIP3   OH2 9023   6.273   4.608   3.033
 3020TIP3    H1 9024   6.309   4.532   3.079
 3020TIP3    H2 9025   6.247   4.574   2.947
 3021TIP3   OH2 9026   3.850   6.009   4.957
 3021TIP3    H1 9027   3.900   5.953   4.897
 3021TIP3    H2 9028   3.759   5.987   4.939
 3022TIP3   OH2 9029   3.826   3.761   4.037
 3022TIP3    H1 9030   3.802   3.838   4.088
 3022TIP3    H2 9031   3.819   3.688   4.099
 3023TIP3   OH2 9032   0.499   5.173   3.762
 3023TIP3    H1 9033   0.463   5.181   3.850
 3023TIP3    H2 9034   0.491   5.080   3.742
 3024TIP3   OH2 9035   4.019   4.714   1.174
 3024TIP3    H1 9036   3.931   4.747   1.155
 3024TIP3    H2 9037   4.071   4.793   1.188
 3025TIP3   OH2 9038   5.540   1.090   3.103
 3025TIP3    H1 9039   5.536   1.001   3.137
 3025TIP3    H2 9040   5.617   1.090   3.047
 3026TIP3   OH2 9041   0.871   4.472   0.393
 3026TIP3    H1 9042   0.784   4.446   0.424
 3026TIP3    H2 9043   0.913   4.511   0.470
 3027TIP3   OH2 9044   1.576   2.142   1.941
 3027TIP3    H1 9045   1.657   2.190   1.958
 3027TIP3    H2 9046   1.507   2.200   1.972
 3028TIP3   OH2 9047   5.191   1.057   2.464
 3028TIP3    H1 9048   5.269   1.112   2.456
 3028TIP3    H2 9049   5.225   0.968   2.473
 3029TIP3   OH2 9050   3.777   3.226   2.844
 3029TIP3    H1 9051   3.718   3.287   2.798
 3029TIP3    H2 9052   3.781   3.261   2.933
 3030TIP3   OH2 9053   1.964   2.918   4.575
 3030TIP3    H1 9054   1.912   2.845   4.542
 3030TIP3    H2 9055   1.911   2.996   4.558
 3031TIP3   OH2 9056   7.022   2.219   2.458
 3031TIP3    H1 9057   7.055   2.245   2.545
 3031TIP3    H2 9058   6.972   2.140   2.474
 3032TIP3   OH2 9059   6.171   2.621   3.686
 3032TIP3    H1 9060   6.143   2.647   3.599
 3032TIP3    H2 9061   6.145   2.693   3.743
 3033TIP3   OH2 9062   4.309   0.727   3.089
 3033TIP3    H1 9063   4.309   0.804   3.144
 3033TIP3    H2 9064   4.236   0.740   3.028
 3034TIP3   OH2 9065   0.816   5.069   5.764
 3034TIP3    H1 9066   0.723   5.063   5.788
 3034TIP3    H2 9067   0.823   5.155   5.723
 3035TIP3   OH2 9068   4.971   0.660   4.461
 3035TIP3    H1 9069   4.948   0.748   4.490
 3035TIP3    H2 9070   4.892   0.608   4.476
 3036TIP3   OH2 9071  -0.038   0.148   1.802
 3036TIP3    H1 9072  -0.061   0.102   1.721
 3036TIP3    H2 9073   0.054   0.126   1.817
 3037TIP3   OH2 9074   4.834   6.007   4.225
 3037TIP3    H1 9075   4.752   6.002   4.275
 3037TIP3    H2 9076   4.880   5.926   4.247
 3038TIP3   OH2 9077   0.814   1.699   5.895
 3038TIP3    H1 9078   0.741   1.656   5.851
 3038TIP3    H2 9079   0.799   1.792   5.881
 3039TIP3   OH2 9080   5.937   0.896   1.465
 3039TIP3    H1 9081   5.999   0.907   1.392
 3039TIP3    H2 9082   5.916   0.985   1.492
 3040TIP3   OH2 9083   1.504   5.711   3.104
 3040TIP3    H1 9084   1.491   5.641   3.168
 3040TIP3    H2 9085   1.494   5.668   3.019
 3041TIP3   OH2 9086   3.273   0.144   3.952
 3041TIP3    H1 9087   3.333   0.121   3.881
 3041TIP3    H2 9088   3.246   0.060   3.989
 3042TIP3   OH2 9089   6.160   0.777   0.959
 3042TIP3    H1 9090   6.148   0.710   0.891
 3042TIP3    H2 9091   6.073   0.816   0.969
 3043TIP3   OH2 9092   6.521   6.248   2.043
 3043TIP3    H1 9093   6.512   6.173   1.985
 3043TIP3    H2 9094   6.483   6.219   2.126
 3044TIP3   OH2 9095   0.105   2.969   5.748
 3044TIP3    H1 9096   0.024   2.969   5.697
 3044TIP3    H2 9097   0.141   3.057   5.736
 3045TIP3   OH2 9098   1.227   0.913   3.839
 3045TIP3    H1 9099   1.138   0.920   3.874
 3045TIP3    H2 9100   1.259   0.829   3.871
 3046TIP3   OH2 9101   7.175   2.711   2.866
 3046TIP3    H1 9102   7.242   2.729   2.932
 3046TIP3    H2 9103   7.108   2.661   2.913
 3047TIP3   OH2 9104   1.461   5.183   0.101
 3047TIP3    H1 9105   1.412   5.149   0.026
 3047TIP3    H2 9106   1.399   5.242   0.145
 3048TIP3   OH2 9107   4.238   3.241   2.392
 3048TIP3    H1 9108   4.331   3.236   2.372
 3048TIP3    H2 9109   4.210   3.150   2.398
 3049TIP3   OH2 9110   1.571   6.139   1.652
 3049TIP3    H1 9111   1.491   6.157   1.701
 3049TIP3    H2 9112   1.620   6.079   1.707
 3050TIP3   OH2 9113   1.086   5.117   2.972
 3050TIP3    H1 9114   1.050   5.137   2.885
 3050TIP3    H2 9115   1.047   5.181   3.030
 3051TIP3   OH2 9116   3.670   1.593   2.247
 3051TIP3    H1 9117   3.649   1.501   2.261
 3051TIP3    H2 9118   3.614   1.619   2.173
 3052TIP3   OH2 9119   6.809   2.679   3.012
 3052TIP3    H1 9120   6.748   2.622   3.058
 3052TIP3    H2 9121   6.891   2.631   3.010
 3053TIP3   OH2 9122   6.548   3.859   1.180
 3053TIP3    H1 9123   6.519   3.948   1.197
 3053TIP3    H2 9124   6.470   3.805   1.196
 3054TIP3   OH2 9125   1.227   5.512   2.738
 3054TIP3    H1 9126   1.218   5.419   2.757
 3054TIP3    H2 9127   1.142   5.538   2.703
 3055TIP3   OH2 9128   5.073   4.520   2.556
 3055TIP3    H1 9129   5.167   4.509   2.575
 3055TIP3    H2 9130   5.071   4.553   2.466
 3056TIP3   OH2 9131   3.084   5.103   3.147
 3056TIP3    H1 9132   3.094   5.017   3.105
 3056TIP3    H2 9133   3.000   5.135   3.115
 3057TIP3   OH2 9134   0.230   1.095   4.257
 3057TIP3    H1 9135   0.210   1.017   4.205
 3057TIP3    H2 9136   0.324   1.110   4.243
 3058TIP3   OH2 9137   0.403   5.058   5.361
 3058TIP3    H1 9138   0.362   5.144   5.351
 3058TIP3    H2 9139   0.427   5.054   5.454
 3059TIP3   OH2 9140   0.530   3.247   3.733
 3059TIP3    H1 9141   0.612   3.211   3.698
 3059TIP3    H2 9142   0.521   3.206   3.819
 3060TIP3   OH2 9143   2.148   5.708   2.579
 3060TIP3    H1 9144   2.151   5.621   2.619
 3060TIP3    H2 9145   2.230   5.714   2.529
 3061TIP3   OH2 9146   3.618   1.089   5.692
 3061TIP3    H1 9147   3.690   1.026   5.694
 3061TIP3    H2 9148   3.653   1.165   5.739
 3062TIP3   OH2 9149   4.850   2.915   1.648
 3062TIP3    H1 9150   4.792   2.948   1.716
 3062TIP3    H2 9151   4.797   2.851   1.600
 3063TIP3   OH2 9152   3.256   0.889   2.784
 3063TIP3    H1 9153   3.330   0.918   2.838
 3063TIP3    H2 9154   3.225   0.809   2.828
 3064TIP3   OH2 9155   5.585   4.900   2.026
 3064TIP3    H1 9156   5.586   4.992   1.999
 3064TIP3    H2 9157   5.536   4.899   2.108
 3065TIP3   OH2 9158   2.183   4.443   5.044
 3065TIP3    H1 9159   2.254   4.498   5.011
 3065TIP3    H2 9160   2.114   4.505   5.066
 3066TIP3   OH2 9161   1.047   4.099   4.823
 3066TIP3    H1 9162   1.053   4.031   4.891
 3066TIP3    H2 9163   0.979   4.067   4.764
 3067TIP3   OH2 9164   0.816   3.345   4.707
 3067TIP3    H1 9165   0.744   3.305   4.755
 3067TIP3    H2 9166   0.779   3.424   4.669
 3068TIP3   OH2 9167   3.638   4.545   1.061
 3068TIP3    H1 9168   3.653   4.532   1.155
 3068TIP3    H2 9169   3.547   4.574   1.055
 3069TIP3   OH2 9170   7.202   3.968   1.499
 3069TIP3    H1 9171   7.154   4.023   1.436
 3069TIP3    H2 9172   7.139   3.949   1.568
 3070TIP3   OH2 9173   3.355   3.771   1.614
 3070TIP3    H1 9174   3.415   3.841   1.589
 3070TIP3    H2 9175   3.312   3.746   1.532
 3071TIP3   OH2 9176   0.307   5.627   2.777
 3071TIP3    H1 9177   0.373   5.643   2.710
 3071TIP3    H2 9178   0.349   5.651   2.859
 3072TIP3   OH2 9179   0.414   0.343   4.790
 3072TIP3    H1 9180   0.356   0.273   4.759
 3072TIP3    H2 9181   0.446   0.384   4.710
 3073TIP3   OH2 9182   3.537   2.158   2.762
 3073TIP3    H1 9183   3.479   2.084   2.779
 3073TIP3    H2 9184   3.590   2.131   2.688
 3074TIP3   OH2 9185   5.290   0.529   5.235
 3074TIP3    H1 9186   5.210   0.576   5.257
 3074TIP3    H2 9187   5.357   0.597   5.227
 3075TIP3   OH2 9188   2.848   2.339   2.043
 3075TIP3    H1 9189   2.909   2.307   2.109
 3075TIP3    H2 9190   2.883   2.305   1.960
 3076TIP3   OH2 9191   5.033   6.257   0.834
 3076TIP3    H1 9192   5.092   6.205   0.888
 3076TIP3    H2 9193   4.946   6.219   0.849
 3077TIP3   OH2 9194   3.492   6.635   3.472
 3077TIP3    H1 9195   3.473   6.641   3.565
 3077TIP3    H2 9196   3.586   6.650   3.466
 3078TIP3   OH2 9197   6.610   1.647   4.254
 3078TIP3    H1 9198   6.562   1.619   4.176
 3078TIP3    H2 9199   6.607   1.743   4.251
 3079TIP3   OH2 9200   0.787   2.046   4.519
 3079TIP3    H1 9201   0.735   2.008   4.448
 3079TIP3    H2 9202   0.870   2.069   4.478
 3080TIP3   OH2 9203   5.334   0.727   1.839
 3080TIP3    H1 9204   5.343   0.683   1.923
 3080TIP3    H2 9205   5.378   0.811   1.852
 3081TIP3   OH2 9206   0.436   6.793   1.031
 3081TIP3    H1 9207   0.474   6.769   0.946
 3081TIP3    H2 9208   0.509   6.828   1.081
 3082TIP3   OH2 9209   3.246   5.014   2.420
 3082TIP3    H1 9210   3.226   5.082   2.483
 3082TIP3    H2 9211   3.180   5.024   2.351
 3083TIP3   OH2 9212   1.099   4.676   4.554
 3083TIP3    H1 9213   1.143   4.678   4.639
 3083TIP3    H2 9214   1.070   4.585   4.544
 3084TIP3   OH2 9215   0.386   1.225   3.966
 3084TIP3    H1 9216   0.454   1.271   3.918
 3084TIP3    H2 9217   0.319   1.291   3.984
 3085TIP3   OH2 9218   4.012   6.678   0.802
 3085TIP3    H1 9219   3.927   6.720   0.794
 3085TIP3    H2 9220   4.054   6.725   0.875
 3086TIP3   OH2 9221   2.865   5.096   1.557
 3086TIP3    H1 9222   2.859   5.004   1.529
 3086TIP3    H2 9223   2.957   5.107   1.580
 3087TIP3   OH2 9224   2.543   5.518   4.853
 3087TIP3    H1 9225   2.540   5.554   4.942
 3087TIP3    H2 9226   2.545   5.595   4.797
 3088TIP3   OH2 9227   6.906   1.222   3.771
 3088TIP3    H1 9228   6.905   1.316   3.789
 3088TIP3    H2 9229   6.973   1.187   3.830
 3089TIP3   OH2 9230   3.015   2.045   5.841
 3089TIP3    H1 9231   3.044   2.126   5.798
 3089TIP3    H2 9232   3.084   1.982   5.823
 3090TIP3   OH2 9233   5.595   5.891   1.149
 3090TIP3    H1 9234   5.659   5.900   1.219
 3090TIP3    H2 9235   5.534   5.824   1.180
 3091TIP3   OH2 9236   4.087   0.750   1.623
 3091TIP3    H1 9237   4.036   0.672   1.645
 3091TIP3    H2 9238   4.023   0.812   1.588
 3092TIP3   OH2 9239   6.123   0.868   5.232
 3092TIP3    H1 9240   6.191   0.874   5.165
 3092TIP3    H2 9241   6.045   0.904   5.191
 3093TIP3   OH2 9242   2.714   0.142   1.346
 3093TIP3    H1 9243   2.656   0.113   1.276
 3093TIP3    H2 9244   2.775   0.202   1.304
 3094TIP3   OH2 9245   6.642   0.141   5.611
 3094TIP3    H1 9246   6.594   0.223   5.618
 3094TIP3    H2 9247   6.692   0.149   5.530
 3095TIP3   OH2 9248   1.569   4.624   2.015
 3095TIP3    H1 9249   1.638   4.665   1.962
 3095TIP3    H2 9250   1.515   4.696   2.046
 3096TIP3   OH2 9251   0.475   1.965   1.392
 3096TIP3    H1 9252   0.459   1.874   1.417
 3096TIP3    H2 9253   0.536   1.958   1.319
 3097TIP3   OH2 9254   5.166   6.503   5.301
 3097TIP3    H1 9255   5.166   6.569   5.232
 3097TIP3    H2 9256   5.085   6.519   5.349
 3098TIP3   OH2 9257   6.925   0.256   3.975
 3098TIP3    H1 9258   6.900   0.243   4.066
 3098TIP3    H2 9259   6.845   0.243   3.925
 3099TIP3   OH2 9260   2.365   1.086   2.679
 3099TIP3    H1 9261   2.323   1.105   2.596
 3099TIP3    H2 9262   2.455   1.116   2.668
 3100TIP3   OH2 9263   6.836   4.606   4.317
 3100TIP3    H1 9264   6.817   4.523   4.360
 3100TIP3    H2 9265   6.892   4.583   4.243
 3101TIP3   OH2 9266   2.541   5.259   5.332
 3101TIP3    H1 9267   2.502   5.171   5.335
 3101TIP3    H2 9268   2.629   5.246   5.366
 3102TIP3   OH2 9269   0.787   6.233   2.680
 3102TIP3    H1 9270   0.848   6.225   2.754
 3102TIP3    H2 9271   0.806   6.320   2.644
 3103TIP3   OH2 9272   2.057   1.585   3.153
 3103TIP3    H1 9273   2.095   1.548   3.233
 3103TIP3    H2 9274   1.970   1.614   3.180
 3104TIP3   OH2 9275   6.516   0.746   3.871
 3104TIP3    H1 9276   6.611   0.756   3.880
 3104TIP3    H2 9277   6.490   0.692   3.946
 3105TIP3   OH2 9278   0.838   5.954   3.780
 3105TIP3    H1 9279   0.823   5.881   3.840
 3105TIP3    H2 9280   0.758   6.007   3.786
 3106TIP3   OH2 9281   1.876   0.782   3.382
 3106TIP3    H1 9282   1.875   0.772   3.477
 3106TIP3    H2 9283   1.883   0.876   3.368
 3107TIP3   OH2 9284   6.255   2.457   5.068
 3107TIP3    H1 9285   6.278   2.413   5.149
 3107TIP3    H2 9286   6.168   2.494   5.084
 3108TIP3   OH2 9287   4.274   4.429   1.142
 3108TIP3    H1 9288   4.290   4.483   1.065
 3108TIP3    H2 9289   4.360   4.395   1.166
 3109TIP3   OH2 9290   2.994   4.537   5.295
 3109TIP3    H1 9291   3.025   4.591   5.222
 3109TIP3    H2 9292   2.963   4.457   5.254
 3110TIP3   OH2 9293   3.414   5.473   4.603
 3110TIP3    H1 9294   3.361   5.467   4.523
 3110TIP3    H2 9295   3.418   5.384   4.636
 3111TIP3   OH2 9296   6.737   5.814   5.134
 3111TIP3    H1 9297   6.814   5.758   5.137
 3111TIP3    H2 9298   6.733   5.846   5.044
 3112TIP3   OH2 9299   6.155   3.229   1.744
 3112TIP3    H1 9300   6.154   3.295   1.675
 3112TIP3    H2 9301   6.161   3.146   1.698
 3113TIP3   OH2 9302   6.609   6.326   1.020
 3113TIP3    H1 9303   6.567   6.315   1.105
 3113TIP3    H2 9304   6.556   6.392   0.976
 3114TIP3   OH2 9305   6.632   2.895   2.469
 3114TIP3    H1 9306   6.710   2.839   2.465
 3114TIP3    H2 9307   6.605   2.893   2.561
 3115TIP3   OH2 9308   2.149   3.194   0.296
 3115TIP3    H1 9309   2.211   3.195   0.223
 3115TIP3    H2 9310   2.104   3.279   0.290
 3116TIP3   OH2 9311   2.587   5.339   0.593
 3116TIP3    H1 9312   2.592   5.330   0.498
 3116TIP3    H2 9313   2.586   5.249   0.625
 3117TIP3   OH2 9314   3.918   2.038   0.803
 3117TIP3    H1 9315   3.919   2.125   0.843
 3117TIP3    H2 9316   3.855   2.045   0.732
 3118TIP3   OH2 9317   1.032   3.772   4.746
 3118TIP3    H1 9318   1.005   3.772   4.837
 3118TIP3    H2 9319   0.987   3.848   4.708
 3119TIP3   OH2 9320   6.993   2.941   1.517
 3119TIP3    H1 9321   7.061   2.938   1.449
 3119TIP3    H2 9322   7.036   2.980   1.593
 3120TIP3   OH2 9323   4.161   6.305   2.554
 3120TIP3    H1 9324   4.245   6.293   2.598
 3120TIP3    H2 9325   4.184   6.348   2.472
 3121TIP3   OH2 9326   4.568   6.548   0.418
 3121TIP3    H1 9327   4.545   6.501   0.338
 3121TIP3    H2 9328   4.656   6.582   0.402
 3122TIP3   OH2 9329   3.016   3.642   2.379
 3122TIP3    H1 9330   3.031   3.726   2.335
 3122TIP3    H2 9331   2.944   3.660   2.440
 3123TIP3   OH2 9332   3.217   2.641   3.620
 3123TIP3    H1 9333   3.219   2.598   3.706
 3123TIP3    H2 9334   3.293   2.607   3.574
 3124TIP3   OH2 9335   0.578   1.056   2.772
 3124TIP3    H1 9336   0.648   1.063   2.837
 3124TIP3    H2 9337   0.527   1.135   2.784
 3125TIP3   OH2 9338   2.496   5.420   5.676
 3125TIP3    H1 9339   2.416   5.368   5.665
 3125TIP3    H2 9340   2.535   5.422   5.588
 3126TIP3   OH2 9341   6.268   1.228   4.809
 3126TIP3    H1 9342   6.223   1.306   4.778
 3126TIP3    H2 9343   6.361   1.253   4.812
 3127TIP3   OH2 9344   3.153   5.286   1.897
 3127TIP3    H1 9345   3.208   5.213   1.925
 3127TIP3    H2 9346   3.209   5.363   1.904
 3128TIP3   OH2 9347   1.474   4.907   4.819
 3128TIP3    H1 9348   1.458   4.818   4.850
 3128TIP3    H2 9349   1.530   4.946   4.886
 3129TIP3   OH2 9350   1.819   1.006   5.548
 3129TIP3    H1 9351   1.773   1.030   5.468
 3129TIP3    H2 9352   1.750   0.981   5.609
 3130TIP3   OH2 9353   7.190   3.425   4.777
 3130TIP3    H1 9354   7.140   3.500   4.810
 3130TIP3    H2 9355   7.130   3.351   4.783
 3131TIP3   OH2 9356   2.233   4.850   2.456
 3131TIP3    H1 9357   2.163   4.902   2.495
 3131TIP3    H2 9358   2.271   4.801   2.529
 3132TIP3   OH2 9359   4.246   2.974   1.765
 3132TIP3    H1 9360   4.166   2.921   1.756
 3132TIP3    H2 9361   4.238   3.015   1.851
 3133TIP3   OH2 9362   4.981   6.664   5.487
 3133TIP3    H1 9363   4.966   6.743   5.538
 3133TIP3    H2 9364   4.933   6.679   5.405
 3134TIP3   OH2 9365   5.896   0.086   4.074
 3134TIP3    H1 9366   5.982   0.053   4.048
 3134TIP3    H2 9367   5.888   0.064   4.167
 3135TIP3   OH2 9368   1.827   3.588   0.207
 3135TIP3    H1 9369   1.773   3.574   0.128
 3135TIP3    H2 9370   1.784   3.535   0.275
 3136TIP3   OH2 9371   3.953   1.766   5.416
 3136TIP3    H1 9372   3.899   1.688   5.405
 3136TIP3    H2 9373   4.037   1.734   5.448
 3137TIP3   OH2 9374   4.912   1.559   4.152
 3137TIP3    H1 9375   4.963   1.588   4.228
 3137TIP3    H2 9376   4.968   1.495   4.109
 3138TIP3   OH2 9377   5.316   3.441   2.849
 3138TIP3    H1 9378   5.247   3.385   2.815
 3138TIP3    H2 9379   5.392   3.383   2.856
 3139TIP3   OH2 9380   0.717   3.960   4.899
 3139TIP3    H1 9381   0.692   3.992   4.985
 3139TIP3    H2 9382   0.661   4.008   4.838
 3140TIP3   OH2 9383   2.807   4.429   0.833
 3140TIP3    H1 9384   2.902   4.432   0.825
 3140TIP3    H2 9385   2.781   4.520   0.847
 3141TIP3   OH2 9386   0.320   1.464   3.491
 3141TIP3    H1 9387   0.297   1.515   3.414
 3141TIP3    H2 9388   0.258   1.391   3.490
 3142TIP3   OH2 9389   2.967   5.049   3.996
 3142TIP3    H1 9390   3.046   4.997   3.983
 3142TIP3    H2 9391   2.976   5.085   4.084
 3143TIP3   OH2 9392   0.108   2.099   3.043
 3143TIP3    H1 9393   0.175   2.088   2.976
 3143TIP3    H2 9394   0.031   2.132   2.996
 3144TIP3   OH2 9395   0.763   0.962   4.972
 3144TIP3    H1 9396   0.692   1.020   4.998
 3144TIP3    H2 9397   0.842   1.006   5.001
 3145TIP3   OH2 9398   6.558   0.229   1.804
 3145TIP3    H1 9399   6.622   0.241   1.875
 3145TIP3    H2 9400   6.508   0.311   1.803
 3146TIP3   OH2 9401   0.440   6.036   2.376
 3146TIP3    H1 9402   0.405   6.098   2.440
 3146TIP3    H2 9403   0.362   6.003   2.331
 3147TIP3   OH2 9404   4.887   1.914   4.671
 3147TIP3    H1 9405   4.904   1.892   4.762
 3147TIP3    H2 9406   4.794   1.898   4.659
 3148TIP3   OH2 9407   2.496   4.950   4.152
 3148TIP3    H1 9408   2.495   5.033   4.199
 3148TIP3    H2 9409   2.515   4.884   4.219
 3149TIP3   OH2 9410   3.331   3.201   1.185
 3149TIP3    H1 9411   3.397   3.211   1.116
 3149TIP3    H2 9412   3.362   3.258   1.256
 3150TIP3   OH2 9413   6.348   3.681   2.967
 3150TIP3    H1 9414   6.278   3.672   2.902
 3150TIP3    H2 9415   6.342   3.601   3.019
 3151TIP3   OH2 9416   1.133   2.846   0.367
 3151TIP3    H1 9417   1.100   2.934   0.350
 3151TIP3    H2 9418   1.148   2.809   0.280
 3152TIP3   OH2 9419   6.066   6.185   3.981
 3152TIP3    H1 9420   6.002   6.178   4.052
 3152TIP3    H2 9421   6.017   6.157   3.903
 3153TIP3   OH2 9422   1.895   0.645   2.355
 3153TIP3    H1 9423   1.892   0.735   2.321
 3153TIP3    H2 9424   1.979   0.611   2.325
 3154TIP3   OH2 9425   1.149   2.791   3.348
 3154TIP3    H1 9426   1.168   2.821   3.436
 3154TIP3    H2 9427   1.166   2.867   3.292
 3155TIP3   OH2 9428   0.817   2.881   0.180
 3155TIP3    H1 9429   0.833   2.881   0.086
 3155TIP3    H2 9430   0.858   2.961   0.212
 3156TIP3   OH2 9431   6.840   5.215   4.651
 3156TIP3    H1 9432   6.818   5.256   4.567
 3156TIP3    H2 9433   6.917   5.263   4.682
 3157TIP3   OH2 9434   1.366   1.396   1.895
 3157TIP3    H1 9435   1.332   1.393   1.984
 3157TIP3    H2 9436   1.447   1.345   1.899
 3158TIP3   OH2 9437   0.035   5.306   2.173
 3158TIP3    H1 9438  -0.032   5.243   2.148
 3158TIP3    H2 9439   0.050   5.291   2.266
 3159TIP3   OH2 9440   2.248   6.208   2.763
 3159TIP3    H1 9441   2.225   6.137   2.823
 3159TIP3    H2 9442   2.174   6.213   2.703
 3160TIP3   OH2 9443   0.094   2.421   2.876
 3160TIP3    H1 9444   0.002   2.426   2.851
 3160TIP3    H2 9445   0.092   2.408   2.971
 3161TIP3   OH2 9446   6.482   6.580   5.955
 3161TIP3    H1 9447   6.459   6.492   5.924
 3161TIP3    H2 9448   6.519   6.623   5.878
 3162TIP3   OH2 9449   6.622   4.965   0.026
 3162TIP3    H1 9450   6.645   4.921   0.108
 3162TIP3    H2 9451   6.530   4.942   0.011
 3163TIP3   OH2 9452   1.496   2.192   3.171
 3163TIP3    H1 9453   1.584   2.156   3.178
 3163TIP3    H2 9454   1.496   2.238   3.086
 3164TIP3   OH2 9455   0.567   2.210   4.594
 3164TIP3    H1 9456   0.604   2.287   4.638
 3164TIP3    H2 9457   0.642   2.166   4.555
 3165TIP3   OH2 9458   2.284   4.318   3.910
 3165TIP3    H1 9459   2.274   4.263   3.832
 3165TIP3    H2 9460   2.314   4.259   3.979
 3166TIP3   OH2 9461   3.751   0.710   1.160
 3166TIP3    H1 9462   3.679   0.768   1.182
 3166TIP3    H2 9463   3.782   0.741   1.075
 3167TIP3   OH2 9464   4.190   3.841   0.019
 3167TIP3    H1 9465   4.256   3.856  -0.048
 3167TIP3    H2 9466   4.106   3.861  -0.024
 3168TIP3   OH2 9467   5.042   1.237   0.879
 3168TIP3    H1 9468   4.970   1.221   0.940
 3168TIP3    H2 9469   5.000   1.276   0.802
 3169TIP3   OH2 9470   4.282   2.206   0.082
 3169TIP3    H1 9471   4.317   2.271   0.021
 3169TIP3    H2 9472   4.201   2.175   0.040
 3170TIP3   OH2 9473   0.397   6.100  -0.028
 3170TIP3    H1 9474   0.421   6.119   0.063
 3170TIP3    H2 9475   0.432   6.012  -0.043
 3171TIP3   OH2 9476   0.011   2.905   1.034
 3171TIP3    H1 9477   0.061   2.983   1.059
 3171TIP3    H2 9478   0.077   2.844   1.002
 3172TIP3   OH2 9479   5.067   3.854   2.780
 3172TIP3    H1 9480   5.045   3.890   2.695
 3172TIP3    H2 9481   5.141   3.795   2.763
 3173TIP3   OH2 9482   0.538   5.233   4.059
 3173TIP3    H1 9483   0.525   5.320   4.097
 3173TIP3    H2 9484   0.621   5.240   4.012
 3174TIP3   OH2 9485   1.532   4.606   3.966
 3174TIP3    H1 9486   1.463   4.554   4.008
 3174TIP3    H2 9487   1.608   4.548   3.964
 3175TIP3   OH2 9488   5.742   1.089   3.345
 3175TIP3    H1 9489   5.680   1.108   3.275
 3175TIP3    H2 9490   5.812   1.154   3.334
 3176TIP3   OH2 9491   3.050   2.632   1.225
 3176TIP3    H1 9492   2.984   2.586   1.277
 3176TIP3    H2 9493   3.004   2.659   1.146
 3177TIP3   OH2 9494   1.312   5.767   3.303
 3177TIP3    H1 9495   1.237   5.825   3.289
 3177TIP3    H2 9496   1.386   5.813   3.263
 3178TIP3   OH2 9497   5.387   4.052   4.433
 3178TIP3    H1 9498   5.422   4.138   4.408
 3178TIP3    H2 9499   5.392   4.000   4.354
 3179TIP3   OH2 9500   1.226   0.602   3.236
 3179TIP3    H1 9501   1.247   0.687   3.198
 3179TIP3    H2 9502   1.200   0.621   3.326
 3180TIP3   OH2 9503   4.030   4.437   1.224
 3180TIP3    H1 9504   4.124   4.426   1.211
 3180TIP3    H2 9505   4.014   4.530   1.205
 3181TIP3   OH2 9506   2.025   3.722   2.285
 3181TIP3    H1 9507   2.052   3.809   2.313
 3181TIP3    H2 9508   2.084   3.701   2.212
 3182TIP3   OH2 9509   2.882   0.245   4.778
 3182TIP3    H1 9510   2.833   0.210   4.704
 3182TIP3    H2 9511   2.852   0.335   4.786
 3183TIP3   OH2 9512   6.572   1.276   5.087
 3183TIP3    H1 9513   6.477   1.267   5.077
 3183TIP3    H2 9514   6.583   1.353   5.143
 3184TIP3   OH2 9515   3.396   0.569   2.057
 3184TIP3    H1 9516   3.484   0.543   2.032
 3184TIP3    H2 9517   3.380   0.523   2.140
 3185TIP3   OH2 9518   2.438   0.059   5.929
 3185TIP3    H1 9519   2.403  -0.019   5.972
 3185TIP3    H2 9520   2.418   0.046   5.836
 3186TIP3   OH2 9521   1.492   2.321   2.884
 3186TIP3    H1 9522   1.488   2.378   2.807
 3186TIP3    H2 9523   1.542   2.244   2.854
 3187TIP3   OH2 9524   1.711   4.199   0.636
 3187TIP3    H1 9525   1.640   4.256   0.666
 3187TIP3    H2 9526   1.705   4.202   0.541
 3188TIP3   OH2 9527   2.131   0.670   3.310
 3188TIP3    H1 9528   2.048   0.690   3.353
 3188TIP3    H2 9529   2.121   0.704   3.221
 3189TIP3   OH2 9530   5.829   0.857   3.472
 3189TIP3    H1 9531   5.898   0.822   3.416
 3189TIP3    H2 9532   5.816   0.946   3.441
 3190TIP3   OH2 9533   0.868   0.492   3.014
 3190TIP3    H1 9534   0.842   0.420   2.958
 3190TIP3    H2 9535   0.809   0.487   3.089
 3191TIP3   OH2 9536   3.521   4.876   2.264
 3191TIP3    H1 9537   3.462   4.820   2.315
 3191TIP3    H2 9538   3.472   4.957   2.253
 3192TIP3   OH2 9539   4.447   1.944   2.069
 3192TIP3    H1 9540   4.496   1.883   2.124
 3192TIP3    H2 9541   4.355   1.929   2.093
 3193TIP3   OH2 9542   2.910   3.602   3.596
 3193TIP3    H1 9543   2.982   3.633   3.541
 3193TIP3    H2 9544   2.935   3.629   3.684
 3194TIP3   OH2 9545   4.690   3.696   5.271
 3194TIP3    H1 9546   4.659   3.783   5.246
 3194TIP3    H2 9547   4.718   3.655   5.189
 3195TIP3   OH2 9548   6.977   5.154   0.545
 3195TIP3    H1 9549   7.055   5.141   0.491
 3195TIP3    H2 9550   6.905   5.124   0.490
 3196TIP3   OH2 9551   1.440   2.123   3.455
 3196TIP3    H1 9552   1.468   2.043   3.499
 3196TIP3    H2 9553   1.506   2.188   3.480
 3197TIP3   OH2 9554   5.311   3.788   1.143
 3197TIP3    H1 9555   5.333   3.744   1.061
 3197TIP3    H2 9556   5.360   3.741   1.210
 3198TIP3   OH2 9557   1.159   4.412   1.011
 3198TIP3    H1 9558   1.179   4.351   1.082
 3198TIP3    H2 9559   1.232   4.402   0.950
 3199TIP3   OH2 9560   1.707   2.749   1.090
 3199TIP3    H1 9561   1.612   2.758   1.099
 3199TIP3    H2 9562   1.721   2.656   1.074
 3200TIP3   OH2 9563   1.609   2.545   0.863
 3200TIP3    H1 9564   1.620   2.466   0.810
 3200TIP3    H2 9565   1.610   2.514   0.953
 3201TIP3   OH2 9566   6.299   4.558   5.092
 3201TIP3    H1 9567   6.262   4.633   5.139
 3201TIP3    H2 9568   6.234   4.537   5.025
 3202TIP3   OH2 9569   6.452   6.057   5.576
 3202TIP3    H1 9570   6.498   5.995   5.632
 3202TIP3    H2 9571   6.514   6.079   5.507
 3203TIP3   OH2 9572   6.431   2.445   4.552
 3203TIP3    H1 9573   6.464   2.425   4.465
 3203TIP3    H2 9574   6.488   2.395   4.611
 3204TIP3   OH2 9575  -0.010   2.396   5.056
 3204TIP3    H1 9576   0.041   2.430   5.130
 3204TIP3    H2 9577  -0.051   2.474   5.018
 3205TIP3   OH2 9578   1.044   5.088   4.842
 3205TIP3    H1 9579   0.989   5.034   4.786
 3205TIP3    H2 9580   1.131   5.084   4.802
 3206TIP3   OH2 9581   5.311   0.781   2.232
 3206TIP3    H1 9582   5.362   0.836   2.173
 3206TIP3    H2 9583   5.295   0.701   2.183
 3207TIP3   OH2 9584   5.477   6.529   4.844
 3207TIP3    H1 9585   5.468   6.515   4.938
 3207TIP3    H2 9586   5.554   6.586   4.835
 3208TIP3   OH2 9587   4.267   2.099   0.721
 3208TIP3    H1 9588   4.250   2.030   0.786
 3208TIP3    H2 9589   4.196   2.162   0.733
 3209TIP3   OH2 9590   2.834   5.683   4.599
 3209TIP3    H1 9591   2.908   5.681   4.660
 3209TIP3    H2 9592   2.867   5.730   4.523
 3210TIP3   OH2 9593   0.864   3.353   1.925
 3210TIP3    H1 9594   0.869   3.277   1.983
 3210TIP3    H2 9595   0.877   3.317   1.838
 3211TIP3   OH2 9596   0.304   3.348   1.126
 3211TIP3    H1 9597   0.251   3.354   1.047
 3211TIP3    H2 9598   0.318   3.438   1.153
 3212TIP3   OH2 9599   1.257   5.048   2.408
 3212TIP3    H1 9600   1.336   5.002   2.436
 3212TIP3    H2 9601   1.185   4.987   2.428
 3213TIP3   OH2 9602   6.708   5.797   3.291
 3213TIP3    H1 9603   6.751   5.716   3.320
 3213TIP3    H2 9604   6.725   5.859   3.361
 3214TIP3   OH2 9605   2.788   6.037   0.050
 3214TIP3    H1 9606   2.707   6.058   0.003
 3214TIP3    H2 9607   2.813   6.118   0.094
 3215TIP3   OH2 9608   0.511   6.731   0.774
 3215TIP3    H1 9609   0.513   6.637   0.759
 3215TIP3    H2 9610   0.442   6.764   0.717
 3216TIP3   OH2 9611   0.713   4.115   0.244
 3216TIP3    H1 9612   0.688   4.077   0.328
 3216TIP3    H2 9613   0.798   4.076   0.224
 3217TIP3   OH2 9614   4.507   3.265   1.722
 3217TIP3    H1 9615   4.467   3.304   1.644
 3217TIP3    H2 9616   4.474   3.317   1.795
 3218TIP3   OH2 9617   6.710   0.937   3.589
 3218TIP3    H1 9618   6.729   0.960   3.680
 3218TIP3    H2 9619   6.777   0.874   3.565
 3219TIP3   OH2 9620   7.061   5.641   3.956
 3219TIP3    H1 9621   7.006   5.651   3.879
 3219TIP3    H2 9622   7.150   5.631   3.921
 3220TIP3   OH2 9623   0.148   1.225   1.215
 3220TIP3    H1 9624   0.068   1.182   1.245
 3220TIP3    H2 9625   0.122   1.317   1.203
 3221TIP3   OH2 9626   3.733   2.385   2.353
 3221TIP3    H1 9627   3.665   2.440   2.393
 3221TIP3    H2 9628   3.798   2.373   2.422
 3222TIP3   OH2 9629   5.817   5.103   5.810
 3222TIP3    H1 9630   5.745   5.041   5.811
 3222TIP3    H2 9631   5.781   5.182   5.769
 3223TIP3   OH2 9632   2.035   5.655   2.296
 3223TIP3    H1 9633   2.089   5.734   2.301
 3223TIP3    H2 9634   2.096   5.585   2.273
 3224TIP3   OH2 9635   3.778   3.512   5.471
 3224TIP3    H1 9636   3.819   3.478   5.391
 3224TIP3    H2 9637   3.748   3.600   5.447
 3225TIP3   OH2 9638   3.071   1.412   1.870
 3225TIP3    H1 9639   3.104   1.443   1.955
 3225TIP3    H2 9640   3.016   1.338   1.891
 3226TIP3   OH2 9641   2.035   4.944   4.830
 3226TIP3    H1 9642   2.108   4.927   4.772
 3226TIP3    H2 9643   2.075   4.954   4.917
 3227TIP3   OH2 9644   1.388   0.468   2.718
 3227TIP3    H1 9645   1.424   0.430   2.798
 3227TIP3    H2 9646   1.465   0.500   2.671
 3228TIP3   OH2 9647   4.340   2.412   2.273
 3228TIP3    H1 9648   4.429   2.392   2.302
 3228TIP3    H2 9649   4.342   2.402   2.178
 3229TIP3   OH2 9650   2.416   3.838   4.064
 3229TIP3    H1 9651   2.333   3.811   4.025
 3229TIP3    H2 9652   2.396   3.854   4.156
 3230TIP3   OH2 9653   5.465   4.786   1.091
 3230TIP3    H1 9654   5.392   4.848   1.086
 3230TIP3    H2 9655   5.526   4.816   1.024
 3231TIP3   OH2 9656   1.283   4.869   3.924
 3231TIP3    H1 9657   1.242   4.787   3.900
 3231TIP3    H2 9658   1.339   4.848   3.999
 3232TIP3   OH2 9659   0.828   4.467   1.315
 3232TIP3    H1 9660   0.876   4.516   1.382
 3232TIP3    H2 9661   0.823   4.378   1.350
 3233TIP3   OH2 9662   6.472   3.311   1.059
 3233TIP3    H1 9663   6.501   3.383   1.003
 3233TIP3    H2 9664   6.507   3.332   1.146
 3234TIP3   OH2 9665   4.810   4.727   3.371
 3234TIP3    H1 9666   4.869   4.710   3.445
 3234TIP3    H2 9667   4.834   4.661   3.306
 3235TIP3   OH2 9668   4.710   2.996   5.208
 3235TIP3    H1 9669   4.800   3.018   5.183
 3235TIP3    H2 9670   4.687   3.063   5.272
 3236TIP3   OH2 9671   0.503   4.086   5.426
 3236TIP3    H1 9672   0.585   4.072   5.473
 3236TIP3    H2 9673   0.477   4.176   5.446
 3237TIP3   OH2 9674   6.425   5.892   4.666
 3237TIP3    H1 9675   6.369   5.969   4.666
 3237TIP3    H2 9676   6.484   5.906   4.592
 3238TIP3   OH2 9677   1.539   5.282   2.618
 3238TIP3    H1 9678   1.490   5.253   2.695
 3238TIP3    H2 9679   1.471   5.316   2.559
 3239TIP3   OH2 9680   5.366   0.460   2.517
 3239TIP3    H1 9681   5.461   0.468   2.519
 3239TIP3    H2 9682   5.348   0.383   2.572
 3240TIP3   OH2 9683   1.738   1.963   3.018
 3240TIP3    H1 9684   1.815   1.965   3.075
 3240TIP3    H2 9685   1.669   1.924   3.072
 3241TIP3   OH2 9686   0.116   1.365   5.465
 3241TIP3    H1 9687   0.043   1.372   5.527
 3241TIP3    H2 9688   0.182   1.313   5.511
 3242TIP3   OH2 9689   0.919   1.328   1.390
 3242TIP3    H1 9690   0.969   1.249   1.410
 3242TIP3    H2 9691   0.944   1.390   1.460
 3243TIP3   OH2 9692   0.024   3.200   3.903
 3243TIP3    H1 9693   0.048   3.162   3.819
 3243TIP3    H2 9694  -0.057   3.248   3.885
 3244TIP3   OH2 9695   4.550   6.154   5.573
 3244TIP3    H1 9696   4.544   6.142   5.478
 3244TIP3    H2 9697   4.463   6.184   5.599
 3245TIP3   OH2 9698   6.004   2.067   0.631
 3245TIP3    H1 9699   6.044   2.127   0.695
 3245TIP3    H2 9700   5.912   2.061   0.658
 3246TIP3   OH2 9701   6.908   3.019   4.342
 3246TIP3    H1 9702   6.918   2.934   4.298
 3246TIP3    H2 9703   6.988   3.067   4.321
 3247TIP3   OH2 9704   5.590   1.261   0.423
 3247TIP3    H1 9705   5.646   1.320   0.372
 3247TIP3    H2 9706   5.557   1.315   0.494
 3248TIP3   OH2 9707   6.925   4.422   5.863
 3248TIP3    H1 9708   6.871   4.350   5.831
 3248TIP3    H2 9709   6.914   4.492   5.800
 3249TIP3   OH2 9710   4.904   3.940   2.414
 3249TIP3    H1 9711   4.932   3.875   2.349
 3249TIP3    H2 9712   4.951   4.020   2.390
 3250TIP3   OH2 9713   6.673   3.778   4.373
 3250TIP3    H1 9714   6.663   3.752   4.465
 3250TIP3    H2 9715   6.645   3.870   4.371
 3251TIP3   OH2 9716   6.598   0.819   4.728
 3251TIP3    H1 9717   6.656   0.881   4.774
 3251TIP3    H2 9718   6.546   0.875   4.670
 3252TIP3   OH2 9719   2.466   4.817   0.512
 3252TIP3    H1 9720   2.393   4.866   0.549
 3252TIP3    H2 9721   2.536   4.881   0.503
 3253TIP3   OH2 9722   2.826   1.494   5.171
 3253TIP3    H1 9723   2.918   1.512   5.193
 3253TIP3    H2 9724   2.829   1.456   5.083
 3254TIP3   OH2 9725   0.397   6.173   1.054
 3254TIP3    H1 9726   0.461   6.231   1.012
 3254TIP3    H2 9727   0.314   6.198   1.013
 3255TIP3   OH2 9728   4.288   4.502   2.321
 3255TIP3    H1 9729   4.215   4.493   2.382
 3255TIP3    H2 9730   4.366   4.499   2.376
 3256TIP3   OH2 9731   2.305   1.644   4.569
 3256TIP3    H1 9732   2.275   1.708   4.632
 3256TIP3    H2 9733   2.400   1.642   4.581
 3257TIP3   OH2 9734   2.694   6.655   3.875
 3257TIP3    H1 9735   2.694   6.688   3.965
 3257TIP3    H2 9736   2.771   6.694   3.836
 3258TIP3   OH2 9737   3.349   5.186   5.478
 3258TIP3    H1 9738   3.404   5.217   5.549
 3258TIP3    H2 9739   3.373   5.094   5.467
 3259TIP3   OH2 9740   6.830   5.777   2.172
 3259TIP3    H1 9741   6.885   5.715   2.124
 3259TIP3    H2 9742   6.892   5.832   2.219
 3260TIP3   OH2 9743   1.830  -0.016   0.816
 3260TIP3    H1 9744   1.760   0.005   0.754
 3260TIP3    H2 9745   1.911  -0.009   0.765
 3261TIP3   OH2 9746   1.463   1.001   2.092
 3261TIP3    H1 9747   1.522   0.993   2.017
 3261TIP3    H2 9748   1.435   1.093   2.091
 3262TIP3   OH2 9749   7.144   4.783   1.585
 3262TIP3    H1 9750   7.099   4.702   1.559
 3262TIP3    H2 9751   7.140   4.838   1.507
 3263TIP3   OH2 9752   2.230   3.247   1.480
 3263TIP3    H1 9753   2.223   3.291   1.395
 3263TIP3    H2 9754   2.233   3.154   1.459
 3264TIP3   OH2 9755   5.427   0.103   2.186
 3264TIP3    H1 9756   5.417   0.089   2.091
 3264TIP3    H2 9757   5.517   0.075   2.204
 3265TIP3   OH2 9758   4.751   1.040   1.787
 3265TIP3    H1 9759   4.791   1.120   1.822
 3265TIP3    H2 9760   4.803   0.969   1.825
 3266TIP3   OH2 9761   6.247   0.881   3.952
 3266TIP3    H1 9762   6.199   0.801   3.973
 3266TIP3    H2 9763   6.311   0.889   4.022
 3267TIP3   OH2 9764   5.878   3.020   1.838
 3267TIP3    H1 9765   5.948   2.990   1.895
 3267TIP3    H2 9766   5.879   2.959   1.764
 3268TIP3   OH2 9767   7.197   1.903   4.802
 3268TIP3    H1 9768   7.215   1.979   4.858
 3268TIP3    H2 9769   7.207   1.936   4.713
 3269TIP3   OH2 9770   2.440   0.305   2.888
 3269TIP3    H1 9771   2.455   0.322   2.795
 3269TIP3    H2 9772   2.353   0.339   2.905
 3270TIP3   OH2 9773   0.924   1.393   0.527
 3270TIP3    H1 9774   0.921   1.406   0.621
 3270TIP3    H2 9775   1.018   1.394   0.505
 3271TIP3   OH2 9776   1.667   5.674   3.353
 3271TIP3    H1 9777   1.606   5.730   3.402
 3271TIP3    H2 9778   1.652   5.586   3.388
 3272TIP3   OH2 9779   4.957   2.911   2.947
 3272TIP3    H1 9780   4.955   2.934   2.854
 3272TIP3    H2 9781   5.038   2.950   2.979
 3273TIP3   OH2 9782   2.083   1.885   0.290
 3273TIP3    H1 9783   2.130   1.968   0.292
 3273TIP3    H2 9784   1.990   1.910   0.291
 3274TIP3   OH2 9785   2.226   4.025   3.606
 3274TIP3    H1 9786   2.267   3.962   3.666
 3274TIP3    H2 9787   2.280   4.104   3.613
 3275TIP3   OH2 9788   3.915   1.543   3.510
 3275TIP3    H1 9789   3.940   1.635   3.525
 3275TIP3    H2 9790   3.821   1.546   3.497
 3276TIP3   OH2 9791   1.407   5.334   4.768
 3276TIP3    H1 9792   1.421   5.319   4.862
 3276TIP3    H2 9793   1.488   5.305   4.727
 3277TIP3   OH2 9794   5.793   3.984   5.152
 3277TIP3    H1 9795   5.749   4.016   5.232
 3277TIP3    H2 9796   5.797   3.889   5.163
 3278TIP3   OH2 9797   1.423   3.966   1.158
 3278TIP3    H1 9798   1.441   3.873   1.171
 3278TIP3    H2 9799   1.347   3.968   1.100
 3279TIP3   OH2 9800   5.970   2.605   1.057
 3279TIP3    H1 9801   6.006   2.664   1.124
 3279TIP3    H2 9802   6.034   2.534   1.052
 3280TIP3   OH2 9803   3.919   6.014   1.877
 3280TIP3    H1 9804   4.008   6.037   1.905
 3280TIP3    H2 9805   3.866   6.028   1.955
 3281TIP3   OH2 9806   4.085   5.772   5.216
 3281TIP3    H1 9807   4.043   5.817   5.143
 3281TIP3    H2 9808   4.062   5.680   5.204
 3282TIP3   OH2 9809   6.570   4.554   1.184
 3282TIP3    H1 9810   6.581   4.460   1.174
 3282TIP3    H2 9811   6.656   4.591   1.167
 3283TIP3   OH2 9812   5.989   3.814   3.579
 3283TIP3    H1 9813   6.050   3.741   3.571
 3283TIP3    H2 9814   5.993   3.858   3.495
 3284TIP3   OH2 9815   5.173   5.420   3.013
 3284TIP3    H1 9816   5.120   5.384   3.084
 3284TIP3    H2 9817   5.260   5.385   3.027
 3285TIP3   OH2 9818   1.431   3.800   0.857
 3285TIP3    H1 9819   1.344   3.767   0.832
 3285TIP3    H2 9820   1.443   3.769   0.946
 3286TIP3   OH2 9821   1.022   2.066   5.062
 3286TIP3    H1 9822   0.965   1.994   5.035
 3286TIP3    H2 9823   0.989   2.091   5.149
 3287TIP3   OH2 9824   4.086   3.427   4.104
 3287TIP3    H1 9825   4.004   3.396   4.142
 3287TIP3    H2 9826   4.153   3.376   4.149
 3288TIP3   OH2 9827   0.521   2.399   4.067
 3288TIP3    H1 9828   0.483   2.311   4.065
 3288TIP3    H2 9829   0.562   2.410   3.981
 3289TIP3   OH2 9830   6.313   4.934   0.066
 3289TIP3    H1 9831   6.222   4.921   0.089
 3289TIP3    H2 9832   6.362   4.884   0.131
 3290TIP3   OH2 9833   3.815   5.697   4.887
 3290TIP3    H1 9834   3.897   5.733   4.853
 3290TIP3    H2 9835   3.756   5.695   4.811
 3291TIP3   OH2 9836   4.895   3.942   5.463
 3291TIP3    H1 9837   4.965   3.972   5.405
 3291TIP3    H2 9838   4.895   3.846   5.452
 3292TIP3   OH2 9839   1.153   4.168   1.636
 3292TIP3    H1 9840   1.111   4.131   1.713
 3292TIP3    H2 9841   1.145   4.263   1.646
 3293TIP3   OH2 9842   5.218   6.126   0.395
 3293TIP3    H1 9843   5.160   6.100   0.466
 3293TIP3    H2 9844   5.196   6.218   0.379
 3294TIP3   OH2 9845   4.515   2.341   2.520
 3294TIP3    H1 9846   4.496   2.425   2.562
 3294TIP3    H2 9847   4.607   2.325   2.541
 3295TIP3   OH2 9848   6.125   0.688   4.651
 3295TIP3    H1 9849   6.089   0.744   4.582
 3295TIP3    H2 9850   6.180   0.747   4.703
 3296TIP3   OH2 9851   7.068   3.726   2.177
 3296TIP3    H1 9852   7.027   3.775   2.105
 3296TIP3    H2 9853   7.162   3.743   2.167
 3297TIP3   OH2 9854   0.454   1.344   2.962
 3297TIP3    H1 9855   0.481   1.356   2.872
 3297TIP3    H2 9856   0.408   1.260   2.963
 3298TIP3   OH2 9857   3.908   2.087   5.346
 3298TIP3    H1 9858   3.847   2.095   5.419
 3298TIP3    H2 9859   3.948   2.001   5.357
 3299TIP3   OH2 9860   6.309   1.605   2.799
 3299TIP3    H1 9861   6.380   1.580   2.740
 3299TIP3    H2 9862   6.354   1.641   2.876
 3300TIP3   OH2 9863   5.264   6.781   2.922
 3300TIP3    H1 9864   5.217   6.708   2.881
 3300TIP3    H2 9865   5.320   6.739   2.987
 3301TIP3   OH2 9866   2.381   0.582   1.274
 3301TIP3    H1 9867   2.472   0.596   1.298
 3301TIP3    H2 9868   2.351   0.511   1.331
 3302TIP3   OH2 9869   3.632   2.055   2.237
 3302TIP3    H1 9870   3.691   2.001   2.186
 3302TIP3    H2 9871   3.668   2.144   2.230
 3303TIP3   OH2 9872   5.795   2.706   4.108
 3303TIP3    H1 9873   5.813   2.685   4.200
 3303TIP3    H2 9874   5.699   2.705   4.102
 3304TIP3   OH2 9875   5.655   1.381   0.746
 3304TIP3    H1 9876   5.589   1.437   0.705
 3304TIP3    H2 9877   5.660   1.413   0.836
 3305TIP3   OH2 9878   6.382   4.048   5.774
 3305TIP3    H1 9879   6.349   4.116   5.716
 3305TIP3    H2 9880   6.398   4.093   5.857
 3306TIP3   OH2 9881   2.135   6.401   4.404
 3306TIP3    H1 9882   2.113   6.457   4.330
 3306TIP3    H2 9883   2.186   6.330   4.366
 3307TIP3   OH2 9884   2.766   4.148   1.739
 3307TIP3    H1 9885   2.798   4.235   1.714
 3307TIP3    H2 9886   2.683   4.165   1.784
 3308TIP3   OH2 9887   4.218   6.029   4.749
 3308TIP3    H1 9888   4.213   6.102   4.686
 3308TIP3    H2 9889   4.258   6.067   4.827
 3309TIP3   OH2 9890   3.814   0.710   1.432
 3309TIP3    H1 9891   3.757   0.664   1.371
 3309TIP3    H2 9892   3.771   0.794   1.448
 3310TIP3   OH2 9893   2.800   5.276   2.476
 3310TIP3    H1 9894   2.829   5.189   2.451
 3310TIP3    H2 9895   2.708   5.279   2.452
 3311TIP3   OH2 9896   3.038   4.504   3.503
 3311TIP3    H1 9897   3.082   4.465   3.579
 3311TIP3    H2 9898   2.976   4.566   3.541
 3312TIP3   OH2 9899   4.486   0.625   0.720
 3312TIP3    H1 9900   4.570   0.632   0.765
 3312TIP3    H2 9901   4.501   0.662   0.633
 3313TIP3   OH2 9902   1.359   4.388   5.091
 3313TIP3    H1 9903   1.272   4.349   5.094
 3313TIP3    H2 9904   1.355   4.446   5.015
 3314TIP3   OH2 9905   2.885   2.051   4.616
 3314TIP3    H1 9906   2.902   2.097   4.534
 3314TIP3    H2 9907   2.957   2.078   4.674
 3315TIP3   OH2 9908   4.888   3.970   3.743
 3315TIP3    H1 9909   4.892   3.989   3.837
 3315TIP3    H2 9910   4.876   3.875   3.738
 3316TIP3   OH2 9911   2.004   4.299   4.000
 3316TIP3    H1 9912   2.094   4.331   3.999
 3316TIP3    H2 9913   2.009   4.212   3.961
 3317TIP3   OH2 9914   0.121   5.862   5.175
 3317TIP3    H1 9915   0.064   5.927   5.134
 3317TIP3    H2 9916   0.075   5.837   5.255
 3318TIP3   OH2 9917   3.024   4.771   0.714
 3318TIP3    H1 9918   2.954   4.706   0.717
 3318TIP3    H2 9919   2.980   4.853   0.693
 3319TIP3   OH2 9920   3.126   0.748   3.792
 3319TIP3    H1 9921   3.144   0.805   3.867
 3319TIP3    H2 9922   3.035   0.722   3.804
 3320TIP3   OH2 9923   6.156   4.502   5.369
 3320TIP3    H1 9924   6.153   4.593   5.398
 3320TIP3    H2 9925   6.105   4.501   5.288
 3321TIP3   OH2 9926   3.671   4.035   3.798
 3321TIP3    H1 9927   3.654   4.027   3.892
 3321TIP3    H2 9928   3.639   3.953   3.761
 3322TIP3   OH2 9929   3.178   0.256   2.988
 3322TIP3    H1 9930   3.115   0.194   2.951
 3322TIP3    H2 9931   3.123   0.328   3.021
 3323TIP3   OH2 9932   6.576   2.080   4.196
 3323TIP3    H1 9933   6.493   2.037   4.173
 3323TIP3    H2 9934   6.604   2.122   4.115
 3324TIP3   OH2 9935   6.173   1.091   4.230
 3324TIP3    H1 9936   6.102   1.082   4.166
 3324TIP3    H2 9937   6.136   1.061   4.313
 3325TIP3   OH2 9938   5.976   1.300   1.425
 3325TIP3    H1 9939   6.056   1.278   1.474
 3325TIP3    H2 9940   5.909   1.244   1.463
 3326TIP3   OH2 9941   5.730   5.360   2.101
 3326TIP3    H1 9942   5.715   5.455   2.100
 3326TIP3    H2 9943   5.796   5.346   2.033
 3327TIP3   OH2 9944   5.278   3.103   5.434
 3327TIP3    H1 9945   5.347   3.062   5.381
 3327TIP3    H2 9946   5.312   3.190   5.453
 3328TIP3   OH2 9947   1.420   5.799   1.541
 3328TIP3    H1 9948   1.399   5.715   1.581
 3328TIP3    H2 9949   1.510   5.789   1.508
 3329TIP3   OH2 9950   2.432   4.205   1.365
 3329TIP3    H1 9951   2.422   4.243   1.277
 3329TIP3    H2 9952   2.526   4.207   1.381
 3330TIP3   OH2 9953   2.887   2.948   2.331
 3330TIP3    H1 9954   2.864   3.037   2.357
 3330TIP3    H2 9955   2.971   2.931   2.372
 3331TIP3   OH2 9956   2.278   3.132   5.142
 3331TIP3    H1 9957   2.362   3.174   5.124
 3331TIP3    H2 9958   2.288   3.042   5.112
 3332TIP3   OH2 9959   6.645   1.032   1.930
 3332TIP3    H1 9960   6.563   1.003   1.970
 3332TIP3    H2 9961   6.703   0.955   1.937
 3333TIP3   OH2 9962   4.236   0.976   3.672
 3333TIP3    H1 9963   4.162   1.036   3.665
 3333TIP3    H2 9964   4.196   0.889   3.674
 3334TIP3   OH2 9965   3.840   2.778   4.491
 3334TIP3    H1 9966   3.746   2.767   4.509
 3334TIP3    H2 9967   3.869   2.845   4.552
 3335TIP3   OH2 9968   5.576   0.097   3.154
 3335TIP3    H1 9969   5.641   0.048   3.202
 3335TIP3    H2 9970   5.494   0.080   3.200
 3336TIP3   OH2 9971   1.451   5.034   0.359
 3336TIP3    H1 9972   1.418   5.067   0.276
 3336TIP3    H2 9973   1.532   4.989   0.337
 3337TIP3   OH2 9974   1.560   3.742   4.835
 3337TIP3    H1 9975   1.601   3.684   4.771
 3337TIP3    H2 9976   1.491   3.787   4.786
 3338TIP3   OH2 9977   3.886   0.622   5.563
 3338TIP3    H1 9978   3.928   0.603   5.479
 3338TIP3    H2 9979   3.943   0.686   5.605
 3339TIP3   OH2 9980   5.332   5.557   4.672
 3339TIP3    H1 9981   5.318   5.649   4.649
 3339TIP3    H2 9982   5.379   5.561   4.755
 3340TIP3   OH2 9983   3.171   1.207   2.480
 3340TIP3    H1 9984   3.119   1.268   2.426
 3340TIP3    H2 9985   3.155   1.121   2.442
 3341TIP3   OH2 9986   0.891   3.560   5.028
 3341TIP3    H1 9987   0.819   3.567   4.965
 3341TIP3    H2 9988   0.921   3.469   5.020
 3342TIP3   OH2 9989   7.239   5.297   2.437
 3342TIP3    H1 9990   7.252   5.315   2.530
 3342TIP3    H2 9991   7.145   5.286   2.427
 3343TIP3   OH2 9992   2.808   0.572   4.493
 3343TIP3    H1 9993   2.841   0.604   4.577
 3343TIP3    H2 9994   2.752   0.498   4.516
 3344TIP3   OH2 9995   2.822   3.754   0.397
 3344TIP3    H1 9996   2.870   3.794   0.325
 3344TIP3    H2 9997   2.730   3.777   0.380
 3345TIP3   OH2 9998   0.567   1.347   2.714
 3345TIP3    H1 9999   0.653   1.350   2.672
 3345TIP3    H210000   0.509   1.308   2.648
 3346TIP3   OH210001   2.786   1.824   2.893
 3346TIP3    H110002   2.834   1.903   2.916
 3346TIP3    H210003   2.695   1.852   2.884
 3347TIP3   OH210004   1.497   4.242   3.708
 3347TIP3    H110005   1.499   4.163   3.653
 3347TIP3    H210006   1.498   4.208   3.798
 3348TIP3   OH210007   1.003   5.243   0.337
 3348TIP3    H110008   0.971   5.153   0.342
 3348TIP3    H210009   1.049   5.257   0.420
 3349TIP3   OH210010   5.370   0.778   4.183
 3349TIP3    H110011   5.286   0.784   4.137
 3349TIP3    H210012   5.346   0.760   4.274
 3350TIP3   OH210013   3.040  -0.001   4.783
 3350TIP3    H110014   3.055   0.089   4.813
 3350TIP3    H210015   3.087  -0.006   4.700
 3351TIP3   OH210016   6.335   5.575   4.646
 3351TIP3    H110017   6.288   5.654   4.618
 3351TIP3    H210018   6.291   5.548   4.727
 3352TIP3   OH210019   6.718   1.600   4.915
 3352TIP3    H110020   6.790   1.663   4.914
 3352TIP3    H210021   6.760   1.516   4.935
 3353TIP3   OH210022   4.184   5.629   2.957
 3353TIP3    H110023   4.097   5.661   2.931
 3353TIP3    H210024   4.168   5.542   2.994
 3354TIP3   OH210025   6.815   4.936   0.674
 3354TIP3    H110026   6.818   4.970   0.585
 3354TIP3    H210027   6.851   5.006   0.728
 3355TIP3   OH210028   1.579   3.152   3.110
 3355TIP3    H110029   1.488   3.136   3.086
 3355TIP3    H210030   1.585   3.126   3.202
 3356TIP3   OH210031   5.293   4.220   5.852
 3356TIP3    H110032   5.356   4.202   5.782
 3356TIP3    H210033   5.282   4.315   5.850
 3357TIP3   OH210034   0.973   2.191   4.125
 3357TIP3    H110035   0.954   2.285   4.116
 3357TIP3    H210036   1.044   2.175   4.063
 3358TIP3   OH210037   2.331   0.342   5.203
 3358TIP3    H110038   2.312   0.430   5.170
 3358TIP3    H210039   2.343   0.289   5.125
 3359TIP3   OH210040   6.910   6.296   0.322
 3359TIP3    H110041   6.945   6.384   0.329
 3359TIP3    H210042   6.825   6.300   0.367
 3360TIP3   OH210043   0.859   2.599   2.252
 3360TIP3    H110044   0.865   2.507   2.276
 3360TIP3    H210045   0.949   2.625   2.230
 3361TIP3   OH210046   4.171   3.662   2.865
 3361TIP3    H110047   4.090   3.692   2.824
 3361TIP3    H210048   4.141   3.602   2.934
 3362TIP3   OH210049   6.320   2.513   1.846
 3362TIP3    H110050   6.300   2.606   1.857
 3362TIP3    H210051   6.323   2.478   1.935
 3363TIP3   OH210052   0.028   1.027   0.780
 3363TIP3    H110053   0.023   1.014   0.875
 3363TIP3    H210054   0.054   0.941   0.746
 3364TIP3   OH210055   6.867   3.714   3.016
 3364TIP3    H110056   6.784   3.761   3.025
 3364TIP3    H210057   6.874   3.695   2.923
 3365TIP3   OH210058   6.531   4.863   5.590
 3365TIP3    H110059   6.612   4.819   5.565
 3365TIP3    H210060   6.463   4.796   5.584
 3366TIP3   OH210061   6.860   1.214   5.643
 3366TIP3    H110062   6.779   1.227   5.594
 3366TIP3    H210063   6.833   1.217   5.735
 3367TIP3   OH210064   4.463   0.836   3.815
 3367TIP3    H110065   4.390   0.881   3.772
 3367TIP3    H210066   4.422   0.766   3.866
 3368TIP3   OH210067   1.032   4.818   2.764
 3368TIP3    H110068   1.047   4.817   2.859
 3368TIP3    H210069   0.945   4.857   2.755
 3369TIP3   OH210070   0.100   1.356   1.571
 3369TIP3    H110071   0.117   1.264   1.553
 3369TIP3    H210072   0.114   1.365   1.665
 3370TIP3   OH210073   5.879   3.195   2.643
 3370TIP3    H110074   5.855   3.160   2.557
 3370TIP3    H210075   5.798   3.194   2.693
 3371TIP3   OH210076   5.604   4.446   0.787
 3371TIP3    H110077   5.693   4.436   0.821
 3371TIP3    H210078   5.562   4.507   0.848
 3372TIP3   OH210079   5.370   3.340   5.844
 3372TIP3    H110080   5.377   3.250   5.875
 3372TIP3    H210081   5.276   3.356   5.835
 3373TIP3   OH210082   1.455   2.918   4.162
 3373TIP3    H110083   1.512   2.976   4.113
 3373TIP3    H210084   1.497   2.832   4.156
 3374TIP3   OH210085   4.792   1.279   1.017
 3374TIP3    H110086   4.853   1.327   1.074
 3374TIP3    H210087   4.784   1.193   1.058
 3375TIP3   OH210088   4.019   0.274   2.886
 3375TIP3    H110089   4.105   0.292   2.923
 3375TIP3    H210090   3.958   0.289   2.958
 3376TIP3   OH210091   1.589   1.013   1.794
 3376TIP3    H110092   1.549   0.929   1.769
 3376TIP3    H210093   1.683   0.997   1.789
 3377TIP3   OH210094   3.369   6.635   2.123
 3377TIP3    H110095   3.306   6.581   2.171
 3377TIP3    H210096   3.437   6.574   2.095
 3378TIP3   OH210097   2.604   1.162   4.981
 3378TIP3    H110098   2.687   1.161   4.934
 3378TIP3    H210099   2.550   1.225   4.933
 3379TIP3   OH210100   4.242   2.764   5.129
 3379TIP3    H110101   4.156   2.776   5.170
 3379TIP3    H210102   4.302   2.754   5.203
 3380TIP3   OH210103   3.115   0.507   0.330
 3380TIP3    H110104   3.188   0.549   0.285
 3380TIP3    H210105   3.037   0.551   0.297
 3381TIP3   OH210106   5.173   6.281   3.500
 3381TIP3    H110107   5.242   6.251   3.559
 3381TIP3    H210108   5.093   6.243   3.535
 3382TIP3   OH210109   6.048   0.505   4.980
 3382TIP3    H110110   6.055   0.411   4.963
 3382TIP3    H210111   6.114   0.522   5.048
 3383TIP3   OH210112   1.133   2.501   0.183
 3383TIP3    H110113   1.040   2.481   0.175
 3383TIP3    H210114   1.157   2.537   0.097
 3384TIP3   OH210115   6.864   3.178   2.639
 3384TIP3    H110116   6.922   3.142   2.705
 3384TIP3    H210117   6.795   3.223   2.689
 3385TIP3   OH210118   6.096   1.891   1.824
 3385TIP3    H110119   6.056   1.851   1.901
 3385TIP3    H210120   6.184   1.915   1.852
 3386TIP3   OH210121   1.636   2.339   5.861
 3386TIP3    H110122   1.671   2.344   5.772
 3386TIP3    H210123   1.655   2.250   5.890
 3387TIP3   OH210124   3.128   4.858   4.386
 3387TIP3    H110125   3.182   4.925   4.345
 3387TIP3    H210126   3.055   4.907   4.425
 3388TIP3   OH210127   2.874   5.888   1.568
 3388TIP3    H110128   2.779   5.888   1.582
 3388TIP3    H210129   2.886   5.924   1.480
 3389TIP3   OH210130   5.282   4.906   3.636
 3389TIP3    H110131   5.236   4.849   3.698
 3389TIP3    H210132   5.213   4.940   3.579
 3390TIP3   OH210133   4.526   3.936   1.835
 3390TIP3    H110134   4.523   4.017   1.887
 3390TIP3    H210135   4.619   3.916   1.827
 3391TIP3   OH210136   6.475   3.610   4.321
 3391TIP3    H110137   6.565   3.641   4.321
 3391TIP3    H210138   6.430   3.666   4.258
 3392TIP3   OH210139   0.360   2.723   1.908
 3392TIP3    H110140   0.278   2.767   1.885
 3392TIP3    H210141   0.337   2.630   1.910
 3393TIP3   OH210142   0.914   3.258   3.128
 3393TIP3    H110143   0.909   3.349   3.158
 3393TIP3    H210144   0.824   3.226   3.136
 3394TIP3   OH210145   0.004   1.395   3.696
 3394TIP3    H110146   0.076   1.459   3.691
 3394TIP3    H210147  -0.038   1.413   3.779
 3395TIP3   OH210148   5.913   0.332   0.710
 3395TIP3    H110149   5.832   0.353   0.663
 3395TIP3    H210150   5.932   0.409   0.764
 3396TIP3   OH210151   2.694   1.102   1.644
 3396TIP3    H110152   2.746   1.181   1.631
 3396TIP3    H210153   2.720   1.044   1.572
 3397TIP3   OH210154   0.074   1.379   1.922
 3397TIP3    H110155   0.053   1.286   1.930
 3397TIP3    H210156   0.153   1.391   1.976
 3398TIP3   OH210157   2.347   1.595   1.940
 3398TIP3    H110158   2.376   1.641   1.862
 3398TIP3    H210159   2.255   1.620   1.950
 3399TIP3   OH210160   0.058   4.478   0.381
 3399TIP3    H110161   0.086   4.563   0.347
 3399TIP3    H210162  -0.035   4.473   0.358
 3400TIP3   OH210163   1.942   1.508   5.099
 3400TIP3    H110164   2.007   1.547   5.041
 3400TIP3    H210165   1.919   1.424   5.058
 3401TIP3   OH210166   2.933   3.312   1.848
 3401TIP3    H110167   3.022   3.278   1.843
 3401TIP3    H210168   2.878   3.239   1.822
 3402TIP3   OH210169   2.100   0.563   2.052
 3402TIP3    H110170   2.081   0.653   2.028
 3402TIP3    H210171   2.015   0.519   2.051
 3403TIP3   OH210172   1.733   2.013   1.124
 3403TIP3    H110173   1.716   2.097   1.083
 3403TIP3    H210174   1.720   2.028   1.218
 3404TIP3   OH210175   3.458   5.565   2.511
 3404TIP3    H110176   3.379   5.564   2.565
 3404TIP3    H210177   3.486   5.474   2.509
 3405TIP3   OH210178   3.330   2.927   0.507
 3405TIP3    H110179   3.397   2.995   0.504
 3405TIP3    H210180   3.340   2.880   0.424
 3406TIP3   OH210181   1.314   1.581   1.693
 3406TIP3    H110182   1.240   1.624   1.735
 3406TIP3    H210183   1.327   1.500   1.742
 3407TIP3   OH210184   0.577   4.155   1.802
 3407TIP3    H110185   0.528   4.233   1.829
 3407TIP3    H210186   0.550   4.088   1.864
 3408TIP3   OH210187   1.856   5.513   3.157
 3408TIP3    H110188   1.806   5.545   3.232
 3408TIP3    H210189   1.790   5.497   3.090
 3409TIP3   OH210190   3.599   3.702   0.947
 3409TIP3    H110191   3.558   3.761   1.011
 3409TIP3    H210192   3.567   3.615   0.971
 3410TIP3   OH210193   6.477   4.848   1.574
 3410TIP3    H110194   6.439   4.791   1.508
 3410TIP3    H210195   6.521   4.918   1.524
 3411TIP3   OH210196   5.660   3.416   1.352
 3411TIP3    H110197   5.689   3.384   1.266
 3411TIP3    H210198   5.661   3.338   1.407
 3412TIP3   OH210199   4.337   3.473   1.048
 3412TIP3    H110200   4.253   3.518   1.041
 3412TIP3    H210201   4.388   3.527   1.108
 3413TIP3   OH210202   4.259   6.585   0.170
 3413TIP3    H110203   4.213   6.653   0.219
 3413TIP3    H210204   4.350   6.615   0.167
 3414TIP3   OH210205   2.221   6.812   5.213
 3414TIP3    H110206   2.211   6.821   5.119
 3414TIP3    H210207   2.289   6.744   5.223
 3415TIP3   OH210208   6.200   3.883   0.834
 3415TIP3    H110209   6.274   3.824   0.818
 3415TIP3    H210210   6.152   3.883   0.751
 3416TIP3   OH210211   3.941   1.231   4.240
 3416TIP3    H110212   3.894   1.268   4.315
 3416TIP3    H210213   3.973   1.307   4.192
 3417TIP3   OH210214   3.448   2.976   3.461
 3417TIP3    H110215   3.379   2.972   3.527
 3417TIP3    H210216   3.529   2.963   3.511
 3418TIP3   OH210217   6.437   2.454   3.362
 3418TIP3    H110218   6.473   2.408   3.438
 3418TIP3    H210219   6.433   2.387   3.293
 3419TIP3   OH210220   3.280   3.548   2.670
 3419TIP3    H110221   3.281   3.615   2.601
 3419TIP3    H210222   3.308   3.468   2.625
 3420TIP3   OH210223   0.995   5.720   0.223
 3420TIP3    H110224   0.902   5.733   0.209
 3420TIP3    H210225   1.038   5.785   0.167
 3421TIP3   OH210226   3.315   4.550   5.036
 3421TIP3    H110227   3.324   4.628   4.981
 3421TIP3    H210228   3.341   4.478   4.979
 3422TIP3   OH210229   2.054   0.081   2.268
 3422TIP3    H110230   2.039   0.144   2.197
 3422TIP3    H210231   2.146   0.092   2.291
 3423TIP3   OH210232   6.707   6.418   3.902
 3423TIP3    H110233   6.781   6.381   3.950
 3423TIP3    H210234   6.661   6.341   3.867
 3424TIP3   OH210235   0.361   4.601   1.668
 3424TIP3    H110236   0.410   4.563   1.594
 3424TIP3    H210237   0.321   4.680   1.632
 3425TIP3   OH210238   1.869   0.720   0.885
 3425TIP3    H110239   1.784   0.760   0.870
 3425TIP3    H210240   1.921   0.742   0.808
 3426TIP3   OH210241   6.386   5.367   5.186
 3426TIP3    H110242   6.446   5.307   5.142
 3426TIP3    H210243   6.436   5.448   5.197
 3427TIP3   OH210244   1.276   1.940   5.339
 3427TIP3    H110245   1.277   2.029   5.303
 3427TIP3    H210246   1.240   1.886   5.269
 3428TIP3   OH210247   4.824   1.447   3.076
 3428TIP3    H110248   4.777   1.378   3.030
 3428TIP3    H210249   4.903   1.462   3.023
 3429TIP3   OH210250   1.588   2.657   4.706
 3429TIP3    H110251   1.665   2.698   4.744
 3429TIP3    H210252   1.565   2.714   4.632
 3430TIP3   OH210253   2.064   3.625   5.615
 3430TIP3    H110254   2.081   3.717   5.635
 3430TIP3    H210255   2.093   3.614   5.525
 3431TIP3   OH210256   6.456   1.494   5.514
 3431TIP3    H110257   6.401   1.571   5.529
 3431TIP3    H210258   6.479   1.498   5.421
 3432TIP3   OH210259   4.390   1.605   4.484
 3432TIP3    H110260   4.360   1.654   4.560
 3432TIP3    H210261   4.445   1.535   4.521
 3433TIP3   OH210262   1.503   3.264   5.629
 3433TIP3    H110263   1.414   3.231   5.614
 3433TIP3    H210264   1.558   3.186   5.630
 3434TIP3   OH210265   6.069   2.912   2.037
 3434TIP3    H110266   6.089   3.004   2.058
 3434TIP3    H210267   6.087   2.865   2.118
 3435TIP3   OH210268   6.374   3.856   4.979
 3435TIP3    H110269   6.464   3.887   4.980
 3435TIP3    H210270   6.374   3.781   4.920
 3436TIP3   OH210271   6.109   3.644   1.049
 3436TIP3    H110272   6.178   3.608   1.104
 3436TIP3    H210273   6.153   3.665   0.966
 3437TIP3   OH210274   3.436   4.285   0.476
 3437TIP3    H110275   3.412   4.376   0.496
 3437TIP3    H210276   3.495   4.292   0.401
 3438TIP3   OH210277   6.881   6.439   2.369
 3438TIP3    H110278   6.826   6.452   2.292
 3438TIP3    H210279   6.900   6.345   2.369
 3439TIP3   OH210280   1.124   6.734   1.979
 3439TIP3    H110281   1.172   6.779   1.910
 3439TIP3    H210282   1.032   6.742   1.954
 3440TIP3   OH210283   0.315   6.178   5.245
 3440TIP3    H110284   0.252   6.249   5.239
 3440TIP3    H210285   0.274   6.114   5.304
 3441TIP3   OH210286   2.077   4.979   3.699
 3441TIP3    H110287   2.033   4.898   3.727
 3441TIP3    H210288   2.009   5.029   3.655
 3442TIP3   OH210289   7.025   4.169   1.985
 3442TIP3    H110290   7.067   4.199   1.904
 3442TIP3    H210291   6.985   4.085   1.962
 3443TIP3   OH210292   1.623   6.325   0.061
 3443TIP3    H110293   1.682   6.259   0.096
 3443TIP3    H210294   1.537   6.281   0.058
 3444TIP3   OH210295   6.290   1.823   2.053
 3444TIP3    H110296   6.336   1.899   2.019
 3444TIP3    H210297   6.268   1.846   2.143
 3445TIP3   OH210298   3.140   4.075   1.551
 3445TIP3    H110299   3.068   4.014   1.538
 3445TIP3    H210300   3.169   4.097   1.463
 3446TIP3   OH210301   3.254   5.499   4.378
 3446TIP3    H110302   3.287   5.457   4.298
 3446TIP3    H210303   3.209   5.577   4.347
 3447TIP3   OH210304   5.898   3.435   5.152
 3447TIP3    H110305   5.909   3.450   5.058
 3447TIP3    H210306   5.971   3.378   5.177
 3448TIP3   OH210307   3.092   6.347   5.542
 3448TIP3    H110308   3.092   6.313   5.452
 3448TIP3    H210309   3.113   6.272   5.597
 3449TIP3   OH210310   0.063   4.523   0.888
 3449TIP3    H110311   0.058   4.529   0.984
 3449TIP3    H210312   0.052   4.613   0.858
 3450TIP3   OH210313   4.506   0.538   1.069
 3450TIP3    H110314   4.540   0.462   1.023
 3450TIP3    H210315   4.575   0.604   1.061
 3451TIP3   OH210316   4.997   5.920   1.924
 3451TIP3    H110317   5.093   5.925   1.927
 3451TIP3    H210318   4.979   5.854   1.857
 3452TIP3   OH210319   6.646   6.114   4.919
 3452TIP3    H110320   6.613   6.202   4.902
 3452TIP3    H210321   6.567   6.059   4.919
 3453TIP3   OH210322   2.891   1.378   0.316
 3453TIP3    H110323   2.980   1.343   0.313
 3453TIP3    H210324   2.903   1.473   0.323
 3454TIP3   OH210325   1.329   0.145   1.662
 3454TIP3    H110326   1.366   0.203   1.596
 3454TIP3    H210327   1.395   0.077   1.674
 3455TIP3   OH210328   6.922   3.967   1.407
 3455TIP3    H110329   6.890   4.057   1.415
 3455TIP3    H210330   6.842   3.915   1.393
 3456TIP3   OH210331   1.117   4.555   4.828
 3456TIP3    H110332   1.210   4.552   4.853
 3456TIP3    H210333   1.105   4.478   4.771
 3457TIP3   OH210334   5.962   3.534   4.874
 3457TIP3    H110335   6.056   3.523   4.885
 3457TIP3    H210336   5.952   3.604   4.809
 3458TIP3   OH210337   2.330   2.005   4.356
 3458TIP3    H110338   2.347   1.921   4.313
 3458TIP3    H210339   2.251   2.039   4.314
 3459TIP3   OH210340   5.413   1.515   0.977
 3459TIP3    H110341   5.346   1.583   0.967
 3459TIP3    H210342   5.376   1.438   0.932
 3460TIP3   OH210343   5.495   2.014   1.046
 3460TIP3    H110344   5.406   2.022   1.082
 3460TIP3    H210345   5.488   1.946   0.979
 3461TIP3   OH210346   2.379   4.606   1.937
 3461TIP3    H110347   2.363   4.635   2.027
 3461TIP3    H210348   2.304   4.638   1.888
 3462TIP3   OH210349   3.731   2.235   5.228
 3462TIP3    H110350   3.795   2.169   5.252
 3462TIP3    H210351   3.680   2.196   5.158
 3463TIP3   OH210352   3.610   0.808   3.829
 3463TIP3    H110353   3.549   0.755   3.777
 3463TIP3    H210354   3.691   0.757   3.830
 3464TIP3   OH210355   4.695   3.204   2.062
 3464TIP3    H110356   4.669   3.119   2.097
 3464TIP3    H210357   4.742   3.247   2.134
 3465TIP3   OH210358   2.814   5.677   3.115
 3465TIP3    H110359   2.878   5.606   3.109
 3465TIP3    H210360   2.831   5.732   3.039
 3466TIP3   OH210361   4.752   3.313   1.419
 3466TIP3    H110362   4.821   3.374   1.442
 3466TIP3    H210363   4.706   3.355   1.346
 3467TIP3   OH210364   5.885   5.048   3.668
 3467TIP3    H110365   5.854   4.964   3.701
 3467TIP3    H210366   5.979   5.035   3.655
 3468TIP3   OH210367   4.255   4.209   0.334
 3468TIP3    H110368   4.255   4.123   0.293
 3468TIP3    H210369   4.320   4.259   0.285
 3469TIP3   OH210370   6.826   2.299   0.445
 3469TIP3    H110371   6.795   2.373   0.498
 3469TIP3    H210372   6.749   2.243   0.434
 3470TIP3   OH210373   6.052   5.742   5.015
 3470TIP3    H110374   6.045   5.760   5.109
 3470TIP3    H210375   6.051   5.828   4.974
 3471TIP3   OH210376   6.974   1.566   5.738
 3471TIP3    H110377   6.909   1.635   5.722
 3471TIP3    H210378   7.041   1.607   5.792
 3472TIP3   OH210379   2.493   2.200   5.320
 3472TIP3    H110380   2.403   2.178   5.297
 3472TIP3    H210381   2.504   2.169   5.409
 3473TIP3   OH210382   4.547   5.902   0.050
 3473TIP3    H110383   4.511   5.814   0.060
 3473TIP3    H210384   4.633   5.898   0.092
 3474TIP3   OH210385   2.477   1.024   5.393
 3474TIP3    H110386   2.557   0.991   5.433
 3474TIP3    H210387   2.499   1.113   5.366
 3475TIP3   OH210388   6.289   0.294   4.097
 3475TIP3    H110389   6.212   0.337   4.061
 3475TIP3    H210390   6.255   0.235   4.164
 3476TIP3   OH210391   3.936   1.094   1.323
 3476TIP3    H110392   3.842   1.101   1.342
 3476TIP3    H210393   3.953   1.161   1.257
 3477TIP3   OH210394   0.805   2.259   0.655
 3477TIP3    H110395   0.862   2.205   0.709
 3477TIP3    H210396   0.829   2.237   0.565
 3478TIP3   OH210397   5.931   4.501   5.523
 3478TIP3    H110398   5.863   4.516   5.457
 3478TIP3    H210399   6.011   4.492   5.471
 3479TIP3   OH210400   3.705   4.873   2.065
 3479TIP3    H110401   3.757   4.793   2.070
 3479TIP3    H210402   3.652   4.872   2.145
 3480TIP3   OH210403   2.060   1.234   5.295
 3480TIP3    H110404   2.091   1.144   5.307
 3480TIP3    H210405   2.123   1.272   5.233
 3481TIP3   OH210406   1.031   6.231   2.436
 3481TIP3    H110407   1.042   6.323   2.412
 3481TIP3    H210408   1.093   6.183   2.380
 3482TIP3   OH210409   4.495   2.505   4.737
 3482TIP3    H110410   4.514   2.446   4.810
 3482TIP3    H210411   4.470   2.587   4.779
 3483TIP3   OH210412   6.296   1.381   1.317
 3483TIP3    H110413   6.336   1.389   1.231
 3483TIP3    H210414   6.254   1.465   1.333
 3484TIP3   OH210415   3.452   6.079   2.705
 3484TIP3    H110416   3.414   6.012   2.648
 3484TIP3    H210417   3.538   6.044   2.729
 3485TIP3   OH210418   0.589   3.260   4.169
 3485TIP3    H110419   0.523   3.329   4.179
 3485TIP3    H210420   0.545   3.180   4.198
 3486TIP3   OH210421   1.356   6.537   5.766
 3486TIP3    H110422   1.398   6.460   5.728
 3486TIP3    H210423   1.271   6.541   5.724
 3487TIP3   OH210424   4.270   5.031   1.677
 3487TIP3    H110425   4.279   4.981   1.759
 3487TIP3    H210426   4.334   5.101   1.685
 3488TIP3   OH210427   0.406   6.408   1.827
 3488TIP3    H110428   0.442   6.373   1.908
 3488TIP3    H210429   0.447   6.357   1.757
 3489TIP3   OH210430   2.700   4.248   1.441
 3489TIP3    H110431   2.710   4.340   1.466
 3489TIP3    H210432   2.705   4.200   1.524
 3490TIP3   OH210433   6.921   4.057   2.515
 3490TIP3    H110434   6.882   3.995   2.577
 3490TIP3    H210435   6.944   4.133   2.569
 3491TIP3   OH210436   4.051   4.934   2.258
 3491TIP3    H110437   4.029   4.963   2.169
 3491TIP3    H210438   4.076   4.842   2.247
 3492TIP3   OH210439   6.200   3.705   0.553
 3492TIP3    H110440   6.190   3.621   0.508
 3492TIP3    H210441   6.232   3.681   0.641
 3493TIP3   OH210442   6.693   1.258   4.557
 3493TIP3    H110443   6.757   1.204   4.605
 3493TIP3    H210444   6.633   1.290   4.625
 3494TIP3   OH210445   0.608   2.119   4.276
 3494TIP3    H110446   0.635   2.209   4.259
 3494TIP3    H210447   0.534   2.127   4.337
 3495TIP3   OH210448   3.620   2.562   4.034
 3495TIP3    H110449   3.611   2.631   4.100
 3495TIP3    H210450   3.712   2.563   4.011
 3496TIP3   OH210451   0.552   0.685   3.427
 3496TIP3    H110452   0.630   0.670   3.373
 3496TIP3    H210453   0.583   0.745   3.495
 3497TIP3   OH210454   1.407   4.322   0.904
 3497TIP3    H110455   1.464   4.361   0.838
 3497TIP3    H210456   1.394   4.232   0.873
 3498TIP3   OH210457   1.724   5.608   2.556
 3498TIP3    H110458   1.722   5.611   2.461
 3498TIP3    H210459   1.632   5.606   2.583
 3499TIP3   OH210460   5.932   0.227   5.816
 3499TIP3    H110461   5.855   0.192   5.862
 3499TIP3    H210462   5.925   0.322   5.828
 3500TIP3   OH210463   2.953   0.681   0.217
 3500TIP3    H110464   2.915   0.701   0.131
 3500TIP3    H210465   2.998   0.761   0.242
 3501TIP3   OH210466   3.065   3.516   2.109
 3501TIP3    H110467   3.034   3.568   2.034
 3501TIP3    H210468   2.986   3.479   2.147
 3502TIP3   OH210469   1.920   0.729   4.401
 3502TIP3    H110470   1.971   0.672   4.343
 3502TIP3    H210471   1.861   0.777   4.341
 3503TIP3   OH210472   1.329   2.827   2.123
 3503TIP3    H110473   1.324   2.909   2.073
 3503TIP3    H210474   1.274   2.844   2.200
 3504TIP3   OH210475   3.124   0.994   1.564
 3504TIP3    H110476   3.181   0.918   1.577
 3504TIP3    H210477   3.175   1.053   1.508
 3505TIP3   OH210478   5.942   0.521   0.903
 3505TIP3    H110479   6.007   0.460   0.937
 3505TIP3    H210480   5.872   0.520   0.968
 3506TIP3   OH210481   0.242   5.891   2.247
 3506TIP3    H110482   0.264   5.836   2.172
 3506TIP3    H210483   0.223   5.830   2.317
 3507TIP3   OH210484   3.931   2.635   1.468
 3507TIP3    H110485   3.909   2.635   1.561
 3507TIP3    H210486   3.867   2.694   1.428
 3508TIP3   OH210487   2.438   6.101   2.272
 3508TIP3    H110488   2.420   6.083   2.364
 3508TIP3    H210489   2.356   6.135   2.237
 3509TIP3   OH210490   3.705   3.896   0.045
 3509TIP3    H110491   3.627   3.949   0.029
 3509TIP3    H210492   3.765   3.919  -0.025
 3510TIP3   OH210493   6.978   1.188   1.756
 3510TIP3    H110494   7.051   1.184   1.818
 3510TIP3    H210495   6.908   1.232   1.803
 3511TIP3   OH210496   5.024   2.099   2.152
 3511TIP3    H110497   5.007   2.189   2.180
 3511TIP3    H210498   4.940   2.068   2.117
 3512TIP3   OH210499   0.444   4.132   4.002
 3512TIP3    H110500   0.429   4.222   4.030
 3512TIP3    H210501   0.377   4.081   4.046
 3513TIP3   OH210502   2.333   4.732   2.197
 3513TIP3    H110503   2.395   4.661   2.211
 3513TIP3    H210504   2.283   4.737   2.278
 3514TIP3   OH210505   2.749   4.717   3.724
 3514TIP3    H110506   2.738   4.811   3.720
 3514TIP3    H210507   2.827   4.704   3.779
 3515TIP3   OH210508   6.700   0.662   2.268
 3515TIP3    H110509   6.647   0.582   2.266
 3515TIP3    H210510   6.790   0.632   2.269
 3516TIP3   OH210511   0.420   6.520   0.434
 3516TIP3    H110512   0.381   6.543   0.350
 3516TIP3    H210513   0.386   6.433   0.454
 3517TIP3   OH210514   1.771   6.185   0.285
 3517TIP3    H110515   1.721   6.214   0.362
 3517TIP3    H210516   1.811   6.103   0.312
 3518TIP3   OH210517   0.656   1.942   0.731
 3518TIP3    H110518   0.587   1.981   0.786
 3518TIP3    H210519   0.691   1.871   0.784
 3519TIP3   OH210520   4.242   0.517   0.824
 3519TIP3    H110521   4.311   0.540   0.763
 3519TIP3    H210522   4.166   0.568   0.795
 3520TIP3   OH210523   3.894   0.112   1.994
 3520TIP3    H110524   3.926   0.032   1.951
 3520TIP3    H210525   3.905   0.181   1.929
 3521TIP3   OH210526   1.117   0.584   5.708
 3521TIP3    H110527   1.154   0.508   5.663
 3521TIP3    H210528   1.191   0.643   5.721
 3522TIP3   OH210529   2.435   2.712   5.366
 3522TIP3    H110530   2.472   2.710   5.278
 3522TIP3    H210531   2.487   2.778   5.412
 3523TIP3   OH210532   5.945   3.167   0.833
 3523TIP3    H110533   5.931   3.220   0.755
 3523TIP3    H210534   6.013   3.104   0.809
 3524TIP3   OH210535   1.073   0.687   0.124
 3524TIP3    H110536   1.021   0.664   0.202
 3524TIP3    H210537   1.153   0.635   0.133
 3525TIP3   OH210538   0.588   5.707   4.633
 3525TIP3    H110539   0.618   5.686   4.722
 3525TIP3    H210540   0.605   5.628   4.582
 3526TIP3   OH210541   2.196   1.602   4.317
 3526TIP3    H110542   2.235   1.604   4.404
 3526TIP3    H210543   2.262   1.638   4.259
 3527TIP3   OH210544   1.813   1.693   3.271
 3527TIP3    H110545   1.819   1.740   3.354
 3527TIP3    H210546   1.730   1.645   3.276
 3528TIP3   OH210547   2.077   2.319   2.234
 3528TIP3    H110548   2.011   2.328   2.302
 3528TIP3    H210549   2.064   2.230   2.199
 3529TIP3   OH210550   3.126   6.585   3.934
 3529TIP3    H110551   3.218   6.585   3.962
 3529TIP3    H210552   3.087   6.509   3.979
 3530TIP3   OH210553   0.966   2.287   1.556
 3530TIP3    H110554   0.916   2.364   1.530
 3530TIP3    H210555   1.057   2.317   1.557
 3531TIP3   OH210556   3.389   2.253   1.483
 3531TIP3    H110557   3.448   2.183   1.511
 3531TIP3    H210558   3.438   2.334   1.498
 3532TIP3   OH210559   1.924   3.595   4.154
 3532TIP3    H110560   1.891   3.578   4.066
 3532TIP3    H210561   2.017   3.617   4.140
 3533TIP3   OH210562   1.545   0.117   4.717
 3533TIP3    H110563   1.484   0.100   4.788
 3533TIP3    H210564   1.489   0.148   4.645
 3534TIP3   OH210565   4.249   1.603   1.594
 3534TIP3    H110566   4.234   1.694   1.568
 3534TIP3    H210567   4.234   1.552   1.515
 3535TIP3   OH210568   5.040   3.095   1.190
 3535TIP3    H110569   5.048   3.089   1.285
 3535TIP3    H210570   4.950   3.069   1.171
 3536TIP3   OH210571   4.003   5.040   1.541
 3536TIP3    H110572   4.075   4.988   1.576
 3536TIP3    H210573   3.959   4.984   1.478
 3537TIP3   OH210574   5.120   0.549   2.628
 3537TIP3    H110575   5.212   0.565   2.649
 3537TIP3    H210576   5.107   0.456   2.648
 3538TIP3   OH210577   5.566   6.474   4.546
 3538TIP3    H110578   5.583   6.559   4.587
 3538TIP3    H210579   5.590   6.487   4.454
 3539TIP3   OH210580   0.833   6.002   2.920
 3539TIP3    H110581   0.833   5.949   2.840
 3539TIP3    H210582   0.907   6.061   2.910
 3540TIP3   OH210583   0.424   6.753   5.795
 3540TIP3    H110584   0.426   6.786   5.885
 3540TIP3    H210585   0.478   6.814   5.745
 3541TIP3   OH210586   3.013   1.026   1.812
 3541TIP3    H110587   3.051   1.031   1.724
 3541TIP3    H210588   2.976   0.937   1.816
 3542TIP3   OH210589   2.436   5.817  -0.050
 3542TIP3    H110590   2.471   5.873   0.018
 3542TIP3    H210591   2.369   5.764  -0.006
 3543TIP3   OH210592   3.964   4.490   0.076
 3543TIP3    H110593   3.988   4.436   0.151
 3543TIP3    H210594   3.868   4.487   0.073
 3544TIP3   OH210595  -0.004   2.843   4.478
 3544TIP3    H110596   0.068   2.782   4.492
 3544TIP3    H210597  -0.074   2.789   4.440
 3545TIP3   OH210598   2.598   5.850   1.328
 3545TIP3    H110599   2.569   5.898   1.406
 3545TIP3    H210600   2.531   5.869   1.262
 3546TIP3   OH210601   3.643   1.684   0.112
 3546TIP3    H110602   3.641   1.589   0.105
 3546TIP3    H210603   3.564   1.713   0.066
 3547TIP3   OH210604   4.670   5.802   0.699
 3547TIP3    H110605   4.621   5.752   0.634
 3547TIP3    H210606   4.602   5.841   0.755
 3548TIP3   OH210607   2.469   3.236   0.377
 3548TIP3    H110608   2.548   3.287   0.357
 3548TIP3    H210609   2.502   3.152   0.409
 3549TIP3   OH210610   5.169   0.962   5.441
 3549TIP3    H110611   5.264   0.973   5.447
 3549TIP3    H210612   5.134   1.050   5.453
 3550TIP3   OH210613   3.489   0.620   5.123
 3550TIP3    H110614   3.438   0.582   5.051
 3550TIP3    H210615   3.501   0.547   5.185
 3551TIP3   OH210616   0.138   3.932   0.320
 3551TIP3    H110617   0.119   3.961   0.409
 3551TIP3    H210618   0.101   3.844   0.314
 3552TIP3   OH210619   4.563   0.763   2.257
 3552TIP3    H110620   4.492   0.790   2.315
 3552TIP3    H210621   4.643   0.792   2.302
 3553TIP3   OH210622   4.976   4.563   1.262
 3553TIP3    H110623   4.936   4.553   1.349
 3553TIP3    H210624   4.902   4.559   1.201
 3554TIP3   OH210625   0.738   5.220   3.876
 3554TIP3    H110626   0.786   5.137   3.884
 3554TIP3    H210627   0.662   5.198   3.822
 3555TIP3   OH210628   3.613   2.185   3.962
 3555TIP3    H110629   3.560   2.232   4.027
 3555TIP3    H210630   3.694   2.163   4.008
 3556TIP3   OH210631   1.976   3.027   4.269
 3556TIP3    H110632   1.984   3.113   4.309
 3556TIP3    H210633   2.007   2.966   4.336
 3557TIP3   OH210634   0.438   4.165   3.272
 3557TIP3    H110635   0.421   4.082   3.316
 3557TIP3    H210636   0.366   4.174   3.209
 3558TIP3   OH210637   2.169   6.137   5.705
 3558TIP3    H110638   2.102   6.203   5.728
 3558TIP3    H210639   2.118   6.059   5.683
 3559TIP3   OH210640   4.663   5.293   4.148
 3559TIP3    H110641   4.736   5.354   4.144
 3559TIP3    H210642   4.611   5.313   4.070
 3560TIP3   OH210643   6.060   0.512   3.111
 3560TIP3    H110644   6.006   0.469   3.177
 3560TIP3    H210645   6.130   0.449   3.093
 3561TIP3   OH210646   4.254   4.539   0.304
 3561TIP3    H110647   4.181   4.477   0.311
 3561TIP3    H210648   4.330   4.483   0.288
 3562TIP3   OH210649   5.395   1.583   4.153
 3562TIP3    H110650   5.402   1.678   4.154
 3562TIP3    H210651   5.458   1.555   4.087
 3563TIP3   OH210652   1.413   5.759   4.891
 3563TIP3    H110653   1.419   5.709   4.810
 3563TIP3    H210654   1.319   5.771   4.905
 3564TIP3   OH210655   3.679   1.687   3.409
 3564TIP3    H110656   3.737   1.757   3.439
 3564TIP3    H210657   3.594   1.708   3.448
 3565TIP3   OH210658   5.748   5.566   3.131
 3565TIP3    H110659   5.676   5.560   3.069
 3565TIP3    H210660   5.821   5.601   3.081
 3566TIP3   OH210661   5.712   0.165   2.416
 3566TIP3    H110662   5.713   0.144   2.322
 3566TIP3    H210663   5.708   0.080   2.460
 3567TIP3   OH210664   2.766   1.290   1.299
 3567TIP3    H110665   2.776   1.301   1.204
 3567TIP3    H210666   2.695   1.227   1.309
 3568TIP3   OH210667   0.827   4.246   5.421
 3568TIP3    H110668   0.779   4.205   5.493
 3568TIP3    H210669   0.765   4.310   5.385
 3569TIP3   OH210670   3.081   3.758   3.443
 3569TIP3    H110671   3.053   3.834   3.392
 3569TIP3    H210672   3.148   3.716   3.390
 3570TIP3   OH210673   6.204   0.404   1.615
 3570TIP3    H110674   6.147   0.341   1.659
 3570TIP3    H210675   6.158   0.487   1.622
 3571TIP3   OH210676   3.556   6.327   3.188
 3571TIP3    H110677   3.572   6.234   3.201
 3571TIP3    H210678   3.460   6.334   3.184
 3572TIP3   OH210679   6.834   0.398   0.277
 3572TIP3    H110680   6.813   0.316   0.321
 3572TIP3    H210681   6.855   0.459   0.349
 3573TIP3   OH210682   5.241   6.531   5.578
 3573TIP3    H110683   5.176   6.543   5.509
 3573TIP3    H210684   5.257   6.437   5.579
 3574TIP3   OH210685   6.445   3.521   4.738
 3574TIP3    H110686   6.428   3.446   4.681
 3574TIP3    H210687   6.530   3.501   4.777
 3575TIP3   OH210688   2.424   1.008   4.335
 3575TIP3    H110689   2.350   0.951   4.314
 3575TIP3    H210690   2.487   0.951   4.378
 3576TIP3   OH210691   6.264   1.350   5.332
 3576TIP3    H110692   6.248   1.277   5.273
 3576TIP3    H210693   6.321   1.314   5.400
 3577TIP3   OH210694   6.488   2.194   2.495
 3577TIP3    H110695   6.555   2.155   2.438
 3577TIP3    H210696   6.520   2.282   2.512
 3578TIP3   OH210697   5.409   3.152   1.286
 3578TIP3    H110698   5.447   3.171   1.372
 3578TIP3    H210699   5.345   3.222   1.273
 3579TIP3   OH210700   4.335   1.226   4.070
 3579TIP3    H110701   4.339   1.283   4.147
 3579TIP3    H210702   4.408   1.255   4.015
 3580TIP3   OH210703   1.839   1.413   1.401
 3580TIP3    H110704   1.928   1.427   1.371
 3580TIP3    H210705   1.802   1.349   1.339
 3581TIP3   OH210706   5.128   1.388   5.716
 3581TIP3    H110707   5.151   1.363   5.626
 3581TIP3    H210708   5.212   1.406   5.758
 3582TIP3   OH210709   0.122   0.742   5.395
 3582TIP3    H110710   0.170   0.743   5.312
 3582TIP3    H210711   0.083   0.830   5.401
 3583TIP3   OH210712   1.826   6.631   2.952
 3583TIP3    H110713   1.774   6.574   3.009
 3583TIP3    H210714   1.912   6.635   2.993
 3584TIP3   OH210715   5.086   1.999   0.422
 3584TIP3    H110716   5.090   1.907   0.447
 3584TIP3    H210717   5.178   2.026   0.415
 3585TIP3   OH210718   5.155   2.855   5.248
 3585TIP3    H110719   5.117   2.813   5.325
 3585TIP3    H210720   5.107   2.937   5.239
 3586TIP3   OH210721   3.504   1.401   0.994
 3586TIP3    H110722   3.531   1.413   0.903
 3586TIP3    H210723   3.478   1.309   0.999
 3587TIP3   OH210724   4.301   0.491   3.233
 3587TIP3    H110725   4.365   0.428   3.265
 3587TIP3    H210726   4.339   0.526   3.153
 3588TIP3   OH210727   0.991   6.370   2.107
 3588TIP3    H110728   0.959   6.282   2.088
 3588TIP3    H210729   1.076   6.356   2.148
 3589TIP3   OH210730   7.016   4.088   0.782
 3589TIP3    H110731   6.963   4.020   0.825
 3589TIP3    H210732   7.104   4.051   0.776
 3590TIP3   OH210733   4.661   3.202   5.383
 3590TIP3    H110734   4.690   3.289   5.411
 3590TIP3    H210735   4.572   3.216   5.352
 3591TIP3   OH210736   0.706   4.788   1.397
 3591TIP3    H110737   0.737   4.787   1.307
 3591TIP3    H210738   0.784   4.808   1.449
 3592TIP3   OH210739   1.401   3.488   3.901
 3592TIP3    H110740   1.420   3.576   3.869
 3592TIP3    H210741   1.338   3.453   3.838
 3593TIP3   OH210742   1.865   3.674   3.054
 3593TIP3    H110743   1.893   3.765   3.058
 3593TIP3    H210744   1.921   3.634   2.989
 3594TIP3   OH210745   3.522   1.430   0.455
 3594TIP3    H110746   3.505   1.524   0.457
 3594TIP3    H210747   3.483   1.401   0.373
 3595TIP3   OH210748   2.814   6.808   1.385
 3595TIP3    H110749   2.883   6.803   1.320
 3595TIP3    H210750   2.856   6.846   1.462
 3596TIP3   OH210751   2.804   1.514   4.346
 3596TIP3    H110752   2.883   1.491   4.396
 3596TIP3    H210753   2.814   1.607   4.326
 3597TIP3   OH210754   5.328   2.095   4.634
 3597TIP3    H110755   5.348   2.069   4.724
 3597TIP3    H210756   5.271   2.026   4.601
 3598TIP3   OH210757   5.698   2.621   1.200
 3598TIP3    H110758   5.745   2.551   1.154
 3598TIP3    H210759   5.606   2.597   1.192
 3599TIP3   OH210760   0.186   5.601   5.153
 3599TIP3    H110761   0.122   5.672   5.157
 3599TIP3    H210762   0.233   5.607   5.236
 3600TIP3   OH210763   2.525   0.144   3.393
 3600TIP3    H110764   2.533   0.209   3.324
 3600TIP3    H210765   2.585   0.175   3.462
 3601TIP3   OH210766   5.556   4.073   1.607
 3601TIP3    H110767   5.543   4.094   1.700
 3601TIP3    H210768   5.649   4.052   1.600
 3602TIP3   OH210769   3.164   1.429   1.609
 3602TIP3    H110770   3.168   1.423   1.704
 3602TIP3    H210771   3.089   1.486   1.592
 3603TIP3   OH210772   3.694   1.265   1.778
 3603TIP3    H110773   3.690   1.259   1.682
 3603TIP3    H210774   3.639   1.192   1.808
 3604TIP3   OH210775   1.761   5.086   1.748
 3604TIP3    H110776   1.716   5.003   1.737
 3604TIP3    H210777   1.708   5.149   1.698
 3605TIP3   OH210778   0.107   0.614   1.112
 3605TIP3    H110779   0.021   0.575   1.129
 3605TIP3    H210780   0.124   0.597   1.020
 3606TIP3   OH210781   6.305   0.165   2.024
 3606TIP3    H110782   6.271   0.184   2.111
 3606TIP3    H210783   6.400   0.167   2.035
 3607TIP3   OH210784   3.272   3.829   0.329
 3607TIP3    H110785   3.182   3.798   0.330
 3607TIP3    H210786   3.285   3.869   0.415
 3608TIP3   OH210787   5.333   6.247   5.576
 3608TIP3    H110788   5.378   6.263   5.659
 3608TIP3    H210789   5.265   6.183   5.596
 3609TIP3   OH210790   2.137   3.982   5.313
 3609TIP3    H110791   2.210   4.035   5.281
 3609TIP3    H210792   2.085   4.044   5.365
 3610TIP3   OH210793   3.784   0.711   4.391
 3610TIP3    H110794   3.841   0.662   4.450
 3610TIP3    H210795   3.844   0.768   4.342
 3611TIP3   OH210796   3.574   2.900   3.147
 3611TIP3    H110797   3.567   2.818   3.196
 3611TIP3    H210798   3.617   2.960   3.208
 3612TIP3   OH210799   6.883   2.712   5.740
 3612TIP3    H110800   6.840   2.698   5.655
 3612TIP3    H210801   6.814   2.694   5.804
 3613TIP3   OH210802   0.270   3.931   5.379
 3613TIP3    H110803   0.311   3.928   5.293
 3613TIP3    H210804   0.339   3.960   5.438
 3614TIP3   OH210805   3.393   4.166   3.670
 3614TIP3    H110806   3.378   4.101   3.739
 3614TIP3    H210807   3.344   4.243   3.698
 3615TIP3   OH210808   4.638   3.655   0.674
 3615TIP3    H110809   4.644   3.637   0.580
 3615TIP3    H210810   4.551   3.622   0.699
 3616TIP3   OH210811   1.105   4.742   3.017
 3616TIP3    H110812   1.110   4.647   3.025
 3616TIP3    H210813   1.127   4.774   3.104
 3617TIP3   OH210814   0.008   0.298   5.224
 3617TIP3    H110815   0.011   0.299   5.128
 3617TIP3    H210816   0.099   0.293   5.251
 3618TIP3   OH210817   5.086   1.978   2.877
 3618TIP3    H110818   5.074   1.903   2.819
 3618TIP3    H210819   5.178   2.001   2.868
 3619TIP3   OH210820   1.456   4.066   1.855
 3619TIP3    H110821   1.549   4.048   1.863
 3619TIP3    H210822   1.446   4.102   1.767
 3620TIP3   OH210823   5.225   2.772   0.463
 3620TIP3    H110824   5.222   2.779   0.559
 3620TIP3    H210825   5.136   2.747   0.438
 3621TIP3   OH210826   3.051   4.573   4.529
 3621TIP3    H110827   3.126   4.623   4.561
 3621TIP3    H210828   3.041   4.501   4.591
 3622TIP3   OH210829   5.386   5.881   0.374
 3622TIP3    H110830   5.330   5.958   0.382
 3622TIP3    H210831   5.475   5.915   0.384
 3623TIP3   OH210832   5.635   3.389   5.220
 3623TIP3    H110833   5.635   3.378   5.315
 3623TIP3    H210834   5.728   3.390   5.196
 3624TIP3   OH210835   0.858   5.300   0.098
 3624TIP3    H110836   0.778   5.275   0.145
 3624TIP3    H210837   0.929   5.273   0.156
 3625TIP3   OH210838   4.884   4.136   4.966
 3625TIP3    H110839   4.908   4.226   4.945
 3625TIP3    H210840   4.907   4.086   4.887
 3626TIP3   OH210841   5.740   6.486   5.086
 3626TIP3    H110842   5.758   6.484   5.180
 3626TIP3    H210843   5.820   6.519   5.047
 3627TIP3   OH210844   0.134   1.665   5.399
 3627TIP3    H110845   0.186   1.611   5.459
 3627TIP3    H210846   0.152   1.755   5.425
 3628TIP3   OH210847   0.933   4.581   2.045
 3628TIP3    H110848   0.854   4.593   2.097
 3628TIP3    H210849   0.960   4.491   2.063
 3629TIP3   OH210850   2.044   5.508   5.140
 3629TIP3    H110851   2.023   5.507   5.234
 3629TIP3    H210852   1.970   5.552   5.099
 3630TIP3   OH210853   4.549   3.838   3.042
 3630TIP3    H110854   4.454   3.846   3.037
 3630TIP3    H210855   4.564   3.759   3.094
 3631TIP3   OH210856   0.536   4.946   3.472
 3631TIP3    H110857   0.517   4.857   3.443
 3631TIP3    H210858   0.586   4.934   3.553
 3632TIP3   OH210859   0.091   1.639   3.597
 3632TIP3    H110860   0.048   1.709   3.645
 3632TIP3    H210861   0.168   1.680   3.557
 3633TIP3   OH210862   7.142   2.616   5.630
 3633TIP3    H110863   7.058   2.638   5.670
 3633TIP3    H210864   7.186   2.561   5.694
 3634TIP3   OH210865   0.238   4.315   2.089
 3634TIP3    H110866   0.164   4.358   2.046
 3634TIP3    H210867   0.255   4.369   2.167
 3635TIP3   OH210868   5.566   1.735   0.950
 3635TIP3    H110869   5.645   1.692   0.919
 3635TIP3    H210870   5.502   1.664   0.958
 3636TIP3   OH210871   3.890   1.347   0.706
 3636TIP3    H110872   3.877   1.294   0.784
 3636TIP3    H210873   3.983   1.370   0.707
 3637TIP3   OH210874   3.042   4.148   3.623
 3637TIP3    H110875   3.075   4.068   3.663
 3637TIP3    H210876   3.086   4.219   3.671
 3638TIP3   OH210877   3.769   6.223   2.306
 3638TIP3    H110878   3.684   6.201   2.346
 3638TIP3    H210879   3.760   6.316   2.283
 3639TIP3   OH210880   5.677   3.003   2.065
 3639TIP3    H110881   5.744   3.021   2.130
 3639TIP3    H210882   5.725   2.987   1.984
 3640TIP3   OH210883   3.421   1.431   1.878
 3640TIP3    H110884   3.346   1.475   1.918
 3640TIP3    H210885   3.383   1.361   1.826
 3641TIP3   OH210886   0.531   1.765   5.466
 3641TIP3    H110887   0.461   1.703   5.486
 3641TIP3    H210888   0.612   1.716   5.483
 3642TIP3   OH210889   1.872   5.740   1.655
 3642TIP3    H110890   1.913   5.705   1.735
 3642TIP3    H210891   1.819   5.667   1.622
 3643TIP3   OH210892   3.378   0.411   3.905
 3643TIP3    H110893   3.340   0.325   3.919
 3643TIP3    H210894   3.471   0.400   3.927
 3644TIP3   OH210895   0.422   4.962   5.116
 3644TIP3    H110896   0.350   4.993   5.062
 3644TIP3    H210897   0.413   5.010   5.199
 3645TIP3   OH210898   3.227   3.613   3.242
 3645TIP3    H110899   3.274   3.660   3.173
 3645TIP3    H210900   3.145   3.584   3.200
 3646TIP3   OH210901   2.903   0.908   0.693
 3646TIP3    H110902   2.819   0.922   0.648
 3646TIP3    H210903   2.961   0.974   0.657
 3647TIP3   OH210904   0.201   5.716   1.485
 3647TIP3    H110905   0.157   5.651   1.540
 3647TIP3    H210906   0.184   5.686   1.395
 3648TIP3   OH210907   3.701   1.394   0.149
 3648TIP3    H110908   3.784   1.427   0.184
 3648TIP3    H210909   3.701   1.301   0.171
 3649TIP3   OH210910   6.394   1.276   3.843
 3649TIP3    H110911   6.334   1.211   3.806
 3649TIP3    H210912   6.342   1.323   3.908
 3650TIP3   OH210913   3.908   1.246   3.158
 3650TIP3    H110914   3.823   1.203   3.143
 3650TIP3    H210915   3.960   1.224   3.082
 3651TIP3   OH210916   4.371   4.962   1.395
 3651TIP3    H110917   4.331   4.875   1.399
 3651TIP3    H210918   4.348   5.003   1.479
 3652TIP3   OH210919   5.809   4.981   5.138
 3652TIP3    H110920   5.869   4.911   5.114
 3652TIP3    H210921   5.859   5.062   5.123
 3653TIP3   OH210922   0.361   5.193   0.264
 3653TIP3    H110923   0.366   5.270   0.208
 3653TIP3    H210924   0.349   5.120   0.204
 3654TIP3   OH210925   4.791   2.224   4.876
 3654TIP3    H110926   4.861   2.279   4.841
 3654TIP3    H210927   4.726   2.286   4.909
 3655TIP3   OH210928   6.655   0.008   3.281
 3655TIP3    H110929   6.651   0.103   3.280
 3655TIP3    H210930   6.599  -0.019   3.209
 3656TIP3   OH210931   4.934   5.523   4.425
 3656TIP3    H110932   4.839   5.526   4.412
 3656TIP3    H210933   4.964   5.453   4.367
 3657TIP3   OH210934   0.136   4.736   0.286
 3657TIP3    H110935   0.144   4.828   0.262
 3657TIP3    H210936   0.214   4.695   0.249
 3658TIP3   OH210937   1.218   4.020   0.955
 3658TIP3    H110938   1.241   4.042   0.865
 3658TIP3    H210939   1.179   3.933   0.950
 3659TIP3   OH210940   4.155   3.376   2.181
 3659TIP3    H110941   4.157   3.333   2.267
 3659TIP3    H210942   4.184   3.465   2.198
 3660TIP3   OH210943   2.095   0.271   0.404
 3660TIP3    H110944   2.103   0.307   0.316
 3660TIP3    H210945   2.036   0.196   0.394
 3661TIP3   OH210946   3.798   3.933   5.510
 3661TIP3    H110947   3.863   3.982   5.460
 3661TIP3    H210948   3.798   3.975   5.596
 3662TIP3   OH210949   2.994   5.823   0.054
 3662TIP3    H110950   2.918   5.880   0.040
 3662TIP3    H210951   3.046   5.866   0.121
 3663TIP3   OH210952   4.052   0.876   3.376
 3663TIP3    H110953   4.046   0.934   3.452
 3663TIP3    H210954   3.997   0.917   3.309
 3664TIP3   OH210955   4.238   0.254   5.429
 3664TIP3    H110956   4.218   0.164   5.405
 3664TIP3    H210957   4.308   0.247   5.494
 3665TIP3   OH210958   3.805   5.716   0.999
 3665TIP3    H110959   3.806   5.735   0.906
 3665TIP3    H210960   3.738   5.773   1.036
 3666TIP3   OH210961   5.663   5.123   1.836
 3666TIP3    H110962   5.725   5.095   1.904
 3666TIP3    H210963   5.662   5.219   1.844
 3667TIP3   OH210964   6.407   2.991   2.208
 3667TIP3    H110965   6.315   2.975   2.186
 3667TIP3    H210966   6.453   2.914   2.174
 3668TIP3   OH210967   4.796   6.048   0.730
 3668TIP3    H110968   4.713   6.084   0.700
 3668TIP3    H210969   4.792   5.955   0.707
 3669TIP3   OH210970   2.418   2.509   1.314
 3669TIP3    H110971   2.438   2.423   1.277
 3669TIP3    H210972   2.448   2.571   1.247
 3670TIP3   OH210973   4.095   2.087   4.155
 3670TIP3    H110974   4.156   2.041   4.212
 3670TIP3    H210975   4.145   2.159   4.118
 3671TIP3   OH210976   2.616   6.263   3.893
 3671TIP3    H110977   2.654   6.340   3.851
 3671TIP3    H210978   2.682   6.195   3.881
 3672TIP3   OH210979   1.921   3.603   0.709
 3672TIP3    H110980   1.973   3.539   0.660
 3672TIP3    H210981   1.976   3.628   0.783
 3673TIP3   OH210982   6.042   0.909   1.991
 3673TIP3    H110983   6.084   0.842   1.936
 3673TIP3    H210984   6.063   0.883   2.081
 3674TIP3   OH210985   5.300   2.870   5.575
 3674TIP3    H110986   5.366   2.812   5.537
 3674TIP3    H210987   5.292   2.941   5.511
 3675TIP3   OH210988   5.363   1.893   5.426
 3675TIP3    H110989   5.407   1.808   5.437
 3675TIP3    H210990   5.320   1.908   5.510
 3676TIP3   OH210991   6.036   0.698   5.419
 3676TIP3    H110992   6.090   0.752   5.362
 3676TIP3    H210993   6.039   0.742   5.504
 3677TIP3   OH210994   2.912   3.894   3.926
 3677TIP3    H110995   2.922   3.800   3.911
 3677TIP3    H210996   2.987   3.917   3.980
 3678TIP3   OH210997   7.251   4.789   0.792
 3678TIP3    H110998   7.183   4.817   0.854
 3678TIP3    H210999   7.212   4.803   0.705
 3679TIP3   OH211000   4.805   4.620   1.510
 3679TIP3    H111001   4.778   4.545   1.562
 3679TIP3    H211002   4.878   4.658   1.560
 3680TIP3   OH211003   1.515   5.806   3.528
 3680TIP3    H111004   1.464   5.879   3.561
 3680TIP3    H211005   1.512   5.741   3.598
 3681TIP3   OH211006   2.012   0.787   0.660
 3681TIP3    H111007   2.105   0.768   0.671
 3681TIP3    H211008   2.010   0.869   0.610
 3682TIP3   OH211009   1.090   5.413   4.717
 3682TIP3    H111010   1.109   5.387   4.627
 3682TIP3    H211011   1.131   5.347   4.771
 3683TIP3   OH211012   6.056   5.138   0.912
 3683TIP3    H111013   6.131   5.117   0.856
 3683TIP3    H211014   6.090   5.204   0.973
 3684TIP3   OH211015   4.977   5.010   4.183
 3684TIP3    H111016   4.903   4.949   4.173
 3684TIP3    H211017   4.994   5.011   4.277
 3685TIP3   OH211018   4.746   0.889   5.161
 3685TIP3    H111019   4.667   0.835   5.160
 3685TIP3    H211020   4.768   0.902   5.069
 3686TIP3   OH211021   1.967   0.052   0.252
 3686TIP3    H111022   1.903  -0.016   0.229
 3686TIP3    H211023   1.950   0.122   0.189
 3687TIP3   OH211024   3.800   4.597   2.095
 3687TIP3    H111025   3.849   4.554   2.025
 3687TIP3    H211026   3.848   4.575   2.175
 3688TIP3   OH211027   4.713   4.529   5.361
 3688TIP3    H111028   4.644   4.501   5.421
 3688TIP3    H211029   4.779   4.569   5.418
 3689TIP3   OH211030   3.258   6.197   3.184
 3689TIP3    H111031   3.200   6.246   3.243
 3689TIP3    H211032   3.199   6.144   3.131
 3690TIP3   OH211033   6.148   1.361   0.101
 3690TIP3    H111034   6.178   1.437   0.151
 3690TIP3    H211035   6.226   1.307   0.091
 3691TIP3   OH211036   2.334   3.095   3.206
 3691TIP3    H111037   2.351   3.098   3.301
 3691TIP3    H211038   2.241   3.112   3.199
 3692TIP3   OH211039   6.607   2.222   2.058
 3692TIP3    H111040   6.674   2.252   2.120
 3692TIP3    H211041   6.657   2.190   1.982
 3693TIP3   OH211042   7.044   4.103   5.506
 3693TIP3    H111043   7.130   4.095   5.463
 3693TIP3    H211044   7.010   4.186   5.474
 3694TIP3   OH211045   6.243   4.403   1.224
 3694TIP3    H111046   6.334   4.402   1.194
 3694TIP3    H211047   6.238   4.334   1.290
 3695TIP3   OH211048   2.541   5.442   4.302
 3695TIP3    H111049   2.464   5.492   4.277
 3695TIP3    H211050   2.564   5.475   4.389
 3696TIP3   OH211051   4.332   2.067   4.679
 3696TIP3    H111052   4.359   2.149   4.637
 3696TIP3    H211053   4.389   2.060   4.755
 3697TIP3   OH211054   0.519   0.442   4.541
 3697TIP3    H111055   0.463   0.441   4.463
 3697TIP3    H211056   0.601   0.479   4.512
 3698TIP3   OH211057   1.177   4.422   0.024
 3698TIP3    H111058   1.193   4.342  -0.026
 3698TIP3    H211059   1.191   4.397   0.115
 3699TIP3   OH211060   0.366   1.966   1.689
 3699TIP3    H111061   0.381   1.918   1.607
 3699TIP3    H211062   0.432   1.931   1.749
 3700TIP3   OH211063   4.735   1.219   5.107
 3700TIP3    H111064   4.816   1.176   5.137
 3700TIP3    H211065   4.725   1.294   5.164
 3701TIP3   OH211066   3.828   1.435   3.830
 3701TIP3    H111067   3.881   1.363   3.798
 3701TIP3    H211068   3.889   1.509   3.835
 3702TIP3   OH211069   0.645   6.458   3.934
 3702TIP3    H111070   0.644   6.398   3.859
 3702TIP3    H211071   0.580   6.422   3.994
 3703TIP3   OH211072   6.441   3.030   0.411
 3703TIP3    H111073   6.465   2.942   0.440
 3703TIP3    H211074   6.443   3.082   0.490
 3704TIP3   OH211075   0.666   3.770   3.482
 3704TIP3    H111076   0.593   3.708   3.491
 3704TIP3    H211077   0.741   3.724   3.518
 3705TIP3   OH211078   1.856   4.198   0.962
 3705TIP3    H111079   1.787   4.135   0.942
 3705TIP3    H211080   1.926   4.145   1.001
 3706TIP3   OH211081   2.367   6.765   3.345
 3706TIP3    H111082   2.437   6.759   3.279
 3706TIP3    H211083   2.317   6.685   3.334
 3707TIP3   OH211084   2.282   1.497   4.993
 3707TIP3    H111085   2.353   1.449   4.951
 3707TIP3    H211086   2.279   1.463   5.082
 3708TIP3   OH211087   4.076   5.180   0.194
 3708TIP3    H111088   4.044   5.241   0.260
 3708TIP3    H211089   4.003   5.119   0.181
 3709TIP3   OH211090   5.440   6.738   5.389
 3709TIP3    H111091   5.520   6.749   5.337
 3709TIP3    H211092   5.465   6.675   5.457
 3710TIP3   OH211093   5.313   2.229   0.181
 3710TIP3    H111094   5.383   2.207   0.243
 3710TIP3    H211095   5.342   2.311   0.141
 3711TIP3   OH211096   4.392   3.131   0.894
 3711TIP3    H111097   4.462   3.132   0.958
 3711TIP3    H211098   4.418   3.197   0.830
 3712TIP3   OH211099   6.873   4.785   3.920
 3712TIP3    H111100   6.884   4.821   3.832
 3712TIP3    H211101   6.819   4.707   3.907
 3713TIP3   OH211102   3.658   5.040   2.989
 3713TIP3    H111103   3.572   5.036   3.030
 3713TIP3    H211104   3.640   5.059   2.897
 3714TIP3   OH211105   2.979   5.830   0.771
 3714TIP3    H111106   3.047   5.818   0.837
 3714TIP3    H211107   3.026   5.866   0.695
 3715TIP3   OH211108   6.568   1.126   4.362
 3715TIP3    H111109   6.619   1.181   4.421
 3715TIP3    H211110   6.626   1.111   4.287
 3716TIP3   OH211111   2.237   5.092   4.583
 3716TIP3    H111112   2.257   5.184   4.600
 3716TIP3    H211113   2.184   5.094   4.503
 3717TIP3   OH211114   4.541   3.005   2.526
 3717TIP3    H111115   4.576   3.065   2.461
 3717TIP3    H211116   4.616   2.982   2.581
 3718TIP3   OH211117   0.833   0.797   3.568
 3718TIP3    H111118   0.836   0.723   3.508
 3718TIP3    H211119   0.840   0.874   3.512
 3719TIP3   OH211120   3.686   0.937   1.596
 3719TIP3    H111121   3.634   1.018   1.591
 3719TIP3    H211122   3.774   0.967   1.620
 3720TIP3   OH211123   3.609   3.396   5.236
 3720TIP3    H111124   3.699   3.369   5.249
 3720TIP3    H211125   3.561   3.315   5.221
 3721TIP3   OH211126   1.775   6.450   4.825
 3721TIP3    H111127   1.693   6.415   4.791
 3721TIP3    H211128   1.753   6.538   4.855
 3722TIP3   OH211129   6.510   6.513   5.464
 3722TIP3    H111130   6.497   6.586   5.404
 3722TIP3    H211131   6.424   6.499   5.504
 3723TIP3   OH211132   3.183   3.114   4.068
 3723TIP3    H111133   3.215   3.035   4.025
 3723TIP3    H211134   3.088   3.105   4.069
 3724TIP3   OH211135   5.258   1.135   1.144
 3724TIP3    H111136   5.180   1.180   1.176
 3724TIP3    H211137   5.260   1.052   1.191
 3725TIP3   OH211138   3.086   3.851   3.687
 3725TIP3    H111139   2.994   3.861   3.714
 3725TIP3    H211140   3.081   3.817   3.598
 3726TIP3   OH211141   3.128   3.690   4.887
 3726TIP3    H111142   3.161   3.679   4.798
 3726TIP3    H211143   3.036   3.713   4.876
 3727TIP3   OH211144   4.192  -0.010   0.924
 3727TIP3    H111145   4.225  -0.021   0.835
 3727TIP3    H211146   4.185   0.085   0.936
 3728TIP3   OH211147   0.191   3.085   1.135
 3728TIP3    H111148   0.187   3.180   1.143
 3728TIP3    H211149   0.285   3.065   1.140
 3729TIP3   OH211150   7.103   2.622   5.327
 3729TIP3    H111151   7.192   2.593   5.308
 3729TIP3    H211152   7.107   2.653   5.418
 3730TIP3   OH211153   3.627   3.804   1.359
 3730TIP3    H111154   3.711   3.825   1.400
 3730TIP3    H211155   3.591   3.889   1.334
 3731TIP3   OH211156   1.609   3.373   2.394
 3731TIP3    H111157   1.572   3.353   2.480
 3731TIP3    H211158   1.662   3.452   2.407
 3732TIP3   OH211159   1.354   5.864   2.763
 3732TIP3    H111160   1.284   5.868   2.698
 3732TIP3    H211161   1.399   5.948   2.754
 3733TIP3   OH211162   4.418   6.746   0.796
 3733TIP3    H111163   4.370   6.801   0.734
 3733TIP3    H211164   4.496   6.717   0.749
 3734TIP3   OH211165   1.761   3.778   0.589
 3734TIP3    H111166   1.811   3.700   0.611
 3734TIP3    H211167   1.671   3.747   0.578
 3735TIP3   OH211168   1.943   4.195   5.357
 3735TIP3    H111169   1.927   4.268   5.297
 3735TIP3    H211170   1.882   4.211   5.429
 3736TIP3   OH211171   3.914   3.464   2.036
 3736TIP3    H111172   4.008   3.467   2.054
 3736TIP3    H211173   3.909   3.440   1.943
 3737TIP3   OH211174   1.965   1.098   0.840
 3737TIP3    H111175   1.876   1.114   0.809
 3737TIP3    H211176   2.019   1.162   0.792
 3738TIP3   OH211177   0.581   4.553   1.487
 3738TIP3    H111178   0.593   4.493   1.413
 3738TIP3    H211179   0.627   4.633   1.460
 3739TIP3   OH211180   4.536   1.382   4.707
 3739TIP3    H111181   4.569   1.331   4.781
 3739TIP3    H211182   4.504   1.317   4.645
 3740TIP3   OH211183   5.165   1.350   3.041
 3740TIP3    H111184   5.197   1.398   2.965
 3740TIP3    H211185   5.106   1.283   3.005
 3741TIP3   OH211186   3.163   4.322   2.256
 3741TIP3    H111187   3.115   4.372   2.191
 3741TIP3    H211188   3.095   4.279   2.309
 3742TIP3   OH211189   2.868   4.215   1.212
 3742TIP3    H111190   2.844   4.266   1.290
 3742TIP3    H211191   2.864   4.124   1.241
 3743TIP3   OH211192   2.213   2.865   0.677
 3743TIP3    H111193   2.305   2.854   0.702
 3743TIP3    H211194   2.215   2.868   0.581
 3744TIP3   OH211195   7.027   0.102   3.394
 3744TIP3    H111196   6.976   0.157   3.453
 3744TIP3    H211197   7.103   0.076   3.446
 3745TIP3   OH211198   6.368   2.350   5.291
 3745TIP3    H111199   6.395   2.258   5.294
 3745TIP3    H211200   6.447   2.399   5.313
 3746TIP3   OH211201   0.383   0.774   4.409
 3746TIP3    H111202   0.461   0.729   4.376
 3746TIP3    H211203   0.368   0.844   4.346
 3747TIP3   OH211204   6.293   3.976   5.217
 3747TIP3    H111205   6.198   3.976   5.206
 3747TIP3    H211206   6.328   3.953   5.131
 3748TIP3   OH211207   6.568   0.847   0.612
 3748TIP3    H111208   6.544   0.845   0.705
 3748TIP3    H211209   6.663   0.856   0.612
 3749TIP3   OH211210   3.590   5.148   2.736
 3749TIP3    H111211   3.501   5.169   2.765
 3749TIP3    H211212   3.583   5.060   2.698
 3750TIP3   OH211213   4.340   5.581   1.351
 3750TIP3    H111214   4.433   5.592   1.334
 3750TIP3    H211215   4.297   5.601   1.268
 3751TIP3   OH211216   1.865   5.924   3.753
 3751TIP3    H111217   1.949   5.881   3.736
 3751TIP3    H211218   1.889   6.010   3.788
 3752TIP3   OH211219   6.316   1.609   0.186
 3752TIP3    H111220   6.299   1.627   0.093
 3752TIP3    H211221   6.355   1.690   0.219
 3753TIP3   OH211222   0.764   3.611   1.862
 3753TIP3    H111223   0.749   3.642   1.951
 3753TIP3    H211224   0.765   3.516   1.869
 3754TIP3   OH211225   0.370   1.755   3.274
 3754TIP3    H111226   0.385   1.662   3.258
 3754TIP3    H211227   0.450   1.798   3.244
 3755TIP3   OH211228   2.406   0.106   4.469
 3755TIP3    H111229   2.426   0.019   4.503
 3755TIP3    H211230   2.335   0.138   4.525
 3756TIP3   OH211231   1.914   3.718   1.625
 3756TIP3    H111232   1.909   3.776   1.549
 3756TIP3    H211233   1.843   3.655   1.612
 3757TIP3   OH211234   4.943   2.916   0.757
 3757TIP3    H111235   4.940   2.847   0.822
 3757TIP3    H211236   4.892   2.882   0.683
 3758TIP3   OH211237   3.510   6.766   1.413
 3758TIP3    H111238   3.558   6.805   1.487
 3758TIP3    H211239   3.422   6.749   1.448
 3759TIP3   OH211240   3.653   3.221   4.815
 3759TIP3    H111241   3.731   3.264   4.779
 3759TIP3    H211242   3.684   3.176   4.893
 3760TIP3   OH211243   6.808   4.124   2.255
 3760TIP3    H111244   6.867   4.093   2.324
 3760TIP3    H211245   6.821   4.219   2.254
 3761TIP3   OH211246   5.578   4.928   0.886
 3761TIP3    H111247   5.650   4.981   0.852
 3761TIP3    H211248   5.502   4.955   0.835
 3762TIP3   OH211249   0.888   0.037   3.034
 3762TIP3    H111250   0.807  -0.006   3.062
 3762TIP3    H211251   0.945  -0.035   3.007
 3763TIP3   OH211252   3.558   6.245   4.985
 3763TIP3    H111253   3.544   6.192   4.906
 3763TIP3    H211254   3.594   6.328   4.952
 3764TIP3   OH211255   7.088   3.298   5.577
 3764TIP3    H111256   7.043   3.361   5.521
 3764TIP3    H211257   7.020   3.269   5.639
 3765TIP3   OH211258   4.250   5.065   5.094
 3765TIP3    H111259   4.315   5.023   5.038
 3765TIP3    H211260   4.233   5.001   5.163
 3766TIP3   OH211261   0.693   4.930   0.840
 3766TIP3    H111262   0.773   4.889   0.874
 3766TIP3    H211263   0.624   4.866   0.855
 3767TIP3   OH211264   6.625   6.493   3.167
 3767TIP3    H111265   6.626   6.462   3.257
 3767TIP3    H211266   6.625   6.589   3.174
 3768TIP3   OH211267   6.157   1.401   2.952
 3768TIP3    H111268   6.198   1.488   2.960
 3768TIP3    H211269   6.075   1.418   2.906
 3769TIP3   OH211270   5.968   2.125   2.166
 3769TIP3    H111271   5.971   2.030   2.152
 3769TIP3    H211272   5.878   2.142   2.196
 3770TIP3   OH211273   5.648   1.374   2.386
 3770TIP3    H111274   5.716   1.310   2.367
 3770TIP3    H211275   5.693   1.441   2.438
 3771TIP3   OH211276   1.031   5.958   5.858
 3771TIP3    H111277   1.091   5.958   5.783
 3771TIP3    H211278   1.045   6.042   5.901
 3772TIP3   OH211279   7.018   0.413   3.411
 3772TIP3    H111280   7.095   0.410   3.468
 3772TIP3    H211281   6.943   0.408   3.471
 3773TIP3   OH211282   6.602   3.042   3.681
 3773TIP3    H111283   6.512   3.044   3.716
 3773TIP3    H211284   6.599   2.979   3.610
 3774TIP3   OH211285   0.330   1.439   4.205
 3774TIP3    H111286   0.259   1.401   4.257
 3774TIP3    H211287   0.286   1.492   4.139
 3775TIP3   OH211288   6.865   5.834   1.166
 3775TIP3    H111289   6.866   5.917   1.119
 3775TIP3    H211290   6.772   5.819   1.184
 3776TIP3   OH211291   3.266   1.145   1.366
 3776TIP3    H111292   3.199   1.199   1.323
 3776TIP3    H211293   3.344   1.200   1.369
 3777TIP3   OH211294   2.971   4.892   1.072
 3777TIP3    H111295   2.990   4.804   1.104
 3777TIP3    H211296   2.876   4.898   1.072
 3778TIP3   OH211297   1.968   4.951   1.347
 3778TIP3    H111298   2.057   4.917   1.346
 3778TIP3    H211299   1.971   5.023   1.410
 3779TIP3   OH211300   3.695   6.756   1.106
 3779TIP3    H111301   3.764   6.770   1.041
 3779TIP3    H211302   3.638   6.832   1.098
 3780TIP3   OH211303   5.154   1.380   2.305
 3780TIP3    H111304   5.187   1.340   2.224
 3780TIP3    H211305   5.087   1.319   2.336
 3781TIP3   OH211306   6.230   0.303   2.287
 3781TIP3    H111307   6.141   0.278   2.308
 3781TIP3    H211308   6.274   0.312   2.372
 3782TIP3   OH211309   6.086   2.017   0.943
 3782TIP3    H111310   6.054   1.928   0.959
 3782TIP3    H211311   6.148   2.007   0.870
 3783TIP3   OH211312   6.303   2.074   0.778
 3783TIP3    H111313   6.384   2.073   0.828
 3783TIP3    H211314   6.291   2.165   0.752
 3784TIP3   OH211315   1.256   6.557   5.099
 3784TIP3    H111316   1.225   6.481   5.050
 3784TIP3    H211317   1.348   6.567   5.073
 3785TIP3   OH211318   0.852   1.823   5.383
 3785TIP3    H111319   0.800   1.772   5.446
 3785TIP3    H211320   0.817   1.912   5.390
 3786TIP3   OH211321   3.940   6.133   1.548
 3786TIP3    H111322   3.975   6.045   1.559
 3786TIP3    H211323   4.008   6.190   1.584
 3787TIP3   OH211324   6.622   5.852   3.596
 3787TIP3    H111325   6.675   5.862   3.675
 3787TIP3    H211326   6.548   5.797   3.623
 3788TIP3   OH211327   4.530   4.558   5.836
 3788TIP3    H111328   4.565   4.547   5.747
 3788TIP3    H211329   4.496   4.647   5.837
 3789TIP3   OH211330   3.491   4.432   4.454
 3789TIP3    H111331   3.450   4.397   4.533
 3789TIP3    H211332   3.450   4.384   4.382
 3790TIP3   OH211333   2.203   0.391   2.742
 3790TIP3    H111334   2.142   0.450   2.786
 3790TIP3    H211335   2.147   0.326   2.700
 3791TIP3   OH211336   6.750   1.831   1.051
 3791TIP3    H111337   6.725   1.744   1.021
 3791TIP3    H211338   6.701   1.844   1.132
 3792TIP3   OH211339   5.327   4.288   4.105
 3792TIP3    H111340   5.398   4.325   4.158
 3792TIP3    H211341   5.347   4.314   4.015
 3793TIP3   OH211342   5.625   3.271   1.106
 3793TIP3    H111343   5.705   3.220   1.094
 3793TIP3    H211344   5.567   3.213   1.155
 3794TIP3   OH211345   2.594   6.126   3.321
 3794TIP3    H111346   2.610   6.185   3.395
 3794TIP3    H211347   2.682   6.096   3.295
 3795TIP3   OH211348   3.486   3.418   3.058
 3795TIP3    H111349   3.573   3.380   3.072
 3795TIP3    H211350   3.439   3.402   3.140
 3796TIP3   OH211351   3.992   1.815   3.517
 3796TIP3    H111352   3.931   1.859   3.577
 3796TIP3    H211353   4.048   1.885   3.484
 3797TIP3   OH211354   5.940   4.157   3.946
 3797TIP3    H111355   5.976   4.207   3.872
 3797TIP3    H211356   5.963   4.066   3.927
 3798TIP3   OH211357   3.876   1.384   2.530
 3798TIP3    H111358   3.856   1.313   2.468
 3798TIP3    H211359   3.838   1.355   2.612
 3799TIP3   OH211360   1.720   0.445   5.148
 3799TIP3    H111361   1.771   0.365   5.136
 3799TIP3    H211362   1.679   0.461   5.063
 3800TIP3   OH211363   2.959   3.178   4.485
 3800TIP3    H111364   2.904   3.099   4.490
 3800TIP3    H211365   2.936   3.216   4.400
 3801TIP3   OH211366   2.931   2.883   2.048
 3801TIP3    H111367   2.942   2.923   2.134
 3801TIP3    H211368   3.015   2.840   2.030
 3802TIP3   OH211369   4.466   2.068   5.799
 3802TIP3    H111370   4.539   2.027   5.751
 3802TIP3    H211371   4.471   2.031   5.887
 3803TIP3   OH211372   2.037   5.380   1.492
 3803TIP3    H111373   2.129   5.404   1.499
 3803TIP3    H211374   2.036   5.286   1.508
 3804TIP3   OH211375   1.850   3.739   1.348
 3804TIP3    H111376   1.783   3.700   1.292
 3804TIP3    H211377   1.927   3.747   1.291
 3805TIP3   OH211378   1.760   2.801   1.610
 3805TIP3    H111379   1.813   2.880   1.604
 3805TIP3    H211380   1.788   2.748   1.535
 3806TIP3   OH211381   1.343   3.646   2.610
 3806TIP3    H111382   1.301   3.731   2.616
 3806TIP3    H211383   1.402   3.642   2.686
 3807TIP3   OH211384   2.677   6.556   5.228
 3807TIP3    H111385   2.738   6.629   5.237
 3807TIP3    H211386   2.715   6.486   5.280
 3808TIP3   OH211387   0.709   3.783   3.897
 3808TIP3    H111388   0.740   3.702   3.857
 3808TIP3    H211389   0.622   3.762   3.931
 3809TIP3   OH211390   6.366   0.290   5.416
 3809TIP3    H111391   6.315   0.324   5.343
 3809TIP3    H211392   6.320   0.320   5.494
 3810TIP3   OH211393   1.528   1.335   1.441
 3810TIP3    H111394   1.522   1.240   1.434
 3810TIP3    H211395   1.613   1.351   1.482
 3811TIP3   OH211396   5.705   3.926   0.785
 3811TIP3    H111397   5.662   3.925   0.700
 3811TIP3    H211398   5.716   4.019   0.805
 3812TIP3   OH211399   1.404   0.535   5.201
 3812TIP3    H111400   1.385   0.616   5.154
 3812TIP3    H211401   1.478   0.496   5.154
 3813TIP3   OH211402   6.652   0.028   5.257
 3813TIP3    H111403   6.566  -0.004   5.282
 3813TIP3    H211404   6.651   0.121   5.281
 3814TIP3   OH211405   1.793   1.528   0.082
 3814TIP3    H111406   1.707   1.569   0.090
 3814TIP3    H211407   1.794   1.460   0.150
 3815TIP3   OH211408   5.589   6.373   3.299
 3815TIP3    H111409   5.518   6.315   3.269
 3815TIP3    H211410   5.555   6.461   3.283
 3816TIP3   OH211411   6.487   0.041   1.279
 3816TIP3    H111412   6.482   0.132   1.248
 3816TIP3    H211413   6.396   0.016   1.294
 3817TIP3   OH211414   4.665   2.566   1.817
 3817TIP3    H111415   4.592   2.622   1.789
 3817TIP3    H211416   4.736   2.627   1.837
 3818TIP3   OH211417   4.657   1.822   3.355
 3818TIP3    H111418   4.743   1.859   3.335
 3818TIP3    H211419   4.645   1.754   3.288
 3819TIP3   OH211420   3.738   4.770   5.641
 3819TIP3    H111421   3.759   4.816   5.560
 3819TIP3    H211422   3.692   4.835   5.694
 3820TIP3   OH211423   4.265   4.161   0.927
 3820TIP3    H111424   4.186   4.189   0.974
 3820TIP3    H211425   4.250   4.187   0.837
 3821TIP3   OH211426   1.055   1.021   2.962
 3821TIP3    H111427   1.106   0.979   2.893
 3821TIP3    H211428   1.099   1.105   2.977
 3822TIP3   OH211429   0.596   6.638   1.700
 3822TIP3    H111430   0.547   6.606   1.775
 3822TIP3    H211431   0.533   6.640   1.628
 3823TIP3   OH211432   1.812   0.100   1.618
 3823TIP3    H111433   1.783   0.019   1.576
 3823TIP3    H211434   1.907   0.099   1.608
 3824TIP3   OH211435   5.514   2.115   1.975
 3824TIP3    H111436   5.419   2.130   1.980
 3824TIP3    H211437   5.549   2.199   1.944
 3825TIP3   OH211438   6.574   6.704   1.105
 3825TIP3    H111439   6.585   6.800   1.106
 3825TIP3    H211440   6.583   6.680   1.013
 3826TIP3   OH211441   5.392   0.084   3.606
 3826TIP3    H111442   5.373   0.047   3.692
 3826TIP3    H211443   5.381   0.178   3.617
 3827TIP3   OH211444   0.689   4.635   2.175
 3827TIP3    H111445   0.706   4.689   2.252
 3827TIP3    H211446   0.594   4.636   2.165
 3828TIP3   OH211447   3.279   2.323   4.377
 3828TIP3    H111448   3.334   2.265   4.326
 3828TIP3    H211449   3.218   2.361   4.313
 3829TIP3   OH211450   3.162   6.535   4.645
 3829TIP3    H111451   3.253   6.536   4.676
 3829TIP3    H211452   3.134   6.626   4.650
 3830TIP3   OH211453   1.231   2.587   3.529
 3830TIP3    H111454   1.185   2.661   3.489
 3830TIP3    H211455   1.306   2.572   3.473
 3831TIP3   OH211456   1.229   6.113   3.461
 3831TIP3    H111457   1.257   6.059   3.535
 3831TIP3    H211458   1.192   6.051   3.398
 3832TIP3   OH211459   6.576   2.373   3.585
 3832TIP3    H111460   6.530   2.293   3.609
 3832TIP3    H211461   6.558   2.435   3.656
 3833TIP3   OH211462   4.339   2.284   4.491
 3833TIP3    H111463   4.432   2.274   4.471
 3833TIP3    H211464   4.328   2.378   4.506
 3834TIP3   OH211465   6.782   6.670   4.434
 3834TIP3    H111466   6.815   6.606   4.497
 3834TIP3    H211467   6.697   6.697   4.470
 3835TIP3   OH211468   0.158   3.584   0.257
 3835TIP3    H111469   0.167   3.603   0.163
 3835TIP3    H211470   0.064   3.583   0.272
 3836TIP3   OH211471   6.420   4.450   0.167
 3836TIP3    H111472   6.400   4.358   0.148
 3836TIP3    H211473   6.343   4.481   0.215
 3837TIP3   OH211474   5.163   2.874   2.263
 3837TIP3    H111475   5.183   2.962   2.231
 3837TIP3    H211476   5.192   2.875   2.354
 3838TIP3   OH211477   2.045   1.700   1.009
 3838TIP3    H111478   1.973   1.656   0.964
 3838TIP3    H211479   2.122   1.646   0.990
 3839TIP3   OH211480   4.081   3.376   0.283
 3839TIP3    H111481   4.126   3.445   0.234
 3839TIP3    H211482   4.086   3.299   0.226
 3840TIP3   OH211483   3.937   6.347   4.056
 3840TIP3    H111484   3.894   6.381   4.134
 3840TIP3    H211485   4.026   6.382   4.059
 3841TIP3   OH211486   0.776   4.678   5.162
 3841TIP3    H111487   0.866   4.684   5.131
 3841TIP3    H211488   0.739   4.765   5.146
 3842TIP3   OH211489   3.317   1.529   3.825
 3842TIP3    H111490   3.242   1.578   3.792
 3842TIP3    H211491   3.392   1.566   3.777
 3843TIP3   OH211492   3.066   4.189   2.914
 3843TIP3    H111493   3.152   4.220   2.885
 3843TIP3    H211494   3.086   4.131   2.988
 3844TIP3   OH211495   1.574   1.640   2.970
 3844TIP3    H111496   1.640   1.654   2.901
 3844TIP3    H211497   1.572   1.723   3.017
 3845TIP3   OH211498   5.215   1.698   4.927
 3845TIP3    H111499   5.268   1.715   5.005
 3845TIP3    H211500   5.267   1.636   4.875
 3846TIP3   OH211501   1.941   0.936   2.185
 3846TIP3    H111502   1.958   0.958   2.093
 3846TIP3    H211503   1.991   1.001   2.235
 3847TIP3   OH211504   6.979   5.631   2.815
 3847TIP3    H111505   7.074   5.616   2.821
 3847TIP3    H211506   6.971   5.725   2.797
 3848TIP3   OH211507   1.523   2.596   1.406
 3848TIP3    H111508   1.531   2.691   1.407
 3848TIP3    H211509   1.431   2.579   1.425
 3849TIP3   OH211510   0.486   2.977   3.871
 3849TIP3    H111511   0.429   3.042   3.913
 3849TIP3    H211512   0.455   2.974   3.781
 3850TIP3   OH211513   7.019   0.918   4.536
 3850TIP3    H111514   6.956   0.866   4.486
 3850TIP3    H211515   7.084   0.855   4.565
 3851TIP3   OH211516   0.611   0.810   5.655
 3851TIP3    H111517   0.561   0.824   5.575
 3851TIP3    H211518   0.671   0.739   5.634
 3852TIP3   OH211519   6.779   1.488   5.499
 3852TIP3    H111520   6.787   1.549   5.573
 3852TIP3    H211521   6.737   1.411   5.537
 3853TIP3   OH211522   1.711   1.458   2.662
 3853TIP3    H111523   1.631   1.426   2.704
 3853TIP3    H211524   1.761   1.500   2.732
 3854TIP3   OH211525   1.452   6.443   1.386
 3854TIP3    H111526   1.529   6.449   1.328
 3854TIP3    H211527   1.489   6.432   1.473
 3855TIP3   OH211528   3.502   0.191   0.845
 3855TIP3    H111529   3.478   0.106   0.809
 3855TIP3    H211530   3.420   0.240   0.849
 3856TIP3   OH211531   1.518   4.735   2.318
 3856TIP3    H111532   1.523   4.830   2.309
 3856TIP3    H211533   1.561   4.716   2.402
 3857TIP3   OH211534   3.766   2.866   1.422
 3857TIP3    H111535   3.743   2.907   1.505
 3857TIP3    H211536   3.697   2.892   1.362
 3858TIP3   OH211537   0.857   4.701   1.166
 3858TIP3    H111538   0.946   4.737   1.167
 3858TIP3    H211539   0.866   4.615   1.207
 3859TIP3   OH211540   3.868   2.920   0.376
 3859TIP3    H111541   3.855   2.994   0.316
 3859TIP3    H211542   3.860   2.960   0.463
 3860TIP3   OH211543   4.667   5.942   5.701
 3860TIP3    H111544   4.706   6.004   5.763
 3860TIP3    H211545   4.616   5.997   5.641
 3861TIP3   OH211546   6.302   1.846   1.172
 3861TIP3    H111547   6.230   1.886   1.220
 3861TIP3    H211548   6.283   1.752   1.173
 3862TIP3   OH211549   5.929   5.383   0.373
 3862TIP3    H111550   5.965   5.302   0.407
 3862TIP3    H211551   5.834   5.376   0.389
 3863TIP3   OH211552   3.892   2.657   3.971
 3863TIP3    H111553   3.935   2.651   3.886
 3863TIP3    H211554   3.870   2.749   3.981
 3864TIP3   OH211555   3.535   0.812   1.279
 3864TIP3    H111556   3.527   0.725   1.319
 3864TIP3    H211557   3.478   0.808   1.202
 3865TIP3   OH211558   2.394   3.977   1.487
 3865TIP3    H111559   2.481   3.974   1.526
 3865TIP3    H211560   2.383   4.068   1.460
 3866TIP3   OH211561   1.474   1.002   5.167
 3866TIP3    H111562   1.461   0.907   5.160
 3866TIP3    H211563   1.448   1.036   5.081
 3867TIP3   OH211564   5.092   1.769   5.365
 3867TIP3    H111565   5.150   1.702   5.402
 3867TIP3    H211566   5.117   1.850   5.409
 3868TIP3   OH211567   0.317   1.965   5.418
 3868TIP3    H111568   0.357   2.041   5.461
 3868TIP3    H211569   0.383   1.896   5.426
 3869TIP3   OH211570   5.399   5.471   4.047
 3869TIP3    H111571   5.393   5.553   4.095
 3869TIP3    H211572   5.491   5.446   4.054
 3870TIP3   OH211573   4.015   4.731   4.343
 3870TIP3    H111574   4.003   4.826   4.341
 3870TIP3    H211575   4.027   4.710   4.436
 3871TIP3   OH211576   5.756   1.146   1.474
 3871TIP3    H111577   5.777   1.122   1.384
 3871TIP3    H211578   5.664   1.121   1.485
 3872TIP3   OH211579   4.491   5.131   5.291
 3872TIP3    H111580   4.533   5.217   5.300
 3872TIP3    H211581   4.414   5.147   5.238
 3873TIP3   OH211582   0.894   5.300   1.696
 3873TIP3    H111583   0.820   5.360   1.705
 3873TIP3    H211584   0.935   5.324   1.613
 3874TIP3   OH211585   5.977   4.202   1.079
 3874TIP3    H111586   5.907   4.215   1.016
 3874TIP3    H211587   5.937   4.221   1.164
 3875TIP3   OH211588   2.708   1.301   3.936
 3875TIP3    H111589   2.655   1.302   4.016
 3875TIP3    H211590   2.734   1.209   3.926
 3876TIP3   OH211591   0.415   6.328   3.711
 3876TIP3    H111592   0.394   6.415   3.744
 3876TIP3    H211593   0.478   6.343   3.640
 3877TIP3   OH211594   6.489   1.243   1.095
 3877TIP3    H111595   6.504   1.205   1.008
 3877TIP3    H211596   6.491   1.337   1.081
 3878TIP3   OH211597   0.911   2.047   2.148
 3878TIP3    H111598   0.907   2.025   2.055
 3878TIP3    H211599   0.934   1.965   2.192
 3879TIP3   OH211600   2.061   5.590   5.684
 3879TIP3    H111601   2.072   5.592   5.589
 3879TIP3    H211602   2.100   5.507   5.711
 3880TIP3   OH211603   7.020   5.780   5.783
 3880TIP3    H111604   6.976   5.805   5.864
 3880TIP3    H211605   6.979   5.834   5.716
 3881TIP3   OH211606   6.845   6.621   1.249
 3881TIP3    H111607   6.754   6.651   1.253
 3881TIP3    H211608   6.896   6.693   1.285
 3882TIP3   OH211609   2.559   3.810   3.121
 3882TIP3    H111610   2.637   3.855   3.153
 3882TIP3    H211611   2.579   3.717   3.129
 3883TIP3   OH211612   1.685   1.169   4.521
 3883TIP3    H111613   1.762   1.200   4.568
 3883TIP3    H211614   1.651   1.246   4.476
 3884TIP3   OH211615   1.100   1.797   1.866
 3884TIP3    H111616   1.189   1.823   1.843
 3884TIP3    H211617   1.044   1.841   1.802
 3885TIP3   OH211618   0.641   2.274   0.232
 3885TIP3    H111619   0.609   2.185   0.244
 3885TIP3    H211620   0.606   2.322   0.307
 3886TIP3   OH211621   0.568   6.401   3.494
 3886TIP3    H111622   0.634   6.447   3.545
 3886TIP3    H211623   0.617   6.355   3.426
 3887TIP3   OH211624   3.501   3.150   0.494
 3887TIP3    H111625   3.465   3.237   0.516
 3887TIP3    H211626   3.589   3.150   0.532
 3888TIP3   OH211627   6.430   2.702   3.100
 3888TIP3    H111628   6.377   2.628   3.130
 3888TIP3    H211629   6.404   2.713   3.008
 3889TIP3   OH211630   4.734   4.758   0.560
 3889TIP3    H111631   4.737   4.849   0.530
 3889TIP3    H211632   4.781   4.709   0.494
 3890TIP3   OH211633   3.273   1.434   5.644
 3890TIP3    H111634   3.340   1.378   5.603
 3890TIP3    H211635   3.311   1.461   5.727
 3891TIP3   OH211636   3.152   6.319   1.048
 3891TIP3    H111637   3.231   6.320   0.993
 3891TIP3    H211638   3.147   6.229   1.080
 3892TIP3   OH211639   2.789   6.128   0.525
 3892TIP3    H111640   2.842   6.174   0.460
 3892TIP3    H211641   2.713   6.184   0.538
 3893TIP3   OH211642   4.026   1.091   2.466
 3893TIP3    H111643   4.061   1.139   2.541
 3893TIP3    H211644   4.101   1.075   2.409
 3894TIP3   OH211645   2.925   6.447   2.220
 3894TIP3    H111646   2.912   6.378   2.155
 3894TIP3    H211647   2.944   6.400   2.301
 3895TIP3   OH211648   3.048   5.334   5.220
 3895TIP3    H111649   3.040   5.293   5.134
 3895TIP3    H211650   3.103   5.273   5.270
 3896TIP3   OH211651   5.173   5.061   0.438
 3896TIP3    H111652   5.126   4.978   0.446
 3896TIP3    H211653   5.111   5.126   0.471
 3897TIP3   OH211654   3.046   4.127   3.202
 3897TIP3    H111655   3.053   4.223   3.197
 3897TIP3    H211656   3.133   4.098   3.230
 3898TIP3   OH211657   2.639   3.653   3.705
 3898TIP3    H111658   2.709   3.698   3.658
 3898TIP3    H211659   2.669   3.650   3.796
 3899TIP3   OH211660   0.751   0.372   1.160
 3899TIP3    H111661   0.773   0.375   1.253
 3899TIP3    H211662   0.828   0.409   1.116
 3900TIP3   OH211663   0.898   2.328   2.250
 3900TIP3    H111664   0.866   2.328   2.340
 3900TIP3    H211665   0.897   2.235   2.224
 3901TIP3   OH211666   3.992   5.446   0.750
 3901TIP3    H111667   4.056   5.466   0.681
 3901TIP3    H211668   4.042   5.397   0.815
 3902TIP3   OH211669   6.967   0.815   3.028
 3902TIP3    H111670   7.028   0.769   2.970
 3902TIP3    H211671   7.005   0.807   3.115
 3903TIP3   OH211672   3.419   4.724   3.106
 3903TIP3    H111673   3.406   4.811   3.069
 3903TIP3    H211674   3.487   4.736   3.172
 3904TIP3   OH211675   1.164   4.906   0.986
 3904TIP3    H111676   1.170   4.996   0.954
 3904TIP3    H211677   1.246   4.865   0.958
 3905TIP3   OH211678   1.082   1.627   4.740
 3905TIP3    H111679   1.168   1.666   4.756
 3905TIP3    H211680   1.021   1.701   4.743
 3906TIP3   OH211681   1.933   5.864   2.980
 3906TIP3    H111682   2.025   5.890   2.986
 3906TIP3    H211683   1.929   5.807   2.903
 3907TIP3   OH211684   5.336   3.711   0.884
 3907TIP3    H111685   5.423   3.672   0.890
 3907TIP3    H211686   5.336   3.760   0.802
 3908TIP3   OH211687   5.767   0.849   4.214
 3908TIP3    H111688   5.694   0.798   4.177
 3908TIP3    H211689   5.727   0.901   4.283
 3909TIP3   OH211690   0.308   1.370   2.085
 3909TIP3    H111691   0.368   1.443   2.071
 3909TIP3    H211692   0.302   1.362   2.180
 3910TIP3   OH211693   4.548   5.712   2.950
 3910TIP3    H111694   4.504   5.662   3.019
 3910TIP3    H211695   4.571   5.796   2.992
 3911TIP3   OH211696   4.918   4.805   5.358
 3911TIP3    H111697   4.921   4.784   5.265
 3911TIP3    H211698   4.841   4.861   5.368
 3912TIP3   OH211699   2.932   6.028   4.609
 3912TIP3    H111700   2.996   6.096   4.628
 3912TIP3    H211701   2.910   5.990   4.694
 3913TIP3   OH211702   1.316   6.733   1.611
 3913TIP3    H111703   1.290   6.731   1.518
 3913TIP3    H211704   1.264   6.804   1.648
 3914TIP3   OH211705   3.289   6.638   5.800
 3914TIP3    H111706   3.238   6.707   5.758
 3914TIP3    H211707   3.281   6.655   5.894
 3915TIP3   OH211708   6.731   6.239   4.588
 3915TIP3    H111709   6.773   6.180   4.650
 3915TIP3    H211710   6.758   6.207   4.502
 3916TIP3   OH211711   2.505   3.863   0.593
 3916TIP3    H111712   2.544   3.788   0.638
 3916TIP3    H211713   2.580   3.919   0.571
 3917TIP3   OH211714   3.502   0.537   3.000
 3917TIP3    H111715   3.569   0.606   2.997
 3917TIP3    H211716   3.516   0.486   2.920
 3918TIP3   OH211717   0.258   2.278   5.214
 3918TIP3    H111718   0.247   2.183   5.206
 3918TIP3    H211719   0.284   2.307   5.127
 3919TIP3   OH211720   4.506   5.571   1.703
 3919TIP3    H111721   4.432   5.524   1.741
 3919TIP3    H211722   4.524   5.642   1.765
 3920TIP3   OH211723   6.997   6.158   5.413
 3920TIP3    H111724   6.919   6.138   5.361
 3920TIP3    H211725   7.070   6.137   5.356
 3921TIP3   OH211726   2.009   4.935   2.592
 3921TIP3    H111727   1.973   5.000   2.652
 3921TIP3    H211728   2.010   4.854   2.643
 3922TIP3   OH211729   4.156   2.540   2.035
 3922TIP3    H111730   4.225   2.605   2.048
 3922TIP3    H211731   4.193   2.478   1.972
 3923TIP3   OH211732   5.521   1.814   2.177
 3923TIP3    H111733   5.551   1.819   2.086
 3923TIP3    H211734   5.474   1.731   2.182
 3924TIP3   OH211735   5.288   5.226   4.125
 3924TIP3    H111736   5.360   5.169   4.098
 3924TIP3    H211737   5.331   5.304   4.161
 3925TIP3   OH211738   7.123   1.345   5.682
 3925TIP3    H111739   7.051   1.408   5.694
 3925TIP3    H211740   7.079   1.265   5.652
 3926TIP3   OH211741   4.965   2.406   2.039
 3926TIP3    H111742   4.930   2.424   2.127
 3926TIP3    H211743   5.009   2.487   2.013
 3927TIP3   OH211744   3.498   0.336   4.497
 3927TIP3    H111745   3.550   0.379   4.429
 3927TIP3    H211746   3.549   0.259   4.521
 3928TIP3   OH211747   5.549   2.381   1.873
 3928TIP3    H111748   5.507   2.462   1.845
 3928TIP3    H211749   5.640   2.391   1.846
 3929TIP3   OH211750   4.463   1.331   2.800
 3929TIP3    H111751   4.413   1.412   2.814
 3929TIP3    H211752   4.466   1.289   2.886
 3930TIP3   OH211753   5.301   2.892   1.279
 3930TIP3    H111754   5.245   2.897   1.356
 3930TIP3    H211755   5.326   2.982   1.261
 3931TIP3   OH211756   6.646   5.311   2.479
 3931TIP3    H111757   6.553   5.335   2.482
 3931TIP3    H211758   6.690   5.386   2.518
 3932TIP3   OH211759   3.177   1.386   3.327
 3932TIP3    H111760   3.260   1.374   3.372
 3932TIP3    H211761   3.134   1.301   3.332
 3933TIP3   OH211762   0.061   2.211   3.272
 3933TIP3    H111763  -0.034   2.201   3.275
 3933TIP3    H211764   0.085   2.182   3.184
 3934TIP3   OH211765   1.091   1.376   1.169
 3934TIP3    H111766   1.164   1.436   1.182
 3934TIP3    H211767   1.060   1.356   1.257
 3935TIP3   OH211768   2.825   6.419   4.984
 3935TIP3    H111769   2.763   6.451   5.049
 3935TIP3    H211770   2.778   6.426   4.901
 3936TIP3   OH211771   2.188   2.446   0.536
 3936TIP3    H111772   2.128   2.436   0.462
 3936TIP3    H211773   2.264   2.491   0.500
 3937TIP3   OH211774   5.349   6.197   1.250
 3937TIP3    H111775   5.317   6.145   1.324
 3937TIP3    H211776   5.269   6.233   1.210
 3938TIP3   OH211777   1.551   5.057   2.001
 3938TIP3    H111778   1.550   5.125   1.933
 3938TIP3    H211779   1.471   5.072   2.051
 3939TIP3   OH211780   2.366   0.076   5.376
 3939TIP3    H111781   2.384   0.153   5.321
 3939TIP3    H211782   2.433   0.080   5.444
 3940TIP3   OH211783   2.034   3.238   3.702
 3940TIP3    H111784   1.957   3.198   3.742
 3940TIP3    H211785   1.999   3.309   3.649
 3941TIP3   OH211786   6.577   4.567   1.503
 3941TIP3    H111787   6.512   4.610   1.447
 3941TIP3    H211788   6.551   4.474   1.502
 3942TIP3   OH211789   6.328   5.619   2.580
 3942TIP3    H111790   6.367   5.616   2.667
 3942TIP3    H211791   6.242   5.658   2.593
 3943TIP3   OH211792   5.063   3.444   0.586
 3943TIP3    H111793   5.076   3.498   0.664
 3943TIP3    H211794   5.086   3.355   0.615
 3944TIP3   OH211795   4.364   0.234   1.552
 3944TIP3    H111796   4.275   0.215   1.521
 3944TIP3    H211797   4.409   0.272   1.476
 3945TIP3   OH211798   2.927   5.846   2.392
 3945TIP3    H111799   2.922   5.790   2.314
 3945TIP3    H211800   2.955   5.931   2.358
 3946TIP3   OH211801   1.563   6.128   2.856
 3946TIP3    H111802   1.552   6.060   2.923
 3946TIP3    H211803   1.634   6.183   2.890
 3947TIP3   OH211804   2.504   1.522   3.745
 3947TIP3    H111805   2.569   1.578   3.788
 3947TIP3    H211806   2.504   1.441   3.796
 3948TIP3   OH211807   0.485   3.504   3.757
 3948TIP3    H111808   0.578   3.525   3.759
 3948TIP3    H211809   0.482   3.409   3.750
 3949TIP3   OH211810   5.532   5.168   2.088
 3949TIP3    H111811   5.612   5.216   2.111
 3949TIP3    H211812   5.461   5.218   2.128
 3950TIP3   OH211813   4.069   3.011   4.695
 3950TIP3    H111814   3.977   2.984   4.695
 3950TIP3    H211815   4.071   3.087   4.753
 3951TIP3   OH211816   0.457   6.415   4.141
 3951TIP3    H111817   0.470   6.498   4.185
 3951TIP3    H211818   0.483   6.349   4.205
 3952TIP3   OH211819   5.046   6.224   4.505
 3952TIP3    H111820   5.000   6.208   4.588
 3952TIP3    H211821   5.123   6.168   4.509
 3953TIP3   OH211822   3.513   2.380   3.397
 3953TIP3    H111823   3.570   2.435   3.452
 3953TIP3    H211824   3.570   2.309   3.367
 3954TIP3   OH211825   2.927   1.576   4.676
 3954TIP3    H111826   2.992   1.643   4.654
 3954TIP3    H211827   2.948   1.503   4.619
 3955TIP3   OH211828   3.432   1.209   2.153
 3955TIP3    H111829   3.434   1.268   2.078
 3955TIP3    H211830   3.350   1.160   2.143
 3956TIP3   OH211831   1.934   4.708   2.976
 3956TIP3    H111832   1.872   4.637   2.959
 3956TIP3    H211833   1.885   4.788   2.955
 3957TIP3   OH211834   1.492   6.776   4.191
 3957TIP3    H111835   1.397   6.777   4.195
 3957TIP3    H211836   1.517   6.695   4.236
 3958TIP3   OH211837   5.114   3.215   2.800
 3958TIP3    H111838   5.028   3.179   2.779
 3958TIP3    H211839   5.143   3.167   2.878
 3959TIP3   OH211840   0.022   5.028   1.402
 3959TIP3    H111841   0.037   5.108   1.452
 3959TIP3    H211842   0.012   5.059   1.311
 3960TIP3   OH211843   4.051   1.907   0.520
 3960TIP3    H111844   4.143   1.929   0.510
 3960TIP3    H211845   4.006   1.959   0.453
 3961TIP3   OH211846   3.361   0.238   1.989
 3961TIP3    H111847   3.382   0.243   2.083
 3961TIP3    H211848   3.321   0.152   1.978
 3962TIP3   OH211849   4.486   0.464   5.649
 3962TIP3    H111850   4.437   0.492   5.572
 3962TIP3    H211851   4.419   0.443   5.714
 3963TIP3   OH211852   5.965   1.156   0.879
 3963TIP3    H111853   5.938   1.097   0.950
 3963TIP3    H211854   5.991   1.237   0.924
 3964TIP3   OH211855   0.063   6.419   4.520
 3964TIP3    H111856  -0.032   6.425   4.508
 3964TIP3    H211857   0.096   6.500   4.479
 3965TIP3   OH211858   5.360   6.218   3.669
 3965TIP3    H111859   5.369   6.123   3.672
 3965TIP3    H211860   5.438   6.251   3.713
 3966TIP3   OH211861   1.532   3.467   5.121
 3966TIP3    H111862   1.596   3.524   5.079
 3966TIP3    H211863   1.584   3.394   5.154
 3967TIP3   OH211864   1.813   3.972   0.765
 3967TIP3    H111865   1.775   3.894   0.726
 3967TIP3    H211866   1.757   4.044   0.736
 3968TIP3   OH211867   3.983   2.517   3.475
 3968TIP3    H111868   4.002   2.572   3.399
 3968TIP3    H211869   4.025   2.433   3.455
 3969TIP3   OH211870   1.429   1.420   3.052
 3969TIP3    H111871   1.495   1.488   3.039
 3969TIP3    H211872   1.345   1.465   3.044
 3970TIP3   OH211873   2.743   0.685   4.075
 3970TIP3    H111874   2.823   0.652   4.114
 3970TIP3    H211875   2.751   0.780   4.080
 3971TIP3   OH211876   0.968   3.181   0.538
 3971TIP3    H111877   0.989   3.155   0.448
 3971TIP3    H211878   0.894   3.241   0.529
 3972TIP3   OH211879   1.956   3.562   4.725
 3972TIP3    H111880   2.025   3.596   4.782
 3972TIP3    H211881   1.967   3.609   4.642
 3973TIP3   OH211882   5.481   0.238   5.212
 3973TIP3    H111883   5.549   0.239   5.144
 3973TIP3    H211884   5.445   0.327   5.209
 3974TIP3   OH211885   1.240   2.930   3.582
 3974TIP3    H111886   1.242   2.920   3.677
 3974TIP3    H211887   1.332   2.924   3.555
 3975TIP3   OH211888   4.216   2.303   0.331
 3975TIP3    H111889   4.160   2.233   0.366
 3975TIP3    H211890   4.220   2.284   0.237
 3976TIP3   OH211891   5.120   4.606   3.386
 3976TIP3    H111892   5.189   4.670   3.370
 3976TIP3    H211893   5.116   4.555   3.305
 3977TIP3   OH211894   4.966   0.863   0.137
 3977TIP3    H111895   4.966   0.877   0.042
 3977TIP3    H211896   4.881   0.822   0.154
 3978TIP3   OH211897   6.300   5.088   5.584
 3978TIP3    H111898   6.385   5.046   5.572
 3978TIP3    H211899   6.319   5.168   5.633
 3979TIP3   OH211900   5.563   2.500   3.427
 3979TIP3    H111901   5.559   2.408   3.453
 3979TIP3    H211902   5.657   2.518   3.419
 3980TIP3   OH211903   1.381   5.286   0.412
 3980TIP3    H111904   1.430   5.204   0.419
 3980TIP3    H211905   1.312   5.278   0.477
 3981TIP3   OH211906   1.370   2.283   4.835
 3981TIP3    H111907   1.364   2.206   4.777
 3981TIP3    H211908   1.284   2.325   4.827
 3982TIP3   OH211909   6.844   5.918   2.779
 3982TIP3    H111910   6.938   5.934   2.772
 3982TIP3    H211911   6.807   5.956   2.699
 3983TIP3   OH211912   4.966   5.530   5.587
 3983TIP3    H111913   4.937   5.598   5.647
 3983TIP3    H211914   4.927   5.554   5.502
 3984TIP3   OH211915   2.722   2.741   4.471
 3984TIP3    H111916   2.786   2.749   4.399
 3984TIP3    H211917   2.637   2.743   4.427
 3985TIP3   OH211918   4.222   6.622   3.819
 3985TIP3    H111919   4.161   6.696   3.810
 3985TIP3    H211920   4.205   6.569   3.741
 3986TIP3   OH211921   3.301   2.388   4.833
 3986TIP3    H111922   3.364   2.322   4.803
 3986TIP3    H211923   3.287   2.443   4.757
 3987TIP3   OH211924   6.453   2.285   3.147
 3987TIP3    H111925   6.422   2.308   3.060
 3987TIP3    H211926   6.413   2.199   3.164
 3988TIP3   OH211927   3.422   2.758   1.432
 3988TIP3    H111928   3.339   2.789   1.396
 3988TIP3    H211929   3.417   2.776   1.526
 3989TIP3   OH211930   3.644   2.521   2.054
 3989TIP3    H111931   3.666   2.611   2.033
 3989TIP3    H211932   3.724   2.472   2.037
 3990TIP3   OH211933   1.155   6.739   0.335
 3990TIP3    H111934   1.240   6.730   0.378
 3990TIP3    H211935   1.096   6.768   0.405
 3991TIP3   OH211936   4.404   5.588   2.495
 3991TIP3    H111937   4.463   5.537   2.551
 3991TIP3    H211938   4.365   5.653   2.554
 3992TIP3   OH211939   3.297   4.945   0.733
 3992TIP3    H111940   3.235   4.968   0.802
 3992TIP3    H211941   3.283   5.011   0.666
 3993TIP3   OH211942   6.583   4.657   5.095
 3993TIP3    H111943   6.669   4.640   5.058
 3993TIP3    H211944   6.558   4.743   5.061
 3994TIP3   OH211945   3.575   0.046   5.298
 3994TIP3    H111946   3.544   0.083   5.215
 3994TIP3    H211947   3.496   0.039   5.352
 3995TIP3   OH211948   1.597   5.597   5.353
 3995TIP3    H111949   1.673   5.645   5.320
 3995TIP3    H211950   1.611   5.594   5.448
 3996TIP3   OH211951   1.689   6.522   5.765
 3996TIP3    H111952   1.658   6.530   5.675
 3996TIP3    H211953   1.688   6.428   5.782
 3997TIP3   OH211954   1.122   6.163   4.182
 3997TIP3    H111955   1.068   6.167   4.261
 3997TIP3    H211956   1.074   6.216   4.118
 3998TIP3   OH211957   6.548   3.505   0.868
 3998TIP3    H111958   6.596   3.448   0.809
 3998TIP3    H211959   6.616   3.548   0.920
 3999TIP3   OH211960   3.940   5.997   0.096
 3999TIP3    H111961   3.849   5.980   0.122
 3999TIP3    H211962   3.972   5.913   0.064
 4000TIP3   OH211963   6.857   6.579   5.656
 4000TIP3    H111964   6.911   6.511   5.615
 4000TIP3    H211965   6.842   6.643   5.587
 4001TIP3   OH211966   3.410   3.400   0.459
 4001TIP3    H111967   3.317   3.419   0.464
 4001TIP3    H211968   3.450   3.484   0.435
 4002TIP3   OH211969   0.135   0.518   4.428
 4002TIP3    H111970   0.099   0.553   4.510
 4002TIP3    H211971   0.068   0.459   4.395
 4003TIP3   OH211972   1.726   6.546   4.165
 4003TIP3    H111973   1.709   6.494   4.086
 4003TIP3    H211974   1.645   6.540   4.215
 4004TIP3   OH211975   5.111   5.489   4.016
 4004TIP3    H111976   5.058   5.411   4.033
 4004TIP3    H211977   5.199   5.464   4.045
 4005TIP3   OH211978   5.457   0.557   0.774
 4005TIP3    H111979   5.417   0.584   0.691
 4005TIP3    H211980   5.486   0.638   0.814
 4006TIP3   OH211981   2.367   2.548   0.372
 4006TIP3    H111982   2.370   2.624   0.313
 4006TIP3    H211983   2.386   2.473   0.316
 4007TIP3   OH211984   0.009   6.703   5.022
 4007TIP3    H111985   0.100   6.728   5.037
 4007TIP3    H211986   0.012   6.609   5.007
 4008TIP3   OH211987   0.417   2.985   5.449
 4008TIP3    H111988   0.386   3.062   5.402
 4008TIP3    H211989   0.342   2.926   5.451
 4009TIP3   OH211990   2.790   6.377   5.821
 4009TIP3    H111991   2.783   6.464   5.782
 4009TIP3    H211992   2.883   6.368   5.844
 4010TIP3   OH211993   6.668   1.029   0.367
 4010TIP3    H111994   6.727   0.976   0.420
 4010TIP3    H211995   6.601   0.968   0.336
 4011TIP3   OH211996   3.650   0.712   0.395
 4011TIP3    H111997   3.711   0.674   0.459
 4011TIP3    H211998   3.640   0.644   0.329
 4012TIP3   OH211999   5.820   3.248   1.694
 4012TIP3    H112000   5.829   3.171   1.751
 4012TIP3    H212001   5.736   3.236   1.650
 4013TIP3   OH212002   5.985   5.483   5.306
 4013TIP3    H112003   6.054   5.453   5.365
 4013TIP3    H212004   5.950   5.561   5.348
 4014TIP3   OH212005   5.227   5.868   3.869
 4014TIP3    H112006   5.153   5.808   3.856
 4014TIP3    H212007   5.200   5.923   3.943
 4015TIP3   OH212008   7.216   1.260   5.213
 4015TIP3    H112009   7.125   1.249   5.239
 4015TIP3    H212010   7.261   1.291   5.292
 4016TIP3   OH212011   2.624   3.748   0.184
 4016TIP3    H112012   2.541   3.715   0.150
 4016TIP3    H212013   2.690   3.695   0.140
 4017TIP3   OH212014   1.693   1.140   2.263
 4017TIP3    H112015   1.768   1.145   2.203
 4017TIP3    H212016   1.673   1.047   2.269
 4018TIP3   OH212017   2.437   1.204   2.059
 4018TIP3    H112018   2.352   1.249   2.059
 4018TIP3    H212019   2.444   1.167   1.972
 4019TIP3   OH212020   4.998   3.628   4.801
 4019TIP3    H112021   5.085   3.628   4.760
 4019TIP3    H212022   5.008   3.682   4.879
 4020TIP3   OH212023   4.848   3.710   1.248
 4020TIP3    H112024   4.790   3.670   1.184
 4020TIP3    H212025   4.802   3.701   1.331
 4021TIP3   OH212026   0.404   2.287   3.174
 4021TIP3    H112027   0.407   2.274   3.079
 4021TIP3    H212028   0.437   2.376   3.187
 4022TIP3   OH212029   2.273   4.439   4.684
 4022TIP3    H112030   2.231   4.355   4.702
 4022TIP3    H212031   2.298   4.471   4.771
 4023TIP3   OH212032   0.735   1.347   3.038
 4023TIP3    H112033   0.750   1.253   3.031
 4023TIP3    H212034   0.640   1.357   3.028
 4024TIP3   OH212035   3.964   6.556   4.730
 4024TIP3    H112036   3.901   6.605   4.781
 4024TIP3    H212037   3.953   6.465   4.758
 4025TIP3   OH212038   5.132   0.097   0.210
 4025TIP3    H112039   5.171   0.035   0.148
 4025TIP3    H212040   5.040   0.102   0.183
 4026TIP3   OH212041   2.470   5.231   0.999
 4026TIP3    H112042   2.511   5.246   1.084
 4026TIP3    H212043   2.542   5.208   0.941
 4027TIP3   OH212044   6.696   2.548   0.799
 4027TIP3    H112045   6.786   2.524   0.824
 4027TIP3    H212046   6.686   2.513   0.711
 4028TIP3   OH212047   0.460   3.781   1.617
 4028TIP3    H112048   0.389   3.720   1.639
 4028TIP3    H212049   0.434   3.817   1.532
 4029TIP3   OH212050   3.782   1.033   4.990
 4029TIP3    H112051   3.748   0.966   5.049
 4029TIP3    H212052   3.705   1.083   4.963
 4030TIP3   OH212053   4.481   5.171   1.162
 4030TIP3    H112054   4.504   5.138   1.075
 4030TIP3    H212055   4.529   5.115   1.222
 4031TIP3   OH212056   0.650   2.549   5.607
 4031TIP3    H112057   0.640   2.628   5.553
 4031TIP3    H212058   0.720   2.572   5.668
 4032TIP3   OH212059   5.860   3.590   2.972
 4032TIP3    H112060   5.766   3.603   2.978
 4032TIP3    H212061   5.872   3.496   2.978
 4033TIP3   OH212062   2.011   1.929   3.104
 4033TIP3    H112063   2.015   1.852   3.048
 4033TIP3    H212064   2.038   1.897   3.190
 4034TIP3   OH212065   2.884   3.217   2.376
 4034TIP3    H112066   2.852   3.270   2.304
 4034TIP3    H212067   2.965   3.260   2.403
 4035TIP3   OH212068   1.571   6.345   4.693
 4035TIP3    H112069   1.592   6.365   4.602
 4035TIP3    H212070   1.478   6.368   4.702
 4036TIP3   OH212071   1.215   4.290   5.831
 4036TIP3    H112072   1.233   4.383   5.816
 4036TIP3    H212073   1.258   4.246   5.757
 4037TIP3   OH212074   0.843   1.432   2.634
 4037TIP3    H112075   0.885   1.361   2.682
 4037TIP3    H212076   0.793   1.480   2.700
 4038TIP3   OH212077   6.866   6.401   5.037
 4038TIP3    H112078   6.830   6.429   5.121
 4038TIP3    H212079   6.936   6.340   5.060
 4039TIP3   OH212080   0.404   4.076   2.093
 4039TIP3    H112081   0.378   4.014   2.024
 4039TIP3    H212082   0.338   4.146   2.088
 4040TIP3   OH212083   1.931   3.462   1.416
 4040TIP3    H112084   1.961   3.491   1.329
 4040TIP3    H212085   1.850   3.510   1.430
 4041TIP3   OH212086   6.471   5.269   1.390
 4041TIP3    H112087   6.530   5.265   1.315
 4041TIP3    H212088   6.515   5.326   1.453
 4042TIP3   OH212089   0.770   0.668   1.369
 4042TIP3    H112090   0.806   0.721   1.440
 4042TIP3    H212091   0.782   0.722   1.291
 4043TIP3   OH212092   2.270   2.773   2.912
 4043TIP3    H112093   2.180   2.801   2.891
 4043TIP3    H212094   2.316   2.854   2.930
 4044TIP3   OH212095   0.916   3.636   3.377
 4044TIP3    H112096   0.929   3.674   3.291
 4044TIP3    H212097   0.850   3.568   3.363
 4045TIP3   OH212098   4.378   1.622   0.317
 4045TIP3    H112099   4.322   1.545   0.314
 4045TIP3    H212100   4.460   1.593   0.276
 4046TIP3   OH212101   3.686   2.186   3.307
 4046TIP3    H112102   3.658   2.141   3.227
 4046TIP3    H212103   3.773   2.152   3.324
 4047TIP3   OH212104   6.121   1.197   1.618
 4047TIP3    H112105   6.069   1.167   1.693
 4047TIP3    H212106   6.190   1.250   1.656
 4048TIP3   OH212107   0.117   5.531   3.833
 4048TIP3    H112108   0.168   5.499   3.908
 4048TIP3    H212109   0.157   5.615   3.811
 4049TIP3   OH212110   7.159   5.108   1.138
 4049TIP3    H112111   7.073   5.152   1.137
 4049TIP3    H212112   7.220   5.176   1.164
 4050TIP3   OH212113   6.790   4.512   3.027
 4050TIP3    H112114   6.856   4.581   3.035
 4050TIP3    H212115   6.707   4.558   3.030
 4051TIP3   OH212116   3.141   4.263   4.823
 4051TIP3    H112117   3.116   4.171   4.827
 4051TIP3    H212118   3.220   4.268   4.876
 4052TIP3   OH212119   1.433   2.678   2.935
 4052TIP3    H112120   1.424   2.619   2.861
 4052TIP3    H212121   1.508   2.645   2.984
 4053TIP3   OH212122   3.977   4.575   5.394
 4053TIP3    H112123   3.973   4.588   5.300
 4053TIP3    H212124   4.062   4.534   5.410
 4054TIP3   OH212125   2.827   6.629   2.033
 4054TIP3    H112126   2.853   6.564   2.098
 4054TIP3    H212127   2.908   6.672   2.008
 4055TIP3   OH212128   1.870   5.409   4.345
 4055TIP3    H112129   1.804   5.469   4.308
 4055TIP3    H212130   1.921   5.463   4.405
 4056TIP3   OH212131   2.898   1.651   0.410
 4056TIP3    H112132   2.969   1.706   0.377
 4056TIP3    H212133   2.838   1.712   0.452
 4057TIP3   OH212134   5.059   0.046   0.478
 4057TIP3    H112135   5.074   0.066   0.385
 4057TIP3    H212136   4.987   0.105   0.503
 4058TIP3   OH212137   3.470   6.534   1.714
 4058TIP3    H112138   3.395   6.479   1.737
 4058TIP3    H212139   3.519   6.482   1.650
 4059TIP3   OH212140   6.199   6.563   0.810
 4059TIP3    H112141   6.181   6.502   0.882
 4059TIP3    H212142   6.133   6.632   0.820
 4060TIP3   OH212143   1.419   2.099   4.584
 4060TIP3    H112144   1.326   2.119   4.578
 4060TIP3    H212145   1.445   2.079   4.494
 4061TIP3   OH212146   1.012   1.212   3.842
 4061TIP3    H112147   1.047   1.151   3.777
 4061TIP3    H212148   0.924   1.233   3.811
 4062TIP3   OH212149   0.089   3.723   5.024
 4062TIP3    H112150   0.175   3.759   5.044
 4062TIP3    H212151   0.028   3.775   5.076
 4063TIP3   OH212152   1.585   1.588   4.881
 4063TIP3    H112153   1.636   1.632   4.813
 4063TIP3    H212154   1.620   1.623   4.963
 4064TIP3   OH212155   1.663   0.820   1.569
 4064TIP3    H112156   1.726   0.753   1.596
 4064TIP3    H212157   1.579   0.788   1.604
 4065TIP3   OH212158   2.587   3.066   3.133
 4065TIP3    H112159   2.498   3.031   3.131
 4065TIP3    H212160   2.590   3.121   3.211
 4066TIP3   OH212161   4.061   5.001   2.646
 4066TIP3    H112162   4.033   5.082   2.689
 4066TIP3    H212163   4.109   5.031   2.568
 4067TIP3   OH212164   3.784   1.022   0.406
 4067TIP3    H112165   3.740   1.034   0.321
 4067TIP3    H212166   3.789   1.110   0.443
 4068TIP3   OH212167   3.897   0.604   3.608
 4068TIP3    H112168   3.949   0.649   3.542
 4068TIP3    H212169   3.837   0.548   3.558
 4069TIP3   OH212170   5.122   1.020   1.802
 4069TIP3    H112171   5.054   0.974   1.852
 4069TIP3    H212172   5.086   1.027   1.713
 4070TIP3   OH212173   5.117   1.170   3.552
 4070TIP3    H112174   5.196   1.182   3.499
 4070TIP3    H212175   5.148   1.132   3.634
 4071TIP3   OH212176   3.694   0.162   1.014
 4071TIP3    H112177   3.639   0.191   0.941
 4071TIP3    H212178   3.644   0.183   1.092
 4072TIP3   OH212179   6.653   5.523   1.702
 4072TIP3    H112180   6.572   5.478   1.729
 4072TIP3    H212181   6.686   5.472   1.628
 4073TIP3   OH212182   2.544   4.438   5.733
 4073TIP3    H112183   2.566   4.372   5.799
 4073TIP3    H212184   2.616   4.434   5.670
 4074TIP3   OH212185   1.509   1.352   5.738
 4074TIP3    H112186   1.596   1.388   5.759
 4074TIP3    H212187   1.511   1.263   5.772
 4075TIP3   OH212188   4.539   5.221   0.350
 4075TIP3    H112189   4.623   5.227   0.395
 4075TIP3    H212190   4.540   5.133   0.310
 4076TIP3   OH212191   4.080   5.543   3.831
 4076TIP3    H112192   4.112   5.478   3.893
 4076TIP3    H212193   4.054   5.618   3.885
 4077TIP3   OH212194   6.677   2.769   4.007
 4077TIP3    H112195   6.734   2.833   3.963
 4077TIP3    H212196   6.696   2.687   3.962
 4078TIP3   OH212197   3.677   4.170  -0.031
 4078TIP3    H112198   3.629   4.226   0.030
 4078TIP3    H212199   3.760   4.152   0.013
 4079TIP3   OH212200   3.054   0.952   4.822
 4079TIP3    H112201   3.129   1.008   4.801
 4079TIP3    H212202   3.055   0.884   4.754
 4080TIP3   OH212203   5.423   4.077   0.319
 4080TIP3    H112204   5.453   4.168   0.318
 4080TIP3    H212205   5.355   4.075   0.387
 4081TIP3   OH212206   2.783   2.439   1.643
 4081TIP3    H112207   2.764   2.410   1.732
 4081TIP3    H212208   2.697   2.446   1.601
 4082TIP3   OH212209   3.496   1.352   4.390
 4082TIP3    H112210   3.519   1.443   4.371
 4082TIP3    H212211   3.446   1.324   4.313
 4083TIP3   OH212212   5.786   5.602   1.824
 4083TIP3    H112213   5.741   5.676   1.785
 4083TIP3    H212214   5.783   5.533   1.758
 4084TIP3   OH212215   2.121   0.168   5.432
 4084TIP3    H112216   2.128   0.209   5.518
 4084TIP3    H212217   2.197   0.111   5.426
 4085TIP3   OH212218   5.775   3.164   0.352
 4085TIP3    H112219   5.717   3.240   0.363
 4085TIP3    H212220   5.814   3.175   0.265
 4086TIP3   OH212221   2.867   1.214   1.928
 4086TIP3    H112222   2.924   1.181   1.999
 4086TIP3    H212223   2.894   1.163   1.852
 4087TIP3   OH212224   6.542   1.823   4.552
 4087TIP3    H112225   6.603   1.750   4.539
 4087TIP3    H212226   6.535   1.832   4.647
 4088TIP3   OH212227   6.162   4.442   4.107
 4088TIP3    H112228   6.252   4.412   4.089
 4088TIP3    H212229   6.137   4.490   4.029
 4089TIP3   OH212230   3.576   4.108   4.814
 4089TIP3    H112231   3.640   4.036   4.808
 4089TIP3    H212232   3.494   4.065   4.839
 4090TIP3   OH212233   6.861   4.198   1.512
 4090TIP3    H112234   6.812   4.232   1.587
 4090TIP3    H212235   6.898   4.275   1.470
 4091TIP3   OH212236   3.196   3.097   5.561
 4091TIP3    H112237   3.175   3.117   5.652
 4091TIP3    H212238   3.169   3.176   5.513
 4092TIP3   OH212239   7.131   0.118   2.886
 4092TIP3    H112240   7.224   0.137   2.874
 4092TIP3    H212241   7.102   0.083   2.802
 4093TIP3   OH212242   4.159   4.355   5.366
 4093TIP3    H112243   4.178   4.371   5.274
 4093TIP3    H212244   4.072   4.314   5.365
 4094TIP3   OH212245   5.366   0.389   5.464
 4094TIP3    H112246   5.312   0.430   5.396
 4094TIP3    H212247   5.444   0.443   5.469
 4095TIP3   OH212248   3.860   6.630   5.637
 4095TIP3    H112249   3.913   6.590   5.706
 4095TIP3    H212250   3.867   6.571   5.563
 4096TIP3   OH212251   0.712   2.436   4.623
 4096TIP3    H112252   0.805   2.444   4.603
 4096TIP3    H212253   0.672   2.515   4.588
 4097TIP3   OH212254   4.108   2.576   4.902
 4097TIP3    H112255   4.189   2.622   4.879
 4097TIP3    H212256   4.137   2.494   4.940
 4098TIP3   OH212257   2.210   4.876   1.432
 4098TIP3    H112258   2.270   4.802   1.431
 4098TIP3    H212259   2.172   4.876   1.520
 4099TIP3   OH212260   5.072   2.638   1.012
 4099TIP3    H112261   4.998   2.687   0.976
 4099TIP3    H212262   5.070   2.554   0.965
 4100TIP3   OH212263   4.493   2.185   1.964
 4100TIP3    H112264   4.492   2.108   2.021
 4100TIP3    H212265   4.405   2.190   1.928
 4101TIP3   OH212266   2.436   1.451   4.189
 4101TIP3    H112267   2.494   1.527   4.179
 4101TIP3    H212268   2.454   1.397   4.112
 4102TIP3   OH212269   6.559   5.968   4.076
 4102TIP3    H112270   6.587   6.007   4.159
 4102TIP3    H212271   6.466   5.990   4.069
 4103TIP3   OH212272   2.280   5.239   5.043
 4103TIP3    H112273   2.248   5.151   5.021
 4103TIP3    H212274   2.311   5.232   5.133
 4104TIP3   OH212275   2.590   4.641   2.572
 4104TIP3    H112276   2.632   4.558   2.593
 4104TIP3    H212277   2.639   4.675   2.497
 4105TIP3   OH212278   6.403   1.878   1.799
 4105TIP3    H112279   6.421   1.784   1.805
 4105TIP3    H212280   6.402   1.896   1.705
 4106TIP3   OH212281   6.575   5.574   5.234
 4106TIP3    H112282   6.662   5.597   5.201
 4106TIP3    H212283   6.538   5.657   5.264
 4107TIP3   OH212284   2.867   2.145   5.486
 4107TIP3    H112285   2.884   2.239   5.486
 4107TIP3    H212286   2.908   2.113   5.406
 4108TIP3   OH212287   0.920   1.882   0.144
 4108TIP3    H112288   0.885   1.968   0.119
 4108TIP3    H212289   0.844   1.823   0.137
 4109TIP3   OH212290   6.726   5.369   4.442
 4109TIP3    H112291   6.804   5.419   4.418
 4109TIP3    H212292   6.670   5.433   4.487
 4110TIP3   OH212293   1.816   4.723   4.768
 4110TIP3    H112294   1.896   4.775   4.775
 4110TIP3    H212295   1.745   4.787   4.777
 4111TIP3   OH212296   5.076   1.034   0.562
 4111TIP3    H112297   5.163   1.023   0.601
 4111TIP3    H212298   5.078   0.978   0.484
 4112TIP3   OH212299   5.341   1.449   1.546
 4112TIP3    H112300   5.347   1.519   1.481
 4112TIP3    H212301   5.262   1.400   1.522
 4113TIP3   OH212302   1.808   6.554   1.439
 4113TIP3    H112303   1.722   6.588   1.464
 4113TIP3    H212304   1.827   6.595   1.354
 4114TIP3   OH212305   6.280   4.952   1.276
 4114TIP3    H112306   6.303   5.033   1.232
 4114TIP3    H212307   6.229   4.903   1.212
 4115TIP3   OH212308   4.802   1.338   1.633
 4115TIP3    H112309   4.758   1.324   1.717
 4115TIP3    H212310   4.820   1.432   1.631
 4116TIP3   OH212311   1.301   4.692   1.875
 4116TIP3    H112312   1.320   4.731   1.790
 4116TIP3    H212313   1.257   4.762   1.924
 4117TIP3   OH212314   2.273   6.070   1.302
 4117TIP3    H112315   2.291   6.075   1.396
 4117TIP3    H212316   2.331   6.136   1.263
 4118TIP3   OH212317   6.835   4.165   5.784
 4118TIP3    H112318   6.763   4.125   5.833
 4118TIP3    H212319   6.801   4.174   5.695
 4119TIP3   OH212320   4.203   2.701   5.673
 4119TIP3    H112321   4.176   2.618   5.634
 4119TIP3    H212322   4.255   2.676   5.749
 4120TIP3   OH212323   4.219   0.663   0.311
 4120TIP3    H112324   4.271   0.720   0.368
 4120TIP3    H212325   4.130   0.696   0.319
 4121TIP3   OH212326   3.655   1.570   5.266
 4121TIP3    H112327   3.571   1.595   5.226
 4121TIP3    H212328   3.649   1.475   5.275
 4122TIP3   OH212329   2.600   5.925   3.075
 4122TIP3    H112330   2.589   5.870   3.153
 4122TIP3    H212331   2.589   5.864   3.001
 4123TIP3   OH212332   1.277   2.804   0.128
 4123TIP3    H112333   1.356   2.754   0.145
 4123TIP3    H212334   1.229   2.751   0.064
 4124TIP3   OH212335   1.030   3.892   1.540
 4124TIP3    H112336   0.963   3.915   1.475
 4124TIP3    H212337   1.009   3.945   1.616
 4125TIP3   OH212338   2.717   0.523   5.585
 4125TIP3    H112339   2.674   0.501   5.667
 4125TIP3    H212340   2.766   0.444   5.562
 4126TIP3   OH212341   1.441   4.857   1.198
 4126TIP3    H112342   1.517   4.827   1.247
 4126TIP3    H212343   1.426   4.788   1.133
 4127TIP3   OH212344   0.690   3.767   3.167
 4127TIP3    H112345   0.612   3.790   3.118
 4127TIP3    H212346   0.660   3.756   3.257
 4128TIP3   OH212347   0.841   4.167   0.890
 4128TIP3    H112348   0.864   4.248   0.844
 4128TIP3    H212349   0.859   4.098   0.826
 4129TIP3   OH212350   2.021   1.942   5.013
 4129TIP3    H112351   2.112   1.972   5.014
 4129TIP3    H212352   2.011   1.893   5.094
 4130TIP3   OH212353   4.597   3.525   2.283
 4130TIP3    H112354   4.564   3.562   2.365
 4130TIP3    H212355   4.597   3.599   2.222
 4131TIP3   OH212356   4.180   0.230   3.360
 4131TIP3    H112357   4.226   0.312   3.342
 4131TIP3    H212358   4.096   0.258   3.395
 4132TIP3   OH212359   0.137   0.494   1.378
 4132TIP3    H112360   0.216   0.534   1.415
 4132TIP3    H212361   0.116   0.547   1.301
 4133TIP3   OH212362   4.985   3.957   5.168
 4133TIP3    H112363   4.931   3.986   5.094
 4133TIP3    H212364   5.049   4.027   5.181
 4134TIP3   OH212365   6.870   6.617   4.832
 4134TIP3    H112366   6.835   6.574   4.910
 4134TIP3    H212367   6.833   6.705   4.835
 4135TIP3   OH212368   4.026   0.367   4.940
 4135TIP3    H112369   3.947   0.312   4.932
 4135TIP3    H212370   3.998   0.441   4.993
 4136TIP3   OH212371   3.362   4.907   5.451
 4136TIP3    H112372   3.284   4.892   5.398
 4136TIP3    H212373   3.427   4.845   5.416
 4137TIP3   OH212374   3.463   0.954   2.960
 4137TIP3    H112375   3.536   0.893   2.948
 4137TIP3    H212376   3.447   0.953   3.055
 4138TIP3   OH212377   3.658   1.593   1.782
 4138TIP3    H112378   3.593   1.539   1.826
 4138TIP3    H212379   3.630   1.594   1.690
 4139TIP3   OH212380   3.437   3.418   3.708
 4139TIP3    H112381   3.376   3.357   3.666
 4139TIP3    H212382   3.390   3.501   3.710
 4140TIP3   OH212383   2.953   0.832   2.077
 4140TIP3    H112384   2.932   0.838   1.984
 4140TIP3    H212385   3.008   0.755   2.084
 4141TIP3   OH212386   7.026   2.209   1.037
 4141TIP3    H112387   7.004   2.293   0.996
 4141TIP3    H212388   6.965   2.146   0.998
 4142TIP3   OH212389   1.741   1.918   2.007
 4142TIP3    H112390   1.669   1.981   2.000
 4142TIP3    H212391   1.788   1.925   1.924
 4143TIP3   OH212392   3.559   3.831   1.894
 4143TIP3    H112393   3.589   3.776   1.822
 4143TIP3    H212394   3.468   3.850   1.872
 4144TIP3   OH212395   6.638   6.386   4.894
 4144TIP3    H112396   6.715   6.377   4.950
 4144TIP3    H212397   6.593   6.464   4.927
 4145TIP3   OH212398   4.994   0.326   0.871
 4145TIP3    H112399   5.037   0.334   0.955
 4145TIP3    H212400   4.914   0.378   0.880
 4146TIP3   OH212401   2.038   3.858   0.210
 4146TIP3    H112402   2.084   3.814   0.138
 4146TIP3    H212403   2.058   3.805   0.287
 4147TIP3   OH212404   4.101   2.203   1.792
 4147TIP3    H112405   4.110   2.205   1.887
 4147TIP3    H212406   4.178   2.155   1.762
 4148TIP3   OH212407   1.103   5.969   3.271
 4148TIP3    H112408   1.116   6.051   3.224
 4148TIP3    H212409   1.015   5.940   3.245
 4149TIP3   OH212410   3.738   1.479   4.102
 4149TIP3    H112411   3.831   1.489   4.123
 4149TIP3    H212412   3.736   1.452   4.010
 4150TIP3   OH212413   4.806   0.835   0.519
 4150TIP3    H112414   4.887   0.791   0.494
 4150TIP3    H212415   4.813   0.922   0.480
 4151TIP3   OH212416   0.359   2.269   2.875
 4151TIP3    H112417   0.339   2.363   2.866
 4151TIP3    H212418   0.430   2.254   2.813
 4152TIP3   OH212419   0.315   6.340   4.858
 4152TIP3    H112420   0.356   6.420   4.825
 4152TIP3    H212421   0.372   6.311   4.929
 4153TIP3   OH212422   3.202   2.150   3.467
 4153TIP3    H112423   3.241   2.084   3.409
 4153TIP3    H212424   3.125   2.180   3.419
 4154TIP3   OH212425   4.267   4.716   1.552
 4154TIP3    H112426   4.328   4.643   1.564
 4154TIP3    H212427   4.298   4.783   1.613
 4155TIP3   OH212428   5.363   1.715  -0.003
 4155TIP3    H112429   5.299   1.658   0.041
 4155TIP3    H212430   5.359   1.797   0.045
 4156TIP3   OH212431   4.924   2.465   3.833
 4156TIP3    H112432   4.990   2.438   3.897
 4156TIP3    H212433   4.945   2.557   3.815
 4157TIP3   OH212434   2.982   0.260   1.797
 4157TIP3    H112435   2.996   0.250   1.702
 4157TIP3    H212436   2.953   0.174   1.826
 4158TIP3   OH212437   0.694   4.571   0.685
 4158TIP3    H112438   0.787   4.580   0.706
 4158TIP3    H212439   0.692   4.502   0.619
 4159TIP3   OH212440   5.600   1.094   0.885
 4159TIP3    H112441   5.620   1.185   0.862
 4159TIP3    H212442   5.599   1.048   0.801
 4160TIP3   OH212443   3.637   2.642   0.532
 4160TIP3    H112444   3.621   2.599   0.616
 4160TIP3    H212445   3.729   2.665   0.534
 4161TIP3   OH212446   4.144   4.418   1.519
 4161TIP3    H112447   4.071   4.469   1.555
 4161TIP3    H212448   4.124   4.409   1.426
 4162TIP3   OH212449   2.180   0.127   5.030
 4162TIP3    H112450   2.268   0.095   5.010
 4162TIP3    H212451   2.171   0.208   4.980
 4163TIP3   OH212452   6.037   6.615   1.656
 4163TIP3    H112453   6.002   6.529   1.681
 4163TIP3    H212454   6.007   6.674   1.724
 4164TIP3   OH212455   6.093   0.011   5.340
 4164TIP3    H112456   6.052   0.066   5.274
 4164TIP3    H212457   6.054   0.041   5.423
 4165TIP3   OH212458   5.315   2.447   0.458
 4165TIP3    H112459   5.344   2.365   0.497
 4165TIP3    H212460   5.396   2.490   0.429
 4166TIP3   OH212461   1.826   1.316   0.269
 4166TIP3    H112462   1.779   1.347   0.346
 4166TIP3    H212463   1.853   1.227   0.292
 4167TIP3   OH212464   0.165   1.010   1.711
 4167TIP3    H112465   0.219   1.076   1.754
 4167TIP3    H212466   0.186   1.017   1.618
 4168TIP3   OH212467   6.903   3.063   4.622
 4168TIP3    H112468   6.869   3.086   4.536
 4168TIP3    H212469   6.858   3.123   4.682
 4169TIP3   OH212470   6.866   0.555   2.573
 4169TIP3    H112471   6.912   0.487   2.524
 4169TIP3    H212472   6.778   0.518   2.587
 4170TIP3   OH212473   3.078   1.959   3.795
 4170TIP3    H112474   3.004   1.898   3.800
 4170TIP3    H212475   3.130   1.938   3.873
 4171TIP3   OH212476   1.876   2.321   1.170
 4171TIP3    H112477   1.955   2.325   1.225
 4171TIP3    H212478   1.909   2.325   1.081
 4172TIP3   OH212479   1.012   5.553   5.361
 4172TIP3    H112480   1.096   5.524   5.325
 4172TIP3    H212481   0.948   5.491   5.325
 4173TIP3   OH212482   0.852   1.653   4.338
 4173TIP3    H112483   0.870   1.582   4.278
 4173TIP3    H212484   0.917   1.720   4.316
 4174TIP3   OH212485   7.122   0.521   0.161
 4174TIP3    H112486   7.126   0.581   0.087
 4174TIP3    H212487   7.032   0.527   0.192
 4175TIP3   OH212488   2.688   4.904   4.717
 4175TIP3    H112489   2.734   4.986   4.736
 4175TIP3    H212490   2.599   4.931   4.697
 4176TIP3   OH212491   1.522   0.211   1.108
 4176TIP3    H112492   1.559   0.237   1.023
 4176TIP3    H212493   1.456   0.278   1.126
 4177TIP3   OH212494  -0.018   1.468   5.016
 4177TIP3    H112495  -0.002   1.389   5.067
 4177TIP3    H212496   0.065   1.516   5.019
 4178TIP3   OH212497   1.912   5.315   4.071
 4178TIP3    H112498   1.879   5.229   4.045
 4178TIP3    H212499   1.904   5.315   4.167
 4179TIP3   OH212500   2.834   5.130   2.969
 4179TIP3    H112501   2.815   5.184   3.046
 4179TIP3    H212502   2.827   5.190   2.895
 4180TIP3   OH212503   1.517   3.624   0.551
 4180TIP3    H112504   1.511   3.583   0.637
 4180TIP3    H212505   1.443   3.684   0.547
 4181TIP3   OH212506   2.688   3.302   5.302
 4181TIP3    H112507   2.596   3.329   5.304
 4181TIP3    H212508   2.686   3.214   5.265
 4182TIP3   OH212509   1.073   0.099   0.039
 4182TIP3    H112510   1.138   0.032   0.017
 4182TIP3    H212511   1.013   0.099  -0.035
 4183TIP3   OH212512   3.503   4.365   2.256
 4183TIP3    H112513   3.527   4.440   2.310
 4183TIP3    H212514   3.580   4.309   2.255
 4184TIP3   OH212515   1.901   3.933   5.671
 4184TIP3    H112516   1.985   3.927   5.626
 4184TIP3    H212517   1.860   4.012   5.634
 4185TIP3   OH212518   6.609   4.889   3.032
 4185TIP3    H112519   6.583   4.802   3.000
 4185TIP3    H212520   6.644   4.933   2.956
 4186TIP3   OH212521   4.604   6.722   4.318
 4186TIP3    H112522   4.624   6.644   4.369
 4186TIP3    H212523   4.640   6.794   4.370
 4187TIP3   OH212524   2.437   2.946   2.420
 4187TIP3    H112525   2.365   2.887   2.441
 4187TIP3    H212526   2.400   3.007   2.356
 4188TIP3   OH212527   3.944   5.713   2.462
 4188TIP3    H112528   3.999   5.764   2.401
 4188TIP3    H212529   3.859   5.756   2.458
 4189TIP3   OH212530   1.433   4.277   0.457
 4189TIP3    H112531   1.410   4.188   0.430
 4189TIP3    H212532   1.487   4.310   0.385
 4190TIP3   OH212533   5.156   1.741   1.660
 4190TIP3    H112534   5.215   1.817   1.659
 4190TIP3    H212535   5.201   1.677   1.716
 4191TIP3   OH212536   6.850   0.736   5.331
 4191TIP3    H112537   6.898   0.731   5.248
 4191TIP3    H212538   6.901   0.797   5.384
 4192TIP3   OH212539   5.068   4.051   0.923
 4192TIP3    H112540   5.033   3.991   0.989
 4192TIP3    H212541   5.009   4.042   0.848
 4193TIP3   OH212542   4.612   0.763   4.670
 4193TIP3    H112543   4.578   0.676   4.647
 4193TIP3    H212544   4.535   0.815   4.690
 4194TIP3   OH212545   6.335   1.274   3.101
 4194TIP3    H112546   6.285   1.231   3.172
 4194TIP3    H212547   6.268   1.310   3.043
 4195TIP3   OH212548   6.955   5.898   4.035
 4195TIP3    H112549   6.977   5.806   4.025
 4195TIP3    H212550   6.972   5.917   4.128
 4196TIP3   OH212551   5.685   3.291   4.081
 4196TIP3    H112552   5.651   3.379   4.096
 4196TIP3    H212553   5.665   3.272   3.989
 4197TIP3   OH212554   3.093   0.607   4.338
 4197TIP3    H112555   3.084   0.646   4.425
 4197TIP3    H212556   3.183   0.626   4.312
 4198TIP3   OH212557   4.752   6.665   2.994
 4198TIP3    H112558   4.662   6.639   2.978
 4198TIP3    H212559   4.757   6.755   2.962
 4199TIP3   OH212560   5.796   6.193   2.565
 4199TIP3    H112561   5.822   6.161   2.652
 4199TIP3    H212562   5.709   6.154   2.551
 4200TIP3   OH212563   6.258   2.303   2.639
 4200TIP3    H112564   6.191   2.262   2.585
 4200TIP3    H212565   6.341   2.282   2.596
 4201TIP3   OH212566   7.090   0.050   2.063
 4201TIP3    H112567   7.116  -0.042   2.065
 4201TIP3    H212568   7.129   0.085   1.983
 4202TIP3   OH212569   0.692   2.680   0.039
 4202TIP3    H112570   0.613   2.636   0.070
 4202TIP3    H212571   0.737   2.709   0.118
 4203TIP3   OH212572   0.946   4.967   5.302
 4203TIP3    H112573   1.002   5.023   5.248
 4203TIP3    H212574   0.857   4.998   5.287
 4204TIP3   OH212575   5.015   1.231   1.209
 4204TIP3    H112576   5.036   1.320   1.239
 4204TIP3    H212577   4.955   1.197   1.276
 4205TIP3   OH212578   5.751   5.720   1.382
 4205TIP3    H112579   5.664   5.682   1.389
 4205TIP3    H212580   5.740   5.811   1.409
 4206TIP3   OH212581   0.492   1.204   1.519
 4206TIP3    H112582   0.503   1.120   1.563
 4206TIP3    H212583   0.544   1.266   1.572
 4207TIP3   OH212584   5.659   3.652   1.646
 4207TIP3    H112585   5.599   3.582   1.623
 4207TIP3    H212586   5.681   3.694   1.563
 4208TIP3   OH212587   4.691   3.077   3.382
 4208TIP3    H112588   4.753   3.130   3.333
 4208TIP3    H212589   4.693   3.114   3.471
 4209TIP3   OH212590   1.814   5.593   3.964
 4209TIP3    H112591   1.860   5.669   3.928
 4209TIP3    H212592   1.858   5.518   3.925
 4210TIP3   OH212593   0.672   4.586   0.142
 4210TIP3    H112594   0.727   4.626   0.209
 4210TIP3    H212595   0.718   4.605   0.060
 4211TIP3   OH212596   4.974   2.065   3.775
 4211TIP3    H112597   5.014   1.993   3.727
 4211TIP3    H212598   4.882   2.041   3.782
 4212TIP3   OH212599   6.986   5.686   0.160
 4212TIP3    H112600   7.038   5.642   0.093
 4212TIP3    H212601   7.025   5.773   0.167
 4213TIP3   OH212602   0.194   5.724   0.262
 4213TIP3    H112603   0.282   5.689   0.249
 4213TIP3    H212604   0.145   5.653   0.302
 4214TIP3   OH212605   0.122   2.544   1.527
 4214TIP3    H112606   0.041   2.550   1.577
 4214TIP3    H212607   0.170   2.471   1.566
 4215TIP3   OH212608   3.685   2.421   4.709
 4215TIP3    H112609   3.592   2.431   4.687
 4215TIP3    H212610   3.715   2.510   4.730
 4216TIP3   OH212611   0.598   4.381   0.469
 4216TIP3    H112612   0.508   4.359   0.493
 4216TIP3    H212613   0.634   4.300   0.433
 4217TIP3   OH212614   1.460   3.215   0.702
 4217TIP3    H112615   1.427   3.130   0.674
 4217TIP3    H212616   1.392   3.250   0.760
 4218TIP3   OH212617   3.834   3.286   4.466
 4218TIP3    H112618   3.747   3.248   4.483
 4218TIP3    H212619   3.882   3.273   4.548
 4219TIP3   OH212620   4.734   1.909   3.834
 4219TIP3    H112621   4.682   1.861   3.769
 4219TIP3    H212622   4.792   1.842   3.872
 4220TIP3   OH212623   1.340   6.564   0.082
 4220TIP3    H112624   1.273   6.628   0.106
 4220TIP3    H212625   1.359   6.518   0.164
 4221TIP3   OH212626   5.921   6.322   4.343
 4221TIP3    H112627   5.891   6.351   4.429
 4221TIP3    H212628   6.001   6.372   4.327
 4222TIP3   OH212629   0.843   2.114   5.369
 4222TIP3    H112630   0.816   2.158   5.449
 4222TIP3    H212631   0.770   2.127   5.309
 4223TIP3   OH212632   5.846   1.624   4.803
 4223TIP3    H112633   5.915   1.661   4.748
 4223TIP3    H212634   5.858   1.665   4.889
 4224TIP3   OH212635   7.158   3.935   2.416
 4224TIP3    H112636   7.120   3.863   2.366
 4224TIP3    H212637   7.082   3.985   2.448
 4225TIP3   OH212638   5.538   3.554   0.080
 4225TIP3    H112639   5.571   3.511   0.001
 4225TIP3    H212640   5.489   3.629   0.047
 4226TIP3   OH212641   2.576   3.625   5.000
 4226TIP3    H112642   2.484   3.615   5.026
 4226TIP3    H212643   2.598   3.541   4.959
 4227TIP3   OH212644   4.803   4.666   4.824
 4227TIP3    H112645   4.854   4.675   4.904
 4227TIP3    H212646   4.715   4.641   4.854
 4228TIP3   OH212647   6.904   6.481   0.751
 4228TIP3    H112648   6.898   6.556   0.691
 4228TIP3    H212649   6.913   6.521   0.838
 4229TIP3   OH212650   2.426   0.422   4.691
 4229TIP3    H112651   2.359   0.445   4.627
 4229TIP3    H212652   2.505   0.408   4.639
 4230TIP3   OH212653   5.247   4.403   5.610
 4230TIP3    H112654   5.188   4.478   5.609
 4230TIP3    H212655   5.335   4.440   5.612
 4231TIP3   OH212656   4.633   5.398   5.212
 4231TIP3    H112657   4.627   5.446   5.295
 4231TIP3    H212658   4.614   5.464   5.145
 4232TIP3   OH212659   0.847   3.953   2.031
 4232TIP3    H112660   0.925   3.977   1.981
 4232TIP3    H212661   0.800   4.036   2.043
 4233TIP3   OH212662   0.541   4.354   4.657
 4233TIP3    H112663   0.476   4.415   4.623
 4233TIP3    H212664   0.619   4.409   4.672
 4234TIP3   OH212665   2.499   1.533   3.463
 4234TIP3    H112666   2.580   1.510   3.417
 4234TIP3    H212667   2.526   1.550   3.553
 4235TIP3   OH212668   1.243   1.287   2.704
 4235TIP3    H112669   1.220   1.353   2.638
 4235TIP3    H212670   1.328   1.316   2.737
 4236TIP3   OH212671   5.540   5.535   2.946
 4236TIP3    H112672   5.490   5.457   2.921
 4236TIP3    H212673   5.521   5.599   2.877
 4237TIP3   OH212674   1.477   3.678   5.640
 4237TIP3    H112675   1.389   3.675   5.678
 4237TIP3    H212676   1.477   3.608   5.575
 4238TIP3   OH212677   5.284   5.952   1.396
 4238TIP3    H112678   5.216   5.888   1.376
 4238TIP3    H212679   5.237   6.024   1.440
 4239TIP3   OH212680   5.548   0.031   4.789
 4239TIP3    H112681   5.471   0.035   4.733
 4239TIP3    H212682   5.554   0.117   4.830
 4240TIP3   OH212683   6.441   0.028   3.729
 4240TIP3    H112684   6.448   0.063   3.640
 4240TIP3    H212685   6.359   0.064   3.762
 4241TIP3   OH212686   4.750   5.401   4.694
 4241TIP3    H112687   4.671   5.397   4.641
 4241TIP3    H212688   4.811   5.340   4.652
 4242TIP3   OH212689   0.807   0.595  -0.004
 4242TIP3    H112690   0.890   0.606   0.043
 4242TIP3    H212691   0.743   0.643   0.049
 4243TIP3   OH212692   2.759   1.376   0.592
 4243TIP3    H112693   2.692   1.335   0.537
 4243TIP3    H212694   2.833   1.390   0.534
 4244TIP3   OH212695   5.422   3.423   0.735
 4244TIP3    H112696   5.430   3.436   0.829
 4244TIP3    H212697   5.432   3.511   0.699
 4245TIP3   OH212698   0.800   2.353   2.517
 4245TIP3    H112699   0.742   2.322   2.587
 4245TIP3    H212700   0.866   2.406   2.562
 4246TIP3   OH212701   1.848   2.418   1.473
 4246TIP3    H112702   1.833   2.503   1.431
 4246TIP3    H212703   1.940   2.420   1.499
 4247TIP3   OH212704   2.372   4.545   3.134
 4247TIP3    H112705   2.403   4.456   3.122
 4247TIP3    H212706   2.282   4.543   3.102
 4248TIP3   OH212707   6.769   6.448   0.110
 4248TIP3    H112708   6.840   6.386   0.129
 4248TIP3    H212709   6.735   6.419   0.026
 4249TIP3   OH212710   3.820   0.127   0.169
 4249TIP3    H112711   3.763   0.093   0.099
 4249TIP3    H212712   3.900   0.152   0.125
 4250TIP3   OH212713   0.457   5.275   2.434
 4250TIP3    H112714   0.438   5.329   2.357
 4250TIP3    H212715   0.415   5.321   2.506
 4251TIP3   OH212716   0.936   1.214   1.825
 4251TIP3    H112717   0.978   1.300   1.824
 4251TIP3    H212718   1.007   1.152   1.840
 4252TIP3   OH212719   4.305   4.994   2.170
 4252TIP3    H112720   4.352   5.053   2.230
 4252TIP3    H212721   4.217   4.988   2.207
 4253TIP3   OH212722   4.444   6.711   4.791
 4253TIP3    H112723   4.473   6.625   4.822
 4253TIP3    H212724   4.525   6.761   4.783
 4254TIP3   OH212725   1.830   2.816   2.331
 4254TIP3    H112726   1.879   2.871   2.270
 4254TIP3    H212727   1.738   2.833   2.309
 4255TIP3   OH212728   5.130   3.398   5.441
 4255TIP3    H112729   5.112   3.485   5.478
 4255TIP3    H212730   5.212   3.371   5.481
 4256TIP3   OH212731   3.205   2.656   2.463
 4256TIP3    H112732   3.158   2.740   2.461
 4256TIP3    H212733   3.135   2.590   2.465
 4257TIP3   OH212734   6.187   6.451   3.944
 4257TIP3    H112735   6.146   6.365   3.957
 4257TIP3    H212736   6.199   6.458   3.849
 4258TIP3   OH212737   6.171   3.663   1.920
 4258TIP3    H112738   6.106   3.732   1.927
 4258TIP3    H212739   6.145   3.598   1.986
 4259TIP3   OH212740   2.444   5.250   2.170
 4259TIP3    H112741   2.464   5.261   2.077
 4259TIP3    H212742   2.409   5.161   2.177
 4260TIP3   OH212743   5.531   1.409   5.506
 4260TIP3    H112744   5.611   1.416   5.453
 4260TIP3    H212745   5.549   1.463   5.583
 4261TIP3   OH212746   4.570   5.250   3.334
 4261TIP3    H112747   4.525   5.247   3.249
 4261TIP3    H212748   4.550   5.166   3.374
 4262TIP3   OH212749   2.539   5.025   0.283
 4262TIP3    H112750   2.512   4.968   0.211
 4262TIP3    H212751   2.477   5.098   0.279
 4263TIP3   OH212752   3.511   0.768   4.458
 4263TIP3    H112753   3.595   0.735   4.427
 4263TIP3    H212754   3.533   0.848   4.506
 4264TIP3   OH212755   5.816   0.547   4.101
 4264TIP3    H112756   5.755   0.606   4.058
 4264TIP3    H212757   5.871   0.605   4.155
 4265TIP3   OH212758   3.383   3.262   5.096
 4265TIP3    H112759   3.366   3.338   5.040
 4265TIP3    H212760   3.304   3.253   5.149
 4266TIP3   OH212761   3.930   4.910   0.513
 4266TIP3    H112762   3.915   4.945   0.425
 4266TIP3    H212763   4.025   4.916   0.525
 4267TIP3   OH212764   2.310   2.727   0.013
 4267TIP3    H112765   2.278   2.816   0.001
 4267TIP3    H212766   2.370   2.732   0.088
 4268TIP3   OH212767   0.733   3.199   2.510
 4268TIP3    H112768   0.650   3.219   2.467
 4268TIP3    H212769   0.744   3.105   2.500
 4269TIP3   OH212770   4.888   4.137   1.204
 4269TIP3    H112771   4.927   4.068   1.150
 4269TIP3    H212772   4.794   4.128   1.191
 4270TIP3   OH212773   4.712   3.039   5.600
 4270TIP3    H112774   4.695   3.099   5.528
 4270TIP3    H212775   4.739   3.095   5.673
 4271TIP3   OH212776   2.696   3.037   3.982
 4271TIP3    H112777   2.767   3.032   3.918
 4271TIP3    H212778   2.616   3.032   3.929
 4272TIP3   OH212779   5.246   1.116   1.469
 4272TIP3    H112780   5.166   1.164   1.493
 4272TIP3    H212781   5.234   1.029   1.507
 4273TIP3   OH212782   6.414   4.095   1.255
 4273TIP3    H112783   6.440   4.159   1.189
 4273TIP3    H212784   6.327   4.123   1.282
 4274TIP3   OH212785   3.386   6.635   3.996
 4274TIP3    H112786   3.424   6.720   4.019
 4274TIP3    H212787   3.446   6.571   4.035
 4275TIP3   OH212788   6.913   5.245   3.974
 4275TIP3    H112789   6.987   5.292   3.936
 4275TIP3    H212790   6.883   5.187   3.905
 4276TIP3   OH212791   2.726   3.849   5.734
 4276TIP3    H112792   2.817   3.820   5.737
 4276TIP3    H212793   2.675   3.768   5.735
 4277TIP3   OH212794   2.477   1.538   5.514
 4277TIP3    H112795   2.408   1.596   5.480
 4277TIP3    H212796   2.512   1.494   5.436
 4278TIP3   OH212797   2.847   5.943   1.289
 4278TIP3    H112798   2.765   5.900   1.313
 4278TIP3    H212799   2.877   5.896   1.211
 4279TIP3   OH212800   6.889   6.472   4.586
 4279TIP3    H112801   6.871   6.510   4.672
 4279TIP3    H212802   6.864   6.380   4.595
 4280TIP3   OH212803   5.282   2.503   3.286
 4280TIP3    H112804   5.225   2.566   3.242
 4280TIP3    H212805   5.366   2.548   3.294
 4281TIP3   OH212806   6.480   4.728   5.871
 4281TIP3    H112807   6.475   4.822   5.887
 4281TIP3    H212808   6.407   4.709   5.813
 4282TIP3   OH212809   0.628   6.003   4.601
 4282TIP3    H112810   0.612   5.909   4.610
 4282TIP3    H212811   0.541   6.041   4.594
 4283TIP3   OH212812   5.608   0.738   4.796
 4283TIP3    H112813   5.685   0.744   4.853
 4283TIP3    H212814   5.618   0.655   4.750
 4284TIP3   OH212815   5.634   4.493   1.871
 4284TIP3    H112816   5.678   4.413   1.842
 4284TIP3    H212817   5.646   4.555   1.799
 4285TIP3   OH212818   3.319   6.753   1.748
 4285TIP3    H112819   3.385   6.686   1.731
 4285TIP3    H212820   3.351   6.831   1.703
 4286TIP3   OH212821   1.128   1.036   1.872
 4286TIP3    H112822   1.110   1.014   1.964
 4286TIP3    H212823   1.176   0.960   1.839
 4287TIP3   OH212824   3.255   1.864   2.407
 4287TIP3    H112825   3.215   1.791   2.454
 4287TIP3    H212826   3.184   1.899   2.353
 4288TIP3   OH212827   0.616   6.132   2.199
 4288TIP3    H112828   0.538   6.090   2.233
 4288TIP3    H212829   0.681   6.123   2.269
 4289TIP3   OH212830   3.044   1.957   1.884
 4289TIP3    H112831   3.024   2.022   1.817
 4289TIP3    H212832   2.959   1.935   1.923
 4290TIP3   OH212833   5.066   0.740   3.335
 4290TIP3    H112834   5.037   0.828   3.357
 4290TIP3    H212835   4.995   0.704   3.282
 4291TIP3   OH212836   5.264   3.628   4.702
 4291TIP3    H112837   5.332   3.572   4.739
 4291TIP3    H212838   5.247   3.592   4.615
 4292TIP3   OH212839   0.731   5.758   0.736
 4292TIP3    H112840   0.784   5.801   0.803
 4292TIP3    H212841   0.787   5.689   0.701
 4293TIP3   OH212842   4.264   3.362   3.157
 4293TIP3    H112843   4.180   3.394   3.190
 4293TIP3    H212844   4.321   3.362   3.234
 4294TIP3   OH212845   4.475   1.436   1.585
 4294TIP3    H112846   4.436   1.350   1.596
 4294TIP3    H212847   4.408   1.497   1.614
 4295TIP3   OH212848   3.715   1.795   0.890
 4295TIP3    H112849   3.757   1.792   0.804
 4295TIP3    H212850   3.705   1.888   0.909
 4296TIP3   OH212851   6.907   3.829   5.880
 4296TIP3    H112852   6.862   3.905   5.916
 4296TIP3    H212853   6.874   3.821   5.790
 4297TIP3   OH212854   2.279   1.596   2.889
 4297TIP3    H112855   2.321   1.520   2.850
 4297TIP3    H212856   2.349   1.661   2.896
 4298TIP3   OH212857   6.707   2.952   2.115
 4298TIP3    H112858   6.671   2.870   2.145
 4298TIP3    H212859   6.736   2.997   2.194
 4299TIP3   OH212860   1.436   0.297   1.468
 4299TIP3    H112861   1.409   0.323   1.380
 4299TIP3    H212862   1.506   0.359   1.491
 4300TIP3   OH212863   2.827   2.709   4.155
 4300TIP3    H112864   2.903   2.711   4.097
 4300TIP3    H212865   2.822   2.798   4.191
 4301TIP3   OH212866   6.975   1.426   3.979
 4301TIP3    H112867   7.055   1.412   4.029
 4301TIP3    H212868   6.915   1.359   4.011
 4302TIP3   OH212869   5.998   2.022   5.205
 4302TIP3    H112870   6.044   1.991   5.127
 4302TIP3    H212871   6.066   2.032   5.271
 4303TIP3   OH212872   0.417   0.271   1.362
 4303TIP3    H112873   0.466   0.352   1.377
 4303TIP3    H212874   0.449   0.239   1.278
 4304TIP3   OH212875   3.575   4.771   4.758
 4304TIP3    H112876   3.601   4.839   4.820
 4304TIP3    H212877   3.550   4.819   4.679
 4305TIP3   OH212878   6.861   3.845   0.851
 4305TIP3    H112879   6.873   3.764   0.802
 4305TIP3    H212880   6.766   3.852   0.865
 4306TIP3   OH212881   2.152   1.331   1.687
 4306TIP3    H112882   2.110   1.263   1.636
 4306TIP3    H212883   2.212   1.374   1.626
 4307TIP3   OH212884   0.363   0.641   4.689
 4307TIP3    H112885   0.421   0.574   4.654
 4307TIP3    H212886   0.322   0.680   4.612
 4308TIP3   OH212887   0.571   2.326   3.669
 4308TIP3    H112888   0.644   2.270   3.696
 4308TIP3    H212889   0.501   2.264   3.648
 4309TIP3   OH212890   0.305   0.752   3.318
 4309TIP3    H112891   0.391   0.717   3.342
 4309TIP3    H212892   0.302   0.838   3.361
 4310TIP3   OH212893   4.227   5.293   3.388
 4310TIP3    H112894   4.302   5.277   3.445
 4310TIP3    H212895   4.200   5.382   3.409
 4311TIP3   OH212896   0.453   5.605   5.806
 4311TIP3    H112897   0.476   5.632   5.895
 4311TIP3    H212898   0.373   5.553   5.817
 4312TIP3   OH212899   4.052   4.860   5.525
 4312TIP3    H112900   3.998   4.782   5.541
 4312TIP3    H212901   4.039   4.879   5.432
 4313TIP3   OH212902   6.221   1.048   2.872
 4313TIP3    H112903   6.223   1.135   2.830
 4313TIP3    H212904   6.293   1.051   2.935
 4314TIP3   OH212905   6.171   1.214   5.796
 4314TIP3    H112906   6.086   1.185   5.829
 4314TIP3    H212907   6.149   1.275   5.725
 4315TIP3   OH212908   0.173   4.115   2.335
 4315TIP3    H112909   0.135   4.028   2.330
 4315TIP3    H212910   0.237   4.109   2.406
 4316TIP3   OH212911   5.419   5.323   3.422
 4316TIP3    H112912   5.511   5.349   3.418
 4316TIP3    H212913   5.410   5.282   3.508
 4317TIP3   OH212914   3.160   4.805   0.147
 4317TIP3    H112915   3.161   4.794   0.242
 4317TIP3    H212916   3.175   4.899   0.134
 4318TIP3   OH212917   0.586   6.661   5.034
 4318TIP3    H112918   0.493   6.683   5.029
 4318TIP3    H212919   0.626   6.707   4.960
 4319TIP3   OH212920   4.900   4.994   1.578
 4319TIP3    H112921   4.938   4.906   1.587
 4319TIP3    H212922   4.806   4.981   1.588
 4320TIP3   OH212923   2.993   1.219   2.702
 4320TIP3    H112924   3.060   1.190   2.639
 4320TIP3    H212925   2.935   1.144   2.711
 4321TIP3   OH212926   6.808   4.530   5.461
 4321TIP3    H112927   6.752   4.545   5.537
 4321TIP3    H212928   6.884   4.587   5.475
 4322TIP3   OH212929   6.598   2.478   2.945
 4322TIP3    H112930   6.511   2.447   2.920
 4322TIP3    H212931   6.595   2.484   3.040
 4323TIP3   OH212932   6.983   0.272   3.169
 4323TIP3    H112933   6.992   0.335   3.240
 4323TIP3    H212934   7.009   0.188   3.208
 4324TIP3   OH212935   6.178   6.095   5.353
 4324TIP3    H112936   6.267   6.062   5.343
 4324TIP3    H212937   6.145   6.104   5.263
 4325TIP3   OH212938   2.744   5.703   1.077
 4325TIP3    H112939   2.655   5.731   1.098
 4325TIP3    H212940   2.772   5.762   1.007
 4326TIP3   OH212941   5.351   3.501   4.455
 4326TIP3    H112942   5.390   3.453   4.527
 4326TIP3    H212943   5.419   3.561   4.426
 4327TIP3   OH212944   3.338   5.910   0.802
 4327TIP3    H112945   3.289   5.984   0.765
 4327TIP3    H212946   3.297   5.894   0.887
 4328TIP3   OH212947   0.681   1.372   5.283
 4328TIP3    H112948   0.678   1.464   5.258
 4328TIP3    H212949   0.771   1.345   5.265
 4329TIP3   OH212950   2.161   6.307   3.168
 4329TIP3    H112951   2.173   6.225   3.120
 4329TIP3    H212952   2.075   6.338   3.142
 4330TIP3   OH212953   4.772   0.746   1.659
 4330TIP3    H112954   4.733   0.757   1.746
 4330TIP3    H212955   4.854   0.700   1.675
 4331TIP3   OH212956   6.177   3.011   0.643
 4331TIP3    H112957   6.111   2.984   0.578
 4331TIP3    H212958   6.256   3.027   0.591
 4332TIP3   OH212959   4.799   0.316   5.124
 4332TIP3    H112960   4.835   0.242   5.075
 4332TIP3    H212961   4.712   0.329   5.088
 4333TIP3   OH212962   5.293   4.369   4.599
 4333TIP3    H112963   5.363   4.314   4.565
 4333TIP3    H212964   5.255   4.411   4.522
 4334TIP3   OH212965   4.395   6.432   4.432
 4334TIP3    H112966   4.487   6.456   4.422
 4334TIP3    H212967   4.364   6.420   4.342
 4335TIP3   OH212968   4.421   5.040   3.478
 4335TIP3    H112969   4.354   5.055   3.544
 4335TIP3    H212970   4.471   4.965   3.511
 4336TIP3   OH212971   4.359   3.152   0.035
 4336TIP3    H112972   4.415   3.144  -0.042
 4336TIP3    H212973   4.272   3.130   0.004
 4337TIP3   OH212974   7.234   6.337   3.094
 4337TIP3    H112975   7.235   6.312   3.001
 4337TIP3    H212976   7.306   6.400   3.102
 4338TIP3   OH212977   0.687   4.546   3.240
 4338TIP3    H112978   0.716   4.637   3.232
 4338TIP3    H212979   0.715   4.506   3.157
 4339TIP3   OH212980   5.684   4.774   5.849
 4339TIP3    H112981   5.636   4.853   5.827
 4339TIP3    H212982   5.732   4.752   5.769
 4340TIP3   OH212983   5.758   4.066   0.148
 4340TIP3    H112984   5.751   4.161   0.156
 4340TIP3    H212985   5.737   4.048   0.057
 4341TIP3   OH212986   3.636   1.213   1.499
 4341TIP3    H112987   3.643   1.174   1.412
 4341TIP3    H212988   3.562   1.273   1.493
 4342TIP3   OH212989   2.807   3.343   2.112
 4342TIP3    H112990   2.850   3.342   2.026
 4342TIP3    H212991   2.726   3.295   2.099
 4343TIP3   OH212992   0.964   4.606   0.627
 4343TIP3    H112993   1.048   4.609   0.581
 4343TIP3    H212994   0.985   4.566   0.711
 4344TIP3   OH212995   6.191   6.477   3.173
 4344TIP3    H112996   6.112   6.444   3.130
 4344TIP3    H212997   6.170   6.567   3.197
 4345TIP3   OH212998   3.406   2.844   5.555
 4345TIP3    H112999   3.382   2.762   5.598
 4345TIP3    H213000   3.327   2.897   5.558
 4346TIP3   OH213001   3.960   2.662   3.700
 4346TIP3    H113002   4.011   2.737   3.669
 4346TIP3    H213003   3.959   2.601   3.626
 4347TIP3   OH213004   1.304   1.059   5.916
 4347TIP3    H113005   1.255   1.131   5.876
 4347TIP3    H213006   1.305   0.991   5.848
 4348TIP3   OH213007   2.725   0.841   4.861
 4348TIP3    H113008   2.820   0.836   4.875
 4348TIP3    H213009   2.687   0.833   4.949
 4349TIP3   OH213010   4.319   5.356   2.410
 4349TIP3    H113011   4.332   5.450   2.418
 4349TIP3    H213012   4.234   5.339   2.450
 4350TIP3   OH213013   3.485   2.166   4.769
 4350TIP3    H113014   3.512   2.075   4.758
 4350TIP3    H213015   3.508   2.209   4.687
 4351TIP3   OH213016   3.654   6.528   5.315
 4351TIP3    H113017   3.588   6.534   5.383
 4351TIP3    H213018   3.703   6.610   5.322
 4352TIP3   OH213019   5.461   6.192   5.830
 4352TIP3    H113020   5.474   6.260   5.897
 4352TIP3    H213021   5.380   6.148   5.855
 4353TIP3   OH213022   6.976   5.499   0.377
 4353TIP3    H113023   6.899   5.474   0.427
 4353TIP3    H213024   6.951   5.579   0.332
 4354TIP3   OH213025   6.571   0.246   2.098
 4354TIP3    H113026   6.663   0.221   2.088
 4354TIP3    H213027   6.539   0.188   2.167
 4355TIP3   OH213028   5.071   3.692   3.621
 4355TIP3    H113029   5.111   3.634   3.687
 4355TIP3    H213030   4.982   3.706   3.652
 4356TIP3   OH213031   3.571   0.534   2.711
 4356TIP3    H113032   3.552   0.625   2.685
 4356TIP3    H213033   3.664   0.524   2.692
 4357TIP3   OH213034   2.959   2.644   5.024
 4357TIP3    H113035   2.954   2.676   5.114
 4357TIP3    H213036   2.889   2.691   4.978
 4358TIP3   OH213037   4.651   0.718   1.992
 4358TIP3    H113038   4.666   0.625   2.010
 4358TIP3    H213039   4.610   0.752   2.072
 4359TIP3   OH213040   2.129   6.681   2.556
 4359TIP3    H113041   2.042   6.716   2.574
 4359TIP3    H213042   2.152   6.633   2.636
 4360TIP3   OH213043   1.781   0.736   3.898
 4360TIP3    H113044   1.718   0.681   3.852
 4360TIP3    H213045   1.788   0.697   3.986
 4361TIP3   OH213046   1.937   2.573   2.357
 4361TIP3    H113047   1.906   2.664   2.358
 4361TIP3    H213048   1.857   2.521   2.358
 4362TIP3   OH213049   2.428   2.754   1.504
 4362TIP3    H113050   2.336   2.762   1.528
 4362TIP3    H213051   2.431   2.683   1.440
 4363TIP3   OH213052   2.225   1.378   2.064
 4363TIP3    H113053   2.265   1.434   1.998
 4363TIP3    H213054   2.138   1.415   2.078
 4364TIP3   OH213055   1.646   0.510   2.340
 4364TIP3    H113056   1.634   0.461   2.258
 4364TIP3    H213057   1.737   0.539   2.337
 4365TIP3   OH213058   4.024   0.699   4.096
 4365TIP3    H113059   3.982   0.613   4.099
 4365TIP3    H213060   3.995   0.737   4.013
 4366TIP3   OH213061   4.519   2.587   2.630
 4366TIP3    H113062   4.614   2.576   2.641
 4366TIP3    H213063   4.509   2.676   2.598
 4367TIP3   OH213064   5.555   1.905   4.538
 4367TIP3    H113065   5.500   1.917   4.616
 4367TIP3    H213066   5.568   1.810   4.532
 4368TIP3   OH213067   2.553   2.822   2.701
 4368TIP3    H113068   2.514   2.736   2.718
 4368TIP3    H213069   2.565   2.825   2.607
 4369TIP3   OH213070   4.848   6.504   0.196
 4369TIP3    H113071   4.774   6.447   0.175
 4369TIP3    H213072   4.816   6.593   0.178
 4370TIP3   OH213073   5.723   0.096   2.153
 4370TIP3    H113074   5.742   0.004   2.133
 4370TIP3    H213075   5.722   0.139   2.067
 4371TIP3   OH213076   3.910   0.293   0.925
 4371TIP3    H113077   3.842   0.240   0.967
 4371TIP3    H213078   3.882   0.302   0.834
 4372TIP3   OH213079   5.436   3.977   3.404
 4372TIP3    H113080   5.398   3.889   3.393
 4372TIP3    H213081   5.395   4.010   3.484
 4373TIP3   OH213082   0.814   5.446   0.393
 4373TIP3    H113083   0.844   5.372   0.340
 4373TIP3    H213084   0.806   5.518   0.330
 4374TIP3   OH213085   0.499   3.319   1.337
 4374TIP3    H113086   0.476   3.359   1.421
 4374TIP3    H213087   0.424   3.335   1.281
 4375TIP3   OH213088   0.453   6.843   3.538
 4375TIP3    H113089   0.390   6.815   3.605
 4375TIP3    H213090   0.539   6.827   3.577
 4376TIP3   OH213091   6.843   3.629   2.761
 4376TIP3    H113092   6.781   3.614   2.690
 4376TIP3    H213093   6.927   3.643   2.717
 4377TIP3   OH213094   6.197   3.928   0.368
 4377TIP3    H113095   6.207   3.863   0.437
 4377TIP3    H213096   6.110   3.966   0.382
 4378TIP3   OH213097   5.967   3.337   2.926
 4378TIP3    H113098   5.994   3.314   2.837
 4378TIP3    H213099   6.046   3.372   2.967
 4379TIP3   OH213100   6.107   3.755   5.068
 4379TIP3    H113101   6.160   3.720   4.997
 4379TIP3    H213102   6.016   3.741   5.039
 4380TIP3   OH213103   6.218   5.507   2.242
 4380TIP3    H113104   6.191   5.452   2.169
 4380TIP3    H213105   6.250   5.588   2.201
 4381TIP3   OH213106   1.762   4.437   0.095
 4381TIP3    H113107   1.714   4.469   0.172
 4381TIP3    H213108   1.696   4.430   0.027
 4382TIP3   OH213109   3.678   3.344   5.695
 4382TIP3    H113110   3.718   3.359   5.781
 4382TIP3    H213111   3.712   3.415   5.641
 4383TIP3   OH213112   2.090   0.609   4.633
 4383TIP3    H113113   2.042   0.635   4.554
 4383TIP3    H213114   2.165   0.559   4.600
 4384TIP3   OH213115   0.922   3.445   5.297
 4384TIP3    H113116   0.905   3.509   5.228
 4384TIP3    H213117   0.911   3.494   5.378
 4385TIP3   OH213118   5.853   3.756   1.130
 4385TIP3    H113119   5.928   3.721   1.081
 4385TIP3    H213120   5.882   3.842   1.159
 4386TIP3   OH213121   2.617   4.704   1.975
 4386TIP3    H113122   2.535   4.659   1.957
 4386TIP3    H213123   2.598   4.796   1.957
 4387TIP3   OH213124   5.612   6.609   5.586
 4387TIP3    H113125   5.602   6.704   5.597
 4387TIP3    H213126   5.608   6.574   5.675
 4388TIP3   OH213127   6.075   0.073   5.624
 4388TIP3    H113128   6.139   0.013   5.662
 4388TIP3    H213129   6.034   0.115   5.700
 4389TIP3   OH213130   0.718   3.815   5.147
 4389TIP3    H113131   0.742   3.801   5.056
 4389TIP3    H213132   0.766   3.894   5.173
 4390TIP3   OH213133   5.614   0.524   1.546
 4390TIP3    H113134   5.624   0.446   1.491
 4390TIP3    H213135   5.524   0.519   1.578
 4391TIP3   OH213136   0.849   4.644   4.377
 4391TIP3    H113137   0.869   4.575   4.313
 4391TIP3    H213138   0.913   4.713   4.358
 4392TIP3   OH213139   2.758   1.990   0.369
 4392TIP3    H113140   2.750   1.944   0.452
 4392TIP3    H213141   2.826   1.943   0.322
 4393TIP3   OH213142   4.624   4.978   0.225
 4393TIP3    H113143   4.718   4.988   0.212
 4393TIP3    H213144   4.588   4.977   0.136
 4394TIP3   OH213145   4.045   1.985   4.898
 4394TIP3    H113146   3.991   1.981   4.819
 4394TIP3    H213147   4.039   2.077   4.926
 4395TIP3   OH213148   6.808   0.668   1.298
 4395TIP3    H113149   6.719   0.632   1.304
 4395TIP3    H213150   6.865   0.591   1.304
 4396TIP3   OH213151   3.720   1.047   2.807
 4396TIP3    H113152   3.787   0.992   2.766
 4396TIP3    H213153   3.637   1.007   2.783
 4397TIP3   OH213154   2.982   1.375   3.555
 4397TIP3    H113155   2.917   1.436   3.521
 4397TIP3    H213156   3.066   1.416   3.536
 4398TIP3   OH213157   0.583   2.650   2.885
 4398TIP3    H113158   0.666   2.690   2.861
 4398TIP3    H213159   0.559   2.596   2.810
 4399TIP3   OH213160   2.486   3.045   4.220
 4399TIP3    H113161   2.521   3.020   4.306
 4399TIP3    H213162   2.547   3.112   4.188
 4400TIP3   OH213163   2.086   3.717   5.243
 4400TIP3    H113164   2.123   3.798   5.276
 4400TIP3    H213165   1.994   3.738   5.225
 4401TIP3   OH213166   0.588   3.082   1.463
 4401TIP3    H113167   0.546   3.163   1.434
 4401TIP3    H213168   0.668   3.111   1.507
 4402TIP3   OH213169   0.537   2.274   1.015
 4402TIP3    H113170   0.507   2.206   0.954
 4402TIP3    H213171   0.630   2.255   1.028
 4403TIP3   OH213172   1.345   0.783   1.352
 4403TIP3    H113173   1.400   0.738   1.288
 4403TIP3    H213174   1.256   0.774   1.318
 4404TIP3   OH213175   0.844   1.199   4.680
 4404TIP3    H113176   0.781   1.139   4.639
 4404TIP3    H213177   0.860   1.266   4.613
 4405TIP3   OH213178   0.920   3.019   4.575
 4405TIP3    H113179   0.875   3.100   4.548
 4405TIP3    H213180   0.900   3.011   4.668
 4406TIP3   OH213181   4.015   5.843   3.695
 4406TIP3    H113182   4.107   5.817   3.704
 4406TIP3    H213183   4.018   5.927   3.649
 4407TIP3   OH213184   6.452   3.242   2.030
 4407TIP3    H113185   6.515   3.228   2.101
 4407TIP3    H213186   6.477   3.177   1.964
 4408TIP3   OH213187   1.671   3.815   4.182
 4408TIP3    H113188   1.745   3.755   4.171
 4408TIP3    H213189   1.692   3.890   4.127
 4409TIP3   OH213190   6.836   1.072   4.690
 4409TIP3    H113191   6.875   1.006   4.632
 4409TIP3    H213192   6.830   1.029   4.775
 4410TIP3   OH213193   6.151   6.046   3.335
 4410TIP3    H113194   6.204   6.056   3.414
 4410TIP3    H213195   6.063   6.074   3.361
 4411TIP3   OH213196   4.438   5.848   4.691
 4411TIP3    H113197   4.526   5.856   4.729
 4411TIP3    H213198   4.380   5.845   4.767
 4412TIP3   OH213199   2.359   0.029   1.700
 4412TIP3    H113200   2.427  -0.037   1.704
 4412TIP3    H213201   2.370   0.070   1.614
 4413TIP3   OH213202   5.983   0.253   1.727
 4413TIP3    H113203   5.965   0.320   1.793
 4413TIP3    H213204   5.990   0.172   1.778
 4414TIP3   OH213205   2.841   2.302   3.019
 4414TIP3    H113206   2.905   2.303   3.090
 4414TIP3    H213207   2.768   2.354   3.052
 4415TIP3   OH213208   1.828   4.832   0.758
 4415TIP3    H113209   1.884   4.869   0.826
 4415TIP3    H213210   1.827   4.898   0.689
 4416TIP3   OH213211   7.260   0.616   5.767
 4416TIP3    H113212   7.204   0.664   5.705
 4416TIP3    H213213   7.254   0.667   5.848
 4417TIP3   OH213214   0.915   3.935   0.758
 4417TIP3    H113215   0.975   3.903   0.825
 4417TIP3    H213216   0.908   3.862   0.695
 4418TIP3   OH213217   6.046   1.934   2.565
 4418TIP3    H113218   6.091   1.948   2.649
 4418TIP3    H213219   6.023   2.022   2.535
 4419TIP3   OH213220   3.727   0.095   3.614
 4419TIP3    H113221   3.756   0.035   3.545
 4419TIP3    H213222   3.803   0.150   3.632
 4420TIP3   OH213223   3.851   4.362   5.870
 4420TIP3    H113224   3.855   4.457   5.861
 4420TIP3    H213225   3.766   4.338   5.833
 4421TIP3   OH213226   6.260   6.068   1.706
 4421TIP3    H113227   6.221   5.989   1.743
 4421TIP3    H213228   6.345   6.075   1.750
 4422TIP3   OH213229   3.643   5.985   0.760
 4422TIP3    H113230   3.560   5.997   0.805
 4422TIP3    H213231   3.668   6.073   0.730
 4423TIP3   OH213232   4.987   0.836   3.012
 4423TIP3    H113233   4.965   0.746   3.036
 4423TIP3    H213234   5.074   0.850   3.050
 4424TIP3   OH213235   3.831   3.694   0.779
 4424TIP3    H113236   3.849   3.630   0.848
 4424TIP3    H213237   3.743   3.727   0.799
 4425TIP3   OH213238   1.509   6.548   2.231
 4425TIP3    H113239   1.484   6.619   2.291
 4425TIP3    H213240   1.456   6.563   2.153
 4426TIP3   OH213241   2.731   3.858   1.904
 4426TIP3    H113242   2.712   3.899   1.988
 4426TIP3    H213243   2.820   3.885   1.883
 4427TIP3   OH213244   2.343   6.265   5.513
 4427TIP3    H113245   2.301   6.181   5.533
 4427TIP3    H213246   2.284   6.331   5.548
 4428TIP3   OH213247   6.372   6.559   1.237
 4428TIP3    H113248   6.445   6.614   1.209
 4428TIP3    H213249   6.401   6.470   1.221
 4429TIP3   OH213250   6.368   4.598   0.466
 4429TIP3    H113251   6.363   4.602   0.561
 4429TIP3    H213252   6.426   4.670   0.442
 4430TIP3   OH213253   5.780   5.639   4.338
 4430TIP3    H113254   5.820   5.648   4.425
 4430TIP3    H213255   5.759   5.729   4.312
 4431TIP3   OH213256   6.877   2.542   0.541
 4431TIP3    H113257   6.910   2.521   0.454
 4431TIP3    H213258   6.955   2.552   0.595
 4432TIP3   OH213259   2.055   0.870   5.382
 4432TIP3    H113260   1.987   0.869   5.450
 4432TIP3    H213261   2.131   0.908   5.426
 4433TIP3   OH213262   1.761   4.642   0.444
 4433TIP3    H113263   1.816   4.713   0.478
 4433TIP3    H213264   1.821   4.567   0.438
 4434TIP3   OH213265   5.789   1.119   5.723
 4434TIP3    H113266   5.873   1.125   5.769
 4434TIP3    H213267   5.810   1.141   5.633
 4435TIP3   OH213268   6.743   6.720   5.078
 4435TIP3    H113269   6.696   6.803   5.083
 4435TIP3    H213270   6.835   6.745   5.074
 4436TIP3   OH213271   0.284   6.079   3.685
 4436TIP3    H113272   0.226   6.063   3.759
 4436TIP3    H213273   0.307   6.172   3.693
 4437TIP3   OH213274   2.667   2.283   4.592
 4437TIP3    H113275   2.583   2.261   4.633
 4437TIP3    H213276   2.713   2.200   4.585
 4438TIP3   OH213277   6.895   3.191   0.438
 4438TIP3    H113278   6.805   3.195   0.406
 4438TIP3    H213279   6.945   3.155   0.364
 4439TIP3   OH213280   4.568   4.331   2.719
 4439TIP3    H113281   4.508   4.292   2.782
 4439TIP3    H213282   4.628   4.260   2.696
 4440TIP3   OH213283   6.161   5.767   3.733
 4440TIP3    H113284   6.188   5.859   3.739
 4440TIP3    H213285   6.100   5.756   3.806
 4441TIP3   OH213286   5.570   5.843   4.615
 4441TIP3    H113287   5.590   5.750   4.619
 4441TIP3    H213288   5.609   5.880   4.694
 4442TIP3   OH213289   0.548   0.672   3.036
 4442TIP3    H113290   0.610   0.738   3.068
 4442TIP3    H213291   0.465   0.718   3.031
 4443TIP3   OH213292   1.169   0.053   1.860
 4443TIP3    H113293   1.214  -0.011   1.915
 4443TIP3    H213294   1.236   0.084   1.799
 4444TIP3   OH213295   0.437   3.653   5.664
 4444TIP3    H113296   0.479   3.675   5.581
 4444TIP3    H213297   0.362   3.712   5.670
 4445TIP3   OH213298   1.247   3.389   5.494
 4445TIP3    H113299   1.264   3.482   5.480
 4445TIP3    H213300   1.247   3.350   5.406
 4446TIP3   OH213301   2.405   2.837   0.273
 4446TIP3    H113302   2.320   2.858   0.311
 4446TIP3    H213303   2.442   2.923   0.251
 4447TIP3   OH213304   2.686   3.217   3.760
 4447TIP3    H113305   2.636   3.136   3.746
 4447TIP3    H213306   2.620   3.283   3.778
 4448TIP3   OH213307   1.140   0.608   1.496
 4448TIP3    H113308   1.056   0.651   1.515
 4448TIP3    H213309   1.150   0.615   1.401
 4449TIP3   OH213310   7.146   2.173   3.806
 4449TIP3    H113311   7.158   2.192   3.713
 4449TIP3    H213312   7.216   2.111   3.827
 4450TIP3   OH213313   0.445   1.994   2.067
 4450TIP3    H113314   0.383   2.063   2.043
 4450TIP3    H213315   0.396   1.937   2.126
 4451TIP3   OH213316   6.437   4.663   4.538
 4451TIP3    H113317   6.486   4.648   4.619
 4451TIP3    H213318   6.345   4.661   4.565
 4452TIP3   OH213319   2.611   5.997   1.562
 4452TIP3    H113320   2.624   6.091   1.575
 4452TIP3    H213321   2.551   5.971   1.632
 4453TIP3   OH213322   0.823   0.242   0.285
 4453TIP3    H113323   0.776   0.307   0.233
 4453TIP3    H213324   0.789   0.253   0.373
 4454TIP3   OH213325   4.721   4.628   1.891
 4454TIP3    H113326   4.680   4.568   1.953
 4454TIP3    H213327   4.802   4.585   1.865
 4455TIP3   OH213328   5.123   1.849   3.696
 4455TIP3    H113329   5.164   1.791   3.760
 4455TIP3    H213330   5.145   1.810   3.611
 4456TIP3   OH213331   6.131   2.343   1.590
 4456TIP3    H113332   6.143   2.264   1.644
 4456TIP3    H213333   6.039   2.340   1.564
 4457TIP3   OH213334   4.680   5.688   4.128
 4457TIP3    H113335   4.709   5.608   4.085
 4457TIP3    H213336   4.759   5.722   4.171
 4458TIP3   OH213337   0.934   6.327   4.089
 4458TIP3    H113338   0.902   6.329   3.998
 4458TIP3    H213339   0.855   6.311   4.141
 4459TIP3   OH213340   4.863   2.183   4.344
 4459TIP3    H113341   4.851   2.089   4.333
 4459TIP3    H213342   4.778   2.216   4.372
 4460TIP3   OH213343   3.302   2.496   2.804
 4460TIP3    H113344   3.218   2.452   2.821
 4460TIP3    H213345   3.323   2.540   2.885
 4461TIP3   OH213346   2.596   4.753   5.656
 4461TIP3    H113347   2.604   4.695   5.731
 4461TIP3    H213348   2.550   4.829   5.689
 4462TIP3   OH213349   0.821   2.186   1.311
 4462TIP3    H113350   0.791   2.262   1.361
 4462TIP3    H213351   0.900   2.156   1.356
 4463TIP3   OH213352   0.668   4.083   0.521
 4463TIP3    H113353   0.611   4.052   0.592
 4463TIP3    H213354   0.751   4.105   0.565
 4464TIP3   OH213355   2.743   6.618   5.694
 4464TIP3    H113356   2.674   6.592   5.632
 4464TIP3    H213357   2.763   6.708   5.671
 4465TIP3   OH213358   6.501   3.077   4.079
 4465TIP3    H113359   6.479   3.169   4.093
 4465TIP3    H213360   6.443   3.050   4.007
 4466TIP3   OH213361   5.476   5.749   3.840
 4466TIP3    H113362   5.408   5.813   3.823
 4466TIP3    H213363   5.530   5.748   3.761
 4467TIP3   OH213364   0.271   6.531   5.732
 4467TIP3    H113365   0.252   6.498   5.819
 4467TIP3    H213366   0.339   6.598   5.745
 4468TIP3   OH213367   1.402   3.361   0.074
 4468TIP3    H113368   1.412   3.376   0.168
 4468TIP3    H213369   1.476   3.407   0.035
 4469TIP3   OH213370   1.183   0.756   1.789
 4469TIP3    H113371   1.182   0.803   1.706
 4469TIP3    H213372   1.149   0.669   1.767
 4470TIP3   OH213373   4.776   3.792   4.832
 4470TIP3    H113374   4.851   3.840   4.797
 4470TIP3    H213375   4.799   3.700   4.821
 4471TIP3   OH213376   5.148   0.228   4.967
 4471TIP3    H113377   5.087   0.287   4.924
 4471TIP3    H213378   5.200   0.190   4.896
 4472TIP3   OH213379   0.372   1.995   2.756
 4472TIP3    H113380   0.351   1.971   2.846
 4472TIP3    H213381   0.439   2.062   2.764
 4473TIP3   OH213382   6.771   5.937   0.738
 4473TIP3    H113383   6.692   5.932   0.792
 4473TIP3    H213384   6.843   5.926   0.800
 4474TIP3   OH213385   1.704   0.249   4.067
 4474TIP3    H113386   1.755   0.176   4.101
 4474TIP3    H213387   1.654   0.212   3.995
 4475TIP3   OH213388   3.284   3.158   0.260
 4475TIP3    H113389   3.292   3.071   0.220
 4475TIP3    H213390   3.271   3.140   0.353
 4476TIP3   OH213391   5.509   2.787   2.483
 4476TIP3    H113392   5.550   2.817   2.564
 4476TIP3    H213393   5.473   2.866   2.443
 4477TIP3   OH213394   5.581   0.734   4.032
 4477TIP3    H113395   5.507   0.764   4.085
 4477TIP3    H213396   5.564   0.769   3.945
 4478TIP3   OH213397   6.618   4.436   0.620
 4478TIP3    H113398   6.676   4.396   0.556
 4478TIP3    H213399   6.662   4.518   0.645
 4479TIP3   OH213400   2.891   3.408   5.155
 4479TIP3    H113401   2.827   3.361   5.209
 4479TIP3    H213402   2.861   3.395   5.065
 4480TIP3   OH213403   4.319   0.914   1.687
 4480TIP3    H113404   4.387   0.857   1.651
 4480TIP3    H213405   4.239   0.888   1.641
 4481TIP3   OH213406   4.313   5.528   2.097
 4481TIP3    H113407   4.315   5.433   2.107
 4481TIP3    H213408   4.359   5.545   2.016
 4482TIP3   OH213409   3.908   1.730   1.756
 4482TIP3    H113410   3.827   1.680   1.766
 4482TIP3    H213411   3.886   1.819   1.784
 4483TIP3   OH213412   2.634   0.709   5.344
 4483TIP3    H113413   2.540   0.690   5.347
 4483TIP3    H213414   2.671   0.656   5.415
 4484TIP3   OH213415   6.706   4.145   5.235
 4484TIP3    H113416   6.642   4.217   5.239
 4484TIP3    H213417   6.660   4.070   5.271
 4485TIP3   OH213418   2.748   6.146   5.678
 4485TIP3    H113419   2.776   6.121   5.590
 4485TIP3    H213420   2.790   6.231   5.694
 4486TIP3   OH213421   2.002   5.118   1.560
 4486TIP3    H113422   1.927   5.128   1.619
 4486TIP3    H213423   2.057   5.052   1.602
 4487TIP3   OH213424   5.842   4.453   3.145
 4487TIP3    H113425   5.868   4.491   3.229
 4487TIP3    H213426   5.778   4.386   3.168
 4488TIP3   OH213427   4.961   1.701   5.920
 4488TIP3    H113428   5.037   1.642   5.915
 4488TIP3    H213429   4.895   1.662   5.863
 4489TIP3   OH213430   3.914   3.008   0.656
 4489TIP3    H113431   4.006   3.031   0.674
 4489TIP3    H213432   3.893   2.940   0.719
 4490TIP3   OH213433   6.179   4.257   3.085
 4490TIP3    H113434   6.229   4.179   3.061
 4490TIP3    H213435   6.106   4.224   3.138
 4491TIP3   OH213436   4.403   3.573   0.799
 4491TIP3    H113437   4.413   3.526   0.881
 4491TIP3    H213438   4.312   3.559   0.774
 4492TIP3   OH213439   5.291   2.091   2.240
 4492TIP3    H113440   5.201   2.074   2.212
 4492TIP3    H213441   5.344   2.057   2.168
 4493TIP3   OH213442   3.393   1.423   4.080
 4493TIP3    H113443   3.352   1.449   3.997
 4493TIP3    H213444   3.445   1.345   4.058
 4494TIP3   OH213445   4.885   5.104   5.789
 4494TIP3    H113446   4.904   5.029   5.733
 4494TIP3    H213447   4.790   5.114   5.784
 4495TIP3   OH213448   2.697   6.446   1.835
 4495TIP3    H113449   2.613   6.416   1.871
 4495TIP3    H213450   2.734   6.500   1.905
 4496TIP3   OH213451   6.276   1.980   2.346
 4496TIP3    H113452   6.354   1.957   2.395
 4496TIP3    H213453   6.210   2.000   2.413
 4497TIP3   OH213454   5.113   6.602   1.958
 4497TIP3    H113455   5.085   6.648   1.878
 4497TIP3    H213456   5.074   6.652   2.029
 4498TIP3   OH213457   3.418   6.065   1.246
 4498TIP3    H113458   3.413   6.068   1.342
 4498TIP3    H213459   3.506   6.031   1.228
 4499TIP3   OH213460   4.918   5.380   2.488
 4499TIP3    H113461   4.857   5.320   2.445
 4499TIP3    H213462   4.862   5.433   2.545
 4500TIP3   OH213463   1.568   0.051   2.275
 4500TIP3    H113464   1.477   0.063   2.303
 4500TIP3    H213465   1.615   0.124   2.315
 4501TIP3   OH213466   0.648   0.865   3.878
 4501TIP3    H113467   0.627   0.782   3.922
 4501TIP3    H213468   0.670   0.925   3.949
 4502TIP3   OH213469   6.029   3.494   0.385
 4502TIP3    H113470   6.022   3.416   0.441
 4502TIP3    H213471   5.953   3.488   0.326
 4503TIP3   OH213472   0.040   0.932   3.215
 4503TIP3    H113473   0.097   0.933   3.292
 4503TIP3    H213474   0.029   0.839   3.195
 4504TIP3   OH213475   4.226   1.946   5.383
 4504TIP3    H113476   4.169   1.924   5.310
 4504TIP3    H213477   4.221   1.870   5.441
 4505TIP3   OH213478   1.156   3.359   3.794
 4505TIP3    H113479   1.202   3.411   3.728
 4505TIP3    H213480   1.115   3.288   3.743
 4506TIP3   OH213481   6.644   5.789   2.585
 4506TIP3    H113482   6.676   5.746   2.505
 4506TIP3    H213483   6.630   5.717   2.646
 4507TIP3   OH213484   5.863   5.057   1.589
 4507TIP3    H113485   5.837   4.972   1.626
 4507TIP3    H213486   5.946   5.078   1.632
 4508TIP3   OH213487   5.102   3.566   0.064
 4508TIP3    H113488   5.030   3.512   0.032
 4508TIP3    H213489   5.125   3.527   0.148
 4509TIP3   OH213490   7.031   6.524   0.240
 4509TIP3    H113491   7.003   6.600   0.190
 4509TIP3    H213492   7.057   6.559   0.325
 4510TIP3   OH213493   2.577   0.597   3.544
 4510TIP3    H113494   2.499   0.639   3.508
 4510TIP3    H213495   2.549   0.560   3.627
 4511TIP3   OH213496   6.260   6.109   4.747
 4511TIP3    H113497   6.170   6.143   4.740
 4511TIP3    H213498   6.314   6.178   4.709
 4512TIP3   OH213499   0.725   3.962   2.508
 4512TIP3    H113500   0.684   4.019   2.574
 4512TIP3    H213501   0.655   3.944   2.446
 4513TIP3   OH213502   5.434   1.536   4.469
 4513TIP3    H113503   5.436   1.554   4.376
 4513TIP3    H213504   5.523   1.504   4.489
 4514TIP3   OH213505   4.080   1.278   1.138
 4514TIP3    H113506   4.140   1.310   1.205
 4514TIP3    H213507   4.120   1.304   1.055
 4515TIP3   OH213508   0.909   2.566   1.538
 4515TIP3    H113509   0.925   2.649   1.494
 4515TIP3    H213510   0.872   2.590   1.623
 4516TIP3   OH213511   0.808   0.086   5.601
 4516TIP3    H113512   0.867   0.154   5.635
 4516TIP3    H213513   0.748   0.134   5.544
 4517TIP3   OH213514   1.812   4.557   3.718
 4517TIP3    H113515   1.761   4.520   3.646
 4517TIP3    H213516   1.783   4.509   3.796
 4518TIP3   OH213517   3.145   1.859   3.306
 4518TIP3    H113518   3.190   1.922   3.250
 4518TIP3    H213519   3.188   1.775   3.287
 4519TIP3   OH213520   5.767   0.890   2.368
 4519TIP3    H113521   5.737   0.800   2.360
 4519TIP3    H213522   5.694   0.936   2.409
 4520TIP3   OH213523   4.570   2.069   4.861
 4520TIP3    H113524   4.601   2.017   4.936
 4520TIP3    H213525   4.644   2.124   4.838
 4521TIP3   OH213526   2.539   2.655   1.121
 4521TIP3    H113527   2.559   2.749   1.118
 4521TIP3    H213528   2.464   2.645   1.061
 4522TIP3   OH213529   1.172   3.754   3.814
 4522TIP3    H113530   1.265   3.742   3.797
 4522TIP3    H213531   1.148   3.679   3.869
 4523TIP3   OH213532   2.342   1.315   1.129
 4523TIP3    H113533   2.394   1.372   1.186
 4523TIP3    H213534   2.341   1.230   1.173
 4524TIP3   OH213535   5.304   0.016   4.651
 4524TIP3    H113536   5.214  -0.017   4.662
 4524TIP3    H213537   5.293   0.097   4.600
 4525TIP3   OH213538   5.808   3.778   3.184
 4525TIP3    H113539   5.852   3.717   3.125
 4525TIP3    H213540   5.742   3.725   3.228
 4526TIP3   OH213541   3.353   5.128   2.888
 4526TIP3    H113542   3.282   5.094   2.834
 4526TIP3    H213543   3.353   5.072   2.965
 4527TIP3   OH213544   0.929   4.118   3.038
 4527TIP3    H113545   0.864   4.069   2.988
 4527TIP3    H213546   0.956   4.058   3.108
 4528TIP3   OH213547   7.166   2.392   3.965
 4528TIP3    H113548   7.225   2.430   3.900
 4528TIP3    H213549   7.150   2.302   3.934
 4529TIP3   OH213550   3.310   4.232   5.472
 4529TIP3    H113551   3.253   4.212   5.547
 4529TIP3    H213552   3.378   4.164   5.475
 4530TIP3   OH213553  -0.004   1.615   1.827
 4530TIP3    H113554   0.069   1.667   1.859
 4530TIP3    H213555   0.010   1.528   1.864
 4531TIP3   OH213556   0.461   3.219   2.037
 4531TIP3    H113557   0.516   3.245   1.963
 4531TIP3    H213558   0.460   3.123   2.034
 4532TIP3   OH213559   6.376   3.133   1.473
 4532TIP3    H113560   6.318   3.075   1.521
 4532TIP3    H213561   6.318   3.193   1.427
 4533TIP3   OH213562   1.121   0.264   3.696
 4533TIP3    H113563   1.123   0.207   3.773
 4533TIP3    H213564   1.082   0.345   3.728
 4534TIP3   OH213565   2.814   5.643   0.161
 4534TIP3    H113566   2.815   5.557   0.119
 4534TIP3    H213567   2.865   5.699   0.103
 4535TIP3   OH213568   3.039   2.276   2.223
 4535TIP3    H113569   3.018   2.343   2.289
 4535TIP3    H213570   3.133   2.264   2.231
 4536TIP3   OH213571   1.735   3.336   1.783
 4536TIP3    H113572   1.701   3.247   1.799
 4536TIP3    H213573   1.735   3.377   1.869
 4537TIP3   OH213574   6.390   6.297   3.099
 4537TIP3    H113575   6.313   6.332   3.143
 4537TIP3    H213576   6.457   6.365   3.110
 4538TIP3   OH213577   1.496   1.328   2.810
 4538TIP3    H113578   1.544   1.246   2.824
 4538TIP3    H213579   1.479   1.361   2.898
 4539TIP3   OH213580   6.764   1.395   1.017
 4539TIP3    H113581   6.781   1.426   1.106
 4539TIP3    H213582   6.699   1.456   0.982
 4540TIP3   OH213583   3.573   3.870   2.407
 4540TIP3    H113584   3.603   3.872   2.316
 4540TIP3    H213585   3.648   3.836   2.456
 4541TIP3   OH213586   3.077   4.824   3.032
 4541TIP3    H113587   3.148   4.853   2.975
 4541TIP3    H213588   3.077   4.728   3.024
 4542TIP3   OH213589   2.815   2.959   4.281
 4542TIP3    H113590   2.806   3.029   4.217
 4542TIP3    H213591   2.734   2.964   4.333
 4543TIP3   OH213592   6.845   2.454   5.450
 4543TIP3    H113593   6.847   2.550   5.447
 4543TIP3    H213594   6.930   2.430   5.486
 4544TIP3   OH213595   4.479   5.610   4.954
 4544TIP3    H113596   4.531   5.627   4.875
 4544TIP3    H213597   4.443   5.522   4.940
 4545TIP3   OH213598   6.073   5.975   0.722
 4545TIP3    H113599   6.143   5.929   0.677
 4545TIP3    H213600   5.997   5.964   0.664
 4546TIP3   OH213601   6.813   3.380   5.072
 4546TIP3    H113602   6.867   3.336   5.137
 4546TIP3    H213603   6.729   3.394   5.115
 4547TIP3   OH213604   5.729   1.390   5.335
 4547TIP3    H113605   5.711   1.366   5.245
 4547TIP3    H213606   5.800   1.454   5.329
 4548TIP3   OH213607   0.213   2.799   5.161
 4548TIP3    H113608   0.182   2.770   5.076
 4548TIP3    H213609   0.270   2.873   5.142
 4549TIP3   OH213610   1.688   5.324   0.201
 4549TIP3    H113611   1.663   5.389   0.267
 4549TIP3    H213612   1.613   5.265   0.197
 4550TIP3   OH213613   3.223   1.917   5.478
 4550TIP3    H113614   3.297   1.956   5.432
 4550TIP3    H213615   3.146   1.961   5.442
 4551TIP3   OH213616   6.189   5.906   2.533
 4551TIP3    H113617   6.159   5.878   2.447
 4551TIP3    H213618   6.215   5.997   2.521
 4552TIP3   OH213619   0.173   3.534   3.608
 4552TIP3    H113620   0.185   3.520   3.515
 4552TIP3    H213621   0.204   3.453   3.649
 4553TIP3   OH213622   5.139   5.047   3.935
 4553TIP3    H113623   5.084   5.040   4.013
 4553TIP3    H213624   5.216   5.096   3.964
 4554TIP3   OH213625   3.618   3.401   2.365
 4554TIP3    H113626   3.642   3.315   2.333
 4554TIP3    H213627   3.620   3.457   2.287
 4555TIP3   OH213628   7.116   3.545   3.682
 4555TIP3    H113629   7.113   3.616   3.618
 4555TIP3    H213630   7.203   3.508   3.672
 4556TIP3   OH213631   4.350   6.358   0.538
 4556TIP3    H113632   4.291   6.341   0.464
 4556TIP3    H213633   4.296   6.406   0.601
 4557TIP3   OH213634   1.188   1.720   2.343
 4557TIP3    H113635   1.204   1.688   2.254
 4557TIP3    H213636   1.108   1.773   2.335
 4558TIP3   OH213637   2.134   4.728   3.921
 4558TIP3    H113638   2.122   4.678   3.840
 4558TIP3    H213639   2.055   4.709   3.973
 4559TIP3   OH213640   6.422   2.239   0.408
 4559TIP3    H113641   6.447   2.186   0.332
 4559TIP3    H213642   6.354   2.297   0.375
 4560TIP3   OH213643   1.143   2.020   4.685
 4560TIP3    H113644   1.061   1.975   4.705
 4560TIP3    H213645   1.199   2.002   4.761
 4561TIP3   OH213646   2.330   3.017   5.409
 4561TIP3    H113647   2.343   3.031   5.502
 4561TIP3    H213648   2.259   2.953   5.404
 4562TIP3   OH213649   5.773   2.342   5.307
 4562TIP3    H113650   5.678   2.348   5.307
 4562TIP3    H213651   5.799   2.367   5.396
 4563TIP3   OH213652   3.785   1.478   4.817
 4563TIP3    H113653   3.806   1.397   4.770
 4563TIP3    H213654   3.870   1.514   4.841
 4564TIP3   OH213655   3.121   1.740   4.059
 4564TIP3    H113656   3.207   1.775   4.038
 4564TIP3    H213657   3.102   1.774   4.147
 4565TIP3   OH213658   0.760   3.155   4.943
 4565TIP3    H113659   0.674   3.127   4.912
 4565TIP3    H213660   0.798   3.077   4.983
 4566TIP3   OH213661   2.904   5.771   2.129
 4566TIP3    H113662   2.956   5.693   2.147
 4566TIP3    H213663   2.891   5.770   2.034
 4567TIP3   OH213664   3.579   5.556   0.634
 4567TIP3    H113665   3.491   5.590   0.651
 4567TIP3    H213666   3.637   5.612   0.685
 4568TIP3   OH213667   6.708   2.880   2.731
 4568TIP3    H113668   6.722   2.965   2.773
 4568TIP3    H213669   6.750   2.817   2.791
 4569TIP3   OH213670   2.146   5.456   2.721
 4569TIP3    H113671   2.179   5.378   2.676
 4569TIP3    H213672   2.063   5.429   2.760
 4570TIP3   OH213673   0.835   1.085   0.967
 4570TIP3    H113674   0.837   1.180   0.980
 4570TIP3    H213675   0.771   1.053   1.030
 4571TIP3   OH213676   6.841   3.904   2.103
 4571TIP3    H113677   6.854   3.980   2.161
 4571TIP3    H213678   6.837   3.942   2.015
 4572TIP3   OH213679   5.922   4.501   2.615
 4572TIP3    H113680   5.887   4.514   2.703
 4572TIP3    H213681   5.895   4.579   2.567
 4573TIP3   OH213682   5.272   3.894   4.179
 4573TIP3    H113683   5.288   3.912   4.086
 4573TIP3    H213684   5.176   3.895   4.187
 4574TIP3   OH213685   3.867   3.965   0.550
 4574TIP3    H113686   3.833   3.984   0.462
 4574TIP3    H213687   3.903   3.877   0.543
 4575TIP3   OH213688   4.082   4.317   1.811
 4575TIP3    H113689   4.018   4.291   1.744
 4575TIP3    H213690   4.160   4.266   1.790
 4576TIP3   OH213691   6.887   4.803   3.030
 4576TIP3    H113692   6.812   4.861   3.035
 4576TIP3    H213693   6.929   4.810   3.116
 4577TIP3   OH213694   5.911   2.844   2.323
 4577TIP3    H113695   5.847   2.781   2.287
 4577TIP3    H213696   5.996   2.808   2.298
 4578TIP3   OH213697   2.115   4.226   4.705
 4578TIP3    H113698   2.040   4.284   4.716
 4578TIP3    H213699   2.078   4.146   4.666
 4579TIP3   OH213700   1.262   3.506   3.624
 4579TIP3    H113701   1.228   3.491   3.536
 4579TIP3    H213702   1.356   3.516   3.611
 4580TIP3   OH213703   2.680   5.037   1.279
 4580TIP3    H113704   2.603   5.080   1.243
 4580TIP3    H213705   2.754   5.081   1.236
 4581TIP3   OH213706   5.552   6.521   3.986
 4581TIP3    H113707   5.544   6.602   4.037
 4581TIP3    H213708   5.462   6.496   3.966
 4582TIP3   OH213709   6.490   1.860   5.790
 4582TIP3    H113710   6.452   1.907   5.864
 4582TIP3    H213711   6.520   1.777   5.827
 4583TIP3   OH213712   1.037   3.407   0.991
 4583TIP3    H113713   1.110   3.345   0.986
 4583TIP3    H213714   0.991   3.383   1.071
 4584TIP3   OH213715   0.922   6.718   1.608
 4584TIP3    H113716   0.828   6.732   1.595
 4584TIP3    H213717   0.928   6.673   1.693
 4585TIP3   OH213718   2.552   1.101   1.349
 4585TIP3    H113719   2.504   1.086   1.268
 4585TIP3    H213720   2.586   1.015   1.373
 4586TIP3   OH213721   1.794   6.499   1.791
 4586TIP3    H113722   1.781   6.424   1.850
 4586TIP3    H213723   1.724   6.559   1.813
 4587TIP3   OH213724   0.847   2.115   0.003
 4587TIP3    H113725   0.922   2.169  -0.026
 4587TIP3    H213726   0.772   2.174  -0.002
 4588TIP3   OH213727   3.263   1.061   0.272
 4588TIP3    H113728   3.338   1.003   0.281
 4588TIP3    H213729   3.188   1.003   0.257
 4589TIP3   OH213730   5.688   3.916   3.400
 4589TIP3    H113731   5.723   3.894   3.314
 4589TIP3    H213732   5.597   3.941   3.384
 4590TIP3   OH213733   6.276   5.503   2.888
 4590TIP3    H113734   6.283   5.575   2.952
 4590TIP3    H213735   6.274   5.424   2.942
 4591TIP3   OH213736   4.154   2.310   3.311
 4591TIP3    H113737   4.199   2.278   3.233
 4591TIP3    H213738   4.223   2.323   3.376
 4592TIP3   OH213739   6.495   0.063   2.301
 4592TIP3    H113740   6.405   0.036   2.319
 4592TIP3    H213741   6.532   0.079   2.387
 4593TIP3   OH213742   0.813   6.488   0.575
 4593TIP3    H113743   0.845   6.576   0.556
 4593TIP3    H213744   0.877   6.430   0.534
 4594TIP3   OH213745   0.454   1.922   1.042
 4594TIP3    H113746   0.499   1.843   1.011
 4594TIP3    H213747   0.512   1.958   1.108
 4595TIP3   OH213748   6.037   5.623   2.445
 4595TIP3    H113749   6.045   5.561   2.518
 4595TIP3    H213750   6.105   5.596   2.383
 4596TIP3   OH213751   3.359   2.775   2.695
 4596TIP3    H113752   3.294   2.818   2.751
 4596TIP3    H213753   3.308   2.712   2.644
 4597TIP3   OH213754   3.028   0.049   5.635
 4597TIP3    H113755   3.021  -0.045   5.621
 4597TIP3    H213756   3.120   0.069   5.616
 4598TIP3   OH213757   7.046   0.249   5.449
 4598TIP3    H113758   7.094   0.267   5.368
 4598TIP3    H213759   7.114   0.227   5.513
 4599TIP3   OH213760   3.772   5.745   0.724
 4599TIP3    H113761   3.722   5.825   0.712
 4599TIP3    H213762   3.842   5.750   0.659
 4600TIP3   OH213763   1.492   5.594   3.693
 4600TIP3    H113764   1.493   5.530   3.622
 4600TIP3    H213765   1.501   5.542   3.773
 4601TIP3   OH213766   4.558   2.377   0.781
 4601TIP3    H113767   4.512   2.365   0.698
 4601TIP3    H213768   4.612   2.455   0.768
 4602TIP3   OH213769   2.587   5.006   2.039
 4602TIP3    H113770   2.495   5.017   2.017
 4602TIP3    H213771   2.632   5.077   1.994
 4603TIP3   OH213772   1.546   0.185   3.839
 4603TIP3    H113773   1.465   0.217   3.880
 4603TIP3    H213774   1.517   0.114   3.782
 4604TIP3   OH213775   2.480   1.858   4.874
 4604TIP3    H113776   2.557   1.907   4.902
 4604TIP3    H213777   2.509   1.810   4.797
 4605TIP3   OH213778   3.862   0.691   0.145
 4605TIP3    H113779   3.913   0.772   0.150
 4605TIP3    H213780   3.773   0.720   0.124
 4606TIP3   OH213781   5.680   3.306   5.473
 4606TIP3    H113782   5.671   3.296   5.568
 4606TIP3    H213783   5.772   3.325   5.459
 4607TIP3   OH213784   4.716   5.160   1.786
 4607TIP3    H113785   4.624   5.172   1.765
 4607TIP3    H213786   4.722   5.070   1.819
 4608TIP3   OH213787   3.297   2.257   4.066
 4608TIP3    H113788   3.321   2.270   3.975
 4608TIP3    H213789   3.358   2.313   4.115
 4609TIP3   OH213790   2.910   5.555   5.278
 4609TIP3    H113791   2.966   5.479   5.268
 4609TIP3    H213792   2.885   5.554   5.371
 4610TIP3   OH213793   4.727   5.649   4.792
 4610TIP3    H113794   4.766   5.690   4.715
 4610TIP3    H213795   4.749   5.556   4.784
 4611TIP3   OH213796   0.308   6.078   4.761
 4611TIP3    H113797   0.330   6.169   4.782
 4611TIP3    H213798   0.306   6.034   4.846
 4612TIP3   OH213799   0.567   4.151   5.091
 4612TIP3    H113800   0.656   4.168   5.121
 4612TIP3    H213801   0.524   4.107   5.164
 4613TIP3   OH213802   1.602   1.784   1.044
 4613TIP3    H113803   1.649   1.864   1.022
 4613TIP3    H213804   1.614   1.773   1.138
 4614TIP3   OH213805   3.805   4.246   1.644
 4614TIP3    H113806   3.733   4.294   1.684
 4614TIP3    H213807   3.825   4.294   1.564
 4615TIP3   OH213808   7.148   5.890   5.426
 4615TIP3    H113809   7.083   5.845   5.372
 4615TIP3    H213810   7.106   5.972   5.453
 4616TIP3   OH213811   3.408   2.719   4.696
 4616TIP3    H113812   3.489   2.723   4.748
 4616TIP3    H213813   3.398   2.626   4.677
 4617TIP3   OH213814   4.676   5.030   3.981
 4617TIP3    H113815   4.645   5.115   4.011
 4617TIP3    H213816   4.599   4.989   3.941
 4618TIP3   OH213817   4.002   2.374   5.741
 4618TIP3    H113818   4.035   2.439   5.803
 4618TIP3    H213819   3.920   2.343   5.780
 4619TIP3   OH213820   6.265   1.098   2.198
 4619TIP3    H113821   6.314   1.047   2.133
 4619TIP3    H213822   6.177   1.060   2.196
 4620TIP3   OH213823   0.829   1.347   1.092
 4620TIP3    H113824   0.902   1.409   1.097
 4620TIP3    H213825   0.810   1.325   1.184
 4621TIP3   OH213826   2.556   1.505   5.263
 4621TIP3    H113827   2.637   1.471   5.226
 4621TIP3    H213828   2.542   1.589   5.219
 4622TIP3   OH213829   5.619   0.657   2.375
 4622TIP3    H113830   5.620   0.596   2.448
 4622TIP3    H213831   5.542   0.632   2.324
 4623TIP3   OH213832   6.077   6.733   3.085
 4623TIP3    H113833   6.061   6.827   3.080
 4623TIP3    H213834   6.000   6.693   3.045
 4624TIP3   OH213835   7.146   3.007   1.753
 4624TIP3    H113836   7.089   2.989   1.828
 4624TIP3    H213837   7.125   3.096   1.726
 4625TIP3   OH213838   1.885   6.743   4.671
 4625TIP3    H113839   1.831   6.708   4.600
 4625TIP3    H213840   1.974   6.739   4.638
 4626TIP3   OH213841   6.351   5.016   4.941
 4626TIP3    H113842   6.438   4.993   4.973
 4626TIP3    H213843   6.331   4.949   4.876
 4627TIP3   OH213844   6.678   6.314   2.718
 4627TIP3    H113845   6.759   6.281   2.755
 4627TIP3    H213846   6.618   6.238   2.719
 4628TIP3   OH213847   6.820   3.933   3.615
 4628TIP3    H113848   6.826   3.868   3.685
 4628TIP3    H213849   6.911   3.962   3.601
 4629TIP3   OH213850   6.865   3.742   4.206
 4629TIP3    H113851   6.800   3.768   4.270
 4629TIP3    H213852   6.940   3.712   4.258
 4630TIP3   OH213853   6.770   5.546   3.353
 4630TIP3    H113854   6.848   5.496   3.376
 4630TIP3    H213855   6.698   5.499   3.395
 4631TIP3   OH213856   5.908   0.118   5.141
 4631TIP3    H113857   5.881   0.076   5.060
 4631TIP3    H213858   5.827   0.130   5.190
 4632TIP3   OH213859   3.193   1.042   3.172
 4632TIP3    H113860   3.283   1.067   3.192
 4632TIP3    H213861   3.143   1.069   3.249
 4633TIP3   OH213862   0.632   6.358   4.480
 4633TIP3    H113863   0.575   6.307   4.422
 4633TIP3    H213864   0.589   6.443   4.487
 4634TIP3   OH213865   5.317   5.537   0.988
 4634TIP3    H113866   5.359   5.451   0.985
 4634TIP3    H213867   5.225   5.520   0.971
 4635TIP3   OH213868   4.949   1.400   2.821
 4635TIP3    H113869   4.942   1.479   2.767
 4635TIP3    H213870   4.955   1.328   2.758
 4636TIP3   OH213871   1.746   4.424   3.943
 4636TIP3    H113872   1.834   4.392   3.961
 4636TIP3    H213873   1.693   4.393   4.016
 4637TIP3   OH213874   2.422   4.123   0.156
 4637TIP3    H113875   2.452   4.206   0.195
 4637TIP3    H213876   2.327   4.126   0.167
 4638TIP3   OH213877   3.454   3.844   4.749
 4638TIP3    H113878   3.513   3.787   4.700
 4638TIP3    H213879   3.484   3.837   4.840
 4639TIP3   OH213880   6.265   2.653   4.132
 4639TIP3    H113881   6.341   2.595   4.123
 4639TIP3    H213882   6.286   2.708   4.207
 4640TIP3   OH213883   1.834   1.671   4.690
 4640TIP3    H113884   1.900   1.624   4.742
 4640TIP3    H213885   1.863   1.660   4.599
 4641TIP3   OH213886   0.646   3.220   5.386
 4641TIP3    H113887   0.728   3.256   5.421
 4641TIP3    H213888   0.590   3.208   5.463
 4642TIP3   OH213889   2.239   5.697   5.398
 4642TIP3    H113890   2.158   5.650   5.378
 4642TIP3    H213891   2.211   5.788   5.409
 4643TIP3   OH213892   4.784   6.572   2.071
 4643TIP3    H113893   4.810   6.566   1.979
 4643TIP3    H213894   4.825   6.496   2.113
 4644TIP3   OH213895   5.685   0.404  -0.003
 4644TIP3    H113896   5.742   0.434   0.068
 4644TIP3    H213897   5.704   0.310  -0.010
 4645TIP3   OH213898   6.904   4.345   0.744
 4645TIP3    H113899   6.945   4.262   0.720
 4645TIP3    H213900   6.968   4.412   0.718
 4646TIP3   OH213901   3.300   3.131   4.711
 4646TIP3    H113902   3.350   3.087   4.780
 4646TIP3    H213903   3.236   3.185   4.759
 4647TIP3   OH213904   0.949   0.995   3.234
 4647TIP3    H113905   1.032   1.037   3.256
 4647TIP3    H213906   0.898   0.998   3.315
 4648TIP3   OH213907   0.817   5.930   0.958
 4648TIP3    H113908   0.809   6.012   1.007
 4648TIP3    H213909   0.906   5.931   0.923
 4649TIP3   OH213910   0.395   5.713   2.095
 4649TIP3    H113911   0.343   5.687   2.019
 4649TIP3    H213912   0.453   5.782   2.061
 4650TIP3   OH213913   3.555   5.701   4.724
 4650TIP3    H113914   3.538   5.611   4.697
 4650TIP3    H213915   3.591   5.744   4.646
 4651TIP3   OH213916   1.549   0.513   3.006
 4651TIP3    H113917   1.629   0.497   2.956
 4651TIP3    H213918   1.572   0.583   3.067
 4652TIP3   OH213919   4.603   1.560   4.212
 4652TIP3    H113920   4.676   1.499   4.221
 4652TIP3    H213921   4.540   1.515   4.156
 4653TIP3   OH213922   5.972   3.639   4.625
 4653TIP3    H113923   6.059   3.643   4.585
 4653TIP3    H213924   5.919   3.588   4.565
 4654TIP3   OH213925   1.596   3.048   3.383
 4654TIP3    H113926   1.689   3.030   3.369
 4654TIP3    H213927   1.562   2.966   3.419
 4655TIP3   OH213928   5.785   1.707   3.793
 4655TIP3    H113929   5.816   1.617   3.802
 4655TIP3    H213930   5.780   1.722   3.698
 4656TIP3   OH213931   2.351   1.731   0.661
 4656TIP3    H113932   2.257   1.743   0.655
 4656TIP3    H213933   2.388   1.794   0.598
 4657TIP3   OH213934   3.621   1.949   4.681
 4657TIP3    H113935   3.713   1.932   4.662
 4657TIP3    H213936   3.596   1.878   4.741
 4658TIP3   OH213937   3.096   2.901   2.493
 4658TIP3    H113938   3.059   2.957   2.562
 4658TIP3    H213939   3.187   2.928   2.487
 4659TIP3   OH213940   1.625   3.247   4.663
 4659TIP3    H113941   1.617   3.254   4.758
 4659TIP3    H213942   1.535   3.245   4.631
 4660TIP3   OH213943   4.815   5.962   2.882
 4660TIP3    H113944   4.846   6.053   2.877
 4660TIP3    H213945   4.827   5.937   2.974
 4661TIP3   OH213946   6.440   0.481   3.197
 4661TIP3    H113947   6.446   0.574   3.174
 4661TIP3    H213948   6.346   0.461   3.190
 4662TIP3   OH213949   2.884   2.778   2.608
 4662TIP3    H113950   2.976   2.772   2.582
 4662TIP3    H213951   2.835   2.772   2.526
 4663TIP3   OH213952   4.843   5.825   5.023
 4663TIP3    H113953   4.927   5.834   4.977
 4663TIP3    H213954   4.786   5.780   4.961
 4664TIP3   OH213955   3.699   5.053   3.376
 4664TIP3    H113956   3.624   5.095   3.335
 4664TIP3    H213957   3.761   5.125   3.393
 4665TIP3   OH213958   5.041   3.042   0.111
 4665TIP3    H113959   4.964   2.991   0.086
 4665TIP3    H213960   5.012   3.093   0.187
 4666TIP3   OH213961   4.322   4.890   0.937
 4666TIP3    H113962   4.406   4.876   0.980
 4666TIP3    H213963   4.263   4.916   1.007
 4667TIP3   OH213964   1.212   2.897   0.788
 4667TIP3    H113965   1.215   2.801   0.799
 4667TIP3    H213966   1.289   2.917   0.735
 4668TIP3   OH213967   6.693   5.626   2.351
 4668TIP3    H113968   6.738   5.680   2.286
 4668TIP3    H213969   6.601   5.650   2.341
 4669TIP3   OH213970   4.805   5.011   0.492
 4669TIP3    H113971   4.821   5.087   0.435
 4669TIP3    H213972   4.829   5.042   0.579
 4670TIP3   OH213973   0.548   3.169   5.648
 4670TIP3    H113974   0.536   3.076   5.666
 4670TIP3    H213975   0.464   3.210   5.671
 4671TIP3   OH213976   5.557   6.321   1.115
 4671TIP3    H113977   5.627   6.320   1.180
 4671TIP3    H213978   5.488   6.266   1.153
 4672TIP3   OH213979   4.842   5.676   3.683
 4672TIP3    H113980   4.877   5.679   3.772
 4672TIP3    H213981   4.920   5.673   3.627
 4673TIP3   OH213982   7.152   6.652   1.392
 4673TIP3    H113983   7.191   6.695   1.316
 4673TIP3    H213984   7.190   6.699   1.467
 4674TIP3   OH213985   4.700   6.320   1.774
 4674TIP3    H113986   4.718   6.414   1.776
 4674TIP3    H213987   4.760   6.283   1.838
 4675TIP3   OH213988   3.371   3.548   3.992
 4675TIP3    H113989   3.377   3.642   4.005
 4675TIP3    H213990   3.279   3.531   3.974
 4676TIP3   OH213991   6.160   3.937   4.465
 4676TIP3    H113992   6.224   3.873   4.496
 4676TIP3    H213993   6.163   3.929   4.370
 4677TIP3   OH213994   3.889   3.848   1.445
 4677TIP3    H113995   3.949   3.863   1.371
 4677TIP3    H213996   3.891   3.930   1.494
 4678TIP3   OH213997   2.147   0.342   4.870
 4678TIP3    H113998   2.140   0.437   4.860
 4678TIP3    H213999   2.225   0.319   4.819
 4679TIP3   OH214000   1.001   2.518   4.618
 4679TIP3    H114001   1.038   2.588   4.566
 4679TIP3    H214002   1.048   2.522   4.702
 4680TIP3   OH214003   3.056   4.593   0.443
 4680TIP3    H114004   3.047   4.499   0.460
 4680TIP3    H214005   3.127   4.621   0.501
 4681TIP3   OH214006   3.235   1.660   1.247
 4681TIP3    H114007   3.170   1.720   1.284
 4681TIP3    H214008   3.286   1.714   1.186
 4682TIP3   OH214009   1.980   5.998   1.564
 4682TIP3    H114010   2.045   5.948   1.514
 4682TIP3    H214011   1.924   5.931   1.604
 4683TIP3   OH214012   5.474   5.500   3.713
 4683TIP3    H114013   5.475   5.562   3.786
 4683TIP3    H214014   5.484   5.554   3.635
 4684TIP3   OH214015   1.150   5.838   4.933
 4684TIP3    H114016   1.161   5.903   4.863
 4684TIP3    H214017   1.135   5.889   5.012
 4685TIP3   OH214018   0.146   0.081   4.306
 4685TIP3    H114019   0.182   0.008   4.256
 4685TIP3    H214020   0.115   0.143   4.240
 4686TIP3   OH214021   4.306   0.182   2.957
 4686TIP3    H114022   4.397   0.175   2.929
 4686TIP3    H214023   4.303   0.140   3.042
 4687TIP3   OH214024   1.871   3.326   2.925
 4687TIP3    H114025   1.902   3.265   2.858
 4687TIP3    H214026   1.923   3.405   2.912
 4688TIP3   OH214027   6.040   4.233   5.939
 4688TIP3    H114028   5.949   4.222   5.910
 4688TIP3    H214029   6.066   4.318   5.903
 4689TIP3   OH214030   6.133   1.891   4.026
 4689TIP3    H114031   6.203   1.845   3.980
 4689TIP3    H214032   6.070   1.914   3.958
 4690TIP3   OH214033   4.477   0.117   5.500
 4690TIP3    H114034   4.510   0.050   5.440
 4690TIP3    H214035   4.425   0.068   5.564
 4691TIP3   OH214036  -0.001   4.195   1.789
 4691TIP3    H114037   0.062   4.242   1.735
 4691TIP3    H214038  -0.041   4.130   1.730
 4692TIP3   OH214039   5.972   6.327   0.827
 4692TIP3    H114040   5.893   6.289   0.865
 4692TIP3    H214041   6.032   6.335   0.901
 4693TIP3   OH214042   5.141   4.024   4.543
 4693TIP3    H114043   5.220   4.015   4.490
 4693TIP3    H214044   5.115   4.115   4.532
 4694TIP3   OH214045   2.136   4.041   1.943
 4694TIP3    H114046   2.098   4.072   2.026
 4694TIP3    H214047   2.164   4.121   1.898
 4695TIP3   OH214048   4.738   6.523   3.630
 4695TIP3    H114049   4.689   6.450   3.592
 4695TIP3    H214050   4.677   6.564   3.691
 4696TIP3   OH214051   5.052   0.571   2.902
 4696TIP3    H114052   5.112   0.574   2.976
 4696TIP3    H214053   5.095   0.621   2.833
 4697TIP3   OH214054   0.221   2.311   1.637
 4697TIP3    H114055   0.168   2.244   1.680
 4697TIP3    H214056   0.298   2.263   1.605
 4698TIP3   OH214057   2.333   2.668   2.455
 4698TIP3    H114058   2.376   2.587   2.483
 4698TIP3    H214059   2.264   2.682   2.520
 4699TIP3   OH214060   0.805   6.485   2.568
 4699TIP3    H114061   0.881   6.493   2.511
 4699TIP3    H214062   0.733   6.525   2.518
 4700TIP3   OH214063   4.270   3.592   3.618
 4700TIP3    H114064   4.225   3.563   3.698
 4700TIP3    H214065   4.199   3.610   3.556
 4701TIP3   OH214066   1.383   6.586   1.986
 4701TIP3    H114067   1.312   6.651   1.984
 4701TIP3    H214068   1.359   6.523   1.918
 4702TIP3   OH214069   1.448   4.828   0.895
 4702TIP3    H114070   1.486   4.748   0.860
 4702TIP3    H214071   1.523   4.882   0.918
 4703TIP3   OH214072   4.585   0.605   3.182
 4703TIP3    H114073   4.585   0.521   3.136
 4703TIP3    H214074   4.565   0.669   3.113
 4704TIP3   OH214075   1.364   3.139   2.472
 4704TIP3    H114076   1.336   3.230   2.482
 4704TIP3    H214077   1.390   3.112   2.560
 4705TIP3   OH214078   3.213   6.712   1.479
 4705TIP3    H114079   3.205   6.710   1.574
 4705TIP3    H214080   3.151   6.646   1.448
 4706TIP3   OH214081   2.271   0.991   0.104
 4706TIP3    H114082   2.204   1.050   0.069
 4706TIP3    H214083   2.313   0.953   0.027
 4707TIP3   OH214084   4.080   2.407   1.558
 4707TIP3    H114085   4.110   2.492   1.588
 4707TIP3    H214086   4.104   2.346   1.628
 4708TIP3   OH214087   6.846   0.049   5.076
 4708TIP3    H114088   6.776   0.014   5.131
 4708TIP3    H214089   6.924   0.001   5.103
 4709TIP3   OH214090   3.169   5.953   2.754
 4709TIP3    H114091   3.241   5.909   2.708
 4709TIP3    H214092   3.128   6.008   2.687
 4710TIP3   OH214093   6.481   0.694   0.131
 4710TIP3    H114094   6.443   0.703   0.044
 4710TIP3    H214095   6.546   0.624   0.122
 4711TIP3   OH214096   4.451   1.475   0.628
 4711TIP3    H114097   4.474   1.407   0.691
 4711TIP3    H214098   4.433   1.427   0.547
 4712TIP3   OH214099   5.239   2.405   3.694
 4712TIP3    H114100   5.191   2.339   3.745
 4712TIP3    H214101   5.189   2.486   3.706
 4713TIP3   OH214102   1.380   5.741   0.146
 4713TIP3    H114103   1.347   5.659   0.183
 4713TIP3    H214104   1.301   5.795   0.135
 4714TIP3   OH214105   4.607   3.797   2.776
 4714TIP3    H114106   4.606   3.829   2.866
 4714TIP3    H214107   4.700   3.784   2.756
 4715TIP3   OH214108   4.403   0.772   5.685
 4715TIP3    H114109   4.391   0.867   5.695
 4715TIP3    H214110   4.395   0.738   5.773
 4716TIP3   OH214111   6.144   3.087   5.373
 4716TIP3    H114112   6.132   3.045   5.459
 4716TIP3    H214113   6.149   3.014   5.311
 4717TIP3   OH214114   4.080   6.294   2.975
 4717TIP3    H114115   4.083   6.229   2.905
 4717TIP3    H214116   4.069   6.378   2.931
 4718TIP3   OH214117   4.062   0.894   0.098
 4718TIP3    H114118   4.153   0.866   0.109
 4718TIP3    H214119   4.053   0.969   0.156
 4719TIP3   OH214120   3.392   5.610   0.064
 4719TIP3    H114121   3.309   5.641   0.027
 4719TIP3    H214122   3.379   5.517   0.079
 4720TIP3   OH214123   5.989   2.750   3.373
 4720TIP3    H114124   6.042   2.796   3.308
 4720TIP3    H214125   5.980   2.662   3.339
 4721TIP3   OH214126   2.533   1.629   5.766
 4721TIP3    H114127   2.486   1.605   5.686
 4721TIP3    H214128   2.619   1.659   5.735
 4722TIP3   OH214129   3.886   3.589   4.760
 4722TIP3    H114130   3.851   3.668   4.717
 4722TIP3    H214131   3.862   3.599   4.852
 4723TIP3   OH214132   1.479   5.273   3.620
 4723TIP3    H114133   1.480   5.182   3.650
 4723TIP3    H214134   1.554   5.314   3.664
 4724TIP3   OH214135   6.064   4.634   3.240
 4724TIP3    H114136   6.127   4.642   3.169
 4724TIP3    H214137   5.979   4.624   3.197
 4725TIP3   OH214138   1.783   2.556   5.025
 4725TIP3    H114139   1.785   2.601   4.941
 4725TIP3    H214140   1.705   2.501   5.021
 4726TIP3   OH214141   3.924   6.384   1.840
 4726TIP3    H114142   4.000   6.421   1.885
 4726TIP3    H214143   3.959   6.315   1.785
 4727TIP3   OH214144   5.342   4.672   2.644
 4727TIP3    H114145   5.277   4.743   2.649
 4727TIP3    H214146   5.337   4.629   2.729
 4728TIP3   OH214147   1.138   5.737   3.621
 4728TIP3    H114148   1.197   5.794   3.669
 4728TIP3    H214149   1.072   5.796   3.584
 4729TIP3   OH214150   3.070   2.012   4.887
 4729TIP3    H114151   3.041   1.921   4.889
 4729TIP3    H214152   3.011   2.058   4.947
 4730TIP3   OH214153   6.325   1.721   5.522
 4730TIP3    H114154   6.400   1.773   5.549
 4730TIP3    H214155   6.250   1.780   5.532
 4731TIP3   OH214156   2.691   2.382   5.286
 4731TIP3    H114157   2.628   2.311   5.291
 4731TIP3    H214158   2.691   2.408   5.193
 4732TIP3   OH214159   6.489   1.088   5.408
 4732TIP3    H114160   6.524   1.070   5.321
 4732TIP3    H214161   6.526   1.020   5.464
 4733TIP3   OH214162   1.036   5.050   1.816
 4733TIP3    H114163   0.968   5.080   1.755
 4733TIP3    H214164   1.015   5.093   1.899
 4734TIP3   OH214165   6.457   0.644   2.609
 4734TIP3    H114166   6.501   0.684   2.534
 4734TIP3    H214167   6.406   0.715   2.648
 4735TIP3   OH214168   6.411   4.325   4.550
 4735TIP3    H114169   6.320   4.314   4.578
 4735TIP3    H214170   6.434   4.415   4.575
 4736TIP3   OH214171   0.300   0.623   5.211
 4736TIP3    H114172   0.351   0.554   5.170
 4736TIP3    H214173   0.241   0.655   5.142
 4737TIP3   OH214174   5.229   3.778   5.727
 4737TIP3    H114175   5.261   3.689   5.736
 4737TIP3    H214176   5.245   3.818   5.813
 4738TIP3   OH214177   3.937   5.458   2.098
 4738TIP3    H114178   3.964   5.547   2.074
 4738TIP3    H214179   3.880   5.470   2.174
 4739TIP3   OH214180   6.104   5.136   0.401
 4739TIP3    H114181   6.157   5.072   0.447
 4739TIP3    H214182   6.115   5.114   0.308
 4740TIP3   OH214183   1.594   2.396   3.456
 4740TIP3    H114184   1.678   2.424   3.421
 4740TIP3    H214185   1.530   2.436   3.397
 4741TIP3   OH214186   7.123   3.699   3.447
 4741TIP3    H114187   7.142   3.621   3.394
 4741TIP3    H214188   7.101   3.767   3.383
 4742TIP3   OH214189   4.283   5.203   2.708
 4742TIP3    H114190   4.322   5.290   2.703
 4742TIP3    H214191   4.190   5.219   2.726
 4743TIP3   OH214192   2.994   4.068   2.666
 4743TIP3    H114193   3.019   4.093   2.755
 4743TIP3    H214194   3.029   4.138   2.611
 4744TIP3   OH214195   6.750   1.451   3.162
 4744TIP3    H114196   6.655   1.462   3.167
 4744TIP3    H214197   6.786   1.523   3.213
 4745TIP3   OH214198   0.233   3.509   1.524
 4745TIP3    H114199   0.219   3.564   1.601
 4745TIP3    H214200   0.286   3.436   1.556
 4746TIP3   OH214201   1.142   5.949   3.900
 4746TIP3    H114202   1.092   5.980   3.976
 4746TIP3    H214203   1.079   5.950   3.828
 4747TIP3   OH214204   2.345   3.378   4.918
 4747TIP3    H114205   2.378   3.427   4.842
 4747TIP3    H214206   2.288   3.311   4.880
 4748TIP3   OH214207   1.825   1.936   0.670
 4748TIP3    H114208   1.743   1.984   0.684
 4748TIP3    H214209   1.803   1.845   0.690
 4749TIP3   OH214210   0.059   4.528   2.235
 4749TIP3    H114211   0.045   4.510   2.142
 4749TIP3    H214212   0.153   4.536   2.244
 4750TIP3   OH214213   1.085   1.476   4.148
 4750TIP3    H114214   1.173   1.464   4.113
 4750TIP3    H214215   1.098   1.488   4.242
 4751TIP3   OH214216   1.124   2.479   3.995
 4751TIP3    H114217   1.212   2.451   4.021
 4751TIP3    H214218   1.129   2.490   3.900
 4752TIP3   OH214219   4.641   6.020   4.985
 4752TIP3    H114220   4.702   5.966   5.036
 4752TIP3    H214221   4.696   6.067   4.923
 4753TIP3   OH214222   6.697   4.113   4.769
 4753TIP3    H114223   6.629   4.124   4.703
 4753TIP3    H214224   6.750   4.192   4.762
 4754TIP3   OH214225   5.731   0.647   5.357
 4754TIP3    H114226   5.707   0.598   5.436
 4754TIP3    H214227   5.826   0.653   5.360
 4755TIP3   OH214228   0.071   2.023   5.557
 4755TIP3    H114229   0.120   2.105   5.569
 4755TIP3    H214230   0.121   1.975   5.492
 4756TIP3   OH214231   0.215   3.666   3.097
 4756TIP3    H114232   0.120   3.677   3.100
 4756TIP3    H214233   0.229   3.601   3.028
 4757TIP3   OH214234   5.748   3.052   3.488
 4757TIP3    H114235   5.797   3.006   3.556
 4757TIP3    H214236   5.805   3.124   3.462
 4758TIP3   OH214237   1.534   2.908   4.546
 4758TIP3    H114238   1.509   3.000   4.534
 4758TIP3    H214239   1.597   2.892   4.476
 4759TIP3   OH214240   3.965   0.449   0.225
 4759TIP3    H114241   3.941   0.416   0.138
 4759TIP3    H214242   3.923   0.535   0.230
 4760TIP3   OH214243   4.926   2.710   1.841
 4760TIP3    H114244   4.911   2.793   1.796
 4760TIP3    H214245   5.021   2.707   1.857
 4761TIP3   OH214246   3.938   4.127   2.904
 4761TIP3    H114247   4.016   4.076   2.884
 4761TIP3    H214248   3.960   4.174   2.985
 4762TIP3   OH214249   1.540   5.516   0.317
 4762TIP3    H114250   1.507   5.606   0.313
 4762TIP3    H214251   1.463   5.464   0.344
 4763TIP3   OH214252   3.391   5.678   1.703
 4763TIP3    H114253   3.324   5.654   1.639
 4763TIP3    H214254   3.463   5.713   1.651
 4764TIP3   OH214255   3.684   4.305   3.730
 4764TIP3    H114256   3.730   4.221   3.738
 4764TIP3    H214257   3.607   4.285   3.678
 4765TIP3   OH214258   5.127   5.357   1.394
 4765TIP3    H114259   5.098   5.376   1.304
 4765TIP3    H214260   5.221   5.342   1.386
 4766TIP3   OH214261   4.465   4.432   4.259
 4766TIP3    H114262   4.407   4.357   4.242
 4766TIP3    H214263   4.406   4.500   4.292
 4767TIP3   OH214264   0.024   1.596   0.316
 4767TIP3    H114265   0.108   1.633   0.288
 4767TIP3    H214266  -0.040   1.665   0.297
 4768TIP3   OH214267   3.979   2.913   3.085
 4768TIP3    H114268   3.950   2.992   3.130
 4768TIP3    H214269   3.926   2.909   3.005
 4769TIP3   OH214270   5.682   3.183   2.297
 4769TIP3    H114271   5.708   3.123   2.367
 4769TIP3    H214272   5.764   3.209   2.256
 4770TIP3   OH214273   5.987   3.314   5.441
 4770TIP3    H114274   6.012   3.305   5.533
 4770TIP3    H214275   6.032   3.243   5.397
 4771TIP3   OH214276   6.258   5.171   0.733
 4771TIP3    H114277   6.266   5.264   0.713
 4771TIP3    H214278   6.274   5.127   0.649
 4772TIP3   OH214279   7.113   1.459   3.457
 4772TIP3    H114280   7.181   1.517   3.491
 4772TIP3    H214281   7.095   1.398   3.529
 4773TIP3   OH214282   1.759   2.353   2.273
 4773TIP3    H114283   1.746   2.264   2.242
 4773TIP3    H214284   1.698   2.406   2.220
 4774TIP3   OH214285   1.195   1.279   5.776
 4774TIP3    H114286   1.128   1.222   5.738
 4774TIP3    H214287   1.183   1.363   5.733
 4775TIP3   OH214288   6.977   5.356   3.600
 4775TIP3    H114289   6.894   5.326   3.563
 4775TIP3    H214290   7.011   5.417   3.534
 4776TIP3   OH214291   3.671   4.750   3.894
 4776TIP3    H114292   3.720   4.702   3.960
 4776TIP3    H214293   3.619   4.683   3.849
 4777TIP3   OH214294   4.176   6.104   5.699
 4777TIP3    H114295   4.249   6.165   5.714
 4777TIP3    H214296   4.101   6.161   5.681
 4778TIP3   OH214297   2.102   4.618   3.672
 4778TIP3    H114298   2.028   4.559   3.685
 4778TIP3    H214299   2.115   4.621   3.577
 4779TIP3   OH214300   4.506   5.944   3.072
 4779TIP3    H114301   4.545   6.032   3.073
 4779TIP3    H214302   4.415   5.958   3.098
 4780TIP3   OH214303   7.077   3.390   2.571
 4780TIP3    H114304   7.035   3.442   2.502
 4780TIP3    H214305   7.019   3.315   2.582
 4781TIP3   OH214306   5.515   3.834   0.171
 4781TIP3    H114307   5.605   3.802   0.167
 4781TIP3    H214308   5.523   3.928   0.191
 4782TIP3   OH214309   2.142   2.985   1.363
 4782TIP3    H114310   2.134   2.992   1.268
 4782TIP3    H214311   2.171   2.895   1.379
 4783TIP3   OH214312   0.350   4.731   5.236
 4783TIP3    H114313   0.402   4.689   5.168
 4783TIP3    H214314   0.354   4.825   5.215
 4784TIP3   OH214315   6.197   2.785   1.832
 4784TIP3    H114316   6.160   2.858   1.881
 4784TIP3    H214317   6.143   2.709   1.857
 4785TIP3   OH214318   3.284   4.732   4.826
 4785TIP3    H114319   3.357   4.720   4.766
 4785TIP3    H214320   3.231   4.801   4.785
 4786TIP3   OH214321   6.102   3.164   4.904
 4786TIP3    H114322   6.073   3.213   4.827
 4786TIP3    H214323   6.025   3.114   4.930
 4787TIP3   OH214324   6.379   4.883   3.696
 4787TIP3    H114325   6.463   4.867   3.652
 4787TIP3    H214326   6.404   4.925   3.778
 4788TIP3   OH214327   7.137   5.433   5.390
 4788TIP3    H114328   7.175   5.468   5.471
 4788TIP3    H214329   7.173   5.344   5.383
 4789TIP3   OH214330   4.478   3.505   0.025
 4789TIP3    H114331   4.560   3.485   0.069
 4789TIP3    H214332   4.433   3.421   0.018
 4790TIP3   OH214333   1.864   3.328   2.291
 4790TIP3    H114334   1.933   3.359   2.351
 4790TIP3    H214335   1.878   3.233   2.286
 4791TIP3   OH214336   0.421   1.700   5.020
 4791TIP3    H114337   0.387   1.730   4.936
 4791TIP3    H214338   0.476   1.625   4.999
 4792TIP3   OH214339   0.155   2.535   5.293
 4792TIP3    H114340   0.213   2.460   5.283
 4792TIP3    H214341   0.186   2.599   5.228
 4793TIP3   OH214342   2.086   6.466   4.923
 4793TIP3    H114343   2.117   6.435   4.838
 4793TIP3    H214344   1.990   6.468   4.914
 4794TIP3   OH214345   3.051   0.197   0.012
 4794TIP3    H114346   3.035   0.109  -0.024
 4794TIP3    H214347   3.075   0.181   0.104
 4795TIP3   OH214348   6.163   4.636   3.867
 4795TIP3    H114349   6.257   4.636   3.851
 4795TIP3    H214350   6.127   4.692   3.798
 4796TIP3   OH214351   4.669   4.246   0.591
 4796TIP3    H114352   4.727   4.296   0.648
 4796TIP3    H214353   4.617   4.192   0.651
 4797TIP3   OH214354   5.363   6.600   0.604
 4797TIP3    H114355   5.354   6.547   0.525
 4797TIP3    H214356   5.447   6.645   0.592
 4798TIP3   OH214357   0.457   2.249   0.586
 4798TIP3    H114358   0.542   2.269   0.625
 4798TIP3    H214359   0.420   2.181   0.642
 4799TIP3   OH214360   1.144   2.843   1.328
 4799TIP3    H114361   1.184   2.913   1.278
 4799TIP3    H214362   1.050   2.850   1.309
 4800TIP3   OH214363   3.529   6.338   1.314
 4800TIP3    H114364   3.551   6.289   1.236
 4800TIP3    H214365   3.544   6.430   1.290
 4801TIP3   OH214366   4.930   3.027   2.136
 4801TIP3    H114367   4.973   3.058   2.056
 4801TIP3    H214368   4.989   2.961   2.171
 4802TIP3   OH214369   2.770   5.897   2.612
 4802TIP3    H114370   2.819   5.869   2.535
 4802TIP3    H214371   2.730   5.980   2.587
 4803TIP3   OH214372   4.052   4.736   2.800
 4803TIP3    H114373   4.064   4.809   2.861
 4803TIP3    H214374   4.119   4.750   2.733
 4804TIP3   OH214375   2.067   2.448   2.845
 4804TIP3    H114376   2.080   2.358   2.874
 4804TIP3    H214377   2.119   2.500   2.906
 4805TIP3   OH214378   3.855   3.516   2.705
 4805TIP3    H114379   3.896   3.514   2.619
 4805TIP3    H214380   3.770   3.557   2.690
 4806TIP3   OH214381   0.393   6.753   1.534
 4806TIP3    H114382   0.373   6.840   1.501
 4806TIP3    H214383   0.384   6.696   1.458
 4807TIP3   OH214384   2.148   2.544   3.113
 4807TIP3    H114385   2.148   2.639   3.127
 4807TIP3    H214386   2.208   2.510   3.179
 4808TIP3   OH214387   6.811   2.306   2.975
 4808TIP3    H114388   6.782   2.254   3.050
 4808TIP3    H214389   6.752   2.381   2.974
 4809TIP3   OH214390   2.523   0.349   0.652
 4809TIP3    H114391   2.534   0.424   0.710
 4809TIP3    H214392   2.429   0.331   0.655
 4810TIP3   OH214393   6.103   6.190   0.048
 4810TIP3    H114394   6.077   6.109   0.092
 4810TIP3    H214395   6.172   6.227   0.104
 4811TIP3   OH214396   6.325   2.275   1.365
 4811TIP3    H114397   6.277   2.330   1.302
 4811TIP3    H214398   6.289   2.299   1.450
 4812TIP3   OH214399   1.382   5.973   3.709
 4812TIP3    H114400   1.349   5.930   3.787
 4812TIP3    H214401   1.424   6.053   3.741
 4813TIP3   OH214402   5.638   2.336   2.677
 4813TIP3    H114403   5.552   2.293   2.679
 4813TIP3    H214404   5.665   2.331   2.586
 4814TIP3   OH214405   2.060   5.841   3.937
 4814TIP3    H114406   2.154   5.856   3.926
 4814TIP3    H214407   2.053   5.802   4.024
 4815TIP3   OH214408   4.700   2.037   0.594
 4815TIP3    H114409   4.606   2.057   0.596
 4815TIP3    H214410   4.716   2.004   0.506
 4816TIP3   OH214411   4.392   1.740   3.787
 4816TIP3    H114412   4.341   1.659   3.777
 4816TIP3    H214413   4.462   1.732   3.722
 4817TIP3   OH214414   4.290   5.875   5.592
 4817TIP3    H114415   4.285   5.886   5.497
 4817TIP3    H214416   4.239   5.948   5.627
 4818TIP3   OH214417   0.060   0.638   3.341
 4818TIP3    H114418   0.044   0.566   3.402
 4818TIP3    H214419   0.152   0.660   3.354
 4819TIP3   OH214420   3.357   4.442   0.787
 4819TIP3    H114421   3.381   4.533   0.808
 4819TIP3    H214422   3.262   4.439   0.801
 4820TIP3   OH214423   4.983   5.361   5.806
 4820TIP3    H114424   4.916   5.293   5.802
 4820TIP3    H214425   4.957   5.425   5.740
 4821TIP3   OH214426   2.146   3.896   5.581
 4821TIP3    H114427   2.155   3.947   5.501
 4821TIP3    H214428   2.236   3.872   5.604
 4822TIP3   OH214429   5.320   2.684   3.517
 4822TIP3    H114430   5.401   2.688   3.568
 4822TIP3    H214431   5.313   2.591   3.493
 4823TIP3   OH214432   4.972   3.822   1.959
 4823TIP3    H114433   5.018   3.738   1.966
 4823TIP3    H214434   4.923   3.816   1.877
 4824TIP3   OH214435   1.657   6.118   4.408
 4824TIP3    H114436   1.623   6.122   4.319
 4824TIP3    H214437   1.706   6.199   4.419
 4825TIP3   OH214438   6.882   3.087   2.373
 4825TIP3    H114439   6.880   3.111   2.466
 4825TIP3    H214440   6.884   2.991   2.373
 4826TIP3   OH214441   6.155   4.305   4.707
 4826TIP3    H114442   6.092   4.334   4.774
 4826TIP3    H214443   6.100   4.273   4.636
 4827TIP3   OH214444   0.354   0.304   0.772
 4827TIP3    H114445   0.331   0.281   0.682
 4827TIP3    H214446   0.412   0.234   0.801
 4828TIP3   OH214447   0.536   6.613   4.501
 4828TIP3    H114448   0.606   6.678   4.498
 4828TIP3    H214449   0.498   6.615   4.413
 4829TIP3   OH214450   4.202   5.788   3.389
 4829TIP3    H114451   4.110   5.768   3.373
 4829TIP3    H214452   4.218   5.756   3.478
 4830TIP3   OH214453   6.195   0.961   2.504
 4830TIP3    H114454   6.288   0.984   2.509
 4830TIP3    H214455   6.192   0.868   2.524
 4831TIP3   OH214456   2.991   3.977   4.338
 4831TIP3    H114457   2.919   3.915   4.333
 4831TIP3    H214458   2.965   4.039   4.406
 4832TIP3   OH214459   6.877   1.466   0.482
 4832TIP3    H114460   6.942   1.399   0.461
 4832TIP3    H214461   6.806   1.452   0.419
 4833TIP3   OH214462   5.243   0.592   3.622
 4833TIP3    H114463   5.192   0.556   3.550
 4833TIP3    H214464   5.332   0.597   3.587
 4834TIP3   OH214465   6.209   0.976   0.257
 4834TIP3    H114466   6.272   0.994   0.187
 4834TIP3    H214467   6.262   0.939   0.328
 4835TIP3   OH214468   4.484   4.149   1.994
 4835TIP3    H114469   4.533   4.208   2.052
 4835TIP3    H214470   4.429   4.207   1.942
 4836TIP3   OH214471   6.013   2.335   0.781
 4836TIP3    H114472   5.924   2.300   0.795
 4836TIP3    H214473   5.999   2.424   0.749
 4837TIP3   OH214474   4.038   2.917   1.541
 4837TIP3    H114475   4.114   2.859   1.549
 4837TIP3    H214476   3.968   2.859   1.511
 4838TIP3   OH214477   2.319   2.830   3.976
 4838TIP3    H114478   2.414   2.832   3.963
 4838TIP3    H214479   2.296   2.920   3.997
 4839TIP3   OH214480   3.125   0.342   4.892
 4839TIP3    H114481   3.045   0.322   4.843
 4839TIP3    H214482   3.095   0.365   4.980
 4840TIP3   OH214483   2.056   1.052   3.613
 4840TIP3    H114484   1.977   0.999   3.629
 4840TIP3    H214485   2.091   1.069   3.700
 4841TIP3   OH214486   0.538   1.978   5.625
 4841TIP3    H114487   0.554   1.896   5.577
 4841TIP3    H214488   0.547   2.046   5.558
 4842TIP3   OH214489   4.737   3.919   3.524
 4842TIP3    H114490   4.779   3.955   3.601
 4842TIP3    H214491   4.644   3.942   3.535
 4843TIP3   OH214492   3.613   4.733   1.504
 4843TIP3    H114493   3.612   4.666   1.572
 4843TIP3    H214494   3.554   4.801   1.537
 4844TIP3   OH214495   2.302   3.634   0.269
 4844TIP3    H114496   2.303   3.725   0.298
 4844TIP3    H214497   2.340   3.636   0.181
 4845TIP3   OH214498   0.642   5.569   2.132
 4845TIP3    H114499   0.666   5.632   2.201
 4845TIP3    H214500   0.551   5.589   2.112
 4846TIP3   OH214501   4.535   1.936   5.362
 4846TIP3    H114502   4.577   2.019   5.382
 4846TIP3    H214503   4.454   1.937   5.413
 4847TIP3   OH214504   4.025   0.452   5.350
 4847TIP3    H114505   3.987   0.499   5.276
 4847TIP3    H214506   4.105   0.413   5.315
 4848TIP3   OH214507   4.048   3.367   0.671
 4848TIP3    H114508   3.997   3.355   0.591
 4848TIP3    H214509   4.094   3.285   0.683
 4849TIP3   OH214510   5.020   0.221   1.602
 4849TIP3    H114511   5.045   0.168   1.677
 4849TIP3    H214512   4.983   0.301   1.640
 4850TIP3   OH214513   0.107   5.089   0.896
 4850TIP3    H114514   0.111   5.058   0.987
 4850TIP3    H214515   0.190   5.061   0.858
 4851TIP3   OH214516   1.673   4.332   1.498
 4851TIP3    H114517   1.696   4.347   1.406
 4851TIP3    H214518   1.615   4.255   1.496
 4852TIP3   OH214519   3.429   1.716   4.482
 4852TIP3    H114520   3.444   1.809   4.464
 4852TIP3    H214521   3.451   1.672   4.401
 4853TIP3   OH214522   2.692   5.863   5.076
 4853TIP3    H114523   2.706   5.770   5.058
 4853TIP3    H214524   2.638   5.864   5.156
 4854TIP3   OH214525   4.759   0.828   3.542
 4854TIP3    H114526   4.676   0.841   3.497
 4854TIP3    H214527   4.816   0.897   3.507
 4855TIP3   OH214528   0.151   0.743   1.654
 4855TIP3    H114529   0.133   0.827   1.697
 4855TIP3    H214530   0.134   0.678   1.722
 4856TIP3   OH214531   2.257   0.338   3.836
 4856TIP3    H114532   2.206   0.276   3.889
 4856TIP3    H214533   2.348   0.307   3.844
 4857TIP3   OH214534   2.961   2.447   1.407
 4857TIP3    H114535   3.035   2.428   1.464
 4857TIP3    H214536   2.884   2.439   1.464
 4858TIP3   OH214537   3.865   2.236   4.821
 4858TIP3    H114538   3.797   2.291   4.782
 4858TIP3    H214539   3.900   2.186   4.748
 4859TIP3   OH214540   6.757   4.350   1.987
 4859TIP3    H114541   6.832   4.311   2.032
 4859TIP3    H214542   6.745   4.435   2.028
 4860TIP3   OH214543   1.222   6.760   4.163
 4860TIP3    H114544   1.158   6.819   4.202
 4860TIP3    H214545   1.197   6.673   4.193
 4861TIP3   OH214546   2.590   4.794   4.446
 4861TIP3    H114547   2.519   4.840   4.493
 4861TIP3    H214548   2.606   4.716   4.499
 4862TIP3   OH214549   6.641   4.878   0.975
 4862TIP3    H114550   6.555   4.917   0.992
 4862TIP3    H214551   6.662   4.903   0.885
 4863TIP3   OH214552   5.051   2.431   0.858
 4863TIP3    H114553   5.040   2.337   0.842
 4863TIP3    H214554   5.017   2.472   0.778
 4864TIP3   OH214555   0.960   3.069   1.348
 4864TIP3    H114556   0.908   2.991   1.332
 4864TIP3    H214557   0.915   3.114   1.419
 4865TIP3   OH214558   6.521   3.125   2.417
 4865TIP3    H114559   6.597   3.076   2.447
 4865TIP3    H214560   6.490   3.078   2.340
 4866TIP3   OH214561   2.624   5.544   3.928
 4866TIP3    H114562   2.635   5.450   3.911
 4866TIP3    H214563   2.536   5.552   3.964
 4867TIP3   OH214564   0.879   4.223   1.406
 4867TIP3    H114565   0.818   4.173   1.460
 4867TIP3    H214566   0.915   4.158   1.344
 4868TIP3   OH214567   7.256   6.290   0.037
 4868TIP3    H114568   7.315   6.275   0.111
 4868TIP3    H214569   7.170   6.266   0.070
 4869TIP3   OH214570   0.870   5.672   3.284
 4869TIP3    H114571   0.927   5.659   3.208
 4869TIP3    H214572   0.851   5.766   3.283
 4870TIP3   OH214573   4.190   1.684   5.551
 4870TIP3    H114574   4.278   1.656   5.578
 4870TIP3    H214575   4.131   1.621   5.593
 4871TIP3   OH214576   1.481   4.519   1.158
 4871TIP3    H114577   1.508   4.556   1.242
 4871TIP3    H214578   1.411   4.457   1.180
 4872TIP3   OH214579   4.676   4.227   4.295
 4872TIP3    H114580   4.709   4.313   4.323
 4872TIP3    H214581   4.590   4.245   4.258
 4873TIP3   OH214582   5.698   6.659   4.792
 4873TIP3    H114583   5.714   6.713   4.714
 4873TIP3    H214584   5.746   6.703   4.862
 4874TIP3   OH214585   0.559   6.466   0.684
 4874TIP3    H114586   0.648   6.451   0.652
 4874TIP3    H214587   0.503   6.448   0.609
 4875TIP3   OH214588   6.256   0.681   4.219
 4875TIP3    H114589   6.310   0.613   4.179
 4875TIP3    H214590   6.311   0.720   4.286
 4876TIP3   OH214591   2.249   0.885   2.183
 4876TIP3    H114592   2.221   0.967   2.141
 4876TIP3    H214593   2.328   0.859   2.134
 4877TIP3   OH214594   2.682   5.076   3.967
 4877TIP3    H114595   2.623   5.023   4.021
 4877TIP3    H214596   2.768   5.035   3.978
 4878TIP3   OH214597   2.016   0.569   2.938
 4878TIP3    H114598   2.064   0.647   2.965
 4878TIP3    H214599   1.928   0.600   2.918
 4879TIP3   OH214600   6.402   4.682   0.989
 4879TIP3    H114601   6.401   4.777   0.999
 4879TIP3    H214602   6.442   4.649   1.069
 4880TIP3   OH214603   3.819   4.556   0.556
 4880TIP3    H114604   3.838   4.631   0.500
 4880TIP3    H214605   3.754   4.506   0.507
 4881TIP3   OH214606   5.742   5.270   3.793
 4881TIP3    H114607   5.763   5.360   3.768
 4881TIP3    H214608   5.784   5.216   3.725
 4882TIP3   OH214609   6.738   3.545   4.869
 4882TIP3    H114610   6.773   3.632   4.890
 4882TIP3    H214611   6.756   3.492   4.946
 4883TIP3   OH214612   1.619   6.232   3.151
 4883TIP3    H114613   1.612   6.138   3.168
 4883TIP3    H214614   1.558   6.272   3.214
 4884TIP3   OH214615   1.479   0.398   4.926
 4884TIP3    H114616   1.447   0.465   4.867
 4884TIP3    H214617   1.414   0.327   4.921
 4885TIP3   OH214618   2.046   4.756   4.354
 4885TIP3    H114619   2.056   4.804   4.272
 4885TIP3    H214620   2.065   4.665   4.332
 4886TIP3   OH214621   5.720   0.439   3.817
 4886TIP3    H114622   5.711   0.506   3.748
 4886TIP3    H214623   5.631   0.425   3.847
 4887TIP3   OH214624   2.265   0.860   4.572
 4887TIP3    H114625   2.202   0.809   4.623
 4887TIP3    H214626   2.219   0.883   4.491
 4888TIP3   OH214627   2.890   2.172   5.013
 4888TIP3    H114628   2.890   2.252   4.961
 4888TIP3    H214629   2.798   2.159   5.037
 4889TIP3   OH214630   5.404   5.346   2.281
 4889TIP3    H114631   5.313   5.370   2.297
 4889TIP3    H214632   5.428   5.292   2.357
 4890TIP3   OH214633   5.711   5.627   0.238
 4890TIP3    H114634   5.767   5.644   0.314
 4890TIP3    H214635   5.747   5.546   0.200
 4891TIP3   OH214636   1.916   2.450   0.646
 4891TIP3    H114637   1.853   2.487   0.585
 4891TIP3    H214638   2.001   2.461   0.603
 4892TIP3   OH214639   4.948   3.242   0.275
 4892TIP3    H114640   4.860   3.263   0.245
 4892TIP3    H214641   4.936   3.216   0.367
 4893TIP3   OH214642   3.219   1.824   3.574
 4893TIP3    H114643   3.174   1.837   3.491
 4893TIP3    H214644   3.187   1.894   3.631
 4894TIP3   OH214645   5.483   2.775   4.428
 4894TIP3    H114646   5.546   2.845   4.415
 4894TIP3    H214647   5.403   2.819   4.457
 4895TIP3   OH214648   6.273   6.250   0.960
 4895TIP3    H114649   6.273   6.167   1.008
 4895TIP3    H214650   6.277   6.225   0.868
 4896TIP3   OH214651   0.538   5.629   1.700
 4896TIP3    H114652   0.513   5.720   1.684
 4896TIP3    H214653   0.629   5.634   1.729
 4897TIP3   OH214654   3.003   2.460   0.082
 4897TIP3    H114655   3.090   2.486   0.114
 4897TIP3    H214656   3.011   2.366   0.064
 4898TIP3   OH214657   5.705   2.369   0.145
 4898TIP3    H114658   5.709   2.298   0.081
 4898TIP3    H214659   5.723   2.448   0.095
 4899TIP3   OH214660   3.225   2.445   3.381
 4899TIP3    H114661   3.319   2.432   3.388
 4899TIP3    H214662   3.215   2.537   3.356
 4900TIP3   OH214663   1.314   6.372   0.568
 4900TIP3    H114664   1.238   6.408   0.615
 4900TIP3    H214665   1.387   6.426   0.597
 4901TIP3   OH214666   2.650   6.819   2.121
 4901TIP3    H114667   2.663   6.803   2.214
 4901TIP3    H214668   2.714   6.762   2.077
 4902TIP3   OH214669   0.106   6.452   3.998
 4902TIP3    H114670   0.088   6.370   3.952
 4902TIP3    H214671   0.052   6.517   3.953
 4903TIP3   OH214672   5.787   5.633   2.112
 4903TIP3    H114673   5.811   5.718   2.150
 4903TIP3    H214674   5.799   5.645   2.017
 4904TIP3   OH214675   0.679   2.129   2.049
 4904TIP3    H114676   0.744   2.085   2.103
 4904TIP3    H214677   0.595   2.096   2.081
 4905TIP3   OH214678   1.099   3.277   2.921
 4905TIP3    H114679   1.025   3.240   2.968
 4905TIP3    H214680   1.071   3.280   2.829
 4906TIP3   OH214681   5.320   3.385   1.954
 4906TIP3    H114682   5.409   3.420   1.949
 4906TIP3    H214683   5.329   3.304   2.004
 4907TIP3   OH214684   0.675   4.687   1.741
 4907TIP3    H114685   0.597   4.643   1.708
 4907TIP3    H214686   0.747   4.649   1.690
 4908TIP3   OH214687   5.463   0.261   5.711
 4908TIP3    H114688   5.425   0.317   5.779
 4908TIP3    H214689   5.426   0.294   5.629
 4909TIP3   OH214690   1.163   3.843   2.691
 4909TIP3    H114691   1.170   3.859   2.785
 4909TIP3    H214692   1.070   3.826   2.677
 4910TIP3   OH214693   1.120   5.063   1.272
 4910TIP3    H114694   1.110   5.020   1.187
 4910TIP3    H214695   1.072   5.145   1.263
 4911TIP3   OH214696   1.650   3.479   4.042
 4911TIP3    H114697   1.568   3.519   4.011
 4911TIP3    H214698   1.719   3.537   4.011
 4912TIP3   OH214699   3.090   1.810   4.314
 4912TIP3    H114700   3.108   1.897   4.348
 4912TIP3    H214701   3.133   1.751   4.376
 4913TIP3   OH214702   7.014   1.923   2.819
 4913TIP3    H114703   6.965   1.885   2.892
 4913TIP3    H214704   7.051   1.847   2.774
 4914TIP3   OH214705   5.852   3.993   1.646
 4914TIP3    H114706   5.913   4.039   1.704
 4914TIP3    H214707   5.829   3.914   1.695
 4915TIP3   OH214708   0.953   5.809   2.049
 4915TIP3    H114709   1.032   5.826   1.998
 4915TIP3    H214710   0.968   5.722   2.086
 4916TIP3   OH214711   3.829   0.573   1.842
 4916TIP3    H114712   3.850   0.558   1.750
 4916TIP3    H214713   3.851   0.665   1.856
 4917TIP3   OH214714   4.476   2.119   0.900
 4917TIP3    H114715   4.399   2.132   0.845
 4917TIP3    H214716   4.537   2.188   0.872
 4918TIP3   OH214717   2.562   5.316   1.945
 4918TIP3    H114718   2.558   5.257   1.870
 4918TIP3    H214719   2.623   5.385   1.917
 4919TIP3   OH214720   0.303   3.281   2.808
 4919TIP3    H114721   0.238   3.295   2.739
 4919TIP3    H214722   0.336   3.193   2.792
 4920TIP3   OH214723   1.648   3.224   5.211
 4920TIP3    H114724   1.717   3.212   5.276
 4920TIP3    H214725   1.617   3.136   5.192
 4921TIP3   OH214726   6.261   3.144   2.584
 4921TIP3    H114727   6.335   3.182   2.536
 4921TIP3    H214728   6.274   3.049   2.575
 4922TIP3   OH214729   1.811   6.121   0.993
 4922TIP3    H114730   1.729   6.095   1.036
 4922TIP3    H214731   1.813   6.069   0.913
 4923TIP3   OH214732   0.302   1.786   0.206
 4923TIP3    H114733   0.328   1.834   0.285
 4923TIP3    H214734   0.308   1.851   0.136
 4924TIP3   OH214735   6.394   4.977   0.943
 4924TIP3    H114736   6.314   4.998   0.991
 4924TIP3    H214737   6.416   5.057   0.896
 4925TIP3   OH214738   7.035   3.130   4.972
 4925TIP3    H114739   7.011   3.189   5.044
 4925TIP3    H214740   6.954   3.083   4.951
 4926TIP3   OH214741   1.658   6.251   5.753
 4926TIP3    H114742   1.669   6.222   5.844
 4926TIP3    H214743   1.569   6.224   5.730
 4927TIP3   OH214744   4.667   6.188   1.201
 4927TIP3    H114745   4.646   6.111   1.255
 4927TIP3    H214746   4.743   6.227   1.244
 4928TIP3   OH214747   7.092   2.360   5.507
 4928TIP3    H114748   7.157   2.295   5.482
 4928TIP3    H214749   7.142   2.439   5.526
 4929TIP3   OH214750   1.184   3.646   2.151
 4929TIP3    H114751   1.175   3.573   2.090
 4929TIP3    H214752   1.243   3.613   2.220
 4930TIP3   OH214753   3.229   3.241   2.135
 4930TIP3    H114754   3.164   3.223   2.203
 4930TIP3    H214755   3.189   3.308   2.080
 4931TIP3   OH214756   6.204   1.806   4.381
 4931TIP3    H114757   6.275   1.869   4.390
 4931TIP3    H214758   6.233   1.747   4.311
 4932TIP3   OH214759   7.126   2.200   5.278
 4932TIP3    H114760   7.128   2.280   5.225
 4932TIP3    H214761   7.045   2.206   5.328
 4933TIP3   OH214762   7.086   1.115   4.964
 4933TIP3    H114763   7.051   1.178   4.902
 4933TIP3    H214764   7.035   1.128   5.044
 4934TIP3   OH214765   3.043   3.714   2.761
 4934TIP3    H114766   3.135   3.691   2.775
 4934TIP3    H214767   3.031   3.711   2.666
 4935TIP3   OH214768   5.731   2.701   3.771
 4935TIP3    H114769   5.802   2.748   3.727
 4935TIP3    H214770   5.682   2.769   3.817
 4936TIP3   OH214771   1.619   5.848   3.851
 4936TIP3    H114772   1.710   5.838   3.823
 4936TIP3    H214773   1.573   5.777   3.807
 4937TIP3   OH214774   3.626   4.104   1.913
 4937TIP3    H114775   3.594   4.014   1.911
 4937TIP3    H214776   3.720   4.096   1.925
 4938TIP3   OH214777   3.314   0.397   2.725
 4938TIP3    H114778   3.402   0.409   2.691
 4938TIP3    H214779   3.326   0.359   2.812
 4939TIP3   OH214780   2.842   3.057   4.826
 4939TIP3    H114781   2.792   3.133   4.854
 4939TIP3    H214782   2.876   3.080   4.740
 4940TIP3   OH214783   3.803   5.292   1.168
 4940TIP3    H114784   3.738   5.238   1.213
 4940TIP3    H214785   3.869   5.311   1.235
 4941TIP3   OH214786   2.817   3.960   5.108
 4941TIP3    H114787   2.823   3.865   5.108
 4941TIP3    H214788   2.875   3.988   5.179
 4942TIP3   OH214789   5.250   5.886   2.010
 4942TIP3    H114790   5.279   5.935   2.086
 4942TIP3    H214791   5.306   5.808   2.009
 4943TIP3   OH214792   5.324   6.053   2.219
 4943TIP3    H114793   5.344   6.023   2.308
 4943TIP3    H214794   5.266   6.128   2.232
 4944TIP3   OH214795   3.683   0.374   5.812
 4944TIP3    H114796   3.626   0.383   5.888
 4944TIP3    H214797   3.654   0.293   5.770
 4945TIP3   OH214798   2.952   2.769   2.897
 4945TIP3    H114799   2.952   2.793   2.805
 4945TIP3    H214800   2.862   2.784   2.927
 4946TIP3   OH214801   6.468   5.681   3.400
 4946TIP3    H114802   6.419   5.762   3.383
 4946TIP3    H214803   6.549   5.690   3.350
 4947TIP3   OH214804   3.644   2.212   4.493
 4947TIP3    H114805   3.717   2.157   4.464
 4947TIP3    H214806   3.681   2.269   4.560
 4948TIP3   OH214807   4.165   1.650   0.795
 4948TIP3    H114808   4.107   1.718   0.830
 4948TIP3    H214809   4.250   1.694   0.788
 4949TIP3   OH214810   3.373   4.496   5.471
 4949TIP3    H114811   3.316   4.542   5.532
 4949TIP3    H214812   3.352   4.403   5.484
 4950TIP3   OH214813   7.045   1.142   3.978
 4950TIP3    H114814   7.108   1.200   4.021
 4950TIP3    H214815   6.992   1.106   4.049
 4951TIP3   OH214816   1.944   1.173   3.097
 4951TIP3    H114817   1.976   1.219   3.175
 4951TIP3    H214818   1.891   1.101   3.132
 4952TIP3   OH214819   1.605   5.066   5.063
 4952TIP3    H114820   1.614   4.977   5.096
 4952TIP3    H214821   1.513   5.088   5.074
 4953TIP3   OH214822   0.465   0.409   1.884
 4953TIP3    H114823   0.414   0.363   1.817
 4953TIP3    H214824   0.504   0.339   1.936
 4954TIP3   OH214825   2.389   6.161   1.567
 4954TIP3    H114826   2.340   6.241   1.547
 4954TIP3    H214827   2.477   6.178   1.533
 4955TIP3   OH214828   4.354   1.749   1.074
 4955TIP3    H114829   4.356   1.752   0.979
 4955TIP3    H214830   4.304   1.828   1.099
 4956TIP3   OH214831   3.927   4.112   0.094
 4956TIP3    H114832   3.977   4.034   0.071
 4956TIP3    H214833   3.955   4.133   0.183
 4957TIP3   OH214834   2.802   0.893   1.516
 4957TIP3    H114835   2.861   0.873   1.589
 4957TIP3    H214836   2.859   0.929   1.448
 4958TIP3   OH214837   2.325   3.982   4.388
 4958TIP3    H114838   2.328   4.021   4.300
 4958TIP3    H214839   2.415   3.988   4.420
 4959TIP3   OH214840   3.606   5.028   1.003
 4959TIP3    H114841   3.615   5.054   0.912
 4959TIP3    H214842   3.517   5.055   1.027
 4960TIP3   OH214843   6.510   5.240   0.857
 4960TIP3    H114844   6.595   5.283   0.848
 4960TIP3    H214845   6.453   5.306   0.896
 4961TIP3   OH214846   5.039   4.468   2.862
 4961TIP3    H114847   4.976   4.510   2.803
 4961TIP3    H214848   5.030   4.374   2.843
 4962TIP3   OH214849   0.051   5.848   3.590
 4962TIP3    H114850  -0.023   5.894   3.631
 4962TIP3    H214851   0.114   5.837   3.661
 4963TIP3   OH214852   3.327   3.565   1.789
 4963TIP3    H114853   3.348   3.633   1.725
 4963TIP3    H214854   3.412   3.525   1.810
 4964TIP3   OH214855   2.997   1.368   4.482
 4964TIP3    H114856   3.018   1.275   4.494
 4964TIP3    H214857   3.054   1.396   4.411
 4965TIP3   OH214858   3.183   6.118   5.658
 4965TIP3    H114859   3.158   6.130   5.749
 4965TIP3    H214860   3.278   6.126   5.658
 4966TIP3   OH214861   2.431   0.558   0.887
 4966TIP3    H114862   2.399   0.489   0.946
 4966TIP3    H214863   2.520   0.576   0.918
 4967TIP3   OH214864   4.958   3.734   3.984
 4967TIP3    H114865   4.951   3.830   3.983
 4967TIP3    H214866   4.868   3.704   3.973
 4968TIP3   OH214867   4.133   5.568   4.598
 4968TIP3    H114868   4.105   5.495   4.653
 4968TIP3    H214869   4.156   5.528   4.514
 4969TIP3   OH214870   4.598   3.628   1.444
 4969TIP3    H114871   4.553   3.696   1.493
 4969TIP3    H214872   4.660   3.591   1.507
 4970TIP3   OH214873   0.655   3.340   5.120
 4970TIP3    H114874   0.665   3.303   5.208
 4970TIP3    H214875   0.714   3.289   5.065
 4971TIP3   OH214876   6.717   0.358   1.006
 4971TIP3    H114877   6.666   0.355   1.087
 4971TIP3    H214878   6.783   0.290   1.017
 4972TIP3   OH214879   2.076   3.333   5.103
 4972TIP3    H114880   2.137   3.266   5.135
 4972TIP3    H214881   2.074   3.321   5.008
 4973TIP3   OH214882   3.448   0.255   2.932
 4973TIP3    H114883   3.493   0.218   3.008
 4973TIP3    H214884   3.356   0.256   2.957
 4974TIP3   OH214885   0.374   1.818   4.715
 4974TIP3    H114886   0.350   1.908   4.695
 4974TIP3    H214887   0.467   1.812   4.695
 4975TIP3   OH214888   5.898   6.118   1.171
 4975TIP3    H114889   5.864   6.176   1.103
 4975TIP3    H214890   5.915   6.036   1.126
 4976TIP3   OH214891   7.043   0.687   5.139
 4976TIP3    H114892   7.027   0.659   5.049
 4976TIP3    H214893   7.095   0.617   5.178
 4977TIP3   OH214894   0.565   5.544   4.410
 4977TIP3    H114895   0.478   5.521   4.379
 4977TIP3    H214896   0.625   5.495   4.354
 4978TIP3   OH214897   3.928   5.728   2.829
 4978TIP3    H114898   3.903   5.724   2.737
 4978TIP3    H214899   3.868   5.666   2.872
 4979TIP3   OH214900   5.756   6.618   2.692
 4979TIP3    H114901   5.834   6.582   2.651
 4979TIP3    H214902   5.691   6.547   2.685
 4980TIP3   OH214903   6.128   1.867   0.440
 4980TIP3    H114904   6.060   1.895   0.501
 4980TIP3    H214905   6.208   1.910   0.471
 4981TIP3   OH214906   7.188   5.914   3.332
 4981TIP3    H114907   7.102   5.920   3.372
 4981TIP3    H214908   7.249   5.920   3.406
 4982TIP3   OH214909   2.903   1.201   0.814
 4982TIP3    H114910   2.827   1.221   0.760
 4982TIP3    H214911   2.974   1.185   0.752
 4983TIP3   OH214912   0.690   4.030   4.149
 4983TIP3    H114913   0.694   4.118   4.187
 4983TIP3    H214914   0.608   4.029   4.099
 4984TIP3   OH214915   6.016   5.702   4.009
 4984TIP3    H114916   5.971   5.786   4.000
 4984TIP3    H214917   6.070   5.712   4.087
 4985TIP3   OH214918   7.118   3.714   0.541
 4985TIP3    H114919   7.087   3.636   0.495
 4985TIP3    H214920   7.065   3.786   0.506
 4986TIP3   OH214921   5.548   3.067   0.669
 4986TIP3    H114922   5.623   3.016   0.638
 4986TIP3    H214923   5.553   3.149   0.620
 4987TIP3   OH214924   2.774   0.522   0.942
 4987TIP3    H114925   2.803   0.434   0.920
 4987TIP3    H214926   2.751   0.562   0.859
 4988TIP3   OH214927   5.285   3.357   4.715
 4988TIP3    H114928   5.215   3.360   4.781
 4988TIP3    H214929   5.296   3.264   4.696
 4989TIP3   OH214930   1.847   2.138   1.532
 4989TIP3    H114931   1.839   2.232   1.550
 4989TIP3    H214932   1.808   2.127   1.445
 4990TIP3   OH214933   2.587   1.713   2.665
 4990TIP3    H114934   2.526   1.748   2.730
 4990TIP3    H214935   2.587   1.778   2.594
 4991TIP3   OH214936   3.304   3.943   1.863
 4991TIP3    H114937   3.317   3.899   1.779
 4991TIP3    H214938   3.250   4.019   1.842
 4992TIP3   OH214939   2.900   5.052   0.155
 4992TIP3    H114940   2.841   4.977   0.151
 4992TIP3    H214941   2.960   5.033   0.227
 4993TIP3   OH214942   5.387   5.998   5.084
 4993TIP3    H114943   5.393   5.927   5.021
 4993TIP3    H214944   5.437   6.070   5.044
 4994TIP3   OH214945   0.433   0.647   0.376
 4994TIP3    H114946   0.477   0.694   0.447
 4994TIP3    H214947   0.358   0.701   0.354
 4995TIP3   OH214948   2.352   3.998   5.153
 4995TIP3    H114949   2.387   3.929   5.209
 4995TIP3    H214950   2.348   3.958   5.066
 4996TIP3   OH214951   0.406   0.586   1.193
 4996TIP3    H114952   0.452   0.552   1.270
 4996TIP3    H214953   0.363   0.666   1.225
 4997TIP3   OH214954   0.028   4.938   2.278
 4997TIP3    H114955  -0.031   4.909   2.347
 4997TIP3    H214956   0.090   4.995   2.322
 4998TIP3   OH214957   5.279   6.749   5.745
 4998TIP3    H114958   5.195   6.750   5.791
 4998TIP3    H214959   5.274   6.674   5.686
 4999TIP3   OH214960   2.077   3.375   2.480
 4999TIP3    H114961   2.033   3.457   2.501
 4999TIP3    H214962   2.138   3.397   2.409
 5000TIP3   OH214963   4.589   4.505   0.996
 5000TIP3    H114964   4.504   4.534   0.962
 5000TIP3    H214965   4.568   4.436   1.058
 5001TIP3   OH214966   3.064   4.761   5.037
 5001TIP3    H114967   3.005   4.783   4.965
 5001TIP3    H214968   3.143   4.728   4.994
 5002TIP3   OH214969   6.201   3.630   3.542
 5002TIP3    H114970   6.296   3.626   3.536
 5002TIP3    H214971   6.169   3.573   3.472
 5003TIP3   OH214972   1.986   3.884   4.637
 5003TIP3    H114973   1.993   3.894   4.732
 5003TIP3    H214974   1.893   3.891   4.619
 5004TIP3   OH214975   0.450   4.843   0.522
 5004TIP3    H114976   0.387   4.908   0.491
 5004TIP3    H214977   0.397   4.768   0.548
 5005TIP3   OH214978   2.549   6.392   2.943
 5005TIP3    H114979   2.487   6.462   2.924
 5005TIP3    H214980   2.521   6.356   3.027
 5006TIP3   OH214981   5.375   6.322   0.909
 5006TIP3    H114982   5.392   6.229   0.922
 5006TIP3    H214983   5.418   6.365   0.983
 5007TIP3   OH214984   5.900   3.978   2.213
 5007TIP3    H114985   5.868   3.892   2.239
 5007TIP3    H214986   5.985   3.986   2.256
 5008TIP3   OH214987   5.919   1.778   1.075
 5008TIP3    H114988   5.933   1.764   0.981
 5008TIP3    H214989   5.904   1.690   1.110
 5009TIP3   OH214990   1.482   4.351   4.747
 5009TIP3    H114991   1.429   4.425   4.779
 5009TIP3    H214992   1.565   4.359   4.795
 5010TIP3   OH214993   3.320   6.538   3.290
 5010TIP3    H114994   3.378   6.558   3.363
 5010TIP3    H214995   3.250   6.486   3.328
 5011TIP3   OH214996   2.089   6.583   1.058
 5011TIP3    H114997   2.116   6.661   1.107
 5011TIP3    H214998   2.016   6.548   1.108
 5012TIP3   OH214999   1.302   3.816   1.569
 5012TIP3    H115000   1.273   3.896   1.524
 5012TIP3    H215001   1.231   3.795   1.629
 5013TIP3   OH215002   2.466   2.363   4.102
 5013TIP3    H115003   2.507   2.380   4.186
 5013TIP3    H215004   2.478   2.443   4.052
 5014TIP3   OH215005   2.182   0.640   4.901
 5014TIP3    H115006   2.166   0.716   4.956
 5014TIP3    H215007   2.120   0.649   4.828
 5015TIP3   OH215008   5.264   3.784   0.230
 5015TIP3    H115009   5.360   3.792   0.231
 5015TIP3    H215010   5.246   3.707   0.284
 5016TIP3   OH215011   1.780   3.728   3.452
 5016TIP3    H115012   1.875   3.735   3.458
 5016TIP3    H215013   1.752   3.810   3.411
 5017TIP3   OH215014   0.374   6.188   0.570
 5017TIP3    H115015   0.462   6.152   0.572
 5017TIP3    H215016   0.318   6.114   0.547
 5018TIP3   OH215017   6.710   3.684   2.146
 5018TIP3    H115018   6.622   3.709   2.175
 5018TIP3    H215019   6.758   3.766   2.139
 5019TIP3   OH215020   0.695   0.322   2.568
 5019TIP3    H115021   0.638   0.371   2.627
 5019TIP3    H215022   0.703   0.235   2.609
 5020TIP3   OH215023   0.274   5.272   5.229
 5020TIP3    H115024   0.329   5.274   5.151
 5020TIP3    H215025   0.269   5.364   5.257
 5021TIP3   OH215026   1.362   4.228   5.598
 5021TIP3    H115027   1.417   4.209   5.521
 5021TIP3    H215028   1.273   4.214   5.568
 5022TIP3   OH215029   4.973   5.679   3.095
 5022TIP3    H115030   4.903   5.615   3.106
 5022TIP3    H215031   4.930   5.764   3.106
 5023TIP3   OH215032   0.069   3.212   0.511
 5023TIP3    H115033   0.099   3.290   0.559
 5023TIP3    H215034   0.035   3.246   0.429
 5024TIP3   OH215035   7.148  -0.008   1.591
 5024TIP3    H115036   7.103  -0.076   1.541
 5024TIP3    H215037   7.170   0.059   1.526
 5025TIP3   OH215038   6.726   3.321   4.402
 5025TIP3    H115039   6.734   3.229   4.376
 5025TIP3    H215040   6.807   3.339   4.450
 5026TIP3   OH215041   0.159   4.999   3.903
 5026TIP3    H115042   0.153   5.055   3.826
 5026TIP3    H215043   0.123   4.915   3.875
 5027TIP3   OH215044   6.222   6.052   3.753
 5027TIP3    H115045   6.140   6.098   3.734
 5027TIP3    H215046   6.232   6.058   3.848
 5028TIP3   OH215047   4.612   1.631   1.723
 5028TIP3    H115048   4.706   1.652   1.717
 5028TIP3    H215049   4.601   1.554   1.667
 5029TIP3   OH215050   0.121   5.266   4.143
 5029TIP3    H115051   0.062   5.250   4.069
 5029TIP3    H215052   0.064   5.264   4.220
 5030TIP3   OH215053   6.807   1.942   4.244
 5030TIP3    H115054   6.833   1.947   4.152
 5030TIP3    H215055   6.715   1.968   4.244
 5031TIP3   OH215056   0.531   1.395   1.038
 5031TIP3    H115057   0.481   1.375   1.118
 5031TIP3    H215058   0.546   1.310   0.998
 5032TIP3   OH215059   5.014   0.179   4.280
 5032TIP3    H115060   5.015   0.259   4.226
 5032TIP3    H215061   5.096   0.135   4.258
 5033TIP3   OH215062   1.070   0.224   0.754
 5033TIP3    H115063   1.109   0.310   0.738
 5033TIP3    H215064   1.009   0.211   0.681
 5034TIP3   OH215065   0.009   5.570   2.226
 5034TIP3    H115066  -0.070   5.583   2.174
 5034TIP3    H215067   0.016   5.475   2.236
 5035TIP3   OH215068   5.521   5.523   2.484
 5035TIP3    H115069   5.518   5.480   2.398
 5035TIP3    H215070   5.608   5.562   2.488
 5036TIP3   OH215071   1.527   2.348   1.527
 5036TIP3    H115072   1.458   2.365   1.591
 5036TIP3    H215073   1.534   2.429   1.477
 5037TIP3   OH215074   5.575   2.914   1.365
 5037TIP3    H115075   5.506   2.940   1.304
 5037TIP3    H215076   5.583   2.988   1.425
 5038TIP3   OH215077   0.887   2.363   5.228
 5038TIP3    H115078   0.981   2.364   5.210
 5038TIP3    H215079   0.878   2.300   5.300
 5039TIP3   OH215080   6.901   5.133   5.006
 5039TIP3    H115081   6.932   5.150   5.095
 5039TIP3    H215082   6.858   5.214   4.979
 5040TIP3   OH215083   4.940   1.913   4.266
 5040TIP3    H115084   4.993   1.836   4.285
 5040TIP3    H215085   4.858   1.878   4.232
 5041TIP3   OH215086   0.241   5.206   4.456
 5041TIP3    H115087   0.165   5.197   4.399
 5041TIP3    H215088   0.216   5.158   4.536
 5042TIP3   OH215089   4.807   1.974   0.339
 5042TIP3    H115090   4.898   1.991   0.365
 5042TIP3    H215091   4.814   1.936   0.251
 5043TIP3   OH215092   1.481   5.767   4.419
 5043TIP3    H115093   1.494   5.716   4.338
 5043TIP3    H215094   1.414   5.719   4.467
 5044TIP3   OH215095   0.363   0.331   3.376
 5044TIP3    H115096   0.374   0.238   3.356
 5044TIP3    H215097   0.353   0.372   3.290
 5045TIP3   OH215098   5.842   5.825   5.593
 5045TIP3    H115099   5.783   5.848   5.666
 5045TIP3    H215100   5.853   5.907   5.545
 5046TIP3   OH215101   1.281   5.683   5.483
 5046TIP3    H115102   1.376   5.671   5.488
 5046TIP3    H215103   1.270   5.756   5.423
 5047TIP3   OH215104   4.357   6.628   5.642
 5047TIP3    H115105   4.293   6.694   5.617
 5047TIP3    H215106   4.423   6.631   5.572
 5048TIP3   OH215107   7.094   1.572   1.544
 5048TIP3    H115108   7.115   1.585   1.636
 5048TIP3    H215109   7.110   1.479   1.529
 5049TIP3   OH215110   5.242   1.355   2.666
 5049TIP3    H115111   5.287   1.394   2.591
 5049TIP3    H215112   5.209   1.430   2.716
 5050TIP3   OH215113   1.982   4.477   1.023
 5050TIP3    H115114   1.927   4.536   0.971
 5050TIP3    H215115   1.948   4.389   1.004
 5051TIP3   OH215116   1.975   2.886   5.040
 5051TIP3    H115117   2.065   2.883   5.006
 5051TIP3    H215118   1.930   2.947   4.982
 5052TIP3   OH215119   5.814   4.598   3.378
 5052TIP3    H115120   5.817   4.547   3.460
 5052TIP3    H215121   5.833   4.688   3.405
 5053TIP3   OH215122   5.308   0.518   4.912
 5053TIP3    H115123   5.236   0.458   4.929
 5053TIP3    H215124   5.318   0.567   4.994
 5054TIP3   OH215125   2.252   3.015   0.015
 5054TIP3    H115126   2.326   3.043   0.068
 5054TIP3    H215127   2.187   3.084   0.027
 5055TIP3   OH215128   5.137   5.072   4.787
 5055TIP3    H115129   5.157   4.981   4.806
 5055TIP3    H215130   5.133   5.115   4.872
 5056TIP3   OH215131   4.964   1.981   0.859
 5056TIP3    H115132   4.949   1.910   0.797
 5056TIP3    H215133   4.939   2.060   0.811
 5057TIP3   OH215134   0.303   2.111   3.389
 5057TIP3    H115135   0.233   2.138   3.330
 5057TIP3    H215136   0.367   2.182   3.383
 5058TIP3   OH215137   0.010   1.115   0.328
 5058TIP3    H115138   0.106   1.115   0.337
 5058TIP3    H215139  -0.018   1.187   0.384
 5059TIP3   OH215140   2.865   4.299   3.831
 5059TIP3    H115141   2.844   4.393   3.835
 5059TIP3    H215142   2.961   4.297   3.830
 5060TIP3   OH215143   2.818   1.784   5.357
 5060TIP3    H115144   2.801   1.738   5.275
 5060TIP3    H215145   2.882   1.852   5.334
 5061TIP3   OH215146   0.993   2.058   0.788
 5061TIP3    H115147   0.995   1.965   0.763
 5061TIP3    H215148   1.064   2.097   0.738
 5062TIP3   OH215149   4.812   6.573   1.791
 5062TIP3    H115150   4.883   6.559   1.728
 5062TIP3    H215151   4.781   6.661   1.773
 5063TIP3   OH215152   0.859   6.499   4.646
 5063TIP3    H115153   0.797   6.489   4.718
 5063TIP3    H215154   0.814   6.458   4.571
 5064TIP3   OH215155   2.912   2.960   3.832
 5064TIP3    H115156   2.884   2.898   3.765
 5064TIP3    H215157   2.963   2.908   3.894
 5065TIP3   OH215158   5.813   2.824   0.079
 5065TIP3    H115159   5.768   2.856   0.158
 5065TIP3    H215160   5.906   2.841   0.096
 5066TIP3   OH215161   0.827   4.946   4.940
 5066TIP3    H115162   0.842   4.901   5.023
 5066TIP3    H215163   0.897   5.011   4.934
 5067TIP3   OH215164   0.790   2.187   3.741
 5067TIP3    H115165   0.884   2.193   3.725
 5067TIP3    H215166   0.783   2.167   3.835
 5068TIP3   OH215167   0.123   4.159   5.403
 5068TIP3    H115168   0.144   4.196   5.317
 5068TIP3    H215169   0.164   4.073   5.403
 5069TIP3   OH215170   4.081   3.198   4.357
 5069TIP3    H115171   3.995   3.225   4.389
 5069TIP3    H215172   4.070   3.105   4.334
 5070TIP3   OH215173   3.831   0.065   2.856
 5070TIP3    H115174   3.852   0.013   2.933
 5070TIP3    H215175   3.904   0.125   2.846
 5071TIP3   OH215176   1.084   0.774   0.725
 5071TIP3    H115177   1.087   0.870   0.727
 5071TIP3    H215178   0.999   0.753   0.762
 5072TIP3   OH215179   4.661   0.150   1.480
 5072TIP3    H115180   4.688   0.240   1.498
 5072TIP3    H215181   4.740   0.107   1.447
 5073TIP3   OH215182   2.429   3.030   2.880
 5073TIP3    H115183   2.456   3.096   2.943
 5073TIP3    H215184   2.511   2.991   2.850
 5074TIP3   OH215185   3.531   5.391   3.038
 5074TIP3    H115186   3.514   5.387   2.944
 5074TIP3    H215187   3.514   5.482   3.062
 5075TIP3   OH215188   3.654   4.873   4.188
 5075TIP3    H115189   3.674   4.815   4.262
 5075TIP3    H215190   3.740   4.903   4.158
 5076TIP3   OH215191   3.251   3.937   2.710
 5076TIP3    H115192   3.213   4.013   2.666
 5076TIP3    H215193   3.182   3.907   2.769
 5077TIP3   OH215194   3.457   2.728   5.312
 5077TIP3    H115195   3.432   2.781   5.388
 5077TIP3    H215196   3.531   2.676   5.343
 5078TIP3   OH215197   6.400   3.556   5.849
 5078TIP3    H115198   6.387   3.511   5.766
 5078TIP3    H215199   6.371   3.646   5.833
 5079TIP3   OH215200   0.244   0.000   2.135
 5079TIP3    H115201   0.284   0.075   2.090
 5079TIP3    H215202   0.184   0.038   2.199
 5080TIP3   OH215203   6.917   2.939   3.070
 5080TIP3    H115204   6.876   2.858   3.040
 5080TIP3    H215205   6.867   3.008   3.027
 5081TIP3   OH215206   3.117   0.618   2.092
 5081TIP3    H115207   3.068   0.536   2.093
 5081TIP3    H215208   3.208   0.593   2.108
 5082TIP3   OH215209   5.413   4.964   2.275
 5082TIP3    H115210   5.473   5.014   2.330
 5082TIP3    H215211   5.336   5.020   2.267
 5083TIP3   OH215212   1.141   6.766   3.047
 5083TIP3    H115213   1.233   6.745   3.033
 5083TIP3    H215214   1.136   6.792   3.139
 5084TIP3   OH215215   2.586   6.566   0.456
 5084TIP3    H115216   2.576   6.649   0.503
 5084TIP3    H215217   2.536   6.578   0.375
 5085TIP3   OH215218   1.992   4.337   3.569
 5085TIP3    H115219   1.994   4.360   3.476
 5085TIP3    H215220   1.901   4.353   3.596
 5086TIP3   OH215221   5.436   3.445   4.152
 5086TIP3    H115222   5.444   3.379   4.221
 5086TIP3    H215223   5.381   3.404   4.086
 5087TIP3   OH215224   6.401   3.923   2.740
 5087TIP3    H115225   6.390   3.936   2.834
 5087TIP3    H215226   6.381   4.009   2.701
 5088TIP3   OH215227   6.867   3.201   5.712
 5088TIP3    H115228   6.846   3.295   5.711
 5088TIP3    H215229   6.783   3.158   5.723
 5089TIP3   OH215230   5.371   5.716   4.996
 5089TIP3    H115231   5.321   5.648   5.041
 5089TIP3    H215232   5.441   5.669   4.951
 5090TIP3   OH215233   4.393   6.268   2.283
 5090TIP3    H115234   4.431   6.230   2.362
 5090TIP3    H215235   4.463   6.324   2.248
 5091TIP3   OH215236   5.568   5.719   4.082
 5091TIP3    H115237   5.580   5.806   4.118
 5091TIP3    H215238   5.541   5.733   3.992
 5092TIP3   OH215239   1.735   4.693   3.257
 5092TIP3    H115240   1.657   4.705   3.310
 5092TIP3    H215241   1.771   4.782   3.246
 5093TIP3   OH215242   6.766   5.877   3.811
 5093TIP3    H115243   6.703   5.826   3.862
 5093TIP3    H215244   6.843   5.883   3.868
 5094TIP3   OH215245   4.529   5.682   5.199
 5094TIP3    H115246   4.590   5.753   5.178
 5094TIP3    H215247   4.488   5.660   5.115
 5095TIP3   OH215248   0.593   5.182   0.762
 5095TIP3    H115249   0.660   5.117   0.783
 5095TIP3    H215250   0.510   5.135   0.770
 5096TIP3   OH215251   2.115   0.269   2.094
 5096TIP3    H115252   2.113   0.253   2.000
 5096TIP3    H215253   2.201   0.307   2.111
 5097TIP3   OH215254   2.146   5.457   3.319
 5097TIP3    H115255   2.116   5.544   3.344
 5097TIP3    H215256   2.128   5.451   3.225
 5098TIP3   OH215257   3.084   4.435   1.387
 5098TIP3    H115258   3.119   4.348   1.372
 5098TIP3    H215259   3.032   4.427   1.467
 5099TIP3   OH215260   0.187   3.673   4.137
 5099TIP3    H115261   0.200   3.740   4.204
 5099TIP3    H215262   0.097   3.643   4.150
 5100TIP3   OH215263   0.799   6.526   1.173
 5100TIP3    H115264   0.867   6.460   1.161
 5100TIP3    H215265   0.758   6.503   1.257
 5101TIP3   OH215266   6.978   5.556   2.078
 5101TIP3    H115267   6.915   5.494   2.116
 5101TIP3    H215268   6.952   5.563   1.986
 5102TIP3   OH215269   5.719   2.338   3.682
 5102TIP3    H115270   5.646   2.297   3.728
 5102TIP3    H215271   5.774   2.374   3.751
 5103TIP3   OH215272   4.691   3.078   1.822
 5103TIP3    H115273   4.704   3.111   1.911
 5103TIP3    H215274   4.618   3.130   1.789
 5104TIP3   OH215275   2.014   4.346   1.565
 5104TIP3    H115276   1.968   4.412   1.512
 5104TIP3    H215277   1.953   4.327   1.636
 5105TIP3   OH215278   3.989   0.953   3.892
 5105TIP3    H115279   3.955   1.042   3.885
 5105TIP3    H215280   4.084   0.963   3.882
 5106TIP3   OH215281   2.466   6.527   3.830
 5106TIP3    H115282   2.412   6.558   3.903
 5106TIP3    H215283   2.548   6.576   3.838
 5107TIP3   OH215284   3.689   3.912   2.155
 5107TIP3    H115285   3.769   3.873   2.118
 5107TIP3    H215286   3.623   3.899   2.087
 5108TIP3   OH215287   6.082   5.183   1.710
 5108TIP3    H115288   6.136   5.154   1.635
 5108TIP3    H215289   6.146   5.216   1.773
 5109TIP3   OH215290   1.877   3.036   4.828
 5109TIP3    H115291   1.883   3.131   4.822
 5109TIP3    H215292   1.783   3.017   4.827
 5110TIP3   OH215293   4.623   5.873   3.331
 5110TIP3    H115294   4.560   5.876   3.259
 5110TIP3    H215295   4.661   5.786   3.326
 5111TIP3   OH215296   6.327   6.170   2.523
 5111TIP3    H115297   6.260   6.234   2.501
 5111TIP3    H215298   6.386   6.170   2.447
 5112TIP3   OH215299   3.141   6.111   2.533
 5112TIP3    H115300   3.184   6.185   2.575
 5112TIP3    H215301   3.063   6.148   2.493
 5113TIP3   OH215302   3.599   2.433   3.770
 5113TIP3    H115303   3.633   2.378   3.841
 5113TIP3    H215304   3.563   2.509   3.814
 5114TIP3   OH215305   2.797   1.349   1.569
 5114TIP3    H115306   2.866   1.411   1.592
 5114TIP3    H215307   2.796   1.350   1.473
 5115TIP3   OH215308   2.710   1.417   1.993
 5115TIP3    H115309   2.757   1.334   1.983
 5115TIP3    H215310   2.778   1.480   2.017
 5116TIP3   OH215311   4.746   0.841   2.440
 5116TIP3    H115312   4.838   0.818   2.451
 5116TIP3    H215313   4.742   0.933   2.465
 5117TIP3   OH215314   1.969   2.126   5.718
 5117TIP3    H115315   1.987   2.040   5.758
 5117TIP3    H215316   1.875   2.138   5.730
 5118TIP3   OH215317   2.010   2.925   0.880
 5118TIP3    H115318   1.983   2.833   0.887
 5118TIP3    H215319   2.077   2.925   0.812
 5119TIP3   OH215320   4.502   0.006   4.351
 5119TIP3    H115321   4.442   0.059   4.298
 5119TIP3    H215322   4.527  -0.066   4.293
 5120TIP3   OH215323   1.369   2.481   1.060
 5120TIP3    H115324   1.436   2.445   1.119
 5120TIP3    H215325   1.388   2.574   1.056
 5121TIP3   OH215326   1.710   0.409   4.696
 5121TIP3    H115327   1.646   0.392   4.765
 5121TIP3    H215328   1.666   0.385   4.615
 5122TIP3   OH215329   0.319   1.417   4.808
 5122TIP3    H115330   0.282   1.389   4.725
 5122TIP3    H215331   0.270   1.496   4.831
 5123TIP3   OH215332   4.512   4.582   3.965
 5123TIP3    H115333   4.548   4.624   3.887
 5123TIP3    H215334   4.477   4.499   3.935
 5124TIP3   OH215335   6.926   1.836   3.284
 5124TIP3    H115336   6.882   1.921   3.280
 5124TIP3    H215337   6.970   1.828   3.199
 5125TIP3   OH215338   4.708   5.876   0.263
 5125TIP3    H115339   4.766   5.845   0.333
 5125TIP3    H215340   4.667   5.955   0.299
 5126TIP3   OH215341   1.395   3.828   3.352
 5126TIP3    H115342   1.406   3.746   3.305
 5126TIP3    H215343   1.320   3.813   3.410
 5127TIP3   OH215344   6.994   5.592   4.673
 5127TIP3    H115345   6.941   5.569   4.596
 5127TIP3    H215346   7.049   5.665   4.643
 5128TIP3   OH215347   3.555   5.024   0.744
 5128TIP3    H115348   3.462   5.004   0.733
 5128TIP3    H215349   3.600   4.963   0.685
 5129TIP3   OH215350   1.109   2.001   5.742
 5129TIP3    H115351   1.028   2.049   5.761
 5129TIP3    H215352   1.112   1.997   5.646
 5130TIP3   OH215353   6.998   5.285   1.777
 5130TIP3    H115354   7.021   5.370   1.740
 5130TIP3    H215355   7.058   5.274   1.851
 5131TIP3   OH215356   4.226   3.878   1.859
 5131TIP3    H115357   4.186   3.889   1.946
 5131TIP3    H215358   4.319   3.890   1.874
 5132TIP3   OH215359   5.758   1.429   0.265
 5132TIP3    H115360   5.737   1.475   0.184
 5132TIP3    H215361   5.826   1.482   0.306
 5133TIP3   OH215362   4.084   2.865   5.329
 5133TIP3    H115363   4.014   2.907   5.378
 5133TIP3    H215364   4.138   2.822   5.395
 5134TIP3   OH215365   3.022   6.064   2.200
 5134TIP3    H115366   3.104   6.078   2.153
 5134TIP3    H215367   2.955   6.103   2.143
 5135TIP3   OH215368   4.955   6.167   3.348
 5135TIP3    H115369   5.037   6.189   3.304
 5135TIP3    H215370   4.982   6.139   3.436
 5136TIP3   OH215371   0.861   3.071   4.213
 5136TIP3    H115372   0.826   3.127   4.282
 5136TIP3    H215373   0.917   3.008   4.258
 5137TIP3   OH215374   3.944   2.904   2.647
 5137TIP3    H115375   3.959   2.993   2.615
 5137TIP3    H215376   4.026   2.858   2.627
 5138TIP3   OH215377   2.170   3.309   1.232
 5138TIP3    H115378   2.119   3.240   1.191
 5138TIP3    H215379   2.121   3.389   1.214
 5139TIP3   OH215380   3.292   6.259   2.848
 5139TIP3    H115381   3.247   6.199   2.907
 5139TIP3    H215382   3.338   6.202   2.787
 5140TIP3   OH215383   3.313   2.547   2.159
 5140TIP3    H115384   3.287   2.583   2.243
 5140TIP3    H215385   3.372   2.612   2.122
 5141TIP3   OH215386   1.552   1.320   4.151
 5141TIP3    H115387   1.546   1.400   4.203
 5141TIP3    H215388   1.601   1.259   4.206
 5142TIP3   OH215389   5.797   3.499   4.424
 5142TIP3    H115390   5.761   3.545   4.348
 5142TIP3    H215391   5.820   3.412   4.391
 5143TIP3   OH215392   3.578   0.727   1.714
 5143TIP3    H115393   3.617   0.730   1.801
 5143TIP3    H215394   3.618   0.800   1.667
 5144TIP3   OH215395   6.666   2.751   0.548
 5144TIP3    H115396   6.696   2.669   0.508
 5144TIP3    H215397   6.702   2.820   0.491
 5145TIP3   OH215398   4.145   5.043   5.702
 5145TIP3    H115399   4.181   5.002   5.780
 5145TIP3    H215400   4.106   4.970   5.653
 5146TIP3   OH215401   5.644   0.397   2.528
 5146TIP3    H115402   5.643   0.326   2.464
 5146TIP3    H215403   5.707   0.369   2.595
 5147TIP3   OH215404   4.734   1.984   3.018
 5147TIP3    H115405   4.792   2.022   3.084
 5147TIP3    H215406   4.770   1.897   3.001
 5148TIP3   OH215407   5.517   3.578   5.603
 5148TIP3    H115408   5.502   3.592   5.697
 5148TIP3    H215409   5.612   3.590   5.592
 5149TIP3   OH215410   7.026   2.264   4.753
 5149TIP3    H115411   6.932   2.261   4.737
 5149TIP3    H215412   7.041   2.206   4.827
 5150TIP3   OH215413   3.567   2.147   0.077
 5150TIP3    H115414   3.618   2.066   0.077
 5150TIP3    H215415   3.627   2.213   0.112
 5151TIP3   OH215416   1.896   1.348   4.610
 5151TIP3    H115417   1.975   1.384   4.649
 5151TIP3    H215418   1.893   1.386   4.522
 5152TIP3   OH215419   6.762   4.218   3.911
 5152TIP3    H115420   6.843   4.268   3.923
 5152TIP3    H215421   6.783   4.130   3.944
 5153TIP3   OH215422   5.207   0.947   0.892
 5153TIP3    H115423   5.246   0.991   0.967
 5153TIP3    H215424   5.138   1.007   0.862
 5154TIP3   OH215425   5.071   4.299   4.733
 5154TIP3    H115426   5.089   4.344   4.816
 5154TIP3    H215427   5.143   4.327   4.676
 5155TIP3   OH215428   3.608   0.194   2.447
 5155TIP3    H115429   3.668   0.140   2.395
 5155TIP3    H215430   3.614   0.158   2.535
 5156TIP3   OH215431   2.301   5.352   1.558
 5156TIP3    H115432   2.356   5.427   1.579
 5156TIP3    H215433   2.359   5.291   1.512
 5157TIP3   OH215434   6.939   1.972   2.202
 5157TIP3    H115435   7.013   1.974   2.263
 5157TIP3    H215436   6.862   1.962   2.258
 5158TIP3   OH215437   2.734   5.598   5.086
 5158TIP3    H115438   2.776   5.605   5.171
 5158TIP3    H215439   2.779   5.525   5.043
 5159TIP3   OH215440   1.726   4.508   4.512
 5159TIP3    H115441   1.721   4.465   4.597
 5159TIP3    H215442   1.811   4.551   4.511
 5160TIP3   OH215443   2.078   2.065   2.409
 5160TIP3    H115444   1.988   2.044   2.434
 5160TIP3    H215445   2.099   2.000   2.341
 5161TIP3   OH215446   0.967   5.108   3.565
 5161TIP3    H115447   1.032   5.041   3.545
 5161TIP3    H215448   0.903   5.101   3.494
 5162TIP3   OH215449   7.145   5.780   1.167
 5162TIP3    H115450   7.062   5.731   1.164
 5162TIP3    H215451   7.122   5.864   1.207
 5163TIP3   OH215452   5.666   0.657   3.562
 5163TIP3    H115453   5.724   0.715   3.513
 5163TIP3    H215454   5.604   0.624   3.496
 5164TIP3   OH215455   5.557   5.145   2.440
 5164TIP3    H115456   5.638   5.196   2.439
 5164TIP3    H215457   5.565   5.090   2.518
 5165TIP3   OH215458   5.522   3.902   0.557
 5165TIP3    H115459   5.431   3.873   0.562
 5165TIP3    H215460   5.524   3.965   0.485
 5166TIP3   OH215461   2.447   5.914   2.005
 5166TIP3    H115462   2.355   5.895   1.987
 5166TIP3    H215463   2.458   5.892   2.098
 5167TIP3   OH215464   4.714   3.585   3.949
 5167TIP3    H115465   4.619   3.597   3.939
 5167TIP3    H215466   4.724   3.542   4.034
 5168TIP3   OH215467   5.053   6.079   1.091
 5168TIP3    H115468   5.110   6.015   1.132
 5168TIP3    H215469   4.976   6.029   1.063
 5169TIP3   OH215470   6.333   6.516   0.101
 5169TIP3    H115471   6.417   6.548   0.134
 5169TIP3    H215472   6.334   6.423   0.120
 5170TIP3   OH215473   5.170   5.661   2.872
 5170TIP3    H115474   5.230   5.603   2.918
 5170TIP3    H215475   5.087   5.652   2.918
 5171TIP3   OH215476   1.471   6.538   4.289
 5171TIP3    H115477   1.499   6.528   4.380
 5171TIP3    H215478   1.400   6.474   4.279
 5172TIP3   OH215479   6.390   2.005   4.017
 5172TIP3    H115480   6.300   2.037   4.008
 5172TIP3    H215481   6.436   2.046   3.944
 5173TIP3   OH215482   5.042   0.644   0.703
 5173TIP3    H115483   5.100   0.596   0.644
 5173TIP3    H215484   5.070   0.736   0.694
 5174TIP3   OH215485   1.029   6.202   5.036
 5174TIP3    H115486   1.042   6.112   5.065
 5174TIP3    H215487   0.940   6.225   5.065
 5175TIP3   OH215488   4.771   2.518   5.138
 5175TIP3    H115489   4.804   2.522   5.048
 5175TIP3    H215490   4.729   2.603   5.152
 5176TIP3   OH215491   3.212   3.140   5.268
 5176TIP3    H115492   3.225   3.227   5.305
 5176TIP3    H215493   3.237   3.080   5.338
 5177TIP3   OH215494   2.850   0.287   5.562
 5177TIP3    H115495   2.909   0.314   5.632
 5177TIP3    H215496   2.874   0.196   5.545
 5178TIP3   OH215497   4.162   1.771   1.833
 5178TIP3    H115498   4.213   1.697   1.864
 5178TIP3    H215499   4.086   1.732   1.790
 5179TIP3   OH215500   3.894   5.314   3.383
 5179TIP3    H115501   3.932   5.246   3.326
 5179TIP3    H215502   3.946   5.309   3.463
 5180TIP3   OH215503   5.158   5.822   1.145
 5180TIP3    H115504   5.250   5.818   1.174
 5180TIP3    H215505   5.115   5.754   1.197
 5181TIP3   OH215506   1.987   4.037   1.591
 5181TIP3    H115507   2.068   3.987   1.579
 5181TIP3    H215508   2.002   4.119   1.545
 5182TIP3   OH215509   4.143   2.306   3.638
 5182TIP3    H115510   4.138   2.380   3.699
 5182TIP3    H215511   4.061   2.258   3.651
 5183TIP3   OH215512   1.212   4.665   5.468
 5183TIP3    H115513   1.120   4.671   5.494
 5183TIP3    H215514   1.245   4.754   5.475
 5184TIP3   OH215515   3.021   2.514   0.382
 5184TIP3    H115516   2.963   2.445   0.349
 5184TIP3    H215517   3.060   2.477   0.461
 5185TIP3   OH215518   3.972   4.198   4.287
 5185TIP3    H115519   3.906   4.235   4.346
 5185TIP3    H215520   3.961   4.104   4.294
 5186TIP3   OH215521   3.152   1.725   2.868
 5186TIP3    H115522   3.060   1.700   2.877
 5186TIP3    H215523   3.199   1.642   2.865
 5187TIP3   OH215524   5.811   2.173   5.073
 5187TIP3    H115525   5.885   2.114   5.090
 5187TIP3    H215526   5.792   2.213   5.158
 5188TIP3   OH215527   4.332   0.869   3.447
 5188TIP3    H115528   4.321   0.917   3.528
 5188TIP3    H215529   4.246   0.872   3.405
 5189TIP3   OH215530   6.440   3.337   4.102
 5189TIP3    H115531   6.358   3.383   4.118
 5189TIP3    H215532   6.507   3.390   4.144
 5190TIP3   OH215533   6.388   0.526   4.603
 5190TIP3    H115534   6.398   0.473   4.524
 5190TIP3    H215535   6.323   0.479   4.655
 5191TIP3   OH215536   2.425   0.904   3.785
 5191TIP3    H115537   2.399   0.915   3.693
 5191TIP3    H215538   2.390   0.981   3.829
 5192TIP3   OH215539   1.901   0.761   5.812
 5192TIP3    H115540   1.881   0.725   5.726
 5192TIP3    H215541   1.842   0.837   5.820
 5193TIP3   OH215542   4.496   4.860   0.438
 5193TIP3    H115543   4.532   4.773   0.453
 5193TIP3    H215544   4.550   4.896   0.367
 5194TIP3   OH215545   1.922   4.940   3.251
 5194TIP3    H115546   1.979   4.950   3.175
 5194TIP3    H215547   1.974   4.972   3.325
 5195TIP3   OH215548   0.198   4.163   4.464
 5195TIP3    H115549   0.182   4.215   4.542
 5195TIP3    H215550   0.206   4.073   4.496
 5196TIP3   OH215551   1.993   5.029   5.537
 5196TIP3    H115552   2.032   5.022   5.625
 5196TIP3    H215553   1.993   4.940   5.504
 5197TIP3   OH215554   5.268   2.843   0.994
 5197TIP3    H115555   5.197   2.780   1.011
 5197TIP3    H215556   5.303   2.863   1.081
 5198TIP3   OH215557   5.076   3.150   3.874
 5198TIP3    H115558   5.161   3.185   3.899
 5198TIP3    H215559   5.042   3.211   3.809
 5199TIP3   OH215560   1.484   5.383   0.704
 5199TIP3    H115561   1.491   5.406   0.796
 5199TIP3    H215562   1.529   5.454   0.658
 5200TIP3   OH215563   4.955   1.744   4.978
 5200TIP3    H115564   5.047   1.734   4.952
 5200TIP3    H215565   4.941   1.839   4.976
 5201TIP3   OH215566   5.369   0.971   4.462
 5201TIP3    H115567   5.331   1.026   4.530
 5201TIP3    H215568   5.316   0.891   4.463
 5202TIP3   OH215569   2.931   2.254   4.429
 5202TIP3    H115570   2.896   2.341   4.414
 5202TIP3    H215571   2.955   2.223   4.341
 5203TIP3   OH215572   6.280   2.921   1.241
 5203TIP3    H115573   6.280   3.011   1.208
 5203TIP3    H215574   6.188   2.895   1.239
 5204TIP3   OH215575   5.198   1.685   3.918
 5204TIP3    H115576   5.259   1.612   3.926
 5204TIP3    H215577   5.228   1.748   3.983
 5205TIP3   OH215578   6.220   5.488   4.886
 5205TIP3    H115579   6.166   5.531   4.952
 5205TIP3    H215580   6.195   5.396   4.889
 5206TIP3   OH215581   3.617   1.091   0.186
 5206TIP3    H115582   3.571   1.010   0.209
 5206TIP3    H215583   3.599   1.102   0.092
 5207TIP3   OH215584   2.357   3.787   0.064
 5207TIP3    H115585   2.278   3.798   0.011
 5207TIP3    H215586   2.400   3.873   0.062
 5208TIP3   OH215587   3.512   4.701   4.385
 5208TIP3    H115588   3.507   4.675   4.293
 5208TIP3    H215589   3.492   4.621   4.434
 5209TIP3   OH215590   5.558   3.622   0.578
 5209TIP3    H115591   5.653   3.607   0.584
 5209TIP3    H215592   5.550   3.709   0.538
 5210TIP3   OH215593   2.109   4.538   2.423
 5210TIP3    H115594   2.187   4.594   2.420
 5210TIP3    H215595   2.061   4.568   2.500
 5211TIP3   OH215596   6.091   4.746   5.417
 5211TIP3    H115597   6.000   4.743   5.387
 5211TIP3    H215598   6.098   4.827   5.468
 5212TIP3   OH215599   4.687   4.866   2.984
 5212TIP3    H115600   4.623   4.902   2.922
 5212TIP3    H215601   4.753   4.935   2.992
 5213TIP3   OH215602   0.762   1.624   2.813
 5213TIP3    H115603   0.667   1.636   2.815
 5213TIP3    H215604   0.798   1.710   2.835
 5214TIP3   OH215605   3.983   4.033   1.640
 5214TIP3    H115606   3.994   3.996   1.727
 5214TIP3    H215607   3.904   4.086   1.646
 5215TIP3   OH215608   2.260   0.711   0.745
 5215TIP3    H115609   2.227   0.774   0.809
 5215TIP3    H215610   2.318   0.654   0.796
 5216TIP3   OH215611   2.980   5.864   5.690
 5216TIP3    H115612   2.969   5.946   5.641
 5216TIP3    H215613   3.074   5.860   5.709
 5217TIP3   OH215614   6.742   1.855   3.956
 5217TIP3    H115615   6.803   1.927   3.970
 5217TIP3    H215616   6.739   1.844   3.861
 5218TIP3   OH215617   2.499   4.425   4.550
 5218TIP3    H115618   2.417   4.428   4.599
 5218TIP3    H215619   2.554   4.363   4.598
 5219TIP3   OH215620   4.093   2.290   2.265
 5219TIP3    H115621   4.176   2.338   2.274
 5219TIP3    H215622   4.090   2.232   2.340
 5220TIP3   OH215623   3.778   2.164   0.583
 5220TIP3    H115624   3.776   2.115   0.501
 5220TIP3    H215625   3.821   2.247   0.561
 5221TIP3   OH215626   4.410   1.218   3.721
 5221TIP3    H115627   4.470   1.192   3.651
 5221TIP3    H215628   4.333   1.162   3.710
 5222TIP3   OH215629   5.480   2.974   5.297
 5222TIP3    H115630   5.526   3.001   5.218
 5222TIP3    H215631   5.548   2.966   5.364
 5223TIP3   OH215632   1.956   4.113   2.186
 5223TIP3    H115633   1.867   4.132   2.217
 5223TIP3    H215634   2.000   4.198   2.188
 5224TIP3   OH215635   1.068   4.230   5.583
 5224TIP3    H115636   1.017   4.242   5.502
 5224TIP3    H215637   1.004   4.196   5.646
 5225TIP3   OH215638   3.853   1.950   3.840
 5225TIP3    H115639   3.944   1.922   3.826
 5225TIP3    H215640   3.861   2.037   3.879
 5226TIP3   OH215641   1.200   3.070   4.270
 5226TIP3    H115642   1.278   3.048   4.218
 5226TIP3    H215643   1.187   3.164   4.254
 5227TIP3   OH215644   3.908   6.273   0.497
 5227TIP3    H115645   3.873   6.322   0.571
 5227TIP3    H215646   3.979   6.329   0.463
 5228TIP3   OH215647   2.207   1.000   2.432
 5228TIP3    H115648   2.205   0.953   2.349
 5228TIP3    H215649   2.150   0.950   2.490
 5229TIP3   OH215650   6.682   6.081   1.317
 5229TIP3    H115651   6.711   6.103   1.406
 5229TIP3    H215652   6.662   5.988   1.321
 5230TIP3   OH215653   6.205   5.963   0.323
 5230TIP3    H115654   6.193   5.956   0.228
 5230TIP3    H215655   6.293   6.000   0.333
 5231TIP3   OH215656   0.317   0.201   3.717
 5231TIP3    H115657   0.241   0.209   3.661
 5231TIP3    H215658   0.344   0.109   3.709
 5232TIP3   OH215659   0.721   5.687   3.594
 5232TIP3    H115660   0.742   5.598   3.624
 5232TIP3    H215661   0.805   5.724   3.569
 5233TIP3   OH215662   0.273   5.360   1.511
 5233TIP3    H115663   0.345   5.422   1.504
 5233TIP3    H215664   0.272   5.334   1.603
 5234TIP3   OH215665   4.455   0.926   5.177
 5234TIP3    H115666   4.515   0.996   5.202
 5234TIP3    H215667   4.451   0.870   5.254
 5235TIP3   OH215668   3.913   1.675   1.242
 5235TIP3    H115669   3.872   1.664   1.157
 5235TIP3    H215670   3.903   1.767   1.263
 5236TIP3   OH215671   1.857   1.267   4.997
 5236TIP3    H115672   1.948   1.242   4.984
 5236TIP3    H215673   1.814   1.242   4.915
 5237TIP3   OH215674   1.792   3.010   1.151
 5237TIP3    H115675   1.794   3.022   1.246
 5237TIP3    H215676   1.756   2.921   1.139
 5238TIP3   OH215677   6.554   6.004   1.851
 5238TIP3    H115678   6.512   5.924   1.882
 5238TIP3    H215679   6.615   5.974   1.784
 5239TIP3   OH215680   2.429   3.382   5.324
 5239TIP3    H115681   2.357   3.423   5.276
 5239TIP3    H215682   2.433   3.431   5.406
 5240TIP3   OH215683   5.960   5.171   0.604
 5240TIP3    H115684   6.015   5.157   0.527
 5240TIP3    H215685   6.015   5.221   0.664
 5241TIP3   OH215686   0.810   5.490   3.786
 5241TIP3    H115687   0.895   5.465   3.751
 5241TIP3    H215688   0.768   5.407   3.808
 5242TIP3   OH215689   1.949   3.387   0.992
 5242TIP3    H115690   2.021   3.408   0.932
 5242TIP3    H215691   1.898   3.321   0.946
 5243TIP3   OH215692   5.807   2.073   0.384
 5243TIP3    H115693   5.797   1.985   0.419
 5243TIP3    H215694   5.872   2.115   0.439
 5244TIP3   OH215695   1.369   6.308   2.446
 5244TIP3    H115696   1.461   6.283   2.441
 5244TIP3    H215697   1.371   6.400   2.472
 5245TIP3   OH215698   3.698   5.490   4.071
 5245TIP3    H115699   3.696   5.535   4.155
 5245TIP3    H215700   3.654   5.549   4.011
 5246TIP3   OH215701   5.805   3.330   0.640
 5246TIP3    H115702   5.721   3.345   0.684
 5246TIP3    H215703   5.786   3.265   0.573
 5247TIP3   OH215704   6.681   5.634   0.162
 5247TIP3    H115705   6.776   5.637   0.174
 5247TIP3    H215706   6.650   5.716   0.200
 5248TIP3   OH215707   0.483   4.842   3.992
 5248TIP3    H115708   0.495   4.893   3.912
 5248TIP3    H215709   0.454   4.906   4.057
 5249TIP3   OH215710   3.488   0.257   0.236
 5249TIP3    H115711   3.487   0.163   0.221
 5249TIP3    H215712   3.450   0.295   0.157
 5250TIP3   OH215713   6.766   6.397   5.300
 5250TIP3    H115714   6.703   6.445   5.354
 5250TIP3    H215715   6.747   6.305   5.317
 5251TIP3   OH215716   2.704   3.772   3.387
 5251TIP3    H115717   2.755   3.850   3.407
 5251TIP3    H215718   2.766   3.700   3.393
 5252TIP3   OH215719   0.392   4.390   4.083
 5252TIP3    H115720   0.411   4.482   4.064
 5252TIP3    H215721   0.372   4.389   4.177
 5253TIP3   OH215722   5.757   0.148  -0.022
 5253TIP3    H115723   5.707   0.076  -0.061
 5253TIP3    H215724   5.839   0.107   0.005
 5254TIP3   OH215725   1.547   6.058   3.376
 5254TIP3    H115726   1.617   6.069   3.440
 5254TIP3    H215727   1.531   5.964   3.374
 5255TIP3   OH215728   3.259   2.808   1.998
 5255TIP3    H115729   3.253   2.893   1.955
 5255TIP3    H215730   3.351   2.799   2.022
 5256TIP3   OH215731   5.829   0.000   4.823
 5256TIP3    H115732   5.742  -0.017   4.858
 5256TIP3    H215733   5.820   0.078   4.769
 5257TIP3   OH215734   6.733   3.774  -0.012
 5257TIP3    H115735   6.642   3.757   0.008
 5257TIP3    H215736   6.782   3.705   0.032
 5258TIP3   OH215737   3.747   6.423   2.722
 5258TIP3    H115738   3.666   6.416   2.772
 5258TIP3    H215739   3.738   6.503   2.672
 5259TIP3   OH215740   2.313   3.503   3.959
 5259TIP3    H115741   2.328   3.477   3.868
 5259TIP3    H215742   2.394   3.480   4.004
 5260TIP3   OH215743   7.019   6.695   5.244
 5260TIP3    H115744   7.055   6.717   5.158
 5260TIP3    H215745   7.074   6.743   5.306
 5261TIP3   OH215746   7.056   1.328   2.089
 5261TIP3    H115747   7.138   1.359   2.051
 5261TIP3    H215748   6.987   1.375   2.041
 5262TIP3   OH215749   2.826   4.598   0.620
 5262TIP3    H115750   2.864   4.624   0.536
 5262TIP3    H215751   2.771   4.523   0.598
 5263TIP3   OH215752   4.592   3.379   0.253
 5263TIP3    H115753   4.606   3.300   0.202
 5263TIP3    H215754   4.529   3.354   0.320
 5264TIP3   OH215755   5.959   2.501   3.239
 5264TIP3    H115756   6.020   2.470   3.172
 5264TIP3    H215757   5.882   2.446   3.228
 5265TIP3   OH215758   3.682   3.735   3.545
 5265TIP3    H115759   3.632   3.789   3.485
 5265TIP3    H215760   3.636   3.744   3.629
 5266TIP3   OH215761   0.169   3.500   5.665
 5266TIP3    H115762   0.203   3.537   5.583
 5266TIP3    H215763   0.099   3.560   5.691
 5267TIP3   OH215764   3.548   0.563   1.374
 5267TIP3    H115765   3.539   0.524   1.461
 5267TIP3    H215766   3.507   0.500   1.315
 5268TIP3   OH215767   4.431   1.697   0.804
 5268TIP3    H115768   4.460   1.609   0.778
 5268TIP3    H215769   4.510   1.751   0.796
 5269TIP3   OH215770   2.452   1.969   3.524
 5269TIP3    H115771   2.477   2.032   3.456
 5269TIP3    H215772   2.365   1.939   3.498
 5270TIP3   OH215773   6.081   5.878   0.094
 5270TIP3    H115774   6.100   5.813   0.161
 5270TIP3    H215775   6.024   5.833   0.031
 5271TIP3   OH215776   3.343   5.203   1.569
 5271TIP3    H115777   3.330   5.204   1.474
 5271TIP3    H215778   3.410   5.270   1.584
 5272TIP3   OH215779   5.277   0.922   3.276
 5272TIP3    H115780   5.217   0.852   3.301
 5272TIP3    H215781   5.364   0.887   3.293
 5273TIP3   OH215782   5.871   1.149   0.509
 5273TIP3    H115783   5.914   1.147   0.424
 5273TIP3    H215784   5.778   1.140   0.489
 5274TIP3   OH215785   2.069   0.265   0.867
 5274TIP3    H115786   2.108   0.298   0.948
 5274TIP3    H215787   2.132   0.289   0.799
 5275TIP3   OH215788   0.971   5.651   1.006
 5275TIP3    H115789   0.975   5.588   0.935
 5275TIP3    H215790   0.887   5.633   1.049
 5276TIP3   OH215791   4.095   0.139   1.385
 5276TIP3    H115792   4.019   0.175   1.340
 5276TIP3    H215793   4.167   0.150   1.322
 5277TIP3   OH215794   1.551   2.648   0.171
 5277TIP3    H115795   1.495   2.589   0.222
 5277TIP3    H215796   1.550   2.612   0.082
 5278TIP3   OH215797   4.459   3.692   1.698
 5278TIP3    H115798   4.480   3.778   1.733
 5278TIP3    H215799   4.377   3.705   1.650
 5279TIP3   OH215800   1.429   1.181   3.806
 5279TIP3    H115801   1.432   1.089   3.781
 5279TIP3    H215802   1.367   1.184   3.879
 5280TIP3   OH215803   0.745   3.561   3.736
 5280TIP3    H115804   0.799   3.635   3.710
 5280TIP3    H215805   0.769   3.491   3.675
 5281TIP3   OH215806   7.230   0.416   4.896
 5281TIP3    H115807   7.148   0.366   4.900
 5281TIP3    H215808   7.293   0.355   4.856
 5282TIP3   OH215809   2.091   4.639   1.900
 5282TIP3    H115810   2.098   4.682   1.985
 5282TIP3    H215811   2.067   4.548   1.921
 5283TIP3   OH215812   1.762   6.587   0.438
 5283TIP3    H115813   1.697   6.648   0.403
 5283TIP3    H215814   1.726   6.500   0.420
 5284TIP3   OH215815   1.109   5.820   1.167
 5284TIP3    H115816   1.052   5.771   1.108
 5284TIP3    H215817   1.184   5.762   1.181
 5285TIP3   OH215818   3.039   2.064   5.283
 5285TIP3    H115819   3.077   2.149   5.308
 5285TIP3    H215820   2.993   2.082   5.201
 5286TIP3   OH215821   2.336   4.684   2.639
 5286TIP3    H115822   2.428   4.670   2.617
 5286TIP3    H215823   2.301   4.596   2.653
 5287TIP3   OH215824   4.289   5.416   0.140
 5287TIP3    H115825   4.297   5.390   0.231
 5287TIP3    H215826   4.371   5.388   0.099
 5288TIP3   OH215827   1.439   5.930   4.036
 5288TIP3    H115828   1.499   5.892   3.973
 5288TIP3    H215829   1.444   6.024   4.022
 5289TIP3   OH215830   4.270   2.385   4.187
 5289TIP3    H115831   4.340   2.449   4.177
 5289TIP3    H215832   4.191   2.431   4.158
 5290TIP3   OH215833   1.311   3.033   1.186
 5290TIP3    H115834   1.257   3.110   1.204
 5290TIP3    H215835   1.389   3.068   1.142
 5291TIP3   OH215836   6.936   6.148   0.686
 5291TIP3    H115837   6.855   6.198   0.698
 5291TIP3    H215838   6.914   6.060   0.716
 5292TIP3   OH215839   0.222   5.063   5.594
 5292TIP3    H115840   0.131   5.072   5.567
 5292TIP3    H215841   0.257   5.153   5.590
 5293TIP3   OH215842   2.667   4.171   2.948
 5293TIP3    H115843   2.700   4.259   2.967
 5293TIP3    H215844   2.737   4.113   2.978
 5294TIP3   OH215845   5.714   5.512   2.740
 5294TIP3    H115846   5.673   5.494   2.825
 5294TIP3    H215847   5.645   5.553   2.688
 5295TIP3   OH215848   0.859   4.302   0.668
 5295TIP3    H115849   0.943   4.266   0.639
 5295TIP3    H215850   0.882   4.375   0.724
 5296TIP3   OH215851   1.644   3.662   3.686
 5296TIP3    H115852   1.569   3.623   3.641
 5296TIP3    H215853   1.701   3.693   3.616
 5297TIP3   OH215854   2.129   4.368   3.202
 5297TIP3    H115855   2.157   4.284   3.238
 5297TIP3    H215856   2.041   4.382   3.238
 5298TIP3   OH215857   0.669   2.041   4.896
 5298TIP3    H115858   0.585   2.080   4.873
 5298TIP3    H215859   0.659   1.948   4.878
 5299TIP3   OH215860   6.588   3.911   0.853
 5299TIP3    H115861   6.542   3.988   0.818
 5299TIP3    H215862   6.529   3.878   0.921
 5300TIP3   OH215863   6.034   1.177   1.919
 5300TIP3    H115864   6.047   1.111   1.987
 5300TIP3    H215865   5.974   1.135   1.857
 5301TIP3   OH215866   1.169   3.737   5.310
 5301TIP3    H115867   1.257   3.703   5.296
 5301TIP3    H215868   1.146   3.713   5.399
 5302TIP3   OH215869   5.293   4.741   4.211
 5302TIP3    H115870   5.279   4.726   4.118
 5302TIP3    H215871   5.313   4.654   4.247
 5303TIP3   OH215872   3.449   1.035   3.856
 5303TIP3    H115873   3.504   0.959   3.836
 5303TIP3    H215874   3.471   1.100   3.789
 5304TIP3   OH215875   1.691   4.756   4.370
 5304TIP3    H115876   1.661   4.681   4.422
 5304TIP3    H215877   1.610   4.800   4.343
 5305TIP3   OH215878   6.416   3.175   0.628
 5305TIP3    H115879   6.495   3.207   0.671
 5305TIP3    H215880   6.346   3.188   0.692
 5306TIP3   OH215881   2.266   2.732   5.613
 5306TIP3    H115882   2.329   2.751   5.544
 5306TIP3    H215883   2.256   2.637   5.612
 5307TIP3   OH215884   4.426   3.733   2.065
 5307TIP3    H115885   4.443   3.806   2.125
 5307TIP3    H215886   4.511   3.717   2.023
 5308TIP3   OH215887   5.970   3.843   2.444
 5308TIP3    H115888   5.888   3.801   2.419
 5308TIP3    H215889   6.027   3.771   2.471
 5309TIP3   OH215890   2.718   2.907   2.953
 5309TIP3    H115891   2.674   2.823   2.964
 5309TIP3    H215892   2.683   2.962   3.023
 5310TIP3   OH215893   1.094   2.396   2.076
 5310TIP3    H115894   1.063   2.365   1.991
 5310TIP3    H215895   1.019   2.383   2.135
 5311TIP3   OH215896   3.625   6.664   0.148
 5311TIP3    H115897   3.618   6.731   0.080
 5311TIP3    H215898   3.719   6.653   0.161
 5312TIP3   OH215899   1.210   2.312   3.340
 5312TIP3    H115900   1.181   2.390   3.293
 5312TIP3    H215901   1.185   2.328   3.431
 5313TIP3   OH215902   0.538   5.046   4.850
 5313TIP3    H115903   0.452   5.009   4.827
 5313TIP3    H215904   0.588   4.972   4.882
 5314TIP3   OH215905   0.477   4.082   2.350
 5314TIP3    H115906   0.433   4.074   2.265
 5314TIP3    H215907   0.542   4.150   2.337
 5315TIP3   OH215908   0.262   5.597   1.880
 5315TIP3    H115909   0.177   5.641   1.890
 5315TIP3    H215910   0.292   5.622   1.793
 5316TIP3   OH215911   4.465   2.018   3.804
 5316TIP3    H115912   4.436   1.928   3.787
 5316TIP3    H215913   4.487   2.018   3.897
 5317TIP3   OH215914   6.327   1.295   4.301
 5317TIP3    H115915   6.283   1.212   4.284
 5317TIP3    H215916   6.414   1.270   4.332
 5318TIP3   OH215917   6.531   6.391   1.526
 5318TIP3    H115918   6.458   6.444   1.559
 5318TIP3    H215919   6.499   6.357   1.442
 5319TIP3   OH215920   2.696   3.210   1.499
 5319TIP3    H115921   2.711   3.262   1.579
 5319TIP3    H215922   2.784   3.198   1.462
 5320TIP3   OH215923   1.687   5.062   3.366
 5320TIP3    H115924   1.642   5.112   3.298
 5320TIP3    H215925   1.770   5.037   3.326
 5321TIP3   OH215926   4.710   4.086   2.657
 5321TIP3    H115927   4.672   4.103   2.571
 5321TIP3    H215928   4.671   4.003   2.685
 5322TIP3   OH215929   1.834   2.861   3.111
 5322TIP3    H115930   1.837   2.779   3.061
 5322TIP3    H215931   1.797   2.925   3.049
 5323TIP3   OH215932   4.081   3.813   5.153
 5323TIP3    H115933   4.145   3.858   5.209
 5323TIP3    H215934   4.014   3.879   5.135
 5324TIP3   OH215935   7.069   5.234   0.857
 5324TIP3    H115936   7.138   5.169   0.842
 5324TIP3    H215937   6.990   5.183   0.872
 5325TIP3   OH215938   5.951   6.389   3.558
 5325TIP3    H115939   6.006   6.360   3.485
 5325TIP3    H215940   5.988   6.473   3.584
 5326TIP3   OH215941   6.146   2.975   1.620
 5326TIP3    H115942   6.053   2.960   1.602
 5326TIP3    H215943   6.171   2.903   1.678
 5327TIP3   OH215944   3.458   1.566   5.835
 5327TIP3    H115945   3.460   1.661   5.848
 5327TIP3    H215946   3.537   1.546   5.785
 5328TIP3   OH215947   2.527   2.436   1.560
 5328TIP3    H115948   2.477   2.474   1.488
 5328TIP3    H215949   2.496   2.484   1.638
 5329TIP3   OH215950   6.290   6.544   1.550
 5329TIP3    H115951   6.198   6.535   1.573
 5329TIP3    H215952   6.290   6.564   1.456
 5330TIP3   OH215953   3.607   1.465   3.670
 5330TIP3    H115954   3.584   1.556   3.690
 5330TIP3    H215955   3.690   1.451   3.715
 5331TIP3   OH215956   0.889   0.150   2.243
 5331TIP3    H115957   0.896   0.200   2.324
 5331TIP3    H215958   0.854   0.065   2.270
 5332TIP3   OH215959   5.628   3.536   2.105
 5332TIP3    H115960   5.660   3.508   2.020
 5332TIP3    H215961   5.575   3.463   2.137
 5333TIP3   OH215962   0.120   3.328   0.920
 5333TIP3    H115963   0.090   3.240   0.896
 5333TIP3    H215964   0.127   3.374   0.836
 5334TIP3   OH215965   1.353   1.195   3.451
 5334TIP3    H115966   1.442   1.224   3.429
 5334TIP3    H215967   1.364   1.142   3.530
 5335TIP3   OH215968   6.693   0.906   3.021
 5335TIP3    H115969   6.702   0.988   3.069
 5335TIP3    H215970   6.783   0.884   2.994
 5336TIP3   OH215971   3.122   5.058   1.608
 5336TIP3    H115972   3.202   5.104   1.585
 5336TIP3    H215973   3.148   4.993   1.673
 5337TIP3   OH215974   0.311   1.612   5.606
 5337TIP3    H115975   0.306   1.516   5.605
 5337TIP3    H215976   0.296   1.636   5.697
 5338TIP3   OH215977   6.184   2.522   3.009
 5338TIP3    H115978   6.193   2.569   2.927
 5338TIP3    H215979   6.158   2.433   2.984
 5339TIP3   OH215980   4.432   4.985   5.519
 5339TIP3    H115981   4.406   5.047   5.587
 5339TIP3    H215982   4.435   5.037   5.438
 5340TIP3   OH215983   7.059   3.711   2.583
 5340TIP3    H115984   7.121   3.781   2.563
 5340TIP3    H215985   7.027   3.682   2.497
 5341TIP3   OH215986   2.347   1.054   1.159
 5341TIP3    H115987   2.263   1.084   1.126
 5341TIP3    H215988   2.346   0.959   1.146
 5342TIP3   OH215989   4.536   6.405   1.288
 5342TIP3    H115990   4.445   6.423   1.266
 5342TIP3    H215991   4.560   6.331   1.232
 5343TIP3   OH215992   5.298   5.631   0.160
 5343TIP3    H115993   5.364   5.583   0.109
 5343TIP3    H215994   5.215   5.591   0.135
 5344TIP3   OH215995   4.577   5.095   2.133
 5344TIP3    H115996   4.672   5.095   2.120
 5344TIP3    H215997   4.566   5.097   2.228
 5345TIP3   OH215998   1.277   2.880   2.981
 5345TIP3    H115999   1.332   2.802   2.975
 5345TIP3    H216000   1.193   2.853   2.945
 5346TIP3   OH216001   3.547   6.727   4.321
 5346TIP3    H116002   3.456   6.704   4.339
 5346TIP3    H216003   3.593   6.643   4.317
 5347TIP3   OH216004   0.474   4.350   5.417
 5347TIP3    H116005   0.558   4.382   5.384
 5347TIP3    H216006   0.415   4.425   5.409
 5348TIP3   OH216007   4.201   3.581   0.143
 5348TIP3    H116008   4.294   3.602   0.155
 5348TIP3    H216009   4.172   3.641   0.074
 5349TIP3   OH216010   6.081   3.247   2.380
 5349TIP3    H116011   6.139   3.311   2.338
 5349TIP3    H216012   6.139   3.198   2.440
 5350TIP3   OH216013   6.956   6.379   1.734
 5350TIP3    H116014   6.948   6.415   1.822
 5350TIP3    H216015   6.934   6.451   1.675
 5351TIP3   OH216016   5.060   4.482   0.075
 5351TIP3    H116017   5.142   4.472   0.122
 5351TIP3    H216018   5.027   4.392   0.065
 5352TIP3   OH216019   3.500   5.328   0.520
 5352TIP3    H116020   3.583   5.279   0.513
 5352TIP3    H216021   3.517   5.394   0.587
 5353TIP3   OH216022   6.682   5.364   0.277
 5353TIP3    H116023   6.666   5.448   0.233
 5353TIP3    H216024   6.605   5.311   0.256
 5354TIP3   OH216025   6.487   0.642   0.840
 5354TIP3    H116026   6.441   0.649   0.924
 5354TIP3    H216027   6.444   0.569   0.795
 5355TIP3   OH216028   5.121   3.299   1.747
 5355TIP3    H116029   5.096   3.251   1.826
 5355TIP3    H216030   5.205   3.339   1.769
 5356TIP3   OH216031   0.840   5.865   4.445
 5356TIP3    H116032   0.781   5.825   4.381
 5356TIP3    H216033   0.812   5.829   4.529
 5357TIP3   OH216034   2.837   3.849   2.583
 5357TIP3    H116035   2.888   3.909   2.638
 5357TIP3    H216036   2.809   3.780   2.643
 5358TIP3   OH216037   5.646   3.818   5.353
 5358TIP3    H116038   5.691   3.774   5.424
 5358TIP3    H216039   5.648   3.756   5.280
 5359TIP3   OH216040   3.822   0.042   2.282
 5359TIP3    H116041   3.898   0.060   2.336
 5359TIP3    H216042   3.834   0.095   2.203
 5360TIP3   OH216043   1.615   3.685   1.864
 5360TIP3    H116044   1.642   3.710   1.952
 5360TIP3    H216045   1.696   3.658   1.821
 5361TIP3   OH216046   3.801   5.326   2.384
 5361TIP3    H116047   3.731   5.376   2.343
 5361TIP3    H216048   3.788   5.236   2.355
 5362TIP3   OH216049   2.809   2.500   4.645
 5362TIP3    H116050   2.766   2.425   4.603
 5362TIP3    H216051   2.813   2.567   4.577
 5363TIP3   OH216052   0.981   4.048   2.382
 5363TIP3    H116053   0.899   4.022   2.424
 5363TIP3    H216054   0.966   4.139   2.354
 5364TIP3   OH216055   5.776   2.594   5.240
 5364TIP3    H116056   5.790   2.641   5.322
 5364TIP3    H216057   5.799   2.503   5.260
 5365TIP3   OH216058   6.153   0.698   0.113
 5365TIP3    H116059   6.137   0.775   0.060
 5365TIP3    H216060   6.112   0.626   0.065
 5366TIP3   OH216061   4.955   0.958   4.117
 5366TIP3    H116062   4.985   0.950   4.027
 5366TIP3    H216063   4.900   1.037   4.117
 5367TIP3   OH216064   2.375   4.049   3.839
 5367TIP3    H116065   2.383   3.973   3.896
 5367TIP3    H216066   2.465   4.081   3.828
 5368TIP3   OH216067   4.613   2.231   4.454
 5368TIP3    H116068   4.584   2.235   4.363
 5368TIP3    H216069   4.608   2.139   4.477
 5369TIP3   OH216070   2.424   6.296   4.696
 5369TIP3    H116071   2.401   6.217   4.744
 5369TIP3    H216072   2.346   6.352   4.702
 5370TIP3   OH216073   0.762   0.819   5.293
 5370TIP3    H116074   0.736   0.906   5.262
 5370TIP3    H216075   0.680   0.771   5.302
 5371TIP3   OH216076   5.125   5.856   4.933
 5371TIP3    H116077   5.220   5.863   4.936
 5371TIP3    H216078   5.108   5.790   4.865
 5372TIP3   OH216079   3.483   1.279   4.664
 5372TIP3    H116080   3.467   1.367   4.699
 5372TIP3    H216081   3.499   1.292   4.571
 5373TIP3   OH216082   2.936   5.388   2.126
 5373TIP3    H116083   2.913   5.355   2.039
 5373TIP3    H216084   2.854   5.422   2.161
 5374TIP3   OH216085   3.145   1.490   0.968
 5374TIP3    H116086   3.186   1.423   0.912
 5374TIP3    H216087   3.215   1.516   1.028
 5375TIP3   OH216088   0.747   2.546   5.060
 5375TIP3    H116089   0.806   2.490   5.109
 5375TIP3    H216090   0.682   2.486   5.024
 5376TIP3   OH216091   4.148   6.293   1.653
 5376TIP3    H116092   4.173   6.370   1.704
 5376TIP3    H216093   4.210   6.290   1.581
 5377TIP3   OH216094   0.608   4.210   4.337
 5377TIP3    H116095   0.535   4.263   4.305
 5377TIP3    H216096   0.658   4.270   4.392
 5378TIP3   OH216097   6.603   1.688   0.053
 5378TIP3    H116098   6.694   1.685   0.081
 5378TIP3    H216099   6.553   1.688   0.135
 5379TIP3   OH216100   0.388   4.881   4.526
 5379TIP3    H116101   0.463   4.823   4.542
 5379TIP3    H216102   0.419   4.967   4.556
 5380TIP3   OH216103   6.411   5.981   0.978
 5380TIP3    H116104   6.442   5.891   0.975
 5380TIP3    H216105   6.398   5.998   1.071
 5381TIP3   OH216106   6.923   4.719   2.028
 5381TIP3    H116107   6.845   4.770   2.006
 5381TIP3    H216108   6.994   4.784   2.028
 5382TIP3   OH216109   2.636   6.454   4.790
 5382TIP3    H116110   2.605   6.376   4.744
 5382TIP3    H216111   2.561   6.482   4.843
 5383TIP3   OH216112   2.769   2.633   3.186
 5383TIP3    H116113   2.721   2.630   3.268
 5383TIP3    H216114   2.702   2.645   3.119
 5384TIP3   OH216115   6.843   4.773   1.117
 5384TIP3    H116116   6.766   4.811   1.075
 5384TIP3    H216117   6.879   4.712   1.053
 5385TIP3   OH216118   5.723   4.554   0.533
 5385TIP3    H116119   5.641   4.510   0.557
 5385TIP3    H216120   5.718   4.639   0.579
 5386TIP3   OH216121   1.177   6.705   2.628
 5386TIP3    H116122   1.195   6.652   2.706
 5386TIP3    H216123   1.180   6.795   2.659
 5387TIP3   OH216124   5.906   6.470   0.568
 5387TIP3    H116125   5.905   6.421   0.650
 5387TIP3    H216126   5.998   6.474   0.544
 5388TIP3   OH216127   3.913   5.853   1.658
 5388TIP3    H116128   3.825   5.820   1.680
 5388TIP3    H216129   3.936   5.911   1.730
 5389TIP3   OH216130   1.409   6.168   0.113
 5389TIP3    H116131   1.424   6.145   0.204
 5389TIP3    H216132   1.335   6.112   0.086
 5390TIP3   OH216133   2.009   4.764   0.021
 5390TIP3    H116134   2.099   4.796   0.021
 5390TIP3    H216135   2.004   4.708   0.098
 5391TIP3   OH216136   6.243   5.437   3.333
 5391TIP3    H116137   6.177   5.429   3.264
 5391TIP3    H216138   6.207   5.500   3.394
 5392TIP3   OH216139   3.816   4.960   4.467
 5392TIP3    H116140   3.737   5.001   4.502
 5392TIP3    H216141   3.882   5.030   4.468
 5393TIP3   OH216142   2.217   0.787   1.804
 5393TIP3    H116143   2.218   0.740   1.721
 5393TIP3    H216144   2.142   0.846   1.797
 5394TIP3   OH216145   5.752   0.896   2.030
 5394TIP3    H116146   5.802   0.843   2.093
 5394TIP3    H216147   5.816   0.960   1.997
 5395TIP3   OH216148   0.642   2.856   5.515
 5395TIP3    H116149   0.647   2.808   5.433
 5395TIP3    H216150   0.578   2.925   5.499
 5396TIP3   OH216151   0.923   6.367   1.397
 5396TIP3    H116152   0.861   6.387   1.466
 5396TIP3    H216153   1.006   6.354   1.442
 5397TIP3   OH216154   4.971   3.180   0.847
 5397TIP3    H116155   5.038   3.149   0.908
 5397TIP3    H216156   4.945   3.102   0.798
 5398TIP3   OH216157   2.488   4.843   1.710
 5398TIP3    H116158   2.478   4.850   1.616
 5398TIP3    H216159   2.493   4.749   1.727
 5399TIP3   OH216160   0.524   3.775   0.591
 5399TIP3    H116161   0.443   3.774   0.542
 5399TIP3    H216162   0.500   3.806   0.678
 5400TIP3   OH216163   0.524   4.119   1.188
 5400TIP3    H116164   0.480   4.178   1.249
 5400TIP3    H216165   0.531   4.169   1.106
 5401TIP3   OH216166   0.955   6.567   5.168
 5401TIP3    H116167   1.049   6.581   5.178
 5401TIP3    H216168   0.918   6.588   5.253
 5402TIP3   OH216169   7.045   0.658   2.787
 5402TIP3    H116170   7.032   0.627   2.697
 5402TIP3    H216171   6.972   0.621   2.836
 5403TIP3   OH216172   1.497   5.929   5.683
 5403TIP3    H116173   1.512   6.023   5.692
 5403TIP3    H216174   1.580   5.889   5.709
 5404TIP3   OH216175   5.210   5.439   5.490
 5404TIP3    H116176   5.125   5.466   5.525
 5404TIP3    H216177   5.273   5.463   5.558
 5405TIP3   OH216178   0.164   5.278   1.260
 5405TIP3    H116179   0.187   5.281   1.353
 5405TIP3    H216180   0.126   5.364   1.242
 5406TIP3   OH216181   0.078   5.794   0.914
 5406TIP3    H116182   0.048   5.764   1.000
 5406TIP3    H216183   0.151   5.853   0.933
 5407TIP3   OH216184   3.712   3.194   0.667
 5407TIP3    H116185   3.760   3.251   0.606
 5407TIP3    H216186   3.772   3.122   0.683
 5408TIP3   OH216187   0.876   0.664   1.862
 5408TIP3    H116188   0.875   0.728   1.934
 5408TIP3    H216189   0.788   0.627   1.862
 5409TIP3   OH216190   6.840   6.740   0.593
 5409TIP3    H116191   6.869   6.747   0.502
 5409TIP3    H216192   6.914   6.773   0.645
 5410TIP3   OH216193   2.675   6.104   2.433
 5410TIP3    H116194   2.656   6.198   2.436
 5410TIP3    H216195   2.607   6.068   2.376
 5411TIP3   OH216196   0.566   6.069   3.778
 5411TIP3    H116197   0.533   6.058   3.867
 5411TIP3    H216198   0.499   6.121   3.733
 5412TIP3   OH216199   1.844   3.032   2.181
 5412TIP3    H116200   1.812   2.976   2.110
 5412TIP3    H216201   1.765   3.064   2.224
 5413TIP3   OH216202   2.329   5.612   4.328
 5413TIP3    H116203   2.307   5.658   4.409
 5413TIP3    H216204   2.272   5.536   4.326
 5414TIP3   OH216205   3.568   2.991   1.282
 5414TIP3    H116206   3.497   2.996   1.218
 5414TIP3    H216207   3.542   3.052   1.351
 5415TIP3   OH216208   5.634   0.435   2.915
 5415TIP3    H116209   5.667   0.375   2.848
 5415TIP3    H216210   5.712   0.479   2.949
 5416TIP3   OH216211   4.458   6.361   4.702
 5416TIP3    H116212   4.377   6.363   4.752
 5416TIP3    H216213   4.441   6.417   4.626
 5417TIP3   OH216214   5.190   5.506   5.091
 5417TIP3    H116215   5.171   5.435   5.031
 5417TIP3    H216216   5.110   5.517   5.142
 5418TIP3   OH216217   7.084   1.834   0.566
 5418TIP3    H116218   7.073   1.922   0.602
 5418TIP3    H216219   7.037   1.777   0.628
 5419TIP3   OH216220   3.157   5.227   2.646
 5419TIP3    H116221   3.148   5.290   2.718
 5419TIP3    H216222   3.170   5.282   2.568
 5420TIP3   OH216223   3.835   4.076   2.454
 5420TIP3    H116224   3.783   4.047   2.530
 5420TIP3    H216225   3.777   4.064   2.379
 5421TIP3   OH216226   0.741   2.132   4.011
 5421TIP3    H116227   0.814   2.171   4.058
 5421TIP3    H216228   0.693   2.084   4.079
 5422TIP3   OH216229   5.989   6.088   3.124
 5422TIP3    H116230   5.936   6.008   3.124
 5422TIP3    H216231   6.052   6.075   3.195
 5423TIP3   OH216232   5.984   2.284   0.264
 5423TIP3    H116233   6.017   2.197   0.240
 5423TIP3    H216234   5.889   2.275   0.264
 5424TIP3   OH216235   2.324   1.025   3.381
 5424TIP3    H116236   2.296   1.057   3.295
 5424TIP3    H216237   2.311   1.100   3.439
 5425TIP3   OH216238   2.822   6.642   2.899
 5425TIP3    H116239   2.894   6.706   2.905
 5425TIP3    H216240   2.756   6.686   2.846
 5426TIP3   OH216241   2.893   6.729   5.283
 5426TIP3    H116242   2.859   6.818   5.269
 5426TIP3    H216243   2.913   6.726   5.376
 5427TIP3   OH216244   3.295   2.106   1.801
 5427TIP3    H116245   3.330   2.028   1.758
 5427TIP3    H216246   3.228   2.073   1.860
 5428TIP3   OH216247   3.513   3.647   0.408
 5428TIP3    H116248   3.606   3.630   0.427
 5428TIP3    H216249   3.514   3.688   0.322
 5429TIP3   OH216250   3.263   5.052   2.052
 5429TIP3    H116251   3.347   5.062   2.097
 5429TIP3    H216252   3.197   5.066   2.120
 5430TIP3   OH216253   6.425   0.968   4.143
 5430TIP3    H116254   6.500   1.026   4.153
 5430TIP3    H216255   6.350   1.021   4.170
 5431TIP3   OH216256   4.919   5.651   1.244
 5431TIP3    H116257   4.900   5.558   1.244
 5431TIP3    H216258   4.841   5.692   1.208
 5432TIP3   OH216259   3.654   1.782   3.961
 5432TIP3    H116260   3.672   1.807   4.051
 5432TIP3    H216261   3.709   1.840   3.908
 5433TIP3   OH216262   6.881   5.230   0.135
 5433TIP3    H116263   6.969   5.230   0.173
 5433TIP3    H216264   6.824   5.260   0.206
 5434TIP3   OH216265   2.354   5.663   0.932
 5434TIP3    H116266   2.333   5.580   0.974
 5434TIP3    H216267   2.376   5.640   0.842
 5435TIP3   OH216268   0.042   1.955   5.236
 5435TIP3    H116269  -0.020   1.903   5.288
 5435TIP3    H216270   0.020   2.046   5.257
 5436TIP3   OH216271   1.980   0.795   1.414
 5436TIP3    H116272   1.918   0.868   1.422
 5436TIP3    H216273   1.958   0.754   1.331
 5437TIP3   OH216274   3.285   1.902   5.826
 5437TIP3    H116275   3.377   1.876   5.816
 5437TIP3    H216276   3.264   1.877   5.916
 5438TIP3   OH216277   1.704   0.995   1.077
 5438TIP3    H116278   1.609   1.002   1.063
 5438TIP3    H216279   1.741   0.991   0.989
 5439TIP3   OH216280   5.154   6.072   4.736
 5439TIP3    H116281   5.078   6.129   4.751
 5439TIP3    H216282   5.219   6.101   4.800
 5440TIP3   OH216283   6.322   2.882   2.878
 5440TIP3    H116284   6.383   2.955   2.887
 5440TIP3    H216285   6.236   2.924   2.873
 5441TIP3   OH216286   5.681   0.446   2.094
 5441TIP3    H116287   5.615   0.448   2.164
 5441TIP3    H216288   5.638   0.401   2.022
 5442TIP3   OH216289   6.469   0.764   2.983
 5442TIP3    H116290   6.431   0.842   3.023
 5442TIP3    H216291   6.563   0.776   2.992
 5443TIP3   OH216292   6.836   5.119   0.901
 5443TIP3    H116293   6.785   5.194   0.869
 5443TIP3    H216294   6.780   5.079   0.968
 5444TIP3   OH216295   1.660   4.393   3.522
 5444TIP3    H116296   1.663   4.336   3.446
 5444TIP3    H216297   1.619   4.340   3.590
 5445TIP3   OH216298   1.828   2.741   5.213
 5445TIP3    H116299   1.819   2.662   5.159
 5445TIP3    H216300   1.878   2.802   5.159
 5446TIP3   OH216301   1.871   1.445   5.455
 5446TIP3    H116302   1.799   1.382   5.456
 5446TIP3    H216303   1.933   1.411   5.390
 5447TIP3   OH216304   2.696   6.145   4.952
 5447TIP3    H116305   2.709   6.149   5.046
 5447TIP3    H216306   2.771   6.191   4.915
 5448TIP3   OH216307   1.756   5.821   0.669
 5448TIP3    H116308   1.807   5.779   0.599
 5448TIP3    H216309   1.763   5.914   0.650
 5449TIP3   OH216310   3.010   3.746   3.043
 5449TIP3    H116311   2.987   3.656   3.065
 5449TIP3    H216312   2.999   3.751   2.948
 5450TIP3   OH216313   2.962   4.447   4.758
 5450TIP3    H116314   3.023   4.379   4.786
 5450TIP3    H216315   2.880   4.426   4.802
 5451TIP3   OH216316   5.004   6.504   2.654
 5451TIP3    H116317   4.999   6.597   2.632
 5451TIP3    H216318   5.048   6.464   2.579
 5452TIP3   OH216319   3.037   0.124   4.282
 5452TIP3    H116320   2.984   0.159   4.353
 5452TIP3    H216321   3.110   0.185   4.273
 5453TIP3   OH216322   4.269   1.413   2.052
 5453TIP3    H116323   4.256   1.433   2.145
 5453TIP3    H216324   4.335   1.475   2.022
 5454TIP3   OH216325   4.044   5.825   4.790
 5454TIP3    H116326   4.091   5.907   4.778
 5454TIP3    H216327   4.096   5.760   4.743
 5455TIP3   OH216328   3.669   0.491   3.481
 5455TIP3    H116329   3.593   0.546   3.465
 5455TIP3    H216330   3.703   0.471   3.394
 5456TIP3   OH216331   7.023   2.492   3.043
 5456TIP3    H116332   6.949   2.433   3.057
 5456TIP3    H216333   7.070   2.492   3.126
 5457TIP3   OH216334   3.022   5.281   3.653
 5457TIP3    H116335   3.016   5.185   3.651
 5457TIP3    H216336   3.057   5.305   3.567
 5458TIP3   OH216337   4.279   1.218   1.513
 5458TIP3    H116338   4.325   1.137   1.492
 5458TIP3    H216339   4.291   1.273   1.435
 5459TIP3   OH216340   4.151   2.517   3.077
 5459TIP3    H116341   4.107   2.559   3.150
 5459TIP3    H216342   4.229   2.476   3.116
 5460TIP3   OH216343   3.728   1.898   3.624
 5460TIP3    H116344   3.644   1.908   3.668
 5460TIP3    H216345   3.793   1.920   3.691
 5461TIP3   OH216346   2.801   5.202   5.440
 5461TIP3    H116347   2.883   5.178   5.396
 5461TIP3    H216348   2.807   5.296   5.454
 5462TIP3   OH216349   6.423   1.086   0.547
 5462TIP3    H116350   6.380   1.041   0.621
 5462TIP3    H216351   6.487   1.022   0.515
 5463TIP3   OH216352   2.422   3.680   2.433
 5463TIP3    H116353   2.409   3.727   2.351
 5463TIP3    H216354   2.512   3.648   2.427
 5464TIP3   OH216355   2.370   3.478   5.604
 5464TIP3    H116356   2.277   3.495   5.591
 5464TIP3    H216357   2.374   3.384   5.624
 5465TIP3   OH216358   1.349   6.318   1.171
 5465TIP3    H116359   1.339   6.223   1.168
 5465TIP3    H216360   1.374   6.336   1.262
 5466TIP3   OH216361   2.163   5.696   1.192
 5466TIP3    H116362   2.170   5.781   1.148
 5466TIP3    H216363   2.154   5.718   1.285
 5467TIP3   OH216364   5.825   5.608   0.682
 5467TIP3    H116365   5.787   5.665   0.750
 5467TIP3    H216366   5.766   5.532   0.679
 5468TIP3   OH216367   6.925   0.906   5.523
 5468TIP3    H116368   7.002   0.962   5.522
 5468TIP3    H216369   6.941   0.844   5.594
 5469TIP3   OH216370   2.195   2.322   5.549
 5469TIP3    H116371   2.111   2.304   5.507
 5469TIP3    H216372   2.217   2.411   5.520
 5470TIP3   OH216373   6.793   5.546   2.641
 5470TIP3    H116374   6.834   5.556   2.555
 5470TIP3    H216375   6.858   5.581   2.702
 5471TIP3   OH216376   5.415   3.051   2.720
 5471TIP3    H116377   5.323   3.071   2.738
 5471TIP3    H216378   5.429   3.085   2.631
 5472TIP3   OH216379   4.912   0.040   4.974
 5472TIP3    H116380   4.933  -0.053   4.973
 5472TIP3    H216381   4.994   0.083   4.997
 5473TIP3   OH216382   2.024   1.272   0.551
 5473TIP3    H116383   2.001   1.358   0.516
 5473TIP3    H216384   2.090   1.290   0.618
 5474TIP3   OH216385   1.633   0.419   2.074
 5474TIP3    H116386   1.547   0.382   2.095
 5474TIP3    H216387   1.647   0.397   1.982
 5475TIP3   OH216388   0.450   3.760   3.026
 5475TIP3    H116389   0.450   3.793   2.936
 5475TIP3    H216390   0.358   3.741   3.045
 5476TIP3   OH216391   6.103   1.299   1.147
 5476TIP3    H116392   6.172   1.300   1.080
 5476TIP3    H216393   6.150   1.285   1.229
 5477TIP3   OH216394   6.006   1.984   4.637
 5477TIP3    H116395   5.947   2.030   4.696
 5477TIP3    H216396   5.954   1.965   4.559
 5478TIP3   OH216397   6.580   6.204   3.645
 5478TIP3    H116398   6.601   6.142   3.576
 5478TIP3    H216399   6.631   6.173   3.720
 5479TIP3   OH216400   2.544   0.462   2.372
 5479TIP3    H116401   2.491   0.515   2.431
 5479TIP3    H216402   2.632   0.498   2.380
 5480TIP3   OH216403   5.630   5.134   1.173
 5480TIP3    H116404   5.583   5.151   1.091
 5480TIP3    H216405   5.674   5.217   1.193
 5481TIP3   OH216406   0.932   2.819   4.766
 5481TIP3    H116407   1.013   2.817   4.716
 5481TIP3    H216408   0.953   2.775   4.848
 5482TIP3   OH216409   5.746   4.806   4.726
 5482TIP3    H116410   5.673   4.744   4.722
 5482TIP3    H216411   5.736   4.861   4.649
 5483TIP3   OH216412   3.238   6.527   3.013
 5483TIP3    H116413   3.193   6.443   3.025
 5483TIP3    H216414   3.281   6.543   3.097
 5484TIP3   OH216415   0.991   1.114   0.206
 5484TIP3    H116416   0.924   1.176   0.236
 5484TIP3    H216417   1.048   1.166   0.149
 5485TIP3   OH216418   2.395   2.099   2.686
 5485TIP3    H116419   2.369   2.008   2.672
 5485TIP3    H216420   2.336   2.149   2.630
 5486TIP3   OH216421   0.112   6.528   2.080
 5486TIP3    H116422   0.122   6.435   2.102
 5486TIP3    H216423   0.178   6.543   2.012
 5487TIP3   OH216424   2.057   5.965   2.211
 5487TIP3    H116425   2.119   6.037   2.219
 5487TIP3    H216426   2.013   5.961   2.296
 5488TIP3   OH216427   5.943   4.118   2.506
 5488TIP3    H116428   5.966   4.033   2.467
 5488TIP3    H216429   5.975   4.112   2.596
 5489TIP3   OH216430   1.201   1.852   4.484
 5489TIP3    H116431   1.184   1.908   4.560
 5489TIP3    H216432   1.121   1.857   4.432
 5490TIP3   OH216433   6.277   3.847   0.120
 5490TIP3    H116434   6.230   3.877   0.198
 5490TIP3    H216435   6.209   3.837   0.053
 5491TIP3   OH216436   7.227   4.727   2.617
 5491TIP3    H116437   7.148   4.756   2.572
 5491TIP3    H216438   7.205   4.734   2.710
 5492TIP3   OH216439   4.911   6.703   5.211
 5492TIP3    H116440   4.972   6.747   5.152
 5492TIP3    H216441   4.880   6.628   5.161
 5493TIP3   OH216442   3.602   4.515   1.323
 5493TIP3    H116443   3.619   4.600   1.364
 5493TIP3    H216444   3.519   4.486   1.361
 5494TIP3   OH216445   0.083   1.610   4.208
 5494TIP3    H116446   0.118   1.698   4.193
 5494TIP3    H216447   0.041   1.615   4.294
 5495TIP3   OH216448   5.520   1.922   5.750
 5495TIP3    H116449   5.584   1.924   5.822
 5495TIP3    H216450   5.570   1.950   5.673
 5496TIP3   OH216451   3.262   1.556   2.292
 5496TIP3    H116452   3.319   1.489   2.331
 5496TIP3    H216453   3.217   1.596   2.367
 5497TIP3   OH216454   6.833   4.457   1.422
 5497TIP3    H116455   6.751   4.488   1.461
 5497TIP3    H216456   6.805   4.410   1.343
 5498TIP3   OH216457   2.285   6.003   4.510
 5498TIP3    H116458   2.227   6.040   4.577
 5498TIP3    H216459   2.252   5.914   4.496
 5499TIP3   OH216460   3.650   5.898   4.251
 5499TIP3    H116461   3.556   5.886   4.245
 5499TIP3    H216462   3.665   5.987   4.217
 5500TIP3   OH216463   5.961   4.253   0.280
 5500TIP3    H116464   5.885   4.281   0.229
 5500TIP3    H216465   5.961   4.311   0.356
 5501TIP3   OH216466   6.428   1.861   2.519
 5501TIP3    H116467   6.377   1.857   2.599
 5501TIP3    H216468   6.515   1.830   2.544
 5502TIP3   OH216469   4.369   2.334   5.732
 5502TIP3    H116470   4.394   2.247   5.765
 5502TIP3    H216471   4.337   2.317   5.644
 5503TIP3   OH216472   1.755   2.072   2.238
 5503TIP3    H116473   1.772   2.000   2.177
 5503TIP3    H216474   1.775   2.035   2.324
 5504TIP3   OH216475   7.112   4.208   4.303
 5504TIP3    H116476   7.191   4.262   4.301
 5504TIP3    H216477   7.141   4.122   4.274
 5505TIP3   OH216478   0.037   5.179   5.314
 5505TIP3    H116479   0.041   5.084   5.301
 5505TIP3    H216480   0.119   5.211   5.277
 5506TIP3   OH216481   0.158   2.663   4.929
 5506TIP3    H116482   0.069   2.632   4.913
 5506TIP3    H216483   0.205   2.644   4.847
 5507TIP3   OH216484   2.114   4.306   1.222
 5507TIP3    H116485   2.208   4.306   1.238
 5507TIP3    H216486   2.092   4.398   1.206
 5508TIP3   OH216487   0.535   0.232   1.107
 5508TIP3    H116488   0.555   0.197   1.021
 5508TIP3    H216489   0.606   0.293   1.126
 5509TIP3   OH216490   4.627   4.935   1.617
 5509TIP3    H116491   4.642   4.896   1.703
 5509TIP3    H216492   4.595   5.024   1.636
 5510TIP3   OH216493   0.269   2.018   5.107
 5510TIP3    H116494   0.184   1.986   5.137
 5510TIP3    H216495   0.333   1.963   5.152
 5511TIP3   OH216496   4.864   1.628   3.550
 5511TIP3    H116497   4.843   1.537   3.532
 5511TIP3    H216498   4.959   1.633   3.546
 5512TIP3   OH216499   6.870   0.171   1.522
 5512TIP3    H116500   6.855   0.090   1.571
 5512TIP3    H216501   6.965   0.176   1.513
 5513TIP3   OH216502   5.534   0.113   0.674
 5513TIP3    H116503   5.574   0.032   0.642
 5513TIP3    H216504   5.442   0.091   0.685
 5514TIP3   OH216505   0.278   1.691   0.959
 5514TIP3    H116506   0.234   1.691   0.874
 5514TIP3    H216507   0.371   1.692   0.938
 5515TIP3   OH216508   1.969   0.981   4.577
 5515TIP3    H116509   1.963   0.915   4.508
 5515TIP3    H216510   2.006   1.058   4.534
 5516TIP3   OH216511   2.722   1.765   0.094
 5516TIP3    H116512   2.645   1.759   0.151
 5516TIP3    H216513   2.690   1.808   0.015
 5517TIP3   OH216514   5.668   5.381   4.038
 5517TIP3    H116515   5.741   5.438   4.060
 5517TIP3    H216516   5.688   5.349   3.950
 5518TIP3   OH216517   1.394   2.333   1.990
 5518TIP3    H116518   1.319   2.346   2.049
 5518TIP3    H216519   1.426   2.422   1.972
 5519TIP3   OH216520   5.562   3.273   2.059
 5519TIP3    H116521   5.488   3.237   2.108
 5519TIP3    H216522   5.639   3.245   2.109
 5520TIP3   OH216523   3.010   1.399   2.331
 5520TIP3    H116524   2.930   1.355   2.361
 5520TIP3    H216525   2.979   1.464   2.269
 5521TIP3   OH216526   4.278   5.602   1.088
 5521TIP3    H116527   4.247   5.537   1.025
 5521TIP3    H216528   4.198   5.641   1.123
 5522TIP3   OH216529   1.523   1.587   0.096
 5522TIP3    H116530   1.456   1.571   0.030
 5522TIP3    H216531   1.489   1.660   0.148
 5523TIP3   OH216532   2.733   4.845   0.116
 5523TIP3    H116533   2.802   4.801   0.066
 5523TIP3    H216534   2.652   4.806   0.084
 5524TIP3   OH216535   0.397   3.485   5.370
 5524TIP3    H116536   0.312   3.525   5.384
 5524TIP3    H216537   0.432   3.530   5.293
 5525TIP3   OH216538   4.731   2.173   0.078
 5525TIP3    H116539   4.651   2.172   0.131
 5525TIP3    H216540   4.703   2.206  -0.007
 5526TIP3   OH216541   0.124   4.947   5.125
 5526TIP3    H116542   0.123   4.879   5.057
 5526TIP3    H216543   0.122   5.029   5.077
 5527TIP3   OH216544   4.354   0.254   5.166
 5527TIP3    H116545   4.319   0.243   5.254
 5527TIP3    H216546   4.301   0.195   5.112
 5528TIP3   OH216547   1.389   1.072   3.043
 5528TIP3    H116548   1.335   1.113   2.976
 5528TIP3    H216549   1.459   1.134   3.059
 5529TIP3   OH216550   3.579   5.133   4.299
 5529TIP3    H116551   3.661   5.152   4.255
 5529TIP3    H216552   3.577   5.037   4.306
 5530TIP3   OH216553   1.873   4.071   4.887
 5530TIP3    H116554   1.834   3.993   4.926
 5530TIP3    H216555   1.935   4.102   4.953
 5531TIP3   OH216556   2.846   1.526  -0.006
 5531TIP3    H116557   2.805   1.468   0.058
 5531TIP3    H216558   2.802   1.610   0.006
 5532TIP3   OH216559   3.372   4.443   1.920
 5532TIP3    H116560   3.293   4.425   1.870
 5532TIP3    H216561   3.349   4.516   1.977
 5533TIP3   OH216562   1.433   3.053   0.153
 5533TIP3    H116563   1.381   2.978   0.123
 5533TIP3    H216564   1.368   3.122   0.168
 5534TIP3   OH216565   3.729   4.301   0.981
 5534TIP3    H116566   3.705   4.391   1.004
 5534TIP3    H216567   3.649   4.264   0.944
 5535TIP3   OH216568   3.857   3.432   0.888
 5535TIP3    H116569   3.885   3.395   0.804
 5535TIP3    H216570   3.892   3.372   0.954
 5536TIP3   OH216571   1.796   0.588   1.593
 5536TIP3    H116572   1.844   0.556   1.516
 5536TIP3    H216573   1.756   0.510   1.630
 5537TIP3   OH216574   5.448   5.773   1.589
 5537TIP3    H116575   5.366   5.724   1.583
 5537TIP3    H216576   5.456   5.819   1.505
 5538TIP3   OH216577   1.542   2.062   0.022
 5538TIP3    H116578   1.527   2.138   0.080
 5538TIP3    H216579   1.484   2.078  -0.052
 5539TIP3   OH216580   4.296   6.274   0.836
 5539TIP3    H116581   4.275   6.359   0.797
 5539TIP3    H216582   4.214   6.243   0.873
 5540TIP3   OH216583   2.876   4.282   3.451
 5540TIP3    H116584   2.906   4.367   3.420
 5540TIP3    H216585   2.951   4.245   3.498
 5541TIP3   OH216586   6.937   1.289   4.820
 5541TIP3    H116587   6.916   1.205   4.780
 5541TIP3    H216588   6.915   1.354   4.753
 5542TIP3   OH216589   2.781   0.238   2.550
 5542TIP3    H116590   2.821   0.218   2.465
 5542TIP3    H216591   2.848   0.288   2.596
 5543TIP3   OH216592   6.611   1.940   1.988
 5543TIP3    H116593   6.526   1.946   1.945
 5543TIP3    H216594   6.668   1.996   1.935
 5544TIP3   OH216595   7.162   1.874   3.781
 5544TIP3    H116596   7.110   1.921   3.847
 5544TIP3    H216597   7.112   1.884   3.700
 5545TIP3   OH216598   2.088   1.909   5.873
 5545TIP3    H116599   2.165   1.914   5.929
 5545TIP3    H216600   2.122   1.881   5.788
 5546TIP3   OH216601   4.181   3.500   3.872
 5546TIP3    H116602   4.142   3.508   3.959
 5546TIP3    H216603   4.238   3.423   3.879
 5547TIP3   OH216604   5.006   4.533   4.107
 5547TIP3    H116605   4.989   4.568   4.019
 5547TIP3    H216606   4.921   4.499   4.136
 5548TIP3   OH216607   4.675   6.139   0.320
 5548TIP3    H116608   4.685   6.216   0.264
 5548TIP3    H216609   4.634   6.172   0.400
 5549TIP3   OH216610   4.699   4.003   3.217
 5549TIP3    H116611   4.648   3.952   3.153
 5549TIP3    H216612   4.660   3.981   3.302
 5550TIP3   OH216613   6.471   3.820   3.702
 5550TIP3    H116614   6.520   3.769   3.766
 5550TIP3    H216615   6.468   3.766   3.624
 5551TIP3   OH216616   3.003   5.234   4.731
 5551TIP3    H116617   3.012   5.258   4.639
 5551TIP3    H216618   2.915   5.199   4.739
 5552TIP3   OH216619   1.947   6.469   3.455
 5552TIP3    H116620   1.926   6.494   3.365
 5552TIP3    H216621   1.957   6.374   3.452
 5553TIP3   OH216622   4.344   6.329   4.173
 5553TIP3    H116623   4.373   6.271   4.103
 5553TIP3    H216624   4.264   6.369   4.139
 5554TIP3   OH216625   2.324   6.063   0.047
 5554TIP3    H116626   2.407   6.095   0.012
 5554TIP3    H216627   2.257   6.101  -0.010
 5555TIP3   OH216628   1.757   4.147   4.387
 5555TIP3    H116629   1.733   4.192   4.468
 5555TIP3    H216630   1.823   4.083   4.413
 5556TIP3   OH216631   3.956   1.905   2.313
 5556TIP3    H116632   3.905   1.902   2.233
 5556TIP3    H216633   3.916   1.840   2.370
 5557TIP3   OH216634   1.119   3.338   5.775
 5557TIP3    H116635   1.072   3.255   5.785
 5557TIP3    H216636   1.166   3.330   5.693
 5558TIP3   OH216637   3.081   5.526   3.446
 5558TIP3    H116638   3.107   5.448   3.395
 5558TIP3    H216639   3.163   5.573   3.459
 5559TIP3   OH216640   4.373   5.714   2.738
 5559TIP3    H116641   4.456   5.754   2.766
 5559TIP3    H216642   4.309   5.742   2.802
 5560TIP3   OH216643   7.125   2.506   4.692
 5560TIP3    H116644   7.076   2.424   4.699
 5560TIP3    H216645   7.092   2.560   4.764
 5561TIP3   OH216646  -0.019   1.477   4.730
 5561TIP3    H116647  -0.051   1.451   4.817
 5561TIP3    H216648   0.056   1.534   4.748
 5562TIP3   OH216649   1.761   3.287   1.164
 5562TIP3    H116650   1.775   3.194   1.145
 5562TIP3    H216651   1.830   3.332   1.114
 5563TIP3   OH216652   5.764   4.862   3.211
 5563TIP3    H116653   5.850   4.846   3.249
 5563TIP3    H216654   5.718   4.915   3.277
 5564TIP3   OH216655   4.655   4.605   2.180
 5564TIP3    H116656   4.716   4.663   2.134
 5564TIP3    H216657   4.572   4.654   2.180
 5565TIP3   OH216658   3.357   0.016   5.829
 5565TIP3    H116659   3.383  -0.076   5.833
 5565TIP3    H216660   3.358   0.037   5.736
 5566TIP3   OH216661   6.420   4.672   4.017
 5566TIP3    H116662   6.448   4.637   4.101
 5566TIP3    H216663   6.371   4.752   4.039
 5567TIP3   OH216664   6.203   1.474   4.720
 5567TIP3    H116665   6.131   1.531   4.694
 5567TIP3    H216666   6.281   1.514   4.680
 5568TIP3   OH216667   0.476   3.561   3.494
 5568TIP3    H116668   0.459   3.530   3.583
 5568TIP3    H216669   0.389   3.582   3.458
 5569TIP3   OH216670   5.566   0.309   1.350
 5569TIP3    H116671   5.566   0.366   1.273
 5569TIP3    H216672   5.544   0.222   1.316
 5570TIP3   OH216673   4.810   5.468   1.652
 5570TIP3    H116674   4.841   5.513   1.574
 5570TIP3    H216675   4.725   5.508   1.670
 5571TIP3   OH216676   2.319   1.484   1.509
 5571TIP3    H116677   2.349   1.549   1.445
 5571TIP3    H216678   2.396   1.468   1.564
 5572TIP3   OH216679   1.535   4.607   2.602
 5572TIP3    H116680   1.538   4.536   2.537
 5572TIP3    H216681   1.453   4.593   2.649
 5573TIP3   OH216682   2.786   2.973   0.839
 5573TIP3    H116683   2.853   3.041   0.846
 5573TIP3    H216684   2.713   3.015   0.794
 5574TIP3   OH216685   0.544   1.565   1.995
 5574TIP3    H116686   0.549   1.485   1.942
 5574TIP3    H216687   0.604   1.626   1.953
 5575TIP3   OH216688   4.414   1.616   3.148
 5575TIP3    H116689   4.502   1.599   3.182
 5575TIP3    H216690   4.368   1.658   3.221
 5576TIP3   OH216691   1.503   4.690   4.584
 5576TIP3    H116692   1.525   4.781   4.604
 5576TIP3    H216693   1.464   4.656   4.665
 5577TIP3   OH216694   1.124   4.224   0.567
 5577TIP3    H116695   1.141   4.151   0.509
 5577TIP3    H216696   1.210   4.263   0.583
 5578TIP3   OH216697   5.565   6.320   4.205
 5578TIP3    H116698   5.580   6.359   4.119
 5578TIP3    H216699   5.475   6.288   4.203
 5579TIP3   OH216700   1.959   5.143   2.763
 5579TIP3    H116701   1.940   5.210   2.697
 5579TIP3    H216702   2.041   5.172   2.803
 5580TIP3   OH216703   0.340   6.582   0.172
 5580TIP3    H116704   0.361   6.667   0.134
 5580TIP3    H216705   0.248   6.567   0.150
 5581TIP3   OH216706   5.720   4.503   4.696
 5581TIP3    H116707   5.666   4.454   4.758
 5581TIP3    H216708   5.662   4.519   4.622
 5582TIP3   OH216709   6.240   4.246   3.371
 5582TIP3    H116710   6.315   4.284   3.325
 5582TIP3    H216711   6.170   4.246   3.305
 5583TIP3   OH216712   4.392   0.470   3.650
 5583TIP3    H116713   4.431   0.518   3.723
 5583TIP3    H216714   4.436   0.506   3.573
 5584TIP3   OH216715   6.564   6.234   2.360
 5584TIP3    H116716   6.572   6.313   2.414
 5584TIP3    H216717   6.649   6.227   2.316
 5585TIP3   OH216718   1.211   5.639   1.799
 5585TIP3    H116719   1.138   5.579   1.796
 5585TIP3    H216720   1.271   5.608   1.732
 5586TIP3   OH216721   1.693   4.112   5.182
 5586TIP3    H116722   1.674   4.040   5.122
 5586TIP3    H216723   1.752   4.074   5.247
 5587TIP3   OH216724   1.284   1.993   3.253
 5587TIP3    H116725   1.251   1.949   3.174
 5587TIP3    H216726   1.249   1.942   3.325
 5588TIP3   OH216727   5.721   1.618   1.704
 5588TIP3    H116728   5.660   1.571   1.762
 5588TIP3    H216729   5.807   1.603   1.742
 5589TIP3   OH216730   5.050   0.754   5.279
 5589TIP3    H116731   5.091   0.817   5.338
 5589TIP3    H216732   4.959   0.749   5.309
 5590TIP3   OH216733   1.914   0.720   0.173
 5590TIP3    H116734   2.007   0.733   0.195
 5590TIP3    H216735   1.908   0.745   0.081
 5591TIP3   OH216736   2.481   4.408   2.799
 5591TIP3    H116737   2.506   4.323   2.763
 5591TIP3    H216738   2.393   4.424   2.764
 5592TIP3   OH216739   0.993   6.505   1.826
 5592TIP3    H116740   0.967   6.440   1.891
 5592TIP3    H216741   1.089   6.501   1.825
 5593TIP3   OH216742   3.768   2.932   2.039
 5593TIP3    H116743   3.826   2.999   2.074
 5593TIP3    H216744   3.825   2.856   2.024
 5594TIP3   OH216745  -0.005   6.683   5.699
 5594TIP3    H116746   0.036   6.604   5.664
 5594TIP3    H216747   0.048   6.755   5.665
 5595TIP3   OH216748   4.355   3.612   5.323
 5595TIP3    H116749   4.328   3.683   5.265
 5595TIP3    H216750   4.449   3.604   5.309
 5596TIP3   OH216751   0.520   2.542   3.134
 5596TIP3    H116752   0.461   2.608   3.170
 5596TIP3    H216753   0.541   2.573   3.046
 5597TIP3   OH216754   6.936   4.473   3.402
 5597TIP3    H116755   6.967   4.560   3.375
 5597TIP3    H216756   6.845   4.470   3.373
 5598TIP3   OH216757   0.516   3.490   3.125
 5598TIP3    H116758   0.455   3.557   3.093
 5598TIP3    H216759   0.557   3.455   3.046
 5599TIP3   OH216760   2.822   0.952   4.154
 5599TIP3    H116761   2.794   0.965   4.064
 5599TIP3    H216762   2.886   1.022   4.170
 5600TIP3   OH216763   0.365   0.206   2.496
 5600TIP3    H116764   0.372   0.228   2.588
 5600TIP3    H216765   0.328   0.284   2.455
 5601TIP3   OH216766   2.488   5.940   2.786
 5601TIP3    H116767   2.542   5.864   2.762
 5601TIP3    H216768   2.551   6.009   2.806
 5602TIP3   OH216769   4.389   3.103   5.513
 5602TIP3    H116770   4.437   3.023   5.536
 5602TIP3    H216771   4.340   3.125   5.592
 5603TIP3   OH216772   4.497   6.606   3.820
 5603TIP3    H116773   4.411   6.647   3.810
 5603TIP3    H216774   4.520   6.620   3.912
 5604TIP3   OH216775   1.689   5.303   1.120
 5604TIP3    H116776   1.638   5.306   1.200
 5604TIP3    H216777   1.779   5.289   1.149
 5605TIP3   OH216778   0.383   3.293   4.587
 5605TIP3    H116779   0.321   3.240   4.538
 5605TIP3    H216780   0.353   3.383   4.574
 5606TIP3   OH216781   6.633   2.931   3.442
 5606TIP3    H116782   6.716   2.967   3.411
 5606TIP3    H216783   6.567   2.969   3.384
 5607TIP3   OH216784   5.324   0.382   0.188
 5607TIP3    H116785   5.342   0.308   0.130
 5607TIP3    H216786   5.253   0.352   0.244
 5608TIP3   OH216787   2.551   1.514   1.101
 5608TIP3    H116788   2.554   1.567   1.022
 5608TIP3    H216789   2.580   1.427   1.074
 5609TIP3   OH216790   6.828   2.305   3.779
 5609TIP3    H116791   6.837   2.271   3.690
 5609TIP3    H216792   6.915   2.293   3.818
 5610TIP3   OH216793   3.063   2.692   5.518
 5610TIP3    H116794   3.078   2.603   5.550
 5610TIP3    H216795   3.027   2.680   5.430
 5611TIP3   OH216796   6.948   2.828   3.314
 5611TIP3    H116797   6.960   2.867   3.227
 5611TIP3    H216798   7.036   2.822   3.350
 5612TIP3   OH216799   2.314   2.361   0.766
 5612TIP3    H116800   2.263   2.292   0.810
 5612TIP3    H216801   2.255   2.395   0.698
 5613TIP3   OH216802   6.371   4.847   2.762
 5613TIP3    H116803   6.401   4.763   2.727
 5613TIP3    H216804   6.279   4.833   2.782
 5614TIP3   OH216805   7.144   0.434   3.904
 5614TIP3    H116806   7.066   0.385   3.931
 5614TIP3    H216807   7.174   0.389   3.825
 5615TIP3   OH216808   2.204   0.345   1.113
 5615TIP3    H116809   2.168   0.433   1.122
 5615TIP3    H216810   2.294   0.359   1.085
 5616TIP3   OH216811   4.578   0.035   0.411
 5616TIP3    H116812   4.616   0.052   0.497
 5616TIP3    H216813   4.540  -0.052   0.418
 5617TIP3   OH216814   1.400   1.645   5.673
 5617TIP3    H116815   1.400   1.589   5.751
 5617TIP3    H216816   1.357   1.593   5.606
 5618TIP3   OH216817   7.160   5.515   1.428
 5618TIP3    H116818   7.218   5.516   1.351
 5618TIP3    H216819   7.176   5.430   1.468
 5619TIP3   OH216820   5.688   5.974   1.426
 5619TIP3    H116821   5.781   5.989   1.444
 5619TIP3    H216822   5.643   6.039   1.478
 5620TIP3   OH216823   6.146   0.360   0.139
 5620TIP3    H116824   6.200   0.327   0.210
 5620TIP3    H216825   6.209   0.398   0.077
 5621TIP3   OH216826   6.329   0.987   5.821
 5621TIP3    H116827   6.271   1.063   5.817
 5621TIP3    H216828   6.299   0.931   5.750
 5622TIP3   OH216829   1.756   1.353   2.936
 5622TIP3    H116830   1.825   1.293   2.966
 5622TIP3    H216831   1.802   1.435   2.919
 5623TIP3   OH216832   3.216   1.055   5.815
 5623TIP3    H116833   3.236   1.092   5.729
 5623TIP3    H216834   3.146   1.111   5.849
 5624TIP3   OH216835   1.743   4.215   3.315
 5624TIP3    H116836   1.807   4.215   3.244
 5624TIP3    H216837   1.683   4.143   3.294
 5625TIP3   OH216838   3.762   1.947   5.568
 5625TIP3    H116839   3.822   1.875   5.551
 5625TIP3    H216840   3.684   1.926   5.517
 5626TIP3   OH216841   0.618   3.146   4.643
 5626TIP3    H116842   0.557   3.217   4.624
 5626TIP3    H216843   0.568   3.085   4.697
 5627TIP3   OH216844   1.936   6.313   5.701
 5627TIP3    H116845   1.879   6.266   5.761
 5627TIP3    H216846   1.892   6.306   5.616
 5628TIP3   OH216847   2.374   5.837   5.816
 5628TIP3    H116848   2.425   5.917   5.804
 5628TIP3    H216849   2.438   5.766   5.809
 5629TIP3   OH216850   0.855   3.565   5.543
 5629TIP3    H116851   0.786   3.627   5.520
 5629TIP3    H216852   0.819   3.515   5.617
 5630TIP3   OH216853   6.014   2.842   1.228
 5630TIP3    H116854   5.962   2.816   1.303
 5630TIP3    H216855   5.969   2.918   1.192
 5631TIP3   OH216856   2.912   4.339   2.093
 5631TIP3    H116857   2.907   4.431   2.065
 5631TIP3    H216858   2.908   4.288   2.012
 5632TIP3   OH216859   4.081   6.581   2.048
 5632TIP3    H116860   4.008   6.619   2.097
 5632TIP3    H216861   4.159   6.620   2.086
 5633TIP3   OH216862   2.052   2.172   3.767
 5633TIP3    H116863   2.146   2.150   3.767
 5633TIP3    H216864   2.013   2.107   3.825
 5634TIP3   OH216865   2.733   2.798   4.911
 5634TIP3    H116866   2.668   2.764   4.851
 5634TIP3    H216867   2.760   2.882   4.873
 5635TIP3   OH216868   6.619   4.941   5.011
 5635TIP3    H116869   6.630   4.932   4.916
 5635TIP3    H216870   6.699   4.982   5.041
 5636TIP3   OH216871   1.537   4.228   5.375
 5636TIP3    H116872   1.484   4.290   5.326
 5636TIP3    H216873   1.591   4.185   5.309
 5637TIP3   OH216874   4.831   6.645   3.251
 5637TIP3    H116875   4.749   6.639   3.301
 5637TIP3    H216876   4.804   6.632   3.160
 5638TIP3   OH216877   3.353   6.065   2.334
 5638TIP3    H116878   3.270   6.054   2.381
 5638TIP3    H216879   3.379   5.975   2.312
 5639TIP3   OH216880   4.893   2.545   0.660
 5639TIP3    H116881   4.838   2.620   0.636
 5639TIP3    H216882   4.929   2.514   0.578
 5640TIP3   OH216883   5.785   2.163   3.979
 5640TIP3    H116884   5.841   2.150   4.055
 5640TIP3    H216885   5.770   2.258   3.977
 5641TIP3   OH216886   2.116   0.628   1.014
 5641TIP3    H116887   2.084   0.707   0.970
 5641TIP3    H216888   2.181   0.660   1.077
 5642TIP3   OH216889   2.127   4.230   2.956
 5642TIP3    H116890   2.138   4.287   3.032
 5642TIP3    H216891   2.205   4.176   2.954
 5643TIP3   OH216892   0.240   2.696   5.514
 5643TIP3    H116893   0.277   2.616   5.476
 5643TIP3    H216894   0.192   2.737   5.443
 5644TIP3   OH216895   4.946   1.753   0.721
 5644TIP3    H116896   4.864   1.706   0.706
 5644TIP3    H216897   4.995   1.744   0.639
 5645TIP3   OH216898   2.843   4.743   0.368
 5645TIP3    H116899   2.807   4.758   0.280
 5645TIP3    H216900   2.911   4.678   0.355
 5646TIP3   OH216901   3.052   4.690   3.762
 5646TIP3    H116902   3.138   4.733   3.758
 5646TIP3    H216903   3.071   4.599   3.783
 5647TIP3   OH216904   3.200   3.267   3.665
 5647TIP3    H116905   3.221   3.174   3.673
 5647TIP3    H216906   3.104   3.270   3.661
 5648TIP3   OH216907   1.781   0.024   4.559
 5648TIP3    H116908   1.790   0.092   4.626
 5648TIP3    H216909   1.730  -0.045   4.602
 5649TIP3   OH216910   2.502   3.031   3.738
 5649TIP3    H116911   2.469   2.943   3.721
 5649TIP3    H216912   2.431   3.090   3.714
 5650TIP3   OH216913   6.302   1.560   4.231
 5650TIP3    H116914   6.376   1.598   4.279
 5650TIP3    H216915   6.290   1.474   4.270
 5651TIP3   OH216916   4.754   3.673   3.404
 5651TIP3    H116917   4.736   3.764   3.430
 5651TIP3    H216918   4.691   3.622   3.455
 5652TIP3   OH216919   5.151   6.241   1.722
 5652TIP3    H116920   5.189   6.153   1.730
 5652TIP3    H216921   5.148   6.274   1.812
 5653TIP3   OH216922   0.643   4.054   3.125
 5653TIP3    H116923   0.717   4.016   3.173
 5653TIP3    H216924   0.583   4.085   3.193
 5654TIP3   OH216925   0.164   1.838   0.511
 5654TIP3    H116926   0.069   1.839   0.508
 5654TIP3    H216927   0.191   1.907   0.451
 5655TIP3   OH216928   4.464   5.175   3.099
 5655TIP3    H116929   4.484   5.150   3.008
 5655TIP3    H216930   4.402   5.109   3.129
 5656TIP3   OH216931   4.592   0.565   4.104
 5656TIP3    H116932   4.557   0.568   4.193
 5656TIP3    H216933   4.626   0.653   4.089
 5657TIP3   OH216934   2.754   1.990   1.198
 5657TIP3    H116935   2.711   1.969   1.281
 5657TIP3    H216936   2.792   2.077   1.212
 5658TIP3   OH216937   7.039   1.920   3.532
 5658TIP3    H116938   7.016   1.869   3.454
 5658TIP3    H216939   6.983   1.997   3.527
 5659TIP3   OH216940   4.095   2.301   0.724
 5659TIP3    H116941   4.092   2.352   0.643
 5659TIP3    H216942   4.035   2.347   0.783
 5660TIP3   OH216943   6.647   3.332   0.676
 5660TIP3    H116944   6.610   3.356   0.592
 5660TIP3    H216945   6.742   3.338   0.663
 5661TIP3   OH216946   3.047   2.952   0.404
 5661TIP3    H116947   3.052   3.036   0.451
 5661TIP3    H216948   3.116   2.899   0.443
 5662TIP3   OH216949   5.210   5.142   2.572
 5662TIP3    H116950   5.248   5.228   2.589
 5662TIP3    H216951   5.211   5.134   2.477
 5663TIP3   OH216952   1.245   5.995   1.466
 5663TIP3    H116953   1.318   5.940   1.493
 5663TIP3    H216954   1.169   5.958   1.511
 5664TIP3   OH216955   2.741   6.262   0.933
 5664TIP3    H116956   2.716   6.175   0.966
 5664TIP3    H216957   2.658   6.302   0.908
 5665TIP3   OH216958   4.070   6.152   0.941
 5665TIP3    H116959   4.021   6.147   1.023
 5665TIP3    H216960   4.004   6.138   0.873
 5666TIP3   OH216961   5.916   4.730   2.133
 5666TIP3    H116962   5.866   4.654   2.162
 5666TIP3    H216963   5.862   4.771   2.065
 5667TIP3   OH216964   1.644   2.214   4.138
 5667TIP3    H116965   1.702   2.169   4.199
 5667TIP3    H216966   1.687   2.298   4.122
 5668TIP3   OH216967   2.182   0.671   0.357
 5668TIP3    H116968   2.272   0.661   0.326
 5668TIP3    H216969   2.172   0.764   0.373
 5669TIP3   OH216970   2.948   2.028   3.050
 5669TIP3    H116971   3.036   2.062   3.035
 5669TIP3    H216972   2.893   2.106   3.061
 5670TIP3   OH216973   1.455   5.634   2.616
 5670TIP3    H116974   1.465   5.710   2.673
 5670TIP3    H216975   1.376   5.590   2.648
 5671TIP3   OH216976   3.450   2.321   2.092
 5671TIP3    H116977   3.393   2.392   2.121
 5671TIP3    H216978   3.533   2.364   2.071
 5672TIP3   OH216979   4.974   3.121   5.130
 5672TIP3    H116980   4.970   3.211   5.162
 5672TIP3    H216981   5.006   3.128   5.040
 5673TIP3   OH216982   6.524   6.672   5.710
 5673TIP3    H116983   6.539   6.623   5.629
 5673TIP3    H216984   6.547   6.762   5.687
 5674TIP3   OH216985   5.717   6.450   5.379
 5674TIP3    H116986   5.645   6.394   5.350
 5674TIP3    H216987   5.679   6.502   5.450
 5675TIP3   OH216988   0.178   1.387   2.359
 5675TIP3    H116989   0.140   1.301   2.341
 5675TIP3    H216990   0.107   1.448   2.341
 5676TIP3   OH216991   1.134   0.603   4.574
 5676TIP3    H116992   1.138   0.697   4.558
 5676TIP3    H216993   1.043   0.587   4.601
 5677TIP3   OH216994   1.340   0.780   5.101
 5677TIP3    H116995   1.247   0.794   5.116
 5677TIP3    H216996   1.358   0.823   5.018
 5678TIP3   OH216997   2.301   4.187   2.180
 5678TIP3    H116998   2.364   4.221   2.116
 5678TIP3    H216999   2.321   4.232   2.261
 5679TIP3   OH217000   4.630   0.383   2.393
 5679TIP3    H117001   4.723   0.406   2.392
 5679TIP3    H217002   4.629   0.287   2.386
 5680TIP3   OH217003   0.655   2.664   2.384
 5680TIP3    H117004   0.599   2.593   2.352
 5680TIP3    H217005   0.741   2.644   2.348
 5681TIP3   OH217006   0.060   3.107   5.251
 5681TIP3    H117007   0.114   3.050   5.196
 5681TIP3    H217008   0.123   3.163   5.296
 5682TIP3   OH217009   5.297   6.688   2.578
 5682TIP3    H117010   5.257   6.641   2.506
 5682TIP3    H217011   5.228   6.745   2.611
 5683TIP3   OH217012   1.265   3.260   5.202
 5683TIP3    H117013   1.284   3.259   5.108
 5683TIP3    H217014   1.329   3.200   5.241
 5684TIP3   OH217015   4.828   4.329   2.326
 5684TIP3    H117016   4.878   4.339   2.246
 5684TIP3    H217017   4.888   4.356   2.396
 5685TIP3   OH217018   5.556   1.985   2.421
 5685TIP3    H117019   5.487   1.919   2.415
 5685TIP3    H217020   5.634   1.936   2.446
 5686TIP3   OH217021   0.477   4.775   0.919
 5686TIP3    H117022   0.487   4.680   0.929
 5686TIP3    H217023   0.409   4.799   0.981
 5687TIP3   OH217024   5.124   1.961   4.526
 5687TIP3    H117025   5.045   1.950   4.580
 5687TIP3    H217026   5.115   1.894   4.458
 5688TIP3   OH217027   3.398   2.994   4.977
 5688TIP3    H117028   3.418   3.080   5.014
 5688TIP3    H217029   3.482   2.949   4.974
 5689TIP3   OH217030   3.730   6.507   3.086
 5689TIP3    H117031   3.669   6.437   3.109
 5689TIP3    H217032   3.706   6.580   3.143
 5690TIP3   OH217033   4.634   2.193   5.494
 5690TIP3    H117034   4.644   2.203   5.589
 5690TIP3    H217035   4.711   2.237   5.458
 5691TIP3   OH217036   1.048   4.971   0.363
 5691TIP3    H117037   1.089   5.012   0.439
 5691TIP3    H217038   0.965   4.937   0.396
 5692TIP3   OH217039   3.255   5.192   4.636
 5692TIP3    H117040   3.250   5.097   4.622
 5692TIP3    H217041   3.195   5.208   4.709
 5693TIP3   OH217042   1.287   5.080   4.720
 5693TIP3    H117043   1.343   5.148   4.682
 5693TIP3    H217044   1.349   5.015   4.753
 5694TIP3   OH217045   0.651   3.155   3.175
 5694TIP3    H117046   0.695   3.071   3.186
 5694TIP3    H217047   0.584   3.139   3.108
 5695TIP3   OH217048   6.348   0.970   0.802
 5695TIP3    H117049   6.318   0.912   0.872
 5695TIP3    H217050   6.270   1.017   0.774
 5696TIP3   OH217051   0.133   2.558   0.456
 5696TIP3    H117052   0.089   2.642   0.446
 5696TIP3    H217053   0.112   2.510   0.375
 5697TIP3   OH217054   4.739   3.779   1.767
 5697TIP3    H117055   4.794   3.815   1.697
 5697TIP3    H217056   4.740   3.685   1.753
 5698TIP3   OH217057   6.600   5.730   2.024
 5698TIP3    H117058   6.664   5.720   1.953
 5698TIP3    H217059   6.652   5.747   2.102
 5699TIP3   OH217060   0.206   2.733   1.312
 5699TIP3    H117061   0.279   2.793   1.324
 5699TIP3    H217062   0.217   2.667   1.380
 5700TIP3   OH217063   6.391   2.822   3.945
 5700TIP3    H117064   6.479   2.837   3.981
 5700TIP3    H217065   6.348   2.766   4.009
 5701TIP3   OH217066   2.721   6.730   4.136
 5701TIP3    H117067   2.746   6.649   4.179
 5701TIP3    H217068   2.803   6.772   4.112
 5702TIP3   OH217069   5.902   6.436   2.486
 5702TIP3    H117070   5.994   6.417   2.506
 5702TIP3    H217071   5.854   6.360   2.517
 5703TIP3   OH217072   3.989   4.939   5.264
 5703TIP3    H117073   4.027   4.997   5.199
 5703TIP3    H217074   3.986   4.853   5.221
 5704TIP3   OH217075   2.748   5.446   1.551
 5704TIP3    H117076   2.689   5.519   1.568
 5704TIP3    H217077   2.825   5.464   1.604
 5705TIP3   OH217078   4.276   0.840   0.785
 5705TIP3    H117079   4.216   0.832   0.711
 5705TIP3    H217080   4.341   0.772   0.770
 5706TIP3   OH217081   3.032   6.612   3.489
 5706TIP3    H117082   2.937   6.608   3.482
 5706TIP3    H217083   3.049   6.695   3.533
 5707TIP3   OH217084   5.257   3.080   1.615
 5707TIP3    H117085   5.181   3.139   1.619
 5707TIP3    H217086   5.328   3.135   1.582
 5708TIP3   OH217087   5.257   3.689   2.715
 5708TIP3    H117088   5.245   3.639   2.634
 5708TIP3    H217089   5.300   3.629   2.775
 5709TIP3   OH217090   5.433   3.487   3.662
 5709TIP3    H117091   5.395   3.544   3.730
 5709TIP3    H217092   5.501   3.540   3.621
 5710TIP3   OH217093   6.093   5.114   3.898
 5710TIP3    H117094   6.068   5.191   3.846
 5710TIP3    H217095   6.163   5.073   3.848
 5711TIP3   OH217096   2.851   1.974   2.554
 5711TIP3    H117097   2.777   1.922   2.522
 5711TIP3    H217098   2.836   1.983   2.648
 5712TIP3   OH217099   1.405   3.551   1.742
 5712TIP3    H117100   1.462   3.611   1.791
 5712TIP3    H217101   1.379   3.485   1.806
 5713TIP3   OH217102   2.592   1.882   2.453
 5713TIP3    H117103   2.555   1.970   2.446
 5713TIP3    H217104   2.572   1.841   2.368
 5714TIP3   OH217105   6.025   4.031   0.127
 5714TIP3    H117106   6.042   4.112   0.175
 5714TIP3    H217107   5.931   4.017   0.138
 5715TIP3   OH217108   2.935   4.635   1.171
 5715TIP3    H117109   2.841   4.651   1.176
 5715TIP3    H217110   2.952   4.573   1.242
 5716TIP3   OH217111   4.949   5.237   4.622
 5716TIP3    H117112   4.980   5.164   4.676
 5716TIP3    H217113   5.028   5.287   4.600
 5717TIP3   OH217114   1.337   5.162   2.169
 5717TIP3    H117115   1.272   5.118   2.223
 5717TIP3    H217116   1.417   5.163   2.222
 5718TIP3   OH217117   0.642   4.313   3.387
 5718TIP3    H117118   0.631   4.403   3.357
 5718TIP3    H217119   0.570   4.265   3.345
 5719TIP3   OH217120   1.264   4.524   3.203
 5719TIP3    H117121   1.317   4.513   3.282
 5719TIP3    H217122   1.179   4.552   3.234
 5720TIP3   OH217123   7.108   4.087   5.809
 5720TIP3    H117124   7.053   4.157   5.774
 5720TIP3    H217125   7.079   4.008   5.762
 5721TIP3   OH217126   5.528   4.305   4.470
 5721TIP3    H117127   5.610   4.276   4.511
 5721TIP3    H217128   5.536   4.400   4.465
 5722TIP3   OH217129   4.207   1.562   1.190
 5722TIP3    H117130   4.252   1.644   1.169
 5722TIP3    H217131   4.137   1.589   1.250
 5723TIP3   OH217132   6.078   0.240   2.677
 5723TIP3    H117133   6.125   0.323   2.672
 5723TIP3    H217134   6.142   0.177   2.710
 5724TIP3   OH217135   5.948   5.373   5.063
 5724TIP3    H117136   5.967   5.282   5.086
 5724TIP3    H217137   5.954   5.420   5.147
 5725TIP3   OH217138   6.074   6.163   5.119
 5725TIP3    H117139   6.096   6.232   5.057
 5725TIP3    H217140   6.019   6.102   5.070
 5726TIP3   OH217141   3.122   1.212   2.139
 5726TIP3    H117142   3.122   1.129   2.187
 5726TIP3    H217143   3.073   1.272   2.195
 5727TIP3   OH217144   6.350   4.196   0.073
 5727TIP3    H117145   6.405   4.185  -0.004
 5727TIP3    H217146   6.348   4.110   0.114
 5728TIP3   OH217147   0.642   3.355   0.726
 5728TIP3    H117148   0.690   3.324   0.802
 5728TIP3    H217149   0.558   3.386   0.761
 5729TIP3   OH217150   2.237   2.202   5.802
 5729TIP3    H117151   2.217   2.266   5.735
 5729TIP3    H217152   2.169   2.135   5.793
 5730TIP3   OH217153   6.574   6.202   5.381
 5730TIP3    H117154   6.511   6.146   5.336
 5730TIP3    H217155   6.528   6.285   5.394
 5731TIP3   OH217156   6.297   5.822   1.882
 5731TIP3    H117157   6.323   5.798   1.971
 5731TIP3    H217158   6.238   5.751   1.854
 5732TIP3   OH217159   2.881   6.293   0.068
 5732TIP3    H117160   2.869   6.381   0.103
 5732TIP3    H217161   2.969   6.293   0.032
 5733TIP3   OH217162   5.813   2.544   0.528
 5733TIP3    H117163   5.760   2.510   0.600
 5733TIP3    H217164   5.901   2.553   0.566
 5734TIP3   OH217165   0.208   4.346   3.802
 5734TIP3    H117166   0.297   4.363   3.833
 5734TIP3    H217167   0.209   4.372   3.710
 5735TIP3   OH217168   2.862   5.649   4.035
 5735TIP3    H117169   2.934   5.586   4.030
 5735TIP3    H217170   2.789   5.606   3.990
 5736TIP3   OH217171   4.183   1.409   0.425
 5736TIP3    H117172   4.213   1.318   0.419
 5736TIP3    H217173   4.169   1.423   0.519
 5737TIP3   OH217174   5.967   5.861   5.871
 5737TIP3    H117175   5.993   5.834   5.783
 5737TIP3    H217176   6.032   5.820   5.929
 5738TIP3   OH217177   4.850   5.265   0.380
 5738TIP3    H117178   4.937   5.303   0.397
 5738TIP3    H217179   4.832   5.285   0.289
 5739TIP3   OH217180   2.595   2.645   2.970
 5739TIP3    H117181   2.654   2.630   2.896
 5739TIP3    H217182   2.507   2.635   2.935
 5740TIP3   OH217183   3.902   1.857   4.653
 5740TIP3    H117184   3.929   1.790   4.715
 5740TIP3    H217185   3.953   1.840   4.574
 5741TIP3   OH217186   2.996   6.658   4.299
 5741TIP3    H117187   2.958   6.707   4.372
 5741TIP3    H217188   2.969   6.567   4.315
 5742TIP3   OH217189   5.988   5.206   1.389
 5742TIP3    H117190   5.943   5.133   1.431
 5742TIP3    H217191   6.081   5.192   1.410
 5743TIP3   OH217192   5.410   6.647   1.408
 5743TIP3    H117193   5.435   6.650   1.316
 5743TIP3    H217194   5.474   6.703   1.452
 5744TIP3   OH217195   1.622   3.283   3.481
 5744TIP3    H117196   1.617   3.269   3.387
 5744TIP3    H217197   1.610   3.196   3.520
 5745TIP3   OH217198   0.258   6.747   0.666
 5745TIP3    H117199   0.215   6.757   0.581
 5745TIP3    H217200   0.185   6.734   0.728
 5746TIP3   OH217201   6.527   1.281   2.875
 5746TIP3    H117202   6.494   1.279   2.965
 5746TIP3    H217203   6.559   1.193   2.858
 5747TIP3   OH217204   4.952   0.680   1.076
 5747TIP3    H117205   5.044   0.678   1.049
 5747TIP3    H217206   4.944   0.604   1.135
 5748TIP3   OH217207   3.270   4.676   0.580
 5748TIP3    H117208   3.339   4.654   0.643
 5748TIP3    H217209   3.228   4.753   0.617
 5749TIP3   OH217210   6.003   1.415   4.117
 5749TIP3    H117211   6.093   1.387   4.104
 5749TIP3    H217212   5.992   1.418   4.212
 5750TIP3   OH217213   2.576   4.902   2.899
 5750TIP3    H117214   2.563   4.807   2.896
 5750TIP3    H217215   2.656   4.913   2.950
 5751TIP3   OH217216   5.947   0.948   5.045
 5751TIP3    H117217   5.960   0.962   4.951
 5751TIP3    H217218   5.854   0.925   5.052
 5752TIP3   OH217219   3.123   3.901   1.256
 5752TIP3    H117220   3.030   3.919   1.271
 5752TIP3    H217221   3.155   3.977   1.208
 5753TIP3   OH217222   5.538   6.039   5.541
 5753TIP3    H117223   5.485   5.960   5.543
 5753TIP3    H217224   5.476   6.110   5.557
 5754TIP3   OH217225   4.638   4.570   0.261
 5754TIP3    H117226   4.590   4.621   0.196
 5754TIP3    H217227   4.570   4.532   0.317
 5755TIP3   OH217228   7.198   0.266   0.037
 5755TIP3    H117229   7.189   0.359   0.056
 5755TIP3    H217230   7.260   0.263  -0.037
 5756TIP3   OH217231   0.259   5.962   5.421
 5756TIP3    H117232   0.291   5.911   5.495
 5756TIP3    H217233   0.163   5.960   5.430
 5757TIP3   OH217234   1.409   0.044   5.115
 5757TIP3    H117235   1.455  -0.038   5.100
 5757TIP3    H217236   1.414   0.059   5.209
 5758TIP3   OH217237   2.386   1.252   3.480
 5758TIP3    H117238   2.476   1.278   3.460
 5758TIP3    H217239   2.340   1.335   3.498
 5759TIP3   OH217240   0.283   3.230   5.362
 5759TIP3    H117241   0.241   3.234   5.448
 5759TIP3    H217242   0.364   3.280   5.372
 5760TIP3   OH217243   3.178   5.295   3.317
 5760TIP3    H117244   3.154   5.208   3.285
 5760TIP3    H217245   3.243   5.279   3.385
 5761TIP3   OH217246   6.059   5.457   5.577
 5761TIP3    H117247   6.143   5.422   5.546
 5761TIP3    H217248   6.002   5.381   5.585
 5762TIP3   OH217249   0.855   0.677   2.644
 5762TIP3    H117250   0.911   0.625   2.702
 5762TIP3    H217251   0.901   0.679   2.561
 5763TIP3   OH217252   1.022   5.208   5.094
 5763TIP3    H117253   1.010   5.216   5.000
 5763TIP3    H217254   0.989   5.290   5.130
 5764TIP3   OH217255   3.402   6.271   5.439
 5764TIP3    H117256   3.411   6.365   5.455
 5764TIP3    H217257   3.382   6.265   5.346
 5765TIP3   OH217258   3.031   6.640   0.171
 5765TIP3    H117259   3.048   6.724   0.127
 5765TIP3    H217260   2.954   6.605   0.126
 5766TIP3   OH217261   4.256   3.928   4.189
 5766TIP3    H117262   4.311   3.850   4.193
 5766TIP3    H217263   4.178   3.899   4.141
 5767TIP3   OH217264   0.188   3.831   4.606
 5767TIP3    H117265   0.134   3.860   4.680
 5767TIP3    H217266   0.272   3.808   4.645
 5768TIP3   OH217267   5.815   0.210   4.645
 5768TIP3    H117268   5.869   0.278   4.604
 5768TIP3    H217269   5.744   0.196   4.582
 5769TIP3   OH217270   2.647   1.272   0.079
 5769TIP3    H117271   2.571   1.329   0.086
 5769TIP3    H217272   2.623   1.194   0.128
 5770TIP3   OH217273   3.478   0.913   0.354
 5770TIP3    H117274   3.426   0.896   0.433
 5770TIP3    H217275   3.558   0.862   0.366
 5771TIP3   OH217276   6.880   4.224   5.039
 5771TIP3    H117277   6.825   4.258   4.968
 5771TIP3    H217278   6.818   4.203   5.109
 5772TIP3   OH217279   2.425   6.536   4.958
 5772TIP3    H117280   2.348   6.589   4.976
 5772TIP3    H217281   2.403   6.449   4.990
 5773TIP3   OH217282   5.694   3.590   4.183
 5773TIP3    H117283   5.696   3.681   4.155
 5773TIP3    H217284   5.602   3.573   4.202
 5774TIP3   OH217285   6.049   3.572   3.238
 5774TIP3    H117286   6.059   3.485   3.278
 5774TIP3    H217287   6.128   3.583   3.185
 5775TIP3   OH217288   2.595   6.725   2.774
 5775TIP3    H117289   2.561   6.809   2.803
 5775TIP3    H217290   2.520   6.666   2.777
 5776TIP3   OH217291   4.514   2.172   0.259
 5776TIP3    H117292   4.432   2.158   0.211
 5776TIP3    H217293   4.489   2.163   0.351
 5777TIP3   OH217294   3.472   1.253   5.538
 5777TIP3    H117295   3.521   1.220   5.614
 5777TIP3    H217296   3.516   1.213   5.462
 5778TIP3   OH217297   2.792   2.629  -0.012
 5778TIP3    H117298   2.772   2.674   0.070
 5778TIP3    H217299   2.848   2.555   0.014
 5779TIP3   OH217300   5.178   0.569   0.920
 5779TIP3    H117301   5.112   0.577   0.851
 5779TIP3    H217302   5.252   0.524   0.878
 5780TIP3   OH217303   2.146   4.112   0.133
 5780TIP3    H117304   2.089   4.185   0.108
 5780TIP3    H217305   2.086   4.045   0.165
 5781TIP3   OH217306   0.294   0.865   5.657
 5781TIP3    H117307   0.220   0.823   5.612
 5781TIP3    H217308   0.358   0.881   5.587
 5782TIP3   OH217309   1.036   0.851   5.153
 5782TIP3    H117310   0.944   0.872   5.166
 5782TIP3    H217311   1.083   0.925   5.192
 5783TIP3   OH217312   6.597   2.794   5.655
 5783TIP3    H117313   6.531   2.730   5.628
 5783TIP3    H217314   6.612   2.775   5.747
 5784TIP3   OH217315   1.066   4.833   2.472
 5784TIP3    H117316   1.079   4.852   2.565
 5784TIP3    H217317   1.090   4.741   2.463
 5785TIP3   OH217318   3.057   3.814   0.525
 5785TIP3    H117319   2.984   3.780   0.472
 5785TIP3    H217320   3.014   3.850   0.603
 5786TIP3   OH217321   3.436   3.750   2.822
 5786TIP3    H117322   3.384   3.813   2.772
 5786TIP3    H217323   3.451   3.677   2.762
 5787TIP3   OH217324   0.882   3.329   0.201
 5787TIP3    H117325   0.816   3.333   0.270
 5787TIP3    H217326   0.865   3.408   0.148
 5788TIP3   OH217327   0.416   4.204   4.852
 5788TIP3    H117328   0.471   4.249   4.789
 5788TIP3    H217329   0.470   4.197   4.931
 5789TIP3   OH217330   2.605   1.984   4.257
 5789TIP3    H117331   2.532   2.028   4.301
 5789TIP3    H217332   2.648   2.053   4.207
 5790TIP3   OH217333   3.395   0.069   1.119
 5790TIP3    H117334   3.394   0.009   1.194
 5790TIP3    H217335   3.443   0.023   1.051
 5791TIP3   OH217336   5.313   2.330   4.893
 5791TIP3    H117337   5.409   2.331   4.894
 5791TIP3    H217338   5.288   2.332   4.985
 5792TIP3   OH217339   1.224   0.020   4.522
 5792TIP3    H117340   1.243   0.069   4.442
 5792TIP3    H217341   1.142   0.057   4.554
 5793TIP3   OH217342   5.925   5.223   4.296
 5793TIP3    H117343   5.877   5.265   4.368
 5793TIP3    H217344   5.895   5.268   4.217
 5794TIP3   OH217345   1.638   4.330   4.195
 5794TIP3    H117346   1.704   4.315   4.263
 5794TIP3    H217347   1.565   4.372   4.241
 5795TIP3   OH217348   5.011   5.281   1.643
 5795TIP3    H117349   5.006   5.191   1.611
 5795TIP3    H217350   5.033   5.332   1.565
 5796TIP3   OH217351   3.314   1.245   5.084
 5796TIP3    H117352   3.233   1.216   5.043
 5796TIP3    H217353   3.379   1.243   5.014
 5797TIP3   OH217354   4.449   4.924   4.755
 5797TIP3    H117355   4.358   4.951   4.763
 5797TIP3    H217356   4.485   4.981   4.687
 5798TIP3   OH217357   0.296   0.562   5.502
 5798TIP3    H117358   0.245   0.524   5.573
 5798TIP3    H217359   0.230   0.607   5.447
 5799TIP3   OH217360   0.763   0.257   5.300
 5799TIP3    H117361   0.847   0.301   5.292
 5799TIP3    H217362   0.777   0.169   5.266
 5800TIP3   OH217363   0.992   5.317   3.956
 5800TIP3    H117364   1.027   5.237   3.994
 5800TIP3    H217365   0.912   5.289   3.910
 5801TIP3   OH217366   0.302   1.031   3.794
 5801TIP3    H117367   0.340   1.080   3.867
 5801TIP3    H217368   0.375   1.018   3.734
 5802TIP3   OH217369   2.278   6.380   0.254
 5802TIP3    H117370   2.256   6.353   0.165
 5802TIP3    H217371   2.229   6.319   0.311
 5803TIP3   OH217372   6.613   0.616   1.830
 5803TIP3    H117373   6.537   0.561   1.850
 5803TIP3    H217374   6.627   0.604   1.737
 5804TIP3   OH217375   3.932   0.511   4.515
 5804TIP3    H117376   3.901   0.423   4.535
 5804TIP3    H217377   4.023   0.511   4.546
 5805TIP3   OH217378   5.790   0.254   2.737
 5805TIP3    H117379   5.883   0.244   2.717
 5805TIP3    H217380   5.752   0.169   2.716
 5806TIP3   OH217381   1.960   5.543   5.408
 5806TIP3    H117382   1.921   5.457   5.422
 5806TIP3    H217383   1.895   5.590   5.356
 5807TIP3   OH217384   0.863   4.968   3.853
 5807TIP3    H117385   0.921   4.925   3.790
 5807TIP3    H217386   0.856   4.906   3.925
 5808TIP3   OH217387   7.044   4.873   3.256
 5808TIP3    H117388   7.106   4.939   3.226
 5808TIP3    H217389   7.091   4.824   3.323
 5809TIP3   OH217390   2.196   0.004   0.115
 5809TIP3    H117391   2.247   0.086   0.121
 5809TIP3    H217392   2.130   0.012   0.183
 5810TIP3   OH217393   5.903   1.368   0.670
 5810TIP3    H117394   5.814   1.369   0.705
 5810TIP3    H217395   5.910   1.284   0.624
 5811TIP3   OH217396   6.419   2.951   5.467
 5811TIP3    H117397   6.490   2.932   5.528
 5811TIP3    H217398   6.367   2.871   5.465
 5812TIP3   OH217399   1.217   5.422   0.778
 5812TIP3    H117400   1.179   5.495   0.728
 5812TIP3    H217401   1.305   5.412   0.742
 5813TIP3   OH217402   2.179   3.257   2.949
 5813TIP3    H117403   2.203   3.209   2.870
 5813TIP3    H217404   2.262   3.278   2.991
 5814TIP3   OH217405   6.183   4.384   2.606
 5814TIP3    H117406   6.149   4.460   2.559
 5814TIP3    H217407   6.130   4.380   2.686
 5815TIP3   OH217408   3.414   6.263   0.985
 5815TIP3    H117409   3.378   6.181   1.017
 5815TIP3    H217410   3.509   6.253   0.993
 5816TIP3   OH217411   5.028   0.290   2.632
 5816TIP3    H117412   4.983   0.239   2.564
 5816TIP3    H217413   4.979   0.270   2.712
 5817TIP3   OH217414   0.352   1.710   1.533
 5817TIP3    H117415   0.256   1.705   1.535
 5817TIP3    H217416   0.377   1.657   1.458
 5818TIP3   OH217417   4.074   1.670   0.385
 5818TIP3    H117418   4.143   1.612   0.418
 5818TIP3    H217419   4.070   1.742   0.448
 5819TIP3   OH217420   3.600   1.528   2.790
 5819TIP3    H117421   3.566   1.543   2.702
 5819TIP3    H217422   3.652   1.448   2.783
 5820TIP3   OH217423   4.877   0.573   5.127
 5820TIP3    H117424   4.969   0.579   5.150
 5820TIP3    H217425   4.854   0.481   5.141
 5821TIP3   OH217426   5.466   2.248   3.805
 5821TIP3    H117427   5.448   2.203   3.887
 5821TIP3    H217428   5.380   2.274   3.773
 5822TIP3   OH217429   6.352   0.676   1.486
 5822TIP3    H117430   6.311   0.590   1.487
 5822TIP3    H217431   6.288   0.733   1.530
 5823TIP3   OH217432   1.512   5.035   4.047
 5823TIP3    H117433   1.475   5.105   4.101
 5823TIP3    H217434   1.489   4.954   4.093
 5824TIP3   OH217435   5.903   3.136   3.782
 5824TIP3    H117436   5.979   3.137   3.725
 5824TIP3    H217437   5.937   3.163   3.868
 5825TIP3   OH217438   4.683   0.079   2.377
 5825TIP3    H117439   4.629   0.022   2.431
 5825TIP3    H217440   4.673   0.045   2.288
 5826TIP3   OH217441   2.397   1.773   4.204
 5826TIP3    H117442   2.415   1.788   4.111
 5826TIP3    H217443   2.483   1.760   4.244
 5827TIP3   OH217444   3.170   0.633   1.563
 5827TIP3    H117445   3.124   0.683   1.496
 5827TIP3    H217446   3.100   0.595   1.616
 5828TIP3   OH217447   3.584   3.625   2.605
 5828TIP3    H117448   3.504   3.646   2.557
 5828TIP3    H217449   3.651   3.681   2.564
 5829TIP3   OH217450   4.740   4.477   4.478
 5829TIP3    H117451   4.816   4.527   4.448
 5829TIP3    H217452   4.672   4.543   4.493
 5830TIP3   OH217453   1.950   2.572   3.783
 5830TIP3    H117454   1.886   2.514   3.823
 5830TIP3    H217455   2.031   2.521   3.781
 5831TIP3   OH217456   0.473   3.566   0.819
 5831TIP3    H117457   0.538   3.565   0.890
 5831TIP3    H217458   0.393   3.599   0.860
 5832TIP3   OH217459   0.187   5.109   2.993
 5832TIP3    H117460   0.264   5.149   2.953
 5832TIP3    H217461   0.118   5.174   2.984
 5833TIP3   OH217462   1.391   2.148   5.768
 5833TIP3    H117463   1.412   2.056   5.752
 5833TIP3    H217464   1.452   2.175   5.837
 5834TIP3   OH217465   3.539   0.706   4.846
 5834TIP3    H117466   3.548   0.705   4.941
 5834TIP3    H217467   3.548   0.799   4.822
 5835TIP3   OH217468   6.572   2.350   4.028
 5835TIP3    H117469   6.516   2.352   4.105
 5835TIP3    H217470   6.560   2.436   3.987
 5836TIP3   OH217471   0.695   3.153   0.970
 5836TIP3    H117472   0.742   3.134   0.889
 5836TIP3    H217473   0.764   3.181   1.031
 5837TIP3   OH217474   6.446   1.720   3.631
 5837TIP3    H117475   6.515   1.719   3.565
 5837TIP3    H217476   6.429   1.628   3.650
 5838TIP3   OH217477   3.101   4.800   4.087
 5838TIP3    H117478   3.096   4.823   4.180
 5838TIP3    H217479   3.015   4.764   4.066
 5839TIP3   OH217480   0.835   3.891   4.330
 5839TIP3    H117481   0.869   3.976   4.361
 5839TIP3    H217482   0.787   3.913   4.250
 5840TIP3   OH217483   5.844   3.132   0.087
 5840TIP3    H117484   5.874   3.043   0.106
 5840TIP3    H217485   5.800   3.125   0.002
 5841TIP3   OH217486   2.797   0.761   3.074
 5841TIP3    H117487   2.702   0.747   3.072
 5841TIP3    H217488   2.807   0.854   3.090
 5842TIP3   OH217489   6.378   0.410  -0.001
 5842TIP3    H117490   6.460   0.370   0.028
 5842TIP3    H217491   6.352   0.358  -0.078
 5843TIP3   OH217492   5.855   3.046   1.456
 5843TIP3    H117493   5.792   3.080   1.520
 5843TIP3    H217494   5.848   2.951   1.465
 5844TIP3   OH217495   3.697   4.330   5.285
 5844TIP3    H117496   3.663   4.402   5.338
 5844TIP3    H217497   3.686   4.359   5.195
 5845TIP3   OH217498   5.636   5.785   5.150
 5845TIP3    H117499   5.560   5.736   5.182
 5845TIP3    H217500   5.632   5.775   5.055
 5846TIP3   OH217501   4.737   4.871   2.596
 5846TIP3    H117502   4.714   4.874   2.504
 5846TIP3    H217503   4.818   4.923   2.602
 5847TIP3   OH217504   6.074   2.032   5.810
 5847TIP3    H117505   5.987   2.047   5.775
 5847TIP3    H217506   6.060   2.016   5.904
 5848TIP3   OH217507   5.898   1.500   3.085
 5848TIP3    H117508   5.840   1.533   3.153
 5848TIP3    H217509   5.986   1.506   3.121
 5849TIP3   OH217510   0.403   3.952   0.217
 5849TIP3    H117511   0.362   4.031   0.252
 5849TIP3    H217512   0.347   3.926   0.144
 5850TIP3   OH217513   6.538   4.353   5.010
 5850TIP3    H117514   6.615   4.329   4.958
 5850TIP3    H217515   6.464   4.313   4.964
 5851TIP3   OH217516   3.268   3.602   0.902
 5851TIP3    H117517   3.301   3.651   0.827
 5851TIP3    H217518   3.275   3.510   0.875
 5852TIP3   OH217519   1.438   6.579   2.521
 5852TIP3    H117520   1.384   6.657   2.536
 5852TIP3    H217521   1.516   6.612   2.476
 5853TIP3   OH217522   2.887   4.167   5.733
 5853TIP3    H117523   2.858   4.166   5.824
 5853TIP3    H217524   2.807   4.165   5.682
 5854TIP3   OH217525   3.517   1.151   5.264
 5854TIP3    H117526   3.575   1.214   5.221
 5854TIP3    H217527   3.447   1.136   5.200
 5855TIP3   OH217528   3.802   0.297   1.539
 5855TIP3    H117529   3.829   0.287   1.448
 5855TIP3    H217530   3.714   0.260   1.543
 5856TIP3   OH217531   1.058   6.650   4.528
 5856TIP3    H117532   0.975   6.621   4.565
 5856TIP3    H217533   1.035   6.685   4.442
 5857TIP3   OH217534   3.752   1.620   3.131
 5857TIP3    H117535   3.833   1.599   3.177
 5857TIP3    H217536   3.697   1.662   3.197
 5858TIP3   OH217537   6.588   4.021   0.031
 5858TIP3    H117538   6.660   3.973   0.074
 5858TIP3    H217539   6.518   3.957   0.024
 5859TIP3   OH217540   1.600   0.094   3.541
 5859TIP3    H117541   1.691   0.065   3.536
 5859TIP3    H217542   1.554   0.021   3.582
 5860TIP3   OH217543   3.976   1.803   4.135
 5860TIP3    H117544   4.040   1.870   4.110
 5860TIP3    H217545   4.011   1.722   4.097
 5861TIP3   OH217546   4.395   4.175   4.180
 5861TIP3    H117547   4.371   4.084   4.196
 5861TIP3    H217548   4.349   4.199   4.100
 5862TIP3   OH217549   4.859   1.250   1.909
 5862TIP3    H117550   4.953   1.249   1.927
 5862TIP3    H217551   4.820   1.295   1.984
 5863TIP3   OH217552   1.145   3.503   1.630
 5863TIP3    H117553   1.238   3.521   1.641
 5863TIP3    H217554   1.110   3.498   1.719
 5864TIP3   OH217555   5.464   2.885   4.940
 5864TIP3    H117556   5.508   2.853   4.861
 5864TIP3    H217557   5.506   2.968   4.960
 5865TIP3   OH217558   0.100   0.760  -0.040
 5865TIP3    H117559   0.137   0.767   0.049
 5865TIP3    H217560   0.007   0.778  -0.028
 5866TIP3   OH217561   6.903   4.312   5.358
 5866TIP3    H117562   6.876   4.404   5.365
 5866TIP3    H217563   6.829   4.269   5.314
 5867TIP3   OH217564   3.197   5.399   2.405
 5867TIP3    H117565   3.272   5.428   2.353
 5867TIP3    H217566   3.142   5.477   2.413
 5868TIP3   OH217567   6.666   4.593   2.137
 5868TIP3    H117568   6.699   4.654   2.203
 5868TIP3    H217569   6.664   4.644   2.056
 5869TIP3   OH217570   6.419   3.825   4.141
 5869TIP3    H117571   6.325   3.815   4.152
 5869TIP3    H217572   6.429   3.898   4.080
 5870TIP3   OH217573   2.108   6.160   2.532
 5870TIP3    H117574   2.064   6.079   2.505
 5870TIP3    H217575   2.053   6.230   2.497
 5871TIP3   OH217576   3.825   4.360   1.394
 5871TIP3    H117577   3.897   4.403   1.348
 5871TIP3    H217578   3.748   4.412   1.372
 5872TIP3   OH217579   5.988   1.136   2.535
 5872TIP3    H117580   6.051   1.196   2.573
 5872TIP3    H217581   6.041   1.069   2.491
 5873TIP3   OH217582   2.067   4.197   5.053
 5873TIP3    H117583   2.121   4.274   5.036
 5873TIP3    H217584   2.005   4.225   5.121
 5874TIP3   OH217585   0.607   1.448   0.659
 5874TIP3    H117586   0.620   1.515   0.592
 5874TIP3    H217587   0.519   1.414   0.644
 5875TIP3   OH217588   2.581   2.731   0.547
 5875TIP3    H117589   2.541   2.670   0.486
 5875TIP3    H217590   2.667   2.693   0.567
 5876TIP3   OH217591   5.776   1.834   2.511
 5876TIP3    H117592   5.871   1.827   2.519
 5876TIP3    H217593   5.742   1.799   2.593
 5877TIP3   OH217594   1.476   5.774   0.437
 5877TIP3    H117595   1.400   5.798   0.384
 5877TIP3    H217596   1.441   5.760   0.525
 5878TIP3   OH217597   6.035   3.506   0.764
 5878TIP3    H117598   5.978   3.516   0.840
 5878TIP3    H217599   5.979   3.529   0.689
 5879TIP3   OH217600   0.869   1.372   4.047
 5879TIP3    H117601   0.923   1.315   3.992
 5879TIP3    H217602   0.932   1.422   4.099
 5880TIP3   OH217603   0.813   5.425   4.753
 5880TIP3    H117604   0.831   5.504   4.804
 5880TIP3    H217605   0.899   5.392   4.728
 5881TIP3   OH217606   2.726   3.996   0.141
 5881TIP3    H117607   2.657   4.005   0.075
 5881TIP3    H217608   2.726   3.903   0.162
 5882TIP3   OH217609   4.816   6.084   1.619
 5882TIP3    H117610   4.777   6.171   1.623
 5882TIP3    H217611   4.891   6.093   1.561
 5883TIP3   OH217612   2.224   4.849   2.832
 5883TIP3    H117613   2.245   4.796   2.755
 5883TIP3    H217614   2.212   4.937   2.797
 5884TIP3   OH217615   3.934   4.257   2.036
 5884TIP3    H117616   4.011   4.244   2.091
 5884TIP3    H217617   3.967   4.299   1.956
 5885TIP3   OH217618   1.361   5.233   3.020
 5885TIP3    H117619   1.427   5.164   3.029
 5885TIP3    H217620   1.315   5.234   3.104
 5886TIP3   OH217621   0.616   5.380   0.937
 5886TIP3    H117622   0.532   5.362   0.980
 5886TIP3    H217623   0.624   5.312   0.870
 5887TIP3   OH217624   2.728   3.864   4.293
 5887TIP3    H117625   2.652   3.881   4.348
 5887TIP3    H217626   2.733   3.940   4.235
 5888TIP3   OH217627   1.734   3.954   3.695
 5888TIP3    H117628   1.662   3.965   3.633
 5888TIP3    H217629   1.813   3.967   3.643
 5889TIP3   OH217630   6.955   2.685   3.718
 5889TIP3    H117631   6.896   2.756   3.742
 5889TIP3    H217632   7.043   2.722   3.730
 5890TIP3   OH217633   1.405   6.019   4.487
 5890TIP3    H117634   1.496   6.047   4.496
 5890TIP3    H217635   1.410   5.932   4.449
 5891TIP3   OH217636   4.459   0.944   1.955
 5891TIP3    H117637   4.387   0.899   1.999
 5891TIP3    H217638   4.536   0.891   1.976
 5892TIP3   OH217639   0.709   1.205   0.445
 5892TIP3    H117640   0.674   1.232   0.359
 5892TIP3    H217641   0.689   1.278   0.503
 5893TIP3   OH217642   6.861   5.436   3.063
 5893TIP3    H117643   6.795   5.504   3.076
 5893TIP3    H217644   6.945   5.482   3.068
 5894TIP3   OH217645   0.380   2.374   4.957
 5894TIP3    H117646   0.467   2.405   4.932
 5894TIP3    H217647   0.322   2.408   4.889
 5895TIP3   OH217648   1.142   4.653   1.186
 5895TIP3    H117649   1.152   4.570   1.140
 5895TIP3    H217650   1.220   4.703   1.162
 5896TIP3   OH217651   4.717   5.002   3.664
 5896TIP3    H117652   4.675   5.004   3.750
 5896TIP3    H217653   4.806   5.033   3.679
 5897TIP3   OH217654   0.172   5.686   2.409
 5897TIP3    H117655   0.229   5.614   2.437
 5897TIP3    H217656   0.105   5.643   2.356
 5898TIP3   OH217657   0.161   6.300   0.971
 5898TIP3    H117658   0.178   6.382   1.017
 5898TIP3    H217659   0.065   6.291   0.973
 5899TIP3   OH217660   3.051   3.209   0.523
 5899TIP3    H117661   3.077   3.298   0.498
 5899TIP3    H217662   3.007   3.219   0.607
 5900TIP3   OH217663   1.673   4.475   0.969
 5900TIP3    H117664   1.599   4.473   1.030
 5900TIP3    H217665   1.635   4.449   0.885
 5901TIP3   OH217666   2.873   5.715   1.842
 5901TIP3    H117667   2.879   5.784   1.776
 5901TIP3    H217668   2.936   5.649   1.813
 5902TIP3   OH217669   2.463   0.339   1.053
 5902TIP3    H117670   2.471   0.248   1.082
 5902TIP3    H217671   2.532   0.385   1.101
 5903TIP3   OH217672   5.682   2.697   2.296
 5903TIP3    H117673   5.623   2.742   2.357
 5903TIP3    H217674   5.641   2.611   2.283
 5904TIP3   OH217675   5.074   3.938   1.399
 5904TIP3    H117676   5.154   3.990   1.412
 5904TIP3    H217677   5.041   3.968   1.314
 5905TIP3   OH217678   4.330   4.260   4.864
 5905TIP3    H117679   4.333   4.354   4.884
 5905TIP3    H217680   4.392   4.248   4.793
 5906TIP3   OH217681   5.817   1.532   2.535
 5906TIP3    H117682   5.806   1.545   2.629
 5906TIP3    H217683   5.908   1.556   2.518
 5907TIP3   OH217684   1.467   0.081   0.759
 5907TIP3    H117685   1.395   0.048   0.813
 5907TIP3    H217686   1.431   0.087   0.671
 5908TIP3   OH217687   3.655   2.950   1.639
 5908TIP3    H117688   3.569   2.991   1.638
 5908TIP3    H217689   3.717   3.022   1.630
 5909TIP3   OH217690   4.853   3.168   0.508
 5909TIP3    H117691   4.803   3.223   0.568
 5909TIP3    H217692   4.842   3.079   0.541
 5910TIP3   OH217693   3.630   5.467   1.846
 5910TIP3    H117694   3.578   5.485   1.768
 5910TIP3    H217695   3.720   5.470   1.816
 5911TIP3   OH217696   3.343   5.515   1.933
 5911TIP3    H117697   3.345   5.553   1.845
 5911TIP3    H217698   3.432   5.481   1.946
 5912TIP3   OH217699   6.499   4.588   4.816
 5912TIP3    H117700   6.467   4.545   4.895
 5912TIP3    H217701   6.578   4.539   4.792
 5913TIP3   OH217702   5.956   3.411   3.695
 5913TIP3    H117703   6.026   3.378   3.750
 5913TIP3    H217704   5.995   3.419   3.608
 5914TIP3   OH217705   6.865   1.227   3.501
 5914TIP3    H117706   6.896   1.137   3.512
 5914TIP3    H217707   6.864   1.262   3.590
 5915TIP3   OH217708   1.800   6.016   5.464
 5915TIP3    H117709   1.737   6.020   5.392
 5915TIP3    H217710   1.801   6.104   5.500
 5916TIP3   OH217711   2.284   5.715   4.580
 5916TIP3    H117712   2.373   5.684   4.593
 5916TIP3    H217713   2.253   5.739   4.667
 5917TIP3   OH217714   1.643   5.243   4.695
 5917TIP3    H117715   1.729   5.281   4.711
 5917TIP3    H217716   1.650   5.154   4.730
 5918TIP3   OH217717   5.168   5.513   1.821
 5918TIP3    H117718   5.129   5.588   1.866
 5918TIP3    H217719   5.186   5.449   1.891
 5919TIP3   OH217720   1.438   3.400   2.150
 5919TIP3    H117721   1.496   3.357   2.213
 5919TIP3    H217722   1.439   3.492   2.176
 5920TIP3   OH217723   6.308   1.503   2.161
 5920TIP3    H117724   6.338   1.453   2.085
 5920TIP3    H217725   6.243   1.564   2.125
 5921TIP3   OH217726   0.275   2.297   0.222
 5921TIP3    H117727   0.193   2.347   0.222
 5921TIP3    H217728   0.329   2.339   0.289
 5922TIP3   OH217729   4.321   4.973   3.236
 5922TIP3    H117730   4.358   4.886   3.225
 5922TIP3    H217731   4.379   5.016   3.299
 5923TIP3   OH217732   4.797   6.274   4.377
 5923TIP3    H117733   4.876   6.251   4.425
 5923TIP3    H217734   4.806   6.231   4.292
 5924TIP3   OH217735   2.752   0.246   5.083
 5924TIP3    H117736   2.747   0.320   5.144
 5924TIP3    H217737   2.839   0.254   5.043
 5925TIP3   OH217738   2.736   2.519   2.304
 5925TIP3    H117739   2.681   2.485   2.234
 5925TIP3    H217740   2.702   2.608   2.320
 5926TIP3   OH217741   6.130   2.968   5.621
 5926TIP3    H117742   6.053   2.917   5.648
 5926TIP3    H217743   6.203   2.906   5.630
 5927TIP3   OH217744   4.951   5.005   3.269
 5927TIP3    H117745   4.882   5.027   3.207
 5927TIP3    H217746   4.991   4.925   3.234
 5928TIP3   OH217747   4.748   1.116   2.466
 5928TIP3    H117748   4.797   1.153   2.539
 5928TIP3    H217749   4.657   1.138   2.483
 5929TIP3   OH217750   3.723   6.296   5.219
 5929TIP3    H117751   3.692   6.368   5.274
 5929TIP3    H217752   3.649   6.277   5.161
 5930TIP3   OH217753   6.252   1.745   4.809
 5930TIP3    H117754   6.247   1.650   4.798
 5930TIP3    H217755   6.334   1.770   4.764
 5931TIP3   OH217756   5.773   5.372   1.671
 5931TIP3    H117757   5.807   5.298   1.622
 5931TIP3    H217758   5.681   5.378   1.646
 5932TIP3   OH217759   5.783   4.809   1.887
 5932TIP3    H117760   5.709   4.850   1.932
 5932TIP3    H217761   5.742   4.750   1.824
 5933TIP3   OH217762   0.901   1.985   1.847
 5933TIP3    H117763   0.834   2.021   1.789
 5933TIP3    H217764   0.984   2.016   1.811
 5934TIP3   OH217765   0.428   1.499   3.194
 5934TIP3    H117766   0.447   1.455   3.110
 5934TIP3    H217767   0.356   1.448   3.231
 5935TIP3   OH217768   3.855   2.073   4.392
 5935TIP3    H117769   3.803   2.025   4.327
 5935TIP3    H217770   3.920   2.120   4.340
 5936TIP3   OH217771   2.595   3.013   0.469
 5936TIP3    H117772   2.589   2.920   0.491
 5936TIP3    H217773   2.676   3.021   0.418
 5937TIP3   OH217774   5.179   5.974   4.255
 5937TIP3    H117775   5.160   5.883   4.278
 5937TIP3    H217776   5.134   5.987   4.172
 5938TIP3   OH217777   0.131   1.986   2.639
 5938TIP3    H117778   0.219   1.986   2.678
 5938TIP3    H217779   0.103   2.077   2.641
 5939TIP3   OH217780   3.911   0.593   2.876
 5939TIP3    H117781   3.889   0.507   2.840
 5939TIP3    H217782   4.003   0.586   2.901
 5940TIP3   OH217783   5.084   5.230   0.130
 5940TIP3    H117784   5.062   5.143   0.164
 5940TIP3    H217785   5.142   5.212   0.056
 5941TIP3   OH217786   1.691   5.815   0.224
 5941TIP3    H117787   1.629   5.832   0.295
 5941TIP3    H217788   1.749   5.748   0.258
 5942TIP3   OH217789   1.799   0.887   1.929
 5942TIP3    H117790   1.834   0.810   1.883
 5942TIP3    H217791   1.721   0.854   1.973
 5943TIP3   OH217792   5.958   2.759   1.654
 5943TIP3    H117793   6.035   2.711   1.620
 5943TIP3    H217794   5.885   2.698   1.642
 5944TIP3   OH217795   4.145   0.925   1.227
 5944TIP3    H117796   4.233   0.962   1.230
 5944TIP3    H217797   4.090   0.990   1.269
 5945TIP3   OH217798   0.301   4.983   3.618
 5945TIP3    H117799   0.386   5.017   3.591
 5945TIP3    H217800   0.286   4.907   3.561
 5946TIP3   OH217801   4.135   2.486   5.507
 5946TIP3    H117802   4.072   2.433   5.555
 5946TIP3    H217803   4.118   2.466   5.414
 5947TIP3   OH217804   2.070   5.836   3.470
 5947TIP3    H117805   2.085   5.930   3.477
 5947TIP3    H217806   1.998   5.829   3.407
 5948TIP3   OH217807   0.665   4.303   3.875
 5948TIP3    H117808   0.630   4.263   3.955
 5948TIP3    H217809   0.642   4.241   3.806
 5949TIP3   OH217810   0.363   3.734   0.377
 5949TIP3    H117811   0.383   3.808   0.320
 5949TIP3    H217812   0.291   3.689   0.334
 5950TIP3   OH217813   6.249   6.420   2.076
 5950TIP3    H117814   6.336   6.425   2.036
 5950TIP3    H217815   6.254   6.479   2.151
 5951TIP3   OH217816   4.274   6.510   3.039
 5951TIP3    H117817   4.224   6.428   3.033
 5951TIP3    H217818   4.342   6.493   3.104
 5952TIP3   OH217819   6.005   3.914   3.296
 5952TIP3    H117820   6.089   3.889   3.256
 5952TIP3    H217821   5.939   3.865   3.247
 5953TIP3   OH217822   4.869   2.981   3.807
 5953TIP3    H117823   4.849   2.897   3.848
 5953TIP3    H217824   4.941   3.016   3.858
 5954TIP3   OH217825   4.917   4.240   4.522
 5954TIP3    H117826   4.854   4.305   4.493
 5954TIP3    H217827   4.953   4.276   4.603
 5955TIP3   OH217828   4.551   2.382   4.965
 5955TIP3    H117829   4.587   2.458   5.010
 5955TIP3    H217830   4.549   2.314   5.032
 5956TIP3   OH217831   1.960   2.010   5.397
 5956TIP3    H117832   1.926   2.037   5.482
 5956TIP3    H217833   1.939   1.917   5.391
 5957TIP3   OH217834   5.944   4.878   0.634
 5957TIP3    H117835   5.977   4.950   0.581
 5957TIP3    H217836   6.014   4.813   0.634
 5958TIP3   OH217837   1.577   1.440   1.195
 5958TIP3    H117838   1.564   1.420   1.288
 5958TIP3    H217839   1.506   1.392   1.151
 5959TIP3   OH217840   0.801   3.834   1.016
 5959TIP3    H117841   0.792   3.929   1.018
 5959TIP3    H217842   0.833   3.814   0.928
 5960TIP3   OH217843   2.688   4.910   3.325
 5960TIP3    H117844   2.764   4.895   3.268
 5960TIP3    H217845   2.622   4.948   3.268
 5961TIP3   OH217846   0.866   0.847   4.476
 5961TIP3    H117847   0.784   0.810   4.509
 5961TIP3    H217848   0.904   0.892   4.552
 5962TIP3   OH217849   4.810   6.018   3.860
 5962TIP3    H117850   4.744   6.044   3.924
 5962TIP3    H217851   4.760   5.985   3.786
 5963TIP3   OH217852   2.127   2.480   2.566
 5963TIP3    H117853   2.073   2.445   2.636
 5963TIP3    H217854   2.069   2.538   2.517
 5964TIP3   OH217855   2.454   2.107   0.971
 5964TIP3    H117856   2.362   2.122   0.948
 5964TIP3    H217857   2.500   2.183   0.935
 5965TIP3   OH217858   3.309   2.899   1.059
 5965TIP3    H117859   3.275   2.953   0.986
 5965TIP3    H217860   3.396   2.872   1.030
 5966TIP3   OH217861   1.317   6.286   2.708
 5966TIP3    H117862   1.348   6.265   2.621
 5966TIP3    H217863   1.384   6.253   2.767
 5967TIP3   OH217864   5.005   3.435   1.546
 5967TIP3    H117865   5.053   3.446   1.463
 5967TIP3    H217866   5.040   3.355   1.583
 5968TIP3   OH217867   2.004   6.158   3.515
 5968TIP3    H117868   2.082   6.157   3.460
 5968TIP3    H217869   2.024   6.219   3.585
 5969TIP3   OH217870   1.912   6.096   3.978
 5969TIP3    H117871   1.955   6.158   4.037
 5969TIP3    H217872   1.968   6.019   3.980
 5970TIP3   OH217873   4.522   2.973   3.890
 5970TIP3    H117874   4.559   3.044   3.943
 5970TIP3    H217875   4.599   2.924   3.861
 5971TIP3   OH217876   1.721   0.932   4.331
 5971TIP3    H117877   1.693   0.985   4.405
 5971TIP3    H217878   1.682   0.846   4.347
 5972TIP3   OH217879   0.845   0.174   0.908
 5972TIP3    H117880   0.908   0.170   0.836
 5972TIP3    H217881   0.898   0.163   0.987
 5973TIP3   OH217882   5.230   5.707   3.191
 5973TIP3    H117883   5.162   5.669   3.136
 5973TIP3    H217884   5.258   5.635   3.247
 5974TIP3   OH217885   0.773   5.099   4.435
 5974TIP3    H117886   0.823   5.057   4.505
 5974TIP3    H217887   0.682   5.095   4.465
 5975TIP3   OH217888   0.500   6.061   5.702
 5975TIP3    H117889   0.475   6.112   5.779
 5975TIP3    H217890   0.535   6.125   5.641
 5976TIP3   OH217891   3.031   6.465   2.502
 5976TIP3    H117892   2.944   6.425   2.504
 5976TIP3    H217893   3.057   6.471   2.594
 5977TIP3   OH217894   2.899   3.560   1.655
 5977TIP3    H117895   2.897   3.473   1.695
 5977TIP3    H217896   2.812   3.570   1.615
 5978TIP3   OH217897   6.544   1.166   0.822
 5978TIP3    H117898   6.623   1.132   0.781
 5978TIP3    H217899   6.492   1.088   0.842
 5979TIP3   OH217900   0.443   2.221   1.479
 5979TIP3    H117901   0.421   2.262   1.395
 5979TIP3    H217902   0.441   2.127   1.461
 5980TIP3   OH217903   6.637   3.415   3.371
 5980TIP3    H117904   6.727   3.399   3.400
 5980TIP3    H217905   6.584   3.352   3.421
 5981TIP3   OH217906   4.092   0.772   5.713
 5981TIP3    H117907   4.142   0.727   5.781
 5981TIP3    H217908   4.149   0.770   5.636
 5982TIP3   OH217909   6.070   5.456   4.385
 5982TIP3    H117910   6.027   5.379   4.349
 5982TIP3    H217911   6.064   5.445   4.480
 5983TIP3   OH217912   2.593   3.047   5.300
 5983TIP3    H117913   2.625   2.984   5.365
 5983TIP3    H217914   2.499   3.054   5.318
 5984TIP3   OH217915   3.858   4.453   3.884
 5984TIP3    H117916   3.832   4.433   3.974
 5984TIP3    H217917   3.802   4.398   3.830
 5985TIP3   OH217918   3.109   4.745   1.564
 5985TIP3    H117919   3.078   4.799   1.636
 5985TIP3    H217920   3.041   4.677   1.555
 5986TIP3   OH217921   0.222   5.686   4.253
 5986TIP3    H117922   0.308   5.726   4.240
 5986TIP3    H217923   0.177   5.699   4.169
 5987TIP3   OH217924   6.683   4.707   3.619
 5987TIP3    H117925   6.773   4.674   3.617
 5987TIP3    H217926   6.692   4.801   3.632
 5988TIP3   OH217927   6.682   6.720   3.901
 5988TIP3    H117928   6.597   6.696   3.863
 5988TIP3    H217929   6.693   6.660   3.975
 5989TIP3   OH217930   5.721   5.005   4.513
 5989TIP3    H117931   5.645   5.021   4.569
 5989TIP3    H217932   5.684   4.981   4.428
 5990TIP3   OH217933   5.061   2.625   5.049
 5990TIP3    H117934   5.001   2.610   4.976
 5990TIP3    H217935   5.107   2.705   5.027
 5991TIP3   OH217936   3.971   3.839   1.055
 5991TIP3    H117937   3.943   3.850   0.964
 5991TIP3    H217938   3.947   3.922   1.097
 5992TIP3   OH217939   5.418   3.056   0.172
 5992TIP3    H117940   5.367   3.059   0.253
 5992TIP3    H217941   5.507   3.034   0.200
 5993TIP3   OH217942   4.450   4.905   3.894
 5993TIP3    H117943   4.374   4.904   3.951
 5993TIP3    H217944   4.428   4.845   3.823
 5994TIP3   OH217945   3.396   4.669   5.842
 5994TIP3    H117946   3.452   4.744   5.824
 5994TIP3    H217947   3.330   4.670   5.772
 5995TIP3   OH217948   0.074   2.267   2.619
 5995TIP3    H117949   0.164   2.298   2.632
 5995TIP3    H217950   0.021   2.321   2.679
 5996TIP3   OH217951   1.326   5.469   1.321
 5996TIP3    H117952   1.327   5.562   1.299
 5996TIP3    H217953   1.241   5.438   1.289
 5997TIP3   OH217954   5.983   4.800   1.263
 5997TIP3    H117955   5.994   4.705   1.270
 5997TIP3    H217956   5.899   4.818   1.304
 5998TIP3   OH217957   0.310   2.779   0.156
 5998TIP3    H117958   0.313   2.695   0.110
 5998TIP3    H217959   0.313   2.845   0.087
 5999TIP3   OH217960   1.639   1.826   5.623
 5999TIP3    H117961   1.593   1.909   5.614
 5999TIP3    H217962   1.572   1.759   5.609
 6000TIP3   OH217963   0.021   1.305   4.091
 6000TIP3    H117964   0.084   1.343   4.030
 6000TIP3    H217965   0.060   1.316   4.177
 6001TIP3   OH217966   1.710   0.681   4.634
 6001TIP3    H117967   1.760   0.688   4.553
 6001TIP3    H217968   1.708   0.587   4.652
 6002TIP3   OH217969   3.920   2.932   5.547
 6002TIP3    H117970   3.910   2.848   5.593
 6002TIP3    H217971   3.936   2.996   5.616
 6003TIP3   OH217972   1.138   0.136   2.130
 6003TIP3    H117973   1.141   0.136   2.035
 6003TIP3    H217974   1.047   0.156   2.151
 6004TIP3   OH217975   3.734   2.646   0.125
 6004TIP3    H117976   3.767   2.654   0.036
 6004TIP3    H217977   3.640   2.628   0.114
 6005TIP3   OH217978   3.626   6.541   0.930
 6005TIP3    H117979   3.532   6.554   0.915
 6005TIP3    H217980   3.645   6.592   1.009
 6006TIP3   OH217981   3.262   5.340   0.717
 6006TIP3    H117982   3.341   5.345   0.771
 6006TIP3    H217983   3.211   5.417   0.742
 6007TIP3   OH217984   5.452   6.546   5.128
 6007TIP3    H117985   5.450   6.609   5.200
 6007TIP3    H217986   5.542   6.512   5.129
 6008TIP3   OH217987   2.816   1.694   5.683
 6008TIP3    H117988   2.802   1.788   5.698
 6008TIP3    H217989   2.865   1.691   5.601
 6009TIP3   OH217990   6.891   1.596   0.169
 6009TIP3    H117991   6.835   1.573   0.243
 6009TIP3    H217992   6.930   1.680   0.194
 6010TIP3   OH217993   5.248   4.527   3.615
 6010TIP3    H117994   5.201   4.553   3.535
 6010TIP3    H217995   5.340   4.524   3.588
 6011TIP3   OH217996   2.716   3.284   3.093
 6011TIP3    H117997   2.805   3.273   3.127
 6011TIP3    H217998   2.692   3.198   3.058
 6012TIP3   OH217999   6.387   4.411   5.740
 6012TIP3    H118000   6.411   4.374   5.824
 6012TIP3    H218001   6.331   4.344   5.700
 6013TIP3   OH218002   4.349   5.740   5.824
 6013TIP3    H118003   4.444   5.731   5.818
 6013TIP3    H218004   4.322   5.768   5.737
 6014TIP3   OH218005   2.356   0.763   5.326
 6014TIP3    H118006   2.403   0.846   5.336
 6014TIP3    H218007   2.277   0.786   5.276
 6015TIP3   OH218008   3.690   0.736   2.948
 6015TIP3    H118009   3.730   0.779   3.023
 6015TIP3    H218010   3.757   0.675   2.916
 6016TIP3   OH218011   6.975   1.706   1.328
 6016TIP3    H118012   6.926   1.785   1.352
 6016TIP3    H218013   7.030   1.689   1.405
 6017TIP3   OH218014   5.417   5.318   2.870
 6017TIP3    H118015   5.358   5.305   2.796
 6017TIP3    H218016   5.418   5.234   2.916
 6018TIP3   OH218017   2.514   4.678   5.374
 6018TIP3    H118018   2.551   4.716   5.454
 6018TIP3    H218019   2.419   4.681   5.387
 6019TIP3   OH218020   5.093   3.406   4.357
 6019TIP3    H118021   5.174   3.427   4.404
 6019TIP3    H218022   5.123   3.361   4.278
 6020TIP3   OH218023   1.351   1.567   5.374
 6020TIP3    H118024   1.256   1.582   5.383
 6020TIP3    H218025   1.362   1.537   5.284
 6021TIP3   OH218026   0.504   6.540   5.518
 6021TIP3    H118027   0.480   6.561   5.608
 6021TIP3    H218028   0.558   6.462   5.525
 6022TIP3   OH218029   2.918   0.282   3.369
 6022TIP3    H118030   2.840   0.278   3.425
 6022TIP3    H218031   2.894   0.233   3.290
 6023TIP3   OH218032   5.621   2.009   2.859
 6023TIP3    H118033   5.695   2.053   2.902
 6023TIP3    H218034   5.649   1.918   2.850
 6024TIP3   OH218035   4.782   3.597   4.572
 6024TIP3    H118036   4.843   3.538   4.616
 6024TIP3    H218037   4.836   3.673   4.548
 6025TIP3   OH218038   2.430   4.000   3.267
 6025TIP3    H118039   2.467   3.938   3.204
 6025TIP3    H218040   2.504   4.055   3.292
 6026TIP3   OH218041   4.759   5.079   0.864
 6026TIP3    H118042   4.723   5.167   0.858
 6026TIP3    H218043   4.699   5.031   0.920
 6027TIP3   OH218044   1.978   3.238   1.572
 6027TIP3    H118045   2.064   3.226   1.533
 6027TIP3    H218046   1.946   3.321   1.536
 6028TIP3   OH218047   0.761   0.553   0.607
 6028TIP3    H118048   0.772   0.566   0.513
 6028TIP3    H218049   0.683   0.603   0.630
 6029TIP3   OH218050   0.588   1.424   4.121
 6029TIP3    H118051   0.605   1.451   4.211
 6029TIP3    H218052   0.494   1.409   4.118
 6030TIP3   OH218053   3.787   5.370   4.411
 6030TIP3    H118054   3.760   5.352   4.321
 6030TIP3    H218055   3.771   5.464   4.422
 6031TIP3   OH218056   6.095   1.995   0.191
 6031TIP3    H118057   6.102   1.957   0.279
 6031TIP3    H218058   6.086   1.920   0.133
 6032TIP3   OH218059   2.268   2.627   3.374
 6032TIP3    H118060   2.335   2.598   3.435
 6032TIP3    H218061   2.199   2.665   3.429
 6033TIP3   OH218062   5.223   1.120   2.052
 6033TIP3    H118063   5.203   1.101   1.960
 6033TIP3    H218064   5.178   1.051   2.100
 6034TIP3   OH218065   0.585   5.274   1.936
 6034TIP3    H118066   0.509   5.328   1.958
 6034TIP3    H218067   0.603   5.294   1.844
 6035TIP3   OH218068   4.471   0.178   0.914
 6035TIP3    H118069   4.437   0.096   0.951
 6035TIP3    H218070   4.393   0.225   0.884
 6036TIP3   OH218071   2.986   0.220   3.979
 6036TIP3    H118072   2.963   0.209   4.071
 6036TIP3    H218073   3.081   0.223   3.978
 6037TIP3   OH218074   4.577   6.039   1.910
 6037TIP3    H118075   4.540   6.040   1.822
 6037TIP3    H218076   4.651   6.099   1.906
 6038TIP3   OH218077   3.636   2.052   0.932
 6038TIP3    H118078   3.620   2.060   1.026
 6038TIP3    H218079   3.704   2.117   0.914
 6039TIP3   OH218080   3.783   3.617   4.273
 6039TIP3    H118081   3.731   3.646   4.348
 6039TIP3    H218082   3.756   3.526   4.260
 6040TIP3   OH218083   5.261   2.147   3.193
 6040TIP3    H118084   5.292   2.214   3.132
 6040TIP3    H218085   5.228   2.197   3.268
 6041TIP3   OH218086   3.965   3.984   0.822
 6041TIP3    H118087   3.965   3.990   0.727
 6041TIP3    H218088   3.992   4.072   0.851
 6042TIP3   OH218089   2.160   5.401   2.205
 6042TIP3    H118090   2.094   5.363   2.147
 6042TIP3    H218091   2.190   5.328   2.259
 6043TIP3   OH218092   1.266   3.517   4.814
 6043TIP3    H118093   1.293   3.529   4.723
 6043TIP3    H218094   1.180   3.558   4.820
 6044TIP3   OH218095   6.099   5.731   5.628
 6044TIP3    H118096   6.098   5.636   5.619
 6044TIP3    H218097   6.013   5.759   5.597
 6045TIP3   OH218098   1.350   2.557   5.543
 6045TIP3    H118099   1.410   2.607   5.598
 6045TIP3    H218100   1.267   2.560   5.589
 6046TIP3   OH218101   3.854   1.935   1.292
 6046TIP3    H118102   3.787   1.985   1.246
 6046TIP3    H218103   3.871   1.985   1.372
 6047TIP3   OH218104   6.240   3.997   1.892
 6047TIP3    H118105   6.153   3.960   1.908
 6047TIP3    H218106   6.288   3.927   1.848
 6048TIP3   OH218107   4.444   1.663   5.776
 6048TIP3    H118108   4.377   1.616   5.825
 6048TIP3    H218109   4.466   1.738   5.830
 6049TIP3   OH218110   5.487   0.518   0.384
 6049TIP3    H118111   5.470   0.459   0.311
 6049TIP3    H218112   5.536   0.464   0.448
 6050TIP3   OH218113   6.749   5.359   0.797
 6050TIP3    H118114   6.769   5.362   0.703
 6050TIP3    H218115   6.755   5.450   0.826
 6051TIP3   OH218116   1.940   6.564   2.061
 6051TIP3    H118117   1.990   6.518   1.994
 6051TIP3    H218118   2.001   6.627   2.099
 6052TIP3   OH218119   5.801   3.498   1.846
 6052TIP3    H118120   5.748   3.562   1.798
 6052TIP3    H218121   5.800   3.420   1.791
 6053TIP3   OH218122   2.533   4.469   3.606
 6053TIP3    H118123   2.597   4.536   3.580
 6053TIP3    H218124   2.458   4.483   3.549
 6054TIP3   OH218125   0.942   5.895   3.535
 6054TIP3    H118126   0.962   5.961   3.469
 6054TIP3    H218127   0.905   5.944   3.608
 6055TIP3   OH218128   2.617   4.507   5.186
 6055TIP3    H118129   2.598   4.418   5.216
 6055TIP3    H218130   2.593   4.562   5.261
 6056TIP3   OH218131   0.223   6.645   2.895
 6056TIP3    H118132   0.293   6.690   2.848
 6056TIP3    H218133   0.147   6.703   2.887
 6057TIP3   OH218134   4.747   1.503   3.898
 6057TIP3    H118135   4.782   1.584   3.860
 6057TIP3    H218136   4.791   1.495   3.982
 6058TIP3   OH218137   3.090   6.768   1.942
 6058TIP3    H118138   3.032   6.775   1.867
 6058TIP3    H218139   3.176   6.795   1.908
 6059TIP3   OH218140   3.253   0.071   2.704
 6059TIP3    H118141   3.220   0.126   2.775
 6059TIP3    H218142   3.288  -0.006   2.748
 6060TIP3   OH218143   4.010   3.001   3.804
 6060TIP3    H118144   4.001   2.997   3.709
 6060TIP3    H218145   3.965   3.081   3.830
 6061TIP3   OH218146   2.866   2.658   0.573
 6061TIP3    H118147   2.921   2.623   0.503
 6061TIP3    H218148   2.928   2.699   0.634
 6062TIP3   OH218149   1.479   0.858   2.716
 6062TIP3    H118150   1.495   0.799   2.642
 6062TIP3    H218151   1.566   0.887   2.743
 6063TIP3   OH218152   2.354   6.081   3.706
 6063TIP3    H118153   2.318   6.011   3.760
 6063TIP3    H218154   2.366   6.041   3.619
 6064TIP3   OH218155   0.703   2.940   2.392
 6064TIP3    H118156   0.682   2.848   2.408
 6064TIP3    H218157   0.638   2.967   2.327
 6065TIP3   OH218158   5.501   1.569   2.729
 6065TIP3    H118159   5.515   1.482   2.765
 6065TIP3    H218160   5.424   1.602   2.775
 6066TIP3   OH218161   4.715   4.249   5.751
 6066TIP3    H118162   4.679   4.235   5.664
 6066TIP3    H218163   4.810   4.241   5.740
 6067TIP3   OH218164   1.760   4.030   1.764
 6067TIP3    H118165   1.845   4.013   1.725
 6067TIP3    H218166   1.701   3.969   1.719
 6068TIP3   OH218167   1.350   4.870   0.574
 6068TIP3    H118168   1.397   4.919   0.642
 6068TIP3    H218169   1.382   4.908   0.492
 6069TIP3   OH218170   4.187   2.659   0.147
 6069TIP3    H118171   4.108   2.706   0.173
 6069TIP3    H218172   4.156   2.572   0.122
 6070TIP3   OH218173   6.647   1.528   0.645
 6070TIP3    H118174   6.739   1.517   0.620
 6070TIP3    H218175   6.605   1.445   0.619
 6071TIP3   OH218176   2.154   0.187   1.802
 6071TIP3    H118177   2.226   0.159   1.745
 6071TIP3    H218178   2.102   0.246   1.748
 6072TIP3   OH218179   4.916   5.842   5.605
 6072TIP3    H118180   4.906   5.859   5.512
 6072TIP3    H218181   4.834   5.873   5.644
 6073TIP3   OH218182   4.492   3.285   0.703
 6073TIP3    H118183   4.568   3.340   0.687
 6073TIP3    H218184   4.426   3.317   0.641
 6074TIP3   OH218185   2.667   3.389   1.723
 6074TIP3    H118186   2.658   3.307   1.771
 6074TIP3    H218187   2.665   3.456   1.791
 6075TIP3   OH218188   4.104   0.738   2.404
 6075TIP3    H118189   4.019   0.703   2.431
 6075TIP3    H218190   4.083   0.802   2.336
 6076TIP3   OH218191   5.460   6.593   1.126
 6076TIP3    H118192   5.518   6.517   1.125
 6076TIP3    H218193   5.451   6.618   1.034
 6077TIP3   OH218194   0.912   6.746   4.316
 6077TIP3    H118195   0.868   6.688   4.255
 6077TIP3    H218196   0.954   6.812   4.261
 6078TIP3   OH218197   6.797   2.730   5.480
 6078TIP3    H118198   6.724   2.784   5.510
 6078TIP3    H218199   6.853   2.791   5.431
 6079TIP3   OH218200   5.783   2.092   5.829
 6079TIP3    H118201   5.789   2.183   5.857
 6079TIP3    H218202   5.722   2.052   5.891
 6080TIP3   OH218203   3.635   0.839   1.960
 6080TIP3    H118204   3.642   0.932   1.938
 6080TIP3    H218205   3.553   0.832   2.008
 6081TIP3   OH218206   5.017   4.142   5.887
 6081TIP3    H118207   5.107   4.168   5.905
 6081TIP3    H218208   5.021   4.096   5.803
 6082TIP3   OH218209   4.374   3.351   0.424
 6082TIP3    H118210   4.351   3.260   0.402
 6082TIP3    H218211   4.295   3.401   0.403
 6083TIP3   OH218212   6.660   1.133   2.272
 6083TIP3    H118213   6.664   1.041   2.298
 6083TIP3    H218214   6.748   1.154   2.243
 6084TIP3   OH218215   2.538   5.248   4.924
 6084TIP3    H118216   2.454   5.256   4.969
 6084TIP3    H218217   2.548   5.332   4.877
 6085TIP3   OH218218   6.608   3.812   3.008
 6085TIP3    H118219   6.609   3.895   2.962
 6085TIP3    H218220   6.518   3.780   3.000
 6086TIP3   OH218221   5.254   4.609   0.930
 6086TIP3    H118222   5.323   4.547   0.955
 6086TIP3    H218223   5.266   4.683   0.989
 6087TIP3   OH218224   2.874   1.116   0.414
 6087TIP3    H118225   2.787   1.106   0.452
 6087TIP3    H218226   2.860   1.171   0.337
 6088TIP3   OH218227   5.851   4.520   2.887
 6088TIP3    H118228   5.843   4.483   2.975
 6088TIP3    H218229   5.763   4.552   2.866
 6089TIP3   OH218230   2.005   1.975   1.020
 6089TIP3    H118231   1.911   1.988   1.036
 6089TIP3    H218232   2.018   1.881   1.029
 6090TIP3   OH218233   6.547   4.747   3.374
 6090TIP3    H118234   6.608   4.724   3.444
 6090TIP3    H218235   6.570   4.837   3.350
 6091TIP3   OH218236   5.428   2.098   4.272
 6091TIP3    H118237   5.416   2.089   4.367
 6091TIP3    H218238   5.379   2.177   4.249
 6092TIP3   OH218239   6.569   1.966   1.234
 6092TIP3    H118240   6.579   2.057   1.206
 6092TIP3    H218241   6.478   1.945   1.217
 6093TIP3   OH218242   6.381   0.789   4.457
 6093TIP3    H118243   6.362   0.711   4.509
 6093TIP3    H218244   6.384   0.860   4.521
 6094TIP3   OH218245  -0.012   5.863   4.616
 6094TIP3    H118246   0.051   5.934   4.604
 6094TIP3    H218247   0.040   5.791   4.654
 6095TIP3   OH218248   6.792   6.057   5.276
 6095TIP3    H118249   6.764   5.977   5.232
 6095TIP3    H218250   6.711   6.097   5.308
 6096TIP3   OH218251   1.096   2.843   1.031
 6096TIP3    H118252   1.139   2.833   0.946
 6096TIP3    H218253   1.060   2.757   1.050
 6097TIP3   OH218254   0.729   3.459   3.291
 6097TIP3    H118255   0.695   3.438   3.378
 6097TIP3    H218256   0.651   3.473   3.237
 6098TIP3   OH218257   0.547   0.415   2.858
 6098TIP3    H118258   0.509   0.485   2.911
 6098TIP3    H218259   0.641   0.418   2.879
 6099TIP3   OH218260   1.154   4.680   3.501
 6099TIP3    H118261   1.186   4.727   3.424
 6099TIP3    H218262   1.219   4.610   3.514
 6100TIP3   OH218263   0.556   2.506   2.666
 6100TIP3    H118264   0.573   2.415   2.692
 6100TIP3    H218265   0.568   2.506   2.571
 6101TIP3   OH218266   1.155   0.874   4.511
 6101TIP3    H118267   1.123   0.925   4.585
 6101TIP3    H218268   1.182   0.939   4.446
 6102TIP3   OH218269   5.730   5.602   5.842
 6102TIP3    H118270   5.734   5.697   5.826
 6102TIP3    H218271   5.814   5.582   5.883
 6103TIP3   OH218272   1.608   6.483   3.023
 6103TIP3    H118273   1.600   6.474   2.928
 6103TIP3    H218274   1.605   6.392   3.055
 6104TIP3   OH218275   2.656   0.633   0.683
 6104TIP3    H118276   2.618   0.716   0.654
 6104TIP3    H218277   2.730   0.618   0.624
 6105TIP3   OH218278   4.289   3.835   3.098
 6105TIP3    H118279   4.280   3.778   3.175
 6105TIP3    H218280   4.257   3.782   3.025
 6106TIP3   OH218281   4.219   0.660   2.777
 6106TIP3    H118282   4.176   0.640   2.694
 6106TIP3    H218283   4.166   0.730   2.815
 6107TIP3   OH218284   5.252   6.039   0.039
 6107TIP3    H118285   5.171   6.086   0.019
 6107TIP3    H218286   5.223   5.962   0.088
 6108TIP3   OH218287   7.071   4.369   1.006
 6108TIP3    H118288   7.151   4.370   1.058
 6108TIP3    H218289   7.102   4.364   0.915
 6109TIP3   OH218290   1.642   4.427   2.184
 6109TIP3    H118291   1.587   4.351   2.167
 6109TIP3    H218292   1.608   4.495   2.126
 6110TIP3   OH218293   1.730   5.342   3.796
 6110TIP3    H118294   1.824   5.353   3.784
 6110TIP3    H218295   1.722   5.258   3.842
 6111TIP3   OH218296   6.998   4.030   1.696
 6111TIP3    H118297   6.933   4.034   1.767
 6111TIP3    H218298   6.946   4.044   1.617
 6112TIP3   OH218299   0.301   4.461   0.743
 6112TIP3    H118300   0.324   4.410   0.666
 6112TIP3    H218301   0.208   4.445   0.756
 6113TIP3   OH218302   4.595   0.344   4.349
 6113TIP3    H118303   4.570   0.251   4.355
 6113TIP3    H218304   4.584   0.366   4.256
 6114TIP3   OH218305   2.970   4.425   2.797
 6114TIP3    H118306   2.978   4.334   2.823
 6114TIP3    H218307   2.882   4.432   2.761
 6115TIP3   OH218308   1.718   5.946   1.773
 6115TIP3    H118309   1.769   5.987   1.843
 6115TIP3    H218310   1.766   5.867   1.751
 6116TIP3   OH218311   6.626   1.677   3.386
 6116TIP3    H118312   6.713   1.658   3.350
 6116TIP3    H218313   6.581   1.593   3.385
 6117TIP3   OH218314   0.377   2.477   3.564
 6117TIP3    H118315   0.344   2.423   3.636
 6117TIP3    H218316   0.472   2.477   3.576
 6118TIP3   OH218317   6.469   5.167   0.194
 6118TIP3    H118318   6.408   5.102   0.161
 6118TIP3    H218319   6.554   5.142   0.156
 6119TIP3   OH218320   3.032   1.139   3.377
 6119TIP3    H118321   3.016   1.209   3.440
 6119TIP3    H218322   2.990   1.062   3.415
 6120TIP3   OH218323   0.051   3.050   3.674
 6120TIP3    H118324   0.067   2.957   3.664
 6120TIP3    H218325  -0.044   3.060   3.663
 6121TIP3   OH218326   6.409   3.774   1.805
 6121TIP3    H118327   6.493   3.735   1.831
 6121TIP3    H218328   6.344   3.714   1.839
 6122TIP3   OH218329   4.364   0.831   2.436
 6122TIP3    H118330   4.374   0.823   2.531
 6122TIP3    H218331   4.276   0.798   2.419
 6123TIP3   OH218332   2.745   0.226   0.734
 6123TIP3    H118333   2.664   0.270   0.708
 6123TIP3    H218334   2.737   0.138   0.697
 6124TIP3   OH218335   2.235   0.817   1.192
 6124TIP3    H118336   2.310   0.768   1.224
 6124TIP3    H218337   2.188   0.845   1.271
 6125TIP3   OH218338   1.420   3.110   2.109
 6125TIP3    H118339   1.357   3.176   2.139
 6125TIP3    H218340   1.485   3.105   2.180
 6126TIP3   OH218341   1.194   1.556   2.560
 6126TIP3    H118342   1.242   1.604   2.627
 6126TIP3    H218343   1.205   1.609   2.481
 6127TIP3   OH218344   6.256   6.624   2.880
 6127TIP3    H118345   6.225   6.657   2.964
 6127TIP3    H218346   6.224   6.534   2.876
 6128TIP3   OH218347   2.624   3.120   2.207
 6128TIP3    H118348   2.672   3.159   2.280
 6128TIP3    H218349   2.532   3.135   2.229
 6129TIP3   OH218350   0.361   0.067   3.331
 6129TIP3    H118351   0.313  -0.015   3.322
 6129TIP3    H218352   0.442   0.043   3.377
 6130TIP3   OH218353   4.765   2.555   4.615
 6130TIP3    H118354   4.737   2.644   4.594
 6130TIP3    H218355   4.685   2.508   4.636
 6131TIP3   OH218356   1.821   6.428   3.707
 6131TIP3    H118357   1.897   6.373   3.726
 6131TIP3    H218358   1.840   6.467   3.621
 6132TIP3   OH218359   6.010   0.733   5.803
 6132TIP3    H118360   5.938   0.775   5.756
 6132TIP3    H218361   6.087   0.747   5.747
 6133TIP3   OH218362   6.346   4.645   5.607
 6133TIP3    H118363   6.364   4.555   5.632
 6133TIP3    H218364   6.257   4.662   5.638
 6134TIP3   OH218365   4.272   1.941   2.898
 6134TIP3    H118366   4.332   2.014   2.914
 6134TIP3    H218367   4.210   1.944   2.970
 6135TIP3   OH218368   1.236   5.308   4.272
 6135TIP3    H118369   1.275   5.359   4.202
 6135TIP3    H218370   1.225   5.220   4.236
 6136TIP3   OH218371   4.505   6.296   5.131
 6136TIP3    H118372   4.459   6.348   5.197
 6136TIP3    H218373   4.522   6.212   5.174
 6137TIP3   OH218374   0.690   5.333   3.475
 6137TIP3    H118375   0.715   5.242   3.491
 6137TIP3    H218376   0.773   5.379   3.460
 6138TIP3   OH218377   1.308   6.194   1.782
 6138TIP3    H118378   1.318   6.148   1.864
 6138TIP3    H218379   1.311   6.287   1.806
 6139TIP3   OH218380   3.768   1.979   0.382
 6139TIP3    H118381   3.788   1.887   0.395
 6139TIP3    H218382   3.770   1.991   0.287
 6140TIP3   OH218383   1.453   3.773   3.879
 6140TIP3    H118384   1.443   3.866   3.900
 6140TIP3    H218385   1.544   3.765   3.850
 6141TIP3   OH218386   4.390   3.530   2.736
 6141TIP3    H118387   4.300   3.558   2.756
 6141TIP3    H218388   4.430   3.518   2.822
 6142TIP3   OH218389   3.194   1.563   3.560
 6142TIP3    H118390   3.264   1.550   3.497
 6142TIP3    H218391   3.199   1.656   3.583
 6143TIP3   OH218392   1.689   2.126   5.017
 6143TIP3    H118393   1.693   2.096   5.108
 6143TIP3    H218394   1.632   2.203   5.019
 6144TIP3   OH218395   3.827   0.836   0.614
 6144TIP3    H118396   3.895   0.902   0.626
 6144TIP3    H218397   3.762   0.878   0.558
 6145TIP3   OH218398   3.321   2.711   3.365
 6145TIP3    H118399   3.363   2.794   3.342
 6145TIP3    H218400   3.254   2.735   3.430
 6146TIP3   OH218401   5.331   6.324   4.520
 6146TIP3    H118402   5.342   6.229   4.533
 6146TIP3    H218403   5.416   6.361   4.544
 6147TIP3   OH218404   2.580   0.334   0.078
 6147TIP3    H118405   2.524   0.303   0.149
 6147TIP3    H218406   2.519   0.359   0.009
 6148TIP3   OH218407   4.516   6.127   4.549
 6148TIP3    H118408   4.519   6.221   4.568
 6148TIP3    H218409   4.486   6.087   4.631
 6149TIP3   OH218410   6.319   5.145   1.849
 6149TIP3    H118411   6.303   5.110   1.937
 6149TIP3    H218412   6.393   5.094   1.816
 6150TIP3   OH218413   3.423   2.471   4.585
 6150TIP3    H118414   3.477   2.508   4.515
 6150TIP3    H218415   3.363   2.412   4.540
 6151TIP3   OH218416   4.605   5.533   3.293
 6151TIP3    H118417   4.569   5.445   3.303
 6151TIP3    H218418   4.530   5.586   3.267
 6152TIP3   OH218419   1.763   1.274   3.945
 6152TIP3    H118420   1.678   1.290   3.986
 6152TIP3    H218421   1.769   1.178   3.939
 6153TIP3   OH218422   6.572   3.688   0.261
 6153TIP3    H118423   6.502   3.700   0.197
 6153TIP3    H218424   6.620   3.611   0.230
 6154TIP3   OH218425   5.082   0.353   0.400
 6154TIP3    H118426   5.059   0.280   0.341
 6154TIP3    H218427   5.051   0.325   0.486
 6155TIP3   OH218428   3.612   3.745   5.433
 6155TIP3    H118429   3.684   3.801   5.463
 6155TIP3    H218430   3.533   3.789   5.463
 6156TIP3   OH218431   6.697   1.588   4.493
 6156TIP3    H118432   6.696   1.595   4.398
 6156TIP3    H218433   6.788   1.571   4.515
 6157TIP3   OH218434   4.806   4.682   0.072
 6157TIP3    H118435   4.732   4.660   0.016
 6157TIP3    H218436   4.784   4.642   0.157
 6158TIP3   OH218437   5.729   4.224   4.099
 6158TIP3    H118438   5.802   4.203   4.042
 6158TIP3    H218439   5.687   4.140   4.117
 6159TIP3   OH218440   4.367   2.364   3.459
 6159TIP3    H118441   4.352   2.427   3.529
 6159TIP3    H218442   4.461   2.371   3.441
 6160TIP3   OH218443   0.240   3.978   4.961
 6160TIP3    H118444   0.288   3.960   5.042
 6160TIP3    H218445   0.265   4.067   4.938
 6161TIP3   OH218446   6.042   0.684   1.644
 6161TIP3    H118447   5.962   0.671   1.695
 6161TIP3    H218448   6.016   0.745   1.575
 6162TIP3   OH218449   0.827   1.876   1.041
 6162TIP3    H118450   0.805   1.798   0.990
 6162TIP3    H218451   0.923   1.876   1.045
 6163TIP3   OH218452   1.980   6.170   4.476
 6163TIP3    H118453   2.006   6.242   4.418
 6163TIP3    H218454   1.938   6.107   4.418
 6164TIP3   OH218455   1.882   3.529   5.137
 6164TIP3    H118456   1.934   3.450   5.124
 6164TIP3    H218457   1.849   3.522   5.226
 6165TIP3   OH218458   6.192   1.256   2.680
 6165TIP3    H118459   6.229   1.332   2.726
 6165TIP3    H218460   6.246   1.247   2.602
 6166TIP3   OH218461   6.817   1.264   0.305
 6166TIP3    H118462   6.754   1.195   0.321
 6166TIP3    H218463   6.838   1.257   0.212
 6167TIP3   OH218464   1.168   1.831   0.069
 6167TIP3    H118465   1.238   1.833   0.134
 6167TIP3    H218466   1.095   1.790   0.114
 6168TIP3   OH218467   4.207   4.083   1.473
 6168TIP3    H118468   4.191   4.130   1.391
 6168TIP3    H218469   4.123   4.086   1.518
 6169TIP3   OH218470   4.434   5.651   4.502
 6169TIP3    H118471   4.438   5.719   4.569
 6169TIP3    H218472   4.375   5.686   4.436
 6170TIP3   OH218473   1.085   0.499   1.902
 6170TIP3    H118474   1.013   0.559   1.883
 6170TIP3    H218475   1.079   0.483   1.996
 6171TIP3   OH218476   5.498   0.298   0.884
 6171TIP3    H118477   5.530   0.235   0.821
 6171TIP3    H218478   5.492   0.380   0.835
 6172TIP3   OH218479   2.117   5.733   1.477
 6172TIP3    H118480   2.190   5.693   1.524
 6172TIP3    H218481   2.039   5.692   1.514
 6173TIP3   OH218482   4.525   5.769   1.925
 6173TIP3    H118483   4.576   5.849   1.937
 6173TIP3    H218484   4.534   5.722   2.007
 6174TIP3   OH218485   5.178   1.467   1.229
 6174TIP3    H118486   5.268   1.490   1.250
 6174TIP3    H218487   5.166   1.496   1.138
 6175TIP3   OH218488   4.521   1.137   1.695
 6175TIP3    H118489   4.564   1.212   1.655
 6175TIP3    H218490   4.591   1.073   1.708
 6176TIP3   OH218491   3.108   6.014   3.840
 6176TIP3    H118492   3.057   5.940   3.808
 6176TIP3    H218493   3.054   6.052   3.909
 6177TIP3   OH218494   3.431   5.453   2.234
 6177TIP3    H118495   3.496   5.400   2.188
 6177TIP3    H218496   3.481   5.527   2.269
 6178TIP3   OH218497   6.314   2.939   3.715
 6178TIP3    H118498   6.353   2.887   3.645
 6178TIP3    H218499   6.352   2.904   3.796
 6179TIP3   OH218500   5.557   3.812   2.069
 6179TIP3    H118501   5.558   3.717   2.080
 6179TIP3    H218502   5.465   3.837   2.079
 6180TIP3   OH218503   0.636   0.390   5.561
 6180TIP3    H118504   0.583   0.314   5.583
 6180TIP3    H218505   0.674   0.369   5.476
 6181TIP3   OH218506   4.514   6.470   2.128
 6181TIP3    H118507   4.582   6.506   2.071
 6181TIP3    H218508   4.558   6.454   2.211
 6182TIP3   OH218509   3.693   6.291   4.669
 6182TIP3    H118510   3.766   6.277   4.730
 6182TIP3    H218511   3.660   6.378   4.692
 6183TIP3   OH218512   3.141   3.325   4.902
 6183TIP3    H118513   3.201   3.397   4.886
 6183TIP3    H218514   3.054   3.362   4.885
 6184TIP3   OH218515   3.434   0.188   4.230
 6184TIP3    H118516   3.474   0.248   4.167
 6184TIP3    H218517   3.369   0.241   4.275
 6185TIP3   OH218518   5.564   4.228   1.129
 6185TIP3    H118519   5.563   4.235   1.034
 6185TIP3    H218520   5.492   4.168   1.149
 6186TIP3   OH218521   1.270   1.404   3.658
 6186TIP3    H118522   1.339   1.347   3.689
 6186TIP3    H218523   1.205   1.346   3.618
 6187TIP3   OH218524   1.882   2.297   1.929
 6187TIP3    H118525   1.900   2.384   1.963
 6187TIP3    H218526   1.850   2.312   1.840
 6188TIP3   OH218527   4.216   6.492   1.826
 6188TIP3    H118528   4.190   6.549   1.898
 6188TIP3    H218529   4.248   6.413   1.868
 6189TIP3   OH218530   4.582   4.365   4.733
 6189TIP3    H118531   4.668   4.396   4.705
 6189TIP3    H218532   4.565   4.410   4.816
 6190TIP3   OH218533   1.432   3.390   0.381
 6190TIP3    H118534   1.337   3.398   0.378
 6190TIP3    H218535   1.461   3.466   0.431
 6191TIP3   OH218536   3.222   2.234   5.379
 6191TIP3    H118537   3.298   2.216   5.435
 6191TIP3    H218538   3.232   2.326   5.354
 6192TIP3   OH218539   2.015   3.806   1.897
 6192TIP3    H118540   1.986   3.789   1.808
 6192TIP3    H218541   2.065   3.888   1.891
 6193TIP3   OH218542   1.867   6.102   0.041
 6193TIP3    H118543   1.844   6.012   0.063
 6193TIP3    H218544   1.867   6.149   0.125
 6194TIP3   OH218545   5.796   3.732   5.025
 6194TIP3    H118546   5.709   3.706   5.057
 6194TIP3    H218547   5.829   3.654   4.981
 6195TIP3   OH218548   6.343   4.205   5.352
 6195TIP3    H118549   6.342   4.110   5.338
 6195TIP3    H218550   6.280   4.239   5.290
 6196TIP3   OH218551   2.629   6.803   2.439
 6196TIP3    H118552   2.719   6.825   2.462
 6196TIP3    H218553   2.588   6.777   2.521
 6197TIP3   OH218554   2.061   2.208   3.113
 6197TIP3    H118555   2.049   2.116   3.089
 6197TIP3    H218556   2.148   2.230   3.080
 6198TIP3   OH218557   5.526   2.122   0.327
 6198TIP3    H118558   5.509   2.182   0.400
 6198TIP3    H218559   5.622   2.114   0.325
 6199TIP3   OH218560   1.619   6.283   0.492
 6199TIP3    H118561   1.530   6.254   0.472
 6199TIP3    H218562   1.621   6.292   0.588
 6200TIP3   OH218563   3.132   4.378   3.292
 6200TIP3    H118564   3.203   4.430   3.254
 6200TIP3    H218565   3.103   4.429   3.368
 6201TIP3   OH218566   3.813   1.302   5.474
 6201TIP3    H118567   3.794   1.208   5.467
 6201TIP3    H218568   3.850   1.325   5.389
 6202TIP3   OH218569   2.702   4.412   1.892
 6202TIP3    H118570   2.723   4.488   1.947
 6202TIP3    H218571   2.772   4.411   1.826
 6203TIP3   OH218572   0.062   5.923   5.755
 6203TIP3    H118573  -0.033   5.924   5.742
 6203TIP3    H218574   0.073   5.893   5.845
 6204TIP3   OH218575   6.690   3.847   1.452
 6204TIP3    H118576   6.657   3.906   1.520
 6204TIP3    H218577   6.615   3.833   1.394
 6205TIP3   OH218578   4.455   1.445   0.099
 6205TIP3    H118579   4.496   1.410   0.020
 6205TIP3    H218580   4.367   1.471   0.071
 6206TIP3   OH218581   0.397   0.845   0.148
 6206TIP3    H118582   0.380   0.938   0.137
 6206TIP3    H218583   0.316   0.810   0.186
 6207TIP3   OH218584   4.850   3.254   3.225
 6207TIP3    H118585   4.879   3.222   3.139
 6207TIP3    H218586   4.932   3.279   3.269
 6208TIP3   OH218587   6.664   1.339   1.589
 6208TIP3    H118588   6.690   1.325   1.680
 6208TIP3    H218589   6.740   1.313   1.538
 6209TIP3   OH218590   1.060   3.126   3.979
 6209TIP3    H118591   1.128   3.062   4.001
 6209TIP3    H218592   1.107   3.201   3.943
 6210TIP3   OH218593   5.972   3.507   2.062
 6210TIP3    H118594   5.914   3.463   2.124
 6210TIP3    H218595   5.921   3.511   1.981
 6211TIP3   OH218596   0.415   6.575   4.757
 6211TIP3    H118597   0.498   6.600   4.799
 6211TIP3    H218598   0.435   6.574   4.664
 6212TIP3   OH218599   5.482   4.509   5.553
 6212TIP3    H118600   5.533   4.464   5.486
 6212TIP3    H218601   5.500   4.602   5.538
 6213TIP3   OH218602   3.097   0.731   4.663
 6213TIP3    H118603   3.187   0.697   4.664
 6213TIP3    H218604   3.045   0.663   4.707
 6214TIP3   OH218605   4.229   5.344   0.407
 6214TIP3    H118606   4.246   5.373   0.497
 6214TIP3    H218607   4.160   5.402   0.376
 6215TIP3   OH218608   3.438   0.284   0.517
 6215TIP3    H118609   3.437   0.190   0.538
 6215TIP3    H218610   3.459   0.287   0.423
 6216TIP3   OH218611   7.123   4.363   5.177
 6216TIP3    H118612   7.057   4.362   5.246
 6216TIP3    H218613   7.074   4.344   5.096
 6217TIP3   OH218614   3.060   5.094   5.044
 6217TIP3    H118615   2.994   5.044   5.093
 6217TIP3    H218616   3.009   5.147   4.983
 6218TIP3   OH218617   3.811   0.597   3.229
 6218TIP3    H118618   3.854   0.520   3.191
 6218TIP3    H218619   3.878   0.665   3.229
 6219TIP3   OH218620   3.681   2.494   5.143
 6219TIP3    H118621   3.763   2.534   5.115
 6219TIP3    H218622   3.706   2.409   5.179
 6220TIP3   OH218623   0.356   3.010   2.726
 6220TIP3    H118624   0.374   2.929   2.677
 6220TIP3    H218625   0.374   2.987   2.817
 6221TIP3   OH218626   5.970   1.892   5.475
 6221TIP3    H118627   6.042   1.951   5.452
 6221TIP3    H218628   5.910   1.897   5.401
 6222TIP3   OH218629   1.060   5.846   1.649
 6222TIP3    H118630   1.135   5.817   1.701
 6222TIP3    H218631   0.984   5.808   1.693
 6223TIP3   OH218632   1.454   0.504   0.957
 6223TIP3    H118633   1.427   0.563   0.887
 6223TIP3    H218634   1.514   0.442   0.914
 6224TIP3   OH218635   1.166   6.046   2.319
 6224TIP3    H118636   1.167   6.037   2.224
 6224TIP3    H218637   1.178   5.957   2.353
 6225TIP3   OH218638   4.821   3.720   0.111
 6225TIP3    H118639   4.891   3.769   0.155
 6225TIP3    H218640   4.846   3.628   0.120
 6226TIP3   OH218641   0.413   3.198   0.912
 6226TIP3    H118642   0.456   3.165   0.991
 6226TIP3    H218643   0.349   3.262   0.945
 6227TIP3   OH218644   4.271   3.947   0.266
 6227TIP3    H118645   4.259   3.913   0.177
 6227TIP3    H218646   4.326   3.881   0.309
 6228TIP3   OH218647   3.129   0.111   3.372
 6228TIP3    H118648   3.182   0.176   3.327
 6228TIP3    H218649   3.046   0.156   3.389
 6229TIP3   OH218650   0.112   0.827   4.277
 6229TIP3    H118651   0.057   0.787   4.210
 6229TIP3    H218652   0.140   0.754   4.332
 6230TIP3   OH218653   4.065   1.833   4.442
 6230TIP3    H118654   4.144   1.881   4.419
 6230TIP3    H218655   3.999   1.864   4.380
 6231TIP3   OH218656   3.137   1.065   1.049
 6231TIP3    H118657   3.084   0.990   1.021
 6231TIP3    H218658   3.076   1.122   1.095
 6232TIP3   OH218659   4.640   1.747   3.625
 6232TIP3    H118660   4.638   1.779   3.535
 6232TIP3    H218661   4.708   1.680   3.625
 6233TIP3   OH218662   3.428   5.462   1.288
 6233TIP3    H118663   3.486   5.457   1.211
 6233TIP3    H218664   3.375   5.383   1.283
 6234TIP3   OH218665   0.515   6.252   1.642
 6234TIP3    H118666   0.508   6.170   1.594
 6234TIP3    H218667   0.603   6.284   1.621
 6235TIP3   OH218668   6.216   2.617   1.587
 6235TIP3    H118669   6.221   2.548   1.653
 6235TIP3    H218670   6.238   2.697   1.635
 6236TIP3   OH218671   0.143   6.421   0.395
 6236TIP3    H118672   0.054   6.442   0.368
 6236TIP3    H218673   0.147   6.446   0.487
 6237TIP3   OH218674   2.301   5.438   1.242
 6237TIP3    H118675   2.266   5.521   1.210
 6237TIP3    H218676   2.250   5.371   1.197
 6238TIP3   OH218677   1.311   4.585   2.211
 6238TIP3    H118678   1.309   4.510   2.152
 6238TIP3    H218679   1.399   4.621   2.202
 6239TIP3   OH218680   4.488   0.801   5.432
 6239TIP3    H118681   4.487   0.802   5.528
 6239TIP3    H218682   4.557   0.739   5.409
 6240TIP3   OH218683   6.792   2.784   0.068
 6240TIP3    H118684   6.743   2.704   0.085
 6240TIP3    H218685   6.877   2.770   0.111
 6241TIP3   OH218686   5.140   0.458   3.420
 6241TIP3    H118687   5.099   0.544   3.423
 6241TIP3    H218688   5.067   0.397   3.406
 6242TIP3   OH218689   4.980   0.924   1.324
 6242TIP3    H118690   4.934   0.847   1.291
 6242TIP3    H218691   5.068   0.916   1.288
 6243TIP3   OH218692   2.039   3.219   1.848
 6243TIP3    H118693   2.013   3.231   1.757
 6243TIP3    H218694   1.998   3.292   1.895
 6244TIP3   OH218695   6.743   0.547   0.817
 6244TIP3    H118696   6.735   0.485   0.889
 6244TIP3    H218697   6.655   0.583   0.807
 6245TIP3   OH218698   3.272   4.630   3.970
 6245TIP3    H118699   3.217   4.707   3.985
 6245TIP3    H218700   3.217   4.571   3.919
 6246TIP3   OH218701   3.264   4.860   2.842
 6246TIP3    H118702   3.223   4.796   2.785
 6246TIP3    H218703   3.358   4.848   2.830
 6247TIP3   OH218704   5.467   5.360   5.126
 6247TIP3    H118705   5.401   5.333   5.189
 6247TIP3    H218706   5.437   5.324   5.042
 6248TIP3   OH218707   6.960   2.236   1.605
 6248TIP3    H118708   6.991   2.146   1.593
 6248TIP3    H218709   6.866   2.227   1.619
 6249TIP3   OH218710   0.847   4.913   0.069
 6249TIP3    H118711   0.892   4.990   0.105
 6249TIP3    H218712   0.888   4.838   0.113
 6250TIP3   OH218713   4.783   2.424   5.444
 6250TIP3    H118714   4.849   2.451   5.380
 6250TIP3    H218715   4.747   2.507   5.477
 6251TIP3   OH218716   3.029   6.050   5.067
 6251TIP3    H118717   2.951   5.999   5.044
 6251TIP3    H218718   3.084   5.991   5.117
 6252TIP3   OH218719   2.628   3.987   4.887
 6252TIP3    H118720   2.551   3.939   4.917
 6252TIP3    H218721   2.683   3.996   4.964
 6253TIP3   OH218722   4.885   0.947   4.664
 6253TIP3    H118723   4.919   0.939   4.575
 6253TIP3    H218724   4.816   1.013   4.658
 6254TIP3   OH218725   5.171   0.322   4.579
 6254TIP3    H118726   5.169   0.362   4.492
 6254TIP3    H218727   5.249   0.359   4.620
 6255TIP3   OH218728   5.350   5.283   4.889
 6255TIP3    H118729   5.319   5.193   4.903
 6255TIP3    H218730   5.272   5.330   4.861
 6256TIP3   OH218731   1.181   2.605   1.849
 6256TIP3    H118732   1.099   2.643   1.880
 6256TIP3    H218733   1.247   2.672   1.865
 6257TIP3   OH218734   4.023   0.939   2.228
 6257TIP3    H118735   4.069   1.019   2.204
 6257TIP3    H218736   3.936   0.948   2.188
 6258TIP3   OH218737   1.753   5.615   2.274
 6258TIP3    H118738   1.700   5.684   2.233
 6258TIP3    H218739   1.842   5.649   2.271
 6259TIP3   OH218740   3.639   4.018   5.227
 6259TIP3    H118741   3.699   4.004   5.154
 6259TIP3    H218742   3.655   4.107   5.256
 6260TIP3   OH218743   7.002   2.743   0.947
 6260TIP3    H118744   7.073   2.801   0.974
 6260TIP3    H218745   6.992   2.759   0.853
 6261TIP3   OH218746   3.817   6.558   3.550
 6261TIP3    H118747   3.900   6.582   3.509
 6261TIP3    H218748   3.785   6.484   3.499
 6262TIP3   OH218749   2.563   5.680   2.918
 6262TIP3    H118750   2.623   5.611   2.948
 6262TIP3    H218751   2.481   5.635   2.901
 6263TIP3   OH218752   2.064   0.142   3.868
 6263TIP3    H118753   2.032   0.207   3.805
 6263TIP3    H218754   1.985   0.098   3.900
 6264TIP3   OH218755   6.542   4.998   1.810
 6264TIP3    H118756   6.601   5.062   1.769
 6264TIP3    H218757   6.533   4.928   1.745
 6265TIP3   OH218758   4.288   0.195   1.208
 6265TIP3    H118759   4.246   0.252   1.144
 6265TIP3    H218760   4.376   0.230   1.218
 6266TIP3   OH218761   0.085   5.170   3.620
 6266TIP3    H118762   0.165   5.119   3.628
 6266TIP3    H218763   0.084   5.199   3.528
 6267TIP3   OH218764   1.460   5.223   1.764
 6267TIP3    H118765   1.434   5.291   1.701
 6267TIP3    H218766   1.441   5.141   1.719
 6268TIP3   OH218767   6.219   2.969   0.915
 6268TIP3    H118768   6.179   2.989   0.830
 6268TIP3    H218769   6.215   3.052   0.963
 6269TIP3   OH218770   1.463   1.737   1.978
 6269TIP3    H118771   1.551   1.714   1.947
 6269TIP3    H218772   1.431   1.799   1.913
 6270TIP3   OH218773   2.278   0.959   0.389
 6270TIP3    H118774   2.215   1.023   0.421
 6270TIP3    H218775   2.263   0.954   0.295
 6271TIP3   OH218776   5.057   5.800   1.437
 6271TIP3    H118777   4.980   5.803   1.494
 6271TIP3    H218778   5.024   5.766   1.354
 6272TIP3   OH218779   1.844   5.360   2.639
 6272TIP3    H118780   1.753   5.330   2.639
 6272TIP3    H218781   1.838   5.454   2.622
 6273TIP3   OH218782   6.364   5.847   1.229
 6273TIP3    H118783   6.374   5.773   1.169
 6273TIP3    H218784   6.270   5.850   1.247
 6274TIP3   OH218785   6.461   6.750   0.418
 6274TIP3    H118786   6.515   6.716   0.347
 6274TIP3    H218787   6.420   6.829   0.382
 6275TIP3   OH218788   3.219   5.881   4.787
 6275TIP3    H118789   3.130   5.889   4.822
 6275TIP3    H218790   3.275   5.878   4.864
 6276TIP3   OH218791   1.368   5.725   1.231
 6276TIP3    H118792   1.456   5.736   1.195
 6276TIP3    H218793   1.370   5.769   1.316
 6277TIP3   OH218794   6.991   0.160   4.474
 6277TIP3    H118795   7.049   0.142   4.549
 6277TIP3    H218796   6.903   0.151   4.509
 6278TIP3   OH218797   0.086   0.519   2.663
 6278TIP3    H118798   0.115   0.572   2.588
 6278TIP3    H218799   0.037   0.580   2.718
 6279TIP3   OH218800   4.427   2.793   0.821
 6279TIP3    H118801   4.474   2.870   0.790
 6279TIP3    H218802   4.495   2.740   0.863
 6280TIP3   OH218803   6.247   4.232   0.926
 6280TIP3    H118804   6.175   4.221   0.988
 6280TIP3    H218805   6.210   4.208   0.841
 6281TIP3   OH218806   4.025   1.444   5.578
 6281TIP3    H118807   4.042   1.384   5.650
 6281TIP3    H218808   3.960   1.399   5.524
 6282TIP3   OH218809   1.203   1.764   5.139
 6282TIP3    H118810   1.109   1.752   5.127
 6282TIP3    H218811   1.242   1.693   5.089
 6283TIP3   OH218812   1.320   6.038   1.208
 6283TIP3    H118813   1.233   6.004   1.187
 6283TIP3    H218814   1.326   6.029   1.303
 6284TIP3   OH218815   6.908   3.884   5.556
 6284TIP3    H118816   6.959   3.965   5.543
 6284TIP3    H218817   6.973   3.814   5.550
 6285TIP3   OH218818   4.001   4.936   3.505
 6285TIP3    H118819   3.991   4.845   3.479
 6285TIP3    H218820   4.015   4.983   3.422
 6286TIP3   OH218821   0.923   1.182   5.395
 6286TIP3    H118822   0.993   1.147   5.339
 6286TIP3    H218823   0.892   1.106   5.445
 6287TIP3   OH218824   1.323   6.689   1.331
 6287TIP3    H118825   1.234   6.657   1.320
 6287TIP3    H218826   1.375   6.611   1.347
 6288TIP3   OH218827   2.917   0.282   0.948
 6288TIP3    H118828   2.875   0.243   0.872
 6288TIP3    H218829   2.894   0.225   1.021
 6289TIP3   OH218830   6.036   0.711   3.339
 6289TIP3    H118831   6.035   0.655   3.262
 6289TIP3    H218832   6.116   0.687   3.386
 6290TIP3   OH218833   4.333   1.809   0.508
 6290TIP3    H118834   4.360   1.744   0.442
 6290TIP3    H218835   4.343   1.763   0.592
 6291TIP3   OH218836  -0.016   3.905   4.824
 6291TIP3    H118837   0.051   3.901   4.891
 6291TIP3    H218838  -0.043   3.997   4.822
 6292TIP3   OH218839   4.104   1.206   2.164
 6292TIP3    H118840   4.164   1.251   2.104
 6292TIP3    H218841   4.056   1.277   2.207
 6293TIP3   OH218842   2.726   4.702   2.265
 6293TIP3    H118843   2.649   4.646   2.259
 6293TIP3    H218844   2.690   4.791   2.274
 6294TIP3   OH218845   3.094   2.699   3.127
 6294TIP3    H118846   3.056   2.699   3.216
 6294TIP3    H218847   3.021   2.726   3.071
 6295TIP3   OH218848   1.446   4.233   2.113
 6295TIP3    H118849   1.388   4.305   2.089
 6295TIP3    H218850   1.462   4.186   2.032
 6296TIP3   OH218851   5.856   6.440   4.592
 6296TIP3    H118852   5.886   6.497   4.662
 6296TIP3    H218853   5.762   6.432   4.606
 6297TIP3   OH218854   0.887   1.827   5.041
 6297TIP3    H118855   0.796   1.856   5.055
 6297TIP3    H218856   0.878   1.738   5.007
 6298TIP3   OH218857   5.814   4.177   2.812
 6298TIP3    H118858   5.796   4.094   2.856
 6298TIP3    H218859   5.908   4.175   2.794
 6299TIP3   OH218860   0.340   0.966   2.455
 6299TIP3    H118861   0.250   0.996   2.448
 6299TIP3    H218862   0.388   1.040   2.492
 6300TIP3   OH218863   2.703   3.720   3.991
 6300TIP3    H118864   2.610   3.734   4.010
 6300TIP3    H218865   2.746   3.801   4.021
 6301TIP3   OH218866   0.081   3.414   2.280
 6301TIP3    H118867   0.061   3.456   2.196
 6301TIP3    H218868   0.016   3.344   2.288
 6302TIP3   OH218869   3.861   0.731   3.856
 6302TIP3    H118870   3.903   0.817   3.856
 6302TIP3    H218871   3.884   0.694   3.771
 6303TIP3   OH218872   0.354   6.337   2.591
 6303TIP3    H118873   0.321   6.415   2.636
 6303TIP3    H218874   0.276   6.298   2.551
 6304TIP3   OH218875   5.081   4.204   4.243
 6304TIP3    H118876   5.154   4.216   4.182
 6304TIP3    H218877   5.003   4.207   4.189
 6305TIP3   OH218878   2.275   4.814   3.602
 6305TIP3    H118879   2.234   4.879   3.659
 6305TIP3    H218880   2.246   4.729   3.638
 6306TIP3   OH218881   5.905   4.621   4.540
 6306TIP3    H118882   5.848   4.563   4.488
 6306TIP3    H218883   5.853   4.642   4.617
 6307TIP3   OH218884   5.618   2.215   1.246
 6307TIP3    H118885   5.556   2.244   1.313
 6307TIP3    H218886   5.703   2.244   1.279
 6308TIP3   OH218887   5.443   5.857   3.055
 6308TIP3    H118888   5.362   5.819   3.087
 6308TIP3    H218889   5.462   5.810   2.974
 6309TIP3   OH218890   1.536   3.073   1.577
 6309TIP3    H118891   1.473   3.139   1.606
 6309TIP3    H218892   1.592   3.059   1.653
 6310TIP3   OH218893   1.479   4.434   4.440
 6310TIP3    H118894   1.461   4.526   4.459
 6310TIP3    H218895   1.570   4.421   4.468
 6311TIP3   OH218896   3.149   4.677   5.642
 6311TIP3    H118897   3.068   4.718   5.615
 6311TIP3    H218898   3.122   4.595   5.685
 6312TIP3   OH218899   1.547   4.921   1.648
 6312TIP3    H118900   1.577   4.889   1.563
 6312TIP3    H218901   1.452   4.908   1.646
 6313TIP3   OH218902   2.964   0.549   1.132
 6313TIP3    H118903   3.010   0.622   1.092
 6313TIP3    H218904   2.885   0.538   1.079
 6314TIP3   OH218905   5.951   4.573   3.633
 6314TIP3    H118906   5.932   4.480   3.644
 6314TIP3    H218907   6.035   4.576   3.588
 6315TIP3   OH218908   0.032   6.586   0.728
 6315TIP3    H118909  -0.039   6.522   0.718
 6315TIP3    H218910   0.108   6.534   0.753
 6316TIP3   OH218911   5.616   4.356   2.734
 6316TIP3    H118912   5.571   4.319   2.810
 6316TIP3    H218913   5.706   4.322   2.741
 6317TIP3   OH218914   1.468   2.385   4.569
 6317TIP3    H118915   1.373   2.382   4.581
 6317TIP3    H218916   1.503   2.389   4.658
 6318TIP3   OH218917   0.347   0.308   0.125
 6318TIP3    H118918   0.354   0.258   0.043
 6318TIP3    H218919   0.253   0.310   0.143
 6319TIP3   OH218920   5.167   1.796   1.166
 6319TIP3    H118921   5.166   1.891   1.177
 6319TIP3    H218922   5.147   1.761   1.254
 6320TIP3   OH218923   3.023   3.449   3.135
 6320TIP3    H118924   3.052   3.367   3.174
 6320TIP3    H218925   3.062   3.450   3.048
 6321TIP3   OH218926   2.540   1.258   0.746
 6321TIP3    H118927   2.496   1.336   0.712
 6321TIP3    H218928   2.471   1.191   0.747
 6322TIP3   OH218929   5.798   5.104   0.829
 6322TIP3    H118930   5.877   5.070   0.871
 6322TIP3    H218931   5.828   5.145   0.748
 6323TIP3   OH218932   5.899   6.128   3.430
 6323TIP3    H118933   5.821   6.073   3.425
 6323TIP3    H218934   5.879   6.204   3.374
 6324TIP3   OH218935   6.683   5.598   4.866
 6324TIP3    H118936   6.683   5.589   4.771
 6324TIP3    H218937   6.673   5.692   4.881
 6325TIP3   OH218938   0.854   1.401   0.793
 6325TIP3    H118939   0.841   1.385   0.886
 6325TIP3    H218940   0.768   1.389   0.754
 6326TIP3   OH218941   6.130   5.366   4.040
 6326TIP3    H118942   6.048   5.355   4.088
 6326TIP3    H218943   6.104   5.391   3.952
 6327TIP3   OH218944   1.089   2.380   4.866
 6327TIP3    H118945   1.052   2.306   4.915
 6327TIP3    H218946   1.067   2.457   4.920
 6328TIP3   OH218947   5.432   2.910   2.062
 6328TIP3    H118948   5.389   2.993   2.083
 6328TIP3    H218949   5.523   2.924   2.087
 6329TIP3   OH218950   6.047   6.648   3.620
 6329TIP3    H118951   6.122   6.671   3.675
 6329TIP3    H218952   6.073   6.675   3.532
 6330TIP3   OH218953   5.246   4.148   2.869
 6330TIP3    H118954   5.242   4.105   2.954
 6330TIP3    H218955   5.156   4.154   2.840
 6331TIP3   OH218956   6.631   0.481   2.745
 6331TIP3    H118957   6.572   0.436   2.805
 6331TIP3    H218958   6.573   0.536   2.691
 6332TIP3   OH218959   3.282   3.075   0.805
 6332TIP3    H118960   3.295   3.021   0.726
 6332TIP3    H218961   3.347   3.144   0.797
 6333TIP3   OH218962   2.236   2.566   5.052
 6333TIP3    H118963   2.267   2.491   5.000
 6333TIP3    H218964   2.154   2.536   5.092
 6334TIP3   OH218965   5.496   4.346   0.312
 6334TIP3    H118966   5.442   4.375   0.386
 6334TIP3    H218967   5.504   4.424   0.257
 6335TIP3   OH218968   3.359   5.114   4.995
 6335TIP3    H118969   3.282   5.097   5.048
 6335TIP3    H218970   3.332   5.182   4.933
 6336TIP3   OH218971   0.162   6.315   1.410
 6336TIP3    H118972   0.095   6.289   1.473
 6336TIP3    H218973   0.114   6.333   1.329
 6337TIP3   OH218974   1.216   3.997   3.699
 6337TIP3    H118975   1.140   4.027   3.649
 6337TIP3    H218976   1.181   3.931   3.759
 6338TIP3   OH218977   3.802   5.108   1.918
 6338TIP3    H118978   3.748   5.079   1.992
 6338TIP3    H218979   3.740   5.114   1.845
 6339TIP3   OH218980   0.238   3.645   0.952
 6339TIP3    H118981   0.151   3.685   0.943
 6339TIP3    H218982   0.249   3.634   1.046
 6340TIP3   OH218983   7.219   5.726   1.902
 6340TIP3    H118984   7.176   5.729   1.816
 6340TIP3    H218985   7.172   5.791   1.954
 6341TIP3   OH218986   4.201   5.457   4.354
 6341TIP3    H118987   4.283   5.473   4.309
 6341TIP3    H218988   4.138   5.442   4.284
 6342TIP3   OH218989   5.224   5.225   3.624
 6342TIP3    H118990   5.287   5.176   3.677
 6342TIP3    H218991   5.203   5.302   3.677
 6343TIP3   OH218992   1.553   2.634   1.708
 6343TIP3    H118993   1.474   2.630   1.655
 6343TIP3    H218994   1.601   2.710   1.675
 6344TIP3   OH218995   0.539   0.457   3.193
 6344TIP3    H118996   0.534   0.540   3.145
 6344TIP3    H218997   0.490   0.395   3.140
 6345TIP3   OH218998   5.347   0.289   2.931
 6345TIP3    H118999   5.353   0.375   2.888
 6345TIP3    H219000   5.370   0.226   2.862
 6346TIP3   OH219001   6.623   4.058   2.866
 6346TIP3    H119002   6.688   4.112   2.912
 6346TIP3    H219003   6.568   4.121   2.820
 6347TIP3   OH219004   0.037   0.632   4.679
 6347TIP3    H119005   0.014   0.711   4.727
 6347TIP3    H219006   0.042   0.564   4.747
 6348TIP3   OH219007   0.141   3.374   2.630
 6348TIP3    H119008   0.050   3.384   2.603
 6348TIP3    H219009   0.191   3.380   2.549
 6349TIP3   OH219010   1.604   0.121   2.881
 6349TIP3    H119011   1.580   0.029   2.864
 6349TIP3    H219012   1.567   0.139   2.968
 6350TIP3   OH219013   7.122   2.062   0.710
 6350TIP3    H119014   7.043   2.058   0.763
 6350TIP3    H219015   7.177   2.127   0.753
 6351TIP3   OH219016   2.523   4.510   1.639
 6351TIP3    H119017   2.576   4.467   1.707
 6351TIP3    H219018   2.449   4.451   1.626
 6352TIP3   OH219019   3.925   2.685   2.067
 6352TIP3    H119020   4.013   2.658   2.040
 6352TIP3    H219021   3.922   2.666   2.161
 6353TIP3   OH219022   4.640   2.526   2.296
 6353TIP3    H119023   4.614   2.500   2.208
 6353TIP3    H219024   4.562   2.567   2.333
 6354TIP3   OH219025   4.314   1.543   5.100
 6354TIP3    H119026   4.292   1.629   5.065
 6354TIP3    H219027   4.409   1.538   5.090
 6355TIP3   OH219028   5.318   3.805   2.368
 6355TIP3    H119029   5.409   3.834   2.363
 6355TIP3    H219030   5.273   3.874   2.416
 6356TIP3   OH219031   6.748   6.526   2.914
 6356TIP3    H119032   6.662   6.491   2.891
 6356TIP3    H219033   6.745   6.535   3.009
 6357TIP3   OH219034   3.434   1.114   3.239
 6357TIP3    H119035   3.431   1.055   3.315
 6357TIP3    H219036   3.453   1.200   3.277
 6358TIP3   OH219037   2.990   4.977   3.623
 6358TIP3    H119038   3.008   4.884   3.628
 6358TIP3    H219039   2.896   4.985   3.642
 6359TIP3   OH219040   1.101   0.995   3.526
 6359TIP3    H119041   1.153   1.048   3.465
 6359TIP3    H219042   1.160   0.979   3.600
 6360TIP3   OH219043   7.075   2.683   2.254
 6360TIP3    H119044   7.090   2.606   2.308
 6360TIP3    H219045   7.147   2.684   2.192
 6361TIP3   OH219046   0.803   3.415   2.261
 6361TIP3    H119047   0.895   3.436   2.241
 6361TIP3    H219048   0.785   3.336   2.211
 6362TIP3   OH219049   0.099   0.665   5.018
 6362TIP3    H119050   0.017   0.709   4.994
 6362TIP3    H219051   0.083   0.573   4.997
 6363TIP3   OH219052   5.422   3.207   3.602
 6363TIP3    H119053   5.514   3.197   3.627
 6363TIP3    H219054   5.404   3.300   3.611
 6364TIP3   OH219055   3.075   2.607   1.986
 6364TIP3    H119056   3.130   2.685   1.991
 6364TIP3    H219057   3.122   2.542   2.038
 6365TIP3   OH219058   7.183   6.420   1.229
 6365TIP3    H119059   7.167   6.460   1.143
 6365TIP3    H219060   7.142   6.480   1.291
 6366TIP3   OH219061   6.726   0.652   5.553
 6366TIP3    H119062   6.744   0.557   5.555
 6366TIP3    H219063   6.753   0.680   5.466
 6367TIP3   OH219064   6.847   4.354   4.455
 6367TIP3    H119065   6.856   4.259   4.449
 6367TIP3    H219066   6.844   4.372   4.549
 6368TIP3   OH219067   6.273   5.964   4.067
 6368TIP3    H119068   6.217   6.042   4.061
 6368TIP3    H219069   6.277   5.944   4.160
 6369TIP3   OH219070   2.063   4.068   3.827
 6369TIP3    H119071   2.151   4.104   3.828
 6369TIP3    H219072   2.054   4.030   3.739
 6370TIP3   OH219073   6.197   4.478   1.620
 6370TIP3    H119074   6.237   4.564   1.614
 6370TIP3    H219075   6.264   4.423   1.662
 6371TIP3   OH219076   2.166   6.473   5.659
 6371TIP3    H119077   2.202   6.531   5.725
 6371TIP3    H219078   2.090   6.432   5.702
 6372TIP3   OH219079   0.359   3.421   4.172
 6372TIP3    H119080   0.390   3.510   4.191
 6372TIP3    H219081   0.290   3.433   4.106
 6373TIP3   OH219082   2.989   1.869   0.174
 6373TIP3    H119083   3.059   1.859   0.109
 6373TIP3    H219084   2.909   1.845   0.127
 6374TIP3   OH219085   0.397   2.125   4.082
 6374TIP3    H119086   0.379   2.108   4.175
 6374TIP3    H219087   0.431   2.041   4.049
 6375TIP3   OH219088   7.215   3.250   3.028
 6375TIP3    H119089   7.142   3.300   3.064
 6375TIP3    H219090   7.180   3.211   2.948
 6376TIP3   OH219091   5.119   2.744   4.623
 6376TIP3    H119092   5.207   2.708   4.635
 6376TIP3    H219093   5.064   2.667   4.607
 6377TIP3   OH219094   3.603   2.336   1.737
 6377TIP3    H119095   3.573   2.427   1.731
 6377TIP3    H219096   3.682   2.340   1.791
 6378TIP3   OH219097   4.953   0.656   2.219
 6378TIP3    H119098   4.878   0.650   2.278
 6378TIP3    H219099   4.981   0.747   2.225
 6379TIP3   OH219100   5.387   4.825   0.555
 6379TIP3    H119101   5.481   4.819   0.573
 6379TIP3    H219102   5.358   4.900   0.607
 6380TIP3   OH219103   1.350   0.854   2.286
 6380TIP3    H119104   1.264   0.893   2.299
 6380TIP3    H219105   1.363   0.855   2.191
 6381TIP3   OH219106   6.784   6.066   2.977
 6381TIP3    H119107   6.800   6.009   2.902
 6381TIP3    H219108   6.799   6.155   2.943
 6382TIP3   OH219109   6.141   5.912   2.809
 6382TIP3    H119110   6.150   5.994   2.858
 6382TIP3    H219111   6.137   5.940   2.718
 6383TIP3   OH219112   5.993   0.701   4.310
 6383TIP3    H119113   5.945   0.783   4.297
 6383TIP3    H219114   6.081   0.718   4.275
 6384TIP3   OH219115   0.441   2.898   2.947
 6384TIP3    H119116   0.490   2.817   2.934
 6384TIP3    H219117   0.460   2.923   3.038
 6385TIP3   OH219118   2.109   6.700   3.732
 6385TIP3    H119119   2.180   6.740   3.782
 6385TIP3    H219120   2.036   6.697   3.793
 6386TIP3   OH219121   4.924   5.005   0.152
 6386TIP3    H119122   4.926   4.915   0.185
 6386TIP3    H219123   4.943   4.997   0.058
 6387TIP3   OH219124   5.316   6.035   1.788
 6387TIP3    H119125   5.297   5.999   1.875
 6387TIP3    H219126   5.331   5.957   1.733
 6388TIP3   OH219127   5.179   1.736   2.284
 6388TIP3    H119128   5.121   1.683   2.339
 6388TIP3    H219129   5.257   1.749   2.338
 6389TIP3   OH219130   6.858   3.670   3.290
 6389TIP3    H119131   6.823   3.748   3.334
 6389TIP3    H219132   6.818   3.671   3.203
 6390TIP3   OH219133   1.807   5.052   0.312
 6390TIP3    H119134   1.795   5.144   0.285
 6390TIP3    H219135   1.731   5.007   0.276
 6391TIP3   OH219136   4.045   1.508   1.419
 6391TIP3    H119137   4.013   1.547   1.501
 6391TIP3    H219138   4.002   1.558   1.350
 6392TIP3   OH219139   4.694   1.944   5.698
 6392TIP3    H119140   4.713   1.953   5.604
 6392TIP3    H219141   4.714   1.853   5.718
 6393TIP3   OH219142   3.552   6.204   2.467
 6393TIP3    H119143   3.479   6.173   2.413
 6393TIP3    H219144   3.529   6.177   2.556
 6394TIP3   OH219145   1.662   5.764   1.147
 6394TIP3    H119146   1.698   5.684   1.108
 6394TIP3    H219147   1.740   5.817   1.165
 6395TIP3   OH219148   3.355   3.759   4.150
 6395TIP3    H119149   3.266   3.779   4.121
 6395TIP3    H219150   3.396   3.845   4.160
 6396TIP3   OH219151   7.037   4.299   3.229
 6396TIP3    H119152   7.006   4.209   3.237
 6396TIP3    H219153   6.987   4.346   3.296
 6397TIP3   OH219154   2.065   4.014   1.185
 6397TIP3    H119155   1.975   3.987   1.200
 6397TIP3    H219156   2.062   4.110   1.187
 6398TIP3   OH219157   4.476   0.631   3.457
 6398TIP3    H119158   4.422   0.704   3.488
 6398TIP3    H219159   4.444   0.613   3.368
 6399TIP3   OH219160   2.396   6.559   2.751
 6399TIP3    H119161   2.441   6.489   2.704
 6399TIP3    H219162   2.311   6.523   2.775
 6400TIP3   OH219163   4.233   6.329   2.040
 6400TIP3    H119164   4.169   6.395   2.068
 6400TIP3    H219165   4.300   6.330   2.109
 6401TIP3   OH219166   3.164   1.792   5.148
 6401TIP3    H119167   3.217   1.871   5.159
 6401TIP3    H219168   3.164   1.751   5.235
 6402TIP3   OH219169   6.822   4.653   0.715
 6402TIP3    H119170   6.914   4.644   0.692
 6402TIP3    H219171   6.808   4.747   0.722
 6403TIP3   OH219172   4.161   4.692   2.135
 6403TIP3    H119173   4.193   4.607   2.166
 6403TIP3    H219174   4.099   4.670   2.065
 6404TIP3   OH219175   6.058   2.996   2.868
 6404TIP3    H119176   6.053   3.046   2.787
 6404TIP3    H219177   6.031   2.907   2.844
 6405TIP3   OH219178   0.378   6.576   3.820
 6405TIP3    H119179   0.328   6.560   3.900
 6405TIP3    H219180   0.334   6.649   3.778
 6406TIP3   OH219181   1.755   1.018   3.511
 6406TIP3    H119182   1.764   1.025   3.416
 6406TIP3    H219183   1.710   0.935   3.525
 6407TIP3   OH219184   4.725   3.214   3.654
 6407TIP3    H119185   4.809   3.260   3.650
 6407TIP3    H219186   4.745   3.132   3.701
 6408TIP3   OH219187   4.505   0.027   1.189
 6408TIP3    H119188   4.439   0.052   1.253
 6408TIP3    H219189   4.531   0.109   1.147
 6409TIP3   OH219190   6.585   6.589   0.613
 6409TIP3    H119191   6.673   6.622   0.626
 6409TIP3    H219192   6.546   6.648   0.547
 6410TIP3   OH219193   3.782   1.777   2.899
 6410TIP3    H119194   3.799   1.747   2.810
 6410TIP3    H219195   3.765   1.696   2.948
 6411TIP3   OH219196   1.230   1.213   4.002
 6411TIP3    H119197   1.271   1.298   3.987
 6411TIP3    H219198   1.147   1.217   3.955
 6412TIP3   OH219199   6.571   6.521   2.415
 6412TIP3    H119200   6.534   6.583   2.478
 6412TIP3    H219201   6.578   6.571   2.333
 6413TIP3   OH219202   3.715   3.525   1.306
 6413TIP3    H119203   3.786   3.512   1.369
 6413TIP3    H219204   3.700   3.619   1.305
 6414TIP3   OH219205   6.688   5.024   4.038
 6414TIP3    H119206   6.765   4.981   4.000
 6414TIP3    H219207   6.653   4.960   4.100
 6415TIP3   OH219208   3.781   1.748   2.435
 6415TIP3    H119209   3.705   1.800   2.459
 6415TIP3    H219210   3.751   1.694   2.362
 6416TIP3   OH219211   6.663   3.260   0.329
 6416TIP3    H119212   6.581   3.301   0.358
 6416TIP3    H219213   6.661   3.268   0.233
 6417TIP3   OH219214   3.513   1.703   3.743
 6417TIP3    H119215   3.457   1.774   3.713
 6417TIP3    H219216   3.554   1.736   3.823
 6418TIP3   OH219217   1.273   0.492   0.173
 6418TIP3    H119218   1.346   0.479   0.234
 6418TIP3    H219219   1.215   0.418   0.191
 6419TIP3   OH219220   3.845   4.995   0.224
 6419TIP3    H119221   3.753   5.021   0.217
 6419TIP3    H219222   3.844   4.900   0.207
 6420TIP3   OH219223   2.073   2.613   1.079
 6420TIP3    H119224   2.005   2.653   1.026
 6420TIP3    H219225   2.060   2.519   1.069
 6421TIP3   OH219226   2.621   0.159   1.698
 6421TIP3    H119227   2.687   0.114   1.751
 6421TIP3    H219228   2.559   0.195   1.762
 6422TIP3   OH219229   7.017   0.325   2.758
 6422TIP3    H119230   7.009   0.399   2.820
 6422TIP3    H219231   7.066   0.259   2.807
 6423TIP3   OH219232   5.874   4.514   0.920
 6423TIP3    H119233   5.966   4.531   0.938
 6423TIP3    H219234   5.830   4.595   0.944
 6424TIP3   OH219235   1.572   5.934  -0.019
 6424TIP3    H119236   1.634   5.928   0.053
 6424TIP3    H219237   1.528   5.849  -0.021
 6425TIP3   OH219238   3.320   2.637   5.777
 6425TIP3    H119239   3.231   2.671   5.767
 6425TIP3    H219240   3.368   2.708   5.821
 6426TIP3   OH219241   6.476   0.041   0.201
 6426TIP3    H119242   6.463   0.102   0.274
 6426TIP3    H219243   6.554   0.073   0.157
 6427TIP3   OH219244   6.184   1.532   3.457
 6427TIP3    H119245   6.144   1.604   3.506
 6427TIP3    H219246   6.276   1.533   3.482
 6428TIP3   OH219247   2.547   3.573   0.987
 6428TIP3    H119248   2.554   3.600   0.896
 6428TIP3    H219249   2.487   3.498   0.985
 6429TIP3   OH219250   2.128   2.855   2.532
 6429TIP3    H119251   2.039   2.829   2.557
 6429TIP3    H219252   2.135   2.831   2.439
 6430TIP3   OH219253   6.952   0.815   3.339
 6430TIP3    H119254   7.011   0.884   3.369
 6430TIP3    H219255   6.898   0.795   3.415
 6431TIP3   OH219256   3.953   6.641   2.941
 6431TIP3    H119257   3.963   6.595   2.858
 6431TIP3    H219258   3.904   6.580   2.996
 6432TIP3   OH219259   6.442   3.227   5.520
 6432TIP3    H119260   6.442   3.159   5.453
 6432TIP3    H219261   6.415   3.181   5.600
 6433TIP3   OH219262   2.661   0.993   0.582
 6433TIP3    H119263   2.611   1.068   0.615
 6433TIP3    H219264   2.597   0.923   0.573
 6434TIP3   OH219265   5.920   1.562   0.476
 6434TIP3    H119266   6.005   1.541   0.438
 6434TIP3    H219267   5.912   1.503   0.551
 6435TIP3   OH219268   2.612   2.179   1.552
 6435TIP3    H119269   2.595   2.205   1.642
 6435TIP3    H219270   2.597   2.258   1.500
 6436TIP3   OH219271   3.312   6.310   4.202
 6436TIP3    H119272   3.390   6.344   4.245
 6436TIP3    H219273   3.344   6.267   4.124
 6437TIP3   OH219274   6.285   3.536   0.276
 6437TIP3    H119275   6.276   3.625   0.240
 6437TIP3    H219276   6.197   3.499   0.271
 6438TIP3   OH219277   0.153   4.151   1.108
 6438TIP3    H119278   0.208   4.223   1.078
 6438TIP3    H219279   0.202   4.111   1.179
 6439TIP3   OH219280   3.144   4.433   0.105
 6439TIP3    H119281   3.071   4.382   0.138
 6439TIP3    H219282   3.191   4.462   0.184
 6440TIP3   OH219283   2.304   1.838   1.778
 6440TIP3    H119284   2.262   1.858   1.694
 6440TIP3    H219285   2.231   1.832   1.840
 6441TIP3   OH219286   6.885   0.026   5.437
 6441TIP3    H119287   6.953   0.090   5.460
 6441TIP3    H219288   6.907  -0.001   5.348
 6442TIP3   OH219289   1.409   2.781   1.103
 6442TIP3    H119290   1.461   2.818   1.175
 6442TIP3    H219291   1.347   2.849   1.081
 6443TIP3   OH219292   0.998   4.455   3.276
 6443TIP3    H119293   0.974   4.405   3.198
 6443TIP3    H219294   0.917   4.497   3.304
 6444TIP3   OH219295   6.557   3.874   2.515
 6444TIP3    H119296   6.527   3.883   2.605
 6444TIP3    H219297   6.572   3.963   2.485
 6445TIP3   OH219298   4.303   5.407   5.235
 6445TIP3    H119299   4.330   5.499   5.242
 6445TIP3    H219300   4.287   5.380   5.325
 6446TIP3   OH219301   5.586   2.466   0.358
 6446TIP3    H119302   5.620   2.413   0.286
 6446TIP3    H219303   5.665   2.503   0.399
 6447TIP3   OH219304   4.445   4.830   5.885
 6447TIP3    H119305   4.407   4.810   5.799
 6447TIP3    H219306   4.377   4.881   5.930
 6448TIP3   OH219307   5.341   1.196   5.535
 6448TIP3    H119308   5.367   1.120   5.587
 6448TIP3    H219309   5.423   1.237   5.509
 6449TIP3   OH219310   0.989   0.057   4.962
 6449TIP3    H119311   1.019   0.145   4.985
 6449TIP3    H219312   0.894   0.065   4.959
 6450TIP3   OH219313   1.331   2.442   1.708
 6450TIP3    H119314   1.363   2.382   1.776
 6450TIP3    H219315   1.254   2.483   1.746
 6451TIP3   OH219316   1.177   5.404   1.082
 6451TIP3    H119317   1.104   5.353   1.116
 6451TIP3    H219318   1.151   5.428   0.993
 6452TIP3   OH219319   1.566   6.092   4.829
 6452TIP3    H119320   1.485   6.091   4.777
 6452TIP3    H219321   1.616   6.165   4.793
 6453TIP3   OH219322   1.487   6.073   2.307
 6453TIP3    H119323   1.393   6.077   2.323
 6453TIP3    H219324   1.526   6.067   2.394
 6454TIP3   OH219325   6.054   2.740   3.978
 6454TIP3    H119326   5.970   2.711   4.015
 6454TIP3    H219327   6.120   2.706   4.037
 6455TIP3   OH219328   6.258   5.731   1.513
 6455TIP3    H119329   6.214   5.652   1.544
 6455TIP3    H219330   6.343   5.730   1.557
 6456TIP3   OH219331   3.312   1.171   1.741
 6456TIP3    H119332   3.364   1.222   1.678
 6456TIP3    H219333   3.255   1.117   1.686
 6457TIP3   OH219334   1.556   6.209   3.714
 6457TIP3    H119335   1.629   6.271   3.725
 6457TIP3    H219336   1.580   6.158   3.636
 6458TIP3   OH219337   5.927   6.501   1.218
 6458TIP3    H119338   5.996   6.473   1.157
 6458TIP3    H219339   5.863   6.547   1.164
 6459TIP3   OH219340   4.496   3.950   2.198
 6459TIP3    H119341   4.543   4.001   2.264
 6459TIP3    H219342   4.479   4.013   2.128
 6460TIP3   OH219343   5.065   2.508   4.255
 6460TIP3    H119344   5.122   2.583   4.240
 6460TIP3    H219345   5.040   2.515   4.348
 6461TIP3   OH219346   0.354   1.263   5.188
 6461TIP3    H119347   0.327   1.355   5.194
 6461TIP3    H219348   0.314   1.232   5.107
 6462TIP3   OH219349   2.175   2.949   0.412
 6462TIP3    H119350   2.173   3.034   0.369
 6462TIP3    H219351   2.083   2.928   0.427
 6463TIP3   OH219352   6.506   2.125   5.157
 6463TIP3    H119353   6.584   2.104   5.209
 6463TIP3    H219354   6.480   2.041   5.119
 6464TIP3   OH219355   5.627   6.239   5.001
 6464TIP3    H119356   5.663   6.327   4.999
 6464TIP3    H219357   5.607   6.219   4.909
 6465TIP3   OH219358   1.809   0.745   2.645
 6465TIP3    H119359   1.760   0.747   2.727
 6465TIP3    H219360   1.771   0.815   2.592
 6466TIP3   OH219361   0.022   3.347   1.413
 6466TIP3    H119362   0.095   3.398   1.448
 6466TIP3    H219363   0.008   3.384   1.325
 6467TIP3   OH219364   5.662   4.279   4.889
 6467TIP3    H119365   5.583   4.254   4.936
 6467TIP3    H219366   5.702   4.195   4.864
 6468TIP3   OH219367   5.274   1.274   4.916
 6468TIP3    H119368   5.301   1.331   4.845
 6468TIP3    H219369   5.179   1.267   4.907
 6469TIP3   OH219370   6.032   6.539   1.944
 6469TIP3    H119371   6.080   6.461   1.972
 6469TIP3    H219372   6.083   6.612   1.978
 6470TIP3   OH219373   5.342   0.824   2.516
 6470TIP3    H119374   5.354   0.797   2.425
 6470TIP3    H219375   5.397   0.764   2.567
 6471TIP3   OH219376   6.503   2.096   5.484
 6471TIP3    H119377   6.442   2.091   5.558
 6471TIP3    H219378   6.532   2.187   5.483
 6472TIP3   OH219379   4.208   0.248   2.407
 6472TIP3    H119380   4.207   0.340   2.431
 6472TIP3    H219381   4.164   0.245   2.322
 6473TIP3   OH219382   4.716   2.120   1.807
 6473TIP3    H119383   4.687   2.059   1.739
 6473TIP3    H219384   4.643   2.180   1.819
 6474TIP3   OH219385   1.861   4.120   3.074
 6474TIP3    H119386   1.893   4.041   3.031
 6474TIP3    H219387   1.906   4.192   3.029
 6475TIP3   OH219388   3.171   6.097   1.974
 6475TIP3    H119389   3.181   6.006   1.944
 6475TIP3    H219390   3.113   6.137   1.909
 6476TIP3   OH219391   0.029   0.743   0.715
 6476TIP3    H119392  -0.044   0.687   0.741
 6476TIP3    H219393   0.107   0.700   0.749
 6477TIP3   OH219394   5.245   2.140   1.361
 6477TIP3    H119395   5.240   2.196   1.438
 6477TIP3    H219396   5.175   2.075   1.374
 6478TIP3   OH219397   0.393   4.146   0.716
 6478TIP3    H119398   0.380   4.054   0.742
 6478TIP3    H219399   0.315   4.167   0.665
 6479TIP3   OH219400   2.241   5.596   0.529
 6479TIP3    H119401   2.282   5.589   0.443
 6479TIP3    H219402   2.311   5.573   0.591
 6480TIP3   OH219403   1.134   2.144   0.577
 6480TIP3    H119404   1.180   2.079   0.524
 6480TIP3    H219405   1.074   2.186   0.516
 6481TIP3   OH219406   6.661   5.508   4.161
 6481TIP3    H119407   6.623   5.424   4.187
 6481TIP3    H219408   6.753   5.489   4.144
 6482TIP3   OH219409   4.209   2.604   2.416
 6482TIP3    H119410   4.238   2.540   2.351
 6482TIP3    H219411   4.214   2.557   2.499
 6483TIP3   OH219412   5.119   0.731   4.067
 6483TIP3    H119413   5.063   0.791   4.117
 6483TIP3    H219414   5.057   0.675   4.021
 6484TIP3   OH219415   0.262   6.502   3.114
 6484TIP3    H119416   0.232   6.541   3.033
 6484TIP3    H219417   0.314   6.570   3.157
 6485TIP3   OH219418   1.654   1.782   4.052
 6485TIP3    H119419   1.663   1.781   3.957
 6485TIP3    H219420   1.742   1.804   4.084
 6486TIP3   OH219421   5.767   6.568   1.998
 6486TIP3    H119422   5.776   6.554   2.092
 6486TIP3    H219423   5.856   6.582   1.966
 6487TIP3   OH219424   4.362   1.312   5.741
 6487TIP3    H119425   4.271   1.292   5.762
 6487TIP3    H219426   4.357   1.373   5.667
 6488TIP3   OH219427   0.666   6.492   0.013
 6488TIP3    H119428   0.683   6.400  -0.008
 6488TIP3    H219429   0.710   6.505   0.097
 6489TIP3   OH219430   4.388   6.255   2.713
 6489TIP3    H119431   4.429   6.324   2.766
 6489TIP3    H219432   4.445   6.247   2.636
 6490TIP3   OH219433   0.891   0.842   2.087
 6490TIP3    H119434   0.868   0.910   2.150
 6490TIP3    H219435   0.987   0.837   2.091
 6491TIP3   OH219436   3.200   6.456   2.253
 6491TIP3    H119437   3.109   6.458   2.222
 6491TIP3    H219438   3.229   6.367   2.236
 6492TIP3   OH219439   6.560   5.151   5.490
 6492TIP3    H119440   6.655   5.148   5.500
 6492TIP3    H219441   6.540   5.245   5.480
 6493TIP3   OH219442   3.820   2.274   0.925
 6493TIP3    H119443   3.773   2.355   0.948
 6493TIP3    H219444   3.906   2.283   0.965
 6494TIP3   OH219445   6.335   0.183   3.263
 6494TIP3    H119446   6.276   0.234   3.319
 6494TIP3    H219447   6.277   0.135   3.205
 6495TIP3   OH219448   5.688   2.780   2.997
 6495TIP3    H119449   5.723   2.825   3.074
 6495TIP3    H219450   5.736   2.697   2.995
 6496TIP3   OH219451   2.202   3.766   4.527
 6496TIP3    H119452   2.118   3.809   4.542
 6496TIP3    H219453   2.254   3.831   4.480
 6497TIP3   OH219454   0.276   1.870   3.501
 6497TIP3    H119455   0.325   1.826   3.432
 6497TIP3    H219456   0.284   1.964   3.481
 6498TIP3   OH219457   1.775   4.755   1.906
 6498TIP3    H119458   1.864   4.787   1.919
 6498TIP3    H219459   1.775   4.722   1.816
 6499TIP3   OH219460   3.928   6.442   5.091
 6499TIP3    H119461   3.873   6.396   5.155
 6499TIP3    H219462   3.929   6.532   5.122
 6500TIP3   OH219463   0.574   3.428   0.159
 6500TIP3    H119464   0.498   3.426   0.100
 6500TIP3    H219465   0.537   3.417   0.246
 6501TIP3   OH219466   5.217   5.806   4.633
 6501TIP3    H119467   5.227   5.897   4.660
 6501TIP3    H219468   5.193   5.810   4.541
 6502TIP3   OH219469   6.226   3.558   3.845
 6502TIP3    H119470   6.191   3.594   3.763
 6502TIP3    H219471   6.185   3.471   3.852
 6503TIP3   OH219472   4.039   2.331   1.071
 6503TIP3    H119473   4.004   2.350   1.159
 6503TIP3    H219474   4.132   2.352   1.077
 6504TIP3   OH219475   3.341   1.019   3.487
 6504TIP3    H119476   3.288   1.083   3.536
 6504TIP3    H219477   3.298   0.935   3.504
 6505TIP3   OH219478   3.440   1.707   0.511
 6505TIP3    H119479   3.359   1.692   0.559
 6505TIP3    H219480   3.465   1.796   0.532
 6506TIP3   OH219481   2.508   6.197   1.246
 6506TIP3    H119482   2.465   6.255   1.183
 6506TIP3    H219483   2.594   6.236   1.260
 6507TIP3   OH219484   2.806   2.650   1.941
 6507TIP3    H119485   2.807   2.723   2.004
 6507TIP3    H219486   2.898   2.627   1.930
 6508TIP3   OH219487   6.276   1.513   3.947
 6508TIP3    H119488   6.303   1.539   4.035
 6508TIP3    H219489   6.319   1.576   3.889
 6509TIP3   OH219490   6.718   5.019   2.801
 6509TIP3    H119491   6.777   5.092   2.820
 6509TIP3    H219492   6.647   5.057   2.750
 6510TIP3   OH219493   2.187   2.668   1.328
 6510TIP3    H119494   2.161   2.632   1.243
 6510TIP3    H219495   2.251   2.605   1.362
 6511TIP3   OH219496   2.995   4.091   5.262
 6511TIP3    H119497   3.075   4.138   5.239
 6511TIP3    H219498   2.968   4.128   5.346
 6512TIP3   OH219499   4.943   4.416   3.786
 6512TIP3    H119500   4.928   4.406   3.692
 6512TIP3    H219501   4.906   4.502   3.808
 6513TIP3   OH219502   2.653  -0.008   5.105
 6513TIP3    H119503   2.695  -0.069   5.165
 6513TIP3    H219504   2.705   0.072   5.112
 6514TIP3   OH219505   1.816   3.169   5.792
 6514TIP3    H119506   1.807   3.261   5.766
 6514TIP3    H219507   1.831   3.173   5.887
 6515TIP3   OH219508   7.150   3.716   3.104
 6515TIP3    H119509   7.161   3.762   3.021
 6515TIP3    H219510   7.075   3.657   3.089
 6516TIP3   OH219511   5.033   4.194   5.563
 6516TIP3    H119512   5.081   4.112   5.574
 6516TIP3    H219513   5.098   4.262   5.581
 6517TIP3   OH219514   4.193   3.293   4.796
 6517TIP3    H119515   4.247   3.359   4.753
 6517TIP3    H219516   4.255   3.235   4.839
 6518TIP3   OH219517   4.097   1.937   1.159
 6518TIP3    H119518   4.011   1.945   1.201
 6518TIP3    H219519   4.148   2.010   1.195
 6519TIP3   OH219520   0.594   1.662   1.673
 6519TIP3    H119521   0.524   1.691   1.614
 6519TIP3    H219522   0.611   1.738   1.728
 6520TIP3   OH219523   0.019   1.622   3.940
 6520TIP3    H119524   0.025   1.645   4.032
 6520TIP3    H219525  -0.028   1.694   3.899
 6521TIP3   OH219526   5.501   0.705   3.049
 6521TIP3    H119527   5.503   0.785   2.997
 6521TIP3    H219528   5.444   0.646   3.000
 6522TIP3   OH219529   0.020   5.035   4.359
 6522TIP3    H119530   0.076   4.993   4.294
 6522TIP3    H219531  -0.060   5.057   4.311
 6523TIP3   OH219532   3.982   2.674   1.051
 6523TIP3    H119533   3.908   2.612   1.049
 6523TIP3    H219534   4.031   2.650   1.130
 6524TIP3   OH219535   0.280   6.182   4.088
 6524TIP3    H119536   0.262   6.172   4.182
 6524TIP3    H219537   0.325   6.266   4.082
 6525TIP3   OH219538   0.330   2.983   3.239
 6525TIP3    H119539   0.343   3.032   3.320
 6525TIP3    H219540   0.304   3.050   3.175
 6526TIP3   OH219541   1.348   0.679   3.954
 6526TIP3    H119542   1.296   0.675   4.034
 6526TIP3    H219543   1.436   0.654   3.982
 6527TIP3   OH219544   5.133   5.348   4.294
 6527TIP3    H119545   5.164   5.308   4.213
 6527TIP3    H219546   5.144   5.279   4.360
 6528TIP3   OH219547   2.322   5.899   4.133
 6528TIP3    H119548   2.347   5.965   4.068
 6528TIP3    H219549   2.395   5.897   4.195
 6529TIP3   OH219550   2.426   3.762   3.404
 6529TIP3    H119551   2.516   3.756   3.373
 6529TIP3    H219552   2.400   3.852   3.383
 6530TIP3   OH219553   5.185   5.448   3.766
 6530TIP3    H119554   5.280   5.444   3.762
 6530TIP3    H219555   5.166   5.481   3.854
 6531TIP3   OH219556   0.758   4.812   3.166
 6531TIP3    H119557   0.848   4.844   3.174
 6531TIP3    H219558   0.713   4.879   3.115
 6532TIP3   OH219559   1.814   1.040   1.484
 6532TIP3    H119560   1.794   1.107   1.549
 6532TIP3    H219561   1.749   0.972   1.499
 6533TIP3   OH219562   6.115   3.965   1.174
 6533TIP3    H119563   6.061   4.044   1.170
 6533TIP3    H219564   6.150   3.955   1.085
 6534TIP3   OH219565   0.802   1.418   4.526
 6534TIP3    H119566   0.707   1.421   4.522
 6534TIP3    H219567   0.830   1.506   4.499
 6535TIP3   OH219568   4.183   2.249   2.805
 6535TIP3    H119569   4.130   2.174   2.778
 6535TIP3    H219570   4.120   2.318   2.824
 6536TIP3   OH219571   5.240   4.641   1.492
 6536TIP3    H119572   5.204   4.693   1.420
 6536TIP3    H219573   5.215   4.551   1.470
 6537TIP3   OH219574   4.762   1.334   3.410
 6537TIP3    H119575   4.824   1.333   3.337
 6537TIP3    H219576   4.815   1.310   3.486
 6538TIP3   OH219577   7.087   0.465   1.187
 6538TIP3    H119578   7.016   0.456   1.252
 6538TIP3    H219579   7.133   0.381   1.192
 6539TIP3   OH219580   0.580   4.757   5.474
 6539TIP3    H119581   0.488   4.779   5.459
 6539TIP3    H219582   0.583   4.735   5.567
 6540TIP3   OH219583   5.131   0.447   4.337
 6540TIP3    H119584   5.079   0.438   4.257
 6540TIP3    H219585   5.108   0.533   4.371
 6541TIP3   OH219586   2.655   0.031   2.682
 6541TIP3    H119587   2.563   0.059   2.676
 6541TIP3    H219588   2.705   0.109   2.658
 6542TIP3   OH219589   2.133   2.346   1.016
 6542TIP3    H119590   2.153   2.269   0.963
 6542TIP3    H219591   2.155   2.320   1.105
 6543TIP3   OH219592   2.724   3.097   2.752
 6543TIP3    H119593   2.712   3.007   2.779
 6543TIP3    H219594   2.811   3.099   2.711
 6544TIP3   OH219595   4.929   6.082   0.210
 6544TIP3    H119596   4.936   6.025   0.134
 6544TIP3    H219597   4.843   6.063   0.248
 6545TIP3   OH219598   0.264   3.521   3.333
 6545TIP3    H119599   0.241   3.587   3.268
 6545TIP3    H219600   0.338   3.474   3.295
 6546TIP3   OH219601   6.480   4.304   1.485
 6546TIP3    H119602   6.523   4.226   1.452
 6546TIP3    H219603   6.445   4.277   1.570
 6547TIP3   OH219604   4.184   3.908   5.822
 6547TIP3    H119605   4.136   3.990   5.837
 6547TIP3    H219606   4.275   3.935   5.813
 6548TIP3   OH219607   1.586   3.917   2.458
 6548TIP3    H119608   1.580   4.011   2.472
 6548TIP3    H219609   1.520   3.899   2.390
 6549TIP3   OH219610   0.913   0.665   5.859
 6549TIP3    H119611   0.855   0.668   5.784
 6549TIP3    H219612   1.000   0.650   5.821
 6550TIP3   OH219613   3.844   3.347   4.192
 6550TIP3    H119614   3.843   3.319   4.284
 6550TIP3    H219615   3.752   3.348   4.167
 6551TIP3   OH219616   2.083   1.110   1.103
 6551TIP3    H119617   2.059   1.158   1.023
 6551TIP3    H219618   2.019   1.140   1.168
 6552TIP3   OH219619   0.794   1.016   2.265
 6552TIP3    H119620   0.764   0.964   2.339
 6552TIP3    H219621   0.828   1.096   2.304
 6553TIP3   OH219622   0.395   6.394  -0.067
 6553TIP3    H119623   0.483   6.431  -0.069
 6553TIP3    H219624   0.352   6.436   0.008
 6554TIP3   OH219625   4.960   1.042   1.570
 6554TIP3    H119626   4.981   1.004   1.485
 6554TIP3    H219627   4.865   1.045   1.572
 6555TIP3   OH219628   4.707   4.904   1.877
 6555TIP3    H119629   4.768   4.931   1.946
 6555TIP3    H219630   4.702   4.809   1.884
 6556TIP3   OH219631   6.710   5.451   5.685
 6556TIP3    H119632   6.677   5.443   5.595
 6556TIP3    H219633   6.784   5.511   5.679
 6557TIP3   OH219634   0.654   6.685   3.684
 6557TIP3    H119635   0.591   6.654   3.749
 6557TIP3    H219636   0.739   6.676   3.727
 6558TIP3   OH219637   1.132   6.545   0.674
 6558TIP3    H119638   1.071   6.619   0.663
 6558TIP3    H219639   1.113   6.513   0.762
 6559TIP3   OH219640   1.154   2.897   5.410
 6559TIP3    H119641   1.236   2.944   5.426
 6559TIP3    H219642   1.086   2.963   5.422
 6560TIP3   OH219643   1.195   3.394   2.436
 6560TIP3    H119644   1.119   3.437   2.475
 6560TIP3    H219645   1.267   3.456   2.449
 6561TIP3   OH219646   1.757   6.402   2.217
 6561TIP3    H119647   1.815   6.458   2.166
 6561TIP3    H219648   1.676   6.452   2.226
 6562TIP3   OH219649   1.468   2.174   3.932
 6562TIP3    H119650   1.529   2.172   4.006
 6562TIP3    H219651   1.514   2.223   3.864
 6563TIP3   OH219652   6.558   3.004   0.972
 6563TIP3    H119653   6.467   3.012   0.945
 6563TIP3    H219654   6.599   2.951   0.904
 6564TIP3   OH219655   5.513   4.587   4.983
 6564TIP3    H119656   5.470   4.510   4.946
 6564TIP3    H219657   5.486   4.659   4.926
 6565TIP3   OH219658   6.796   3.257   5.379
 6565TIP3    H119659   6.771   3.166   5.390
 6565TIP3    H219660   6.717   3.307   5.399
 6566TIP3   OH219661   2.952   2.368   5.334
 6566TIP3    H119662   2.863   2.383   5.303
 6566TIP3    H219663   3.003   2.354   5.255
 6567TIP3   OH219664   3.974   6.115   1.200
 6567TIP3    H119665   3.947   6.196   1.243
 6567TIP3    H219666   3.935   6.046   1.254
 6568TIP3   OH219667   3.582   2.084   1.621
 6568TIP3    H119668   3.556   2.047   1.706
 6568TIP3    H219669   3.608   2.174   1.642
 6569TIP3   OH219670   4.483   2.109   3.009
 6569TIP3    H119671   4.564   2.063   3.033
 6569TIP3    H219672   4.511   2.198   2.987
 6570TIP3   OH219673   3.744   5.344   0.764
 6570TIP3    H119674   3.811   5.409   0.741
 6570TIP3    H219675   3.792   5.277   0.812
 6571TIP3   OH219676   0.788   6.222   4.301
 6571TIP3    H119677   0.848   6.178   4.361
 6571TIP3    H219678   0.735   6.279   4.357
 6572TIP3   OH219679   0.760   5.065   3.375
 6572TIP3    H119680   0.796   5.038   3.290
 6572TIP3    H219681   0.692   5.001   3.393
 6573TIP3   OH219682   3.308   6.782   2.698
 6573TIP3    H119683   3.292   6.707   2.640
 6573TIP3    H219684   3.251   6.766   2.774
 6574TIP3   OH219685   6.659   1.141   4.100
 6574TIP3    H119686   6.695   1.228   4.119
 6574TIP3    H219687   6.649   1.139   4.005
 6575TIP3   OH219688   4.089   0.597   0.588
 6575TIP3    H119689   4.111   0.513   0.547
 6575TIP3    H219690   3.995   0.606   0.574
 6576TIP3   OH219691   3.274   1.829   1.947
 6576TIP3    H119692   3.283   1.908   2.000
 6576TIP3    H219693   3.194   1.843   1.896
 6577TIP3   OH219694   1.886   2.208   3.540
 6577TIP3    H119695   1.945   2.217   3.615
 6577TIP3    H219696   1.933   2.250   3.468
 6578TIP3   OH219697   2.773   4.660   5.039
 6578TIP3    H119698   2.862   4.655   5.072
 6578TIP3    H219699   2.721   4.607   5.099
 6579TIP3   OH219700   5.183   3.859   5.409
 6579TIP3    H119701   5.183   3.924   5.479
 6579TIP3    H219702   5.207   3.908   5.330
 6580TIP3   OH219703   2.778   2.277   1.188
 6580TIP3    H119704   2.862   2.302   1.228
 6580TIP3    H219705   2.751   2.354   1.139
 6581TIP3   OH219706   6.118   0.095   1.571
 6581TIP3    H119707   6.063   0.131   1.641
 6581TIP3    H219708   6.194   0.058   1.616
 6582TIP3   OH219709   5.442   2.627   0.645
 6582TIP3    H119710   5.405   2.557   0.591
 6582TIP3    H219711   5.456   2.699   0.583
 6583TIP3   OH219712   4.946   6.616   3.489
 6583TIP3    H119713   4.918   6.615   3.397
 6583TIP3    H219714   4.885   6.559   3.534
 6584TIP3   OH219715   4.819   2.878  -0.004
 6584TIP3    H119716   4.816   2.840  -0.092
 6584TIP3    H219717   4.797   2.805   0.054
 6585TIP3   OH219718   4.546   0.406   2.976
 6585TIP3    H119719   4.476   0.375   2.917
 6585TIP3    H219720   4.616   0.433   2.917
 6586TIP3   OH219721   2.104   1.262   4.850
 6586TIP3    H119722   2.102   1.357   4.838
 6586TIP3    H219723   2.147   1.230   4.770
 6587TIP3   OH219724   1.210   5.891   0.387
 6587TIP3    H119725   1.155   5.878   0.464
 6587TIP3    H219726   1.148   5.905   0.316
 6588TIP3   OH219727   5.011   1.185   2.637
 6588TIP3    H119728   5.032   1.109   2.582
 6588TIP3    H219729   5.084   1.245   2.626
 6589TIP3   OH219730   3.623   1.952   3.151
 6589TIP3    H119731   3.710   1.932   3.116
 6589TIP3    H219732   3.568   1.880   3.119
 6590TIP3   OH219733   4.319   6.219   1.427
 6590TIP3    H119734   4.260   6.257   1.362
 6590TIP3    H219735   4.367   6.152   1.378
 6591TIP3   OH219736   4.610   0.621   5.168
 6591TIP3    H119737   4.576   0.557   5.230
 6591TIP3    H219738   4.705   0.609   5.170
 6592TIP3   OH219739   2.724   6.181   5.234
 6592TIP3    H119740   2.757   6.267   5.261
 6592TIP3    H219741   2.780   6.119   5.280
 6593TIP3   OH219742   4.321   3.893   1.019
 6593TIP3    H119743   4.363   3.902   0.933
 6593TIP3    H219744   4.282   3.978   1.036
 6594TIP3   OH219745   5.463   3.474   1.013
 6594TIP3    H119746   5.503   3.413   1.075
 6594TIP3    H219747   5.495   3.560   1.041
 6595TIP3   OH219748   2.342   6.657   5.805
 6595TIP3    H119749   2.390   6.726   5.759
 6595TIP3    H219750   2.399   6.633   5.878
 6596TIP3   OH219751   4.541   1.300   2.536
 6596TIP3    H119752   4.522   1.319   2.628
 6596TIP3    H219753   4.472   1.345   2.487
 6597TIP3   OH219754   6.729   1.960   0.340
 6597TIP3    H119755   6.785   1.884   0.326
 6597TIP3    H219756   6.716   1.997   0.252
 6598TIP3   OH219757   0.111   1.816   3.077
 6598TIP3    H119758   0.086   1.819   3.169
 6598TIP3    H219759   0.202   1.845   3.076
 6599TIP3   OH219760   0.373   0.895   2.870
 6599TIP3    H119761   0.381   0.803   2.896
 6599TIP3    H219762   0.461   0.918   2.838
 6600TIP3   OH219763   0.155   1.101   5.045
 6600TIP3    H119764   0.079   1.086   4.989
 6600TIP3    H219765   0.124   1.163   5.112
 6601TIP3   OH219766   4.958   0.543   0.233
 6601TIP3    H119767   4.920   0.463   0.268
 6601TIP3    H219768   5.052   0.529   0.238
 6602TIP3   OH219769   6.002   6.128   2.352
 6602TIP3    H119770   5.931   6.142   2.415
 6602TIP3    H219771   6.004   6.034   2.338
 6603TIP3   OH219772   1.024   2.611   4.995
 6603TIP3    H119773   0.929   2.623   4.998
 6603TIP3    H219774   1.055   2.642   5.080
 6604TIP3   OH219775   5.379   4.796   3.079
 6604TIP3    H119776   5.291   4.827   3.059
 6604TIP3    H219777   5.366   4.735   3.152
 6605TIP3   OH219778   2.411   2.295   4.984
 6605TIP3    H119779   2.438   2.333   4.900
 6605TIP3    H219780   2.331   2.247   4.964
 6606TIP3   OH219781   6.707   5.957   0.003
 6606TIP3    H119782   6.735   5.877  -0.042
 6606TIP3    H219783   6.738   5.945   0.093
 6607TIP3   OH219784   2.292   1.709   0.244
 6607TIP3    H119785   2.217   1.768   0.248
 6607TIP3    H219786   2.350   1.739   0.314
 6608TIP3   OH219787   1.220   2.896   2.362
 6608TIP3    H119788   1.277   2.967   2.390
 6608TIP3    H219789   1.132   2.933   2.366
 6609TIP3   OH219790   0.586   5.879   0.247
 6609TIP3    H119791   0.552   5.867   0.335
 6609TIP3    H219792   0.588   5.974   0.235
 6610TIP3   OH219793   0.816   0.385   4.866
 6610TIP3    H119794   0.809   0.295   4.897
 6610TIP3    H219795   0.843   0.435   4.943
 6611TIP3   OH219796   2.411   5.912   1.719
 6611TIP3    H119797   2.334   5.968   1.714
 6611TIP3    H219798   2.423   5.894   1.813
 6612TIP3   OH219799   2.826   1.042   2.404
 6612TIP3    H119800   2.754   0.993   2.445
 6612TIP3    H219801   2.800   1.134   2.413
 6613TIP3   OH219802   0.870   2.794   1.279
 6613TIP3    H119803   0.919   2.731   1.226
 6613TIP3    H219804   0.805   2.831   1.218
 6614TIP3   OH219805   5.056   6.685   4.151
 6614TIP3    H119806   5.083   6.682   4.060
 6614TIP3    H219807   5.033   6.595   4.173
 6615TIP3   OH219808   0.480   0.841   0.881
 6615TIP3    H119809   0.404   0.869   0.933
 6615TIP3    H219810   0.478   0.745   0.885
 6616TIP3   OH219811   0.154   0.251   2.825
 6616TIP3    H119812   0.243   0.226   2.800
 6616TIP3    H219813   0.141   0.338   2.788
 6617TIP3   OH219814   0.702   3.729   2.117
 6617TIP3    H119815   0.745   3.800   2.068
 6617TIP3    H219816   0.745   3.730   2.203
 6618TIP3   OH219817   4.469   1.505   5.549
 6618TIP3    H119818   4.462   1.580   5.607
 6618TIP3    H219819   4.515   1.538   5.472
 6619TIP3   OH219820   5.781   6.143   5.609
 6619TIP3    H119821   5.687   6.159   5.612
 6619TIP3    H219822   5.798   6.117   5.518
 6620TIP3   OH219823   5.361   0.816   0.728
 6620TIP3    H119824   5.287   0.851   0.776
 6620TIP3    H219825   5.430   0.804   0.794
 6621TIP3   OH219826   4.607   3.175   4.074
 6621TIP3    H119827   4.702   3.168   4.080
 6621TIP3    H219828   4.580   3.211   4.159
 6622TIP3   OH219829   5.638   1.776   4.010
 6622TIP3    H119830   5.696   1.758   3.936
 6622TIP3    H219831   5.595   1.858   3.988
 6623TIP3   OH219832   3.477   4.009   4.188
 6623TIP3    H119833   3.549   4.063   4.154
 6623TIP3    H219834   3.465   4.040   4.278
 6624TIP3   OH219835   2.144   4.462   0.666
 6624TIP3    H119836   2.176   4.450   0.755
 6624TIP3    H219837   2.078   4.393   0.655
 6625TIP3   OH219838   4.429   1.622   1.928
 6625TIP3    H119839   4.481   1.671   1.993
 6625TIP3    H219840   4.481   1.626   1.848
 6626TIP3   OH219841   0.232   1.463   3.953
 6626TIP3    H119842   0.306   1.513   3.920
 6626TIP3    H219843   0.159   1.524   3.952
 6627TIP3   OH219844   1.592   4.511   0.291
 6627TIP3    H119845   1.498   4.528   0.289
 6627TIP3    H219846   1.627   4.571   0.357
 6628TIP3   OH219847   5.765   2.598   2.065
 6628TIP3    H119848   5.698   2.638   2.009
 6628TIP3    H219849   5.772   2.657   2.139
 6629TIP3   OH219850   5.022   4.273   3.324
 6629TIP3    H119851   5.028   4.183   3.357
 6629TIP3    H219852   5.110   4.292   3.291
 6630TIP3   OH219853   0.354   0.630   3.745
 6630TIP3    H119854   0.430   0.593   3.790
 6630TIP3    H219855   0.304   0.674   3.814
 6631TIP3   OH219856   2.152   5.204   1.186
 6631TIP3    H119857   2.152   5.139   1.116
 6631TIP3    H219858   2.066   5.244   1.181
 6632TIP3   OH219859   4.511   4.131   0.789
 6632TIP3    H119860   4.498   4.134   0.884
 6632TIP3    H219861   4.443   4.072   0.757
 6633TIP3   OH219862   5.023   6.071   0.576
 6633TIP3    H119863   5.074   6.046   0.653
 6633TIP3    H219864   4.937   6.094   0.611
 6634TIP3   OH219865   0.060   4.266   3.035
 6634TIP3    H119866   0.130   4.311   3.083
 6634TIP3    H219867  -0.007   4.248   3.101
 6635TIP3   OH219868   5.818   1.849   0.540
 6635TIP3    H119869   5.726   1.835   0.563
 6635TIP3    H219870   5.855   1.761   0.532
 6636TIP3   OH219871   6.146   0.780   0.605
 6636TIP3    H119872   6.056   0.758   0.629
 6636TIP3    H219873   6.148   0.876   0.604
 6637TIP3   OH219874   2.776   5.142   4.861
 6637TIP3    H119875   2.694   5.186   4.882
 6637TIP3    H219876   2.789   5.081   4.933
 6638TIP3   OH219877   1.444   4.144   4.564
 6638TIP3    H119878   1.531   4.105   4.554
 6638TIP3    H219879   1.456   4.216   4.626
 6639TIP3   OH219880   5.836   1.378   4.663
 6639TIP3    H119881   5.788   1.321   4.723
 6639TIP3    H219882   5.841   1.462   4.708
 6640TIP3   OH219883   3.539   3.067   2.264
 6640TIP3    H119884   3.450   3.047   2.292
 6640TIP3    H219885   3.590   3.071   2.345
 6641TIP3   OH219886   1.630   3.824   3.095
 6641TIP3    H119887   1.685   3.756   3.057
 6641TIP3    H219888   1.540   3.795   3.078
 6642TIP3   OH219889   6.184   6.207   0.686
 6642TIP3    H119890   6.144   6.123   0.705
 6642TIP3    H219891   6.124   6.272   0.723
 6643TIP3   OH219892   4.891   0.601   3.189
 6643TIP3    H119893   4.797   0.616   3.179
 6643TIP3    H219894   4.897   0.533   3.257
 6644TIP3   OH219895   0.356   3.415   0.017
 6644TIP3    H119896   0.321   3.327   0.001
 6644TIP3    H219897   0.280   3.467   0.043
 6645TIP3   OH219898   3.852   0.603   2.527
 6645TIP3    H119899   3.837   0.520   2.572
 6645TIP3    H219900   3.780   0.610   2.464
 6646TIP3   OH219901   4.630   0.897   1.228
 6646TIP3    H119902   4.593   0.861   1.147
 6646TIP3    H219903   4.685   0.970   1.200
 6647TIP3   OH219904   4.060   0.286   5.886
 6647TIP3    H119905   4.002   0.356   5.916
 6647TIP3    H219906   4.020   0.256   5.804
 6648TIP3   OH219907   4.350   3.670   4.241
 6648TIP3    H119908   4.426   3.672   4.300
 6648TIP3    H219909   4.304   3.589   4.263
 6649TIP3   OH219910   3.944   4.561   4.888
 6649TIP3    H119911   3.874   4.515   4.841
 6649TIP3    H219912   4.000   4.597   4.819
 6650TIP3   OH219913   2.010   3.911   2.947
 6650TIP3    H119914   1.993   3.894   2.855
 6650TIP3    H219915   2.102   3.888   2.960
 6651TIP3   OH219916   5.949   4.131   5.372
 6651TIP3    H119917   5.954   4.037   5.356
 6651TIP3    H219918   5.986   4.170   5.293
 6652TIP3   OH219919   3.664   0.427   5.515
 6652TIP3    H119920   3.675   0.488   5.589
 6652TIP3    H219921   3.600   0.469   5.459
 6653TIP3   OH219922   6.736   2.292   4.662
 6653TIP3    H119923   6.750   2.274   4.569
 6653TIP3    H219924   6.696   2.212   4.697
 6654TIP3   OH219925   2.271   3.168   3.801
 6654TIP3    H119926   2.183   3.193   3.774
 6654TIP3    H219927   2.265   3.159   3.896
 6655TIP3   OH219928   6.254   3.179   1.120
 6655TIP3    H119929   6.201   3.223   1.187
 6655TIP3    H219930   6.335   3.230   1.116
 6656TIP3   OH219931   3.273   1.274   3.663
 6656TIP3    H119932   3.201   1.231   3.710
 6656TIP3    H219933   3.261   1.367   3.682
 6657TIP3   OH219934   2.303   2.835   5.084
 6657TIP3    H119935   2.276   2.743   5.089
 6657TIP3    H219936   2.398   2.832   5.077
 6658TIP3   OH219937   6.878   1.915   5.536
 6658TIP3    H119938   6.844   1.916   5.446
 6658TIP3    H219939   6.819   1.858   5.584
 6659TIP3   OH219940   1.048   4.722   4.141
 6659TIP3    H119941   1.090   4.664   4.078
 6659TIP3    H219942   0.963   4.742   4.102
 6660TIP3   OH219943   5.612   2.308   4.917
 6660TIP3    H119944   5.682   2.268   4.969
 6660TIP3    H219945   5.592   2.390   4.963
 6661TIP3   OH219946   0.003   2.785   3.778
 6661TIP3    H119947   0.039   2.700   3.805
 6661TIP3    H219948  -0.003   2.835   3.860
 6662TIP3   OH219949   4.249   3.917   3.519
 6662TIP3    H119950   4.162   3.958   3.518
 6662TIP3    H219951   4.275   3.919   3.610
 6663TIP3   OH219952   2.568   3.502   2.775
 6663TIP3    H119953   2.549   3.462   2.860
 6663TIP3    H219954   2.501   3.467   2.717
 6664TIP3   OH219955   6.850   1.181   0.697
 6664TIP3    H119956   6.836   1.253   0.636
 6664TIP3    H219957   6.916   1.213   0.758
 6665TIP3   OH219958   5.659   4.875   1.260
 6665TIP3    H119959   5.580   4.852   1.212
 6665TIP3    H219960   5.669   4.969   1.247
 6666TIP3   OH219961   3.150   4.118   3.984
 6666TIP3    H119962   3.077   4.148   4.038
 6666TIP3    H219963   3.163   4.187   3.920
 6667TIP3   OH219964   5.642   1.097   5.240
 6667TIP3    H119965   5.669   1.150   5.165
 6667TIP3    H219966   5.547   1.089   5.231
 6668TIP3   OH219967   2.739   0.874   0.916
 6668TIP3    H119968   2.804   0.872   0.845
 6668TIP3    H219969   2.764   0.948   0.970
 6669TIP3   OH219970   1.200   5.922   5.645
 6669TIP3    H119971   1.176   5.835   5.611
 6669TIP3    H219972   1.294   5.929   5.629
 6670TIP3   OH219973   5.780   4.637   1.421
 6670TIP3    H119974   5.846   4.615   1.355
 6670TIP3    H219975   5.703   4.664   1.370
 6671TIP3   OH219976   1.214   1.436   0.316
 6671TIP3    H119977   1.142   1.471   0.264
 6671TIP3    H219978   1.248   1.511   0.364
 6672TIP3   OH219979   5.599   6.150   0.688
 6672TIP3    H119980   5.620   6.106   0.606
 6672TIP3    H219981   5.506   6.172   0.680
 6673TIP3   OH219982   3.369   0.854   1.542
 6673TIP3    H119983   3.455   0.859   1.584
 6673TIP3    H219984   3.364   0.765   1.507
 6674TIP3   OH219985   5.744   4.751   1.011
 6674TIP3    H119986   5.716   4.821   0.952
 6674TIP3    H219987   5.699   4.771   1.093
 6675TIP3   OH219988   6.552   6.410   4.411
 6675TIP3    H119989   6.525   6.349   4.480
 6675TIP3    H219990   6.591   6.483   4.458
 6676TIP3   OH219991   5.538   5.012   2.962
 6676TIP3    H119992   5.548   5.074   3.034
 6676TIP3    H219993   5.481   4.943   2.997
 6677TIP3   OH219994   1.142   5.798   4.403
 6677TIP3    H119995   1.049   5.816   4.402
 6677TIP3    H219996   1.169   5.804   4.311
 6678TIP3   OH219997   5.554   1.213   5.760
 6678TIP3    H119998   5.504   1.138   5.728
 6678TIP3    H219999   5.645   1.190   5.746
 6679TIP3   OH220000   5.785   5.262   2.634
 6679TIP3    H120001   5.850   5.283   2.566
 6679TIP3    H220002   5.771   5.346   2.679
 6680TIP3   OH220003   4.601   5.385   2.466
 6680TIP3    H120004   4.509   5.370   2.444
 6680TIP3    H220005   4.629   5.302   2.506
 6681TIP3   OH220006   2.252   0.624   0.017
 6681TIP3    H120007   2.326   0.599   0.073
 6681TIP3    H220008   2.281   0.706  -0.024
 6682TIP3   OH220009   3.354   4.181   2.040
 6682TIP3    H120010   3.390   4.097   2.010
 6682TIP3    H220011   3.356   4.237   1.962
 6683TIP3   OH220012   6.389   0.984   3.119
 6683TIP3    H120013   6.320   0.985   3.186
 6683TIP3    H220014   6.470   0.995   3.169
 6684TIP3   OH220015   1.268   6.418   3.094
 6684TIP3    H120016   1.252   6.324   3.095
 6684TIP3    H220017   1.282   6.442   3.185
 6685TIP3   OH220018   3.004   3.825   0.174
 6685TIP3    H120019   3.043   3.780   0.098
 6685TIP3    H220020   3.044   3.912   0.173
 6686TIP3   OH220021   3.453   0.334   1.128
 6686TIP3    H120022   3.379   0.384   1.092
 6686TIP3    H220023   3.423   0.243   1.126
 6687TIP3   OH220024   2.883   2.126   3.917
 6687TIP3    H120025   2.965   2.078   3.900
 6687TIP3    H220026   2.834   2.119   3.836
 6688TIP3   OH220027   4.393   3.251   2.640
 6688TIP3    H120028   4.394   3.194   2.564
 6688TIP3    H220029   4.402   3.340   2.603
 6689TIP3   OH220030   4.570   0.988   0.929
 6689TIP3    H120031   4.644   1.044   0.954
 6689TIP3    H220032   4.605   0.899   0.932
 6690TIP3   OH220033   2.128   2.100   4.223
 6690TIP3    H120034   2.133   2.181   4.171
 6690TIP3    H220035   2.122   2.030   4.158
 6691TIP3   OH220036   6.370   3.346  -0.014
 6691TIP3    H120037   6.389   3.438  -0.035
 6691TIP3    H220038   6.450   3.299  -0.035
 6692TIP3   OH220039   6.593   2.086   4.796
 6692TIP3    H120040   6.638   2.002   4.787
 6692TIP3    H220041   6.500   2.065   4.790
 6693TIP3   OH220042   1.905   0.455   2.566
 6693TIP3    H120043   1.977   0.425   2.511
 6693TIP3    H220044   1.867   0.528   2.518
 6694TIP3   OH220045  -0.008   5.872   4.322
 6694TIP3    H120046  -0.046   5.869   4.410
 6694TIP3    H220047   0.076   5.828   4.331
 6695TIP3   OH220048   4.388   4.411   3.792
 6695TIP3    H120049   4.460   4.405   3.729
 6695TIP3    H220050   4.370   4.320   3.816
 6696TIP3   OH220051   6.397   2.662   4.713
 6696TIP3    H120052   6.489   2.690   4.713
 6696TIP3    H220053   6.399   2.573   4.678
 6697TIP3   OH220054   0.679   1.226   0.037
 6697TIP3    H120055   0.762   1.261   0.070
 6697TIP3    H220056   0.694   1.132   0.031
 6698TIP3   OH220057   1.508   1.850   3.495
 6698TIP3    H120058   1.575   1.851   3.563
 6698TIP3    H220059   1.450   1.778   3.520
 6699TIP3   OH220060   1.657   6.387   3.948
 6699TIP3    H120061   1.562   6.381   3.938
 6699TIP3    H220062   1.689   6.415   3.862
 6700TIP3   OH220063   5.667   5.889   0.405
 6700TIP3    H120064   5.679   5.815   0.346
 6700TIP3    H220065   5.672   5.851   0.493
 6701TIP3   OH220066   2.777   1.979   1.982
 6701TIP3    H120067   2.756   2.039   2.053
 6701TIP3    H220068   2.693   1.959   1.941
 6702TIP3   OH220069   1.722   3.024   2.910
 6702TIP3    H120070   1.680   3.086   2.970
 6702TIP3    H220071   1.703   3.058   2.823
 6703TIP3   OH220072   4.429   6.322   3.880
 6703TIP3    H120073   4.406   6.289   3.793
 6703TIP3    H220074   4.480   6.402   3.863
 6704TIP3   OH220075   2.975   3.264   1.441
 6704TIP3    H120076   3.007   3.347   1.478
 6704TIP3    H220077   3.043   3.200   1.464
 6705TIP3   OH220078   4.380   2.795   3.383
 6705TIP3    H120079   4.351   2.856   3.316
 6705TIP3    H220080   4.341   2.711   3.358
 6706TIP3   OH220081   0.088   4.424   4.278
 6706TIP3    H120082   0.171   4.382   4.257
 6706TIP3    H220083   0.111   4.516   4.294
 6707TIP3   OH220084   6.358   6.026   4.982
 6707TIP3    H120085   6.310   6.054   4.905
 6707TIP3    H220086   6.341   5.932   4.989
 6708TIP3   OH220087   3.918   0.257   3.761
 6708TIP3    H120088   3.899   0.237   3.852
 6708TIP3    H220089   3.991   0.201   3.737
 6709TIP3   OH220090   1.533   1.830   3.201
 6709TIP3    H120091   1.535   1.753   3.257
 6709TIP3    H220092   1.472   1.890   3.244
 6710TIP3   OH220093   1.841   3.237   5.414
 6710TIP3    H120094   1.848   3.273   5.502
 6710TIP3    H220095   1.932   3.217   5.390
 6711TIP3   OH220096   3.444   2.608   5.039
 6711TIP3    H120097   3.531   2.576   5.065
 6711TIP3    H220098   3.386   2.533   5.051
 6712TIP3   OH220099   2.752   1.668   1.374
 6712TIP3    H120100   2.733   1.752   1.416
 6712TIP3    H220101   2.668   1.640   1.337
 6713TIP3   OH220102   0.671   3.572   1.003
 6713TIP3    H120103   0.715   3.654   1.025
 6713TIP3    H220104   0.712   3.506   1.059
 6714TIP3   OH220105   5.332   2.456   5.580
 6714TIP3    H120106   5.322   2.482   5.671
 6714TIP3    H220107   5.267   2.386   5.568
 6715TIP3   OH220108   7.041   1.631   1.058
 6715TIP3    H120109   6.995   1.685   1.121
 6715TIP3    H220110   7.025   1.541   1.086
 6716TIP3   OH220111   5.335   4.634   3.977
 6716TIP3    H120112   5.277   4.688   3.924
 6716TIP3    H220113   5.289   4.550   3.985
 6717TIP3   OH220114   0.956   0.958   4.244
 6717TIP3    H120115   1.038   1.006   4.260
 6717TIP3    H220116   0.933   0.922   4.330
 6718TIP3   OH220117   5.075   3.396   2.312
 6718TIP3    H120118   5.109   3.315   2.275
 6718TIP3    H220119   5.150   3.432   2.361
 6719TIP3   OH220120   5.996   5.855   1.736
 6719TIP3    H120121   5.962   5.922   1.795
 6719TIP3    H220122   6.014   5.780   1.793
 6720TIP3   OH220123   6.640   6.757   3.573
 6720TIP3    H120124   6.720   6.776   3.523
 6720TIP3    H220125   6.648   6.664   3.595
 6721TIP3   OH220126   5.572   4.637   3.257
 6721TIP3    H120127   5.659   4.633   3.296
 6721TIP3    H220128   5.585   4.686   3.176
 6722TIP3   OH220129   5.247   4.077   0.062
 6722TIP3    H120130   5.281   4.062   0.150
 6722TIP3    H220131   5.182   4.007   0.050
 6723TIP3   OH220132   5.380   4.523   0.505
 6723TIP3    H120133   5.352   4.512   0.596
 6723TIP3    H220134   5.388   4.618   0.494
 6724TIP3   OH220135   3.364   2.735   0.728
 6724TIP3    H120136   3.345   2.788   0.651
 6724TIP3    H220137   3.279   2.697   0.752
 6725TIP3   OH220138   5.764   5.638   2.463
 6725TIP3    H120139   5.852   5.602   2.450
 6725TIP3    H220140   5.745   5.685   2.382
 6726TIP3   OH220141   3.848   3.144   0.229
 6726TIP3    H120142   3.842   3.207   0.301
 6726TIP3    H220143   3.924   3.173   0.178
 6727TIP3   OH220144   5.241   5.818   5.255
 6727TIP3    H120145   5.218   5.729   5.228
 6727TIP3    H220146   5.304   5.847   5.190
 6728TIP3   OH220147   7.140   0.927   5.257
 6728TIP3    H120148   7.067   0.987   5.243
 6728TIP3    H220149   7.109   0.843   5.221
 6729TIP3   OH220150   3.307   1.914   2.991
 6729TIP3    H120151   3.241   1.855   2.954
 6729TIP3    H220152   3.377   1.857   3.020
 6730TIP3   OH220153   2.274   6.170   4.284
 6730TIP3    H120154   2.309   6.112   4.352
 6730TIP3    H220155   2.347   6.182   4.223
 6731TIP3   OH220156   3.479   6.064   3.240
 6731TIP3    H120157   3.483   6.033   3.330
 6731TIP3    H220158   3.386   6.082   3.225
 6732TIP3   OH220159   6.537   3.387   1.317
 6732TIP3    H120160   6.616   3.431   1.347
 6732TIP3    H220161   6.521   3.318   1.381
 6733TIP3   OH220162   1.039   2.232   3.680
 6733TIP3    H120163   1.086   2.150   3.692
 6733TIP3    H220164   1.107   2.299   3.676
 6734TIP3   OH220165   6.674   2.119   0.722
 6734TIP3    H120166   6.621   2.143   0.798
 6734TIP3    H220167   6.690   2.201   0.676
 6735TIP3   OH220168   5.594   2.488   1.506
 6735TIP3    H120169   5.628   2.552   1.569
 6735TIP3    H220170   5.520   2.533   1.464
 6736TIP3   OH220171   1.262   6.340   2.202
 6736TIP3    H120172   1.281   6.433   2.214
 6736TIP3    H220173   1.302   6.298   2.278
 6737TIP3   OH220174   6.116   2.165   3.208
 6737TIP3    H120175   6.122   2.206   3.294
 6737TIP3    H220176   6.187   2.102   3.206
 6738TIP3   OH220177   4.828   0.186   1.115
 6738TIP3    H120178   4.920   0.164   1.097
 6738TIP3    H220179   4.817   0.166   1.208
 6739TIP3   OH220180   0.294   1.140   2.920
 6739TIP3    H120181   0.327   1.055   2.892
 6739TIP3    H220182   0.208   1.148   2.878
 6740TIP3   OH220183   7.076   1.570   5.403
 6740TIP3    H120184   7.065   1.576   5.498
 6740TIP3    H220185   7.171   1.578   5.389
 6741TIP3   OH220186   5.878   2.310   1.242
 6741TIP3    H120187   5.965   2.287   1.210
 6741TIP3    H220188   5.893   2.350   1.327
 6742TIP3   OH220189   6.332   2.891   2.476
 6742TIP3    H120190   6.387   2.813   2.482
 6742TIP3    H220191   6.365   2.937   2.399
 6743TIP3   OH220192   2.227   2.066   5.356
 6743TIP3    H120193   2.262   2.003   5.420
 6743TIP3    H220194   2.132   2.062   5.369
 6744TIP3   OH220195   5.643   5.187   3.142
 6744TIP3    H120196   5.642   5.278   3.110
 6744TIP3    H220197   5.703   5.188   3.216
 6745TIP3   OH220198   7.168   2.797   2.601
 6745TIP3    H120199   7.176   2.751   2.685
 6745TIP3    H220200   7.248   2.775   2.554
 6746TIP3   OH220201   0.558   5.863   0.525
 6746TIP3    H120202   0.612   5.832   0.598
 6746TIP3    H220203   0.592   5.950   0.506
 6747TIP3   OH220204   0.296   5.900   1.060
 6747TIP3    H120205   0.328   5.989   1.047
 6747TIP3    H220206   0.259   5.901   1.149
 6748TIP3   OH220207   5.678   1.250   4.182
 6748TIP3    H120208   5.633   1.270   4.100
 6748TIP3    H220209   5.722   1.331   4.206
 6749TIP3   OH220210   1.432   1.871   5.814
 6749TIP3    H120211   1.383   1.852   5.893
 6749TIP3    H220212   1.427   1.792   5.762
 6750TIP3   OH220213   5.269   3.771   0.588
 6750TIP3    H120214   5.179   3.803   0.582
 6750TIP3    H220215   5.270   3.693   0.533
 6751TIP3   OH220216   5.752   4.131   0.558
 6751TIP3    H120217   5.670   4.164   0.595
 6751TIP3    H220218   5.797   4.210   0.528
 6752TIP3   OH220219   2.379   6.347   5.866
 6752TIP3    H120220   2.424   6.277   5.819
 6752TIP3    H220221   2.350   6.407   5.797
 6753TIP3   OH220222   5.368   1.468   5.286
 6753TIP3    H120223   5.429   1.434   5.352
 6753TIP3    H220224   5.285   1.425   5.305
 6754TIP3   OH220225   4.931   2.168   5.573
 6754TIP3    H120226   4.998   2.201   5.514
 6754TIP3    H220227   4.895   2.246   5.616
 6755TIP3   OH220228   3.846   1.265   4.652
 6755TIP3    H120229   3.869   1.297   4.565
 6755TIP3    H220230   3.830   1.171   4.640
 6756TIP3   OH220231   5.575   5.481   1.366
 6756TIP3    H120232   5.647   5.428   1.333
 6756TIP3    H220233   5.520   5.420   1.415
 6757TIP3   OH220234   5.225   4.030   5.633
 6757TIP3    H120235   5.222   3.938   5.661
 6757TIP3    H220236   5.317   4.055   5.645
 6758TIP3   OH220237   0.441   1.725   2.400
 6758TIP3    H120238   0.508   1.680   2.348
 6758TIP3    H220239   0.412   1.659   2.463
 6759TIP3   OH220240   2.289   4.515   3.465
 6759TIP3    H120241   2.344   4.592   3.451
 6759TIP3    H220242   2.266   4.487   3.377
 6760TIP3   OH220243   5.082   4.980   3.491
 6760TIP3    H120244   5.136   5.057   3.474
 6760TIP3    H220245   5.016   4.982   3.421
 6761TIP3   OH220246   5.441   6.147   0.235
 6761TIP3    H120247   5.369   6.151   0.298
 6761TIP3    H220248   5.409   6.091   0.165
 6762TIP3   OH220249   3.187   5.803   1.033
 6762TIP3    H120250   3.225   5.819   1.120
 6762TIP3    H220251   3.121   5.736   1.048
 6763TIP3   OH220252   2.271   6.332   1.148
 6763TIP3    H120253   2.192   6.288   1.179
 6763TIP3    H220254   2.271   6.416   1.193
 6764TIP3   OH220255   5.687   1.490   4.454
 6764TIP3    H120256   5.739   1.530   4.385
 6764TIP3    H220257   5.751   1.464   4.520
 6765TIP3   OH220258   4.728   2.777   0.609
 6765TIP3    H120259   4.689   2.843   0.666
 6765TIP3    H220260   4.662   2.761   0.542
 6766TIP3   OH220261   4.001   4.919   1.964
 6766TIP3    H120262   3.943   4.992   1.945
 6766TIP3    H220263   3.942   4.843   1.970
 6767TIP3   OH220264   4.693   3.503   5.034
 6767TIP3    H120265   4.780   3.519   5.072
 6767TIP3    H220266   4.692   3.409   5.015
 6768TIP3   OH220267   4.999   0.397   4.094
 6768TIP3    H120268   4.945   0.453   4.039
 6768TIP3    H220269   5.070   0.367   4.036
 6769TIP3   OH220270   3.577   5.171   4.606
 6769TIP3    H120271   3.584   5.173   4.511
 6769TIP3    H220272   3.494   5.126   4.624
 6770TIP3   OH220273   5.211   5.270   5.258
 6770TIP3    H120274   5.227   5.284   5.351
 6770TIP3    H220275   5.132   5.321   5.239
 6771TIP3   OH220276   6.022   2.604   0.736
 6771TIP3    H120277   5.973   2.686   0.750
 6771TIP3    H220278   6.105   2.618   0.780
 6772TIP3   OH220279   1.150   5.634   0.630
 6772TIP3    H120280   1.069   5.674   0.662
 6772TIP3    H220281   1.215   5.704   0.636
 6773TIP3   OH220282   1.174   2.292   4.600
 6773TIP3    H120283   1.120   2.341   4.662
 6773TIP3    H220284   1.163   2.200   4.625
 6774TIP3   OH220285   5.861   2.443   1.475
 6774TIP3    H120286   5.771   2.455   1.506
 6774TIP3    H220287   5.888   2.530   1.445
 6775TIP3   OH220288   4.819   1.934   5.464
 6775TIP3    H120289   4.867   2.010   5.496
 6775TIP3    H220290   4.833   1.936   5.369
 6776TIP3   OH220291   6.764   2.030   3.490
 6776TIP3    H120292   6.768   2.126   3.498
 6776TIP3    H220293   6.671   2.010   3.484
 6777TIP3   OH220294   6.703   1.860   2.681
 6777TIP3    H120295   6.729   1.771   2.657
 6777TIP3    H220296   6.690   1.856   2.776
 6778TIP3   OH220297   3.335   3.727   2.484
 6778TIP3    H120298   3.283   3.695   2.410
 6778TIP3    H220299   3.392   3.794   2.446
 6779TIP3   OH220300   6.670   6.142   3.878
 6779TIP3    H120301   6.623   6.098   3.949
 6779TIP3    H220302   6.762   6.119   3.893
 6780TIP3   OH220303   2.027   4.681   2.688
 6780TIP3    H120304   2.037   4.697   2.782
 6780TIP3    H220305   1.938   4.649   2.678
 6781TIP3   OH220306   2.740   4.414   2.586
 6781TIP3    H120307   2.687   4.337   2.604
 6781TIP3    H220308   2.782   4.395   2.502
 6782TIP3   OH220309   1.595   6.288   0.776
 6782TIP3    H120310   1.517   6.316   0.824
 6782TIP3    H220311   1.591   6.193   0.776
 6783TIP3   OH220312   5.191   0.519   1.759
 6783TIP3    H120313   5.134   0.538   1.833
 6783TIP3    H220314   5.265   0.579   1.768
 6784TIP3   OH220315   0.345   1.292   0.734
 6784TIP3    H120316   0.412   1.276   0.800
 6784TIP3    H220317   0.289   1.359   0.773
 6785TIP3   OH220318   4.697   5.768   1.126
 6785TIP3    H120319   4.626   5.788   1.187
 6785TIP3    H220320   4.719   5.852   1.087
 6786TIP3   OH220321   0.009   0.224   1.103
 6786TIP3    H120322  -0.013   0.166   1.030
 6786TIP3    H220323   0.098   0.253   1.085
 6787TIP3   OH220324   4.231   4.803   1.848
 6787TIP3    H120325   4.316   4.825   1.887
 6787TIP3    H220326   4.167   4.851   1.899
 6788TIP3   OH220327   1.759   2.877   1.962
 6788TIP3    H120328   1.844   2.900   1.923
 6788TIP3    H220329   1.720   2.816   1.899
 6789TIP3   OH220330   1.351   5.065   5.330
 6789TIP3    H120331   1.313   5.129   5.389
 6789TIP3    H220332   1.334   5.099   5.242
 6790TIP3   OH220333   5.460   6.374   1.549
 6790TIP3    H120334   5.472   6.451   1.494
 6790TIP3    H220335   5.395   6.402   1.615
 6791TIP3   OH220336   6.781   0.241   2.680
 6791TIP3    H120337   6.715   0.308   2.696
 6791TIP3    H220338   6.857   0.269   2.731
 6792TIP3   OH220339   5.259   2.214   3.464
 6792TIP3    H120340   5.286   2.271   3.536
 6792TIP3    H220341   5.164   2.207   3.473
 6793TIP3   OH220342   0.775   1.733   1.917
 6793TIP3    H120343   0.818   1.678   1.982
 6793TIP3    H220344   0.837   1.804   1.900
 6794TIP3   OH220345   2.268   0.470   4.485
 6794TIP3    H120346   2.321   0.479   4.406
 6794TIP3    H220347   2.210   0.396   4.468
 6795TIP3   OH220348   6.867   0.691   3.605
 6795TIP3    H120349   6.953   0.701   3.644
 6795TIP3    H220350   6.846   0.598   3.615
 6796TIP3   OH220351   4.586   2.758   5.092
 6796TIP3    H120352   4.634   2.829   5.133
 6796TIP3    H220353   4.526   2.727   5.159
 6797TIP3   OH220354   3.278   5.624   4.007
 6797TIP3    H120355   3.190   5.588   4.010
 6797TIP3    H220356   3.271   5.708   4.053
 6798TIP3   OH220357   2.154   2.695   1.624
 6798TIP3    H120358   2.194   2.698   1.710
 6798TIP3    H220359   2.087   2.763   1.626
 6799TIP3   OH220360   3.139   3.426   3.907
 6799TIP3    H120361   3.155   3.367   3.834
 6799TIP3    H220362   3.131   3.368   3.983
 6800TIP3   OH220363   3.642   0.191   5.617
 6800TIP3    H120364   3.548   0.182   5.601
 6800TIP3    H220365   3.665   0.274   5.576
 6801TIP3   OH220366   3.396   5.938   3.915
 6801TIP3    H120367   3.381   6.027   3.944
 6801TIP3    H220368   3.361   5.936   3.826
 6802TIP3   OH220369   0.944   4.959   1.473
 6802TIP3    H120370   0.992   5.018   1.414
 6802TIP3    H220371   1.011   4.897   1.502
 6803TIP3   OH220372   2.971   4.105   0.014
 6803TIP3    H120373   2.877   4.125   0.018
 6803TIP3    H220374   3.001   4.148  -0.066
 6804TIP3   OH220375   0.408   5.566   1.357
 6804TIP3    H120376   0.362   5.635   1.406
 6804TIP3    H220377   0.381   5.579   1.267
 6805TIP3   OH220378   1.161   1.815   3.077
 6805TIP3    H120379   1.074   1.851   3.059
 6805TIP3    H220380   1.143   1.735   3.127
 6806TIP3   OH220381   2.109   3.568   2.033
 6806TIP3    H120382   2.086   3.636   1.970
 6806TIP3    H220383   2.203   3.553   2.020
 6807TIP3   OH220384   5.236   2.725   2.888
 6807TIP3    H120385   5.281   2.809   2.892
 6807TIP3    H220386   5.200   2.714   2.977
 6808TIP3   OH220387   4.120   4.114   3.158
 6808TIP3    H120388   4.153   4.029   3.130
 6808TIP3    H220389   4.193   4.153   3.206
 6809TIP3   OH220390   6.743   5.472   0.560
 6809TIP3    H120391   6.666   5.528   0.572
 6809TIP3    H220392   6.723   5.420   0.482
 6810TIP3   OH220393   6.700   6.301   0.493
 6810TIP3    H120394   6.629   6.362   0.471
 6810TIP3    H220395   6.683   6.277   0.584
 6811TIP3   OH220396   4.920   1.240   2.286
 6811TIP3    H120397   4.868   1.290   2.223
 6811TIP3    H220398   4.855   1.203   2.346
 6812TIP3   OH220399   0.916   0.167   4.131
 6812TIP3    H120400   0.847   0.223   4.094
 6812TIP3    H220401   0.870   0.091   4.164
 6813TIP3   OH220402   0.723   3.626   4.831
 6813TIP3    H120403   0.632   3.598   4.843
 6813TIP3    H220404   0.725   3.662   4.742
 6814TIP3   OH220405   0.183   3.441   0.668
 6814TIP3    H120406   0.271   3.408   0.649
 6814TIP3    H220407   0.193   3.536   0.667
 6815TIP3   OH220408   0.926   5.232   4.218
 6815TIP3    H120409   0.990   5.170   4.183
 6815TIP3    H220410   0.862   5.177   4.263
 6816TIP3   OH220411   1.318   2.372   0.703
 6816TIP3    H120412   1.281   2.302   0.648
 6816TIP3    H220413   1.256   2.381   0.775
 6817TIP3   OH220414   1.450   0.264   3.384
 6817TIP3    H120415   1.358   0.242   3.403
 6817TIP3    H220416   1.500   0.210   3.445
 6818TIP3   OH220417   4.852   5.360   1.943
 6818TIP3    H120418   4.841   5.437   1.999
 6818TIP3    H220419   4.838   5.285   2.001
 6819TIP3   OH220420   4.103   0.513   1.865
 6819TIP3    H120421   4.014   0.549   1.865
 6819TIP3    H220422   4.143   0.548   1.945
 6820TIP3   OH220423   2.893   4.897   1.944
 6820TIP3    H120424   2.803   4.871   1.928
 6820TIP3    H220425   2.905   4.888   2.038
 6821TIP3   OH220426   6.625   0.823   2.461
 6821TIP3    H120427   6.665   0.770   2.392
 6821TIP3    H220428   6.693   0.830   2.528
 6822TIP3   OH220429   1.850   5.365   0.850
 6822TIP3    H120430   1.807   5.386   0.933
 6822TIP3    H220431   1.886   5.448   0.820
 6823TIP3   OH220432   2.063   0.581   4.180
 6823TIP3    H120433   2.108   0.497   4.190
 6823TIP3    H220434   2.066   0.599   4.086
 6824TIP3   OH220435   6.281   3.339   2.788
 6824TIP3    H120436   6.274   3.263   2.730
 6824TIP3    H220437   6.355   3.389   2.754
 6825TIP3   OH220438   5.932   3.152   3.278
 6825TIP3    H120439   6.001   3.113   3.224
 6825TIP3    H220440   5.975   3.223   3.325
 6826TIP3   OH220441   3.170   2.494   0.863
 6826TIP3    H120442   3.231   2.445   0.808
 6826TIP3    H220443   3.085   2.453   0.846
 6827TIP3   OH220444   5.390   2.084   5.253
 6827TIP3    H120445   5.372   2.025   5.326
 6827TIP3    H220446   5.481   2.065   5.228
 6828TIP3   OH220447   1.177   5.904   1.932
 6828TIP3    H120448   1.219   5.988   1.952
 6828TIP3    H220449   1.249   5.842   1.925
 6829TIP3   OH220450   2.598   3.023   4.469
 6829TIP3    H120451   2.544   2.957   4.511
 6829TIP3    H220452   2.601   3.096   4.531
 6830TIP3   OH220453   5.049   5.266   3.226
 6830TIP3    H120454   5.029   5.184   3.272
 6830TIP3    H220455   4.964   5.307   3.211
 6831TIP3   OH220456   4.915   2.003   4.951
 6831TIP3    H120457   5.000   2.028   4.986
 6831TIP3    H220458   4.874   2.086   4.928
 6832TIP3   OH220459   5.561   6.782   1.604
 6832TIP3    H120460   5.614   6.840   1.659
 6832TIP3    H220461   5.567   6.697   1.646
 6833TIP3   OH220462   2.257   5.370   4.609
 6833TIP3    H120463   2.208   5.382   4.527
 6833TIP3    H220464   2.196   5.400   4.677
 6834TIP3   OH220465   5.048   2.546   2.533
 6834TIP3    H120466   5.053   2.472   2.472
 6834TIP3    H220467   5.058   2.507   2.619
 6835TIP3   OH220468   4.454   2.951   4.750
 6835TIP3    H120469   4.438   3.011   4.822
 6835TIP3    H220470   4.432   2.865   4.784
 6836TIP3   OH220471   2.028   1.745   5.219
 6836TIP3    H120472   2.045   1.654   5.197
 6836TIP3    H220473   1.960   1.742   5.286
 6837TIP3   OH220474   0.065   4.703   4.301
 6837TIP3    H120475   0.135   4.754   4.260
 6837TIP3    H220476  -0.015   4.749   4.277
 6838TIP3   OH220477   6.161   0.028   0.765
 6838TIP3    H120478   6.068   0.028   0.789
 6838TIP3    H220479   6.200   0.094   0.822
 6839TIP3   OH220480   6.789   6.080   1.985
 6839TIP3    H120481   6.708   6.063   1.938
 6839TIP3    H220482   6.856   6.086   1.917
 6840TIP3   OH220483   1.382   2.457   0.303
 6840TIP3    H120484   1.376   2.498   0.390
 6840TIP3    H220485   1.292   2.460   0.270
 6841TIP3   OH220486   1.014   4.297   2.100
 6841TIP3    H120487   1.068   4.219   2.093
 6841TIP3    H220488   0.945   4.274   2.162
 6842TIP3   OH220489   2.819   4.610   5.805
 6842TIP3    H120490   2.844   4.608   5.713
 6842TIP3    H220491   2.902   4.622   5.852
 6843TIP3   OH220492   0.373   2.881   1.480
 6843TIP3    H120493   0.434   2.952   1.460
 6843TIP3    H220494   0.295   2.925   1.514
 6844TIP3   OH220495   2.571   0.740   5.779
 6844TIP3    H120496   2.585   0.769   5.869
 6844TIP3    H220497   2.582   0.645   5.782
 6845TIP3   OH220498   5.961   5.429   0.120
 6845TIP3    H120499   5.969   5.426   0.215
 6845TIP3    H220500   6.044   5.465   0.089
 6846TIP3   OH220501   4.354   4.191   4.483
 6846TIP3    H120502   4.394   4.200   4.396
 6846TIP3    H220503   4.428   4.177   4.542
 6847TIP3   OH220504   4.440   0.838   4.878
 6847TIP3    H120505   4.371   0.831   4.812
 6847TIP3    H220506   4.395   0.869   4.956
 6848TIP3   OH220507   2.629   2.849   5.494
 6848TIP3    H120508   2.641   2.855   5.588
 6848TIP3    H220509   2.681   2.774   5.467
 6849TIP3   OH220510   1.377   3.960   5.134
 6849TIP3    H120511   1.332   3.875   5.137
 6849TIP3    H220512   1.459   3.943   5.088
 6850TIP3   OH220513   2.157   5.755   0.768
 6850TIP3    H120514   2.199   5.818   0.710
 6850TIP3    H220515   2.226   5.726   0.827
 6851TIP3   OH220516   0.198   2.658   4.450
 6851TIP3    H120517   0.182   2.574   4.493
 6851TIP3    H220518   0.285   2.648   4.411
 6852TIP3   OH220519   0.460   1.760   4.117
 6852TIP3    H120520   0.488   1.668   4.119
 6852TIP3    H220521   0.519   1.802   4.055
 6853TIP3   OH220522   1.077   1.561   3.195
 6853TIP3    H120523   1.027   1.554   3.113
 6853TIP3    H220524   1.056   1.481   3.243
 6854TIP3   OH220525   6.604   1.501   5.269
 6854TIP3    H120526   6.625   1.584   5.226
 6854TIP3    H220527   6.663   1.498   5.344
 6855TIP3   OH220528   4.170   5.156   5.431
 6855TIP3    H120529   4.189   5.143   5.524
 6855TIP3    H220530   4.115   5.234   5.428
 6856TIP3   OH220531   7.000   1.328   0.896
 6856TIP3    H120532   7.060   1.329   0.970
 6856TIP3    H220533   6.919   1.366   0.930
 6857TIP3   OH220534   6.809   3.470   5.802
 6857TIP3    H120535   6.781   3.527   5.730
 6857TIP3    H220536   6.738   3.477   5.866
 6858TIP3   OH220537   5.647   6.444   0.506
 6858TIP3    H120538   5.739   6.439   0.532
 6858TIP3    H220539   5.632   6.361   0.460
 6859TIP3   OH220540   0.221   5.955   1.324
 6859TIP3    H120541   0.183   5.930   1.408
 6859TIP3    H220542   0.270   6.035   1.342
 6860TIP3   OH220543   3.039   0.355   5.165
 6860TIP3    H120544   3.084   0.424   5.213
 6860TIP3    H220545   3.020   0.289   5.231
 6861TIP3   OH220546   1.989   6.141   0.636
 6861TIP3    H120547   1.962   6.079   0.703
 6861TIP3    H220548   2.010   6.221   0.685
 6862TIP3   OH220549   2.411   5.126   2.947
 6862TIP3    H120550   2.429   5.122   3.041
 6862TIP3    H220551   2.449   5.045   2.912
 6863TIP3   OH220552   6.084   3.238   5.697
 6863TIP3    H120553   6.091   3.152   5.655
 6863TIP3    H220554   6.079   3.220   5.790
 6864TIP3   OH220555   3.681   4.242   2.830
 6864TIP3    H120556   3.772   4.228   2.856
 6864TIP3    H220557   3.648   4.305   2.894
 6865TIP3   OH220558   1.208   1.315   2.439
 6865TIP3    H120559   1.210   1.407   2.465
 6865TIP3    H220560   1.189   1.267   2.519
 6866TIP3   OH220561   0.626   6.133   0.175
 6866TIP3    H120562   0.645   6.212   0.226
 6866TIP3    H220563   0.695   6.131   0.108
 6867TIP3   OH220564   2.303   5.617   1.700
 6867TIP3    H120565   2.303   5.551   1.769
 6867TIP3    H220566   2.263   5.694   1.739
 6868TIP3   OH220567   5.084   2.720   3.985
 6868TIP3    H120568   5.143   2.645   3.978
 6868TIP3    H220569   5.141   2.791   4.015
 6869TIP3   OH220570   5.350   1.166   0.330
 6869TIP3    H120571   5.430   1.196   0.373
 6869TIP3    H220572   5.297   1.129   0.400
 6870TIP3   OH220573   1.331   1.699   4.823
 6870TIP3    H120574   1.351   1.705   4.730
 6870TIP3    H220575   1.400   1.643   4.860
 6871TIP3   OH220576   5.494   2.366   5.277
 6871TIP3    H120577   5.501   2.425   5.203
 6871TIP3    H220578   5.455   2.286   5.241
 6872TIP3   OH220579   4.268   1.177   1.880
 6872TIP3    H120580   4.311   1.248   1.928
 6872TIP3    H220581   4.181   1.171   1.920
 6873TIP3   OH220582   5.530   2.929   3.574
 6873TIP3    H120583   5.491   2.920   3.487
 6873TIP3    H220584   5.607   2.984   3.560
 6874TIP3   OH220585   1.552   1.321   5.460
 6874TIP3    H120586   1.491   1.361   5.399
 6874TIP3    H220587   1.529   1.357   5.545
 6875TIP3   OH220588   5.297   4.616   5.306
 6875TIP3    H120589   5.230   4.637   5.371
 6875TIP3    H220590   5.247   4.600   5.225
 6876TIP3   OH220591   2.605   4.949   5.263
 6876TIP3    H120592   2.567   4.866   5.231
 6876TIP3    H220593   2.563   4.963   5.348
 6877TIP3   OH220594   2.709   3.742   5.412
 6877TIP3    H120595   2.771   3.722   5.341
 6877TIP3    H220596   2.758   3.801   5.469
 6878TIP3   OH220597   4.376   4.158   3.869
 6878TIP3    H120598   4.470   4.173   3.866
 6878TIP3    H220599   4.366   4.066   3.844
 6879TIP3   OH220600   5.805   2.960   4.658
 6879TIP3    H120601   5.894   2.973   4.624
 6879TIP3    H220602   5.763   3.046   4.647
 6880TIP3   OH220603   4.623   5.830   2.477
 6880TIP3    H120604   4.641   5.898   2.412
 6880TIP3    H220605   4.617   5.876   2.560
 6881TIP3   OH220606   4.885   0.580   3.955
 6881TIP3    H120607   4.803   0.626   3.972
 6881TIP3    H220608   4.882   0.559   3.862
 6882TIP3   OH220609   5.979   1.578   2.146
 6882TIP3    H120610   5.917   1.510   2.117
 6882TIP3    H220611   5.927   1.658   2.147
 6883TIP3   OH220612   0.103   4.662   3.280
 6883TIP3    H120613   0.036   4.615   3.230
 6883TIP3    H220614   0.146   4.718   3.216
 6884TIP3   OH220615   2.286   2.240   2.948
 6884TIP3    H120616   2.318   2.180   2.882
 6884TIP3    H220617   2.365   2.270   2.994
 6885TIP3   OH220618   4.565   1.967   4.438
 6885TIP3    H120619   4.607   1.895   4.392
 6885TIP3    H220620   4.549   1.933   4.526
 6886TIP3   OH220621   5.324   4.608   5.894
 6886TIP3    H120622   5.231   4.631   5.889
 6886TIP3    H220623   5.351   4.635   5.982
 6887TIP3   OH220624   6.064   1.377   3.808
 6887TIP3    H120625   6.140   1.417   3.850
 6887TIP3    H220626   6.047   1.298   3.860
 6888TIP3   OH220627   1.433   5.686   4.157
 6888TIP3    H120628   1.441   5.775   4.122
 6888TIP3    H220629   1.339   5.676   4.175
 6889TIP3   OH220630   2.676   0.329   3.539
 6889TIP3    H120631   2.657   0.419   3.514
 6889TIP3    H220632   2.622   0.313   3.616
 6890TIP3   OH220633   3.563   3.419   4.158
 6890TIP3    H120634   3.500   3.469   4.106
 6890TIP3    H220635   3.509   3.364   4.216
 6891TIP3   OH220636   3.612   2.527   4.383
 6891TIP3    H120637   3.699   2.494   4.405
 6891TIP3    H220638   3.628   2.611   4.340
 6892TIP3   OH220639   6.424   6.308   0.597
 6892TIP3    H120640   6.453   6.356   0.675
 6892TIP3    H220641   6.345   6.262   0.625
 6893TIP3   OH220642   0.154   3.237   5.598
 6893TIP3    H120643   0.190   3.321   5.628
 6893TIP3    H220644   0.059   3.249   5.600
 6894TIP3   OH220645   6.843   2.316   3.488
 6894TIP3    H120646   6.754   2.348   3.504
 6894TIP3    H220647   6.888   2.390   3.447
 6895TIP3   OH220648   6.731   5.939   0.257
 6895TIP3    H120649   6.736   6.031   0.284
 6895TIP3    H220650   6.729   5.890   0.340
 6896TIP3   OH220651   7.101   6.264   0.916
 6896TIP3    H120652   7.028   6.293   0.970
 6896TIP3    H220653   7.068   6.186   0.870
 6897TIP3   OH220654   1.995   1.488   2.199
 6897TIP3    H120655   1.961   1.427   2.264
 6897TIP3    H220656   1.924   1.551   2.187
 6898TIP3   OH220657   0.303   0.300   5.356
 6898TIP3    H120658   0.372   0.285   5.420
 6898TIP3    H220659   0.280   0.392   5.367
 6899TIP3   OH220660   3.656   6.181   1.134
 6899TIP3    H120661   3.736   6.219   1.169
 6899TIP3    H220662   3.683   6.098   1.095
 6900TIP3   OH220663   4.837   2.814   4.015
 6900TIP3    H120664   4.790   2.760   4.077
 6900TIP3    H220665   4.917   2.765   3.995
 6901TIP3   OH220666   2.773   6.034   4.241
 6901TIP3    H120667   2.851   6.073   4.278
 6901TIP3    H220668   2.771   5.945   4.278
 6902TIP3   OH220669   4.540   3.604   2.538
 6902TIP3    H120670   4.491   3.602   2.621
 6902TIP3    H220671   4.621   3.651   2.560
 6903TIP3   OH220672   2.077   3.974   0.657
 6903TIP3    H120673   2.061   3.904   0.593
 6903TIP3    H220674   1.998   3.975   0.711
 6904TIP3   OH220675   4.186   2.651   1.709
 6904TIP3    H120676   4.232   2.615   1.785
 6904TIP3    H220677   4.095   2.658   1.737
 6905TIP3   OH220678   7.063   5.026   3.539
 6905TIP3    H120679   7.132   5.075   3.584
 6905TIP3    H220680   7.060   5.064   3.451
 6906TIP3   OH220681   3.845   4.069   1.133
 6906TIP3    H120682   3.793   4.050   1.211
 6906TIP3    H220683   3.799   4.144   1.093
 6907TIP3   OH220684   6.353   1.623   1.884
 6907TIP3    H120685   6.283   1.564   1.856
 6907TIP3    H220686   6.308   1.694   1.929
 6908TIP3   OH220687   2.603   3.257   5.666
 6908TIP3    H120688   2.633   3.326   5.725
 6908TIP3    H220689   2.684   3.218   5.632
 6909TIP3   OH220690   0.887   2.513   4.123
 6909TIP3    H120691   0.967   2.485   4.078
 6909TIP3    H220692   0.897   2.607   4.135
 6910TIP3   OH220693   1.924   0.224   1.376
 6910TIP3    H120694   1.921   0.182   1.290
 6910TIP3    H220695   1.860   0.177   1.429
 6911TIP3   OH220696   3.715   1.028   4.182
 6911TIP3    H120697   3.789   1.089   4.175
 6911TIP3    H220698   3.745   0.949   4.137
 6912TIP3   OH220699   2.068   4.571   0.208
 6912TIP3    H120700   2.130   4.532   0.270
 6912TIP3    H220701   1.986   4.524   0.223
 6913TIP3   OH220702   2.350   0.729   3.452
 6913TIP3    H120703   2.268   0.702   3.411
 6913TIP3    H220704   2.347   0.825   3.451
 6914TIP3   OH220705   3.728   4.401   5.027
 6914TIP3    H120706   3.668   4.434   4.959
 6914TIP3    H220707   3.815   4.409   4.988
 6915TIP3   OH220708   3.925   4.203   5.318
 6915TIP3    H120709   3.838   4.234   5.292
 6915TIP3    H220710   3.916   4.183   5.412
 6916TIP3   OH220711   0.819   2.839   1.615
 6916TIP3    H120712   0.743   2.820   1.560
 6916TIP3    H220713   0.818   2.934   1.625
 6917TIP3   OH220714   2.915   6.104   4.017
 6917TIP3    H120715   2.855   6.053   4.070
 6917TIP3    H220716   2.894   6.196   4.036
 6918TIP3   OH220717   1.903   3.400   2.003
 6918TIP3    H120718   1.981   3.456   2.008
 6918TIP3    H220719   1.875   3.389   2.093
 6919TIP3   OH220720   4.641   6.616   0.663
 6919TIP3    H120721   4.709   6.671   0.625
 6919TIP3    H220722   4.603   6.570   0.588
 6920TIP3   OH220723   2.142   0.324   4.216
 6920TIP3    H120724   2.234   0.309   4.239
 6920TIP3    H220725   2.104   0.237   4.214
 6921TIP3   OH220726   5.940   4.288   2.106
 6921TIP3    H120727   5.968   4.340   2.181
 6921TIP3    H220728   5.981   4.203   2.119
 6922TIP3   OH220729   5.198   5.112   2.271
 6922TIP3    H120730   5.211   5.204   2.248
 6922TIP3    H220731   5.120   5.086   2.222
 6923TIP3   OH220732   0.608   3.548   5.939
 6923TIP3    H120733   0.526   3.509   5.907
 6923TIP3    H220734   0.672   3.530   5.870
 6924TIP3   OH220735   7.174   5.036   1.731
 6924TIP3    H120736   7.136   4.992   1.807
 6924TIP3    H220737   7.172   4.969   1.662
 6925TIP3   OH220738   2.365   3.213   1.737
 6925TIP3    H120739   2.353   3.127   1.777
 6925TIP3    H220740   2.309   3.211   1.659
 6926TIP3   OH220741   1.024   5.357   3.668
 6926TIP3    H120742   1.047   5.327   3.756
 6926TIP3    H220743   1.001   5.277   3.620
 6927TIP3   OH220744   2.244   4.237   1.790
 6927TIP3    H120745   2.247   4.299   1.716
 6927TIP3    H220746   2.180   4.275   1.850
 6928TIP3   OH220747   4.224   3.975   0.560
 6928TIP3    H120748   4.209   4.044   0.624
 6928TIP3    H220749   4.252   4.021   0.481
 6929TIP3   OH220750   5.334   1.920   0.388
 6929TIP3    H120751   5.318   1.915   0.293
 6929TIP3    H220752   5.419   1.963   0.396
 6930TIP3   OH220753   6.470   0.222   0.396
 6930TIP3    H120754   6.403   0.284   0.368
 6930TIP3    H220755   6.552   0.261   0.365
 6931TIP3   OH220756   5.100   4.805   3.053
 6931TIP3    H120757   5.107   4.724   3.103
 6931TIP3    H220758   5.077   4.777   2.965
 6932TIP3   OH220759   4.344   1.384   4.299
 6932TIP3    H120760   4.294   1.322   4.351
 6932TIP3    H220761   4.348   1.463   4.353
 6933TIP3   OH220762   1.765   5.765   4.432
 6933TIP3    H120763   1.746   5.699   4.366
 6933TIP3    H220764   1.681   5.806   4.451
 6934TIP3   OH220765   5.587   6.766   0.597
 6934TIP3    H120766   5.662   6.709   0.613
 6934TIP3    H220767   5.624   6.854   0.592
 6935TIP3   OH220768   6.674   0.504   0.084
 6935TIP3    H120769   6.718   0.515  -0.001
 6935TIP3    H220770   6.741   0.467   0.141
 6936TIP3   OH220771   1.754   0.200   2.436
 6936TIP3    H120772   1.835   0.150   2.446
 6936TIP3    H220773   1.772   0.284   2.477
 6937TIP3   OH220774   1.306   1.567   2.146
 6937TIP3    H120775   1.363   1.631   2.104
 6937TIP3    H220776   1.366   1.501   2.180
 6938TIP3   OH220777   4.435   5.830   1.225
 6938TIP3    H120778   4.376   5.782   1.167
 6938TIP3    H220779   4.397   5.918   1.231
 6939TIP3   OH220780   6.405   2.712   0.611
 6939TIP3    H120781   6.494   2.744   0.624
 6939TIP3    H220782   6.362   2.726   0.696
 6940TIP3   OH220783   0.067   5.494   0.254
 6940TIP3    H120784   0.035   5.512   0.166
 6940TIP3    H220785  -0.011   5.496   0.309
 6941TIP3   OH220786   7.209   2.261   3.558
 6941TIP3    H120787   7.159   2.342   3.550
 6941TIP3    H220788   7.234   2.239   3.468
 6942TIP3   OH220789   4.644   6.185   3.637
 6942TIP3    H120790   4.564   6.233   3.617
 6942TIP3    H220791   4.633   6.101   3.591
 6943TIP3   OH220792   0.368   4.354   4.348
 6943TIP3    H120793   0.401   4.408   4.420
 6943TIP3    H220794   0.323   4.281   4.391
 6944TIP3   OH220795   2.585   1.933   5.426
 6944TIP3    H120796   2.568   1.937   5.521
 6944TIP3    H220797   2.670   1.891   5.419
 6945TIP3   OH220798   5.682   2.021   5.492
 6945TIP3    H120799   5.760   2.043   5.544
 6945TIP3    H220800   5.628   2.099   5.496
 6946TIP3   OH220801   7.068   0.417   1.841
 6946TIP3    H120802   7.079   0.433   1.747
 6946TIP3    H220803   7.109   0.331   1.856
 6947TIP3   OH220804   6.565   3.413   2.356
 6947TIP3    H120805   6.553   3.321   2.380
 6947TIP3    H220806   6.642   3.412   2.298
 6948TIP3   OH220807   7.095   6.642   4.436
 6948TIP3    H120808   7.066   6.721   4.390
 6948TIP3    H220809   7.053   6.647   4.521
 6949TIP3   OH220810   1.540   4.741   3.726
 6949TIP3    H120811   1.634   4.731   3.741
 6949TIP3    H220812   1.498   4.689   3.794
 6950TIP3   OH220813   7.122   6.618   2.264
 6950TIP3    H120814   7.035   6.578   2.257
 6950TIP3    H220815   7.180   6.558   2.218
 6951TIP3   OH220816   0.518   5.455   5.349
 6951TIP3    H120817   0.514   5.493   5.261
 6951TIP3    H220818   0.585   5.387   5.344
 6952TIP3   OH220819   2.928   2.904   1.526
 6952TIP3    H120820   2.881   2.891   1.608
 6952TIP3    H220821   2.995   2.836   1.526
 6953TIP3   OH220822   2.314   3.615   5.084
 6953TIP3    H120823   2.224   3.621   5.117
 6953TIP3    H220824   2.314   3.537   5.029
 6954TIP3   OH220825   0.419   3.851   2.488
 6954TIP3    H120826   0.431   3.937   2.447
 6954TIP3    H220827   0.355   3.806   2.432
 6955TIP3   OH220828   2.376   4.326   1.130
 6955TIP3    H120829   2.467   4.346   1.109
 6955TIP3    H220830   2.327   4.353   1.051
 6956TIP3   OH220831   2.082   5.788   4.229
 6956TIP3    H120832   2.041   5.873   4.242
 6956TIP3    H220833   2.173   5.808   4.209
 6957TIP3   OH220834   0.335   2.065   4.341
 6957TIP3    H120835   0.337   2.066   4.436
 6957TIP3    H220836   0.259   2.119   4.318
 6958TIP3   OH220837   6.676   3.464   3.107
 6958TIP3    H120838   6.595   3.494   3.065
 6958TIP3    H220839   6.652   3.451   3.199
 6959TIP3   OH220840   1.233   3.637   0.747
 6959TIP3    H120841   1.139   3.623   0.756
 6959TIP3    H220842   1.273   3.559   0.784
 6960TIP3   OH220843   7.102   0.714   3.734
 6960TIP3    H120844   7.119   0.625   3.765
 6960TIP3    H220845   7.113   0.769   3.811
 6961TIP3   OH220846   5.199   5.359   0.730
 6961TIP3    H120847   5.127   5.359   0.794
 6961TIP3    H220848   5.242   5.274   0.744
 6962TIP3   OH220849   3.486   2.578   2.446
 6962TIP3    H120850   3.477   2.489   2.480
 6962TIP3    H220851   3.408   2.624   2.478
 6963TIP3   OH220852   0.866   5.529   0.656
 6963TIP3    H120853   0.898   5.440   0.675
 6963TIP3    H220854   0.845   5.527   0.563
 6964TIP3   OH220855   0.835   6.549   0.209
 6964TIP3    H120856   0.920   6.514   0.235
 6964TIP3    H220857   0.844   6.644   0.219
 6965TIP3   OH220858   1.378   2.720   4.323
 6965TIP3    H120859   1.425   2.798   4.294
 6965TIP3    H220860   1.448   2.658   4.345
 6966TIP3   OH220861   5.261   2.424   5.140
 6966TIP3    H120862   5.279   2.430   5.234
 6966TIP3    H220863   5.208   2.501   5.121
 6967TIP3   OH220864   0.794   6.545   2.187
 6967TIP3    H120865   0.863   6.478   2.181
 6967TIP3    H220866   0.838   6.622   2.223
 6968TIP3   OH220867   5.913   0.244   3.544
 6968TIP3    H120868   5.952   0.303   3.608
 6968TIP3    H220869   5.826   0.223   3.580
 6969TIP3   OH220870   1.792   3.885   0.337
 6969TIP3    H120871   1.807   3.840   0.420
 6969TIP3    H220872   1.872   3.872   0.287
 6970TIP3   OH220873   3.362   2.143   0.291
 6970TIP3    H120874   3.319   2.059   0.303
 6970TIP3    H220875   3.425   2.129   0.221
 6971TIP3   OH220876   0.325   5.396   4.298
 6971TIP3    H120877   0.256   5.411   4.233
 6971TIP3    H220878   0.290   5.327   4.355
 6972TIP3   OH220879   4.272   2.235   5.473
 6972TIP3    H120880   4.252   2.142   5.464
 6972TIP3    H220881   4.213   2.278   5.411
 6973TIP3   OH220882   0.579   4.556   4.971
 6973TIP3    H120883   0.647   4.603   5.020
 6973TIP3    H220884   0.627   4.508   4.904
 6974TIP3   OH220885   5.827   6.629   2.957
 6974TIP3    H120886   5.810   6.540   2.986
 6974TIP3    H220887   5.791   6.633   2.868
 6975TIP3   OH220888   5.036   5.707   2.210
 6975TIP3    H120889   5.036   5.797   2.178
 6975TIP3    H220890   5.115   5.701   2.264
 6976TIP3   OH220891   6.535   2.210   0.930
 6976TIP3    H120892   6.545   2.178   1.020
 6976TIP3    H220893   6.551   2.305   0.937
 6977TIP3   OH220894   5.323   3.649   1.805
 6977TIP3    H120895   5.379   3.600   1.744
 6977TIP3    H220896   5.302   3.586   1.874
 6978TIP3   OH220897   6.917   4.391   4.160
 6978TIP3    H120898   6.944   4.364   4.072
 6978TIP3    H220899   6.980   4.348   4.219
 6979TIP3   OH220900   5.326   0.945   2.982
 6979TIP3    H120901   5.371   1.027   2.962
 6979TIP3    H220902   5.313   0.947   3.077
 6980TIP3   OH220903   3.021   2.618   1.648
 6980TIP3    H120904   3.004   2.605   1.555
 6980TIP3    H220905   2.942   2.589   1.692
 6981TIP3   OH220906   2.929   0.966   5.184
 6981TIP3    H120907   2.913   0.998   5.273
 6981TIP3    H220908   2.841   0.947   5.150
 6982TIP3   OH220909   6.973   3.365   0.097
 6982TIP3    H120910   6.940   3.278   0.119
 6982TIP3    H220911   7.035   3.349   0.026
 6983TIP3   OH220912   6.066   2.971   4.562
 6983TIP3    H120913   6.104   2.917   4.632
 6983TIP3    H220914   6.136   3.033   4.540
 6984TIP3   OH220915   0.727   1.935   5.845
 6984TIP3    H120916   0.727   2.023   5.884
 6984TIP3    H220917   0.660   1.939   5.778
 6985TIP3   OH220918   0.516   0.193   4.205
 6985TIP3    H120919   0.466   0.267   4.241
 6985TIP3    H220920   0.556   0.151   4.281
 6986TIP3   OH220921   5.206   5.472   3.333
 6986TIP3    H120922   5.280   5.419   3.363
 6986TIP3    H220923   5.137   5.409   3.315
 6987TIP3   OH220924   1.136   4.733   1.482
 6987TIP3    H120925   1.148   4.726   1.388
 6987TIP3    H220926   1.126   4.643   1.512
 6988TIP3   OH220927   0.626   3.864   5.756
 6988TIP3    H120928   0.565   3.791   5.756
 6988TIP3    H220929   0.705   3.830   5.799
 6989TIP3   OH220930   6.824   6.532   1.526
 6989TIP3    H120931   6.834   6.494   1.439
 6989TIP3    H220932   6.752   6.594   1.517
 6990TIP3   OH220933   3.865   1.445   1.946
 6990TIP3    H120934   3.806   1.434   1.872
 6990TIP3    H220935   3.953   1.447   1.908
 6991TIP3   OH220936   4.897   2.407   2.323
 6991TIP3    H120937   4.890   2.350   2.399
 6991TIP3    H220938   4.829   2.473   2.335
 6992TIP3   OH220939   5.031   5.288   2.818
 6992TIP3    H120940   5.077   5.310   2.737
 6992TIP3    H220941   5.079   5.334   2.886
 6993TIP3   OH220942   1.143   4.064   2.130
 6993TIP3    H120943   1.188   3.983   2.107
 6993TIP3    H220944   1.102   4.046   2.215
 6994TIP3   OH220945   3.986   3.687   2.297
 6994TIP3    H120946   4.075   3.655   2.283
 6994TIP3    H220947   3.937   3.609   2.322
 6995TIP3   OH220948   6.937   0.393   5.801
 6995TIP3    H120949   6.943   0.394   5.705
 6995TIP3    H220950   6.877   0.321   5.820
 6996TIP3   OH220951   3.754   6.674   0.491
 6996TIP3    H120952   3.663   6.658   0.467
 6996TIP3    H220953   3.752   6.688   0.586
 6997TIP3   OH220954   2.975   2.151   3.613
 6997TIP3    H120955   3.027   2.224   3.580
 6997TIP3    H220956   3.037   2.098   3.663
 6998TIP3   OH220957   0.871   0.535   4.633
 6998TIP3    H120958   0.816   0.604   4.670
 6998TIP3    H220959   0.873   0.467   4.700
 6999TIP3   OH220960   5.238   0.866   1.221
 6999TIP3    H120961   5.265   0.776   1.202
 6999TIP3    H220962   5.312   0.904   1.268
 7000TIP3   OH220963   4.001   1.068   3.557
 7000TIP3    H120964   4.020   1.162   3.566
 7000TIP3    H220965   3.908   1.060   3.577
 7001TIP3   OH220966   5.344   0.159   1.066
 7001TIP3    H120967   5.380   0.217   0.999
 7001TIP3    H220968   5.419   0.111   1.100
 7002TIP3   OH220969   6.573   2.327   5.816
 7002TIP3    H120970   6.486   2.306   5.848
 7002TIP3    H220971   6.615   2.242   5.802
 7003TIP3   OH220972   2.466   6.165   5.267
 7003TIP3    H120973   2.462   6.205   5.355
 7003TIP3    H220974   2.560   6.161   5.247
 7004TIP3   OH220975   5.203   6.288   3.219
 7004TIP3    H120976   5.208   6.310   3.312
 7004TIP3    H220977   5.166   6.366   3.177
 7005TIP3   OH220978   1.361   0.931   5.554
 7005TIP3    H120979   1.399   0.865   5.497
 7005TIP3    H220980   1.430   0.952   5.617
 7006TIP3   OH220981   6.870   1.155   1.193
 7006TIP3    H120982   6.863   1.068   1.154
 7006TIP3    H220983   6.819   1.211   1.135
 7007TIP3   OH220984   4.834   6.781   0.913
 7007TIP3    H120985   4.805   6.785   0.822
 7007TIP3    H220986   4.924   6.814   0.912
 7008TIP3   OH220987   0.040   4.698   4.811
 7008TIP3    H120988  -0.030   4.634   4.802
 7008TIP3    H220989   0.069   4.715   4.722
 7009TIP3   OH220990   0.855   4.312   2.675
 7009TIP3    H120991   0.866   4.396   2.630
 7009TIP3    H220992   0.931   4.306   2.733
 7010TIP3   OH220993   2.278   3.825   2.933
 7010TIP3    H120994   2.329   3.800   3.010
 7010TIP3    H220995   2.316   3.776   2.861
 7011TIP3   OH220996   7.131   6.696   0.415
 7011TIP3    H120997   7.095   6.751   0.485
 7011TIP3    H220998   7.225   6.703   0.425
 7012TIP3   OH220999   0.232   2.775   0.905
 7012TIP3    H121000   0.221   2.702   0.843
 7012TIP3    H221001   0.316   2.757   0.948
 7013TIP3   OH221002   6.931   0.169   3.686
 7013TIP3    H121003   6.891   0.083   3.672
 7013TIP3    H221004   6.960   0.167   3.778
 7014TIP3   OH221005   3.613   2.748   1.837
 7014TIP3    H121006   3.593   2.812   1.905
 7014TIP3    H221007   3.676   2.793   1.780
 7015TIP3   OH221008   0.858   3.385   3.566
 7015TIP3    H121009   0.823   3.298   3.586
 7015TIP3    H221010   0.942   3.367   3.524
 7016TIP3   OH221011   5.189   2.832   4.916
 7016TIP3    H121012   5.277   2.866   4.933
 7016TIP3    H221013   5.139   2.908   4.887
 7017TIP3   OH221014   3.326   3.448   0.113
 7017TIP3    H121015   3.242   3.422   0.074
 7017TIP3    H221016   3.351   3.372   0.167
 7018TIP3   OH221017   1.060   4.010   1.190
 7018TIP3    H121018   0.970   4.028   1.163
 7018TIP3    H221019   1.112   4.022   1.111
 7019TIP3   OH221020   0.224   2.981   0.502
 7019TIP3    H121021   0.238   2.989   0.596
 7019TIP3    H221022   0.169   3.056   0.479
 7020TIP3   OH221023   1.096   1.108   2.192
 7020TIP3    H121024   1.075   1.062   2.274
 7020TIP3    H221025   1.018   1.160   2.174
 7021TIP3   OH221026   3.702   2.547   3.041
 7021TIP3    H121027   3.678   2.615   3.103
 7021TIP3    H221028   3.645   2.473   3.063
 7022TIP3   OH221029   1.442   1.942   3.791
 7022TIP3    H121030   1.528   1.912   3.761
 7022TIP3    H221031   1.462   2.014   3.852
 7023TIP3   OH221032   5.079   1.368   0.164
 7023TIP3    H121033   5.020   1.349   0.091
 7023TIP3    H221034   5.072   1.292   0.222
 7024TIP3   OH221035   0.033   0.103   2.300
 7024TIP3    H121036  -0.037   0.093   2.235
 7024TIP3    H221037   0.020   0.191   2.336
 7025TIP3   OH221038   7.181   5.168   5.602
 7025TIP3    H121039   7.169   5.205   5.514
 7025TIP3    H221040   7.117   5.215   5.656
 7026TIP3   OH221041   4.089   0.827   2.959
 7026TIP3    H121042   3.994   0.816   2.957
 7026TIP3    H221043   4.102   0.916   2.993
 7027TIP3   OH221044   4.077   1.115   4.457
 7027TIP3    H121045   4.114   1.200   4.482
 7027TIP3    H221046   4.032   1.133   4.374
 7028TIP3   OH221047   2.167   2.922   4.774
 7028TIP3    H121048   2.094   2.926   4.712
 7028TIP3    H221049   2.184   2.828   4.785
 7029TIP3   OH221050   4.828   4.044   1.662
 7029TIP3    H121051   4.739   4.080   1.664
 7029TIP3    H221052   4.865   4.078   1.581
 7030TIP3   OH221053   0.938   4.020   1.763
 7030TIP3    H121054   0.899   4.105   1.744
 7030TIP3    H221055   0.863   3.963   1.780
 7031TIP3   OH221056   3.733   5.147   0.542
 7031TIP3    H121057   3.717   5.201   0.620
 7031TIP3    H221058   3.822   5.170   0.516
 7032TIP3   OH221059   6.723   6.290   0.756
 7032TIP3    H121060   6.671   6.313   0.833
 7032TIP3    H221061   6.797   6.350   0.757
 7033TIP3   OH221062   6.686   4.119   3.206
 7033TIP3    H121063   6.710   4.148   3.118
 7033TIP3    H221064   6.740   4.041   3.221
 7034TIP3   OH221065   1.139   3.257   1.295
 7034TIP3    H121066   1.140   3.270   1.389
 7034TIP3    H221067   1.076   3.185   1.282
 7035TIP3   OH221068   3.167   4.120   0.236
 7035TIP3    H121069   3.224   4.095   0.163
 7035TIP3    H221070   3.098   4.173   0.196
 7036TIP3   OH221071   4.867   5.382   4.974
 7036TIP3    H121072   4.820   5.311   5.019
 7036TIP3    H221073   4.822   5.390   4.890
 7037TIP3   OH221074   2.472   1.348   4.792
 7037TIP3    H121075   2.496   1.398   4.714
 7037TIP3    H221076   2.455   1.260   4.760
 7038TIP3   OH221077   3.992   0.876   4.578
 7038TIP3    H121078   4.002   0.810   4.509
 7038TIP3    H221079   4.027   0.957   4.540
 7039TIP3   OH221080   6.992   4.000   0.521
 7039TIP3    H121081   6.992   3.987   0.616
 7039TIP3    H221082   7.012   4.093   0.509
 7040TIP3   OH221083   5.713   5.336   5.259
 7040TIP3    H121084   5.666   5.344   5.177
 7040TIP3    H221085   5.793   5.387   5.247
 7041TIP3   OH221086   4.606   6.378   0.174
 7041TIP3    H121087   4.540   6.435   0.134
 7041TIP3    H221088   4.619   6.308   0.110
 7042TIP3   OH221089   3.986   6.048   0.386
 7042TIP3    H121090   3.973   6.050   0.291
 7042TIP3    H221091   3.944   6.128   0.417
 7043TIP3   OH221092   4.569   2.222   3.675
 7043TIP3    H121093   4.620   2.222   3.756
 7043TIP3    H221094   4.505   2.152   3.687
 7044TIP3   OH221095   5.400   0.455   4.683
 7044TIP3    H121096   5.347   0.486   4.758
 7044TIP3    H221097   5.490   0.463   4.713
 7045TIP3   OH221098   1.256   6.421   3.360
 7045TIP3    H121099   1.209   6.443   3.440
 7045TIP3    H221100   1.348   6.419   3.385
 7046TIP3   OH221101   5.284   0.100   3.339
 7046TIP3    H121102   5.233   0.020   3.355
 7046TIP3    H221103   5.314   0.127   3.426
 7047TIP3   OH221104   6.856   1.496   1.992
 7047TIP3    H121105   6.880   1.580   1.953
 7047TIP3    H221106   6.769   1.511   2.028
 7048TIP3   OH221107   1.919   1.018   5.129
 7048TIP3    H121108   1.885   1.102   5.099
 7048TIP3    H221109   1.903   1.018   5.224
 7049TIP3   OH221110   2.626   4.730   4.028
 7049TIP3    H121111   2.557   4.723   4.094
 7049TIP3    H221112   2.611   4.656   3.969
 7050TIP3   OH221113   0.525   2.401   5.211
 7050TIP3    H121114   0.440   2.358   5.213
 7050TIP3    H221115   0.587   2.332   5.189
 7051TIP3   OH221116   6.745   3.284   2.179
 7051TIP3    H121117   6.806   3.267   2.108
 7051TIP3    H221118   6.781   3.236   2.254
 7052TIP3   OH221119   5.256   0.724   4.484
 7052TIP3    H121120   5.165   0.717   4.513
 7052TIP3    H221121   5.307   0.679   4.552
 7053TIP3   OH221122   1.092   0.284   0.235
 7053TIP3    H121123   1.004   0.280   0.272
 7053TIP3    H221124   1.094   0.213   0.171
 7054TIP3   OH221125   2.445   1.456   0.267
 7054TIP3    H121126   2.373   1.394   0.269
 7054TIP3    H221127   2.403   1.542   0.262
 7055TIP3   OH221128   0.758   6.296   0.340
 7055TIP3    H121129   0.765   6.389   0.360
 7055TIP3    H221130   0.848   6.269   0.322
 7056TIP3   OH221131   0.178   0.099   1.314
 7056TIP3    H121132   0.185   0.176   1.258
 7056TIP3    H221133   0.184   0.025   1.254
 7057TIP3   OH221134   3.982   3.461   3.655
 7057TIP3    H121135   4.035   3.441   3.732
 7057TIP3    H221136   3.928   3.535   3.683
 7058TIP3   OH221137   3.907   4.802   2.480
 7058TIP3    H121138   3.965   4.853   2.425
 7058TIP3    H221139   3.921   4.836   2.569
 7059TIP3   OH221140   6.069   1.000   4.519
 7059TIP3    H121141   6.082   1.060   4.592
 7059TIP3    H221142   5.978   1.014   4.492
 7060TIP3   OH221143   6.782   4.668   0.450
 7060TIP3    H121144   6.772   4.679   0.545
 7060TIP3    H221145   6.715   4.725   0.412
 7061TIP3   OH221146   4.972   3.794   4.476
 7061TIP3    H121147   5.052   3.845   4.490
 7061TIP3    H221148   4.992   3.739   4.400
 7062TIP3   OH221149   1.443   4.179   2.379
 7062TIP3    H121150   1.384   4.105   2.394
 7062TIP3    H221151   1.446   4.188   2.284
 7063TIP3   OH221152   3.719   0.363   5.228
 7063TIP3    H121153   3.637   0.314   5.239
 7063TIP3    H221154   3.751   0.375   5.317
 7064TIP3   OH221155   1.825   5.765   5.328
 7064TIP3    H121156   1.831   5.834   5.395
 7064TIP3    H221157   1.836   5.812   5.246
 7065TIP3   OH221158   5.591   1.309   1.169
 7065TIP3    H121159   5.540   1.241   1.213
 7065TIP3    H221160   5.604   1.376   1.236
 7066TIP3   OH221161   2.905   3.458   5.526
 7066TIP3    H121162   2.861   3.378   5.496
 7066TIP3    H221163   2.911   3.512   5.447
 7067TIP3   OH221164   1.892   2.693   1.334
 7067TIP3    H121165   1.985   2.716   1.333
 7067TIP3    H221166   1.861   2.709   1.245
 7068TIP3   OH221167   2.816   4.936   5.613
 7068TIP3    H121168   2.773   4.992   5.548
 7068TIP3    H221169   2.753   4.865   5.628
 7069TIP3   OH221170   1.619   0.755  -0.020
 7069TIP3    H121171   1.572   0.838  -0.030
 7069TIP3    H221172   1.707   0.781   0.006
 7070TIP3   OH221173   4.297   6.086   0.096
 7070TIP3    H121174   4.282   6.070   0.189
 7070TIP3    H221175   4.388   6.061   0.082
 7071TIP3   OH221176   5.516   2.170   3.314
 7071TIP3    H121177   5.491   2.179   3.222
 7071TIP3    H221178   5.433   2.180   3.362
 7072TIP3   OH221179   4.135   1.665   2.329
 7072TIP3    H121180   4.075   1.685   2.258
 7072TIP3    H221181   4.182   1.747   2.345
 7073TIP3   OH221182   0.589   0.235   0.479
 7073TIP3    H121183   0.507   0.285   0.473
 7073TIP3    H221184   0.567   0.148   0.445
 7074TIP3   OH221185   4.303   1.008   4.598
 7074TIP3    H121186   4.227   1.037   4.549
 7074TIP3    H221187   4.313   1.075   4.667
 7075TIP3   OH221188   3.645   5.080   1.279
 7075TIP3    H121189   3.561   5.039   1.301
 7075TIP3    H221190   3.670   5.040   1.195
 7076TIP3   OH221191   6.119   5.389   1.039
 7076TIP3    H121192   6.102   5.439   1.119
 7076TIP3    H221193   6.066   5.432   0.972
 7077TIP3   OH221194   2.381   5.750   2.452
 7077TIP3    H121195   2.367   5.842   2.473
 7077TIP3    H221196   2.453   5.750   2.389
 7078TIP3   OH221197   4.782   6.354   2.706
 7078TIP3    H121198   4.855   6.406   2.671
 7078TIP3    H221199   4.745   6.409   2.776
 7079TIP3   OH221200   5.479   5.095   4.668
 7079TIP3    H121201   5.525   5.113   4.750
 7079TIP3    H221202   5.432   5.176   4.649
 7080TIP3   OH221203   1.538   1.042   1.404
 7080TIP3    H121204   1.474   1.039   1.333
 7080TIP3    H221205   1.559   0.951   1.421
 7081TIP3   OH221206   1.753   3.029   0.629
 7081TIP3    H121207   1.814   2.982   0.572
 7081TIP3    H221208   1.686   3.063   0.569
 7082TIP3   OH221209   1.377   0.275   5.791
 7082TIP3    H121210   1.342   0.187   5.808
 7082TIP3    H221211   1.332   0.331   5.854
 7083TIP3   OH221212   1.338   1.513   5.083
 7083TIP3    H121213   1.268   1.455   5.051
 7083TIP3    H221214   1.417   1.459   5.075
 7084TIP3   OH221215   3.284   5.233   1.287
 7084TIP3    H121216   3.280   5.215   1.193
 7084TIP3    H221217   3.194   5.221   1.317
 7085TIP3   OH221218   3.753   5.535   3.289
 7085TIP3    H121219   3.739   5.541   3.195
 7085TIP3    H221220   3.801   5.453   3.301
 7086TIP3   OH221221   4.696   5.426   3.683
 7086TIP3    H121222   4.758   5.364   3.645
 7086TIP3    H221223   4.739   5.512   3.673
 7087TIP3   OH221224   1.712   3.119   2.630
 7087TIP3    H121225   1.663   3.201   2.633
 7087TIP3    H221226   1.801   3.144   2.604
 7088TIP3   OH221227   4.069   5.281   1.668
 7088TIP3    H121228   4.118   5.310   1.591
 7088TIP3    H221229   4.049   5.189   1.650
 7089TIP3   OH221230   1.546   3.220   4.925
 7089TIP3    H121231   1.570   3.224   5.017
 7089TIP3    H221232   1.460   3.262   4.920
 7090TIP3   OH221233   1.563   6.279   5.038
 7090TIP3    H121234   1.468   6.292   5.033
 7090TIP3    H221235   1.582   6.217   4.967
 7091TIP3   OH221236   1.479   2.890   1.338
 7091TIP3    H121237   1.502   2.919   1.426
 7091TIP3    H221238   1.412   2.953   1.309
 7092TIP3   OH221239   6.624   6.567   4.133
 7092TIP3    H121240   6.621   6.513   4.055
 7092TIP3    H221241   6.578   6.516   4.200
 7093TIP3   OH221242   1.799   1.640   0.645
 7093TIP3    H121243   1.800   1.621   0.739
 7093TIP3    H221244   1.884   1.610   0.613
 7094TIP3   OH221245   2.445   4.950   3.203
 7094TIP3    H121246   2.395   5.030   3.221
 7094TIP3    H221247   2.380   4.889   3.167
 7095TIP3   OH221248   5.612   0.176   4.090
 7095TIP3    H121249   5.574   0.242   4.032
 7095TIP3    H221250   5.698   0.159   4.053
 7096TIP3   OH221251   0.210   1.654   5.847
 7096TIP3    H121252   0.214   1.561   5.870
 7096TIP3    H221253   0.125   1.683   5.879
 7097TIP3   OH221254   4.184   5.288   4.747
 7097TIP3    H121255   4.095   5.296   4.713
 7097TIP3    H221256   4.202   5.194   4.746
 7098TIP3   OH221257   0.607   5.129   1.251
 7098TIP3    H121258   0.549   5.113   1.326
 7098TIP3    H221259   0.553   5.108   1.175
 7099TIP3   OH221260   1.764   5.096   3.949
 7099TIP3    H121261   1.750   5.052   3.866
 7099TIP3    H221262   1.696   5.061   4.007
 7100TIP3   OH221263   1.577   6.048   1.392
 7100TIP3    H121264   1.590   5.953   1.385
 7100TIP3    H221265   1.558   6.063   1.484
 7101TIP3   OH221266   4.300   3.274   4.194
 7101TIP3    H121267   4.366   3.292   4.261
 7101TIP3    H221268   4.227   3.235   4.242
 7102TIP3   OH221269   3.216   0.804   0.511
 7102TIP3    H121270   3.255   0.720   0.487
 7102TIP3    H221271   3.192   0.794   0.603
 7103TIP3   OH221272   5.795   6.741   0.288
 7103TIP3    H121273   5.833   6.783   0.211
 7103TIP3    H221274   5.701   6.741   0.271
 7104TIP3   OH221275   6.643   5.018   2.476
 7104TIP3    H121276   6.663   5.095   2.423
 7104TIP3    H221277   6.568   5.044   2.530
 7105TIP3   OH221278   6.319   5.874   3.214
 7105TIP3    H121279   6.401   5.920   3.195
 7105TIP3    H221280   6.259   5.943   3.242
 7106TIP3   OH221281   5.903   0.895   0.979
 7106TIP3    H121282   5.819   0.867   1.016
 7106TIP3    H221283   5.884   0.908   0.886
 7107TIP3   OH221284   6.403   0.620   1.107
 7107TIP3    H121285   6.454   0.568   1.169
 7107TIP3    H221286   6.374   0.696   1.157
 7108TIP3   OH221287   2.245   1.350   2.498
 7108TIP3    H121288   2.191   1.428   2.511
 7108TIP3    H221289   2.205   1.283   2.554
 7109TIP3   OH221290   4.005   2.919   2.323
 7109TIP3    H121291   3.911   2.909   2.306
 7109TIP3    H221292   4.016   2.887   2.412
 7110TIP3   OH221293   1.208   5.243   5.486
 7110TIP3    H121294   1.207   5.314   5.551
 7110TIP3    H221295   1.133   5.188   5.511
 7111TIP3   OH221296   5.995   3.889   3.904
 7111TIP3    H121297   6.086   3.880   3.932
 7111TIP3    H221298   5.983   3.820   3.838
 7112TIP3   OH221299   5.907   6.049   1.898
 7112TIP3    H121300   5.837   6.113   1.882
 7112TIP3    H221301   5.984   6.102   1.916
 7113TIP3   OH221302   2.309   6.052   3.066
 7113TIP3    H121303   2.263   5.968   3.069
 7113TIP3    H221304   2.402   6.029   3.070
 7114TIP3   OH221305   5.941   0.152   0.176
 7114TIP3    H121306   6.011   0.216   0.171
 7114TIP3    H221307   5.960   0.102   0.256
 7115TIP3   OH221308   6.277   6.577   2.303
 7115TIP3    H121309   6.206   6.640   2.285
 7115TIP3    H221310   6.355   6.632   2.314
 7116TIP3   OH221311   5.971   4.855   3.395
 7116TIP3    H121312   6.017   4.776   3.366
 7116TIP3    H221313   6.018   4.883   3.473
 7117TIP3   OH221314   1.603   3.121   2.307
 7117TIP3    H121315   1.621   3.213   2.328
 7117TIP3    H221316   1.591   3.080   2.392
 7118TIP3   OH221317   3.860   3.263   3.488
 7118TIP3    H121318   3.910   3.307   3.557
 7118TIP3    H221319   3.782   3.317   3.478
 7119TIP3   OH221320   4.488   3.329   3.621
 7119TIP3    H121321   4.439   3.312   3.702
 7119TIP3    H221322   4.570   3.280   3.632
 7120TIP3   OH221323   3.055   2.196   0.017
 7120TIP3    H121324   3.144   2.228   0.028
 7120TIP3    H221325   3.064   2.101   0.014
 7121TIP3   OH221326   3.962   3.770   3.620
 7121TIP3    H121327   3.926   3.857   3.605
 7121TIP3    H221328   3.886   3.717   3.648
 7122TIP3   OH221329   0.656   6.226   2.979
 7122TIP3    H121330   0.683   6.311   2.943
 7122TIP3    H221331   0.720   6.164   2.944
 7123TIP3   OH221332   3.738   4.546   2.729
 7123TIP3    H121333   3.810   4.483   2.722
 7123TIP3    H221334   3.764   4.606   2.799
 7124TIP3   OH221335   0.722   4.074   5.603
 7124TIP3    H121336   0.674   4.030   5.673
 7124TIP3    H221337   0.813   4.071   5.631
 7125TIP3   OH221338   6.305   2.243   5.822
 7125TIP3    H121339   6.224   2.233   5.773
 7125TIP3    H221340   6.279   2.289   5.902
 7126TIP3   OH221341   1.339   5.887   5.297
 7126TIP3    H121342   1.350   5.965   5.351
 7126TIP3    H221343   1.426   5.874   5.257
 7127TIP3   OH221344   4.029   1.103   2.861
 7127TIP3    H121345   4.060   1.171   2.801
 7127TIP3    H221346   4.001   1.032   2.803
 7128TIP3   OH221347   1.898   0.462   1.028
 7128TIP3    H121348   1.967   0.528   1.032
 7128TIP3    H221349   1.841   0.492   0.957
 7129TIP3   OH221350   3.433   0.762   1.029
 7129TIP3    H121351   3.407   0.685   0.979
 7129TIP3    H221352   3.450   0.829   0.963
 7130TIP3   OH221353   6.610   0.367   5.095
 7130TIP3    H121354   6.639   0.315   5.020
 7130TIP3    H221355   6.614   0.457   5.063
 7131TIP3   OH221356   5.141   2.848   1.540
 7131TIP3    H121357   5.183   2.924   1.581
 7131TIP3    H221358   5.049   2.872   1.535
 7132TIP3   OH221359   2.879   5.001   0.700
 7132TIP3    H121360   2.804   4.989   0.641
 7132TIP3    H221361   2.846   5.056   0.770
 7133TIP3   OH221362   5.572   5.869   0.083
 7133TIP3    H121363   5.634   5.931   0.044
 7133TIP3    H221364   5.627   5.804   0.126
 7134TIP3   OH221365   6.630   4.627   0.133
 7134TIP3    H121366   6.582   4.544   0.141
 7134TIP3    H221367   6.596   4.681   0.204
 7135TIP3   OH221368   2.758   2.203   4.144
 7135TIP3    H121369   2.845   2.171   4.120
 7135TIP3    H221370   2.775   2.280   4.200
 7136TIP3   OH221371   4.212   2.184   2.053
 7136TIP3    H121372   4.151   2.224   2.115
 7136TIP3    H221373   4.207   2.090   2.073
 7137TIP3   OH221374   3.760   6.741   2.099
 7137TIP3    H121375   3.810   6.813   2.061
 7137TIP3    H221376   3.738   6.685   2.024
 7138TIP3   OH221377   0.098   5.415   0.915
 7138TIP3    H121378   0.007   5.436   0.895
 7138TIP3    H221379   0.102   5.319   0.916
 7139TIP3   OH221380   5.779   1.148   2.957
 7139TIP3    H121381   5.789   1.209   2.885
 7139TIP3    H221382   5.853   1.167   3.015
 7140TIP3   OH221383   6.957   4.816   5.717
 7140TIP3    H121384   7.001   4.748   5.666
 7140TIP3    H221385   6.893   4.853   5.656
 7141TIP3   OH221386   3.940   5.751   3.282
 7141TIP3    H121387   3.886   5.825   3.252
 7141TIP3    H221388   3.881   5.676   3.280
 7142TIP3   OH221389   3.130   5.545   0.832
 7142TIP3    H121390   3.052   5.540   0.776
 7142TIP3    H221391   3.097   5.534   0.921
 7143TIP3   OH221392   2.355   6.091   0.832
 7143TIP3    H121393   2.419   6.027   0.800
 7143TIP3    H221394   2.277   6.075   0.779
 7144TIP3   OH221395   6.450   3.990   1.579
 7144TIP3    H121396   6.435   3.911   1.631
 7144TIP3    H221397   6.410   3.971   1.495
 7145TIP3   OH221398   2.561   5.653   1.578
 7145TIP3    H121399   2.478   5.695   1.601
 7145TIP3    H221400   2.578   5.681   1.488
 7146TIP3   OH221401   5.044   4.476   0.779
 7146TIP3    H121402   5.124   4.500   0.825
 7146TIP3    H221403   4.992   4.556   0.778
 7147TIP3   OH221404   4.343   2.457   1.853
 7147TIP3    H121405   4.376   2.415   1.774
 7147TIP3    H221406   4.413   2.444   1.918
 7148TIP3   OH221407   2.538   1.390   1.671
 7148TIP3    H121408   2.620   1.364   1.630
 7148TIP3    H221409   2.562   1.412   1.761
 7149TIP3   OH221410   4.644   2.479   1.512
 7149TIP3    H121411   4.643   2.452   1.603
 7149TIP3    H221412   4.551   2.489   1.488
 7150TIP3   OH221413   6.158   2.156   4.180
 7150TIP3    H121414   6.132   2.179   4.269
 7150TIP3    H221415   6.147   2.061   4.176
 7151TIP3   OH221416   0.858   0.110   1.356
 7151TIP3    H121417   0.833   0.202   1.364
 7151TIP3    H221418   0.843   0.073   1.443
 7152TIP3   OH221419   1.158   0.733   3.497
 7152TIP3    H121420   1.150   0.817   3.543
 7152TIP3    H221421   1.248   0.706   3.513
 7153TIP3   OH221422   2.434   4.880   3.857
 7153TIP3    H121423   2.497   4.876   3.930
 7153TIP3    H221424   2.455   4.804   3.804
 7154TIP3   OH221425   0.501   3.667   4.366
 7154TIP3    H121426   0.484   3.732   4.434
 7154TIP3    H221427   0.560   3.712   4.305
 7155TIP3   OH221428   5.339   1.735   5.162
 7155TIP3    H121429   5.272   1.781   5.212
 7155TIP3    H221430   5.353   1.654   5.211
 7156TIP3   OH221431   0.646   6.263   5.520
 7156TIP3    H121432   0.716   6.262   5.585
 7156TIP3    H221433   0.690   6.284   5.437
 7157TIP3   OH221434   4.279   3.030   4.535
 7157TIP3    H121435   4.198   3.025   4.584
 7157TIP3    H221436   4.347   3.036   4.602
 7158TIP3   OH221437   1.667   2.159   4.755
 7158TIP3    H121438   1.585   2.117   4.729
 7158TIP3    H221439   1.679   2.135   4.847
 7159TIP3   OH221440   3.815   6.557   1.472
 7159TIP3    H121441   3.883   6.558   1.539
 7159TIP3    H221442   3.829   6.637   1.422
 7160TIP3   OH221443   1.088   6.245   3.215
 7160TIP3    H121444   1.152   6.281   3.277
 7160TIP3    H221445   1.007   6.293   3.233
 7161TIP3   OH221446   6.204  -0.029   4.875
 7161TIP3    H121447   6.286   0.003   4.914
 7161TIP3    H221448   6.136   0.023   4.918
 7162TIP3   OH221449   5.687   6.385   3.553
 7162TIP3    H121450   5.670   6.400   3.461
 7162TIP3    H221451   5.782   6.378   3.559
 7163TIP3   OH221452   3.054   0.989   2.289
 7163TIP3    H121453   2.971   0.984   2.336
 7163TIP3    H221454   3.038   0.941   2.207
 7164TIP3   OH221455   4.428   4.365   1.480
 7164TIP3    H121456   4.480   4.444   1.500
 7164TIP3    H221457   4.338   4.389   1.502
 7165TIP3   OH221458   1.555   1.292   2.455
 7165TIP3    H121459   1.620   1.271   2.388
 7165TIP3    H221460   1.605   1.334   2.524
 7166TIP3   OH221461   3.263   2.168   4.999
 7166TIP3    H121462   3.199   2.117   4.949
 7166TIP3    H221463   3.276   2.247   4.946
 7167TIP3   OH221464   0.208   1.152   5.666
 7167TIP3    H121465   0.231   1.161   5.758
 7167TIP3    H221466   0.262   1.079   5.635
 7168TIP3   OH221467   6.802   6.026   2.521
 7168TIP3    H121468   6.708   6.038   2.534
 7168TIP3    H221469   6.822   6.079   2.443
 7169TIP3   OH221470   2.505   2.261   1.237
 7169TIP3    H121471   2.599   2.258   1.222
 7169TIP3    H221472   2.469   2.199   1.174
 7170TIP3   OH221473   4.421   4.396   5.222
 7170TIP3    H121474   4.503   4.439   5.195
 7170TIP3    H221475   4.379   4.372   5.140
 7171TIP3   OH221476   5.491   2.851   0.488
 7171TIP3    H121477   5.482   2.906   0.566
 7171TIP3    H221478   5.401   2.838   0.457
 7172TIP3   OH221479   6.747   2.199   4.985
 7172TIP3    H121480   6.686   2.150   4.930
 7172TIP3    H221481   6.704   2.284   4.999
 7173TIP3   OH221482   1.905   1.736   4.141
 7173TIP3    H121483   1.906   1.646   4.107
 7173TIP3    H221484   1.902   1.725   4.236
 7174TIP3   OH221485   0.996   0.645   4.176
 7174TIP3    H121486   1.076   0.699   4.175
 7174TIP3    H221487   0.926   0.708   4.192
 7175TIP3   OH221488   6.123   0.222   4.992
 7175TIP3    H121489   6.192   0.249   5.052
 7175TIP3    H221490   6.050   0.197   5.048
 7176TIP3   OH221491   4.278   0.008   2.532
 7176TIP3    H121492   4.262   0.100   2.511
 7176TIP3    H221493   4.250  -0.001   2.623
 7177TIP3   OH221494   6.720   2.128   1.811
 7177TIP3    H121495   6.765   2.209   1.788
 7177TIP3    H221496   6.679   2.099   1.729
 7178TIP3   OH221497   6.314   2.009   5.645
 7178TIP3    H121498   6.238   1.996   5.702
 7178TIP3    H221499   6.387   1.973   5.695
 7179TIP3   OH221500   2.224   3.439   0.095
 7179TIP3    H121501   2.140   3.440   0.050
 7179TIP3    H221502   2.208   3.488   0.176
 7180TIP3   OH221503   1.835   0.286   0.695
 7180TIP3    H121504   1.909   0.266   0.752
 7180TIP3    H221505   1.854   0.373   0.660
 7181TIP3   OH221506   1.830   1.188   2.507
 7181TIP3    H121507   1.780   1.195   2.425
 7181TIP3    H221508   1.802   1.105   2.546
 7182TIP3   OH221509   3.199   5.169   4.362
 7182TIP3    H121510   3.260   5.207   4.300
 7182TIP3    H221511   3.221   5.209   4.446
 7183TIP3   OH221512   4.300   5.247   0.768
 7183TIP3    H121513   4.299   5.321   0.707
 7183TIP3    H221514   4.241   5.273   0.839
 7184TIP3   OH221515   2.407   6.165   5.010
 7184TIP3    H121516   2.500   6.148   4.992
 7184TIP3    H221517   2.398   6.151   5.104
 7185TIP3   OH221518   6.838   3.111   3.403
 7185TIP3    H121519   6.876   3.075   3.323
 7185TIP3    H221520   6.851   3.206   3.394
 7186TIP3   OH221521   1.581   3.157   0.395
 7186TIP3    H121522   1.498   3.112   0.412
 7186TIP3    H221523   1.556   3.249   0.382
 7187TIP3   OH221524   5.323   4.479   2.855
 7187TIP3    H121525   5.356   4.403   2.903
 7187TIP3    H221526   5.229   4.479   2.870
 7188TIP3   OH221527   4.278   0.521   5.497
 7188TIP3    H121528   4.236   0.602   5.468
 7188TIP3    H221529   4.209   0.455   5.492
 7189TIP3   OH221530   3.524   4.042   5.511
 7189TIP3    H121531   3.516   4.078   5.599
 7189TIP3    H221532   3.618   4.029   5.498
 7190TIP3   OH221533   1.863   1.514   3.801
 7190TIP3    H121534   1.808   1.437   3.818
 7190TIP3    H221535   1.802   1.588   3.803
 7191TIP3   OH221536   2.387   5.228   5.854
 7191TIP3    H121537   2.325   5.292   5.889
 7191TIP3    H221538   2.473   5.266   5.872
 7192TIP3   OH221539   3.223   3.070   1.902
 7192TIP3    H121540   3.229   3.119   1.984
 7192TIP3    H221541   3.224   3.137   1.834
 7193TIP3   OH221542   5.248   0.576   1.422
 7193TIP3    H121543   5.306   0.576   1.346
 7193TIP3    H221544   5.227   0.484   1.437
 7194TIP3   OH221545   6.673   3.722   4.646
 7194TIP3    H121546   6.751   3.778   4.644
 7194TIP3    H221547   6.689   3.664   4.721
 7195TIP3   OH221548   6.012   1.838   3.164
 7195TIP3    H121549   6.049   1.752   3.184
 7195TIP3    H221550   6.039   1.856   3.074
 7196TIP3   OH221551   2.259   2.151   0.049
 7196TIP3    H121552   2.248   2.057   0.035
 7196TIP3    H221553   2.261   2.188  -0.040
 7197TIP3   OH221554   0.492   4.307   3.622
 7197TIP3    H121555   0.412   4.303   3.571
 7197TIP3    H221556   0.560   4.274   3.563
 7198TIP3   OH221557   6.783   2.031   5.190
 7198TIP3    H121558   6.849   2.073   5.246
 7198TIP3    H221559   6.785   2.081   5.109
 7199TIP3   OH221560   0.291   0.824   4.883
 7199TIP3    H121561   0.347   0.770   4.828
 7199TIP3    H221562   0.225   0.762   4.916
 7200TIP3   OH221563   5.253   0.584   3.133
 7200TIP3    H121564   5.267   0.492   3.152
 7200TIP3    H221565   5.285   0.630   3.211
 7201TIP3   OH221566   4.934   6.203   3.635
 7201TIP3    H121567   4.947   6.138   3.705
 7201TIP3    H221568   4.838   6.209   3.626
 7202TIP3   OH221569   2.859   1.468   2.637
 7202TIP3    H121570   2.899   1.386   2.665
 7202TIP3    H221571   2.812   1.446   2.556
 7203TIP3   OH221572   2.593   6.728   3.088
 7203TIP3    H121573   2.666   6.675   3.056
 7203TIP3    H221574   2.633   6.811   3.114
 7204TIP3   OH221575   6.582   0.058   4.386
 7204TIP3    H121576   6.543   0.090   4.305
 7204TIP3    H221577   6.540  -0.027   4.401
 7205TIP3   OH221578   5.577   6.565   1.758
 7205TIP3    H121579   5.589   6.583   1.852
 7205TIP3    H221580   5.655   6.516   1.733
 7206TIP3   OH221581   6.315   0.781   3.676
 7206TIP3    H121582   6.385   0.786   3.741
 7206TIP3    H221583   6.285   0.872   3.667
 7207TIP3   OH221584   4.088   2.481   0.492
 7207TIP3    H121585   4.149   2.431   0.437
 7207TIP3    H221586   4.025   2.517   0.430
 7208TIP3   OH221587   5.681   0.567   3.257
 7208TIP3    H121588   5.649   0.574   3.167
 7208TIP3    H221589   5.762   0.516   3.249
 7209TIP3   OH221590   4.282   4.685   3.482
 7209TIP3    H121591   4.362   4.735   3.498
 7209TIP3    H221592   4.312   4.606   3.437
 7210TIP3   OH221593   5.725   1.729   2.759
 7210TIP3    H121594   5.732   1.711   2.852
 7210TIP3    H221595   5.646   1.682   2.731
 7211TIP3   OH221596   4.370   3.315   3.944
 7211TIP3    H121597   4.460   3.286   3.956
 7211TIP3    H221598   4.331   3.310   4.031
 7212TIP3   OH221599   2.829   1.761   4.244
 7212TIP3    H121600   2.917   1.790   4.269
 7212TIP3    H221601   2.772   1.830   4.278
 7213TIP3   OH221602   2.585   2.690   4.701
 7213TIP3    H121603   2.512   2.735   4.659
 7213TIP3    H221604   2.654   2.690   4.635
 7214TIP3   OH221605   2.429   1.649   1.301
 7214TIP3    H121606   2.387   1.731   1.275
 7214TIP3    H221607   2.466   1.614   1.220
 7215TIP3   OH221608   0.324   4.490   2.299
 7215TIP3    H121609   0.284   4.515   2.382
 7215TIP3    H221610   0.386   4.421   2.322
 7216TIP3   OH221611   1.103   2.145   1.313
 7216TIP3    H121612   1.161   2.211   1.352
 7216TIP3    H221613   1.129   2.141   1.221
 7217TIP3   OH221614   4.315   2.322   1.364
 7217TIP3    H121615   4.285   2.405   1.401
 7217TIP3    H221616   4.395   2.346   1.316
 7218TIP3   OH221617   2.419   2.726   3.174
 7218TIP3    H121618   2.364   2.698   3.247
 7218TIP3    H221619   2.359   2.733   3.100
 7219TIP3   OH221620   6.232   3.332   1.350
 7219TIP3    H121621   6.261   3.421   1.370
 7219TIP3    H221622   6.137   3.335   1.353
 7220TIP3   OH221623   3.665   6.231   3.755
 7220TIP3    H121624   3.607   6.307   3.750
 7220TIP3    H221625   3.636   6.175   3.683
 7221TIP3   OH221626   7.133   0.838   4.864
 7221TIP3    H121627   7.170   0.922   4.892
 7221TIP3    H221628   7.039   0.855   4.856
 7222TIP3   OH221629   4.353   3.115   0.309
 7222TIP3    H121630   4.302   3.034   0.316
 7222TIP3    H221631   4.370   3.124   0.215
 7223TIP3   OH221632   4.465   2.028   3.472
 7223TIP3    H121633   4.540   1.984   3.433
 7223TIP3    H221634   4.502   2.104   3.517
 7224TIP3   OH221635   0.383   2.466   5.607
 7224TIP3    H121636   0.445   2.393   5.598
 7224TIP3    H221637   0.427   2.527   5.667
 7225TIP3   OH221638   0.455   2.941   3.583
 7225TIP3    H121639   0.544   2.906   3.591
 7225TIP3    H221640   0.463   3.010   3.518
 7226TIP3   OH221641   6.225   4.715   1.722
 7226TIP3    H121642   6.135   4.729   1.692
 7226TIP3    H221643   6.275   4.787   1.682
 7227TIP3   OH221644   3.312   3.731   0.653
 7227TIP3    H121645   3.227   3.731   0.609
 7227TIP3    H221646   3.373   3.697   0.587
 7228TIP3   OH221647   1.842   3.444   3.680
 7228TIP3    H121648   1.763   3.485   3.715
 7228TIP3    H221649   1.815   3.408   3.595
 7229TIP3   OH221650   4.656   5.516   4.394
 7229TIP3    H121651   4.600   5.546   4.322
 7229TIP3    H221652   4.596   5.506   4.468
 7230TIP3   OH221653   5.939   3.525   4.039
 7230TIP3    H121654   5.926   3.542   3.946
 7230TIP3    H221655   5.853   3.540   4.078
 7231TIP3   OH221656   4.838   1.451   2.527
 7231TIP3    H121657   4.796   1.513   2.586
 7231TIP3    H221658   4.778   1.377   2.523
 7232TIP3   OH221659   4.537   1.166   3.466
 7232TIP3    H121660   4.528   1.131   3.377
 7232TIP3    H221661   4.627   1.199   3.469
 7233TIP3   OH221662   1.270   4.909   1.663
 7233TIP3    H121663   1.217   4.858   1.602
 7233TIP3    H221664   1.206   4.952   1.720
 7234TIP3   OH221665   6.750   5.882   4.873
 7234TIP3    H121666   6.717   5.972   4.868
 7234TIP3    H221667   6.809   5.874   4.798
 7235TIP3   OH221668   4.713   5.594   2.611
 7235TIP3    H121669   4.681   5.514   2.568
 7235TIP3    H221670   4.690   5.665   2.550
 7236TIP3   OH221671   0.566   5.919   5.358
 7236TIP3    H121672   0.480   5.956   5.340
 7236TIP3    H221673   0.571   5.915   5.454
 7237TIP3   OH221674   6.230   6.552   0.533
 7237TIP3    H121675   6.228   6.568   0.628
 7237TIP3    H221676   6.280   6.626   0.498
 7238TIP3   OH221677   2.192   5.256   1.834
 7238TIP3    H121678   2.238   5.172   1.834
 7238TIP3    H221679   2.188   5.281   1.741
 7239TIP3   OH221680   3.412   2.131   5.792
 7239TIP3    H121681   3.447   2.118   5.881
 7239TIP3    H221682   3.359   2.053   5.777
 7240TIP3   OH221683   6.706   5.815   0.510
 7240TIP3    H121684   6.649   5.753   0.556
 7240TIP3    H221685   6.730   5.879   0.577
 7241TIP3   OH221686   5.223   4.903   2.723
 7241TIP3    H121687   5.255   4.971   2.664
 7241TIP3    H221688   5.238   4.939   2.811
 7242TIP3   OH221689   0.290   3.884   5.693
 7242TIP3    H121690   0.216   3.944   5.679
 7242TIP3    H221691   0.364   3.941   5.711
 7243TIP3   OH221692   6.646   4.868   5.287
 7243TIP3    H121693   6.648   4.773   5.280
 7243TIP3    H221694   6.558   4.893   5.258
 7244TIP3   OH221695   2.005   5.267   3.472
 7244TIP3    H121696   2.042   5.266   3.561
 7244TIP3    H221697   2.065   5.323   3.422
 7245TIP3   OH221698   6.313   2.394   4.215
 7245TIP3    H121699   6.278   2.453   4.282
 7245TIP3    H221700   6.259   2.316   4.222
 7246TIP3   OH221701   1.026   1.047   0.765
 7246TIP3    H121702   0.970   1.044   0.843
 7246TIP3    H221703   0.977   1.101   0.703
 7247TIP3   OH221704   6.961   6.685   1.882
 7247TIP3    H121705   7.002   6.757   1.833
 7247TIP3    H221706   6.868   6.707   1.883
 7248TIP3   OH221707   1.677   6.640   5.247
 7248TIP3    H121708   1.752   6.696   5.270
 7248TIP3    H221709   1.624   6.695   5.189
 7249TIP3   OH221710   0.424   3.838   5.151
 7249TIP3    H121711   0.514   3.861   5.172
 7249TIP3    H221712   0.424   3.742   5.149
 7250TIP3   OH221713   5.602   1.447   1.916
 7250TIP3    H121714   5.690   1.409   1.914
 7250TIP3    H221715   5.574   1.438   2.007
 7251TIP3   OH221716   0.747   3.396   1.210
 7251TIP3    H121717   0.664   3.351   1.228
 7251TIP3    H221718   0.791   3.397   1.295
 7252TIP3   OH221719   4.568   5.267   0.885
 7252TIP3    H121720   4.497   5.231   0.832
 7252TIP3    H221721   4.544   5.359   0.899
 7253TIP3   OH221722   1.214   1.083   4.324
 7253TIP3    H121723   1.262   1.103   4.243
 7253TIP3    H221724   1.224   1.161   4.378
 7254TIP3   OH221725   3.058   3.872   2.243
 7254TIP3    H121726   3.151   3.866   2.220
 7254TIP3    H221727   3.016   3.905   2.163
 7255TIP3   OH221728   4.570   0.299   4.983
 7255TIP3    H121729   4.495   0.254   5.022
 7255TIP3    H221730   4.543   0.391   4.978
 7256TIP3   OH221731   6.565   6.063   2.666
 7256TIP3    H121732   6.575   5.969   2.676
 7256TIP3    H221733   6.480   6.074   2.623
 7257TIP3   OH221734   4.709   3.694   2.085
 7257TIP3    H121735   4.741   3.715   1.997
 7257TIP3    H221736   4.723   3.775   2.135
 7258TIP3   OH221737   0.634   6.498   1.407
 7258TIP3    H121738   0.659   6.519   1.497
 7258TIP3    H221739   0.539   6.489   1.410
 7259TIP3   OH221740   4.560   1.170   4.886
 7259TIP3    H121741   4.622   1.103   4.857
 7259TIP3    H221742   4.593   1.198   4.971
 7260TIP3   OH221743   6.636   2.129   3.871
 7260TIP3    H121744   6.727   2.114   3.897
 7260TIP3    H221745   6.616   2.217   3.903
 7261TIP3   OH221746   1.596   2.360   0.637
 7261TIP3    H121747   1.615   2.404   0.555
 7261TIP3    H221748   1.501   2.368   0.648
 7262TIP3   OH221749   7.029   4.635   2.298
 7262TIP3    H121750   7.116   4.605   2.273
 7262TIP3    H221751   6.983   4.650   2.215
 7263TIP3   OH221752   2.352   0.034   3.827
 7263TIP3    H121753   2.269   0.081   3.819
 7263TIP3    H221754   2.332  -0.042   3.882
 7264TIP3   OH221755   0.684   2.373   1.480
 7264TIP3    H121756   0.608   2.319   1.459
 7264TIP3    H221757   0.649   2.444   1.533
 7265TIP3   OH221758   2.914   6.816   2.416
 7265TIP3    H121759   2.949   6.821   2.327
 7265TIP3    H221760   2.931   6.726   2.444
 7266TIP3   OH221761   4.042   0.319   0.491
 7266TIP3    H121762   4.000   0.382   0.432
 7266TIP3    H221763   3.976   0.298   0.556
 7267TIP3   OH221764   1.190   5.151   0.866
 7267TIP3    H121765   1.183   5.245   0.885
 7267TIP3    H221766   1.280   5.139   0.835
 7268TIP3   OH221767   0.238   6.177   1.756
 7268TIP3    H121768   0.320   6.217   1.727
 7268TIP3    H221769   0.198   6.241   1.815
 7269TIP3   OH221770   7.028   1.456   4.278
 7269TIP3    H121771   7.107   1.438   4.228
 7269TIP3    H221772   7.024   1.551   4.284
 7270TIP3   OH221773   1.222   2.381   1.445
 7270TIP3    H121774   1.184   2.447   1.388
 7270TIP3    H221775   1.250   2.429   1.523
 7271TIP3   OH221776   6.448   6.663   1.934
 7271TIP3    H121777   6.506   6.601   1.890
 7271TIP3    H221778   6.498   6.693   2.010
 7272TIP3   OH221779   3.802   2.972   4.720
 7272TIP3    H121780   3.773   3.060   4.742
 7272TIP3    H221781   3.750   2.914   4.775
 7273TIP3   OH221782   3.877   3.839   3.320
 7273TIP3    H121783   3.932   3.762   3.307
 7273TIP3    H221784   3.859   3.840   3.414
 7274TIP3   OH221785   3.294   5.006   5.717
 7274TIP3    H121786   3.291   4.972   5.627
 7274TIP3    H221787   3.202   5.021   5.739
 7275TIP3   OH221788   2.031   1.265   2.665
 7275TIP3    H121789   1.953   1.258   2.610
 7275TIP3    H221790   2.018   1.346   2.715
 7276TIP3   OH221791   1.079   3.785   0.995
 7276TIP3    H121792   1.052   3.752   1.081
 7276TIP3    H221793   1.060   3.713   0.935
 7277TIP3   OH221794   1.554   5.333   1.381
 7277TIP3    H121795   1.531   5.241   1.394
 7277TIP3    H221796   1.474   5.373   1.347
 7278TIP3   OH221797   6.820   4.882   5.495
 7278TIP3    H121798   6.863   4.967   5.493
 7278TIP3    H221799   6.761   4.882   5.420
 7279TIP3   OH221800   2.313   5.007   2.238
 7279TIP3    H121801   2.262   4.960   2.305
 7279TIP3    H221802   2.387   4.949   2.221
 7280TIP3   OH221803   6.200   2.489   2.345
 7280TIP3    H121804   6.222   2.404   2.307
 7280TIP3    H221805   6.118   2.473   2.393
 7281TIP3   OH221806   3.773   6.365   3.372
 7281TIP3    H121807   3.790   6.275   3.343
 7281TIP3    H221808   3.699   6.394   3.320
 7282TIP3   OH221809   1.599   4.443   5.611
 7282TIP3    H121810   1.578   4.408   5.524
 7282TIP3    H221811   1.523   4.497   5.634
 7283TIP3   OH221812   3.867   5.139   0.913
 7283TIP3    H121813   3.817   5.125   0.994
 7283TIP3    H221814   3.888   5.051   0.882
 7284TIP3   OH221815   4.739   0.953   4.885
 7284TIP3    H121816   4.806   0.923   4.823
 7284TIP3    H221817   4.673   0.883   4.885
 7285TIP3   OH221818   0.334   1.852   0.723
 7285TIP3    H121819   0.262   1.858   0.659
 7285TIP3    H221820   0.396   1.792   0.683
 7286TIP3   OH221821   2.778   3.867   2.291
 7286TIP3    H121822   2.799   3.847   2.382
 7286TIP3    H221823   2.864   3.880   2.249
 7287TIP3   OH221824   2.906   4.326   0.216
 7287TIP3    H121825   2.837   4.293   0.159
 7287TIP3    H221826   2.880   4.297   0.304
 7288TIP3   OH221827   4.262   4.730   4.045
 7288TIP3    H121828   4.200   4.672   4.002
 7288TIP3    H221829   4.348   4.693   4.025
 7289TIP3   OH221830   4.707   1.892   2.550
 7289TIP3    H121831   4.784   1.933   2.510
 7289TIP3    H221832   4.634   1.950   2.525
 7290TIP3   OH221833   5.580   0.832   3.763
 7290TIP3    H121834   5.554   0.907   3.711
 7290TIP3    H221835   5.593   0.761   3.699
 7291TIP3   OH221836   2.418   4.213   0.794
 7291TIP3    H121837   2.330   4.181   0.773
 7291TIP3    H221838   2.419   4.303   0.762
 7292TIP3   OH221839   4.400   0.546   2.297
 7292TIP3    H121840   4.443   0.621   2.256
 7292TIP3    H221841   4.469   0.479   2.301
 7293TIP3   OH221842   3.035   2.485   2.892
 7293TIP3    H121843   2.987   2.421   2.945
 7293TIP3    H221844   3.012   2.570   2.931
 7294TIP3   OH221845   1.872   4.377   5.175
 7294TIP3    H121846   1.789   4.350   5.135
 7294TIP3    H221847   1.893   4.461   5.134
 7295TIP3   OH221848   4.952   4.804   2.806
 7295TIP3    H121849   4.863   4.808   2.771
 7295TIP3    H221850   5.005   4.771   2.734
 7296TIP3   OH221851   1.689   3.521   1.571
 7296TIP3    H121852   1.686   3.440   1.622
 7296TIP3    H221853   1.603   3.561   1.584
 7297TIP3   OH221854   1.087   6.413   4.800
 7297TIP3    H121855   1.090   6.330   4.847
 7297TIP3    H221856   0.994   6.427   4.782
 7298TIP3   OH221857   2.169   3.996   4.864
 7298TIP3    H121858   2.143   4.037   4.946
 7298TIP3    H221859   2.189   4.069   4.806
 7299TIP3   OH221860   5.857   5.188   3.374
 7299TIP3    H121861   5.879   5.152   3.460
 7299TIP3    H221862   5.939   5.182   3.324
 7300TIP3   OH221863   2.244   2.570   3.970
 7300TIP3    H121864   2.267   2.662   3.957
 7300TIP3    H221865   2.217   2.540   3.883
 7301TIP3   OH221866   4.737   5.991   4.722
 7301TIP3    H121867   4.705   6.081   4.715
 7301TIP3    H221868   4.733   5.957   4.633
 7302TIP3   OH221869   1.108   3.378   4.348
 7302TIP3    H121870   1.032   3.435   4.358
 7302TIP3    H221871   1.115   3.332   4.431
 7303TIP3   OH221872   3.719   2.635   5.466
 7303TIP3    H121873   3.758   2.642   5.553
 7303TIP3    H221874   3.708   2.541   5.453
 7304TIP3   OH221875   4.568   0.584   4.896
 7304TIP3    H121876   4.548   0.662   4.844
 7304TIP3    H221877   4.568   0.615   4.987
 7305TIP3   OH221878   0.806   4.360   3.093
 7305TIP3    H121879   0.828   4.421   3.023
 7305TIP3    H221880   0.816   4.273   3.053
 7306TIP3   OH221881   3.306   0.532   0.871
 7306TIP3    H121882   3.242   0.585   0.824
 7306TIP3    H221883   3.261   0.450   0.891
 7307TIP3   OH221884   0.692   4.494   5.366
 7307TIP3    H121885   0.743   4.534   5.296
 7307TIP3    H221886   0.652   4.568   5.412
 7308TIP3   OH221887   6.606   6.062   3.426
 7308TIP3    H121888   6.604   6.045   3.332
 7308TIP3    H221889   6.595   5.976   3.466
 7309TIP3   OH221890   2.422   4.971   4.737
 7309TIP3    H121891   2.379   5.053   4.713
 7309TIP3    H221892   2.362   4.903   4.706
 7310TIP3   OH221893   5.249   0.826   1.567
 7310TIP3    H121894   5.213   0.761   1.507
 7310TIP3    H221895   5.288   0.775   1.638
 7311TIP3   OH221896   2.018   2.460   0.302
 7311TIP3    H121897   2.050   2.517   0.233
 7311TIP3    H221898   1.925   2.449   0.283
 7312TIP3   OH221899   2.092   5.218   2.483
 7312TIP3    H121900   1.998   5.232   2.476
 7312TIP3    H221901   2.113   5.163   2.407
 7313TIP3   OH221902   7.136   4.162   4.881
 7313TIP3    H121903   7.056   4.151   4.932
 7313TIP3    H221904   7.123   4.244   4.833
 7314TIP3   OH221905   4.119   1.901   0.896
 7314TIP3    H121906   4.099   1.911   0.989
 7314TIP3    H221907   4.042   1.938   0.851
 7315TIP3   OH221908   0.430   3.979   3.469
 7315TIP3    H121909   0.400   4.025   3.548
 7315TIP3    H221910   0.516   3.945   3.493
 7316TIP3   OH221911   5.661   4.836   0.566
 7316TIP3    H121912   5.629   4.926   0.562
 7316TIP3    H221913   5.747   4.843   0.606
 7317TIP3   OH221914   3.089   6.253   4.650
 7317TIP3    H121915   3.115   6.336   4.611
 7317TIP3    H221916   3.071   6.273   4.742
 7318TIP3   OH221917   4.984   3.118   1.480
 7318TIP3    H121918   4.961   3.051   1.543
 7318TIP3    H221919   4.907   3.174   1.474
 7319TIP3   OH221920   1.731   6.716   4.876
 7319TIP3    H121921   1.794   6.732   4.805
 7319TIP3    H221922   1.744   6.789   4.936
 7320TIP3   OH221923   5.101   6.336   1.963
 7320TIP3    H121924   5.104   6.430   1.950
 7320TIP3    H221925   5.113   6.325   2.058
 7321TIP3   OH221926   3.400   4.314   4.667
 7321TIP3    H121927   3.456   4.239   4.686
 7321TIP3    H221928   3.312   4.285   4.692
 7322TIP3   OH221929   1.012   5.084   5.548
 7322TIP3    H121930   0.962   5.061   5.469
 7322TIP3    H221931   0.972   5.031   5.617
 7323TIP3   OH221932   6.796   2.290   2.664
 7323TIP3    H121933   6.825   2.207   2.624
 7323TIP3    H221934   6.789   2.271   2.757
 7324TIP3   OH221935   6.103   6.753   4.020
 7324TIP3    H121936   6.042   6.785   3.954
 7324TIP3    H221937   6.137   6.671   3.983
 7325TIP3   OH221938   6.616   0.816   4.306
 7325TIP3    H121939   6.547   0.787   4.367
 7325TIP3    H221940   6.570   0.826   4.223
 7326TIP3   OH221941   4.314   3.943   4.755
 7326TIP3    H121942   4.392   3.972   4.707
 7326TIP3    H221943   4.301   4.009   4.822
 7327TIP3   OH221944  -0.040   3.371   4.476
 7327TIP3    H121945   0.041   3.409   4.509
 7327TIP3    H221946  -0.037   3.279   4.505
 7328TIP3   OH221947   4.164   2.931   0.382
 7328TIP3    H121948   4.069   2.943   0.374
 7328TIP3    H221949   4.174   2.865   0.451
 7329TIP3   OH221950   2.102   1.748   1.972
 7329TIP3    H121951   2.019   1.710   1.944
 7329TIP3    H221952   2.089   1.769   2.064
 7330TIP3   OH221953   4.312   6.681   2.178
 7330TIP3    H121954   4.371   6.637   2.118
 7330TIP3    H221955   4.362   6.755   2.213
 7331TIP3   OH221956   1.985   3.376   0.582
 7331TIP3    H121957   2.003   3.386   0.488
 7331TIP3    H221958   1.891   3.360   0.586
 7332TIP3   OH221959   0.383   6.177   1.332
 7332TIP3    H121960   0.393   6.202   1.240
 7332TIP3    H221961   0.308   6.227   1.362
 7333TIP3   OH221962   1.587   2.106   1.368
 7333TIP3    H121963   1.590   2.046   1.442
 7333TIP3    H221964   1.550   2.187   1.405
 7334TIP3   OH221965   0.843   5.913   5.328
 7334TIP3    H121966   0.895   5.937   5.405
 7334TIP3    H221967   0.760   5.959   5.341
 7335TIP3   OH221968   7.017   3.714   4.639
 7335TIP3    H121969   6.954   3.785   4.630
 7335TIP3    H221970   7.083   3.747   4.699
 7336TIP3   OH221971   2.646   5.211   1.662
 7336TIP3    H121972   2.682   5.138   1.612
 7336TIP3    H221973   2.683   5.289   1.621
 7337TIP3   OH221974   6.546   0.385   5.685
 7337TIP3    H121975   6.566   0.473   5.654
 7337TIP3    H221976   6.494   0.398   5.764
 7338TIP3   OH221977   7.138   6.257   1.536
 7338TIP3    H121978   7.082   6.306   1.596
 7338TIP3    H221979   7.089   6.253   1.454
 7339TIP3   OH221980   5.553   3.660   5.134
 7339TIP3    H121981   5.514   3.589   5.082
 7339TIP3    H221982   5.501   3.661   5.215
 7340TIP3   OH221983   1.743   2.794   4.403
 7340TIP3    H121984   1.683   2.719   4.401
 7340TIP3    H221985   1.814   2.770   4.343
 7341TIP3   OH221986   6.513   3.409   2.707
 7341TIP3    H121987   6.518   3.473   2.636
 7341TIP3    H221988   6.592   3.424   2.759
 7342TIP3   OH221989   5.849   4.277   1.313
 7342TIP3    H121990   5.886   4.212   1.372
 7342TIP3    H221991   5.754   4.273   1.329
 7343TIP3   OH221992   1.578   1.341   0.816
 7343TIP3    H121993   1.668   1.308   0.825
 7343TIP3    H221994   1.524   1.262   0.807
 7344TIP3   OH221995   0.305   0.459   2.359
 7344TIP3    H121996   0.312   0.543   2.404
 7344TIP3    H221997   0.392   0.445   2.321
 7345TIP3   OH221998   3.055   5.543   1.096
 7345TIP3    H121999   2.985   5.547   1.161
 7345TIP3    H222000   3.077   5.450   1.090
 7346TIP3   OH222001   3.088   2.757   0.229
 7346TIP3    H122002   3.072   2.669   0.263
 7346TIP3    H222003   3.049   2.816   0.294
 7347TIP3   OH222004   7.116   4.206   2.288
 7347TIP3    H122005   7.197   4.202   2.339
 7347TIP3    H222006   7.142   4.177   2.200
 7348TIP3   OH222007   1.565   5.051   3.084
 7348TIP3    H122008   1.519   4.973   3.113
 7348TIP3    H222009   1.635   5.018   3.027
 7349TIP3   OH222010   1.060   1.311   3.505
 7349TIP3    H122011   1.012   1.347   3.430
 7349TIP3    H222012   1.046   1.216   3.499
 7350TIP3   OH222013   2.741   4.036   0.628
 7350TIP3    H122014   2.695   4.066   0.707
 7350TIP3    H222015   2.820   3.993   0.660
 7351TIP3   OH222016   5.516   4.556   1.353
 7351TIP3    H122017   5.421   4.552   1.369
 7351TIP3    H222018   5.551   4.482   1.403
 7352TIP3   OH222019   2.445   4.286   3.152
 7352TIP3    H122020   2.538   4.271   3.172
 7352TIP3    H222021   2.404   4.201   3.165
 7353TIP3   OH222022   1.386   1.304   1.076
 7353TIP3    H122023   1.323   1.360   1.031
 7353TIP3    H222024   1.336   1.264   1.147
 7354TIP3   OH222025   6.604   1.405   2.284
 7354TIP3    H122026   6.601   1.310   2.282
 7354TIP3    H222027   6.696   1.426   2.301
 7355TIP3   OH222028   5.894   5.988   4.988
 7355TIP3    H122029   5.847   5.989   5.071
 7355TIP3    H222030   5.828   6.012   4.923
 7356TIP3   OH222031   1.157   2.630   5.735
 7356TIP3    H122032   1.163   2.543   5.774
 7356TIP3    H222033   1.196   2.689   5.799
 7357TIP3   OH222034   6.661   1.111   3.820
 7357TIP3    H122035   6.609   1.146   3.748
 7357TIP3    H222036   6.746   1.154   3.812
 7358TIP3   OH222037   3.204   1.593   0.272
 7358TIP3    H122038   3.131   1.598   0.211
 7358TIP3    H222039   3.258   1.521   0.238
 7359TIP3   OH222040   3.234   5.795   1.312
 7359TIP3    H122041   3.252   5.877   1.358
 7359TIP3    H222042   3.187   5.741   1.375
 7360TIP3   OH222043   0.279   0.747   1.413
 7360TIP3    H122044   0.248   0.741   1.503
 7360TIP3    H222045   0.263   0.838   1.388
 7361TIP3   OH222046   0.171   3.735   0.629
 7361TIP3    H122047   0.078   3.731   0.609
 7361TIP3    H222048   0.214   3.724   0.544
 7362TIP3   OH222049   3.925   1.190   0.927
 7362TIP3    H122050   3.968   1.230   1.003
 7362TIP3    H222051   3.951   1.098   0.931
 7363TIP3   OH222052   3.481   5.655   5.848
 7363TIP3    H122053   3.514   5.663   5.937
 7363TIP3    H222054   3.556   5.626   5.796
 7364TIP3   OH222055   5.116   4.110   2.328
 7364TIP3    H122056   5.166   4.180   2.285
 7364TIP3    H222057   5.173   4.080   2.398
 7365TIP3   OH222058   3.219   3.363   4.226
 7365TIP3    H122059   3.216   3.320   4.311
 7365TIP3    H222060   3.245   3.295   4.164
 7366TIP3   OH222061   1.364   1.966   0.621
 7366TIP3    H122062   1.275   1.934   0.634
 7366TIP3    H222063   1.418   1.887   0.626
 7367TIP3   OH222064   0.523   2.236   2.468
 7367TIP3    H122065   0.593   2.175   2.442
 7367TIP3    H222066   0.532   2.242   2.563
 7368TIP3   OH222067   3.862   4.870   1.351
 7368TIP3    H122068   3.783   4.879   1.405
 7368TIP3    H222069   3.835   4.901   1.265
 7369TIP3   OH222070   1.127   1.895   1.434
 7369TIP3    H122071   1.214   1.895   1.393
 7369TIP3    H222072   1.083   1.971   1.397
 7370TIP3   OH222073   2.208   3.827   1.337
 7370TIP3    H122074   2.283   3.876   1.371
 7370TIP3    H222075   2.154   3.893   1.294
 7371TIP3   OH222076   1.266   6.184   0.854
 7371TIP3    H122077   1.173   6.206   0.862
 7371TIP3    H222078   1.310   6.269   0.844
 7372TIP3   OH222079   0.239   6.058   4.337
 7372TIP3    H122080   0.285   5.977   4.357
 7372TIP3    H222081   0.182   6.072   4.413
 7373TIP3   OH222082   4.728   4.488   4.138
 7373TIP3    H122083   4.683   4.533   4.067
 7373TIP3    H222084   4.660   4.468   4.202
 7374TIP3   OH222085   0.985   2.608   0.788
 7374TIP3    H122086   1.003   2.514   0.784
 7374TIP3    H222087   0.938   2.620   0.871
 7375TIP3   OH222088   4.747   4.698   5.662
 7375TIP3    H122089   4.806   4.773   5.666
 7375TIP3    H222090   4.688   4.718   5.589
 7376TIP3   OH222091   3.108   5.678   5.501
 7376TIP3    H122092   3.135   5.589   5.520
 7376TIP3    H222093   3.129   5.727   5.580
 7377TIP3   OH222094   0.500   1.581   1.327
 7377TIP3    H122095   0.519   1.491   1.352
 7377TIP3    H222096   0.586   1.619   1.310
 7378TIP3   OH222097   6.773   4.872   1.389
 7378TIP3    H122098   6.775   4.796   1.447
 7378TIP3    H222099   6.776   4.835   1.301
 7379TIP3   OH222100   3.485   2.676   1.171
 7379TIP3    H122101   3.420   2.621   1.127
 7379TIP3    H222102   3.436   2.724   1.237
 7380TIP3   OH222103   2.757   5.684   5.670
 7380TIP3    H122104   2.696   5.665   5.741
 7380TIP3    H222105   2.816   5.751   5.705
 7381TIP3   OH222106   4.101   6.637   3.457
 7381TIP3    H122107   4.164   6.701   3.423
 7381TIP3    H222108   4.072   6.589   3.379
 7382TIP3   OH222109   7.192   4.974   5.792
 7382TIP3    H122110   7.110   4.928   5.775
 7382TIP3    H222111   7.192   5.047   5.730
 7383TIP3   OH222112   6.807   3.582   0.157
 7383TIP3    H122113   6.885   3.629   0.188
 7383TIP3    H222114   6.838   3.495   0.133
 7384TIP3   OH222115   6.398   5.408   1.754
 7384TIP3    H122116   6.366   5.321   1.779
 7384TIP3    H222117   6.320   5.453   1.721
 7385TIP3   OH222118   3.872   2.851   0.882
 7385TIP3    H122119   3.919   2.795   0.944
 7385TIP3    H222120   3.786   2.865   0.923
 7386TIP3   OH222121   3.603   2.781   4.193
 7386TIP3    H122122   3.676   2.830   4.157
 7386TIP3    H222123   3.525   2.814   4.148
 7387TIP3   OH222124   4.978   5.773   0.936
 7387TIP3    H122125   4.905   5.830   0.962
 7387TIP3    H222126   5.041   5.781   1.008
 7388TIP3   OH222127   3.181   6.297   1.529
 7388TIP3    H122128   3.225   6.346   1.460
 7388TIP3    H222129   3.098   6.269   1.491
 7389TIP3   OH222130   2.584   3.171   0.742
 7389TIP3    H122131   2.493   3.184   0.768
 7389TIP3    H222132   2.580   3.124   0.659
 7390TIP3   OH222133   2.806   2.115   2.786
 7390TIP3    H122134   2.734   2.161   2.742
 7390TIP3    H222135   2.820   2.164   2.867
 7391TIP3   OH222136   4.353   5.196   4.175
 7391TIP3    H122137   4.338   5.112   4.217
 7391TIP3    H222138   4.420   5.238   4.229
 7392TIP3   OH222139   4.511   4.669   4.550
 7392TIP3    H122140   4.484   4.681   4.641
 7392TIP3    H222141   4.436   4.630   4.507
 7393TIP3   OH222142   2.621   0.480   5.843
 7393TIP3    H122143   2.550   0.453   5.784
 7393TIP3    H222144   2.601   0.437   5.926
 7394TIP3   OH222145   0.546   5.959   3.327
 7394TIP3    H122146   0.464   5.994   3.363
 7394TIP3    H222147   0.563   5.880   3.379
 7395TIP3   OH222148   6.966   4.760   3.556
 7395TIP3    H122149   6.990   4.851   3.539
 7395TIP3    H222150   7.028   4.731   3.623
 7396TIP3   OH222151   1.720   5.876   4.752
 7396TIP3    H122152   1.787   5.943   4.734
 7396TIP3    H222153   1.644   5.925   4.782
 7397TIP3   OH222154   1.316   5.133   5.060
 7397TIP3    H122155   1.251   5.203   5.063
 7397TIP3    H222156   1.280   5.069   4.998
 7398TIP3   OH222157   7.080   4.961   1.996
 7398TIP3    H122158   7.158   4.915   2.026
 7398TIP3    H222159   7.065   5.029   2.062
 7399TIP3   OH222160   0.552   3.467   1.598
 7399TIP3    H122161   0.517   3.538   1.651
 7399TIP3    H222162   0.552   3.391   1.656
 7400TIP3   OH222163   0.269   3.180   3.074
 7400TIP3    H122164   0.175   3.199   3.070
 7400TIP3    H222165   0.304   3.213   2.990
 7401TIP3   OH222166   2.102   6.264   4.103
 7401TIP3    H122167   2.166   6.266   4.032
 7401TIP3    H222168   2.140   6.205   4.168
 7402TIP3   OH222169   1.235   5.254   5.837
 7402TIP3    H122170   1.249   5.161   5.816
 7402TIP3    H222171   1.229   5.296   5.751
 7403TIP3   OH222172   3.286   0.382   0.032
 7403TIP3    H122173   3.211   0.326   0.054
 7403TIP3    H222174   3.284   0.452   0.097
 7404TIP3   OH222175  -0.047   0.358   3.630
 7404TIP3    H122176  -0.049   0.265   3.605
 7404TIP3    H222177   0.040   0.388   3.604
 7405TIP3   OH222178   1.837   4.293   1.797
 7405TIP3    H122179   1.756   4.343   1.792
 7405TIP3    H222180   1.809   4.202   1.791
 7406TIP3   OH222181   1.068   3.344   2.171
 7406TIP3    H122182   1.054   3.250   2.182
 7406TIP3    H222183   1.137   3.365   2.234
 7407TIP3   OH222184   5.777   4.653   5.000
 7407TIP3    H122185   5.700   4.596   4.992
 7407TIP3    H222186   5.777   4.706   4.921
 7408TIP3   OH222187   0.237   4.697   0.636
 7408TIP3    H122188   0.255   4.619   0.689
 7408TIP3    H222189   0.177   4.749   0.690
 7409TIP3   OH222190   7.147   1.352   0.441
 7409TIP3    H122191   7.142   1.437   0.396
 7409TIP3    H222192   7.175   1.373   0.530
 7410TIP3   OH222193   0.280   4.890   3.186
 7410TIP3    H122194   0.312   4.939   3.262
 7410TIP3    H222195   0.245   4.957   3.127
 7411TIP3   OH222196   4.766   0.072   4.738
 7411TIP3    H122197   4.836   0.105   4.682
 7411TIP3    H222198   4.800   0.084   4.827
 7412TIP3   OH222199   2.262   6.503   3.367
 7412TIP3    H122200   2.242   6.432   3.306
 7412TIP3    H222201   2.242   6.467   3.453
 7413TIP3   OH222202   3.546   6.043   5.824
 7413TIP3    H122203   3.623   6.076   5.778
 7413TIP3    H222204   3.489   6.009   5.755
 7414TIP3   OH222205   4.708   6.384   5.623
 7414TIP3    H122206   4.656   6.314   5.582
 7414TIP3    H222207   4.660   6.407   5.701
 7415TIP3   OH222208   5.828   4.779   5.356
 7415TIP3    H122209   5.748   4.737   5.325
 7415TIP3    H222210   5.821   4.870   5.326
 7416TIP3   OH222211   0.998   5.570   2.609
 7416TIP3    H122212   0.920   5.559   2.664
 7416TIP3    H222213   0.966   5.558   2.519
 7417TIP3   OH222214   0.886   3.435   1.433
 7417TIP3    H122215   0.869   3.368   1.499
 7417TIP3    H222216   0.899   3.515   1.483
 7418TIP3   OH222217   2.635   3.805   1.292
 7418TIP3    H122218   2.639   3.751   1.371
 7418TIP3    H222219   2.547   3.791   1.257
 7419TIP3   OH222220   1.430   5.659   2.106
 7419TIP3    H122221   1.428   5.688   2.015
 7419TIP3    H222222   1.384   5.576   2.106
 7420TIP3   OH222223   0.714   5.167   5.362
 7420TIP3    H122224   0.673   5.143   5.279
 7420TIP3    H222225   0.661   5.123   5.428
 7421TIP3   OH222226   4.484   3.488   2.977
 7421TIP3    H122227   4.434   3.444   3.045
 7421TIP3    H222228   4.543   3.547   3.024
 7422TIP3   OH222229   3.248   3.344   5.447
 7422TIP3    H122230   3.312   3.414   5.458
 7422TIP3    H222231   3.193   3.372   5.374
 7423TIP3   OH222232   0.725   1.861   2.630
 7423TIP3    H122233   0.639   1.850   2.672
 7423TIP3    H222234   0.729   1.792   2.564
 7424TIP3   OH222235   6.719   1.437   3.536
 7424TIP3    H122236   6.757   1.350   3.523
 7424TIP3    H222237   6.770   1.494   3.479
 7425TIP3   OH222238   2.024   2.858   2.856
 7425TIP3    H122239   2.001   2.813   2.775
 7425TIP3    H222240   1.947   2.912   2.876
 7426TIP3   OH222241   5.298   2.893   4.189
 7426TIP3    H122242   5.238   2.886   4.264
 7426TIP3    H222243   5.306   2.987   4.173
 7427TIP3   OH222244   1.295   1.855   0.911
 7427TIP3    H122245   1.245   1.821   0.836
 7427TIP3    H222246   1.384   1.825   0.895
 7428TIP3   OH222247   0.597   0.159   0.810
 7428TIP3    H122248   0.671   0.158   0.871
 7428TIP3    H222249   0.637   0.162   0.724
 7429TIP3   OH222250   4.652   5.627   1.474
 7429TIP3    H122251   4.600   5.599   1.549
 7429TIP3    H222252   4.655   5.723   1.482
 7430TIP3   OH222253   5.025   0.799   2.516
 7430TIP3    H122254   5.047   0.707   2.529
 7430TIP3    H222255   5.070   0.845   2.587
 7431TIP3   OH222256   2.667   2.495   5.015
 7431TIP3    H122257   2.595   2.459   4.965
 7431TIP3    H222258   2.746   2.470   4.967
 7432TIP3   OH222259   3.971   1.000   1.590
 7432TIP3    H122260   3.987   1.025   1.499
 7432TIP3    H222261   3.981   1.081   1.640
 7433TIP3   OH222262   4.600   5.950   4.344
 7433TIP3    H122263   4.564   6.019   4.400
 7433TIP3    H222264   4.528   5.928   4.285
 7434TIP3   OH222265   5.662   0.323   0.534
 7434TIP3    H122266   5.631   0.253   0.592
 7434TIP3    H222267   5.654   0.287   0.446
 7435TIP3   OH222268   0.200   0.456   3.563
 7435TIP3    H122269   0.263   0.417   3.504
 7435TIP3    H222270   0.252   0.514   3.619
 7436TIP3   OH222271   2.454   6.041   0.445
 7436TIP3    H122272   2.491   6.031   0.358
 7436TIP3    H222273   2.469   6.132   0.469
 7437TIP3   OH222274   6.149   0.184   3.040
 7437TIP3    H122275   6.055   0.169   3.033
 7437TIP3    H222276   6.183   0.162   2.953
 7438TIP3   OH222277   1.985   5.344   2.010
 7438TIP3    H122278   1.995   5.253   2.039
 7438TIP3    H222279   2.034   5.349   1.928
 7439TIP3   OH222280   3.195   1.188   4.225
 7439TIP3    H122281   3.142   1.154   4.152
 7439TIP3    H222282   3.286   1.169   4.199
 7440TIP3   OH222283   1.538   5.380   5.697
 7440TIP3    H122284   1.472   5.421   5.752
 7440TIP3    H222285   1.587   5.454   5.660
 7441TIP3   OH222286   4.938   5.243   4.016
 7441TIP3    H122287   4.935   5.196   3.933
 7441TIP3    H222288   4.955   5.174   4.081
 7442TIP3   OH222289   2.479   3.024   1.422
 7442TIP3    H122290   2.548   3.082   1.456
 7442TIP3    H222291   2.482   2.948   1.480
 7443TIP3   OH222292   3.088   4.702   2.724
 7443TIP3    H122293   3.007   4.683   2.771
 7443TIP3    H222294   3.105   4.623   2.672
 7444TIP3   OH222295   2.029   4.340   1.985
 7444TIP3    H122296   1.999   4.372   2.070
 7444TIP3    H222297   1.949   4.308   1.942
 7445TIP3   OH222298   3.793   3.595   0.472
 7445TIP3    H122299   3.862   3.649   0.432
 7445TIP3    H222300   3.805   3.607   0.566
 7446TIP3   OH222301   0.496   5.824   4.233
 7446TIP3    H122302   0.581   5.789   4.207
 7446TIP3    H222303   0.484   5.797   4.324
 7447TIP3   OH222304   2.505   0.290   1.955
 7447TIP3    H122305   2.431   0.333   1.998
 7447TIP3    H222306   2.509   0.203   1.994
 7448TIP3   OH222307   0.744   3.603   0.654
 7448TIP3    H122308   0.667   3.658   0.641
 7448TIP3    H222309   0.710   3.521   0.691
 7449TIP3   OH222310   5.542   1.935   5.085
 7449TIP3    H122311   5.507   1.992   5.017
 7449TIP3    H222312   5.490   1.856   5.080
 7450TIP3   OH222313   7.228   2.435   0.206
 7450TIP3    H122314   7.144   2.422   0.251
 7450TIP3    H222315   7.203   2.450   0.115
 7451TIP3   OH222316   4.186   6.512   4.068
 7451TIP3    H122317   4.195   6.534   3.975
 7451TIP3    H222318   4.255   6.561   4.111
 7452TIP3   OH222319   7.115   3.531   2.818
 7452TIP3    H122320   7.109   3.517   2.723
 7452TIP3    H222321   7.207   3.514   2.839
 7453TIP3   OH222322   5.454   0.361   2.240
 7453TIP3    H122323   5.431   0.269   2.229
 7453TIP3    H222324   5.410   0.387   2.320
 7454TIP3   OH222325   6.091   5.150   5.157
 7454TIP3    H122326   6.138   5.229   5.183
 7454TIP3    H222327   6.145   5.111   5.087
 7455TIP3   OH222328   0.101   2.193   4.285
 7455TIP3    H122329   0.035   2.172   4.351
 7455TIP3    H222330   0.085   2.284   4.262
 7456TIP3   OH222331   4.793   4.387   1.675
 7456TIP3    H122332   4.880   4.360   1.705
 7456TIP3    H222333   4.754   4.307   1.639
 7457TIP3   OH222334   1.404   1.546   0.881
 7457TIP3    H122335   1.477   1.484   0.880
 7457TIP3    H222336   1.329   1.495   0.851
 7458TIP3   OH222337   6.117   2.002   1.340
 7458TIP3    H122338   6.102   2.069   1.274
 7458TIP3    H222339   6.029   1.973   1.365
 7459TIP3   OH222340   2.876   5.830   3.793
 7459TIP3    H122341   2.872   5.740   3.760
 7459TIP3    H222342   2.886   5.820   3.887
 7460TIP3   OH222343   6.616   2.648   1.505
 7460TIP3    H122344   6.538   2.697   1.478
 7460TIP3    H222345   6.586   2.557   1.512
 7461TIP3   OH222346   5.917   4.567   0.230
 7461TIP3    H122347   5.869   4.489   0.203
 7461TIP3    H222348   5.848   4.631   0.251
 7462TIP3   OH222349   6.650   4.838   2.013
 7462TIP3    H122350   6.619   4.887   1.936
 7462TIP3    H222351   6.600   4.875   2.086
 7463TIP3   OH222352   4.632   1.512   5.168
 7463TIP3    H122353   4.620   1.450   5.240
 7463TIP3    H222354   4.715   1.557   5.188
 7464TIP3   OH222355   6.732   1.262   1.835
 7464TIP3    H122356   6.741   1.305   1.921
 7464TIP3    H222357   6.732   1.169   1.855
 7465TIP3   OH222358   2.562   4.676   4.762
 7465TIP3    H122359   2.575   4.770   4.776
 7465TIP3    H222360   2.618   4.655   4.687
 7466TIP3   OH222361   1.363   4.382   1.601
 7466TIP3    H122362   1.374   4.288   1.616
 7466TIP3    H222363   1.440   4.422   1.642
 7467TIP3   OH222364   4.723   0.414   1.493
 7467TIP3    H122365   4.668   0.456   1.559
 7467TIP3    H222366   4.802   0.468   1.490
 7468TIP3   OH222367   0.137   4.420   5.773
 7468TIP3    H122368   0.052   4.413   5.729
 7468TIP3    H222369   0.138   4.509   5.809
 7469TIP3   OH222370   6.358   5.599   3.652
 7469TIP3    H122371   6.294   5.663   3.683
 7469TIP3    H222372   6.376   5.626   3.562
 7470TIP3   OH222373   2.015   3.945   4.078
 7470TIP3    H122374   2.084   3.882   4.058
 7470TIP3    H222375   2.016   4.006   4.004
 7471TIP3   OH222376   4.984   2.857   5.643
 7471TIP3    H122377   4.932   2.903   5.709
 7471TIP3    H222378   4.977   2.911   5.564
 7472TIP3   OH222379   3.704   6.055   1.457
 7472TIP3    H122380   3.654   6.127   1.418
 7472TIP3    H222381   3.783   6.097   1.491
 7473TIP3   OH222382   4.237   1.481   4.815
 7473TIP3    H122383   4.323   1.445   4.834
 7473TIP3    H222384   4.180   1.445   4.884
 7474TIP3   OH222385   4.631   3.968   4.971
 7474TIP3    H122386   4.699   4.034   4.977
 7474TIP3    H222387   4.673   3.893   4.929
 7475TIP3   OH222388   2.766   6.443   3.215
 7475TIP3    H122389   2.815   6.382   3.270
 7475TIP3    H222390   2.812   6.443   3.132
 7476TIP3   OH222391   4.818   5.628   5.389
 7476TIP3    H122392   4.794   5.702   5.333
 7476TIP3    H222393   4.735   5.587   5.413
 7477TIP3   OH222394   3.471   4.263   0.154
 7477TIP3    H122395   3.457   4.340   0.098
 7477TIP3    H222396   3.398   4.205   0.133
 7478TIP3   OH222397   0.481   6.004   4.022
 7478TIP3    H122398   0.487   5.939   4.092
 7478TIP3    H222399   0.403   6.055   4.043
 7479TIP3   OH222400   5.991   1.621   5.536
 7479TIP3    H122401   5.970   1.712   5.556
 7479TIP3    H222402   5.987   1.616   5.440
 7480TIP3   OH222403   2.424   2.330   0.193
 7480TIP3    H122404   2.367   2.269   0.146
 7480TIP3    H222405   2.467   2.381   0.124
 7481TIP3   OH222406   2.133   1.304   5.911
 7481TIP3    H122407   2.110   1.249   5.836
 7481TIP3    H222408   2.109   1.393   5.884
 7482TIP3   OH222409   2.976   2.375   2.664
 7482TIP3    H122410   3.027   2.303   2.627
 7482TIP3    H222411   3.009   2.386   2.753
 7483TIP3   OH222412   2.296   0.394   1.473
 7483TIP3    H122413   2.223   0.351   1.517
 7483TIP3    H222414   2.356   0.323   1.451
 7484TIP3   OH222415   5.371   1.129   5.169
 7484TIP3    H122416   5.294   1.075   5.154
 7484TIP3    H222417   5.349   1.213   5.129
 7485TIP3   OH222418   6.078  -0.054   3.239
 7485TIP3    H122419   6.119   0.016   3.188
 7485TIP3    H222420   6.117  -0.046   3.326
 7486TIP3   OH222421   2.451   4.392   0.198
 7486TIP3    H122422   2.506   4.463   0.233
 7486TIP3    H222423   2.369   4.399   0.246
 7487TIP3   OH222424   3.047   0.903   0.330
 7487TIP3    H122425   2.986   0.974   0.349
 7487TIP3    H222426   3.091   0.885   0.413
 7488TIP3   OH222427   6.160   6.461   1.072
 7488TIP3    H122428   6.207   6.377   1.067
 7488TIP3    H222429   6.221   6.520   1.116
 7489TIP3   OH222430   2.267   2.248   2.488
 7489TIP3    H122431   2.228   2.333   2.508
 7489TIP3    H222432   2.192   2.193   2.464
 7490TIP3   OH222433   5.056   2.547   0.386
 7490TIP3    H122434   5.150   2.528   0.394
 7490TIP3    H222435   5.014   2.463   0.402
 7491TIP3   OH222436   0.599   0.734   2.655
 7491TIP3    H122437   0.585   0.752   2.748
 7491TIP3    H222438   0.691   0.709   2.649
 7492TIP3   OH222439   0.171   4.219   4.730
 7492TIP3    H122440   0.094   4.177   4.768
 7492TIP3    H222441   0.242   4.200   4.791
 7493TIP3   OH222442   2.740   2.299   3.565
 7493TIP3    H122443   2.815   2.358   3.575
 7493TIP3    H222444   2.778   2.211   3.574
 7494TIP3   OH222445   2.963   3.425   4.655
 7494TIP3    H122446   2.964   3.334   4.623
 7494TIP3    H222447   2.918   3.420   4.739
 7495TIP3   OH222448   6.005   4.544   5.786
 7495TIP3    H122449   5.973   4.515   5.701
 7495TIP3    H222450   6.055   4.623   5.767
 7496TIP3   OH222451   4.620   6.167   4.009
 7496TIP3    H122452   4.571   6.097   4.052
 7496TIP3    H222453   4.555   6.214   3.958
 7497TIP3   OH222454   1.373   5.488   4.441
 7497TIP3    H122455   1.458   5.444   4.437
 7497TIP3    H222456   1.311   5.423   4.410
 7498TIP3   OH222457   3.563   1.825   5.830
 7498TIP3    H122458   3.583   1.881   5.905
 7498TIP3    H222459   3.646   1.818   5.783
 7499TIP3   OH222460   0.219   4.081   4.182
 7499TIP3    H122461   0.188   3.996   4.212
 7499TIP3    H222462   0.248   4.126   4.261
 7500TIP3   OH222463   4.733   4.563   2.956
 7500TIP3    H122464   4.749   4.539   2.865
 7500TIP3    H222465   4.755   4.656   2.961
 7501TIP3   OH222466   1.439   5.716   0.880
 7501TIP3    H122467   1.533   5.734   0.881
 7501TIP3    H222468   1.430   5.628   0.918
 7502TIP3   OH222469   0.910   1.249   2.386
 7502TIP3    H122470   0.891   1.314   2.454
 7502TIP3    H222471   1.002   1.263   2.364
 7503TIP3   OH222472   2.519   3.252   3.397
 7503TIP3    H122473   2.591   3.304   3.432
 7503TIP3    H222474   2.440   3.295   3.429
 7504TIP3   OH222475   5.032   0.772   3.740
 7504TIP3    H122476   5.109   0.728   3.703
 7504TIP3    H222477   4.973   0.700   3.764
 7505TIP3   OH222478   3.987   4.041   3.535
 7505TIP3    H122479   3.998   4.119   3.589
 7505TIP3    H222480   3.948   4.073   3.454
 7506TIP3   OH222481   1.333   4.273   4.264
 7506TIP3    H122482   1.386   4.299   4.340
 7506TIP3    H222483   1.312   4.181   4.280
 7507TIP3   OH222484   4.469   6.483   5.354
 7507TIP3    H122485   4.562   6.466   5.368
 7507TIP3    H222486   4.464   6.576   5.332
 7508TIP3   OH222487   6.821   0.768   1.564
 7508TIP3    H122488   6.742   0.718   1.583
 7508TIP3    H222489   6.848   0.738   1.477
 7509TIP3   OH222490   3.875   3.588   1.535
 7509TIP3    H122491   3.954   3.552   1.574
 7509TIP3    H222492   3.900   3.675   1.505
 7510TIP3   OH222493   3.645   2.322   5.461
 7510TIP3    H122494   3.667   2.318   5.368
 7510TIP3    H222495   3.577   2.255   5.473
 7511TIP3   OH222496   6.716   2.954   0.331
 7511TIP3    H122497   6.722   2.928   0.239
 7511TIP3    H222498   6.692   3.047   0.329
 7512TIP3   OH222499   0.809   1.022   5.595
 7512TIP3    H122500   0.733   0.968   5.615
 7512TIP3    H222501   0.792   1.106   5.639
 7513TIP3   OH222502   4.886   5.386   1.207
 7513TIP3    H122503   4.868   5.298   1.238
 7513TIP3    H222504   4.800   5.428   1.201
 7514TIP3   OH222505   4.321   5.880   4.176
 7514TIP3    H122506   4.289   5.916   4.259
 7514TIP3    H222507   4.294   5.943   4.110
 7515TIP3   OH222508   5.502   4.208   0.681
 7515TIP3    H122509   5.449   4.161   0.746
 7515TIP3    H222510   5.528   4.288   0.726
 7516TIP3   OH222511   4.299   5.403   1.776
 7516TIP3    H122512   4.297   5.332   1.840
 7516TIP3    H222513   4.208   5.416   1.750
 7517TIP3   OH222514   6.767   3.360   2.859
 7517TIP3    H122515   6.848   3.410   2.849
 7517TIP3    H222516   6.735   3.382   2.946
 7518TIP3   OH222517   4.981   1.234   4.871
 7518TIP3    H122518   4.915   1.165   4.878
 7518TIP3    H222519   4.935   1.315   4.892
 7519TIP3   OH222520   5.777   2.882   2.708
 7519TIP3    H122521   5.729   2.861   2.788
 7519TIP3    H222522   5.869   2.885   2.736
 7520TIP3   OH222523   7.023   1.826   0.278
 7520TIP3    H122524   7.048   1.814   0.370
 7520TIP3    H222525   7.070   1.904   0.250
 7521TIP3   OH222526   1.162   5.929   0.903
 7521TIP3    H122527   1.182   5.887   0.987
 7521TIP3    H222528   1.228   5.998   0.895
 7522TIP3   OH222529   5.190   4.837   1.275
 7522TIP3    H122530   5.209   4.865   1.185
 7522TIP3    H222531   5.097   4.815   1.275
 7523TIP3   OH222532   2.409   5.084   2.511
 7523TIP3    H122533   2.393   5.041   2.427
 7523TIP3    H222534   2.476   5.030   2.554
 7524TIP3   OH222535   2.181   4.157   0.426
 7524TIP3    H122536   2.169   4.106   0.507
 7524TIP3    H222537   2.219   4.095   0.364
 7525TIP3   OH222538   2.552   2.054   2.972
 7525TIP3    H122539   2.501   2.052   3.053
 7525TIP3    H222540   2.569   2.147   2.956
 7526TIP3   OH222541   7.008   1.387   2.584
 7526TIP3    H122542   7.100   1.392   2.609
 7526TIP3    H222543   6.964   1.351   2.662
 7527TIP3   OH222544   5.841   4.756   5.623
 7527TIP3    H122545   5.823   4.785   5.534
 7527TIP3    H222546   5.896   4.679   5.612
 7528TIP3   OH222547   4.677   0.408   3.884
 7528TIP3    H122548   4.682   0.477   3.818
 7528TIP3    H222549   4.655   0.455   3.965
 7529TIP3   OH222550   6.922   5.475   4.124
 7529TIP3    H122551   6.910   5.391   4.081
 7529TIP3    H222552   6.986   5.521   4.069
 7530TIP3   OH222553   2.008   2.903   1.884
 7530TIP3    H122554   2.029   2.897   1.791
 7530TIP3    H222555   2.071   2.966   1.920
 7531TIP3   OH222556   1.968   1.928   3.843
 7531TIP3    H122557   1.998   1.875   3.917
 7531TIP3    H222558   1.902   1.874   3.800
 7532TIP3   OH222559   1.304   1.177   0.420
 7532TIP3    H122560   1.394   1.174   0.389
 7532TIP3    H222561   1.264   1.250   0.372
 7533TIP3   OH222562   3.353   5.613   3.537
 7533TIP3    H122563   3.439   5.650   3.554
 7533TIP3    H222564   3.294   5.688   3.533
 7534TIP3   OH222565   3.934   2.651   0.307
 7534TIP3    H122566   3.927   2.740   0.339
 7534TIP3    H222567   3.858   2.640   0.249
 7535TIP3   OH222568   3.619   4.497   2.473
 7535TIP3    H122569   3.703   4.513   2.428
 7535TIP3    H222570   3.641   4.503   2.566
 7536TIP3   OH222571   1.772   6.466   2.670
 7536TIP3    H122572   1.681   6.493   2.687
 7536TIP3    H222573   1.823   6.510   2.737
 7537TIP3   OH222574   2.049   3.475   0.319
 7537TIP3    H122575   1.978   3.534   0.294
 7537TIP3    H222576   2.100   3.525   0.383
 7538TIP3   OH222577   1.953   5.559   1.104
 7538TIP3    H122578   2.034   5.604   1.126
 7538TIP3    H222579   1.944   5.571   1.009
 7539TIP3   OH222580   6.079   5.516   0.789
 7539TIP3    H122581   6.140   5.482   0.724
 7539TIP3    H222582   6.006   5.551   0.738
 7540TIP3   OH222583   4.174   3.943   2.114
 7540TIP3    H122584   4.165   4.037   2.131
 7540TIP3    H222585   4.215   3.908   2.192
 7541TIP3   OH222586   4.880   3.389   5.725
 7541TIP3    H122587   4.790   3.360   5.711
 7541TIP3    H222588   4.902   3.439   5.647
 7542TIP3   OH222589   0.353   6.258   3.046
 7542TIP3    H122590   0.331   6.343   3.082
 7542TIP3    H222591   0.448   6.262   3.029
 7543TIP3   OH222592   6.006   4.187   4.496
 7543TIP3    H122593   6.048   4.101   4.493
 7543TIP3    H222594   6.011   4.220   4.407
 7544TIP3   OH222595   5.594   2.208   4.595
 7544TIP3    H122596   5.595   2.237   4.687
 7544TIP3    H222597   5.503   2.181   4.580
 7545TIP3   OH222598   2.825   6.493   4.492
 7545TIP3    H122599   2.914   6.487   4.527
 7545TIP3    H222600   2.787   6.568   4.538
 7546TIP3   OH222601   2.943   6.143   1.719
 7546TIP3    H122602   2.942   6.062   1.668
 7546TIP3    H222603   2.870   6.194   1.683
 7547TIP3   OH222604   0.976   4.416   3.879
 7547TIP3    H122605   1.033   4.340   3.869
 7547TIP3    H222606   0.889   4.384   3.856
 7548TIP3   OH222607   2.653   0.426   1.221
 7548TIP3    H122608   2.648   0.413   1.316
 7548TIP3    H222609   2.744   0.406   1.199
 7549TIP3   OH222610   0.253   2.625   2.751
 7549TIP3    H122611   0.231   2.696   2.811
 7549TIP3    H222612   0.203   2.550   2.783
 7550TIP3   OH222613   5.735   1.859   5.259
 7550TIP3    H122614   5.716   1.921   5.330
 7550TIP3    H222615   5.672   1.882   5.191
 7551TIP3   OH222616   4.690   6.060   2.268
 7551TIP3    H122617   4.728   6.142   2.238
 7551TIP3    H222618   4.657   6.018   2.189
 7552TIP3   OH222619   2.264   1.124   5.065
 7552TIP3    H122620   2.205   1.156   4.996
 7552TIP3    H222621   2.339   1.089   5.018
 7553TIP3   OH222622   6.900   2.003   2.580
 7553TIP3    H122623   6.816   1.958   2.585
 7553TIP3    H222624   6.950   1.967   2.654
 7554TIP3   OH222625   3.730   4.435   4.149
 7554TIP3    H122626   3.643   4.474   4.157
 7554TIP3    H222627   3.790   4.507   4.169
 7555TIP3   OH222628   5.293   2.469   2.819
 7555TIP3    H122629   5.293   2.560   2.848
 7555TIP3    H222630   5.326   2.473   2.729
 7556TIP3   OH222631   3.371   6.662   3.718
 7556TIP3    H122632   3.382   6.669   3.812
 7556TIP3    H222633   3.323   6.741   3.693
 7557TIP3   OH222634   1.701   5.598   4.232
 7557TIP3    H122635   1.616   5.573   4.194
 7557TIP3    H222636   1.759   5.606   4.156
 7558TIP3   OH222637   5.095   4.193   5.276
 7558TIP3    H122638   5.116   4.275   5.231
 7558TIP3    H222639   5.081   4.219   5.367
 7559TIP3   OH222640   6.078   3.229   0.482
 7559TIP3    H122641   6.165   3.238   0.520
 7559TIP3    H222642   6.067   3.135   0.468
 7560TIP3   OH222643   5.314   1.984   1.662
 7560TIP3    H122644   5.339   2.063   1.615
 7560TIP3    H222645   5.316   2.009   1.755
 7561TIP3   OH222646   0.473   6.657   2.726
 7561TIP3    H122647   0.402   6.716   2.700
 7561TIP3    H222648   0.530   6.653   2.649
 7562TIP3   OH222649   3.261   2.483   0.182
 7562TIP3    H122650   3.241   2.470   0.275
 7562TIP3    H222651   3.354   2.459   0.174
 7563TIP3   OH222652   2.149   3.542   5.882
 7563TIP3    H122653   2.218   3.603   5.905
 7563TIP3    H222654   2.136   3.555   5.788
 7564TIP3   OH222655   2.946   6.361   3.004
 7564TIP3    H122656   2.930   6.442   2.955
 7564TIP3    H222657   2.944   6.292   2.937
 7565TIP3   OH222658   0.352   6.549   5.234
 7565TIP3    H122659   0.397   6.486   5.177
 7565TIP3    H222660   0.265   6.510   5.248
 7566TIP3   OH222661   5.845   1.180   5.471
 7566TIP3    H122662   5.851   1.255   5.411
 7566TIP3    H222663   5.757   1.146   5.459
 7567TIP3   OH222664   4.879   2.544   4.873
 7567TIP3    H122665   4.820   2.577   4.805
 7567TIP3    H222666   4.936   2.483   4.828
 7568TIP3   OH222667   6.469   6.661   4.885
 7568TIP3    H122668   6.474   6.682   4.978
 7568TIP3    H222669   6.496   6.741   4.840
 7569TIP3   OH222670   3.015   3.102   2.657
 7569TIP3    H122671   3.073   3.088   2.732
 7569TIP3    H222672   3.002   3.197   2.655
 7570TIP3   OH222673   3.249   1.334   5.332
 7570TIP3    H122674   3.329   1.320   5.383
 7570TIP3    H222675   3.271   1.298   5.245
 7571TIP3   OH222676   5.914   0.171   1.189
 7571TIP3    H122677   5.890   0.145   1.277
 7571TIP3    H222678   5.965   0.252   1.200
 7572TIP3   OH222679   3.953   2.104   3.321
 7572TIP3    H122680   3.980   2.055   3.244
 7572TIP3    H222681   4.011   2.180   3.323
 7573TIP3   OH222682   6.225   5.127   1.485
 7573TIP3    H122683   6.225   5.046   1.435
 7573TIP3    H222684   6.308   5.169   1.464
 7574TIP3   OH222685   0.572   3.546   2.307
 7574TIP3    H122686   0.649   3.489   2.306
 7574TIP3    H222687   0.601   3.625   2.262
 7575TIP3   OH222688   3.982   6.697   4.121
 7575TIP3    H122689   4.030   6.615   4.105
 7575TIP3    H222690   4.049   6.765   4.115
 7576TIP3   OH222691   3.800   3.092   5.006
 7576TIP3    H122692   3.893   3.090   5.027
 7576TIP3    H222693   3.765   3.012   5.047
 7577TIP3   OH222694   2.824   4.852   1.420
 7577TIP3    H122695   2.772   4.907   1.361
 7577TIP3    H222696   2.771   4.773   1.432
 7578TIP3   OH222697   4.820   5.439   3.144
 7578TIP3    H122698   4.732   5.447   3.179
 7578TIP3    H222699   4.811   5.454   3.050
 7579TIP3   OH222700   7.085   4.573   2.901
 7579TIP3    H122701   7.131   4.657   2.902
 7579TIP3    H222702   7.056   4.563   2.810
 7580TIP3   OH222703   4.877   1.614   1.709
 7580TIP3    H122704   4.909   1.616   1.800
 7580TIP3    H222705   4.940   1.667   1.661
 7581TIP3   OH222706   0.870   5.328   5.675
 7581TIP3    H122707   0.941   5.361   5.621
 7581TIP3    H222708   0.906   5.326   5.764
 7582TIP3   OH222709   6.967   3.557   2.342
 7582TIP3    H122710   6.880   3.537   2.308
 7582TIP3    H222711   7.004   3.619   2.279
 7583TIP3   OH222712   2.973   6.215   1.364
 7583TIP3    H122713   2.900   6.154   1.352
 7583TIP3    H222714   3.021   6.212   1.281
 7584TIP3   OH222715   6.947   1.084   2.852
 7584TIP3    H122716   6.981   1.039   2.774
 7584TIP3    H222717   7.002   1.054   2.923
 7585TIP3   OH222718   4.072   2.324   5.288
 7585TIP3    H122719   4.010   2.253   5.306
 7585TIP3    H222720   4.051   2.351   5.199
 7586TIP3   OH222721   7.146   5.349   4.346
 7586TIP3    H122722   7.063   5.373   4.305
 7586TIP3    H222723   7.134   5.368   4.439
 7587TIP3   OH222724   3.785   1.861   2.097
 7587TIP3    H122725   3.716   1.796   2.111
 7587TIP3    H222726   3.776   1.885   2.005
 7588TIP3   OH222727   3.215   0.395   5.625
 7588TIP3    H122728   3.281   0.345   5.576
 7588TIP3    H222729   3.170   0.330   5.678
 7589TIP3   OH222730   2.034   6.274   0.390
 7589TIP3    H122731   2.033   6.223   0.471
 7589TIP3    H222732   1.945   6.265   0.355
 7590TIP3   OH222733   6.621   5.748   1.568
 7590TIP3    H122734   6.647   5.826   1.617
 7590TIP3    H222735   6.648   5.675   1.623
 7591TIP3   OH222736   1.236   5.237   2.754
 7591TIP3    H122737   1.179   5.163   2.736
 7591TIP3    H222738   1.265   5.223   2.844
 7592TIP3   OH222739   6.243   3.565   4.910
 7592TIP3    H122740   6.293   3.539   4.832
 7592TIP3    H222741   6.305   3.556   4.982
 7593TIP3   OH222742   4.344   3.351   1.502
 7593TIP3    H122743   4.274   3.293   1.473
 7593TIP3    H222744   4.336   3.428   1.446
 7594TIP3   OH222745   4.589   3.006   0.734
 7594TIP3    H122746   4.590   3.086   0.787
 7594TIP3    H222747   4.570   3.036   0.645
 7595TIP3   OH222748   3.514   2.366   3.128
 7595TIP3    H122749   3.425   2.395   3.109
 7595TIP3    H222750   3.530   2.392   3.218
 7596TIP3   OH222751   0.899   3.138   5.798
 7596TIP3    H122752   0.817   3.100   5.766
 7596TIP3    H222753   0.953   3.062   5.820
 7597TIP3   OH222754   4.912   3.589   0.418
 7597TIP3    H122755   4.955   3.645   0.353
 7597TIP3    H222756   4.984   3.545   0.463
 7598TIP3   OH222757   0.728   0.463   2.302
 7598TIP3    H122758   0.717   0.405   2.377
 7598TIP3    H222759   0.806   0.514   2.322
 7599TIP3   OH222760   1.984   4.989   1.883
 7599TIP3    H122761   1.898   5.027   1.863
 7599TIP3    H222762   2.016   5.042   1.956
 7600TIP3   OH222763   1.991   6.208   1.184
 7600TIP3    H122764   1.952   6.146   1.121
 7600TIP3    H222765   1.929   6.208   1.257
 7601TIP3   OH222766   6.848   6.168   2.256
 7601TIP3    H122767   6.814   6.144   2.170
 7601TIP3    H222768   6.942   6.149   2.251
 7602TIP3   OH222769   0.630   0.136   3.486
 7602TIP3    H122770   0.643   0.112   3.578
 7602TIP3    H222771   0.654   0.229   3.483
 7603TIP3   OH222772   3.616   1.345   5.098
 7603TIP3    H122773   3.559   1.421   5.106
 7603TIP3    H222774   3.624   1.330   5.004
 7604TIP3   OH222775   3.148   1.088   0.721
 7604TIP3    H122776   3.197   1.072   0.802
 7604TIP3    H222777   3.214   1.117   0.658
 7605TIP3   OH222778   2.666   0.907   5.568
 7605TIP3    H122779   2.669   0.840   5.500
 7605TIP3    H222780   2.628   0.863   5.643
 7606TIP3   OH222781   3.432   5.836   0.204
 7606TIP3    H122782   3.393   5.766   0.152
 7606TIP3    H222783   3.420   5.808   0.295
 7607TIP3   OH222784   3.409   4.688   5.270
 7607TIP3    H122785   3.396   4.629   5.196
 7607TIP3    H222786   3.412   4.630   5.347
 7608TIP3   OH222787   3.468   6.419   3.732
 7608TIP3    H122788   3.414   6.498   3.742
 7608TIP3    H222789   3.431   6.374   3.656
 7609TIP3   OH222790   4.665   1.330   5.377
 7609TIP3    H122791   4.701   1.367   5.458
 7609TIP3    H222792   4.603   1.264   5.406
 7610TIP3   OH222793   5.892   5.847   3.098
 7610TIP3    H122794   5.972   5.797   3.113
 7610TIP3    H222795   5.884   5.851   3.003
 7611TIP3   OH222796   6.209   3.413   2.210
 7611TIP3    H122797   6.261   3.367   2.144
 7611TIP3    H222798   6.132   3.444   2.162
 7612TIP3   OH222799   6.367   6.476   4.213
 7612TIP3    H122800   6.280   6.514   4.223
 7612TIP3    H222801   6.405   6.479   4.301
 7613TIP3   OH222802   3.301   2.022   1.354
 7613TIP3    H122803   3.343   1.955   1.407
 7613TIP3    H222804   3.338   2.104   1.385
 7614TIP3   OH222805   0.890   5.938   2.646
 7614TIP3    H122806   0.927   5.929   2.558
 7614TIP3    H222807   0.946   6.003   2.689
 7615TIP3   OH222808   3.759   1.528   1.012
 7615TIP3    H122809   3.715   1.465   0.955
 7615TIP3    H222810   3.753   1.611   0.965
 7616TIP3   OH222811   6.284   2.728   5.671
 7616TIP3    H122812   6.287   2.669   5.747
 7616TIP3    H222813   6.332   2.681   5.603
 7617TIP3   OH222814   5.551   5.761   3.558
 7617TIP3    H122815   5.487   5.832   3.569
 7617TIP3    H222816   5.556   5.747   3.464
 7618TIP3   OH222817   3.986  -0.013   0.359
 7618TIP3    H122818   4.041   0.065   0.352
 7618TIP3    H222819   3.913   0.005   0.299
 7619TIP3   OH222820   1.193   2.326   5.756
 7619TIP3    H122821   1.151   2.300   5.839
 7619TIP3    H222822   1.259   2.258   5.741
 7620TIP3   OH222823   5.569   2.924   0.923
 7620TIP3    H122824   5.530   2.992   0.868
 7620TIP3    H222825   5.555   2.842   0.875
 7621TIP3   OH222826   3.557   3.402   2.768
 7621TIP3    H122827   3.561   3.446   2.853
 7621TIP3    H222828   3.553   3.473   2.704
 7622TIP3   OH222829   3.081   4.520   0.881
 7622TIP3    H122830   3.056   4.590   0.820
 7622TIP3    H222831   3.087   4.563   0.966
 7623TIP3   OH222832   4.127   3.562   4.612
 7623TIP3    H122833   4.194   3.589   4.675
 7623TIP3    H222834   4.044   3.575   4.658
 7624TIP3   OH222835   5.021   6.689   5.914
 7624TIP3    H122836   4.994   6.617   5.858
 7624TIP3    H222837   4.968   6.763   5.884
 7625TIP3   OH222838   3.208   3.951   5.040
 7625TIP3    H122839   3.165   3.926   4.958
 7625TIP3    H222840   3.151   4.019   5.076
 7626TIP3   OH222841   6.024   0.358   4.064
 7626TIP3    H122842   5.979   0.273   4.056
 7626TIP3    H222843   5.953   0.421   4.076
 7627TIP3   OH222844   5.331   3.989   1.846
 7627TIP3    H122845   5.238   4.002   1.829
 7627TIP3    H222846   5.341   3.895   1.857
 7628TIP3   OH222847   3.419   1.431   0.179
 7628TIP3    H122848   3.370   1.400   0.103
 7628TIP3    H222849   3.511   1.420   0.154
 7629TIP3   OH222850   5.918   6.436   0.258
 7629TIP3    H122851   5.938   6.527   0.281
 7629TIP3    H222852   5.973   6.384   0.316
 7630TIP3   OH222853   2.403   4.556   4.933
 7630TIP3    H122854   2.461   4.592   4.866
 7630TIP3    H222855   2.435   4.592   5.015
 7631TIP3   OH222856   0.768   5.670   5.442
 7631TIP3    H122857   0.805   5.607   5.380
 7631TIP3    H222858   0.777   5.755   5.398
 7632TIP3   OH222859   0.987   2.275   1.857
 7632TIP3    H122860   0.915   2.212   1.858
 7632TIP3    H222861   1.045   2.245   1.787
 7633TIP3   OH222862   6.239   4.890   3.099
 7633TIP3    H122863   6.309   4.946   3.132
 7633TIP3    H222864   6.283   4.822   3.048
 7634TIP3   OH222865   0.033   1.194   2.824
 7634TIP3    H122866  -0.007   1.173   2.908
 7634TIP3    H222867  -0.015   1.142   2.760
 7635TIP3   OH222868   4.974   1.302   0.613
 7635TIP3    H122869   4.951   1.368   0.547
 7635TIP3    H222870   4.970   1.219   0.566
 7636TIP3   OH222871   5.437   2.582   1.139
 7636TIP3    H122872   5.414   2.489   1.133
 7636TIP3    H222873   5.362   2.622   1.183
 7637TIP3   OH222874   0.160   2.288   5.615
 7637TIP3    H122875   0.239   2.339   5.599
 7637TIP3    H222876   0.124   2.325   5.696
 7638TIP3   OH222877   6.837   4.779   1.716
 7638TIP3    H122878   6.756   4.746   1.755
 7638TIP3    H222879   6.904   4.715   1.741
 7639TIP3   OH222880   0.028   6.514   3.712
 7639TIP3    H122881   0.023   6.593   3.657
 7639TIP3    H222882   0.030   6.441   3.650
 7640TIP3   OH222883   1.330   5.327   4.024
 7640TIP3    H122884   1.281   5.282   3.955
 7640TIP3    H222885   1.390   5.384   3.976
 7641TIP3   OH222886   6.926   3.324   0.672
 7641TIP3    H122887   7.001   3.266   0.687
 7641TIP3    H222888   6.887   3.293   0.591
 7642TIP3   OH222889   7.235   5.593   0.565
 7642TIP3    H122890   7.193   5.665   0.517
 7642TIP3    H222891   7.162   5.546   0.604
 7643TIP3   OH222892   5.685   6.535   4.308
 7643TIP3    H122893   5.771   6.533   4.265
 7643TIP3    H222894   5.650   6.447   4.293
 7644TIP3   OH222895   6.961   2.321   1.965
 7644TIP3    H122896   7.027   2.253   1.970
 7644TIP3    H222897   6.987   2.385   2.030
 7645TIP3   OH222898   6.592   5.716   3.967
 7645TIP3    H122899   6.581   5.798   4.015
 7645TIP3    H222900   6.610   5.651   4.036
 7646TIP3   OH222901   2.953   1.771   4.971
 7646TIP3    H122902   3.018   1.757   5.040
 7646TIP3    H222903   2.944   1.685   4.930
 7647TIP3   OH222904   4.389   3.843   0.765
 7647TIP3    H122905   4.407   3.758   0.805
 7647TIP3    H222906   4.298   3.838   0.738
 7648TIP3   OH222907   2.048   1.616   1.509
 7648TIP3    H122908   2.068   1.540   1.455
 7648TIP3    H222909   2.125   1.627   1.565
 7649TIP3   OH222910   0.262   1.911   2.279
 7649TIP3    H122911   0.328   1.861   2.328
 7649TIP3    H222912   0.265   1.999   2.316
 7650TIP3   OH222913   1.476   0.938   4.853
 7650TIP3    H122914   1.563   0.975   4.839
 7650TIP3    H222915   1.416   1.003   4.816
 7651TIP3   OH222916   0.789   4.764   4.745
 7651TIP3    H122917   0.784   4.805   4.832
 7651TIP3    H222918   0.857   4.814   4.700
 7652TIP3   OH222919   3.354   0.422   1.537
 7652TIP3    H122920   3.308   0.504   1.556
 7652TIP3    H222921   3.375   0.386   1.623
 7653TIP3   OH222922   4.991   2.321   5.113
 7653TIP3    H122923   5.058   2.387   5.095
 7653TIP3    H222924   4.909   2.370   5.121
 7654TIP3   OH222925   5.328   6.799   0.318
 7654TIP3    H122926   5.308   6.718   0.364
 7654TIP3    H222927   5.407   6.779   0.267
 7655TIP3   OH222928   2.790   0.250   3.108
 7655TIP3    H122929   2.783   0.201   3.025
 7655TIP3    H222930   2.699   0.275   3.128
 7656TIP3   OH222931   0.130   4.391   1.652
 7656TIP3    H122932   0.059   4.425   1.597
 7656TIP3    H222933   0.187   4.467   1.665
 7657TIP3   OH222934   3.524   1.999   3.773
 7657TIP3    H122935   3.562   2.052   3.844
 7657TIP3    H222936   3.492   2.063   3.710
 7658TIP3   OH222937   3.553   5.291   2.533
 7658TIP3    H122938   3.626   5.353   2.538
 7658TIP3    H222939   3.573   5.226   2.601
 7659TIP3   OH222940   6.048   3.309   4.625
 7659TIP3    H122941   6.080   3.399   4.612
 7659TIP3    H222942   6.117   3.254   4.587
 7660TIP3   OH222943   1.288   1.607   1.149
 7660TIP3    H122944   1.299   1.598   1.244
 7660TIP3    H222945   1.376   1.626   1.116
 7661TIP3   OH222946   0.417   5.308   3.531
 7661TIP3    H122947   0.509   5.285   3.516
 7661TIP3    H222948   0.395   5.265   3.613
 7662TIP3   OH222949   6.751   3.926   4.034
 7662TIP3    H122950   6.746   3.876   3.952
 7662TIP3    H222951   6.789   3.866   4.097
 7663TIP3   OH222952   3.369   3.364   2.525
 7663TIP3    H122953   3.403   3.306   2.593
 7663TIP3    H222954   3.435   3.363   2.456
 7664TIP3   OH222955   3.759   5.482   5.334
 7664TIP3    H122956   3.689   5.420   5.314
 7664TIP3    H222957   3.715   5.567   5.337
 7665TIP3   OH222958   0.114   6.370   5.270
 7665TIP3    H122959   0.133   6.395   5.361
 7665TIP3    H222960   0.019   6.380   5.262
 7666TIP3   OH222961   4.885   2.772   4.390
 7666TIP3    H122962   4.881   2.708   4.319
 7666TIP3    H222963   4.794   2.787   4.414
 7667TIP3   OH222964   1.916   6.767   5.280
 7667TIP3    H122965   1.975   6.787   5.208
 7667TIP3    H222966   1.966   6.710   5.338
 7668TIP3   OH222967   3.921   5.473   2.584
 7668TIP3    H122968   3.970   5.550   2.556
 7668TIP3    H222969   3.896   5.429   2.503
 7669TIP3   OH222970   2.593   3.238   4.632
 7669TIP3    H122971   2.666   3.258   4.689
 7669TIP3    H222972   2.518   3.226   4.691
 7670TIP3   OH222973   6.927   2.852   4.855
 7670TIP3    H122974   6.969   2.910   4.791
 7670TIP3    H222975   6.870   2.910   4.906
 7671TIP3   OH222976   3.190   2.163   3.002
 7671TIP3    H122977   3.226   2.075   2.994
 7671TIP3    H222978   3.182   2.194   2.912
 7672TIP3   OH222979   2.376   4.139   2.912
 7672TIP3    H122980   2.429   4.072   2.869
 7672TIP3    H222981   2.439   4.202   2.947
 7673TIP3   OH222982   1.006   5.688   5.609
 7673TIP3    H122983   0.921   5.659   5.643
 7673TIP3    H222984   1.012   5.648   5.523
 7674TIP3   OH222985   7.226   2.927   1.363
 7674TIP3    H122986   7.260   2.989   1.298
 7674TIP3    H222987   7.280   2.848   1.351
 7675TIP3   OH222988   4.829   1.733   3.040
 7675TIP3    H122989   4.794   1.651   3.075
 7675TIP3    H222990   4.923   1.716   3.031
 7676TIP3   OH222991   4.436   4.762   2.166
 7676TIP3    H122992   4.355   4.716   2.190
 7676TIP3    H222993   4.407   4.850   2.143
 7677TIP3   OH222994   5.209   2.213   5.479
 7677TIP3    H122995   5.199   2.122   5.508
 7677TIP3    H222996   5.243   2.206   5.390
 7678TIP3   OH222997   4.283   1.882   4.038
 7678TIP3    H122998   4.356   1.943   4.048
 7678TIP3    H222999   4.309   1.825   3.966
 7679TIP3   OH223000   1.276   4.084   0.253
 7679TIP3    H123001   1.299   4.040   0.171
 7679TIP3    H223002   1.305   4.023   0.321
 7680TIP3   OH223003   0.228   3.262   3.649
 7680TIP3    H123004   0.269   3.232   3.730
 7680TIP3    H223005   0.155   3.202   3.635
 7681TIP3   OH223006   5.828   1.854   3.560
 7681TIP3    H123007   5.775   1.908   3.618
 7681TIP3    H223008   5.859   1.914   3.492
 7682TIP3   OH223009   3.138   1.463   4.280
 7682TIP3    H123010   3.182   1.528   4.225
 7682TIP3    H223011   3.168   1.379   4.246
 7683TIP3   OH223012   4.089   5.658   1.672
 7683TIP3    H123013   4.158   5.683   1.732
 7683TIP3    H223014   4.022   5.725   1.683
 7684TIP3   OH223015   4.569   3.351   3.276
 7684TIP3    H123016   4.595   3.429   3.227
 7684TIP3    H223017   4.639   3.288   3.260
 7685TIP3   OH223018   6.441   0.070   4.968
 7685TIP3    H123019   6.445   0.139   5.035
 7685TIP3    H223020   6.508   0.094   4.905
 7686TIP3   OH223021   3.246   3.426   2.921
 7686TIP3    H123022   3.335   3.436   2.956
 7686TIP3    H223023   3.240   3.493   2.853
 7687TIP3   OH223024   4.028   4.611   0.907
 7687TIP3    H123025   3.999   4.688   0.859
 7687TIP3    H223026   4.045   4.642   0.996
 7688TIP3   OH223027   0.643   5.177   0.222
 7688TIP3    H123028   0.549   5.186   0.239
 7688TIP3    H223029   0.669   5.099   0.272
 7689TIP3   OH223030   1.628   2.998   3.674
 7689TIP3    H123031   1.653   2.909   3.700
 7689TIP3    H223032   1.709   3.049   3.681
 7690TIP3   OH223033   1.319   6.389   0.294
 7690TIP3    H123034   1.369   6.326   0.242
 7690TIP3    H223035   1.365   6.395   0.377
 7691TIP3   OH223036   1.590   2.536   2.194
 7691TIP3    H123037   1.536   2.569   2.121
 7691TIP3    H223038   1.620   2.615   2.239
 7692TIP3   OH223039   3.604   3.408   3.493
 7692TIP3    H123040   3.573   3.412   3.583
 7692TIP3    H223041   3.642   3.495   3.477
 7693TIP3   OH223042   3.703   5.836   4.518
 7693TIP3    H123043   3.791   5.799   4.511
 7693TIP3    H223044   3.686   5.876   4.432
 7694TIP3   OH223045   0.932   5.452   3.434
 7694TIP3    H123046   0.934   5.537   3.391
 7694TIP3    H223047   1.012   5.449   3.487
 7695TIP3   OH223048   3.989   0.601   1.206
 7695TIP3    H123049   3.976   0.521   1.154
 7695TIP3    H223050   3.906   0.647   1.199
 7696TIP3   OH223051   4.287   0.228   0.529
 7696TIP3    H123052   4.326   0.221   0.442
 7696TIP3    H223053   4.207   0.279   0.515
 7697TIP3   OH223054   5.822   5.080   3.983
 7697TIP3    H123055   5.915   5.084   3.963
 7697TIP3    H223056   5.787   5.162   3.947
 7698TIP3   OH223057   5.882   1.597   1.436
 7698TIP3    H123058   5.968   1.621   1.472
 7698TIP3    H223059   5.823   1.599   1.512
 7699TIP3   OH223060   3.864   3.145   1.602
 7699TIP3    H123061   3.929   3.076   1.588
 7699TIP3    H223062   3.839   3.172   1.514
 7700TIP3   OH223063   1.591   6.473   5.439
 7700TIP3    H123064   1.628   6.542   5.384
 7700TIP3    H223065   1.512   6.445   5.392
 7701TIP3   OH223066   4.824   3.148   2.523
 7701TIP3    H123067   4.775   3.217   2.568
 7701TIP3    H223068   4.814   3.169   2.430
 7702TIP3   OH223069   0.988   3.299   4.913
 7702TIP3    H123070   0.941   3.233   4.964
 7702TIP3    H223071   0.932   3.316   4.837
 7703TIP3   OH223072   2.635   2.915   2.049
 7703TIP3    H123073   2.613   2.989   2.107
 7703TIP3    H223074   2.730   2.917   2.043
 7704TIP3   OH223075   2.599   6.264   3.570
 7704TIP3    H123076   2.566   6.208   3.641
 7704TIP3    H223077   2.687   6.289   3.598
 7705TIP3   OH223078   1.168   0.462   3.015
 7705TIP3    H123079   1.183   0.506   3.098
 7705TIP3    H223080   1.076   0.437   3.018
 7706TIP3   OH223081   6.709   5.364   1.467
 7706TIP3    H123082   6.746   5.276   1.471
 7706TIP3    H223083   6.759   5.408   1.398
 7707TIP3   OH223084   0.043   4.432   5.499
 7707TIP3    H123085   0.094   4.352   5.508
 7707TIP3    H223086   0.101   4.493   5.454
 7708TIP3   OH223087   4.438   2.062   1.177
 7708TIP3    H123088   4.423   2.073   1.083
 7708TIP3    H223089   4.486   2.140   1.203
 7709TIP3   OH223090   4.443   1.135   5.403
 7709TIP3    H123091   4.447   1.053   5.453
 7709TIP3    H223092   4.357   1.171   5.423
 7710TIP3   OH223093   5.482   5.389   1.699
 7710TIP3    H123094   5.422   5.445   1.650
 7710TIP3    H223095   5.468   5.414   1.790
 7711TIP3   OH223096   6.870   3.385   1.616
 7711TIP3    H123097   6.838   3.382   1.706
 7711TIP3    H223098   6.797   3.420   1.565
 7712TIP3   OH223099   2.682   4.179   3.225
 7712TIP3    H123100   2.740   4.233   3.172
 7712TIP3    H223101   2.723   4.176   3.311
 7713TIP3   OH223102   2.881   4.352   5.154
 7713TIP3    H123103   2.922   4.269   5.132
 7713TIP3    H223104   2.788   4.331   5.165
 7714TIP3   OH223105   6.208   0.171   3.815
 7714TIP3    H123106   6.175   0.117   3.887
 7714TIP3    H223107   6.135   0.230   3.795
 7715TIP3   OH223108   5.051   6.483   1.617
 7715TIP3    H123109   5.104   6.409   1.649
 7715TIP3    H223110   5.083   6.498   1.528
 7716TIP3   OH223111   0.755   3.182   2.850
 7716TIP3    H123112   0.695   3.252   2.874
 7716TIP3    H223113   0.807   3.219   2.778
 7717TIP3   OH223114   7.125   2.627   0.673
 7717TIP3    H123115   7.221   2.627   0.672
 7717TIP3    H223116   7.101   2.720   0.676
 7718TIP3   OH223117   5.878   1.739   0.162
 7718TIP3    H123118   5.931   1.692   0.097
 7718TIP3    H223119   5.938   1.752   0.236
 7719TIP3   OH223120   7.137   3.186   2.283
 7719TIP3    H123121   7.151   3.128   2.208
 7719TIP3    H223122   7.072   3.141   2.337
 7720TIP3   OH223123   1.102   6.644   0.977
 7720TIP3    H123124   1.018   6.622   0.937
 7720TIP3    H223125   1.117   6.574   1.041
 7721TIP3   OH223126   2.958   5.898   0.473
 7721TIP3    H123127   3.020   5.936   0.411
 7721TIP3    H223128   2.907   5.972   0.504
 7722TIP3   OH223129   5.778   4.214   5.857
 7722TIP3    H123130   5.793   4.229   5.764
 7722TIP3    H223131   5.710   4.276   5.881
 7723TIP3   OH223132   5.525   4.287   2.261
 7723TIP3    H123133   5.464   4.274   2.188
 7723TIP3    H223134   5.589   4.217   2.251
 7724TIP3   OH223135   5.131   4.512   3.128
 7724TIP3    H123136   5.070   4.493   3.056
 7724TIP3    H223137   5.209   4.460   3.108
 7725TIP3   OH223138   5.882   0.310   5.363
 7725TIP3    H123139   5.855   0.381   5.304
 7725TIP3    H223140   5.815   0.242   5.352
 7726TIP3   OH223141   1.186   6.306   1.557
 7726TIP3    H123142   1.168   6.246   1.630
 7726TIP3    H223143   1.278   6.290   1.535
 7727TIP3   OH223144   4.721   0.530   3.490
 7727TIP3    H123145   4.774   0.610   3.488
 7727TIP3    H223146   4.633   0.559   3.464
 7728TIP3   OH223147   3.094  -0.007   1.154
 7728TIP3    H123148   3.136  -0.090   1.174
 7728TIP3    H223149   3.152   0.035   1.091
 7729TIP3   OH223150   4.410   5.443   2.755
 7729TIP3    H123151   4.473   5.445   2.827
 7729TIP3    H223152   4.389   5.535   2.739
 7730TIP3   OH223153   6.203   4.240   1.450
 7730TIP3    H123154   6.193   4.184   1.526
 7730TIP3    H223155   6.192   4.329   1.484
 7731TIP3   OH223156   2.745   4.392   5.537
 7731TIP3    H123157   2.755   4.343   5.455
 7731TIP3    H223158   2.812   4.461   5.531
 7732TIP3   OH223159   0.311   5.439   4.017
 7732TIP3    H123160   0.303   5.375   4.088
 7732TIP3    H223161   0.398   5.477   4.029
 7733TIP3   OH223162   5.142   1.633   0.176
 7733TIP3    H123163   5.058   1.674   0.159
 7733TIP3    H223164   5.126   1.540   0.160
 7734TIP3   OH223165   5.308   5.581   0.678
 7734TIP3    H123166   5.271   5.496   0.703
 7734TIP3    H223167   5.344   5.616   0.759
 7735TIP3   OH223168   4.715   1.084   5.785
 7735TIP3    H123169   4.743   1.014   5.725
 7735TIP3    H223170   4.773   1.075   5.860
 7736TIP3   OH223171   1.620   3.118  -0.064
 7736TIP3    H123172   1.561   3.106   0.011
 7736TIP3    H223173   1.701   3.151  -0.026
 7737TIP3   OH223174   7.010   5.159   2.152
 7737TIP3    H123175   6.934   5.187   2.102
 7737TIP3    H223176   6.990   5.184   2.243
 7738TIP3   OH223177   4.481   0.987   3.249
 7738TIP3    H123178   4.447   0.929   3.318
 7738TIP3    H223179   4.569   0.952   3.231
 7739TIP3   OH223180   5.849   4.859   2.933
 7739TIP3    H123181   5.765   4.864   2.887
 7739TIP3    H223182   5.827   4.874   3.025
 7740TIP3   OH223183   5.042   5.467   0.950
 7740TIP3    H123184   5.024   5.555   0.915
 7740TIP3    H223185   4.961   5.444   0.996
 7741TIP3   OH223186   6.875   4.562   0.973
 7741TIP3    H123187   6.842   4.589   0.888
 7741TIP3    H223188   6.946   4.501   0.954
 7742TIP3   OH223189   2.703   1.840   5.056
 7742TIP3    H123190   2.693   1.933   5.039
 7742TIP3    H223191   2.785   1.816   5.012
 7743TIP3   OH223192   4.957   3.537   2.521
 7743TIP3    H123193   4.965   3.561   2.428
 7743TIP3    H223194   5.036   3.485   2.538
 7744TIP3   OH223195   5.285   3.527   2.459
 7744TIP3    H123196   5.369   3.484   2.443
 7744TIP3    H223197   5.298   3.617   2.428
 7745TIP3   OH223198   3.751   3.331   3.087
 7745TIP3    H123199   3.757   3.275   3.165
 7745TIP3    H223200   3.767   3.419   3.120
 7746TIP3   OH223201   7.023   5.761   0.511
 7746TIP3    H123202   6.940   5.715   0.501
 7746TIP3    H223203   7.023   5.826   0.440
 7747TIP3   OH223204   6.288   0.664   2.212
 7747TIP3    H123205   6.365   0.618   2.246
 7747TIP3    H223206   6.260   0.612   2.137
 7748TIP3   OH223207   6.740   3.075   2.915
 7748TIP3    H123208   6.695   3.044   2.994
 7748TIP3    H223209   6.708   3.164   2.903
 7749TIP3   OH223210   2.728   5.395  -0.027
 7749TIP3    H123211   2.746   5.336   0.046
 7749TIP3    H223212   2.789   5.367  -0.096
 7750TIP3   OH223213   4.829   2.371   0.251
 7750TIP3    H123214   4.913   2.327   0.247
 7750TIP3    H223215   4.766   2.305   0.220
 7751TIP3   OH223216   1.272   4.597   2.705
 7751TIP3    H123217   1.233   4.684   2.700
 7751TIP3    H223218   1.252   4.567   2.794
 7752TIP3   OH223219   0.155   0.529   1.806
 7752TIP3    H123220   0.199   0.460   1.757
 7752TIP3    H223221   0.076   0.487   1.841
 7753TIP3   OH223222   5.754   6.133   0.409
 7753TIP3    H123223   5.718   6.045   0.394
 7753TIP3    H223224   5.847   6.118   0.425
 7754TIP3   OH223225   3.625   6.724   2.565
 7754TIP3    H123226   3.561   6.671   2.517
 7754TIP3    H223227   3.573   6.781   2.621
 7755TIP3   OH223228   3.053   4.990   0.368
 7755TIP3    H123229   3.132   5.043   0.372
 7755TIP3    H223230   3.053   4.940   0.450
 7756TIP3   OH223231   2.032   6.568   1.613
 7756TIP3    H123232   1.975   6.613   1.551
 7756TIP3    H223233   2.080   6.639   1.657
 7757TIP3   OH223234   0.492   5.889   1.929
 7757TIP3    H123235   0.445   5.870   1.848
 7757TIP3    H223236   0.576   5.926   1.901
 7758TIP3   OH223237   4.911   6.217   2.951
 7758TIP3    H123238   4.925   6.304   2.989
 7758TIP3    H223239   4.969   6.213   2.876
 7759TIP3   OH223240   1.414   0.734   4.472
 7759TIP3    H123241   1.319   0.748   4.466
 7759TIP3    H223242   1.425   0.683   4.552
 7760TIP3   OH223243   1.654   5.784   1.427
 7760TIP3    H123244   1.688   5.738   1.350
 7760TIP3    H223245   1.726   5.782   1.490
 7761TIP3   OH223246   6.862   5.128   1.492
 7761TIP3    H123247   6.838   5.044   1.454
 7761TIP3    H223248   6.824   5.126   1.580
 7762TIP3   OH223249   3.887   0.740   2.104
 7762TIP3    H123250   3.811   0.798   2.112
 7762TIP3    H223251   3.929   0.767   2.022
 7763TIP3   OH223252   0.798   1.633   2.444
 7763TIP3    H123253   0.827   1.574   2.514
 7763TIP3    H223254   0.743   1.577   2.388
 7764TIP3   OH223255   6.479   1.826   0.280
 7764TIP3    H123256   6.560   1.876   0.270
 7764TIP3    H223257   6.486   1.788   0.368
 7765TIP3   OH223258   3.405   4.470   1.497
 7765TIP3    H123259   3.390   4.375   1.499
 7765TIP3    H223260   3.451   4.488   1.580
 7766TIP3   OH223261   4.958   2.684   2.795
 7766TIP3    H123262   4.925   2.720   2.877
 7766TIP3    H223263   5.022   2.748   2.764
 7767TIP3   OH223264   5.412   4.602   2.002
 7767TIP3    H123265   5.435   4.546   2.076
 7767TIP3    H223266   5.474   4.577   1.933
 7768TIP3   OH223267   5.935   1.509   1.190
 7768TIP3    H123268   5.920   1.525   1.283
 7768TIP3    H223269   5.991   1.431   1.187
 7769TIP3   OH223270   6.359   5.735   5.202
 7769TIP3    H123271   6.364   5.719   5.108
 7769TIP3    H223272   6.268   5.714   5.225
 7770TIP3   OH223273   2.139   4.727   0.617
 7770TIP3    H123274   2.131   4.632   0.627
 7770TIP3    H223275   2.084   4.748   0.541
 7771TIP3   OH223276   5.615   6.070   2.173
 7771TIP3    H123277   5.519   6.068   2.175
 7771TIP3    H223278   5.638   6.158   2.202
 7772TIP3   OH223279   5.943   0.792   0.249
 7772TIP3    H123280   5.993   0.866   0.284
 7772TIP3    H223281   5.980   0.777   0.162
 7773TIP3   OH223282   2.907   5.805   2.853
 7773TIP3    H123283   3.000   5.824   2.841
 7773TIP3    H223284   2.863   5.857   2.786
 7774TIP3   OH223285   2.033   3.649   3.751
 7774TIP3    H123286   1.961   3.586   3.746
 7774TIP3    H223287   2.044   3.682   3.662
 7775TIP3   OH223288   1.809   5.312   5.771
 7775TIP3    H123289   1.717   5.331   5.754
 7775TIP3    H223290   1.809   5.225   5.810
 7776TIP3   OH223291   4.009   5.402   5.446
 7776TIP3    H123292   3.942   5.458   5.408
 7776TIP3    H223293   3.964   5.355   5.517
 7777TIP3   OH223294   6.215   5.203   4.789
 7777TIP3    H123295   6.273   5.239   4.722
 7777TIP3    H223296   6.275   5.165   4.854
 7778TIP3   OH223297   2.775   4.106   4.168
 7778TIP3    H123298   2.727   4.180   4.130
 7778TIP3    H223299   2.859   4.105   4.121
 7779TIP3   OH223300   1.454   2.785   4.926
 7779TIP3    H123301   1.501   2.852   4.876
 7779TIP3    H223302   1.501   2.704   4.907
 7780TIP3   OH223303   4.423   2.065   0.496
 7780TIP3    H123304   4.409   1.970   0.505
 7780TIP3    H223305   4.353   2.104   0.548
 7781TIP3   OH223306   4.276   4.872   5.302
 7781TIP3    H123307   4.248   4.934   5.370
 7781TIP3    H223308   4.363   4.843   5.330
 7782TIP3   OH223309   3.051   2.334   3.183
 7782TIP3    H123310   3.100   2.262   3.141
 7782TIP3    H223311   3.115   2.378   3.238
 7783TIP3   OH223312   1.530   2.897   2.540
 7783TIP3    H123313   1.449   2.909   2.589
 7783TIP3    H223314   1.598   2.931   2.598
 7784TIP3   OH223315   0.396   3.421   5.790
 7784TIP3    H123316   0.304   3.397   5.794
 7784TIP3    H223317   0.399   3.500   5.736
 7785TIP3   OH223318   3.461   0.948   5.075
 7785TIP3    H123319   3.386   0.891   5.097
 7785TIP3    H223320   3.531   0.919   5.134
 7786TIP3   OH223321   3.749   1.915   4.197
 7786TIP3    H123322   3.720   1.864   4.273
 7786TIP3    H223323   3.832   1.875   4.172
 7787TIP3   OH223324   0.915   3.310   2.685
 7787TIP3    H123325   0.890   3.397   2.716
 7787TIP3    H223326   0.879   3.305   2.596
 7788TIP3   OH223327   6.081   2.275   2.952
 7788TIP3    H123328   6.081   2.246   3.043
 7788TIP3    H223329   5.991   2.264   2.923
 7789TIP3   OH223330   0.891   4.224   3.573
 7789TIP3    H123331   0.819   4.243   3.513
 7789TIP3    H223332   0.902   4.129   3.567
 7790TIP3   OH223333   0.224   2.086   3.891
 7790TIP3    H123334   0.271   2.113   3.970
 7790TIP3    H223335   0.246   1.994   3.880
 7791TIP3   OH223336   3.653   1.837   1.474
 7791TIP3    H123337   3.618   1.910   1.526
 7791TIP3    H223338   3.748   1.842   1.486
 7792TIP3   OH223339   0.666   3.618   1.399
 7792TIP3    H123340   0.652   3.561   1.474
 7792TIP3    H223341   0.688   3.559   1.327
 7793TIP3   OH223342   3.377   5.006   0.244
 7793TIP3    H123343   3.342   5.052   0.168
 7793TIP3    H223344   3.436   5.069   0.285
 7794TIP3   OH223345   5.736   3.542   3.353
 7794TIP3    H123346   5.696   3.468   3.308
 7794TIP3    H223347   5.821   3.554   3.309
 7795TIP3   OH223348   1.446   1.368   0.573
 7795TIP3    H123349   1.499   1.392   0.649
 7795TIP3    H223350   1.360   1.346   0.608
 7796TIP3   OH223351   6.819   1.347   2.792
 7796TIP3    H123352   6.734   1.345   2.835
 7796TIP3    H223353   6.856   1.260   2.810
 7797TIP3   OH223354   4.852   6.316   2.187
 7797TIP3    H123355   4.946   6.325   2.201
 7797TIP3    H223356   4.844   6.248   2.120
 7798TIP3   OH223357   3.151   4.124   5.650
 7798TIP3    H123358   3.061   4.145   5.672
 7798TIP3    H223359   3.178   4.061   5.717
 7799TIP3   OH223360   1.312   3.049   2.737
 7799TIP3    H123361   1.314   2.984   2.806
 7799TIP3    H223362   1.220   3.069   2.723
 7800TIP3   OH223363   0.504   2.564   0.206
 7800TIP3    H123364   0.468   2.570   0.294
 7800TIP3    H223365   0.490   2.473   0.180
 7801TIP3   OH223366   2.664   5.735   3.374
 7801TIP3    H123367   2.710   5.687   3.305
 7801TIP3    H223368   2.571   5.722   3.353
 7802TIP3   OH223369   6.364   0.415   0.753
 7802TIP3    H123370   6.279   0.404   0.710
 7802TIP3    H223371   6.414   0.338   0.726
 7803TIP3   OH223372   2.590   4.045   2.379
 7803TIP3    H123373   2.560   3.997   2.456
 7803TIP3    H223374   2.667   3.997   2.349
 7804TIP3   OH223375   2.453   2.193   5.603
 7804TIP3    H123376   2.364   2.224   5.586
 7804TIP3    H223377   2.500   2.270   5.635
 7805TIP3   OH223378   3.042   2.838   3.584
 7805TIP3    H123379   2.956   2.795   3.581
 7805TIP3    H223380   3.104   2.767   3.599
 7806TIP3   OH223381   2.445   0.081   4.101
 7806TIP3    H123382   2.396  -0.002   4.104
 7806TIP3    H223383   2.427   0.117   4.014
 7807TIP3   OH223384   3.652   6.411   5.750
 7807TIP3    H123385   3.645   6.459   5.667
 7807TIP3    H223386   3.712   6.339   5.731
 7808TIP3   OH223387   2.053   1.800   2.263
 7808TIP3    H123388   1.972   1.752   2.244
 7808TIP3    H223389   2.122   1.734   2.255
 7809TIP3   OH223390   5.530   3.197   4.284
 7809TIP3    H123391   5.553   3.197   4.191
 7809TIP3    H223392   5.584   3.128   4.322
 7810TIP3   OH223393   1.287   0.469   4.400
 7810TIP3    H123394   1.239   0.391   4.371
 7810TIP3    H223395   1.220   0.524   4.440
 7811TIP3   OH223396   5.854   1.171   4.468
 7811TIP3    H123397   5.836   1.243   4.529
 7811TIP3    H223398   5.775   1.166   4.413
 7812TIP3   OH223399   2.572   0.111   5.562
 7812TIP3    H123400   2.625   0.188   5.582
 7812TIP3    H223401   2.637   0.043   5.540
 7813TIP3   OH223402   3.123   4.129   1.821
 7813TIP3    H123403   3.119   4.222   1.842
 7813TIP3    H223404   3.124   4.125   1.726
 7814TIP3   OH223405   0.276   0.126   0.577
 7814TIP3    H123406   0.289   0.191   0.508
 7814TIP3    H223407   0.335   0.054   0.554
 7815TIP3   OH223408   4.595   3.068   1.358
 7815TIP3    H123409   4.517   3.027   1.395
 7815TIP3    H223410   4.583   3.162   1.375
 7816TIP3   OH223411   1.406   3.600   2.342
 7816TIP3    H123412   1.424   3.686   2.304
 7816TIP3    H223413   1.372   3.619   2.430
 7817TIP3   OH223414   3.585   6.775   1.818
 7817TIP3    H123415   3.515   6.734   1.868
 7817TIP3    H223416   3.660   6.717   1.828
 7818TIP3   OH223417   1.617   2.105   2.808
 7818TIP3    H123418   1.627   2.039   2.876
 7818TIP3    H223419   1.566   2.061   2.739
 7819TIP3   OH223420   3.086   6.475   1.891
 7819TIP3    H123421   3.104   6.567   1.907
 7819TIP3    H223422   3.038   6.474   1.808
 7820TIP3   OH223423   5.474   3.638   1.329
 7820TIP3    H123424   5.517   3.723   1.320
 7820TIP3    H223425   5.545   3.575   1.337
 7821TIP3   OH223426   2.526   2.538   5.855
 7821TIP3    H123427   2.513   2.446   5.878
 7821TIP3    H223428   2.519   2.540   5.760
 7822TIP3   OH223429   1.606   1.427   5.183
 7822TIP3    H123430   1.691   1.386   5.201
 7822TIP3    H223431   1.628   1.518   5.162
 7823TIP3   OH223432   1.060   3.739   1.278
 7823TIP3    H123433   1.085   3.821   1.235
 7823TIP3    H223434   1.033   3.766   1.366
 7824TIP3   OH223435   3.479   4.023   1.575
 7824TIP3    H123436   3.487   4.104   1.625
 7824TIP3    H223437   3.404   4.037   1.517
 7825TIP3   OH223438   1.883   2.588   3.402
 7825TIP3    H123439   1.956   2.529   3.419
 7825TIP3    H223440   1.922   2.663   3.357
 7826TIP3   OH223441   2.937   2.351   0.816
 7826TIP3    H123442   2.886   2.367   0.895
 7826TIP3    H223443   2.874   2.358   0.744
 7827TIP3   OH223444   2.337   2.121   1.509
 7827TIP3    H123445   2.369   2.119   1.419
 7827TIP3    H223446   2.407   2.165   1.558
 7828TIP3   OH223447   4.910   1.897   2.349
 7828TIP3    H123448   4.945   1.872   2.263
 7828TIP3    H223449   4.985   1.935   2.395
 7829TIP3   OH223450   5.828   0.878   0.712
 7829TIP3    H123451   5.780   0.957   0.688
 7829TIP3    H223452   5.831   0.827   0.631
 7830TIP3   OH223453   7.182   4.799   0.532
 7830TIP3    H123454   7.149   4.849   0.458
 7830TIP3    H223455   7.265   4.762   0.502
 7831TIP3   OH223456   3.936   4.074   3.885
 7831TIP3    H123457   3.949   4.014   3.957
 7831TIP3    H223458   3.845   4.060   3.858
 7832TIP3   OH223459   2.791   2.315   0.582
 7832TIP3    H123460   2.704   2.275   0.585
 7832TIP3    H223461   2.811   2.322   0.489
 7833TIP3   OH223462   0.176   3.854   4.332
 7833TIP3    H123463   0.081   3.868   4.329
 7833TIP3    H223464   0.194   3.825   4.421
 7834TIP3   OH223465   6.838   2.636   2.130
 7834TIP3    H123466   6.777   2.584   2.182
 7834TIP3    H223467   6.903   2.666   2.193
 7835TIP3   OH223468   5.778   1.770   2.244
 7835TIP3    H123469   5.779   1.784   2.339
 7835TIP3    H223470   5.685   1.777   2.220
 7836TIP3   OH223471   6.925   6.102   4.986
 7836TIP3    H123472   6.853   6.165   4.991
 7836TIP3    H223473   6.882   6.017   4.981
 7837TIP3   OH223474   1.748   0.990   3.222
 7837TIP3    H123475   1.685   0.920   3.207
 7837TIP3    H223476   1.700   1.070   3.202
 7838TIP3   OH223477   2.306   3.773   2.213
 7838TIP3    H123478   2.295   3.829   2.136
 7838TIP3    H223479   2.356   3.698   2.182
 7839TIP3   OH223480   6.804   1.911   1.403
 7839TIP3    H123481   6.854   1.973   1.351
 7839TIP3    H223482   6.717   1.909   1.362
 7840TIP3   OH223483   0.795   6.157   1.994
 7840TIP3    H123484   0.765   6.117   1.913
 7840TIP3    H223485   0.731   6.130   2.060
 7841TIP3   OH223486   4.261   1.462   3.769
 7841TIP3    H123487   4.320   1.389   3.748
 7841TIP3    H223488   4.236   1.498   3.685
 7842TIP3   OH223489   2.244   5.178   3.248
 7842TIP3    H123490   2.220   5.251   3.305
 7842TIP3    H223491   2.218   5.100   3.297
 7843TIP3   OH223492   3.640   5.440   0.127
 7843TIP3    H123493   3.630   5.440   0.032
 7843TIP3    H223494   3.555   5.471   0.160
 7844TIP3   OH223495   0.796   2.488   1.859
 7844TIP3    H123496   0.851   2.409   1.862
 7844TIP3    H223497   0.801   2.523   1.948
 7845TIP3   OH223498   2.034   3.570   2.870
 7845TIP3    H123499   2.057   3.630   2.799
 7845TIP3    H223500   2.118   3.534   2.899
 7846TIP3   OH223501   7.106   0.844   1.619
 7846TIP3    H123502   7.030   0.788   1.598
 7846TIP3    H223503   7.181   0.784   1.616
 7847TIP3   OH223504   3.316   6.356   5.817
 7847TIP3    H123505   3.409   6.333   5.815
 7847TIP3    H223506   3.311   6.443   5.779
 7848TIP3   OH223507   3.121   6.497   1.323
 7848TIP3    H123508   3.095   6.409   1.296
 7848TIP3    H223509   3.168   6.532   1.247
 7849TIP3   OH223510   6.490   4.533   3.796
 7849TIP3    H123511   6.494   4.598   3.866
 7849TIP3    H223512   6.545   4.568   3.727
 7850TIP3   OH223513   1.402   0.155   4.171
 7850TIP3    H123514   1.394   0.072   4.123
 7850TIP3    H223515   1.472   0.139   4.235
 7851TIP3   OH223516   5.247   3.928   3.910
 7851TIP3    H123517   5.279   3.859   3.852
 7851TIP3    H223518   5.189   3.981   3.856
 7852TIP3   OH223519   0.739   6.794   4.513
 7852TIP3    H123520   0.776   6.880   4.536
 7852TIP3    H223521   0.794   6.762   4.442
 7853TIP3   OH223522   0.307   2.024   0.388
 7853TIP3    H123523   0.370   2.071   0.444
 7853TIP3    H223524   0.279   2.089   0.324
 7854TIP3   OH223525   1.575   4.676   0.723
 7854TIP3    H123526   1.559   4.715   0.637
 7854TIP3    H223527   1.658   4.716   0.752
 7855TIP3   OH223528   1.438   2.556   3.275
 7855TIP3    H123529   1.363   2.519   3.229
 7855TIP3    H223530   1.512   2.540   3.217
 7856TIP3   OH223531   4.860   0.874   5.618
 7856TIP3    H123532   4.821   0.787   5.605
 7856TIP3    H223533   4.945   0.857   5.657
 7857TIP3   OH223534   2.312   4.683   0.858
 7857TIP3    H123535   2.328   4.590   0.875
 7857TIP3    H223536   2.278   4.685   0.768
 7858TIP3   OH223537   4.119   3.450   5.889
 7858TIP3    H123538   4.050   3.494   5.838
 7858TIP3    H223539   4.163   3.522   5.935
 7859TIP3   OH223540   2.894   1.584   2.139
 7859TIP3    H123541   2.891   1.630   2.222
 7859TIP3    H223542   2.921   1.650   2.075
 7860TIP3   OH223543   1.700   1.432   0.484
 7860TIP3    H123544   1.713   1.508   0.540
 7860TIP3    H223545   1.611   1.403   0.503
 7861TIP3   OH223546   3.556   5.434   3.456
 7861TIP3    H123547   3.621   5.489   3.413
 7861TIP3    H223548   3.477   5.488   3.458
 7862TIP3   OH223549   4.804   1.047   0.794
 7862TIP3    H123550   4.883   1.079   0.751
 7862TIP3    H223551   4.835   1.014   0.879
 7863TIP3   OH223552   1.441   2.679   3.813
 7863TIP3    H123553   1.461   2.613   3.879
 7863TIP3    H223554   1.512   2.672   3.749
 7864TIP3   OH223555   6.973   2.104   1.292
 7864TIP3    H123556   7.063   2.085   1.317
 7864TIP3    H223557   6.979   2.137   1.202
 7865TIP3   OH223558   6.716   0.415   4.570
 7865TIP3    H123559   6.687   0.466   4.645
 7865TIP3    H223560   6.724   0.325   4.604
 7866TIP3   OH223561   0.200   5.232   1.786
 7866TIP3    H123562   0.176   5.282   1.864
 7866TIP3    H223563   0.166   5.144   1.803
 7867TIP3   OH223564   3.133   0.763   1.055
 7867TIP3    H123565   3.176   0.774   1.140
 7867TIP3    H223566   3.197   0.796   0.992
 7868TIP3   OH223567   3.437   3.459   4.909
 7868TIP3    H123568   3.478   3.518   4.972
 7868TIP3    H223569   3.506   3.398   4.884
 7869TIP3   OH223570   1.502   4.108   1.553
 7869TIP3    H123571   1.541   4.021   1.545
 7869TIP3    H223572   1.420   4.103   1.504
 7870TIP3   OH223573   5.503   4.034   5.427
 7870TIP3    H123574   5.428   4.030   5.367
 7870TIP3    H223575   5.551   3.953   5.409
 7871TIP3   OH223576   2.549   6.273   2.693
 7871TIP3    H123577   2.545   6.271   2.789
 7871TIP3    H223578   2.461   6.247   2.665
 7872TIP3   OH223579   1.025   5.556   4.096
 7872TIP3    H123580   1.036   5.484   4.034
 7872TIP3    H223581   1.014   5.513   4.181
 7873TIP3   OH223582   1.155   2.564   3.217
 7873TIP3    H123583   1.172   2.647   3.261
 7873TIP3    H223584   1.143   2.589   3.125
 7874TIP3   OH223585   5.515   5.180   5.405
 7874TIP3    H123586   5.551   5.260   5.367
 7874TIP3    H223587   5.547   5.109   5.349
 7875TIP3   OH223588   7.006   5.196   3.237
 7875TIP3    H123589   6.911   5.197   3.226
 7875TIP3    H223590   7.026   5.271   3.292
 7876TIP3   OH223591   6.893   1.628   5.225
 7876TIP3    H123592   6.892   1.566   5.152
 7876TIP3    H223593   6.955   1.590   5.288
 7877TIP3   OH223594   0.837   2.977   5.124
 7877TIP3    H123595   0.857   2.912   5.192
 7877TIP3    H223596   0.887   3.054   5.148
 7878TIP3   OH223597   2.538   5.653   2.069
 7878TIP3    H123598   2.446   5.627   2.074
 7878TIP3    H223599   2.564   5.633   1.979
 7879TIP3   OH223600   3.524   1.695   2.011
 7879TIP3    H123601   3.462   1.763   1.985
 7879TIP3    H223602   3.572   1.674   1.930
 7880TIP3   OH223603   0.566   5.555   4.007
 7880TIP3    H123604   0.517   5.618   3.955
 7880TIP3    H223605   0.635   5.607   4.049
 7881TIP3   OH223606   3.271   1.368   0.750
 7881TIP3    H123607   3.225   1.288   0.724
 7881TIP3    H223608   3.285   1.415   0.667
 7882TIP3   OH223609   5.772   4.517   2.189
 7882TIP3    H123610   5.734   4.471   2.115
 7882TIP3    H223611   5.816   4.448   2.240
 7883TIP3   OH223612   2.959   6.201   0.763
 7883TIP3    H123613   2.906   6.206   0.683
 7883TIP3    H223614   2.896   6.206   0.834
 7884TIP3   OH223615   6.245   2.009   2.727
 7884TIP3    H123616   6.337   2.033   2.718
 7884TIP3    H223617   6.239   1.965   2.811
 7885TIP3   OH223618   2.082   2.801   3.474
 7885TIP3    H123619   2.060   2.823   3.564
 7885TIP3    H223620   2.103   2.885   3.433
 7886TIP3   OH223621   6.557   6.065   3.145
 7886TIP3    H123622   6.512   6.149   3.139
 7886TIP3    H223623   6.640   6.078   3.098
 7887TIP3   OH223624   2.908   3.419   0.922
 7887TIP3    H123625   2.903   3.449   1.013
 7887TIP3    H223626   2.937   3.328   0.928
 7888TIP3   OH223627   1.570   1.689   1.621
 7888TIP3    H123628   1.482   1.660   1.645
 7888TIP3    H223629   1.625   1.612   1.632
 7889TIP3   OH223630   2.738   5.681   0.636
 7889TIP3    H123631   2.794   5.753   0.666
 7889TIP3    H223632   2.799   5.608   0.624
 7890TIP3   OH223633   0.944   3.740   2.269
 7890TIP3    H123634   1.020   3.719   2.216
 7890TIP3    H223635   0.953   3.834   2.287
 7891TIP3   OH223636   1.091   1.772   1.079
 7891TIP3    H123637   1.151   1.823   1.024
 7891TIP3    H223638   1.142   1.693   1.102
 7892TIP3   OH223639   5.513   1.711   3.363
 7892TIP3    H123640   5.456   1.780   3.396
 7892TIP3    H223641   5.530   1.655   3.440
 7893TIP3   OH223642   0.537   3.197   2.314
 7893TIP3    H123643   0.506   3.121   2.263
 7893TIP3    H223644   0.541   3.268   2.250
 7894TIP3   OH223645   2.173   5.330   5.712
 7894TIP3    H123646   2.154   5.239   5.736
 7894TIP3    H223647   2.231   5.323   5.636
 7895TIP3   OH223648   3.967   3.819   2.750
 7895TIP3    H123649   3.911   3.852   2.821
 7895TIP3    H223650   4.045   3.875   2.753
 7896TIP3   OH223651   6.854   5.139   5.507
 7896TIP3    H123652   6.845   5.204   5.437
 7896TIP3    H223653   6.894   5.188   5.579
 7897TIP3   OH223654   1.224   4.413   4.547
 7897TIP3    H123655   1.195   4.450   4.464
 7897TIP3    H223656   1.317   4.394   4.533
 7898TIP3   OH223657   3.094   5.108   5.407
 7898TIP3    H123658   3.186   5.134   5.412
 7898TIP3    H223659   3.096   5.016   5.382
 7899TIP3   OH223660   6.454   5.756   0.301
 7899TIP3    H123661   6.469   5.733   0.392
 7899TIP3    H223662   6.363   5.732   0.284
 7900TIP3   OH223663   2.796   6.393   5.407
 7900TIP3    H123664   2.782   6.406   5.501
 7900TIP3    H223665   2.892   6.388   5.398
 7901TIP3   OH223666   0.891   2.772   5.288
 7901TIP3    H123667   0.809   2.728   5.311
 7901TIP3    H223668   0.950   2.751   5.360
 7902TIP3   OH223669   6.271   5.314   2.711
 7902TIP3    H123670   6.226   5.376   2.767
 7902TIP3    H223671   6.364   5.333   2.724
 7903TIP3   OH223672   5.062   1.383   1.507
 7903TIP3    H123673   4.977   1.348   1.537
 7903TIP3    H223674   5.043   1.419   1.420
 7904TIP3   OH223675   3.389   0.650   3.724
 7904TIP3    H123676   3.388   0.569   3.774
 7904TIP3    H223677   3.301   0.687   3.736
 7905TIP3   OH223678   6.511   2.910   5.056
 7905TIP3    H123679   6.454   2.976   5.017
 7905TIP3    H223680   6.464   2.827   5.043
 7906TIP3   OH223681   5.802   0.851   5.704
 7906TIP3    H123682   5.792   0.944   5.724
 7906TIP3    H223683   5.723   0.810   5.739
 7907TIP3   OH223684   4.967   0.571   1.911
 7907TIP3    H123685   4.937   0.483   1.889
 7907TIP3    H223686   4.946   0.581   2.004
 7908TIP3   OH223687   6.235   1.711   0.744
 7908TIP3    H123688   6.262   1.740   0.657
 7908TIP3    H223689   6.201   1.623   0.730
 7909TIP3   OH223690   2.387   2.559   2.813
 7909TIP3    H123691   2.321   2.624   2.837
 7909TIP3    H223692   2.367   2.537   2.722
 7910TIP3   OH223693   4.737   0.947   3.156
 7910TIP3    H123694   4.693   0.890   3.093
 7910TIP3    H223695   4.796   1.000   3.102
 7911TIP3   OH223696   5.244   2.045   0.711
 7911TIP3    H123697   5.270   1.953   0.707
 7911TIP3    H223698   5.149   2.043   0.713
 7912TIP3   OH223699   3.200   1.281   3.007
 7912TIP3    H123700   3.206   1.222   3.082
 7912TIP3    H223701   3.291   1.292   2.978
 7913TIP3   OH223702   6.525   3.044   1.847
 7913TIP3    H123703   6.534   2.963   1.898
 7913TIP3    H223704   6.584   3.032   1.772
 7914TIP3   OH223705   0.152   3.765   2.664
 7914TIP3    H123706   0.153   3.770   2.569
 7914TIP3    H223707   0.165   3.856   2.693
 7915TIP3   OH223708   1.639   2.704   4.088
 7915TIP3    H123709   1.717   2.675   4.137
 7915TIP3    H223710   1.602   2.623   4.053
 7916TIP3   OH223711   1.560   2.359   5.010
 7916TIP3    H123712   1.513   2.411   5.075
 7916TIP3    H223713   1.492   2.325   4.953
 7917TIP3   OH223714   3.715   4.557   5.456
 7917TIP3    H123715   3.811   4.552   5.462
 7917TIP3    H223716   3.693   4.641   5.495
 7918TIP3   OH223717   5.678   6.144   3.044
 7918TIP3    H123718   5.591   6.182   3.031
 7918TIP3    H223719   5.673   6.102   3.130
 7919TIP3   OH223720   5.439   6.667   3.127
 7919TIP3    H123721   5.450   6.671   3.222
 7919TIP3    H223722   5.473   6.581   3.103
 7920TIP3   OH223723   1.356   3.520   4.549
 7920TIP3    H123724   1.446   3.541   4.574
 7920TIP3    H223725   1.362   3.489   4.458
 7921TIP3   OH223726   2.408   2.881   4.614
 7921TIP3    H123727   2.350   2.898   4.540
 7921TIP3    H223728   2.372   2.933   4.686
 7922TIP3   OH223729   2.244   1.063   2.953
 7922TIP3    H123730   2.316   1.066   2.891
 7922TIP3    H223731   2.277   1.111   3.029
 7923TIP3   OH223732   1.360   2.650   0.485
 7923TIP3    H123733   1.277   2.684   0.450
 7923TIP3    H223734   1.351   2.659   0.579
 7924TIP3   OH223735   4.489   0.340   1.317
 7924TIP3    H123736   4.570   0.337   1.368
 7924TIP3    H223737   4.486   0.429   1.282
 7925TIP3   OH223738   6.168   6.370   2.807
 7925TIP3    H123739   6.124   6.348   2.725
 7925TIP3    H223740   6.246   6.315   2.808
 7926TIP3   OH223741   0.975   1.014   5.829
 7926TIP3    H123742   0.925   1.011   5.748
 7926TIP3    H223743   0.908   1.017   5.898
 7927TIP3   OH223744   6.354   5.749   4.913
 7927TIP3    H123745   6.380   5.799   4.836
 7927TIP3    H223746   6.314   5.670   4.879
 7928TIP3   OH223747   3.091   1.852   1.340
 7928TIP3    H123748   3.136   1.934   1.319
 7928TIP3    H223749   3.037   1.873   1.416
 7929TIP3   OH223750   1.489   1.242   5.009
 7929TIP3    H123751   1.525   1.300   5.075
 7929TIP3    H223752   1.562   1.224   4.949
 7930TIP3   OH223753   2.787   2.857   1.746
 7930TIP3    H123754   2.692   2.869   1.741
 7930TIP3    H223755   2.801   2.815   1.831
 7931TIP3   OH223756   2.477   5.234   3.573
 7931TIP3    H123757   2.497   5.141   3.577
 7931TIP3    H223758   2.524   5.272   3.647
 7932TIP3   OH223759   5.497   6.501   2.669
 7932TIP3    H123760   5.442   6.578   2.652
 7932TIP3    H223761   5.469   6.437   2.604
 7933TIP3   OH223762   2.466   0.257   2.587
 7933TIP3    H123763   2.559   0.264   2.564
 7933TIP3    H223764   2.423   0.327   2.539
 7934TIP3   OH223765   5.922   6.743   0.516
 7934TIP3    H123766   5.911   6.651   0.543
 7934TIP3    H223767   5.871   6.750   0.435
 7935TIP3   OH223768   4.760   6.442   5.353
 7935TIP3    H123769   4.739   6.436   5.446
 7935TIP3    H223770   4.808   6.362   5.334
 7936TIP3   OH223771   1.592   0.524   3.911
 7936TIP3    H123772   1.545   0.443   3.928
 7936TIP3    H223773   1.657   0.529   3.980
 7937TIP3   OH223774   7.092   6.796   0.670
 7937TIP3    H123775   7.125   6.861   0.732
 7937TIP3    H223776   7.135   6.714   0.697
 7938TIP3   OH223777   6.728   4.717   4.557
 7938TIP3    H123778   6.637   4.737   4.538
 7938TIP3    H223779   6.763   4.681   4.475
 7939TIP3   OH223780   4.254   3.380   4.469
 7939TIP3    H123781   4.204   3.442   4.522
 7939TIP3    H223782   4.190   3.314   4.443
 7940TIP3   OH223783   0.670   2.786   4.639
 7940TIP3    H123784   0.748   2.829   4.674
 7940TIP3    H223785   0.699   2.746   4.557
 7941TIP3   OH223786   0.197   3.101   4.525
 7941TIP3    H123787   0.251   3.026   4.551
 7941TIP3    H223788   0.116   3.091   4.575
 7942TIP3   OH223789   3.207   0.572   4.042
 7942TIP3    H123790   3.278   0.583   4.106
 7942TIP3    H223791   3.250   0.531   3.966
 7943TIP3   OH223792   2.163   4.993   5.076
 7943TIP3    H123793   2.192   4.902   5.087
 7943TIP3    H223794   2.102   5.007   5.148
 7944TIP3   OH223795   1.134   5.074   4.147
 7944TIP3    H123796   1.146   5.014   4.073
 7944TIP3    H223797   1.191   5.038   4.215
 7945TIP3   OH223798   4.773   3.991   4.509
 7945TIP3    H123799   4.835   4.064   4.509
 7945TIP3    H223800   4.826   3.915   4.484
 7946TIP3   OH223801   2.473   0.253   4.955
 7946TIP3    H123802   2.556   0.230   4.997
 7946TIP3    H223803   2.480   0.346   4.936
 7947TIP3   OH223804   0.797   4.390   4.445
 7947TIP3    H123805   0.836   4.340   4.517
 7947TIP3    H223806   0.813   4.481   4.466
 7948TIP3   OH223807   6.979   4.898   2.797
 7948TIP3    H123808   6.890   4.922   2.773
 7948TIP3    H223809   6.970   4.850   2.880
 7949TIP3   OH223810   3.350   0.191   1.409
 7949TIP3    H123811   3.255   0.179   1.414
 7949TIP3    H223812   3.364   0.282   1.436
 7950TIP3   OH223813   4.482   2.800   1.722
 7950TIP3    H123814   4.515   2.849   1.797
 7950TIP3    H223815   4.395   2.838   1.705
 7951TIP3   OH223816   3.103   0.146   0.584
 7951TIP3    H123817   3.039   0.090   0.540
 7951TIP3    H223818   3.187   0.103   0.568
 7952TIP3   OH223819   0.804   2.707   0.384
 7952TIP3    H123820   0.820   2.782   0.326
 7952TIP3    H223821   0.846   2.732   0.466
 7953TIP3   OH223822   3.616   0.414   0.687
 7953TIP3    H123823   3.577   0.366   0.614
 7953TIP3    H223824   3.574   0.377   0.765
 7954TIP3   OH223825   5.956   6.643   5.037
 7954TIP3    H123826   5.912   6.723   5.008
 7954TIP3    H223827   5.996   6.667   5.121
 7955TIP3   OH223828   5.468   3.079   2.456
 7955TIP3    H123829   5.426   3.081   2.370
 7955TIP3    H223830   5.555   3.115   2.442
 7956TIP3   OH223831   5.378   6.159   2.909
 7956TIP3    H123832   5.396   6.102   2.834
 7956TIP3    H223833   5.298   6.122   2.948
 7957TIP3   OH223834   5.632   5.875   5.763
 7957TIP3    H123835   5.605   5.914   5.846
 7957TIP3    H223836   5.602   5.937   5.696
 7958TIP3   OH223837   2.043   1.028   3.331
 7958TIP3    H123838   2.042   1.123   3.323
 7958TIP3    H223839   2.045   1.012   3.426
 7959TIP3   OH223840   1.213   0.548   4.854
 7959TIP3    H123841   1.183   0.532   4.764
 7959TIP3    H223842   1.298   0.590   4.844
 7960TIP3   OH223843   6.599   1.290   0.522
 7960TIP3    H123844   6.536   1.225   0.552
 7960TIP3    H223845   6.618   1.266   0.431
 7961TIP3   OH223846   5.242   3.772   4.943
 7961TIP3    H123847   5.255   3.742   4.853
 7961TIP3    H223848   5.323   3.820   4.964
 7962TIP3   OH223849   2.225   2.415   4.379
 7962TIP3    H123850   2.147   2.368   4.350
 7962TIP3    H223851   2.213   2.504   4.346
 7963TIP3   OH223852   5.560   4.055   3.128
 7963TIP3    H123853   5.510   3.987   3.172
 7963TIP3    H223854   5.604   4.009   3.056
 7964TIP3   OH223855   4.669   3.598   3.150
 7964TIP3    H123856   4.709   3.623   3.234
 7964TIP3    H223857   4.743   3.589   3.090
 7965TIP3   OH223858   5.490   5.738   0.894
 7965TIP3    H123859   5.514   5.800   0.964
 7965TIP3    H223860   5.435   5.673   0.938
 7966TIP3   OH223861   3.943   5.973   2.949
 7966TIP3    H123862   3.990   6.025   2.884
 7966TIP3    H223863   3.963   5.882   2.927
 7967TIP3   OH223864   1.933   1.080   4.239
 7967TIP3    H123865   1.848   1.058   4.277
 7967TIP3    H223866   1.937   1.176   4.242
 7968TIP3   OH223867   1.523   1.011   0.265
 7968TIP3    H123868   1.532   1.100   0.230
 7968TIP3    H223869   1.486   0.960   0.194
 7969TIP3   OH223870   6.817   0.905   5.889
 7969TIP3    H123871   6.756   0.978   5.901
 7969TIP3    H223872   6.828   0.898   5.794
 7970TIP3   OH223873   4.438   5.097   2.378
 7970TIP3    H123874   4.396   5.182   2.394
 7970TIP3    H223875   4.412   5.043   2.452
 7971TIP3   OH223876   6.875   2.187   4.401
 7971TIP3    H123877   6.873   2.238   4.321
 7971TIP3    H223878   6.844   2.100   4.375
 7972TIP3   OH223879   2.651   2.419   3.341
 7972TIP3    H123880   2.670   2.338   3.388
 7972TIP3    H223881   2.676   2.489   3.402
 7973TIP3   OH223882   6.035   2.352   3.708
 7973TIP3    H123883   6.091   2.429   3.713
 7973TIP3    H223884   5.972   2.364   3.780
 7974TIP3   OH223885   6.647   1.676   1.700
 7974TIP3    H123886   6.729   1.659   1.654
 7974TIP3    H223887   6.670   1.672   1.793
 7975TIP3   OH223888   6.704   5.285   3.224
 7975TIP3    H123889   6.770   5.339   3.180
 7975TIP3    H223890   6.626   5.341   3.227
 7976TIP3   OH223891   3.252   6.568   5.509
 7976TIP3    H123892   3.197   6.490   5.513
 7976TIP3    H223893   3.208   6.632   5.566
 7977TIP3   OH223894   6.203   6.749   2.023
 7977TIP3    H123895   6.227   6.809   2.094
 7977TIP3    H223896   6.285   6.734   1.976
 7978TIP3   OH223897   2.870   6.232   2.045
 7978TIP3    H123898   2.903   6.230   1.956
 7978TIP3    H223899   2.791   6.178   2.043
 7979TIP3   OH223900   6.453   6.470   2.707
 7979TIP3    H123901   6.465   6.557   2.670
 7979TIP3    H223902   6.538   6.427   2.695
 7980TIP3   OH223903   1.539   4.857   2.749
 7980TIP3    H123904   1.521   4.772   2.708
 7980TIP3    H223905   1.457   4.880   2.792
 7981TIP3   OH223906   4.599   5.055   5.791
 7981TIP3    H123907   4.526   5.087   5.738
 7981TIP3    H223908   4.565   4.974   5.832
 7982TIP3   OH223909   0.269   0.194   4.509
 7982TIP3    H123910   0.228   0.169   4.427
 7982TIP3    H223911   0.308   0.280   4.492
 7983TIP3   OH223912   2.809   6.450   2.701
 7983TIP3    H123913   2.752   6.374   2.713
 7983TIP3    H223914   2.810   6.493   2.787
 7984TIP3   OH223915   3.658   6.509   4.849
 7984TIP3    H123916   3.702   6.590   4.825
 7984TIP3    H223917   3.604   6.533   4.925
 7985TIP3   OH223918   5.036   3.738   3.249
 7985TIP3    H123919   4.997   3.763   3.165
 7985TIP3    H223920   4.961   3.730   3.309
 7986TIP3   OH223921   1.212   0.137   3.460
 7986TIP3    H123922   1.131   0.139   3.409
 7986TIP3    H223923   1.189   0.178   3.543
 7987TIP3   OH223924   2.167   6.051   1.758
 7987TIP3    H123925   2.154   6.135   1.803
 7987TIP3    H223926   2.128   6.064   1.672
 7988TIP3   OH223927   0.668   0.737   0.211
 7988TIP3    H123928   0.707   0.752   0.297
 7988TIP3    H223929   0.578   0.767   0.220
 7989TIP3   OH223930   5.318   0.570   2.070
 7989TIP3    H123931   5.375   0.509   2.116
 7989TIP3    H223932   5.230   0.534   2.082
 7990TIP3   OH223933   2.839   1.678   1.099
 7990TIP3    H123934   2.819   1.652   1.189
 7990TIP3    H223935   2.857   1.595   1.053
 7991TIP3   OH223936   2.214   1.811   4.770
 7991TIP3    H123937   2.293   1.839   4.818
 7991TIP3    H223938   2.173   1.892   4.742
 7992TIP3   OH223939   5.005   4.584   1.909
 7992TIP3    H123940   5.083   4.619   1.953
 7992TIP3    H223941   5.040   4.530   1.838
 7993TIP3   OH223942   4.204   6.602   4.922
 7993TIP3    H123943   4.117   6.642   4.915
 7993TIP3    H223944   4.264   6.669   4.889
 7994TIP3   OH223945   7.034   1.472   2.922
 7994TIP3    H123946   6.955   1.433   2.884
 7994TIP3    H223947   7.052   1.420   3.000
 7995TIP3   OH223948   0.860   1.902   3.816
 7995TIP3    H123949   0.912   1.864   3.887
 7995TIP3    H223950   0.890   1.993   3.810
 7996TIP3   OH223951   5.985   2.187   2.464
 7996TIP3    H123952   5.980   2.282   2.474
 7996TIP3    H223953   5.978   2.172   2.370
 7997TIP3   OH223954   0.853   4.318   2.347
 7997TIP3    H123955   0.758   4.303   2.347
 7997TIP3    H223956   0.866   4.388   2.411
 7998TIP3   OH223957   0.169   6.156   2.423
 7998TIP3    H123958   0.170   6.077   2.369
 7998TIP3    H223959   0.082   6.156   2.463
 7999TIP3   OH223960   6.985   5.600   4.960
 7999TIP3    H123961   6.958   5.642   4.879
 7999TIP3    H223962   7.063   5.549   4.936
 8000TIP3   OH223963   2.735   1.604   0.746
 8000TIP3    H123964   2.733   1.513   0.716
 8000TIP3    H223965   2.828   1.626   0.749
 8001TIP3   OH223966   4.623   1.321   0.788
 8001TIP3    H123967   4.706   1.345   0.829
 8001TIP3    H223968   4.639   1.234   0.751
 8002TIP3   OH223969   4.734   2.195   3.946
 8002TIP3    H123970   4.731   2.101   3.926
 8002TIP3    H223971   4.827   2.217   3.944
 8003TIP3   OH223972   3.823   3.905   3.070
 8003TIP3    H123973   3.833   3.894   3.165
 8003TIP3    H223974   3.851   3.995   3.054
 8004TIP3   OH223975   5.018   5.626   4.696
 8004TIP3    H123976   5.075   5.697   4.670
 8004TIP3    H223977   4.999   5.579   4.615
 8005TIP3   OH223978   1.153   2.695   4.511
 8005TIP3    H123979   1.206   2.685   4.590
 8005TIP3    H223980   1.217   2.714   4.442
 8006TIP3   OH223981   1.980   5.773   4.895
 8006TIP3    H123982   1.909   5.773   4.831
 8006TIP3    H223983   1.954   5.838   4.960
 8007TIP3   OH223984   6.150   3.709   5.617
 8007TIP3    H123985   6.197   3.738   5.538
 8007TIP3    H223986   6.164   3.614   5.620
 8008TIP3   OH223987   1.723   2.709   3.637
 8008TIP3    H123988   1.764   2.675   3.716
 8008TIP3    H223989   1.758   2.654   3.567
 8009TIP3   OH223990   3.128   0.740   0.755
 8009TIP3    H123991   3.063   0.671   0.748
 8009TIP3    H223992   3.078   0.821   0.746
 8010TIP3   OH223993   4.646   4.816   5.138
 8010TIP3    H123994   4.643   4.897   5.087
 8010TIP3    H223995   4.568   4.768   5.110
 8011TIP3   OH223996   0.878   2.476   2.928
 8011TIP3    H123997   0.936   2.502   2.857
 8011TIP3    H223998   0.810   2.423   2.887
 8012TIP3   OH223999   2.281   4.963   0.701
 8012TIP3    H124000   2.227   4.884   0.706
 8012TIP3    H224001   2.229   5.024   0.650
 8013TIP3   OH224002   2.077   1.813   0.576
 8013TIP3    H124003   2.006   1.870   0.604
 8013TIP3    H224004   2.117   1.858   0.502
 8014TIP3   OH224005   1.601   4.935   5.402
 8014TIP3    H124006   1.536   5.005   5.387
 8014TIP3    H224007   1.584   4.905   5.491
 8015TIP3   OH224008   6.097   5.117   3.282
 8015TIP3    H124009   6.133   5.035   3.248
 8015TIP3    H224010   6.119   5.116   3.375
 8016TIP3   OH224011   6.888   4.089   4.402
 8016TIP3    H124012   6.823   4.096   4.332
 8016TIP3    H224013   6.969   4.123   4.363
 8017TIP3   OH224014   2.523   1.913   1.955
 8017TIP3    H124015   2.476   1.989   1.987
 8017TIP3    H224016   2.468   1.877   1.886
 8018TIP3   OH224017   4.883   0.486   2.451
 8018TIP3    H124018   4.935   0.498   2.530
 8018TIP3    H224019   4.921   0.408   2.410
 8019TIP3   OH224020   6.300   5.440   0.215
 8019TIP3    H124021   6.268   5.400   0.134
 8019TIP3    H224022   6.370   5.383   0.244
 8020TIP3   OH224023   7.199   0.617   4.151
 8020TIP3    H124024   7.120   0.621   4.206
 8020TIP3    H224025   7.172   0.569   4.073
 8021TIP3   OH224026   5.013   4.594   2.306
 8021TIP3    H124027   4.919   4.610   2.296
 8021TIP3    H224028   5.049   4.605   2.218
 8022TIP3   OH224029   2.909   4.645   5.528
 8022TIP3    H124030   2.957   4.608   5.454
 8022TIP3    H224031   2.896   4.737   5.506
 8023TIP3   OH224032   2.570   6.635   1.199
 8023TIP3    H124033   2.608   6.551   1.226
 8023TIP3    H224034   2.625   6.664   1.126
 8024TIP3   OH224035   2.570   2.061   0.674
 8024TIP3    H124036   2.547   2.117   0.600
 8024TIP3    H224037   2.489   2.052   0.724
 8025TIP3   OH224038   2.570   4.080   4.450
 8025TIP3    H124039   2.633   4.141   4.413
 8025TIP3    H224040   2.612   4.048   4.530
 8026TIP3   OH224041   4.448   2.573   4.234
 8026TIP3    H124042   4.424   2.595   4.324
 8026TIP3    H224043   4.443   2.656   4.187
 8027TIP3   OH224044   2.208   1.110   5.588
 8027TIP3    H124045   2.128   1.150   5.619
 8027TIP3    H224046   2.247   1.175   5.531
 8028TIP3   OH224047   4.432   3.475   1.896
 8028TIP3    H124048   4.441   3.521   1.979
 8028TIP3    H224049   4.469   3.534   1.831
 8029TIP3   OH224050   2.198   2.116   0.890
 8029TIP3    H124051   2.155   2.106   0.806
 8029TIP3    H224052   2.150   2.058   0.949
 8030TIP3   OH224053   0.807   0.607   5.613
 8030TIP3    H124054   0.749   0.532   5.596
 8030TIP3    H224055   0.857   0.618   5.532
 8031TIP3   OH224056   1.567   6.039   1.091
 8031TIP3    H124057   1.481   6.081   1.096
 8031TIP3    H224058   1.578   5.995   1.175
 8032TIP3   OH224059   0.547   5.462   0.552
 8032TIP3    H124060   0.541   5.398   0.623
 8032TIP3    H224061   0.634   5.447   0.513
 8033TIP3   OH224062   2.954   0.664   5.706
 8033TIP3    H124063   2.875   0.651   5.653
 8033TIP3    H224064   2.922   0.670   5.796
 8034TIP3   OH224065   3.529   0.986   4.664
 8034TIP3    H124066   3.613   0.940   4.669
 8034TIP3    H224067   3.550   1.069   4.621
 8035TIP3   OH224068   4.584   1.210   4.316
 8035TIP3    H124069   4.513   1.272   4.301
 8035TIP3    H224070   4.540   1.125   4.324
 8036TIP3   OH224071   7.171   3.585   1.847
 8036TIP3    H124072   7.157   3.624   1.761
 8036TIP3    H224073   7.084   3.581   1.886
 8037TIP3   OH224074   6.719   5.001   4.744
 8037TIP3    H124075   6.641   5.004   4.688
 8037TIP3    H224076   6.773   5.074   4.713
 8038TIP3   OH224077   0.368   3.918   1.868
 8038TIP3    H124078   0.358   3.832   1.910
 8038TIP3    H224079   0.400   3.897   1.780
 8039TIP3   OH224080   2.803   2.474   4.349
 8039TIP3    H124081   2.825   2.542   4.286
 8039TIP3    H224082   2.707   2.472   4.350
 8040TIP3   OH224083   5.532   0.917   0.253
 8040TIP3    H124084   5.545   0.876   0.339
 8040TIP3    H224085   5.540   1.011   0.270
 8041TIP3   OH224086   4.243   1.426   0.944
 8041TIP3    H124087   4.236   1.461   1.033
 8041TIP3    H224088   4.225   1.501   0.887
 8042TIP3   OH224089   4.864   4.780   2.133
 8042TIP3    H124090   4.909   4.755   2.052
 8042TIP3    H224091   4.917   4.851   2.169
 8043TIP3   OH224092   3.153   1.922   0.403
 8043TIP3    H124093   3.233   1.886   0.365
 8043TIP3    H224094   3.092   1.928   0.330
 8044TIP3   OH224095   3.528   0.131   1.643
 8044TIP3    H124096   3.522   0.215   1.688
 8044TIP3    H224097   3.440   0.115   1.611
 8045TIP3   OH224098   1.800   3.160   3.856
 8045TIP3    H124099   1.801   3.229   3.922
 8045TIP3    H224100   1.719   3.111   3.872
 8046TIP3   OH224101   1.039   5.559   2.115
 8046TIP3    H124102   1.075   5.543   2.027
 8046TIP3    H224103   1.115   5.554   2.173
 8047TIP3   OH224104   3.834   1.418   4.388
 8047TIP3    H124105   3.906   1.468   4.425
 8047TIP3    H224106   3.771   1.484   4.360
 8048TIP3   OH224107   3.941   6.603   0.283
 8048TIP3    H124108   3.879   6.638   0.346
 8048TIP3    H224109   3.971   6.680   0.233
 8049TIP3   OH224110   0.643   0.934   1.110
 8049TIP3    H124111   0.613   0.926   1.201
 8049TIP3    H224112   0.587   0.875   1.060
 8050TIP3   OH224113   5.546   1.011   4.711
 8050TIP3    H124114   5.483   1.001   4.639
 8050TIP3    H224115   5.552   0.924   4.750
 8051TIP3   OH224116   2.179   1.304   0.767
 8051TIP3    H124117   2.199   1.385   0.813
 8051TIP3    H224118   2.264   1.269   0.742
 8052TIP3   OH224119   1.268   1.146   1.274
 8052TIP3    H124120   1.210   1.072   1.260
 8052TIP3    H224121   1.244   1.180   1.360
 8053TIP3   OH224122   5.345   0.631   1.141
 8053TIP3    H124123   5.413   0.564   1.143
 8053TIP3    H224124   5.286   0.603   1.071
 8054TIP3   OH224125   1.914   5.350   4.697
 8054TIP3    H124126   1.990   5.353   4.756
 8054TIP3    H224127   1.911   5.437   4.658
 8055TIP3   OH224128   1.928   1.461   4.098
 8055TIP3    H124129   2.023   1.456   4.086
 8055TIP3    H224130   1.892   1.411   4.025
 8056TIP3   OH224131   1.497   0.729   5.409
 8056TIP3    H124132   1.471   0.667   5.341
 8056TIP3    H224133   1.593   0.729   5.406
 8057TIP3   OH224134   0.854   3.603   4.069
 8057TIP3    H124135   0.935   3.556   4.048
 8057TIP3    H224136   0.869   3.691   4.035
 8058TIP3   OH224137   3.790   6.551   4.254
 8058TIP3    H124138   3.854   6.607   4.210
 8058TIP3    H224139   3.822   6.544   4.344
 8059TIP3   OH224140   1.372   6.582   4.571
 8059TIP3    H124141   1.402   6.670   4.593
 8059TIP3    H224142   1.277   6.590   4.563
 8060TIP3   OH224143   5.101   4.741   0.453
 8060TIP3    H124144   5.119   4.738   0.547
 8060TIP3    H224145   5.009   4.716   0.446
 8061TIP3   OH224146   4.630   6.439   4.139
 8061TIP3    H124147   4.650   6.347   4.120
 8061TIP3    H224148   4.539   6.438   4.171
 8062TIP3   OH224149   3.278   0.759   1.866
 8062TIP3    H124150   3.292   0.704   1.943
 8062TIP3    H224151   3.324   0.714   1.795
 8063TIP3   OH224152   2.601   2.315   0.879
 8063TIP3    H124153   2.525   2.341   0.827
 8063TIP3    H224154   2.664   2.387   0.867
 8064TIP3   OH224155   1.760   4.446   4.781
 8064TIP3    H124156   1.712   4.434   4.863
 8064TIP3    H224157   1.764   4.541   4.770
 8065TIP3   OH224158   0.825   5.480   4.325
 8065TIP3    H124159   0.865   5.483   4.412
 8065TIP3    H224160   0.842   5.391   4.294
 8066TIP3   OH224161   6.089   4.747   0.361
 8066TIP3    H124162   6.180   4.728   0.341
 8066TIP3    H224163   6.044   4.663   0.351
 8067TIP3   OH224164   0.490   0.146   5.507
 8067TIP3    H124165   0.522   0.077   5.449
 8067TIP3    H224166   0.460   0.100   5.585
 8068TIP3   OH224167   2.932   6.191   2.786
 8068TIP3    H124168   2.911   6.259   2.721
 8068TIP3    H224169   2.847   6.157   2.813
 8069TIP3   OH224170   0.039   1.995   5.839
 8069TIP3    H124171   0.125   2.024   5.870
 8069TIP3    H224172   0.051   1.981   5.745
 8070TIP3   OH224173   4.802   1.714   1.087
 8070TIP3    H124174   4.761   1.719   1.001
 8070TIP3    H224175   4.878   1.772   1.081
 8071TIP3   OH224176   0.561   1.002   1.720
 8071TIP3    H124177   0.519   0.916   1.718
 8071TIP3    H224178   0.608   1.004   1.803
 8072TIP3   OH224179   3.175   2.946   2.839
 8072TIP3    H124180   3.255   2.961   2.889
 8072TIP3    H224181   3.112   2.914   2.903
 8073TIP3   OH224182   2.180   2.437   3.742
 8073TIP3    H124183   2.152   2.347   3.759
 8073TIP3    H224184   2.267   2.428   3.701
 8074TIP3   OH224185   4.758   0.673   0.737
 8074TIP3    H124186   4.757   0.744   0.673
 8074TIP3    H224187   4.850   0.647   0.743
 8075TIP3   OH224188   3.569   4.995   3.813
 8075TIP3    H124189   3.582   4.909   3.855
 8075TIP3    H224190   3.604   5.058   3.876
 8076TIP3   OH224191   5.451   1.149   2.454
 8076TIP3    H124192   5.525   1.210   2.457
 8076TIP3    H224193   5.467   1.088   2.526
 8077TIP3   OH224194   5.087   6.475   4.374
 8077TIP3    H124195   5.053   6.452   4.288
 8077TIP3    H224196   5.073   6.397   4.427
 8078TIP3   OH224197   0.530   1.141   4.994
 8078TIP3    H124198   0.490   1.151   4.908
 8078TIP3    H224199   0.478   1.197   5.051
 8079TIP3   OH224200   3.811   0.226   4.884
 8079TIP3    H124201   3.822   0.220   4.789
 8079TIP3    H224202   3.735   0.171   4.902
 8080TIP3   OH224203   1.447   0.673   4.760
 8080TIP3    H124204   1.527   0.663   4.707
 8080TIP3    H224205   1.443   0.766   4.780
 8081TIP3   OH224206   0.232   4.060   1.362
 8081TIP3    H124207   0.148   4.047   1.407
 8081TIP3    H224208   0.291   4.093   1.430
 8082TIP3   OH224209   2.039   4.720   2.159
 8082TIP3    H124210   1.962   4.698   2.211
 8082TIP3    H224211   2.074   4.799   2.202
 8083TIP3   OH224212   6.638   5.249   4.184
 8083TIP3    H124213   6.691   5.209   4.254
 8083TIP3    H224214   6.679   5.219   4.103
 8084TIP3   OH224215   0.775   1.325   4.972
 8084TIP3    H124216   0.711   1.271   5.017
 8084TIP3    H224217   0.822   1.265   4.914
 8085TIP3   OH224218   4.357   3.791   5.086
 8085TIP3    H124219   4.306   3.733   5.030
 8085TIP3    H224220   4.362   3.874   5.037
 8086TIP3   OH224221   4.870   5.934   3.176
 8086TIP3    H124222   4.802   5.915   3.241
 8086TIP3    H224223   4.924   6.002   3.217
 8087TIP3   OH224224   6.847   0.154   0.451
 8087TIP3    H124225   6.827   0.070   0.409
 8087TIP3    H224226   6.785   0.159   0.524
 8088TIP3   OH224227   6.169   4.961   4.563
 8088TIP3    H124228   6.161   5.002   4.476
 8088TIP3    H224229   6.118   5.017   4.621
 8089TIP3   OH224230   4.607   5.111   4.346
 8089TIP3    H124231   4.629   5.172   4.276
 8089TIP3    H224232   4.620   5.024   4.308
 8090TIP3   OH224233   3.470   1.152   4.103
 8090TIP3    H124234   3.473   1.109   4.018
 8090TIP3    H224235   3.548   1.120   4.149
 8091TIP3   OH224236   0.672   2.684   0.900
 8091TIP3    H124237   0.699   2.592   0.892
 8091TIP3    H224238   0.633   2.706   0.816
 8092TIP3   OH224239   3.363   3.924   5.297
 8092TIP3    H124240   3.350   3.940   5.203
 8092TIP3    H224241   3.456   3.942   5.311
 8093TIP3   OH224242   6.727   0.264   0.680
 8093TIP3    H124243   6.727   0.352   0.642
 8093TIP3    H224244   6.744   0.279   0.773
 8094TIP3   OH224245   2.556   6.392   0.155
 8094TIP3    H124246   2.462   6.398   0.172
 8094TIP3    H224247   2.563   6.352   0.069
 8095TIP3   OH224248   3.986   1.015   5.599
 8095TIP3    H124249   3.910   0.957   5.613
 8095TIP3    H224250   4.060   0.955   5.589
 8096TIP3   OH224251   0.080   5.634   5.573
 8096TIP3    H124252   0.162   5.673   5.545
 8096TIP3    H224253   0.017   5.706   5.572
 8097TIP3   OH224254   0.108   1.339   5.897
 8097TIP3    H124255   0.072   1.270   5.952
 8097TIP3    H224256   0.059   1.333   5.815
 8098TIP3   OH224257   5.029   6.327   0.302
 8098TIP3    H124258   4.965   6.395   0.280
 8098TIP3    H224259   4.981   6.245   0.288
 8099TIP3   OH224260   5.029   3.035   5.428
 8099TIP3    H124261   4.984   3.089   5.363
 8099TIP3    H224262   5.114   3.077   5.439
 8100TIP3   OH224263   4.570   4.747   5.423
 8100TIP3    H124264   4.590   4.829   5.379
 8100TIP3    H224265   4.602   4.679   5.364
 8101TIP3   OH224266   3.965   5.539   5.162
 8101TIP3    H124267   3.910   5.529   5.240
 8101TIP3    H224268   3.904   5.530   5.089
 8102TIP3   OH224269   5.695   2.114   2.212
 8102TIP3    H124270   5.636   2.067   2.270
 8102TIP3    H224271   5.658   2.102   2.124
 8103TIP3   OH224272   3.723   6.502   2.222
 8103TIP3    H124273   3.636   6.490   2.184
 8103TIP3    H224274   3.743   6.594   2.210
 8104TIP3   OH224275   5.292   4.044   2.530
 8104TIP3    H124276   5.267   4.084   2.613
 8104TIP3    H224277   5.383   4.018   2.543
 8105TIP3   OH224278   3.241   1.460   2.772
 8105TIP3    H124279   3.321   1.454   2.721
 8105TIP3    H224280   3.215   1.369   2.788
 8106TIP3   OH224281   6.847   4.467   0.104
 8106TIP3    H124282   6.798   4.394   0.142
 8106TIP3    H224283   6.785   4.540   0.106
 8107TIP3   OH224284   3.643   5.900   1.842
 8107TIP3    H124285   3.613   5.859   1.762
 8107TIP3    H224286   3.663   5.991   1.818
 8108TIP3   OH224287   1.280   0.920   1.599
 8108TIP3    H124288   1.287   0.852   1.532
 8108TIP3    H224289   1.360   0.972   1.590
 8109TIP3   OH224290   4.906   3.760   1.526
 8109TIP3    H124291   4.945   3.818   1.461
 8109TIP3    H224292   4.976   3.745   1.590
 8110TIP3   OH224293   3.880   4.199   5.605
 8110TIP3    H124294   3.810   4.256   5.635
 8110TIP3    H224295   3.918   4.163   5.685
 8111TIP3   OH224296   3.416   1.354   1.552
 8111TIP3    H124297   3.322   1.376   1.551
 8111TIP3    H224298   3.460   1.436   1.529
 8112TIP3   OH224299   3.880   1.683   5.076
 8112TIP3    H124300   3.804   1.645   5.119
 8112TIP3    H224301   3.932   1.608   5.049
 8113TIP3   OH224302   0.417   3.885   2.778
 8113TIP3    H124303   0.426   3.866   2.685
 8113TIP3    H224304   0.339   3.941   2.783
 8114TIP3   OH224305   0.799   3.028   0.701
 8114TIP3    H124306   0.821   2.936   0.717
 8114TIP3    H224307   0.870   3.060   0.645
 8115TIP3   OH224308   2.474   4.520   0.637
 8115TIP3    H124309   2.535   4.449   0.619
 8115TIP3    H224310   2.443   4.548   0.551
 8116TIP3   OH224311   3.463   2.580   1.691
 8116TIP3    H124312   3.388   2.534   1.729
 8116TIP3    H224313   3.492   2.640   1.759
 8117TIP3   OH224314   2.528   2.391   4.368
 8117TIP3    H124315   2.439   2.376   4.399
 8117TIP3    H224316   2.581   2.323   4.411
 8118TIP3   OH224317   1.431   3.683   1.103
 8118TIP3    H124318   1.485   3.636   1.166
 8118TIP3    H224319   1.343   3.648   1.116
 8119TIP3   OH224320   2.759   3.654   4.533
 8119TIP3    H124321   2.793   3.738   4.565
 8119TIP3    H224322   2.767   3.595   4.608
 8120TIP3   OH224323   2.760  -0.040   3.300
 8120TIP3    H124324   2.712   0.032   3.258
 8120TIP3    H224325   2.811   0.003   3.368
 8121TIP3   OH224326   2.127   2.806   5.315
 8121TIP3    H124327   2.166   2.831   5.231
 8121TIP3    H224328   2.035   2.830   5.307
 8122TIP3   OH224329   5.616   1.660   0.225
 8122TIP3    H124330   5.709   1.685   0.226
 8122TIP3    H224331   5.587   1.683   0.136
 8123TIP3   OH224332   0.219   6.303   2.189
 8123TIP3    H124333   0.216   6.277   2.282
 8123TIP3    H224334   0.303   6.270   2.158
 8124TIP3   OH224335   5.877   4.747   2.466
 8124TIP3    H124336   5.887   4.838   2.437
 8124TIP3    H224337   5.843   4.701   2.388
 8125TIP3   OH224338   6.073   1.688   1.632
 8125TIP3    H124339   6.096   1.777   1.657
 8125TIP3    H224340   6.049   1.645   1.714
 8126TIP3   OH224341   0.413   2.916   4.581
 8126TIP3    H124342   0.495   2.911   4.631
 8126TIP3    H224343   0.437   2.965   4.502
 8127TIP3   OH224344   4.305   4.531   0.901
 8127TIP3    H124345   4.340   4.523   0.812
 8127TIP3    H224346   4.214   4.558   0.889
 8128TIP3   OH224347   4.695   2.857   2.688
 8128TIP3    H124348   4.769   2.898   2.733
 8128TIP3    H224349   4.733   2.820   2.609
 8129TIP3   OH224350   0.640   2.818   5.025
 8129TIP3    H124351   0.690   2.889   5.064
 8129TIP3    H224352   0.682   2.738   5.059
 8130TIP3   OH224353   1.258   2.197   3.028
 8130TIP3    H124354   1.321   2.250   2.981
 8130TIP3    H224355   1.208   2.151   2.960
 8131TIP3   OH224356   5.541   4.529   4.133
 8131TIP3    H124357   5.591   4.498   4.058
 8131TIP3    H224358   5.488   4.601   4.098
 8132TIP3   OH224359  -0.029   4.021   3.356
 8132TIP3    H124360   0.051   3.975   3.381
 8132TIP3    H224361  -0.031   4.099   3.411
 8133TIP3   OH224362   5.586   2.805   4.714
 8133TIP3    H124363   5.542   2.781   4.632
 8133TIP3    H224364   5.660   2.859   4.686
 8134TIP3   OH224365   3.546   5.974   3.515
 8134TIP3    H124366   3.585   5.897   3.557
 8134TIP3    H224367   3.463   5.988   3.561
 8135TIP3   OH224368   0.192   3.227   4.255
 8135TIP3    H124369   0.187   3.191   4.344
 8135TIP3    H224370   0.240   3.309   4.266
 8136TIP3   OH224371   2.687   1.055   2.060
 8136TIP3    H124372   2.719   0.965   2.054
 8136TIP3    H224373   2.735   1.103   1.992
 8137TIP3   OH224374   2.023   4.612   5.917
 8137TIP3    H124375   2.106   4.630   5.873
 8137TIP3    H224376   1.984   4.540   5.867
 8138TIP3   OH224377   6.541   3.984   2.185
 8138TIP3    H124378   6.534   3.894   2.217
 8138TIP3    H224379   6.628   3.988   2.144
 8139TIP3   OH224380   2.710   5.603   2.499
 8139TIP3    H124381   2.659   5.585   2.420
 8139TIP3    H224382   2.719   5.699   2.499
 8140TIP3   OH224383   1.900   3.998   3.483
 8140TIP3    H124384   1.946   4.081   3.471
 8140TIP3    H224385   1.823   4.005   3.427
 8141TIP3   OH224386   2.921   1.731   2.677
 8141TIP3    H124387   2.847   1.757   2.732
 8141TIP3    H224388   2.903   1.640   2.655
 8142TIP3   OH224389   6.441   6.067   0.420
 8142TIP3    H124390   6.453   6.147   0.471
 8142TIP3    H224391   6.470   5.997   0.478
 8143TIP3   OH224392   6.485   5.441   3.209
 8143TIP3    H124393   6.406   5.458   3.260
 8143TIP3    H224394   6.487   5.510   3.143
 8144TIP3   OH224395   1.889   1.793   1.319
 8144TIP3    H124396   1.930   1.738   1.386
 8144TIP3    H224397   1.800   1.760   1.311
 8145TIP3   OH224398   6.919   0.991   4.161
 8145TIP3    H124399   6.928   0.911   4.213
 8145TIP3    H224400   6.898   1.059   4.224
 8146TIP3   OH224401   3.510   1.072   1.901
 8146TIP3    H124402   3.445   1.047   1.835
 8146TIP3    H224403   3.460   1.086   1.981
 8147TIP3   OH224404   2.744   2.616   5.405
 8147TIP3    H124405   2.765   2.578   5.490
 8147TIP3    H224406   2.710   2.543   5.354
 8148TIP3   OH224407   1.548   1.606   4.240
 8148TIP3    H124408   1.565   1.666   4.168
 8148TIP3    H224409   1.461   1.630   4.272
 8149TIP3   OH224410   5.442   5.591   5.266
 8149TIP3    H124411   5.462   5.515   5.211
 8149TIP3    H224412   5.388   5.555   5.337
 8150TIP3   OH224413   3.358   2.977   2.503
 8150TIP3    H124414   3.395   3.052   2.550
 8150TIP3    H224415   3.378   2.902   2.559
 8151TIP3   OH224416   3.936   6.195   3.204
 8151TIP3    H124417   3.957   6.242   3.123
 8151TIP3    H224418   3.891   6.116   3.176
 8152TIP3   OH224419   0.228   4.485   4.789
 8152TIP3    H124420   0.186   4.404   4.762
 8152TIP3    H224421   0.157   4.539   4.824
 8153TIP3   OH224422   3.879   2.686   4.944
 8153TIP3    H124423   3.967   2.659   4.918
 8153TIP3    H224424   3.887   2.707   5.037
 8154TIP3   OH224425   6.266   5.400   0.597
 8154TIP3    H124426   6.332   5.464   0.624
 8154TIP3    H224427   6.305   5.355   0.522
 8155TIP3   OH224428   2.667   3.125   1.802
 8155TIP3    H124429   2.722   3.049   1.822
 8155TIP3    H224430   2.605   3.094   1.736
 8156TIP3   OH224431   3.497   5.611   5.498
 8156TIP3    H124432   3.445   5.558   5.557
 8156TIP3    H224433   3.476   5.579   5.410
 8157TIP3   OH224434   5.604   5.027   4.897
 8157TIP3    H124435   5.698   5.019   4.881
 8157TIP3    H224436   5.597   5.031   4.992
 8158TIP3   OH224437   2.472   1.052   2.352
 8158TIP3    H124438   2.377   1.057   2.363
 8158TIP3    H224439   2.502   1.008   2.431
 8159TIP3   OH224440   1.322   0.179   4.896
 8159TIP3    H124441   1.342   0.127   4.974
 8159TIP3    H224442   1.232   0.208   4.910
 8160TIP3   OH224443   2.680   3.486   2.396
 8160TIP3    H124444   2.660   3.393   2.404
 8160TIP3    H224445   2.701   3.498   2.303
 8161TIP3   OH224446   6.529   4.103   3.709
 8161TIP3    H124447   6.519   4.010   3.730
 8161TIP3    H224448   6.598   4.134   3.769
 8162TIP3   OH224449   7.077   5.286   4.753
 8162TIP3    H124450   7.082   5.350   4.824
 8162TIP3    H224451   7.073   5.201   4.797
 8163TIP3   OH224452   1.641   5.060   0.955
 8163TIP3    H124453   1.708   5.003   0.993
 8163TIP3    H224454   1.643   5.139   1.009
 8164TIP3   OH224455   4.844   2.726   1.262
 8164TIP3    H124456   4.818   2.731   1.354
 8164TIP3    H224457   4.810   2.807   1.223
 8165TIP3   OH224458   0.386   5.002   0.771
 8165TIP3    H124459   0.411   4.935   0.835
 8165TIP3    H224460   0.397   4.960   0.686
 8166TIP3   OH224461   5.387   1.458   2.456
 8166TIP3    H124462   5.480   1.451   2.434
 8166TIP3    H224463   5.341   1.425   2.378
 8167TIP3   OH224464   1.728   6.631   0.158
 8167TIP3    H124465   1.814   6.595   0.179
 8167TIP3    H224466   1.680   6.557   0.120
 8168TIP3   OH224467   2.375   5.679   0.210
 8168TIP3    H124468   2.466   5.703   0.193
 8168TIP3    H224469   2.334   5.760   0.240
 8169TIP3   OH224470   3.609   1.571   1.494
 8169TIP3    H124471   3.616   1.511   1.419
 8169TIP3    H224472   3.634   1.656   1.458
 8170TIP3   OH224473   1.581   3.222   4.081
 8170TIP3    H124474   1.585   3.217   4.176
 8170TIP3    H224475   1.597   3.315   4.061
 8171TIP3   OH224476   0.883   3.622   4.338
 8171TIP3    H124477   0.875   3.596   4.246
 8171TIP3    H224478   0.876   3.717   4.336
 8172TIP3   OH224479   0.636   5.879   2.541
 8172TIP3    H124480   0.725   5.894   2.574
 8172TIP3    H224481   0.582   5.942   2.588
 8173TIP3   OH224482   3.465   4.637   2.694
 8173TIP3    H124483   3.436   4.594   2.774
 8173TIP3    H224484   3.560   4.623   2.692
 8174TIP3   OH224485   5.300   5.005   5.476
 8174TIP3    H124486   5.372   5.050   5.432
 8174TIP3    H224487   5.246   5.076   5.512
 8175TIP3   OH224488   5.107   3.128   1.950
 8175TIP3    H124489   5.143   3.049   1.910
 8175TIP3    H224490   5.169   3.150   2.019
 8176TIP3   OH224491   5.353   6.060   4.514
 8176TIP3    H124492   5.415   5.990   4.533
 8176TIP3    H224493   5.313   6.034   4.430
 8177TIP3   OH224494   0.129   3.127   4.895
 8177TIP3    H124495   0.039   3.140   4.927
 8177TIP3    H224496   0.120   3.130   4.800
 8178TIP3   OH224497   2.506   4.808   5.037
 8178TIP3    H124498   2.584   4.777   4.992
 8178TIP3    H224499   2.500   4.901   5.015
 8179TIP3   OH224500   4.941   1.071   5.237
 8179TIP3    H124501   4.871   1.008   5.218
 8179TIP3    H224502   4.931   1.089   5.331
 8180TIP3   OH224503   0.784   0.983   2.575
 8180TIP3    H124504   0.712   1.022   2.625
 8180TIP3    H224505   0.794   0.895   2.613
 8181TIP3   OH224506   5.074   6.674   3.871
 8181TIP3    H124507   4.998   6.732   3.875
 8181TIP3    H224508   5.119   6.698   3.791
 8182TIP3   OH224509   6.784   3.465   4.165
 8182TIP3    H124510   6.736   3.440   4.244
 8182TIP3    H224511   6.768   3.558   4.156
 8183TIP3   OH224512   6.452   5.955   0.102
 8183TIP3    H124513   6.537   5.965   0.058
 8183TIP3    H224514   6.472   5.901   0.178
 8184TIP3   OH224515   0.048   1.785   3.341
 8184TIP3    H124516   0.119   1.791   3.404
 8184TIP3    H224517  -0.016   1.850   3.370
 8185TIP3   OH224518   5.306   5.110   1.892
 8185TIP3    H124519   5.311   5.155   1.808
 8185TIP3    H224520   5.397   5.085   1.912
 8186TIP3   OH224521   5.109   2.895   4.387
 8186TIP3    H124522   5.095   2.897   4.481
 8186TIP3    H224523   5.023   2.876   4.350
 8187TIP3   OH224524   2.366   5.575   4.052
 8187TIP3    H124525   2.307   5.502   4.035
 8187TIP3    H224526   2.335   5.613   4.134
 8188TIP3   OH224527   0.926   4.670   0.192
 8188TIP3    H124528   1.021   4.684   0.189
 8188TIP3    H224529   0.914   4.603   0.260
 8189TIP3   OH224530   1.513   3.159   1.052
 8189TIP3    H124531   1.590   3.214   1.067
 8189TIP3    H224532   1.533   3.111   0.972
 8190TIP3   OH224533   3.511   6.454   2.827
 8190TIP3    H124534   3.436   6.401   2.856
 8190TIP3    H224535   3.536   6.503   2.906
 8191TIP3   OH224536   6.813   4.239   2.953
 8191TIP3    H124537   6.832   4.320   3.000
 8191TIP3    H224538   6.843   4.255   2.864
 8192TIP3   OH224539   6.431   4.464   5.334
 8192TIP3    H124540   6.342   4.490   5.361
 8192TIP3    H224541   6.446   4.380   5.376
 8193TIP3   OH224542   1.477   1.094   0.904
 8193TIP3    H124543   1.448   1.156   0.971
 8193TIP3    H224544   1.403   1.088   0.843
 8194TIP3   OH224545   5.503   4.033   4.690
 8194TIP3    H124546   5.444   4.028   4.615
 8194TIP3    H224547   5.577   4.085   4.660
 8195TIP3   OH224548   5.484   0.750   5.850
 8195TIP3    H124549   5.498   0.771   5.942
 8195TIP3    H224550   5.430   0.671   5.852
 8196TIP3   OH224551   5.549   3.155   4.841
 8196TIP3    H124552   5.527   3.220   4.907
 8196TIP3    H224553   5.624   3.191   4.794
 8197TIP3   OH224554   1.925   5.232   5.023
 8197TIP3    H124555   1.962   5.307   4.976
 8197TIP3    H224556   1.836   5.223   4.988
 8198TIP3   OH224557   0.775   2.309   5.556
 8198TIP3    H124558   0.739   2.395   5.578
 8198TIP3    H224559   0.870   2.324   5.551
 8199TIP3   OH224560   6.822   1.815   3.681
 8199TIP3    H124561   6.735   1.805   3.643
 8199TIP3    H224562   6.875   1.851   3.610
 8200TIP3   OH224563   7.121   3.678   5.582
 8200TIP3    H124564   7.091   3.659   5.671
 8200TIP3    H224565   7.086   3.606   5.529
 8201TIP3   OH224566   1.779   1.225   1.679
 8201TIP3    H124567   1.785   1.308   1.632
 8201TIP3    H224568   1.753   1.249   1.768
 8202TIP3   OH224569   0.410   5.731   3.019
 8202TIP3    H124570   0.453   5.694   3.096
 8202TIP3    H224571   0.375   5.815   3.048
 8203TIP3   OH224572   5.334   1.789   0.634
 8203TIP3    H124573   5.350   1.790   0.540
 8203TIP3    H224574   5.281   1.710   0.648
 8204TIP3   OH224575   1.513   6.518   2.778
 8204TIP3    H124576   1.447   6.572   2.821
 8204TIP3    H224577   1.480   6.506   2.689
 8205TIP3   OH224578   3.929   4.045   5.093
 8205TIP3    H124579   3.965   4.122   5.049
 8205TIP3    H224580   3.903   4.076   5.179
 8206TIP3   OH224581   5.394   1.711   1.847
 8206TIP3    H124582   5.345   1.751   1.918
 8206TIP3    H224583   5.412   1.622   1.877
 8207TIP3   OH224584   3.971   3.794   4.467
 8207TIP3    H124585   4.012   3.709   4.479
 8207TIP3    H224586   4.044   3.856   4.460
 8208TIP3   OH224587   2.916   5.384   5.767
 8208TIP3    H124588   2.962   5.309   5.804
 8208TIP3    H224589   2.983   5.433   5.720
 8209TIP3   OH224590   5.721   6.075   5.191
 8209TIP3    H124591   5.671   6.153   5.166
 8209TIP3    H224592   5.658   6.003   5.181
 8210TIP3   OH224593   0.091   4.525   1.151
 8210TIP3    H124594   0.006   4.543   1.190
 8210TIP3    H224595   0.154   4.551   1.218
 8211TIP3   OH224596   4.935   6.297   5.187
 8211TIP3    H124597   4.962   6.225   5.130
 8211TIP3    H224598   5.015   6.323   5.233
 8212TIP3   OH224599   0.242   2.614   4.110
 8212TIP3    H124600   0.245   2.710   4.108
 8212TIP3    H224601   0.227   2.589   4.018
 8213TIP3   OH224602   5.790   2.022   0.023
 8213TIP3    H124603   5.848   2.094  -0.003
 8213TIP3    H224604   5.848   1.959   0.065
 8214TIP3   OH224605   2.062   2.822   3.738
 8214TIP3    H124606   2.053   2.728   3.750
 8214TIP3    H224607   2.004   2.860   3.804
 8215TIP3   OH224608   3.930   2.601   2.339
 8215TIP3    H124609   4.019   2.623   2.368
 8215TIP3    H224610   3.921   2.507   2.358
 8216TIP3   OH224611   0.857   0.395   1.431
 8216TIP3    H124612   0.869   0.487   1.408
 8216TIP3    H224613   0.906   0.383   1.512
 8217TIP3   OH224614   0.630   1.292   1.941
 8217TIP3    H124615   0.668   1.204   1.946
 8217TIP3    H224616   0.655   1.325   1.854
 8218TIP3   OH224617   1.249   4.810   5.133
 8218TIP3    H124618   1.312   4.786   5.065
 8218TIP3    H224619   1.303   4.839   5.207
 8219TIP3   OH224620   3.591   0.222   4.000
 8219TIP3    H124621   3.686   0.215   3.997
 8219TIP3    H224622   3.562   0.144   4.046
 8220TIP3   OH224623   6.656   3.632   2.553
 8220TIP3    H124624   6.632   3.575   2.480
 8220TIP3    H224625   6.617   3.717   2.531
 8221TIP3   OH224626   0.696   2.310   4.879
 8221TIP3    H124627   0.703   2.223   4.839
 8221TIP3    H224628   0.690   2.370   4.805
 8222TIP3   OH224629   1.245   5.335   0.175
 8222TIP3    H124630   1.177   5.272   0.197
 8222TIP3    H224631   1.246   5.396   0.249
 8223TIP3   OH224632   0.097   6.439   4.989
 8223TIP3    H124633   0.101   6.404   5.077
 8223TIP3    H224634   0.179   6.411   4.948
 8224TIP3   OH224635   6.383   0.977   1.170
 8224TIP3    H124636   6.377   1.070   1.149
 8224TIP3    H224637   6.446   0.942   1.108
 8225TIP3   OH224638   3.281   0.541   3.182
 8225TIP3    H124639   3.360   0.524   3.131
 8225TIP3    H224640   3.239   0.614   3.136
 8226TIP3   OH224641   0.831   5.924   3.211
 8226TIP3    H124642   0.755   5.954   3.262
 8226TIP3    H224643   0.806   5.941   3.120
 8227TIP3   OH224644   3.281   1.405   1.249
 8227TIP3    H124645   3.377   1.406   1.246
 8227TIP3    H224646   3.256   1.497   1.257
 8228TIP3   OH224647   1.996   5.430   3.790
 8228TIP3    H124648   2.046   5.468   3.717
 8228TIP3    H224649   2.062   5.411   3.856
 8229TIP3   OH224650   0.942   6.671   2.858
 8229TIP3    H124651   0.995   6.717   2.923
 8229TIP3    H224652   1.006   6.622   2.806
 8230TIP3   OH224653   6.930   5.812   3.144
 8230TIP3    H124654   6.967   5.900   3.150
 8230TIP3    H224655   6.835   5.825   3.147
 8231TIP3   OH224656   2.600   0.367   1.478
 8231TIP3    H124657   2.656   0.299   1.515
 8231TIP3    H224658   2.540   0.390   1.548
 8232TIP3   OH224659   6.112   2.222   1.139
 8232TIP3    H124660   6.165   2.295   1.107
 8232TIP3    H224661   6.125   2.152   1.074
 8233TIP3   OH224662   4.413   5.620   4.197
 8233TIP3    H124663   4.490   5.644   4.147
 8233TIP3    H224664   4.360   5.700   4.200
 8234TIP3   OH224665   6.763   3.019   4.983
 8234TIP3    H124666   6.706   2.943   4.992
 8234TIP3    H224667   6.702   3.092   4.970
 8235TIP3   OH224668   2.687   6.456   4.240
 8235TIP3    H124669   2.756   6.450   4.305
 8235TIP3    H224670   2.608   6.426   4.286
 8236TIP3   OH224671   1.278   3.296   4.949
 8236TIP3    H124672   1.291   3.389   4.932
 8236TIP3    H224673   1.184   3.282   4.940
 8237TIP3   OH224674   7.045   1.766   2.446
 8237TIP3    H124675   7.103   1.831   2.407
 8237TIP3    H224676   7.097   1.728   2.517
 8238TIP3   OH224677   5.231   3.242   0.653
 8238TIP3    H124678   5.303   3.305   0.663
 8238TIP3    H224679   5.267   3.159   0.685
 8239TIP3   OH224680   5.808   5.548   3.736
 8239TIP3    H124681   5.814   5.546   3.641
 8239TIP3    H224682   5.848   5.631   3.761
 8240TIP3   OH224683   4.505   3.872   4.402
 8240TIP3    H124684   4.555   3.947   4.434
 8240TIP3    H224685   4.506   3.809   4.474
 8241TIP3   OH224686   5.246   4.158   4.998
 8241TIP3    H124687   5.174   4.220   4.993
 8241TIP3    H224688   5.217   4.083   4.946
 8242TIP3   OH224689   4.732   6.703   2.476
 8242TIP3    H124690   4.785   6.763   2.423
 8242TIP3    H224691   4.687   6.759   2.538
 8243TIP3   OH224692   1.838   5.565   1.912
 8243TIP3    H124693   1.873   5.493   1.963
 8243TIP3    H224694   1.877   5.643   1.950
 8244TIP3   OH224695   0.486   3.900   1.358
 8244TIP3    H124696   0.485   3.960   1.284
 8244TIP3    H224697   0.534   3.823   1.326
 8245TIP3   OH224698   4.113   2.813   3.565
 8245TIP3    H124699   4.043   2.867   3.531
 8245TIP3    H224700   4.179   2.875   3.597
 8246TIP3   OH224701   1.113   5.336   1.874
 8246TIP3    H124702   1.035   5.347   1.820
 8246TIP3    H224703   1.105   5.249   1.912
 8247TIP3   OH224704   6.483   3.528   1.994
 8247TIP3    H124705   6.477   3.433   2.000
 8247TIP3    H224706   6.502   3.557   2.084
 8248TIP3   OH224707   3.597   3.427   1.052
 8248TIP3    H124708   3.688   3.414   1.027
 8248TIP3    H224709   3.601   3.480   1.131
 8249TIP3   OH224710   0.143   0.168   5.541
 8249TIP3    H124711   0.193   0.200   5.466
 8249TIP3    H224712   0.154   0.236   5.608
 8250TIP3   OH224713   2.982   2.502   2.409
 8250TIP3    H124714   2.981   2.457   2.494
 8250TIP3    H224715   2.890   2.521   2.391
 8251TIP3   OH224716   6.369   0.893   2.029
 8251TIP3    H124717   6.391   0.819   2.086
 8251TIP3    H224718   6.301   0.859   1.971
 8252TIP3   OH224719   0.053   4.015   2.020
 8252TIP3    H124720   0.037   4.058   1.936
 8252TIP3    H224721   0.088   4.084   2.076
 8253TIP3   OH224722   5.433   4.801   0.291
 8253TIP3    H124723   5.399   4.821   0.378
 8253TIP3    H224724   5.436   4.886   0.247
 8254TIP3   OH224725   0.587   2.634   4.836
 8254TIP3    H124726   0.594   2.686   4.917
 8254TIP3    H224727   0.616   2.694   4.768
 8255TIP3   OH224728   5.198   3.540   5.068
 8255TIP3    H124729   5.204   3.565   5.160
 8255TIP3    H224730   5.220   3.619   5.020
 8256TIP3   OH224731   0.786   1.044   1.351
 8256TIP3    H124732   0.811   1.059   1.442
 8256TIP3    H224733   0.693   1.023   1.355
 8257TIP3   OH224734   2.044   2.318   3.356
 8257TIP3    H124735   2.026   2.298   3.264
 8257TIP3    H224736   2.137   2.295   3.367
 8258TIP3   OH224737   4.705   1.019   2.190
 8258TIP3    H124738   4.754   1.011   2.271
 8258TIP3    H224739   4.755   0.969   2.126
 8259TIP3   OH224740   3.703   5.236   3.926
 8259TIP3    H124741   3.714   5.247   3.831
 8259TIP3    H224742   3.654   5.313   3.953
 8260TIP3   OH224743   1.160   0.500   0.748
 8260TIP3    H124744   1.178   0.593   0.738
 8260TIP3    H224745   1.148   0.468   0.658
 8261TIP3   OH224746   3.484   4.209   1.236
 8261TIP3    H124747   3.511   4.210   1.144
 8261TIP3    H224748   3.554   4.164   1.282
 8262TIP3   OH224749   5.438   1.438   0.597
 8262TIP3    H124750   5.363   1.440   0.657
 8262TIP3    H224751   5.405   1.479   0.517
 8263TIP3   OH224752   1.795   6.301   5.446
 8263TIP3    H124753   1.830   6.346   5.369
 8263TIP3    H224754   1.706   6.335   5.456
 8264TIP3   OH224755   1.466   4.020   3.560
 8264TIP3    H124756   1.436   4.082   3.493
 8264TIP3    H224757   1.388   3.971   3.585
 8265TIP3   OH224758   0.219   0.813   3.917
 8265TIP3    H124759   0.250   0.897   3.882
 8265TIP3    H224760   0.130   0.831   3.947
 8266TIP3   OH224761   2.441   0.117   0.869
 8266TIP3    H124762   2.406   0.202   0.897
 8266TIP3    H224763   2.522   0.107   0.919
 8267TIP3   OH224764   1.892   4.484   3.317
 8267TIP3    H124765   1.807   4.441   3.331
 8267TIP3    H224766   1.870   4.567   3.275
 8268TIP3   OH224767   2.232   2.393   1.826
 8268TIP3    H124768   2.201   2.376   1.915
 8268TIP3    H224769   2.302   2.457   1.836
 8269TIP3   OH224770   2.420   5.100   1.778
 8269TIP3    H124771   2.437   5.009   1.755
 8269TIP3    H224772   2.474   5.151   1.717
 8270TIP3   OH224773   5.002   0.940   4.410
 8270TIP3    H124774   4.973   0.909   4.324
 8270TIP3    H224775   5.043   1.024   4.392
 8271TIP3   OH224776   1.887   1.762   1.685
 8271TIP3    H124777   1.967   1.770   1.634
 8271TIP3    H224778   1.869   1.851   1.715
 8272TIP3   OH224779   2.240   2.439   4.676
 8272TIP3    H124780   2.321   2.486   4.698
 8272TIP3    H224781   2.253   2.411   4.585
 8273TIP3   OH224782   5.327   4.337   0.044
 8273TIP3    H124783   5.329   4.244   0.069
 8273TIP3    H224784   5.302   4.337  -0.048
 8274TIP3   OH224785   2.439   3.063   5.713
 8274TIP3    H124786   2.361   3.119   5.721
 8274TIP3    H224787   2.511   3.124   5.698
 8275TIP3   OH224788   6.157   4.215   0.670
 8275TIP3    H124789   6.203   4.262   0.601
 8275TIP3    H224790   6.113   4.143   0.625
 8276TIP3   OH224791   5.971   6.526   5.508
 8276TIP3    H124792   5.977   6.473   5.587
 8276TIP3    H224793   5.878   6.528   5.487
 8277TIP3   OH224794   2.267   1.894   0.002
 8277TIP3    H124795   2.305   1.828   0.059
 8277TIP3    H224796   2.206   1.845  -0.054
 8278TIP3   OH224797   0.234   5.077   2.414
 8278TIP3    H124798   0.175   5.150   2.433
 8278TIP3    H224799   0.319   5.119   2.400
 8279TIP3   OH224800   1.121   3.198   3.569
 8279TIP3    H124801   1.152   3.249   3.494
 8279TIP3    H224802   1.163   3.113   3.558
 8280TIP3   OH224803   6.616   1.586   0.927
 8280TIP3    H124804   6.538   1.641   0.942
 8280TIP3    H224805   6.626   1.584   0.832
 8281TIP3   OH224806   0.546   0.249   5.134
 8281TIP3    H124807   0.509   0.337   5.135
 8281TIP3    H224808   0.623   0.254   5.191
 8282TIP3   OH224809   0.222   1.524   5.163
 8282TIP3    H124810   0.301   1.559   5.122
 8282TIP3    H224811   0.204   1.584   5.236
 8283TIP3   OH224812   5.467   4.810   4.812
 8283TIP3    H124813   5.522   4.880   4.846
 8283TIP3    H224814   5.386   4.854   4.786
 8284TIP3   OH224815   1.146   1.476   0.771
 8284TIP3    H124816   1.078   1.444   0.830
 8284TIP3    H224817   1.131   1.570   0.766
 8285TIP3   OH224818   0.780   6.148   2.420
 8285TIP3    H124819   0.745   6.157   2.509
 8285TIP3    H224820   0.873   6.167   2.428
 8286TIP3   OH224821   6.083   5.735   4.340
 8286TIP3    H124822   6.097   5.640   4.344
 8286TIP3    H224823   5.990   5.746   4.363
 8287TIP3   OH224824   3.698   5.318   3.650
 8287TIP3    H124825   3.651   5.365   3.581
 8287TIP3    H224826   3.788   5.348   3.642
 8288TIP3   OH224827   4.171   0.608   2.134
 8288TIP3    H124828   4.222   0.536   2.171
 8288TIP3    H224829   4.122   0.643   2.209
 8289TIP3   OH224830   3.358   6.631   0.871
 8289TIP3    H124831   3.331   6.626   0.779
 8289TIP3    H224832   3.391   6.720   0.881
 8290TIP3   OH224833   1.041   2.338   5.516
 8290TIP3    H124834   1.112   2.330   5.579
 8290TIP3    H224835   1.080   2.311   5.433
 8291TIP3   OH224836   2.171   2.855   2.208
 8291TIP3    H124837   2.162   2.931   2.150
 8291TIP3    H224838   2.133   2.783   2.159
 8292TIP3   OH224839   3.027   1.098   4.035
 8292TIP3    H124840   3.077   1.016   4.028
 8292TIP3    H224841   3.036   1.138   3.948
 8293TIP3   OH224842   2.871   1.805   3.786
 8293TIP3    H124843   2.785   1.839   3.760
 8293TIP3    H224844   2.854   1.713   3.806
 8294TIP3   OH224845   5.774   6.722   3.610
 8294TIP3    H124846   5.752   6.701   3.519
 8294TIP3    H224847   5.868   6.742   3.608
 8295TIP3   OH224848   3.597   6.481   4.059
 8295TIP3    H124849   3.665   6.511   4.119
 8295TIP3    H224850   3.640   6.413   4.006
 8296TIP3   OH224851   6.495   3.795   5.620
 8296TIP3    H124852   6.417   3.763   5.573
 8296TIP3    H224853   6.465   3.875   5.663
 8297TIP3   OH224854   5.503   6.262   5.351
 8297TIP3    H124855   5.443   6.284   5.423
 8297TIP3    H224856   5.528   6.171   5.368
 8298TIP3   OH224857   1.036  -0.018   2.473
 8298TIP3    H124858   1.004   0.072   2.472
 8298TIP3    H224859   1.001  -0.055   2.555
 8299TIP3   OH224860   2.693   0.026   4.236
 8299TIP3    H124861   2.722   0.113   4.263
 8299TIP3    H224862   2.620   0.042   4.177
 8300TIP3   OH224863   4.108   4.460   4.178
 8300TIP3    H124864   4.159   4.411   4.114
 8300TIP3    H224865   4.033   4.404   4.198
 8301TIP3   OH224866   2.400   6.601   5.251
 8301TIP3    H124867   2.353   6.518   5.244
 8301TIP3    H224868   2.482   6.587   5.205
 8302TIP3   OH224869   2.355   5.115   1.361
 8302TIP3    H124870   2.321   5.030   1.389
 8302TIP3    H224871   2.294   5.144   1.294
 8303TIP3   OH224872   0.195   3.527   4.550
 8303TIP3    H124873   0.186   3.578   4.630
 8303TIP3    H224874   0.253   3.580   4.495
 8304TIP3   OH224875   1.166   2.924   5.697
 8304TIP3    H124876   1.252   2.922   5.738
 8304TIP3    H224877   1.179   2.884   5.611
 8305TIP3   OH224878   1.560   1.970   1.605
 8305TIP3    H124879   1.628   1.969   1.672
 8305TIP3    H224880   1.559   1.881   1.570
 8306TIP3   OH224881   4.957   3.393   5.216
 8306TIP3    H124882   4.979   3.481   5.186
 8306TIP3    H224883   5.025   3.372   5.280
 8307TIP3   OH224884   4.389   6.249   3.612
 8307TIP3    H124885   4.306   6.275   3.571
 8307TIP3    H224886   4.378   6.156   3.630
 8308TIP3   OH224887   3.567   3.670   5.149
 8308TIP3    H124888   3.557   3.579   5.177
 8308TIP3    H224889   3.582   3.719   5.230
 8309TIP3   OH224890   1.705   0.842   2.263
 8309TIP3    H124891   1.791   0.878   2.241
 8309TIP3    H224892   1.679   0.792   2.186
 8310TIP3   OH224893   1.783   1.005   4.011
 8310TIP3    H124894   1.833   1.004   4.092
 8310TIP3    H224895   1.795   0.918   3.973
 8311TIP3   OH224896   3.740   3.145   2.440
 8311TIP3    H124897   3.777   3.165   2.354
 8311TIP3    H224898   3.816   3.144   2.499
 8312TIP3   OH224899   2.987   3.913   1.958
 8312TIP3    H124900   3.024   3.968   1.889
 8312TIP3    H224901   3.037   3.832   1.953
 8313TIP3   OH224902   6.994   5.311   5.708
 8313TIP3    H124903   6.942   5.298   5.788
 8313TIP3    H224904   6.980   5.403   5.686
 8314TIP3   OH224905   7.126   6.663   4.734
 8314TIP3    H124906   7.182   6.609   4.790
 8314TIP3    H224907   7.037   6.639   4.759
 8315TIP3   OH224908   2.760   6.654   3.400
 8315TIP3    H124909   2.740   6.595   3.327
 8315TIP3    H224910   2.687   6.643   3.461
 8316TIP3   OH224911   5.347   1.164   0.637
 8316TIP3    H124912   5.344   1.185   0.731
 8316TIP3    H224913   5.353   1.250   0.594
 8317TIP3   OH224914   1.305   4.294   2.682
 8317TIP3    H124915   1.323   4.216   2.630
 8317TIP3    H224916   1.223   4.274   2.727
 8318TIP3   OH224917   4.197   6.679   2.747
 8318TIP3    H124918   4.282   6.650   2.778
 8318TIP3    H224919   4.148   6.598   2.733
 8319TIP3   OH224920   6.592   6.439   1.863
 8319TIP3    H124921   6.593   6.362   1.920
 8319TIP3    H224922   6.573   6.404   1.776
 8320TIP3   OH224923   6.974   1.284   3.167
 8320TIP3    H124924   6.888   1.323   3.151
 8320TIP3    H224925   6.996   1.310   3.256
 8321TIP3   OH224926   4.678   0.234   3.142
 8321TIP3    H124927   4.638   0.280   3.069
 8321TIP3    H224928   4.715   0.154   3.104
 8322TIP3   OH224929   1.854   5.831   2.022
 8322TIP3    H124930   1.763   5.837   2.050
 8322TIP3    H224931   1.901   5.895   2.076
 8323TIP3   OH224932   3.823   6.645   1.845
 8323TIP3    H124933   3.904   6.692   1.826
 8323TIP3    H224934   3.848   6.553   1.843
 8324TIP3   OH224935   4.314   5.460   5.772
 8324TIP3    H124936   4.292   5.551   5.791
 8324TIP3    H224937   4.297   5.413   5.854
 8325TIP3   OH224938   4.312   1.777   4.705
 8325TIP3    H124939   4.288   1.870   4.701
 8325TIP3    H224940   4.277   1.747   4.789
 8326TIP3   OH224941   5.630   3.392   0.289
 8326TIP3    H124942   5.554   3.443   0.260
 8326TIP3    H224943   5.706   3.445   0.262
 8327TIP3   OH224944   3.555   3.421   1.891
 8327TIP3    H124945   3.545   3.333   1.925
 8327TIP3    H224946   3.594   3.409   1.804
 8328TIP3   OH224947   5.871   6.130   2.849
 8328TIP3    H124948   5.778   6.131   2.869
 8328TIP3    H224949   5.913   6.103   2.931
 8329TIP3   OH224950   4.149   6.808   1.020
 8329TIP3    H124951   4.132   6.795   1.113
 8329TIP3    H224952   4.242   6.788   1.009
 8330TIP3   OH224953   1.369   3.457   4.263
 8330TIP3    H124954   1.275   3.449   4.283
 8330TIP3    H224955   1.373   3.527   4.198
 8331TIP3   OH224956   2.450   0.888   0.926
 8331TIP3    H124957   2.440   0.798   0.957
 8331TIP3    H224958   2.538   0.891   0.888
 8332TIP3   OH224959   1.473   5.001   3.770
 8332TIP3    H124960   1.464   5.010   3.865
 8332TIP3    H224961   1.465   4.907   3.754
 8333TIP3   OH224962   4.809   5.475   3.945
 8333TIP3    H124963   4.858   5.400   3.980
 8333TIP3    H224964   4.799   5.455   3.852
 8334TIP3   OH224965   1.571   3.854   1.633
 8334TIP3    H124966   1.477   3.841   1.616
 8334TIP3    H224967   1.594   3.785   1.695
 8335TIP3   OH224968   4.631   1.334   0.313
 8335TIP3    H124969   4.550   1.319   0.361
 8335TIP3    H224970   4.606   1.334   0.221
 8336TIP3   OH224971   6.961   0.040   2.693
 8336TIP3    H124972   6.896  -0.029   2.683
 8336TIP3    H224973   6.911   0.121   2.702
 8337TIP3   OH224974   5.619   1.008   2.608
 8337TIP3    H124975   5.559   1.048   2.672
 8337TIP3    H224976   5.693   0.978   2.660
 8338TIP3   OH224977   4.086   6.123   2.776
 8338TIP3    H124978   4.020   6.152   2.712
 8338TIP3    H224979   4.170   6.146   2.736
 8339TIP3   OH224980   3.369   3.531   4.628
 8339TIP3    H124981   3.399   3.497   4.712
 8339TIP3    H224982   3.448   3.537   4.575
 8340TIP3   OH224983   1.815   3.095   1.400
 8340TIP3    H124984   1.883   3.155   1.432
 8340TIP3    H224985   1.738   3.116   1.453
 8341TIP3   OH224986   4.866   3.239   4.466
 8341TIP3    H124987   4.941   3.291   4.438
 8341TIP3    H224988   4.874   3.158   4.415
 8342TIP3   OH224989   6.091   4.238   5.159
 8342TIP3    H124990   6.111   4.178   5.086
 8342TIP3    H224991   6.098   4.325   5.121
 8343TIP3   OH224992   5.048   5.522   0.118
 8343TIP3    H124993   4.960   5.554   0.133
 8343TIP3    H224994   5.041   5.427   0.129
 8344TIP3   OH224995   5.667   6.221   1.633
 8344TIP3    H124996   5.585   6.267   1.612
 8344TIP3    H224997   5.654   6.188   1.722
 8345TIP3   OH224998   4.530   0.739   0.450
 8345TIP3    H124999   4.616   0.781   0.450
 8345TIP3    H225000   4.545   0.655   0.408
 8346TIP3   OH225001   4.848   6.506   5.018
 8346TIP3    H125002   4.897   6.509   4.936
 8346TIP3    H225003   4.864   6.418   5.053
 8347TIP3   OH225004   7.081   4.936   0.313
 8347TIP3    H125005   7.093   4.879   0.237
 8347TIP3    H225006   7.110   5.022   0.283
 8348TIP3   OH225007   3.882   4.554   2.386
 8348TIP3    H125008   3.964   4.520   2.423
 8348TIP3    H225009   3.872   4.640   2.426
 8349TIP3   OH225010   0.914   1.889   4.730
 8349TIP3    H125011   0.857   1.898   4.806
 8349TIP3    H225012   0.865   1.931   4.658
 8350TIP3   OH225013   5.823   2.055   3.059
 8350TIP3    H125014   5.819   2.082   3.151
 8350TIP3    H225015   5.832   2.137   3.010
 8351TIP3   OH225016   4.105   1.502   1.837
 8351TIP3    H125017   4.176   1.492   1.900
 8351TIP3    H225018   4.149   1.505   1.752
 8352TIP3   OH225019   6.605   3.807   0.593
 8352TIP3    H125020   6.615   3.839   0.683
 8352TIP3    H225021   6.520   3.763   0.593
 8353TIP3   OH225022   3.614   3.553   2.136
 8353TIP3    H125023   3.707   3.572   2.147
 8353TIP3    H225024   3.602   3.546   2.041
 8354TIP3   OH225025   5.464   4.276   2.949
 8354TIP3    H125026   5.391   4.223   2.918
 8354TIP3    H225027   5.495   4.230   3.027
 8355TIP3   OH225028   1.140   1.802   3.408
 8355TIP3    H125029   1.079   1.795   3.482
 8355TIP3    H225030   1.093   1.761   3.335
 8356TIP3   OH225031   2.370   0.825   2.724
 8356TIP3    H125032   2.287   0.783   2.697
 8356TIP3    H225033   2.357   0.917   2.704
 8357TIP3   OH225034   4.153   6.425   3.625
 8357TIP3    H125035   4.114   6.492   3.568
 8357TIP3    H225036   4.086   6.357   3.632
 8358TIP3   OH225037   0.191   3.254   3.328
 8358TIP3    H125038   0.230   3.255   3.241
 8358TIP3    H225039   0.212   3.340   3.365
 8359TIP3   OH225040   1.908   6.106   1.973
 8359TIP3    H125041   1.951   6.074   2.052
 8359TIP3    H225042   1.969   6.171   1.937
 8360TIP3   OH225043   6.037   4.679   0.007
 8360TIP3    H125044   6.039   4.763   0.054
 8360TIP3    H225045   6.012   4.615   0.073
 8361TIP3   OH225046   5.652   0.650   0.181
 8361TIP3    H125047   5.600   0.607   0.249
 8361TIP3    H225048   5.733   0.599   0.177
 8362TIP3   OH225049   0.278   4.541   5.415
 8362TIP3    H125050   0.307   4.581   5.333
 8362TIP3    H225051   0.247   4.614   5.468
 8363TIP3   OH225052   3.883   5.474   1.758
 8363TIP3    H125053   3.927   5.390   1.743
 8363TIP3    H225054   3.954   5.538   1.760
 8364TIP3   OH225055   6.817   2.362   1.314
 8364TIP3    H125056   6.883   2.298   1.340
 8364TIP3    H225057   6.866   2.431   1.270
 8365TIP3   OH225058   4.762   1.412   2.143
 8365TIP3    H125059   4.757   1.502   2.175
 8365TIP3    H225060   4.672   1.379   2.146
 8366TIP3   OH225061   2.466   3.535   0.001
 8366TIP3    H125062   2.440   3.624  -0.022
 8366TIP3    H225063   2.383   3.490   0.022
 8367TIP3   OH225064   7.047   6.508   3.333
 8367TIP3    H125065   7.130   6.471   3.363
 8367TIP3    H225066   7.006   6.437   3.284
 8368TIP3   OH225067   1.888   0.783   3.640
 8368TIP3    H125068   1.854   0.791   3.729
 8368TIP3    H225069   1.946   0.706   3.644
 8369TIP3   OH225070   6.018   0.391   3.774
 8369TIP3    H125071   5.943   0.405   3.832
 8369TIP3    H225072   6.053   0.478   3.757
 8370TIP3   OH225073   1.895   6.188   2.926
 8370TIP3    H125074   1.911   6.278   2.952
 8370TIP3    H225075   1.890   6.139   3.008
 8371TIP3   OH225076   3.021   5.168   1.334
 8371TIP3    H125077   3.059   5.080   1.322
 8371TIP3    H225078   2.955   5.156   1.402
 8372TIP3   OH225079   3.293   4.591   3.317
 8372TIP3    H125080   3.234   4.607   3.390
 8372TIP3    H225081   3.286   4.670   3.263
 8373TIP3   OH225082   0.617   5.387   1.638
 8373TIP3    H125083   0.567   5.468   1.627
 8373TIP3    H225084   0.642   5.363   1.549
 8374TIP3   OH225085   3.088   4.789   3.354
 8374TIP3    H125086   3.052   4.715   3.305
 8374TIP3    H225087   3.015   4.850   3.363
 8375TIP3   OH225088   5.862   2.177   4.764
 8375TIP3    H125089   5.845   2.185   4.858
 8375TIP3    H225090   5.776   2.160   4.725
 8376TIP3   OH225091   2.117   2.608   2.116
 8376TIP3    H125092   2.039   2.602   2.062
 8376TIP3    H225093   2.095   2.561   2.196
 8377TIP3   OH225094   0.817   4.248   1.711
 8377TIP3    H125095   0.806   4.338   1.681
 8377TIP3    H225096   0.728   4.218   1.731
 8378TIP3   OH225097   6.091   6.530   4.273
 8378TIP3    H125098   6.062   6.605   4.326
 8378TIP3    H225099   6.038   6.534   4.194
 8379TIP3   OH225100   2.588   5.410   3.156
 8379TIP3    H125101   2.564   5.423   3.064
 8379TIP3    H225102   2.504   5.403   3.202
 8380TIP3   OH225103   4.035   6.525   3.218
 8380TIP3    H125104   4.084   6.551   3.140
 8380TIP3    H225105   3.954   6.487   3.184
 8381TIP3   OH225106   4.235   6.519   0.727
 8381TIP3    H125107   4.302   6.572   0.769
 8381TIP3    H225108   4.155   6.572   0.732
 8382TIP3   OH225109   1.598   0.082   4.335
 8382TIP3    H125110   1.639   0.066   4.421
 8382TIP3    H225111   1.669   0.066   4.272
 8383TIP3   OH225112   6.035   4.222   4.222
 8383TIP3    H125113   6.072   4.309   4.206
 8383TIP3    H225114   5.963   4.215   4.159
 8384TIP3   OH225115   3.776   4.824   1.081
 8384TIP3    H125116   3.724   4.752   1.045
 8384TIP3    H225117   3.749   4.900   1.030
 8385TIP3   OH225118   5.102   6.755   0.049
 8385TIP3    H125119   5.162   6.728   0.118
 8385TIP3    H225120   5.150   6.824   0.002
 8386TIP3   OH225121   3.522   3.794   3.752
 8386TIP3    H125122   3.474   3.716   3.725
 8386TIP3    H225123   3.455   3.852   3.787
 8387TIP3   OH225124   2.160   4.023   2.350
 8387TIP3    H125125   2.227   4.059   2.293
 8387TIP3    H225126   2.077   4.052   2.312
 8388TIP3   OH225127   5.545   2.658   0.888
 8388TIP3    H125128   5.475   2.661   0.953
 8388TIP3    H225129   5.500   2.644   0.805
 8389TIP3   OH225130   4.524   6.440   1.574
 8389TIP3    H125131   4.560   6.390   1.647
 8389TIP3    H225132   4.479   6.375   1.520
 8390TIP3   OH225133   3.469   3.160   1.527
 8390TIP3    H125134   3.386   3.129   1.562
 8390TIP3    H225135   3.448   3.242   1.483
 8391TIP3   OH225136   6.826   6.124   4.347
 8391TIP3    H125137   6.780   6.163   4.273
 8391TIP3    H225138   6.907   6.089   4.310
 8392TIP3   OH225139   2.108   1.580   5.538
 8392TIP3    H125140   2.175   1.594   5.471
 8392TIP3    H225141   2.040   1.530   5.493
 8393TIP3   OH225142   4.601   5.422   1.187
 8393TIP3    H125143   4.593   5.487   1.117
 8393TIP3    H225144   4.551   5.347   1.156
 8394TIP3   OH225145   2.288   5.991   5.426
 8394TIP3    H125146   2.348   6.027   5.362
 8394TIP3    H225147   2.210   6.046   5.420
 8395TIP3   OH225148   0.802   6.537   4.914
 8395TIP3    H125149   0.887   6.565   4.949
 8395TIP3    H225150   0.740   6.554   4.985
 8396TIP3   OH225151   0.891   2.687   3.397
 8396TIP3    H125152   0.958   2.750   3.370
 8396TIP3    H225153   0.877   2.633   3.319
 8397TIP3   OH225154   3.844   1.711   5.724
 8397TIP3    H125155   3.856   1.640   5.787
 8397TIP3    H225156   3.926   1.761   5.728
 8398TIP3   OH225157   3.662   3.423   3.892
 8398TIP3    H125158   3.627   3.439   3.980
 8398TIP3    H225159   3.587   3.436   3.834
 8399TIP3   OH225160   1.661   2.569   0.444
 8399TIP3    H125161   1.592   2.612   0.494
 8399TIP3    H225162   1.668   2.621   0.364
 8400TIP3   OH225163   6.068   4.089   2.750
 8400TIP3    H125164   6.059   4.018   2.813
 8400TIP3    H225165   6.163   4.101   2.741
 8401TIP3   OH225166   2.908   3.891   1.571
 8401TIP3    H125167   2.855   3.962   1.609
 8401TIP3    H225168   2.890   3.816   1.628
 8402TIP3   OH225169   3.813   3.769   2.532
 8402TIP3    H125170   3.892   3.768   2.478
 8402TIP3    H225171   3.844   3.794   2.620
 8403TIP3   OH225172   3.893   3.249   1.132
 8403TIP3    H125173   3.982   3.246   1.096
 8403TIP3    H225174   3.872   3.158   1.152
 8404TIP3   OH225175   7.055   0.722   1.054
 8404TIP3    H125176   7.072   0.665   1.129
 8404TIP3    H225177   7.070   0.666   0.978
 8405TIP3   OH225178   6.321   1.162   5.122
 8405TIP3    H125179   6.324   1.067   5.117
 8405TIP3    H225180   6.270   1.188   5.045
 8406TIP3   OH225181   1.874   0.747   5.051
 8406TIP3    H125182   1.820   0.781   4.979
 8406TIP3    H225183   1.911   0.825   5.091
 8407TIP3   OH225184   6.520   3.245   4.763
 8407TIP3    H125185   6.612   3.270   4.757
 8407TIP3    H225186   6.510   3.175   4.698
 8408TIP3   OH225187   6.544   1.327   4.800
 8408TIP3    H125188   6.533   1.422   4.810
 8408TIP3    H225189   6.595   1.300   4.876
 8409TIP3   OH225190   6.942   4.520   1.809
 8409TIP3    H125191   6.866   4.465   1.825
 8409TIP3    H225192   6.957   4.565   1.892
 8410TIP3   OH225193   0.203   3.081   1.984
 8410TIP3    H125194   0.252   3.104   2.063
 8410TIP3    H225195   0.165   3.164   1.955
 8411TIP3   OH225196   2.336   2.374   2.141
 8411TIP3    H125197   2.358   2.463   2.168
 8411TIP3    H225198   2.246   2.360   2.172
 8412TIP3   OH225199   6.698   2.135   3.211
 8412TIP3    H125200   6.672   2.043   3.219
 8412TIP3    H225201   6.619   2.180   3.182
 8413TIP3   OH225202   6.089   2.529   5.653
 8413TIP3    H125203   6.022   2.536   5.721
 8413TIP3    H225204   6.134   2.613   5.654
 8414TIP3   OH225205   3.348   1.149   0.538
 8414TIP3    H125206   3.308   1.106   0.463
 8414TIP3    H225207   3.421   1.198   0.501
 8415TIP3   OH225208   6.305   6.306   5.009
 8415TIP3    H125209   6.306   6.367   5.083
 8415TIP3    H225210   6.320   6.220   5.049
 8416TIP3   OH225211   0.592   1.006   4.584
 8416TIP3    H125212   0.517   1.026   4.640
 8416TIP3    H225213   0.567   1.037   4.497
 8417TIP3   OH225214   1.139   4.570   2.450
 8417TIP3    H125215   1.204   4.564   2.379
 8417TIP3    H225216   1.185   4.537   2.527
 8418TIP3   OH225217   1.912   2.656   0.837
 8418TIP3    H125218   1.941   2.577   0.793
 8418TIP3    H225219   1.817   2.657   0.824
 8419TIP3   OH225220   5.374   1.748   2.487
 8419TIP3    H125221   5.303   1.759   2.551
 8419TIP3    H225222   5.408   1.660   2.505
 8420TIP3   OH225223   4.693   2.990   2.257
 8420TIP3    H125224   4.708   2.921   2.322
 8420TIP3    H225225   4.776   2.995   2.209
 8421TIP3   OH225226   5.697   0.495   4.704
 8421TIP3    H125227   5.700   0.512   4.610
 8421TIP3    H225228   5.769   0.434   4.719
 8422TIP3   OH225229   1.817   5.528   1.514
 8422TIP3    H125230   1.895   5.483   1.483
 8422TIP3    H225231   1.747   5.465   1.504
 8423TIP3   OH225232   4.941   0.444   1.217
 8423TIP3    H125233   5.009   0.410   1.275
 8423TIP3    H225234   4.885   0.369   1.197
 8424TIP3   OH225235   3.503   4.000   3.486
 8424TIP3    H125236   3.502   4.031   3.577
 8424TIP3    H225237   3.522   4.078   3.434
 8425TIP3   OH225238   5.476   2.956   2.999
 8425TIP3    H125239   5.521   2.872   3.004
 8425TIP3    H225240   5.520   3.003   2.929
 8426TIP3   OH225241   7.035   5.419   1.074
 8426TIP3    H125242   6.994   5.383   1.153
 8426TIP3    H225243   7.030   5.348   1.010
 8427TIP3   OH225244   6.103   0.930   1.263
 8427TIP3    H125245   6.192   0.944   1.230
 8427TIP3    H225246   6.047   0.971   1.198
 8428TIP3   OH225247   0.746   6.198   5.064
 8428TIP3    H125248   0.674   6.136   5.076
 8428TIP3    H225249   0.777   6.183   4.975
 8429TIP3   OH225250   3.596   0.569   0.144
 8429TIP3    H125251   3.569   0.634   0.079
 8429TIP3    H225252   3.690   0.560   0.132
 8430TIP3   OH225253   6.692   0.798   2.024
 8430TIP3    H125254   6.676   0.730   1.958
 8430TIP3    H225255   6.677   0.754   2.107
 8431TIP3   OH225256   3.248   0.478   0.571
 8431TIP3    H125257   3.203   0.482   0.487
 8431TIP3    H225258   3.305   0.402   0.564
 8432TIP3   OH225259   6.845   3.711   3.832
 8432TIP3    H125260   6.932   3.673   3.820
 8432TIP3    H225261   6.803   3.653   3.895
 8433TIP3   OH225262   3.225   0.019   0.286
 8433TIP3    H125263   3.158   0.087   0.286
 8433TIP3    H225264   3.260   0.018   0.375
 8434TIP3   OH225265   6.070   1.700   4.610
 8434TIP3    H125266   6.112   1.752   4.678
 8434TIP3    H225267   6.075   1.754   4.532
 8435TIP3   OH225268   1.222   4.621   0.527
 8435TIP3    H125269   1.256   4.614   0.438
 8435TIP3    H225270   1.276   4.689   0.568
 8436TIP3   OH225271   3.307   6.029   3.654
 8436TIP3    H125272   3.262   5.992   3.578
 8436TIP3    H225273   3.237   6.048   3.716
 8437TIP3   OH225274   3.608   5.164   0.124
 8437TIP3    H125275   3.613   5.257   0.145
 8437TIP3    H225276   3.554   5.160   0.045
 8438TIP3   OH225277   5.544   6.237   4.716
 8438TIP3    H125278   5.559   6.317   4.664
 8438TIP3    H225279   5.450   6.235   4.731
 8439TIP3   OH225280   5.233   2.903   1.869
 8439TIP3    H125281   5.277   2.923   1.787
 8439TIP3    H225282   5.304   2.883   1.930
 8440TIP3   OH225283   7.074   4.569   0.662
 8440TIP3    H125284   7.093   4.628   0.589
 8440TIP3    H225285   7.158   4.528   0.683
 8441TIP3   OH225286   6.578   2.953   3.096
 8441TIP3    H125287   6.550   2.865   3.121
 8441TIP3    H225288   6.534   3.011   3.158
 8442TIP3   OH225289   3.210   3.200   3.190
 8442TIP3    H125290   3.182   3.137   3.257
 8442TIP3    H225291   3.265   3.262   3.238
 8443TIP3   OH225292   4.655   2.929   4.287
 8443TIP3    H125293   4.593   2.978   4.340
 8443TIP3    H225294   4.603   2.894   4.215
 8444TIP3   OH225295   0.276   0.322   1.104
 8444TIP3    H125296   0.366   0.295   1.117
 8444TIP3    H225297   0.269   0.406   1.149
 8445TIP3   OH225298   7.173   2.019   4.086
 8445TIP3    H125299   7.214   1.938   4.116
 8445TIP3    H225300   7.226   2.089   4.125
 8446TIP3   OH225301   4.949   5.866   5.873
 8446TIP3    H125302   4.931   5.848   5.781
 8446TIP3    H225303   5.039   5.899   5.875
 8447TIP3   OH225304   5.208   5.095   5.056
 8447TIP3    H125305   5.237   5.023   5.111
 8447TIP3    H225306   5.205   5.171   5.114
 8448TIP3   OH225307   5.405   2.134   5.893
 8448TIP3    H125308   5.318   2.143   5.854
 8448TIP3    H225309   5.442   2.056   5.852
 8449TIP3   OH225310   5.981   4.171   3.255
 8449TIP3    H125311   5.894   4.203   3.230
 8449TIP3    H225312   5.969   4.077   3.269
 8450TIP3   OH225313   3.731   1.781   4.445
 8450TIP3    H125314   3.789   1.772   4.521
 8450TIP3    H225315   3.657   1.832   4.477
 8451TIP3   OH225316   6.204   1.651   1.405
 8451TIP3    H125317   6.168   1.648   1.493
 8451TIP3    H225318   6.283   1.705   1.413
 8452TIP3   OH225319   1.443   4.565   3.440
 8452TIP3    H125320   1.469   4.655   3.459
 8452TIP3    H225321   1.510   4.511   3.482
 8453TIP3   OH225322   3.913   1.420   2.219
 8453TIP3    H125323   3.891   1.432   2.126
 8453TIP3    H225324   3.893   1.504   2.260
 8454TIP3   OH225325   3.038   2.338   5.784
 8454TIP3    H125326   3.076   2.372   5.704
 8454TIP3    H225327   3.066   2.399   5.852
 8455TIP3   OH225328   4.973   4.902   5.637
 8455TIP3    H125329   4.947   4.908   5.545
 8455TIP3    H225330   5.045   4.839   5.638
 8456TIP3   OH225331   4.125   0.128   5.058
 8456TIP3    H125332   4.107   0.217   5.028
 8456TIP3    H225333   4.048   0.103   5.108
 8457TIP3   OH225334   4.299   3.899   3.793
 8457TIP3    H125335   4.364   3.836   3.824
 8457TIP3    H225336   4.217   3.869   3.831
 8458TIP3   OH225337   5.272   3.817   2.097
 8458TIP3    H125338   5.197   3.761   2.078
 8458TIP3    H225339   5.262   3.841   2.189
 8459TIP3   OH225340   4.898   3.397   0.957
 8459TIP3    H125341   4.980   3.422   0.999
 8459TIP3    H225342   4.921   3.321   0.903
 8460TIP3   OH225343   4.302   1.145   5.081
 8460TIP3    H125344   4.339   1.065   5.117
 8460TIP3    H225345   4.317   1.212   5.148
 8461TIP3   OH225346   6.361   5.256   4.545
 8461TIP3    H125347   6.363   5.227   4.454
 8461TIP3    H225348   6.357   5.352   4.539
 8462TIP3   OH225349   6.566   2.376   0.626
 8462TIP3    H125350   6.480   2.369   0.668
 8462TIP3    H225351   6.549   2.359   0.533
 8463TIP3   OH225352   4.629   5.343   1.440
 8463TIP3    H125353   4.642   5.329   1.346
 8463TIP3    H225354   4.633   5.439   1.450
 8464TIP3   OH225355   6.915   3.098   0.060
 8464TIP3    H125356   7.004   3.080   0.092
 8464TIP3    H225357   6.883   3.013   0.030
 8465TIP3   OH225358   4.318   2.034   1.782
 8465TIP3    H125359   4.408   2.004   1.766
 8465TIP3    H225360   4.270   1.954   1.804
 8466TIP3   OH225361   6.743   4.202   0.250
 8466TIP3    H125362   6.723   4.112   0.277
 8466TIP3    H225363   6.657   4.244   0.242
 8467TIP3   OH225364   0.906   3.980   3.850
 8467TIP3    H125365   0.867   4.057   3.809
 8467TIP3    H225366   0.848   3.959   3.923
 8468TIP3   OH225367   1.514   6.562   0.639
 8468TIP3    H125368   1.592   6.516   0.669
 8468TIP3    H225369   1.491   6.621   0.711
 8469TIP3   OH225370   2.797   3.681   5.138
 8469TIP3    H125371   2.856   3.606   5.148
 8469TIP3    H225372   2.715   3.643   5.108
 8470TIP3   OH225373   3.433   4.733   1.155
 8470TIP3    H125374   3.445   4.796   1.226
 8470TIP3    H225375   3.370   4.669   1.189
 8471TIP3   OH225376   0.768   6.183   4.797
 8471TIP3    H125377   0.755   6.123   4.723
 8471TIP3    H225378   0.695   6.244   4.792
 8472TIP3   OH225379   3.166   0.137   2.455
 8472TIP3    H125380   3.089   0.083   2.443
 8472TIP3    H225381   3.196   0.117   2.544
 8473TIP3   OH225382   0.591   5.366   5.734
 8473TIP3    H125383   0.615   5.336   5.822
 8473TIP3    H225384   0.673   5.394   5.695
 8474TIP3   OH225385   5.931   6.381   1.661
 8474TIP3    H125386   5.928   6.351   1.752
 8474TIP3    H225387   5.853   6.344   1.621
 8475TIP3   OH225388   4.270   2.489   2.651
 8475TIP3    H125389   4.363   2.513   2.655
 8475TIP3    H225390   4.268   2.399   2.682
 8476TIP3   OH225391   0.430   2.777   0.550
 8476TIP3    H125392   0.480   2.829   0.486
 8476TIP3    H225393   0.351   2.829   0.566
 8477TIP3   OH225394   2.319   2.615   0.959
 8477TIP3    H125395   2.229   2.629   0.987
 8477TIP3    H225396   2.321   2.525   0.926
 8478TIP3   OH225397   1.072   6.383   0.069
 8478TIP3    H125398   1.101   6.334  -0.009
 8478TIP3    H225399   1.086   6.475   0.046
 8479TIP3   OH225400   3.639   2.895   5.102
 8479TIP3    H125401   3.574   2.825   5.108
 8479TIP3    H225402   3.657   2.920   5.193
 8480TIP3   OH225403   0.255   5.020   0.459
 8480TIP3    H125404   0.181   5.059   0.506
 8480TIP3    H225405   0.298   5.095   0.417
 8481TIP3   OH225406   4.606   4.395   3.603
 8481TIP3    H125407   4.699   4.384   3.586
 8481TIP3    H225408   4.566   4.399   3.516
 8482TIP3   OH225409   0.472   2.476   2.326
 8482TIP3    H125410   0.472   2.454   2.233
 8482TIP3    H225411   0.490   2.393   2.371
 8483TIP3   OH225412   2.313   0.477   3.252
 8483TIP3    H125413   2.241   0.528   3.288
 8483TIP3    H225414   2.271   0.407   3.202
 8484TIP3   OH225415   6.922   6.635   3.826
 8484TIP3    H125416   6.912   6.580   3.748
 8484TIP3    H225417   6.840   6.683   3.833
 8485TIP3   OH225418   0.804   4.084   1.144
 8485TIP3    H125419   0.799   4.134   1.063
 8485TIP3    H225420   0.722   4.101   1.189
 8486TIP3   OH225421   4.770   2.457   1.131
 8486TIP3    H125422   4.800   2.538   1.172
 8486TIP3    H225423   4.841   2.394   1.147
 8487TIP3   OH225424   3.734   0.410   1.150
 8487TIP3    H125425   3.748   0.504   1.145
 8487TIP3    H225426   3.639   0.401   1.157
 8488TIP3   OH225427   1.719   5.125   2.452
 8488TIP3    H125428   1.760   5.143   2.367
 8488TIP3    H225429   1.649   5.191   2.459
 8489TIP3   OH225430   3.370   0.234   2.281
 8489TIP3    H125431   3.443   0.277   2.326
 8489TIP3    H225432   3.303   0.224   2.348
 8490TIP3   OH225433   5.760   4.509   5.284
 8490TIP3    H125434   5.689   4.559   5.244
 8490TIP3    H225435   5.724   4.421   5.297
 8491TIP3   OH225436   4.273   1.886   2.459
 8491TIP3    H125437   4.353   1.938   2.453
 8491TIP3    H225438   4.262   1.870   2.552
 8492TIP3   OH225439   4.903   1.341   3.645
 8492TIP3    H125440   4.942   1.256   3.666
 8492TIP3    H225441   4.891   1.384   3.730
 8493TIP3   OH225442   0.547   2.871   0.308
 8493TIP3    H125443   0.634   2.832   0.312
 8493TIP3    H225444   0.503   2.823   0.238
 8494TIP3   OH225445   4.850   4.655   3.892
 8494TIP3    H125446   4.777   4.676   3.835
 8494TIP3    H225447   4.840   4.714   3.967
 8495TIP3   OH225448   6.948   1.701   4.622
 8495TIP3    H125449   6.995   1.697   4.706
 8495TIP3    H225450   6.959   1.613   4.585
 8496TIP3   OH225451   1.671   3.877   5.031
 8496TIP3    H125452   1.616   3.829   4.969
 8496TIP3    H225453   1.753   3.829   5.032
 8497TIP3   OH225454   6.169   0.683   2.459
 8497TIP3    H125455   6.113   0.607   2.445
 8497TIP3    H225456   6.210   0.699   2.374
 8498TIP3   OH225457   5.093   3.685   1.690
 8498TIP3    H125458   5.082   3.591   1.680
 8498TIP3    H225459   5.183   3.696   1.722
 8499TIP3   OH225460   4.381   5.793   0.364
 8499TIP3    H125461   4.405   5.766   0.275
 8499TIP3    H225462   4.339   5.878   0.353
 8500TIP3   OH225463   0.163   2.779   3.045
 8500TIP3    H125464   0.247   2.812   3.015
 8500TIP3    H225465   0.168   2.783   3.141
 8501TIP3   OH225466   1.159   3.731   4.428
 8501TIP3    H125467   1.087   3.767   4.375
 8501TIP3    H225468   1.115   3.681   4.497
 8502TIP3   OH225469   2.752   4.148   0.370
 8502TIP3    H125470   2.755   4.099   0.452
 8502TIP3    H225471   2.729   4.083   0.303
 8503TIP3   OH225472   3.693   5.677   2.021
 8503TIP3    H125473   3.737   5.746   1.971
 8503TIP3    H225474   3.644   5.627   1.955
 8504TIP3   OH225475   6.998   0.292   4.954
 8504TIP3    H125476   6.972   0.200   4.960
 8504TIP3    H225477   6.919   0.340   4.977
 8505TIP3   OH225478   6.967   2.896   5.248
 8505TIP3    H125479   7.037   2.945   5.205
 8505TIP3    H225480   7.009   2.816   5.278
 8506TIP3   OH225481   3.982   4.256   4.937
 8506TIP3    H125482   3.904   4.223   4.893
 8506TIP3    H225483   4.019   4.319   4.876
 8507TIP3   OH225484   3.669   2.116   1.199
 8507TIP3    H125485   3.579   2.149   1.191
 8507TIP3    H225486   3.724   2.187   1.167
 8508TIP3   OH225487   2.592   1.231   1.031
 8508TIP3    H125488   2.500   1.216   1.052
 8508TIP3    H225489   2.594   1.241   0.936
 8509TIP3   OH225490   0.940   0.315   5.705
 8509TIP3    H125491   0.911   0.406   5.699
 8509TIP3    H225492   0.979   0.307   5.792
 8510TIP3   OH225493   1.061   4.353   1.833
 8510TIP3    H125494   1.062   4.361   1.928
 8510TIP3    H225495   0.994   4.286   1.816
 8511TIP3   OH225496   1.012   0.393   2.194
 8511TIP3    H125497   0.942   0.327   2.200
 8511TIP3    H225498   1.059   0.384   2.277
 8512TIP3   OH225499   7.066   4.638   5.519
 8512TIP3    H125500   7.104   4.707   5.466
 8512TIP3    H225501   7.112   4.558   5.493
 8513TIP3   OH225502   2.152   6.161   5.098
 8513TIP3    H125503   2.071   6.165   5.046
 8513TIP3    H225504   2.218   6.132   5.035
 8514TIP3   OH225505   6.690   3.458   1.810
 8514TIP3    H125506   6.633   3.407   1.753
 8514TIP3    H225507   6.636   3.477   1.887
 8515TIP3   OH225508   4.853   2.753   0.946
 8515TIP3    H125509   4.778   2.708   0.907
 8515TIP3    H225510   4.815   2.806   1.016
 8516TIP3   OH225511   5.468   2.565   3.744
 8516TIP3    H125512   5.563   2.570   3.732
 8516TIP3    H225513   5.443   2.487   3.694
 8517TIP3   OH225514   6.773   5.960   1.679
 8517TIP3    H125515   6.774   6.044   1.633
 8517TIP3    H225516   6.860   5.953   1.719
 8518TIP3   OH225517   2.317   1.908   1.129
 8518TIP3    H125518   2.253   1.850   1.086
 8518TIP3    H225519   2.371   1.941   1.057
 8519TIP3   OH225520   3.455   6.567   4.667
 8519TIP3    H125521   3.438   6.654   4.704
 8519TIP3    H225522   3.530   6.534   4.717
 8520TIP3   OH225523   2.096   2.652   4.824
 8520TIP3    H125524   2.101   2.590   4.751
 8520TIP3    H225525   2.153   2.615   4.892
 8521TIP3   OH225526   6.487   4.911   2.212
 8521TIP3    H125527   6.477   4.978   2.280
 8521TIP3    H225528   6.455   4.831   2.253
 8522TIP3   OH225529   2.572   2.279   2.734
 8522TIP3    H125530   2.498   2.218   2.732
 8522TIP3    H225531   2.552   2.344   2.666
 8523TIP3   OH225532   0.765   3.129   3.655
 8523TIP3    H125533   0.785   3.097   3.567
 8523TIP3    H225534   0.838   3.099   3.709
 8524TIP3   OH225535   3.903   2.174   3.628
 8524TIP3    H125536   3.871   2.110   3.563
 8524TIP3    H225537   3.823   2.206   3.670
 8525TIP3   OH225538   1.525   1.559   3.306
 8525TIP3    H125539   1.472   1.497   3.256
 8525TIP3    H225540   1.468   1.588   3.377
 8526TIP3   OH225541   2.488   6.319   0.865
 8526TIP3    H125542   2.415   6.258   0.880
 8526TIP3    H225543   2.462   6.399   0.909
 8527TIP3   OH225544   1.618   6.697   3.924
 8527TIP3    H125545   1.599   6.689   4.018
 8527TIP3    H225546   1.535   6.678   3.881
 8528TIP3   OH225547   2.352   6.026   2.529
 8528TIP3    H125548   2.397   6.025   2.613
 8528TIP3    H225549   2.278   6.086   2.542
 8529TIP3   OH225550   7.000   6.222   3.278
 8529TIP3    H125551   7.064   6.237   3.208
 8529TIP3    H225552   6.973   6.130   3.267
 8530TIP3   OH225553   3.384   4.852   1.610
 8530TIP3    H125554   3.291   4.838   1.631
 8530TIP3    H225555   3.430   4.828   1.690
 8531TIP3   OH225556   5.331   6.441   3.861
 8531TIP3    H125557   5.306   6.364   3.810
 8531TIP3    H225558   5.254   6.498   3.859
 8532TIP3   OH225559   5.528   0.024   5.640
 8532TIP3    H125560   5.436   0.042   5.625
 8532TIP3    H225561   5.565   0.108   5.667
 8533TIP3   OH225562   4.398   2.667   5.318
 8533TIP3    H125563   4.441   2.584   5.338
 8533TIP3    H225564   4.386   2.709   5.403
 8534TIP3   OH225565   6.904   1.538   3.732
 8534TIP3    H125566   6.926   1.537   3.825
 8534TIP3    H225567   6.904   1.630   3.707
 8535TIP3   OH225568   1.220   3.885   2.976
 8535TIP3    H125569   1.250   3.968   3.013
 8535TIP3    H225570   1.169   3.845   3.046
 8536TIP3   OH225571   2.194   3.551   0.550
 8536TIP3    H125572   2.288   3.541   0.540
 8536TIP3    H225573   2.167   3.475   0.602
 8537TIP3   OH225574   7.023   3.344   4.077
 8537TIP3    H125575   6.934   3.367   4.100
 8537TIP3    H225576   7.027   3.354   3.982
 8538TIP3   OH225577   6.041   5.838   5.276
 8538TIP3    H125578   6.068   5.912   5.331
 8538TIP3    H225579   5.951   5.819   5.303
 8539TIP3   OH225580   3.302   3.936   3.837
 8539TIP3    H125581   3.282   3.986   3.916
 8539TIP3    H225582   3.218   3.904   3.807
 8540TIP3   OH225583   1.482   0.793   3.341
 8540TIP3    H125584   1.429   0.804   3.263
 8540TIP3    H225585   1.475   0.700   3.362
 8541TIP3   OH225586   4.478   0.506   4.586
 8541TIP3    H125587   4.524   0.460   4.516
 8541TIP3    H225588   4.476   0.444   4.659
 8542TIP3   OH225589   0.303   5.288   4.744
 8542TIP3    H125590   0.228   5.339   4.716
 8542TIP3    H225591   0.380   5.336   4.713
 8543TIP3   OH225592   4.371   0.523   3.927
 8543TIP3    H125593   4.341   0.432   3.934
 8543TIP3    H225594   4.442   0.530   3.990
 8544TIP3   OH225595   6.739   2.470   2.331
 8544TIP3    H125596   6.688   2.490   2.410
 8544TIP3    H225597   6.799   2.401   2.359
 8545TIP3   OH225598   1.976   1.462   1.867
 8545TIP3    H125599   2.046   1.406   1.835
 8545TIP3    H225600   1.914   1.466   1.795
 8546TIP3   OH225601   0.375   4.326   1.859
 8546TIP3    H125602   0.300   4.332   1.918
 8546TIP3    H225603   0.340   4.349   1.773
 8547TIP3   OH225604   6.143   6.678   3.337
 8547TIP3    H125605   6.102   6.739   3.276
 8547TIP3    H225606   6.236   6.685   3.320
 8548TIP3   OH225607   4.035   1.166   0.213
 8548TIP3    H125608   4.096   1.199   0.147
 8548TIP3    H225609   3.950   1.201   0.186
 8549TIP3   OH225610   1.697   3.539   0.892
 8549TIP3    H125611   1.720   3.578   0.976
 8549TIP3    H225612   1.776   3.547   0.839
 8550TIP3   OH225613   5.662   4.686   1.674
 8550TIP3    H125614   5.610   4.767   1.668
 8550TIP3    H225615   5.690   4.669   1.585
 8551TIP3   OH225616   2.870   4.600   2.020
 8551TIP3    H125617   2.798   4.650   2.058
 8551TIP3    H225618   2.939   4.664   2.005
 8552TIP3   OH225619   0.544   6.453   2.425
 8552TIP3    H125620   0.477   6.401   2.469
 8552TIP3    H225621   0.605   6.388   2.390
 8553TIP3   OH225622   0.407   5.155   3.258
 8553TIP3    H125623   0.321   5.195   3.248
 8553TIP3    H225624   0.437   5.183   3.344
 8554TIP3   OH225625   2.771   4.672   3.460
 8554TIP3    H125626   2.753   4.709   3.546
 8554TIP3    H225627   2.710   4.717   3.401
 8555TIP3   OH225628   4.041   4.995   4.262
 8555TIP3    H125629   4.040   5.083   4.300
 8555TIP3    H225630   3.979   4.999   4.189
 8556TIP3   OH225631   4.553   4.746   0.774
 8556TIP3    H125632   4.488   4.689   0.732
 8556TIP3    H225633   4.618   4.762   0.705
 8557TIP3   OH225634   3.048   0.230   0.303
 8557TIP3    H125635   3.069   0.323   0.300
 8557TIP3    H225636   3.017   0.215   0.392
 8558TIP3   OH225637   4.805   4.326   0.808
 8558TIP3    H125638   4.884   4.378   0.821
 8558TIP3    H225639   4.745   4.357   0.876
 8559TIP3   OH225640   2.522   0.745   3.055
 8559TIP3    H125641   2.506   0.762   2.962
 8559TIP3    H225642   2.443   0.699   3.084
 8560TIP3   OH225643   3.652   5.885   5.360
 8560TIP3    H125644   3.685   5.836   5.284
 8560TIP3    H225645   3.684   5.974   5.347
 8561TIP3   OH225646   3.735   6.794   4.004
 8561TIP3    H125647   3.795   6.770   4.075
 8561TIP3    H225648   3.758   6.735   3.933
 8562TIP3   OH225649   3.755   5.227   1.512
 8562TIP3    H125650   3.841   5.189   1.527
 8562TIP3    H225651   3.718   5.176   1.440
 8563TIP3   OH225652   5.090   4.784   0.180
 8563TIP3    H125653   5.154   4.853   0.160
 8563TIP3    H225654   5.103   4.765   0.273
 8564TIP3   OH225655   3.730   4.186   2.208
 8564TIP3    H125656   3.788   4.233   2.147
 8564TIP3    H225657   3.724   4.098   2.172
 8565TIP3   OH225658   2.283   5.616   5.052
 8565TIP3    H125659   2.219   5.629   5.121
 8565TIP3    H225660   2.334   5.539   5.080
 8566TIP3   OH225661   5.350   3.996   5.207
 8566TIP3    H125662   5.402   3.950   5.141
 8566TIP3    H225663   5.295   4.055   5.158
 8567TIP3   OH225664   6.118   1.052   0.671
 8567TIP3    H125665   6.098   1.118   0.737
 8567TIP3    H225666   6.043   1.055   0.611
 8568TIP3   OH225667   0.703   0.276   3.952
 8568TIP3    H125668   0.608   0.287   3.955
 8568TIP3    H225669   0.729   0.317   3.869
 8569TIP3   OH225670   4.842   2.315   3.592
 8569TIP3    H125671   4.823   2.380   3.659
 8569TIP3    H225672   4.898   2.251   3.635
 8570TIP3   OH225673   1.529   5.487   3.937
 8570TIP3    H125674   1.569   5.544   4.003
 8570TIP3    H225675   1.601   5.433   3.905
 8571TIP3   OH225676   5.958   1.543   5.250
 8571TIP3    H125677   5.979   1.596   5.173
 8571TIP3    H225678   5.993   1.456   5.230
 8572TIP3   OH225679   1.575   2.564   4.406
 8572TIP3    H125680   1.576   2.492   4.343
 8572TIP3    H225681   1.564   2.521   4.491
 8573TIP3   OH225682   1.389   2.971   0.568
 8573TIP3    H125683   1.331   2.946   0.496
 8573TIP3    H225684   1.448   2.896   0.579
 8574TIP3   OH225685   4.925   2.945   4.669
 8574TIP3    H125686   4.986   3.008   4.709
 8574TIP3    H225687   4.982   2.875   4.636
 8575TIP3   OH225688   4.060   0.942   5.020
 8575TIP3    H125689   3.971   0.979   5.018
 8575TIP3    H225690   4.117   1.018   5.029
 8576TIP3   OH225691   1.184   1.669   3.780
 8576TIP3    H125692   1.270   1.628   3.770
 8576TIP3    H225693   1.123   1.603   3.749
 8577TIP3   OH225694   4.591   2.310   1.274
 8577TIP3    H125695   4.629   2.344   1.355
 8577TIP3    H225696   4.647   2.345   1.205
 8578TIP3   OH225697   5.375   1.639   1.337
 8578TIP3    H125698   5.357   1.733   1.341
 8578TIP3    H225699   5.465   1.633   1.305
 8579TIP3   OH225700   1.522   2.759   0.719
 8579TIP3    H125701   1.546   2.682   0.769
 8579TIP3    H225702   1.531   2.832   0.781
 8580TIP3   OH225703   4.107   6.551   1.359
 8580TIP3    H125704   4.173   6.621   1.357
 8580TIP3    H225705   4.066   6.560   1.446
 8581TIP3   OH225706   3.039   6.347   4.284
 8581TIP3    H125707   3.125   6.324   4.250
 8581TIP3    H225708   3.009   6.269   4.330
 8582TIP3   OH225709   3.841   3.932   4.256
 8582TIP3    H125710   3.768   3.926   4.317
 8582TIP3    H225711   3.898   3.859   4.281
 8583TIP3   OH225712   4.692   0.653   5.665
 8583TIP3    H125713   4.702   0.669   5.759
 8583TIP3    H225714   4.613   0.599   5.658
 8584TIP3   OH225715   0.058   5.656   2.882
 8584TIP3    H125716   0.086   5.722   2.945
 8584TIP3    H225717   0.138   5.631   2.836
 8585TIP3   OH225718   6.183   5.752   3.019
 8585TIP3    H125719   6.264   5.778   3.063
 8585TIP3    H225720   6.170   5.819   2.952
 8586TIP3   OH225721   5.319   3.227   3.330
 8586TIP3    H125722   5.303   3.218   3.424
 8586TIP3    H225723   5.404   3.185   3.315
 8587TIP3   OH225724   4.399   2.961   2.816
 8587TIP3    H125725   4.340   2.909   2.869
 8587TIP3    H225726   4.478   2.908   2.808
 8588TIP3   OH225727   0.358   5.054   1.154
 8588TIP3    H125728   0.301   5.081   1.227
 8588TIP3    H225729   0.320   4.972   1.123
 8589TIP3   OH225730   7.066   6.375   5.578
 8589TIP3    H125731   7.034   6.298   5.531
 8589TIP3    H225732   7.160   6.376   5.562
 8590TIP3   OH225733   3.245   0.238   4.588
 8590TIP3    H125734   3.262   0.278   4.674
 8590TIP3    H225735   3.322   0.261   4.536
 8591TIP3   OH225736   6.652   0.352   4.316
 8591TIP3    H125737   6.562   0.321   4.310
 8591TIP3    H225738   6.662   0.379   4.408
 8592TIP3   OH225739   3.878   3.237   2.185
 8592TIP3    H125740   3.939   3.181   2.137
 8592TIP3    H225741   3.866   3.314   2.130
 8593TIP3   OH225742   6.335   6.065   3.523
 8593TIP3    H125743   6.419   6.105   3.501
 8593TIP3    H225744   6.324   6.083   3.616
 8594TIP3   OH225745   3.047   1.279   1.209
 8594TIP3    H125746   3.113   1.348   1.208
 8594TIP3    H225747   2.999   1.293   1.291
 8595TIP3   OH225748   2.479   4.514   2.262
 8595TIP3    H125749   2.480   4.456   2.338
 8595TIP3    H225750   2.491   4.456   2.187
 8596TIP3   OH225751   5.596   3.923   1.281
 8596TIP3    H125752   5.562   4.007   1.250
 8596TIP3    H225753   5.690   3.936   1.286
 8597TIP3   OH225754   0.342   5.854   1.701
 8597TIP3    H125755   0.269   5.810   1.658
 8597TIP3    H225756   0.346   5.940   1.659
 8598TIP3   OH225757   5.593   4.791   2.523
 8598TIP3    H125758   5.583   4.854   2.594
 8598TIP3    H225759   5.685   4.799   2.496
 8599TIP3   OH225760   6.146   4.964   3.579
 8599TIP3    H125761   6.179   5.053   3.590
 8599TIP3    H225762   6.212   4.908   3.620
 8600TIP3   OH225763   4.892   1.141   5.480
 8600TIP3    H125764   4.866   1.071   5.539
 8600TIP3    H225765   4.827   1.209   5.494
 8601TIP3   OH225766   2.431   0.139   1.472
 8601TIP3    H125767   2.451   0.111   1.383
 8601TIP3    H225768   2.516   0.142   1.516
 8602TIP3   OH225769   6.731   5.538   1.172
 8602TIP3    H125770   6.778   5.586   1.241
 8602TIP3    H225771   6.791   5.539   1.098
 8603TIP3   OH225772   1.748   6.731   2.148
 8603TIP3    H125773   1.773   6.821   2.126
 8603TIP3    H225774   1.824   6.678   2.122
 8604TIP3   OH225775   1.912   2.386   4.425
 8604TIP3    H125776   1.944   2.393   4.515
 8604TIP3    H225777   1.883   2.296   4.416
 8605TIP3   OH225778   6.541   0.124   2.594
 8605TIP3    H125779   6.635   0.144   2.599
 8605TIP3    H225780   6.530   0.046   2.649
 8606TIP3   OH225781   3.178   5.885   3.468
 8606TIP3    H125782   3.172   5.901   3.373
 8606TIP3    H225783   3.091   5.853   3.492
 8607TIP3   OH225784   0.399   4.250   0.968
 8607TIP3    H125785   0.394   4.209   0.882
 8607TIP3    H225786   0.443   4.334   0.953
 8608TIP3   OH225787   3.308   4.275   2.789
 8608TIP3    H125788   3.342   4.348   2.841
 8608TIP3    H225789   3.379   4.254   2.728
 8609TIP3   OH225790   1.653   1.429   4.419
 8609TIP3    H125791   1.628   1.464   4.504
 8609TIP3    H225792   1.630   1.499   4.357
 8610TIP3   OH225793   6.627   0.663   5.109
 8610TIP3    H125794   6.550   0.720   5.104
 8610TIP3    H225795   6.685   0.706   5.171
 8611TIP3   OH225796   4.869   0.994   3.766
 8611TIP3    H125797   4.963   0.982   3.782
 8611TIP3    H225798   4.844   0.916   3.716
 8612TIP3   OH225799   4.512   1.887   1.392
 8612TIP3    H125800   4.480   1.926   1.310
 8612TIP3    H225801   4.533   1.797   1.369
 8613TIP3   OH225802   4.499   5.901   0.872
 8613TIP3    H125803   4.516   5.975   0.930
 8613TIP3    H225804   4.405   5.887   0.878
 8614TIP3   OH225805   5.792   2.312   2.916
 8614TIP3    H125806   5.741   2.341   2.841
 8614TIP3    H225807   5.743   2.344   2.992
 8615TIP3   OH225808   5.493   0.795   0.495
 8615TIP3    H125809   5.474   0.706   0.467
 8615TIP3    H225810   5.450   0.803   0.581
 8616TIP3   OH225811   1.152   0.384   0.500
 8616TIP3    H125812   1.196   0.469   0.502
 8616TIP3    H225813   1.139   0.366   0.407
 8617TIP3   OH225814   7.174   2.124   4.951
 8617TIP3    H125815   7.196   2.214   4.975
 8617TIP3    H225816   7.116   2.094   5.021
 8618TIP3   OH225817   1.626   5.842   2.163
 8618TIP3    H125818   1.572   5.906   2.210
 8618TIP3    H225819   1.562   5.788   2.116
 8619TIP3   OH225820   4.233   0.558   0.057
 8619TIP3    H125821   4.153   0.530   0.012
 8619TIP3    H225822   4.205   0.577   0.146
 8620TIP3   OH225823   5.616   1.041   4.348
 8620TIP3    H125824   5.536   1.030   4.398
 8620TIP3    H225825   5.606   1.126   4.305
 8621TIP3   OH225826   3.395   3.178   2.732
 8621TIP3    H125827   3.442   3.246   2.779
 8621TIP3    H225828   3.363   3.119   2.800
 8622TIP3   OH225829   6.097   2.329   4.693
 8622TIP3    H125830   6.016   2.287   4.722
 8622TIP3    H225831   6.108   2.301   4.602
 8623TIP3   OH225832   1.826   5.641   4.669
 8623TIP3    H125833   1.758   5.703   4.695
 8623TIP3    H225834   1.827   5.645   4.574
 8624TIP3   OH225835   0.789   0.384   3.269
 8624TIP3    H125836   0.694   0.395   3.264
 8624TIP3    H225837   0.821   0.465   3.307
 8625TIP3   OH225838   1.735   2.820   5.486
 8625TIP3    H125839   1.764   2.772   5.409
 8625TIP3    H225840   1.815   2.834   5.538
 8626TIP3   OH225841   0.131   3.791   1.230
 8626TIP3    H125842   0.037   3.784   1.217
 8626TIP3    H225843   0.141   3.867   1.287
 8627TIP3   OH225844   0.930   4.744   5.462
 8627TIP3    H125845   0.845   4.717   5.428
 8627TIP3    H225846   0.954   4.819   5.407
 8628TIP3   OH225847   5.823   1.370   2.077
 8628TIP3    H125848   5.828   1.301   2.143
 8628TIP3    H225849   5.898   1.355   2.020
 8629TIP3   OH225850   1.130   3.462   3.392
 8629TIP3    H125851   1.152   3.451   3.300
 8629TIP3    H225852   1.054   3.521   3.392
 8630TIP3   OH225853   5.131   4.138   3.787
 8630TIP3    H125854   5.048   4.176   3.759
 8630TIP3    H225855   5.169   4.204   3.845
 8631TIP3   OH225856   6.388   5.452   0.949
 8631TIP3    H125857   6.387   5.501   0.867
 8631TIP3    H225858   6.295   5.442   0.971
 8632TIP3   OH225859   2.796   4.895   3.059
 8632TIP3    H125860   2.883   4.856   3.051
 8632TIP3    H225861   2.806   4.982   3.020
 8633TIP3   OH225862   3.082   2.169   4.214
 8633TIP3    H125863   3.132   2.137   4.289
 8633TIP3    H225864   3.148   2.199   4.151
 8634TIP3   OH225865   4.161   4.246   4.004
 8634TIP3    H125866   4.087   4.189   4.026
 8634TIP3    H225867   4.201   4.205   3.928
 8635TIP3   OH225868   0.912   5.150   2.064
 8635TIP3    H125869   0.944   5.093   2.135
 8635TIP3    H225870   0.881   5.228   2.109
 8636TIP3   OH225871   0.812   3.319   4.032
 8636TIP3    H125872   0.836   3.411   4.025
 8636TIP3    H225873   0.732   3.319   4.084
 8637TIP3   OH225874   1.362   3.297   1.907
 8637TIP3    H125875   1.420   3.313   1.981
 8637TIP3    H225876   1.287   3.354   1.924
 8638TIP3   OH225877   6.050   0.903   2.254
 8638TIP3    H125878   5.965   0.877   2.289
 8638TIP3    H225879   6.107   0.907   2.330
 8639TIP3   OH225880   1.094   0.579   2.740
 8639TIP3    H125881   1.148   0.500   2.735
 8639TIP3    H225882   1.147   0.640   2.792
 8640TIP3   OH225883   6.126   4.043   4.960
 8640TIP3    H125884   6.069   4.044   4.882
 8640TIP3    H225885   6.175   3.961   4.952
 8641TIP3   OH225886   6.170   2.317   5.490
 8641TIP3    H125887   6.236   2.337   5.424
 8641TIP3    H225888   6.161   2.397   5.541
 8642TIP3   OH225889   3.024   0.503   0.723
 8642TIP3    H125890   3.097   0.486   0.663
 8642TIP3    H225891   2.991   0.416   0.745
 8643TIP3   OH225892   4.198   0.698   3.712
 8643TIP3    H125893   4.263   0.650   3.763
 8643TIP3    H225894   4.160   0.633   3.653
 8644TIP3   OH225895   2.167   2.344   4.098
 8644TIP3    H125896   2.238   2.337   4.162
 8644TIP3    H225897   2.186   2.424   4.050
 8645TIP3   OH225898   4.683   0.680   3.764
 8645TIP3    H125899   4.600   0.727   3.775
 8645TIP3    H225900   4.729   0.727   3.695
 8646TIP3   OH225901   6.547   5.100   0.611
 8646TIP3    H125902   6.465   5.057   0.586
 8646TIP3    H225903   6.529   5.139   0.697
 8647TIP3   OH225904   4.822   3.839   0.735
 8647TIP3    H125905   4.901   3.786   0.725
 8647TIP3    H225906   4.751   3.784   0.702
 8648TIP3   OH225907   4.074   4.524   0.631
 8648TIP3    H125908   3.992   4.505   0.586
 8648TIP3    H225909   4.048   4.544   0.721
 8649TIP3   OH225910   6.688   3.549   1.452
 8649TIP3    H125911   6.601   3.569   1.488
 8649TIP3    H225912   6.731   3.634   1.446
 8650TIP3   OH225913   5.263   0.029   0.656
 8650TIP3    H125914   5.186   0.019   0.599
 8650TIP3    H225915   5.263  -0.051   0.709
 8651TIP3   OH225916   4.567   4.847   4.337
 8651TIP3    H125917   4.478   4.880   4.340
 8651TIP3    H225918   4.569   4.776   4.401
 8652TIP3   OH225919   5.781   1.613   3.345
 8652TIP3    H125920   5.697   1.660   3.351
 8652TIP3    H225921   5.819   1.622   3.432
 8653TIP3   OH225922   1.322   4.556   0.278
 8653TIP3    H125923   1.277   4.474   0.299
 8653TIP3    H225924   1.269   4.594   0.207
 8654TIP3   OH225925   1.313   3.124   3.043
 8654TIP3    H125926   1.315   3.031   3.020
 8654TIP3    H225927   1.238   3.159   2.994
 8655TIP3   OH225928   1.660   3.568   4.630
 8655TIP3    H125929   1.677   3.476   4.650
 8655TIP3    H225930   1.738   3.596   4.581
 8656TIP3   OH225931   1.638   2.061   5.903
 8656TIP3    H125932   1.606   1.979   5.866
 8656TIP3    H225933   1.718   2.036   5.949
 8657TIP3   OH225934   6.603   5.592   4.580
 8657TIP3    H125935   6.587   5.628   4.493
 8657TIP3    H225936   6.517   5.561   4.609
 8658TIP3   OH225937   2.731   3.414   0.430
 8658TIP3    H125938   2.726   3.410   0.526
 8658TIP3    H225939   2.773   3.497   0.412
 8659TIP3   OH225940   6.285   0.118   2.804
 8659TIP3    H125941   6.308   0.025   2.810
 8659TIP3    H225942   6.367   0.161   2.780
 8660TIP3   OH225943   2.815   5.359   4.189
 8660TIP3    H125944   2.886   5.369   4.125
 8660TIP3    H225945   2.735   5.362   4.136
 8661TIP3   OH225946   5.506   1.342   2.963
 8661TIP3    H125947   5.495   1.273   3.029
 8661TIP3    H225948   5.515   1.422   3.014
 8662TIP3   OH225949   1.866   3.952   2.525
 8662TIP3    H125950   1.772   3.939   2.519
 8662TIP3    H225951   1.876   4.042   2.558
 8663TIP3   OH225952   5.833   0.691   1.836
 8663TIP3    H125953   5.830   0.702   1.931
 8663TIP3    H225954   5.773   0.757   1.802
 8664TIP3   OH225955   6.678   0.200   0.099
 8664TIP3    H125956   6.773   0.217   0.105
 8664TIP3    H225957   6.663   0.178   0.008
 8665TIP3   OH225958   4.859   1.690   0.212
 8665TIP3    H125959   4.873   1.655   0.124
 8665TIP3    H225960   4.783   1.747   0.203
 8666TIP3   OH225961   5.956   1.792   0.806
 8666TIP3    H125962   6.041   1.759   0.779
 8666TIP3    H225963   5.923   1.839   0.729
 8667TIP3   OH225964   5.148   1.509   3.603
 8667TIP3    H125965   5.224   1.490   3.657
 8667TIP3    H225966   5.090   1.434   3.616
 8668TIP3   OH225967   5.374   2.317   0.874
 8668TIP3    H125968   5.294   2.352   0.836
 8668TIP3    H225969   5.345   2.271   0.953
 8669TIP3   OH225970   5.208   5.704   4.351
 8669TIP3    H125971   5.300   5.681   4.343
 8669TIP3    H225972   5.165   5.624   4.382
 8670TIP3   OH225973   2.217   4.747   4.678
 8670TIP3    H125974   2.212   4.652   4.670
 8670TIP3    H225975   2.251   4.777   4.594
 8671TIP3   OH225976   6.292   3.829   3.243
 8671TIP3    H125977   6.305   3.845   3.336
 8671TIP3    H225978   6.366   3.774   3.217
 8672TIP3   OH225979   4.167   4.224   0.682
 8672TIP3    H125980   4.093   4.252   0.736
 8672TIP3    H225981   4.142   4.246   0.593
 8673TIP3   OH225982   6.739   5.274   3.523
 8673TIP3    H125983   6.672   5.222   3.478
 8673TIP3    H225984   6.695   5.356   3.545
 8674TIP3   OH225985   5.240   2.299   1.595
 8674TIP3    H125986   5.145   2.296   1.606
 8674TIP3    H225987   5.265   2.383   1.634
 8675TIP3   OH225988   1.606   1.944   4.270
 8675TIP3    H125989   1.642   1.907   4.351
 8675TIP3    H225990   1.613   1.873   4.206
 8676TIP3   OH225991   0.139   0.805   0.223
 8676TIP3    H125992   0.097   0.892   0.226
 8676TIP3    H225993   0.093   0.754   0.289
 8677TIP3   OH225994   5.337   6.695   0.870
 8677TIP3    H125995   5.356   6.786   0.848
 8677TIP3    H225996   5.341   6.649   0.786
 8678TIP3   OH225997   4.838   0.424   2.863
 8678TIP3    H125998   4.791   0.486   2.807
 8678TIP3    H225999   4.920   0.469   2.883
 8679TIP3   OH226000   5.746   1.164   4.795
 8679TIP3    H126001   5.664   1.120   4.773
 8679TIP3    H226002   5.813   1.114   4.748
 8680TIP3   OH226003   4.742   1.570   0.682
 8680TIP3    H126004   4.687   1.494   0.703
 8680TIP3    H226005   4.763   1.560   0.590
 8681TIP3   OH226006   5.111   3.567   2.023
 8681TIP3    H126007   5.030   3.518   2.010
 8681TIP3    H226008   5.179   3.499   2.029
 8682TIP3   OH226009   0.553   4.367   2.457
 8682TIP3    H126010   0.628   4.420   2.486
 8682TIP3    H226011   0.491   4.374   2.529
 8683TIP3   OH226012   2.543   5.930   0.688
 8683TIP3    H126013   2.524   5.837   0.674
 8683TIP3    H226014   2.531   5.970   0.603
 8684TIP3   OH226015   2.638   3.604   1.569
 8684TIP3    H126016   2.548   3.633   1.554
 8684TIP3    H226017   2.630   3.523   1.619
 8685TIP3   OH226018   6.624   3.909   3.400
 8685TIP3    H126019   6.604   3.986   3.348
 8685TIP3    H226020   6.663   3.943   3.480
 8686TIP3   OH226021   4.890   0.349   3.346
 8686TIP3    H126022   4.862   0.280   3.286
 8686TIP3    H226023   4.811   0.371   3.395
 8687TIP3   OH226024   4.766   3.346   0.687
 8687TIP3    H126025   4.854   3.337   0.724
 8687TIP3    H226026   4.772   3.422   0.629
 8688TIP3   OH226027   2.840   0.563   4.783
 8688TIP3    H126028   2.886   0.579   4.866
 8688TIP3    H226029   2.766   0.623   4.784
 8689TIP3   OH226030   0.612   4.193   5.890
 8689TIP3    H126031   0.591   4.234   5.806
 8689TIP3    H226032   0.534   4.143   5.914
 8690TIP3   OH226033   6.927   6.285   3.580
 8690TIP3    H126034   6.945   6.265   3.488
 8690TIP3    H226035   6.973   6.367   3.596
 8691TIP3   OH226036   2.520   2.917   1.694
 8691TIP3    H126037   2.465   2.898   1.770
 8691TIP3    H226038   2.499   2.848   1.631
 8692TIP3   OH226039   5.538   3.315   2.935
 8692TIP3    H126040   5.601   3.246   2.955
 8692TIP3    H226041   5.537   3.369   3.015
 8693TIP3   OH226042   2.541   5.324   2.474
 8693TIP3    H126043   2.480   5.251   2.488
 8693TIP3    H226044   2.533   5.344   2.381
 8694TIP3   OH226045   6.145   4.780   5.749
 8694TIP3    H126046   6.120   4.793   5.841
 8694TIP3    H226047   6.095   4.846   5.701
 8695TIP3   OH226048   6.601   2.235   1.224
 8695TIP3    H126049   6.681   2.273   1.261
 8695TIP3    H226050   6.536   2.242   1.293
 8696TIP3   OH226051   5.983   0.648   1.179
 8696TIP3    H126052   5.995   0.671   1.087
 8696TIP3    H226053   6.048   0.700   1.226
 8697TIP3   OH226054   7.169   0.403   3.001
 8697TIP3    H126055   7.232   0.333   2.985
 8697TIP3    H226056   7.094   0.360   3.042
 8698TIP3   OH226057   1.120   2.661   2.163
 8698TIP3    H126058   1.121   2.567   2.142
 8698TIP3    H226059   1.200   2.695   2.123
 8699TIP3   OH226060   0.033   4.168   3.607
 8699TIP3    H126061   0.107   4.185   3.666
 8699TIP3    H226062  -0.013   4.252   3.602
 8700TIP3   OH226063   3.543   5.925   2.169
 8700TIP3    H126064   3.537   5.858   2.100
 8700TIP3    H226065   3.545   6.008   2.121
 8701TIP3   OH226066   4.961   0.242   5.887
 8701TIP3    H126067   4.921   0.192   5.816
 8701TIP3    H226068   4.928   0.332   5.875
 8702TIP3   OH226069   2.989   1.486   5.833
 8702TIP3    H126070   2.987   1.391   5.822
 8702TIP3    H226071   2.963   1.521   5.748
 8703TIP3   OH226072   2.967   6.679   1.706
 8703TIP3    H126073   2.957   6.745   1.637
 8703TIP3    H226074   2.920   6.603   1.672
 8704TIP3   OH226075   4.634   6.195   2.969
 8704TIP3    H126076   4.601   6.280   2.997
 8704TIP3    H226077   4.719   6.213   2.931
 8705TIP3   OH226078   1.006   2.879   2.917
 8705TIP3    H126079   0.986   2.948   2.854
 8705TIP3    H226080   0.924   2.829   2.925
 8706TIP3   OH226081   0.086   3.341   2.000
 8706TIP3    H126082   0.167   3.388   2.017
 8706TIP3    H226083   0.057   3.373   1.914
 8707TIP3   OH226084   0.734   0.007   0.151
 8707TIP3    H126085   0.703   0.022   0.061
 8707TIP3    H226086   0.781   0.087   0.174
 8708TIP3   OH226087   6.612   5.764   0.940
 8708TIP3    H126088   6.695   5.744   0.983
 8708TIP3    H226089   6.597   5.691   0.880
 8709TIP3   OH226090   3.239   5.137   4.041
 8709TIP3    H126091   3.287   5.064   4.080
 8709TIP3    H226092   3.252   5.126   3.946
 8710TIP3   OH226093   1.990   5.913   2.458
 8710TIP3    H126094   2.022   5.825   2.478
 8710TIP3    H226095   1.929   5.934   2.530
 8711TIP3   OH226096   0.225   4.713   3.504
 8711TIP3    H126097   0.315   4.698   3.476
 8711TIP3    H226098   0.171   4.677   3.433
 8712TIP3   OH226099   2.329   3.826   0.856
 8712TIP3    H126100   2.410   3.816   0.905
 8712TIP3    H226101   2.356   3.859   0.770
 8713TIP3   OH226102   6.222   5.299   5.408
 8713TIP3    H126103   6.255   5.218   5.446
 8713TIP3    H226104   6.293   5.329   5.351
 8714TIP3   OH226105   1.044   3.692   1.824
 8714TIP3    H126106   1.016   3.742   1.748
 8714TIP3    H226107   0.962   3.670   1.869
 8715TIP3   OH226108   6.843   3.927   4.638
 8715TIP3    H126109   6.830   3.961   4.549
 8715TIP3    H226110   6.818   4.000   4.695
 8716TIP3   OH226111   3.293   3.003   3.746
 8716TIP3    H126112   3.327   2.954   3.821
 8716TIP3    H226113   3.229   2.945   3.706
 8717TIP3   OH226114   3.215   0.893   4.008
 8717TIP3    H126115   3.248   0.811   4.045
 8717TIP3    H226116   3.293   0.942   3.984
 8718TIP3   OH226117   6.187   0.694   1.908
 8718TIP3    H126118   6.200   0.605   1.942
 8718TIP3    H226119   6.181   0.683   1.814
 8719TIP3   OH226120   4.407   2.256   1.642
 8719TIP3    H126121   4.360   2.256   1.558
 8719TIP3    H226122   4.381   2.174   1.684
 8720TIP3   OH226123   6.372   0.453   1.845
 8720TIP3    H126124   6.329   0.444   1.760
 8720TIP3    H226125   6.305   0.424   1.908
 8721TIP3   OH226126   3.870   2.682   5.705
 8721TIP3    H126127   3.918   2.600   5.719
 8721TIP3    H226128   3.831   2.702   5.790
 8722TIP3   OH226129   3.383   0.258   3.340
 8722TIP3    H126130   3.312   0.318   3.365
 8722TIP3    H226131   3.435   0.249   3.420
 8723TIP3   OH226132   4.095   5.164   2.419
 8723TIP3    H126133   4.017   5.216   2.403
 8723TIP3    H226134   4.094   5.097   2.351
 8724TIP3   OH226135   2.204   3.811   3.893
 8724TIP3    H126136   2.121   3.767   3.872
 8724TIP3    H226137   2.256   3.803   3.813
 8725TIP3   OH226138   0.563   1.596   5.780
 8725TIP3    H126139   0.545   1.600   5.874
 8725TIP3    H226140   0.493   1.540   5.745
 8726TIP3   OH226141   0.831   5.929   5.651
 8726TIP3    H126142   0.788   5.846   5.670
 8726TIP3    H226143   0.914   5.925   5.699
 8727TIP3   OH226144   2.706   6.285   1.615
 8727TIP3    H126145   2.741   6.341   1.546
 8727TIP3    H226146   2.704   6.341   1.693
 8728TIP3   OH226147   6.489   5.381   3.875
 8728TIP3    H126148   6.499   5.357   3.967
 8728TIP3    H226149   6.432   5.458   3.877
 8729TIP3   OH226150   1.048   3.844   5.022
 8729TIP3    H126151   1.142   3.826   5.032
 8729TIP3    H226152   1.006   3.783   5.083
 8730TIP3   OH226153   4.365   2.993   4.293
 8730TIP3    H126154   4.318   3.004   4.375
 8730TIP3    H226155   4.416   3.073   4.284
 8731TIP3   OH226156   1.731   3.515   3.224
 8731TIP3    H126157   1.779   3.564   3.157
 8731TIP3    H226158   1.757   3.556   3.307
 8732TIP3   OH226159   3.454   4.925   2.635
 8732TIP3    H126160   3.377   4.940   2.579
 8732TIP3    H226161   3.460   4.830   2.643
 8733TIP3   OH226162   1.244   0.350   5.563
 8733TIP3    H126163   1.157   0.310   5.571
 8733TIP3    H226164   1.292   0.319   5.640
 8734TIP3   OH226165   5.742   1.483   0.992
 8734TIP3    H126166   5.799   1.476   1.068
 8734TIP3    H226167   5.661   1.440   1.020
 8735TIP3   OH226168   0.964   1.512   3.668
 8735TIP3    H126169   0.896   1.468   3.719
 8735TIP3    H226170   0.994   1.445   3.605
 8736TIP3   OH226171   3.792   0.638   4.890
 8736TIP3    H126172   3.801   0.727   4.857
 8736TIP3    H226173   3.715   0.603   4.845
 8737TIP3   OH226174   3.527  -0.009   3.342
 8737TIP3    H126175   3.506  -0.101   3.360
 8737TIP3    H226176   3.447   0.039   3.362
 8738TIP3   OH226177   4.240   3.007   3.237
 8738TIP3    H126178   4.173   3.063   3.198
 8738TIP3    H226179   4.252   3.041   3.326
 8739TIP3   OH226180   2.241   3.062   2.675
 8739TIP3    H126181   2.217   2.995   2.611
 8739TIP3    H226182   2.314   3.023   2.723
 8740TIP3   OH226183   4.188   1.190   2.672
 8740TIP3    H126184   4.250   1.263   2.666
 8740TIP3    H226185   4.237   1.121   2.716
 8741TIP3   OH226186   4.368   1.512   2.312
 8741TIP3    H126187   4.401   1.527   2.400
 8741TIP3    H226188   4.277   1.543   2.315
 8742TIP3   OH226189   6.993   3.437   3.071
 8742TIP3    H126190   7.018   3.476   2.987
 8742TIP3    H226191   6.899   3.450   3.077
 8743TIP3   OH226192   5.193   2.215   3.873
 8743TIP3    H126193   5.211   2.193   3.965
 8743TIP3    H226194   5.131   2.149   3.844
 8744TIP3   OH226195   1.591   3.448   5.442
 8744TIP3    H126196   1.558   3.401   5.519
 8744TIP3    H226197   1.585   3.384   5.371
 8745TIP3   OH226198   3.917   3.755   2.025
 8745TIP3    H126199   3.928   3.673   1.978
 8745TIP3    H226200   3.958   3.739   2.110
 8746TIP3   OH226201   6.539   4.650   2.902
 8746TIP3    H126202   6.504   4.619   2.819
 8746TIP3    H226203   6.496   4.596   2.968
 8747TIP3   OH226204   6.286   0.644   3.435
 8747TIP3    H126205   6.365   0.606   3.395
 8747TIP3    H226206   6.314   0.670   3.523
 8748TIP3   OH226207   4.099   0.979   0.936
 8748TIP3    H126208   4.124   0.998   1.027
 8748TIP3    H226209   4.173   0.930   0.901
 8749TIP3   OH226210   5.870   0.936   2.727
 8749TIP3    H126211   5.922   0.995   2.673
 8749TIP3    H226212   5.934   0.873   2.762
 8750TIP3   OH226213   4.711   0.966   1.476
 8750TIP3    H126214   4.673   0.930   1.395
 8750TIP3    H226215   4.751   0.891   1.519
 8751TIP3   OH226216   2.055   1.011   1.823
 8751TIP3    H126217   1.962   0.988   1.824
 8751TIP3    H226218   2.066   1.061   1.742
 8752TIP3   OH226219   6.002   1.596   1.868
 8752TIP3    H126220   5.990   1.626   1.958
 8752TIP3    H226221   6.073   1.531   1.873
 8753TIP3   OH226222   2.435   6.349   1.817
 8753TIP3    H126223   2.345   6.358   1.850
 8753TIP3    H226224   2.435   6.266   1.770
 8754TIP3   OH226225   2.583   1.496   4.493
 8754TIP3    H126226   2.530   1.426   4.456
 8754TIP3    H226227   2.660   1.500   4.436
 8755TIP3   OH226228   3.200   2.863   1.324
 8755TIP3    H126229   3.148   2.806   1.268
 8755TIP3    H226230   3.226   2.936   1.268
 8756TIP3   OH226231   3.710   2.246   2.969
 8756TIP3    H126232   3.645   2.284   3.027
 8756TIP3    H226233   3.661   2.221   2.890
 8757TIP3   OH226234   5.138   6.335   1.154
 8757TIP3    H126235   5.080   6.268   1.116
 8757TIP3    H226236   5.163   6.390   1.080
 8758TIP3   OH226237   3.537   6.115   4.486
 8758TIP3    H126238   3.502   6.116   4.575
 8758TIP3    H226239   3.632   6.106   4.498
 8759TIP3   OH226240   3.583   2.511   1.395
 8759TIP3    H126241   3.557   2.572   1.326
 8759TIP3    H226242   3.571   2.560   1.477
 8760TIP3   OH226243   6.849   0.453   2.947
 8760TIP3    H126244   6.870   0.483   3.035
 8760TIP3    H226245   6.754   0.466   2.939
 8761TIP3   OH226246   1.789   5.586   5.036
 8761TIP3    H126247   1.816   5.631   4.957
 8761TIP3    H226248   1.699   5.558   5.018
 8762TIP3   OH226249   6.164   3.201   2.016
 8762TIP3    H126250   6.259   3.215   2.023
 8762TIP3    H226251   6.145   3.213   1.923
 8763TIP3   OH226252   2.105   5.849   5.799
 8763TIP3    H126253   2.197   5.852   5.774
 8763TIP3    H226254   2.082   5.756   5.796
 8764TIP3   OH226255   2.316   2.839   3.647
 8764TIP3    H126256   2.288   2.843   3.556
 8764TIP3    H226257   2.234   2.834   3.697
 8765TIP3   OH226258   1.191   2.345   5.270
 8765TIP3    H126259   1.260   2.301   5.221
 8765TIP3    H226260   1.193   2.435   5.239
 8766TIP3   OH226261   7.217   4.303   0.591
 8766TIP3    H126262   7.265   4.343   0.519
 8766TIP3    H226263   7.130   4.285   0.555
 8767TIP3   OH226264   2.969   5.448   1.729
 8767TIP3    H126265   3.038   5.389   1.759
 8767TIP3    H226266   2.889   5.412   1.768
 8768TIP3   OH226267   1.286   4.068   3.167
 8768TIP3    H126268   1.311   4.160   3.181
 8768TIP3    H226269   1.335   4.019   3.233
 8769TIP3   OH226270   4.771   4.429   5.095
 8769TIP3    H126271   4.754   4.496   5.161
 8769TIP3    H226272   4.712   4.450   5.023
 8770TIP3   OH226273   5.664   0.132   3.708
 8770TIP3    H126274   5.572   0.138   3.683
 8770TIP3    H226275   5.679   0.210   3.762
 8771TIP3   OH226276   2.737   6.209   4.531
 8771TIP3    H126277   2.780   6.123   4.521
 8771TIP3    H226278   2.809   6.269   4.550
 8772TIP3   OH226279   6.945   5.269   2.399
 8772TIP3    H126280   6.936   5.351   2.448
 8772TIP3    H226281   6.904   5.203   2.455
 8773TIP3   OH226282   1.148   0.191   4.298
 8773TIP3    H126283   1.210   0.209   4.227
 8773TIP3    H226284   1.068   0.163   4.253
 8774TIP3   OH226285   2.927   4.556   4.296
 8774TIP3    H126286   2.899   4.638   4.257
 8774TIP3    H226287   2.960   4.580   4.383
 8775TIP3   OH226288   5.018   2.308   1.240
 8775TIP3    H126289   5.090   2.371   1.234
 8775TIP3    H226290   5.060   2.222   1.233
 8776TIP3   OH226291   3.872   2.369   2.109
 8776TIP3    H126292   3.953   2.327   2.139
 8776TIP3    H226293   3.819   2.378   2.187
 8777TIP3   OH226294   1.521   4.361   2.868
 8777TIP3    H126295   1.552   4.274   2.893
 8777TIP3    H226296   1.460   4.345   2.796
 8778TIP3   OH226297   2.609   4.237   3.735
 8778TIP3    H126298   2.702   4.254   3.751
 8778TIP3    H226299   2.577   4.318   3.696
 8779TIP3   OH226300   4.409   1.549   2.566
 8779TIP3    H126301   4.333   1.541   2.624
 8779TIP3    H226302   4.452   1.629   2.594
 8780TIP3   OH226303   0.768   4.502   4.762
 8780TIP3    H126304   0.801   4.591   4.750
 8780TIP3    H226305   0.843   4.445   4.744
 8781TIP3   OH226306   2.577   3.587   0.711
 8781TIP3    H126307   2.643   3.520   0.694
 8781TIP3    H226308   2.525   3.591   0.631
 8782TIP3   OH226309   3.778   0.881   4.767
 8782TIP3    H126310   3.858   0.885   4.715
 8782TIP3    H226311   3.802   0.923   4.850
 8783TIP3   OH226312   0.298   4.657   4.049
 8783TIP3    H126313   0.376   4.709   4.031
 8783TIP3    H226314   0.232   4.691   3.988
 8784TIP3   OH226315   5.061   0.785   0.400
 8784TIP3    H126316   5.048   0.781   0.306
 8784TIP3    H226317   5.137   0.730   0.417
 8785TIP3   OH226318   6.748   5.710   2.957
 8785TIP3    H126319   6.800   5.788   2.934
 8785TIP3    H226320   6.781   5.642   2.898
 8786TIP3   OH226321   0.465   6.320   5.073
 8786TIP3    H126322   0.425   6.265   5.141
 8786TIP3    H226323   0.557   6.297   5.074
 8787TIP3   OH226324   3.621   4.404   0.749
 8787TIP3    H126325   3.654   4.314   0.747
 8787TIP3    H226326   3.528   4.394   0.771
 8788TIP3   OH226327   6.426   1.793   5.089
 8788TIP3    H126328   6.363   1.757   5.151
 8788TIP3    H226329   6.512   1.775   5.129
 8789TIP3   OH226330   5.652   0.916   1.708
 8789TIP3    H126331   5.576   0.973   1.717
 8789TIP3    H226332   5.636   0.867   1.627
 8790TIP3   OH226333   0.735   0.488   4.369
 8790TIP3    H126334   0.803   0.481   4.303
 8790TIP3    H226335   0.783   0.503   4.451
 8791TIP3   OH226336   1.350   2.609   2.362
 8791TIP3    H126337   1.409   2.649   2.298
 8791TIP3    H226338   1.298   2.682   2.395
 8792TIP3   OH226339   0.436   2.535   4.356
 8792TIP3    H126340   0.463   2.446   4.380
 8792TIP3    H226341   0.425   2.532   4.261
 8793TIP3   OH226342   5.087   2.248   4.503
 8793TIP3    H126343   5.012   2.222   4.450
 8793TIP3    H226344   5.133   2.165   4.520
 8794TIP3   OH226345   0.525   3.007   4.874
 8794TIP3    H126346   0.436   3.004   4.909
 8794TIP3    H226347   0.566   2.927   4.906
 8795TIP3   OH226348   2.493   0.678   4.411
 8795TIP3    H126349   2.566   0.658   4.469
 8795TIP3    H226350   2.432   0.727   4.465
 8796TIP3   OH226351   4.562   4.494   3.347
 8796TIP3    H126352   4.654   4.498   3.323
 8796TIP3    H226353   4.517   4.469   3.267
 8797TIP3   OH226354   2.785   2.742   3.612
 8797TIP3    H126355   2.739   2.793   3.545
 8797TIP3    H226356   2.716   2.693   3.657
 8798TIP3   OH226357   0.468   4.309   5.696
 8798TIP3    H126358   0.464   4.318   5.600
 8798TIP3    H226359   0.378   4.324   5.724
 8799TIP3   OH226360   2.966   3.513   0.288
 8799TIP3    H126361   2.880   3.549   0.265
 8799TIP3    H226362   2.984   3.448   0.220
 8800TIP3   OH226363   1.260   5.898   3.033
 8800TIP3    H126364   1.291   5.848   2.957
 8800TIP3    H226365   1.337   5.943   3.065
 8801TIP3   OH226366   4.570   2.369   2.951
 8801TIP3    H126367   4.529   2.404   3.030
 8801TIP3    H226368   4.610   2.445   2.909
 8802TIP3   OH226369   2.146   6.502   2.784
 8802TIP3    H126370   2.106   6.555   2.853
 8802TIP3    H226371   2.129   6.411   2.811
 8803TIP3   OH226372   1.198   1.115   5.384
 8803TIP3    H126373   1.281   1.140   5.342
 8803TIP3    H226374   1.223   1.047   5.447
 8804TIP3   OH226375   0.414   4.393   2.728
 8804TIP3    H126376   0.449   4.346   2.803
 8804TIP3    H226377   0.319   4.393   2.742
 8805TIP3   OH226378   0.040   6.058   4.938
 8805TIP3    H126379   0.081   6.008   4.868
 8805TIP3    H226380   0.006   6.137   4.895
 8806TIP3   OH226381   2.815   5.300   2.757
 8806TIP3    H126382   2.807   5.308   2.662
 8806TIP3    H226383   2.738   5.346   2.791
 8807TIP3   OH226384   0.750   3.855   2.925
 8807TIP3    H126385   0.752   3.834   3.018
 8807TIP3    H226386   0.664   3.895   2.911
 8808TIP3   OH226387   4.495   1.182   3.005
 8808TIP3    H126388   4.470   1.118   3.072
 8808TIP3    H226389   4.590   1.173   2.998
 8809TIP3   OH226390   7.068   0.834   0.044
 8809TIP3    H126391   7.040   0.880   0.123
 8809TIP3    H226392   6.997   0.848  -0.019
 8810TIP3   OH226393   2.541   6.173   4.180
 8810TIP3    H126394   2.623   6.132   4.209
 8810TIP3    H226395   2.564   6.217   4.098
 8811TIP3   OH226396   4.458   2.762   2.353
 8811TIP3    H126397   4.374   2.724   2.378
 8811TIP3    H226398   4.455   2.851   2.390
 8812TIP3   OH226399   3.017   3.389   2.733
 8812TIP3    H126400   2.955   3.458   2.708
 8812TIP3    H226401   3.099   3.414   2.691
 8813TIP3   OH226402   1.751   2.436   1.725
 8813TIP3    H126403   1.664   2.475   1.721
 8813TIP3    H226404   1.764   2.398   1.638
 8814TIP3   OH226405   5.737   2.985   5.439
 8814TIP3    H126406   5.795   3.029   5.378
 8814TIP3    H226407   5.710   3.054   5.500
 8815TIP3   OH226408   2.689   5.872   5.444
 8815TIP3    H126409   2.699   5.809   5.516
 8815TIP3    H226410   2.614   5.839   5.394
 8816TIP3   OH226411   2.818   0.689   3.476
 8816TIP3    H126412   2.726   0.683   3.453
 8816TIP3    H226413   2.823   0.656   3.566
 8817TIP3   OH226414   1.874   6.776   0.667
 8817TIP3    H126415   1.881   6.856   0.616
 8817TIP3    H226416   1.809   6.723   0.620
 8818TIP3   OH226417   0.623   5.832   1.350
 8818TIP3    H126418   0.620   5.737   1.354
 8818TIP3    H226419   0.664   5.851   1.266
 8819TIP3   OH226420   4.875   4.695   0.783
 8819TIP3    H126421   4.797   4.682   0.729
 8819TIP3    H226422   4.907   4.782   0.759
 8820TIP3   OH226423   6.925   6.580   3.563
 8820TIP3    H126424   6.973   6.659   3.588
 8820TIP3    H226425   6.966   6.552   3.481
 8821TIP3   OH226426   0.193   6.139   2.812
 8821TIP3    H126427   0.227   6.079   2.747
 8821TIP3    H226428   0.269   6.164   2.865
 8822TIP3   OH226429   5.922   0.443   1.917
 8822TIP3    H126430   5.853   0.416   1.977
 8822TIP3    H226431   5.897   0.531   1.889
 8823TIP3   OH226432   2.226   3.468   3.674
 8823TIP3    H126433   2.173   3.534   3.720
 8823TIP3    H226434   2.185   3.385   3.696
 8824TIP3   OH226435   1.879   5.278   5.492
 8824TIP3    H126436   1.875   5.317   5.579
 8824TIP3    H226437   1.911   5.189   5.508
 8825TIP3   OH226438   1.980   5.109   5.259
 8825TIP3    H126439   1.968   5.157   5.177
 8825TIP3    H226440   1.953   5.171   5.327
 8826TIP3   OH226441   6.307   4.678   1.372
 8826TIP3    H126442   6.259   4.612   1.322
 8826TIP3    H226443   6.257   4.759   1.360
 8827TIP3   OH226444   3.387   1.814   1.504
 8827TIP3    H126445   3.344   1.742   1.459
 8827TIP3    H226446   3.480   1.803   1.484
 8828TIP3   OH226447   6.578   2.369   5.541
 8828TIP3    H126448   6.581   2.367   5.636
 8828TIP3    H226449   6.666   2.397   5.515
 8829TIP3   OH226450   7.192   6.303   4.795
 8829TIP3    H126451   7.234   6.356   4.862
 8829TIP3    H226452   7.235   6.328   4.713
 8830TIP3   OH226453   6.519   5.374   2.045
 8830TIP3    H126454   6.459   5.300   2.032
 8830TIP3    H226455   6.484   5.443   1.989
 8831TIP3   OH226456   5.372   0.333   3.234
 8831TIP3    H126457   5.400   0.303   3.148
 8831TIP3    H226458   5.347   0.253   3.280
 8832TIP3   OH226459   0.906   4.318   5.878
 8832TIP3    H126460   0.916   4.399   5.929
 8832TIP3    H226461   0.977   4.322   5.813
 8833TIP3   OH226462   7.146   3.963   4.194
 8833TIP3    H126463   7.119   3.950   4.103
 8833TIP3    H226464   7.109   3.888   4.241
 8834TIP3   OH226465   3.203   5.932   4.142
 8834TIP3    H126466   3.204   5.959   4.050
 8834TIP3    H226467   3.287   5.961   4.177
 8835TIP3   OH226468   3.315   5.678   0.646
 8835TIP3    H126469   3.255   5.638   0.709
 8835TIP3    H226470   3.345   5.758   0.689
 8836TIP3   OH226471   5.185   4.931   4.372
 8836TIP3    H126472   5.180   4.882   4.290
 8836TIP3    H226473   5.218   4.868   4.435
 8837TIP3   OH226474   3.650   4.340   5.632
 8837TIP3    H126475   3.566   4.339   5.677
 8837TIP3    H226476   3.640   4.407   5.564
 8838TIP3   OH226477   2.504   4.437   4.275
 8838TIP3    H126478   2.461   4.510   4.231
 8838TIP3    H226479   2.496   4.457   4.368
 8839TIP3   OH226480   4.188   0.784   4.789
 8839TIP3    H126481   4.134   0.793   4.867
 8839TIP3    H226482   4.143   0.838   4.723
 8840TIP3   OH226483   2.556   1.759   4.606
 8840TIP3    H126484   2.613   1.687   4.577
 8840TIP3    H226485   2.588   1.835   4.557
 8841TIP3   OH226486   2.765   6.569   0.084
 8841TIP3    H126487   2.703   6.509   0.127
 8841TIP3    H226488   2.710   6.624   0.028
 8842TIP3   OH226489   3.738   6.590   3.813
 8842TIP3    H126490   3.769   6.572   3.725
 8842TIP3    H226491   3.651   6.550   3.816
 8843TIP3   OH226492   5.041   6.051   5.107
 8843TIP3    H126493   5.016   6.009   5.025
 8843TIP3    H226494   5.132   6.024   5.121
 8844TIP3   OH226495   4.920   1.863   3.302
 8844TIP3    H126496   4.946   1.800   3.370
 8844TIP3    H226497   4.990   1.856   3.236
 8845TIP3   OH226498   4.246   0.366   4.801
 8845TIP3    H126499   4.185   0.354   4.873
 8845TIP3    H226500   4.191   0.387   4.726
 8846TIP3   OH226501   7.014   3.261   1.946
 8846TIP3    H126502   7.046   3.300   1.864
 8846TIP3    H226503   7.091   3.261   2.004
 8847TIP3   OH226504   4.665   4.865   2.325
 8847TIP3    H126505   4.735   4.816   2.281
 8847TIP3    H226506   4.585   4.838   2.281
 8848TIP3   OH226507   3.870   2.651   2.843
 8848TIP3    H126508   3.808   2.610   2.903
 8848TIP3    H226509   3.940   2.586   2.834
 8849TIP3   OH226510   4.546   1.338   3.940
 8849TIP3    H126511   4.506   1.283   3.872
 8849TIP3    H226512   4.611   1.390   3.893
 8850TIP3   OH226513   6.443   4.081   0.342
 8850TIP3    H126514   6.358   4.038   0.335
 8850TIP3    H226515   6.428   4.157   0.398
 8851TIP3   OH226516   0.994   3.209   5.198
 8851TIP3    H126517   0.946   3.272   5.252
 8851TIP3    H226518   1.085   3.220   5.224
 8852TIP3   OH226519   6.964   1.715   4.360
 8852TIP3    H126520   6.996   1.717   4.450
 8852TIP3    H226521   6.900   1.786   4.355
 8853TIP3   OH226522   2.205   0.631   2.347
 8853TIP3    H126523   2.219   0.708   2.292
 8853TIP3    H226524   2.272   0.639   2.416
 8854TIP3   OH226525   1.124   5.111   0.598
 8854TIP3    H126526   1.090   5.141   0.683
 8854TIP3    H226527   1.180   5.036   0.620
 8855TIP3   OH226528   4.735   1.623   5.759
 8855TIP3    H126529   4.670   1.594   5.824
 8855TIP3    H226530   4.684   1.642   5.681
 8856TIP3   OH226531   0.382   4.734   4.861
 8856TIP3    H126532   0.333   4.673   4.806
 8856TIP3    H226533   0.453   4.682   4.897
 8857TIP3   OH226534   6.244   2.717   0.857
 8857TIP3    H126535   6.229   2.812   0.859
 8857TIP3    H226536   6.267   2.695   0.947
 8858TIP3   OH226537   2.471   4.112   1.861
 8858TIP3    H126538   2.464   4.017   1.854
 8858TIP3    H226539   2.382   4.143   1.843
 8859TIP3   OH226540   2.817   1.760   3.513
 8859TIP3    H126541   2.896   1.775   3.565
 8859TIP3    H226542   2.824   1.822   3.441
 8860TIP3   OH226543   3.224   1.582   2.019
 8860TIP3    H126544   3.251   1.589   2.110
 8860TIP3    H226545   3.237   1.670   1.983
 8861TIP3   OH226546   2.621   1.213   5.269
 8861TIP3    H126547   2.659   1.197   5.183
 8861TIP3    H226548   2.690   1.187   5.330
 8862TIP3   OH226549   4.267   3.234   2.926
 8862TIP3    H126550   4.258   3.277   3.011
 8862TIP3    H226551   4.188   3.258   2.878
 8863TIP3   OH226552   6.161   2.537   4.432
 8863TIP3    H126553   6.093   2.574   4.488
 8863TIP3    H226554   6.231   2.511   4.493
 8864TIP3   OH226555   6.378   5.650   5.593
 8864TIP3    H126556   6.441   5.711   5.632
 8864TIP3    H226557   6.293   5.688   5.612
 8865TIP3   OH226558   0.446   5.022   1.612
 8865TIP3    H126559   0.375   4.958   1.602
 8865TIP3    H226560   0.419   5.076   1.686
 8866TIP3   OH226561   2.738   5.148   4.507
 8866TIP3    H126562   2.715   5.233   4.543
 8866TIP3    H226563   2.678   5.135   4.434
 8867TIP3   OH226564   3.541   1.212   3.665
 8867TIP3    H126565   3.457   1.242   3.631
 8867TIP3    H226566   3.600   1.287   3.654
 8868TIP3   OH226567   1.844   4.495   5.714
 8868TIP3    H126568   1.883   4.480   5.628
 8868TIP3    H226569   1.750   4.500   5.697
 8869TIP3   OH226570   5.273   1.208   3.952
 8869TIP3    H126571   5.288   1.161   4.034
 8869TIP3    H226572   5.300   1.146   3.883
 8870TIP3   OH226573   4.190   4.185   1.220
 8870TIP3    H126574   4.255   4.239   1.175
 8870TIP3    H226575   4.106   4.224   1.195
 8871TIP3   OH226576   3.668   4.027   2.657
 8871TIP3    H126577   3.687   4.109   2.703
 8871TIP3    H226578   3.667   3.961   2.727
 8872TIP3   OH226579   6.278   4.176   3.633
 8872TIP3    H126580   6.254   4.227   3.556
 8872TIP3    H226581   6.367   4.145   3.615
 8873TIP3   OH226582   1.963   3.872   4.324
 8873TIP3    H126583   1.929   3.875   4.235
 8873TIP3    H226584   2.057   3.856   4.313
 8874TIP3   OH226585   4.070   1.993   2.723
 8874TIP3    H126586   4.032   1.907   2.707
 8874TIP3    H226587   4.149   1.976   2.774
 8875TIP3   OH226588   1.153   1.562   4.419
 8875TIP3    H126589   1.190   1.636   4.372
 8875TIP3    H226590   1.073   1.597   4.460
 8876TIP3   OH226591   1.274   4.483   2.943
 8876TIP3    H126592   1.281   4.498   3.037
 8876TIP3    H226593   1.359   4.448   2.918
 8877TIP3   OH226594   3.615   1.085   1.263
 8877TIP3    H126595   3.582   0.998   1.285
 8877TIP3    H226596   3.569   1.108   1.182
 8878TIP3   OH226597   4.291   4.973   0.662
 8878TIP3    H126598   4.289   5.063   0.695
 8878TIP3    H226599   4.314   4.919   0.737
 8879TIP3   OH226600   4.081   6.277   0.098
 8879TIP3    H126601   4.159   6.277   0.042
 8879TIP3    H226602   4.059   6.184   0.109
 8880TIP3   OH226603   4.798   2.123   5.202
 8880TIP3    H126604   4.890   2.147   5.187
 8880TIP3    H226605   4.779   2.058   5.134
 8881TIP3   OH226606   4.342   4.219   3.288
 8881TIP3    H126607   4.280   4.242   3.357
 8881TIP3    H226608   4.387   4.301   3.267
 8882TIP3   OH226609   4.808   1.203   4.151
 8882TIP3    H126610   4.730   1.200   4.206
 8882TIP3    H226611   4.776   1.186   4.062
 8883TIP3   OH226612   6.470   5.107   2.699
 8883TIP3    H126613   6.435   5.025   2.734
 8883TIP3    H226614   6.411   5.175   2.734
 8884TIP3   OH226615   0.834   1.047   1.624
 8884TIP3    H126616   0.749   1.010   1.648
 8884TIP3    H226617   0.848   1.117   1.688
 8885TIP3   OH226618   1.075   0.110   1.547
 8885TIP3    H126619   1.055   0.035   1.490
 8885TIP3    H226620   1.167   0.100   1.570
 8886TIP3   OH226621   2.244   5.804   4.855
 8886TIP3    H126622   2.150   5.788   4.865
 8886TIP3    H226623   2.285   5.750   4.922
 8887TIP3   OH226624   4.865   3.048   4.174
 8887TIP3    H126625   4.815   2.999   4.239
 8887TIP3    H226626   4.884   2.984   4.105
 8888TIP3   OH226627   4.336   3.834   2.645
 8888TIP3    H126628   4.429   3.814   2.656
 8888TIP3    H226629   4.291   3.754   2.671
 8889TIP3   OH226630   1.764   6.621   3.241
 8889TIP3    H126631   1.782   6.709   3.206
 8889TIP3    H226632   1.701   6.635   3.311
 8890TIP3   OH226633   3.852   5.659   3.599
 8890TIP3    H126634   3.837   5.670   3.505
 8890TIP3    H226635   3.924   5.719   3.619
 8891TIP3   OH226636   5.031   4.730   1.647
 8891TIP3    H126637   5.058   4.786   1.720
 8891TIP3    H226638   5.106   4.730   1.588
 8892TIP3   OH226639   4.798   3.771   5.778
 8892TIP3    H126640   4.722   3.712   5.786
 8892TIP3    H226641   4.766   3.844   5.724
 8893TIP3   OH226642   3.409   1.139   1.053
 8893TIP3    H126643   3.316   1.123   1.064
 8893TIP3    H226644   3.433   1.092   0.973
 8894TIP3   OH226645   1.708   4.553   2.847
 8894TIP3    H126646   1.774   4.485   2.835
 8894TIP3    H226647   1.628   4.514   2.811
 8895TIP3   OH226648   2.187   5.954   1.043
 8895TIP3    H126649   2.209   5.991   1.128
 8895TIP3    H226650   2.258   5.983   0.985
 8896TIP3   OH226651   6.407   5.407   2.434
 8896TIP3    H126652   6.372   5.474   2.494
 8896TIP3    H226653   6.372   5.432   2.348
 8897TIP3   OH226654   7.025   1.737   3.043
 8897TIP3    H126655   7.024   1.642   3.031
 8897TIP3    H226656   7.117   1.761   3.042
 8898TIP3   OH226657   4.111   4.758   4.750
 8898TIP3    H126658   4.146   4.689   4.693
 8898TIP3    H226659   4.165   4.753   4.829
 8899TIP3   OH226660   0.708   3.835   1.707
 8899TIP3    H126661   0.740   3.762   1.760
 8899TIP3    H226662   0.626   3.804   1.670
 8900TIP3   OH226663   2.925   0.390   3.714
 8900TIP3    H126664   2.867   0.324   3.677
 8900TIP3    H226665   3.013   0.360   3.692
 8901TIP3   OH226666   2.204   3.250   5.713
 8901TIP3    H126667   2.209   3.283   5.803
 8901TIP3    H226668   2.143   3.176   5.719
 8902TIP3   OH226669   5.542   6.070   2.525
 8902TIP3    H126670   5.614   6.007   2.533
 8902TIP3    H226671   5.463   6.018   2.541
 8903TIP3   OH226672   1.893   2.570   1.961
 8903TIP3    H126673   1.857   2.653   1.991
 8903TIP3    H226674   1.850   2.553   1.878
 8904TIP3   OH226675   4.198   1.622   3.568
 8904TIP3    H126676   4.246   1.661   3.495
 8904TIP3    H226677   4.138   1.691   3.597
 8905TIP3   OH226678   4.812   6.664   0.454
 8905TIP3    H126679   4.817   6.725   0.380
 8905TIP3    H226680   4.902   6.638   0.470
 8906TIP3   OH226681   6.599   2.745   1.789
 8906TIP3    H126682   6.579   2.724   1.698
 8906TIP3    H226683   6.685   2.707   1.805
 8907TIP3   OH226684   3.634   1.717   4.853
 8907TIP3    H126685   3.617   1.742   4.944
 8907TIP3    H226686   3.670   1.628   4.858
 8908TIP3   OH226687   5.390   5.236   1.038
 8908TIP3    H126688   5.464   5.279   0.994
 8908TIP3    H226689   5.353   5.178   0.971
 8909TIP3   OH226690   2.516   6.541   3.497
 8909TIP3    H126691   2.432   6.542   3.451
 8909TIP3    H226692   2.525   6.452   3.530
 8910TIP3   OH226693   2.748   0.620   2.146
 8910TIP3    H126694   2.765   0.552   2.081
 8910TIP3    H226695   2.801   0.694   2.116
 8911TIP3   OH226696   0.841   0.250   2.856
 8911TIP3    H126697   0.842   0.173   2.913
 8911TIP3    H226698   0.894   0.225   2.781
 8912TIP3   OH226699   2.575   5.458   2.695
 8912TIP3    H126700   2.563   5.423   2.606
 8912TIP3    H226701   2.603   5.548   2.681
 8913TIP3   OH226702   1.296   6.374   5.285
 8913TIP3    H126703   1.270   6.446   5.342
 8913TIP3    H226704   1.288   6.410   5.196
 8914TIP3   OH226705   6.165   0.976   3.274
 8914TIP3    H126706   6.136   0.900   3.325
 8914TIP3    H226707   6.131   1.051   3.321
 8915TIP3   OH226708   7.025   5.653   5.249
 8915TIP3    H126709   7.036   5.633   5.156
 8915TIP3    H226710   7.049   5.572   5.295
 8916TIP3   OH226711   1.312   3.262   4.039
 8916TIP3    H126712   1.352   3.338   3.996
 8916TIP3    H226713   1.380   3.231   4.099
 8917TIP3   OH226714   0.232   2.462   2.435
 8917TIP3    H126715   0.299   2.482   2.371
 8917TIP3    H226716   0.200   2.547   2.464
 8918TIP3   OH226717   4.986   6.120   2.488
 8918TIP3    H126718   4.902   6.128   2.443
 8918TIP3    H226719   5.047   6.169   2.433
 8919TIP3   OH226720   5.483   5.753   2.769
 8919TIP3    H126721   5.549   5.803   2.723
 8919TIP3    H226722   5.400   5.776   2.727
 8920TIP3   OH226723   0.228   4.809   1.098
 8920TIP3    H126724   0.165   4.796   1.027
 8920TIP3    H226725   0.199   4.749   1.167
 8921TIP3   OH226726   5.999   4.798   1.600
 8921TIP3    H126727   5.925   4.738   1.612
 8921TIP3    H226728   6.028   4.781   1.510
 8922TIP3   OH226729   1.345   3.855   0.109
 8922TIP3    H126730   1.400   3.810   0.046
 8922TIP3    H226731   1.302   3.784   0.158
 8923TIP3   OH226732   2.214   4.369   0.910
 8923TIP3    H126733   2.190   4.277   0.922
 8923TIP3    H226734   2.135   4.418   0.932
 8924TIP3   OH226735   5.740   0.479   5.565
 8924TIP3    H126736   5.754   0.394   5.524
 8924TIP3    H226737   5.792   0.475   5.646
 8925TIP3   OH226738   2.128   2.168   0.293
 8925TIP3    H126739   2.180   2.184   0.215
 8925TIP3    H226740   2.078   2.249   0.306
 8926TIP3   OH226741   5.509   2.243   1.529
 8926TIP3    H126742   5.557   2.325   1.519
 8926TIP3    H226743   5.425   2.270   1.568
 8927TIP3   OH226744   4.026   1.619   3.867
 8927TIP3    H126745   4.054   1.708   3.845
 8927TIP3    H226746   4.094   1.562   3.832
 8928TIP3   OH226747   6.636   2.562   0.166
 8928TIP3    H126748   6.584   2.544   0.245
 8928TIP3    H226749   6.665   2.475   0.137
 8929TIP3   OH226750   2.006   4.474   4.210
 8929TIP3    H126751   2.030   4.428   4.291
 8929TIP3    H226752   1.985   4.404   4.148
 8930TIP3   OH226753   4.689   6.505   4.457
 8930TIP3    H126754   4.771   6.555   4.452
 8930TIP3    H226755   4.713   6.417   4.428
 8931TIP3   OH226756   4.742   2.977   1.149
 8931TIP3    H126757   4.677   3.002   1.215
 8931TIP3    H226758   4.732   3.041   1.079
 8932TIP3   OH226759  -0.032   0.326   2.481
 8932TIP3    H126760  -0.125   0.307   2.467
 8932TIP3    H226761  -0.022   0.326   2.576
 8933TIP3   OH226762   5.344   5.952   3.632
 8933TIP3    H126763   5.300   5.935   3.548
 8933TIP3    H226764   5.278   5.932   3.698
 8934TIP3   OH226765   5.658   5.399   0.544
 8934TIP3    H126766   5.611   5.337   0.489
 8934TIP3    H226767   5.621   5.386   0.631
 8935TIP3   OH226768   5.986   2.699   4.875
 8935TIP3    H126769   6.071   2.717   4.834
 8935TIP3    H226770   5.924   2.694   4.802
 8936TIP3   OH226771   1.896   1.913   4.783
 8936TIP3    H126772   1.878   1.821   4.761
 8936TIP3    H226773   1.926   1.910   4.874
 8937TIP3   OH226774   1.604   0.292   0.852
 8937TIP3    H126775   1.560   0.222   0.805
 8937TIP3    H226776   1.697   0.279   0.834
 8938TIP3   OH226777   4.050   3.641   3.392
 8938TIP3    H126778   4.137   3.676   3.371
 8938TIP3    H226779   4.030   3.676   3.479
 8939TIP3   OH226780   1.772   0.153   5.627
 8939TIP3    H126781   1.860   0.179   5.601
 8939TIP3    H226782   1.718   0.230   5.609
 8940TIP3   OH226783   5.683   0.106   1.039
 8940TIP3    H126784   5.693   0.017   1.072
 8940TIP3    H226785   5.731   0.160   1.101
 8941TIP3   OH226786   2.463   2.624   2.214
 8941TIP3    H126787   2.396   2.625   2.283
 8941TIP3    H226788   2.515   2.702   2.231
 8942TIP3   OH226789   0.266   5.373   0.084
 8942TIP3    H126790   0.212   5.401   0.157
 8942TIP3    H226791   0.224   5.293   0.052
 8943TIP3   OH226792   2.685   2.299   5.790
 8943TIP3    H126793   2.695   2.243   5.713
 8943TIP3    H226794   2.693   2.239   5.864
 8944TIP3   OH226795   6.904   2.999   1.904
 8944TIP3    H126796   6.848   2.977   1.979
 8944TIP3    H226797   6.950   3.079   1.932
 8945TIP3   OH226798   5.174   3.600   3.003
 8945TIP3    H126799   5.234   3.569   2.935
 8945TIP3    H226800   5.230   3.620   3.078
 8946TIP3   OH226801   2.491   3.409   3.746
 8946TIP3    H126802   2.413   3.439   3.701
 8946TIP3    H226803   2.552   3.482   3.740
 8947TIP3   OH226804   7.216   1.707   0.845
 8947TIP3    H126805   7.178   1.659   0.919
 8947TIP3    H226806   7.149   1.702   0.777
 8948TIP3   OH226807   3.949   5.540   1.468
 8948TIP3    H126808   3.990   5.604   1.526
 8948TIP3    H226809   3.898   5.484   1.527
 8949TIP3   OH226810   4.011   5.766   3.999
 8949TIP3    H126811   3.958   5.815   3.935
 8949TIP3    H226812   4.046   5.833   4.058
 8950TIP3   OH226813   2.786   3.582   1.156
 8950TIP3    H126814   2.704   3.552   1.117
 8950TIP3    H226815   2.760   3.652   1.216
 8951TIP3   OH226816   0.861   2.454   0.238
 8951TIP3    H126817   0.836   2.524   0.298
 8951TIP3    H226818   0.784   2.398   0.233
 8952TIP3   OH226819   5.142   4.774   3.840
 8952TIP3    H126820   5.049   4.762   3.823
 8952TIP3    H226821   5.147   4.854   3.892
 8953TIP3   OH226822   1.196   4.573   5.837
 8953TIP3    H126823   1.142   4.637   5.791
 8953TIP3    H226824   1.206   4.610   5.925
 8954TIP3   OH226825   3.805   3.624   3.784
 8954TIP3    H126826   3.796   3.672   3.866
 8954TIP3    H226827   3.780   3.534   3.806
 8955TIP3   OH226828   4.156   1.948   1.537
 8955TIP3    H126829   4.150   2.010   1.464
 8955TIP3    H226830   4.250   1.940   1.553
 8956TIP3   OH226831   4.840   6.361   3.899
 8956TIP3    H126832   4.786   6.282   3.902
 8956TIP3    H226833   4.829   6.395   3.810
 8957TIP3   OH226834   5.128   1.359   1.909
 8957TIP3    H126835   5.158   1.354   1.818
 8957TIP3    H226836   5.178   1.291   1.954
 8958TIP3   OH226837   0.123   1.941   0.949
 8958TIP3    H126838   0.119   1.846   0.933
 8958TIP3    H226839   0.073   1.980   0.878
 8959TIP3   OH226840   6.518   0.034   3.005
 8959TIP3    H126841   6.582   0.028   2.935
 8959TIP3    H226842   6.456  -0.038   2.988
 8960TIP3   OH226843   0.441   4.521   3.760
 8960TIP3    H126844   0.448   4.431   3.730
 8960TIP3    H226845   0.503   4.569   3.705
 8961TIP3   OH226846   1.384   6.287   4.386
 8961TIP3    H126847   1.296   6.319   4.405
 8961TIP3    H226848   1.389   6.203   4.432
 8962TIP3   OH226849   4.985   4.013   3.390
 8962TIP3    H126850   5.015   3.949   3.454
 8962TIP3    H226851   4.891   4.020   3.405
 8963TIP3   OH226852   1.771   6.227   1.351
 8963TIP3    H126853   1.691   6.178   1.370
 8963TIP3    H226854   1.740   6.314   1.324
 8964TIP3   OH226855   4.510   0.430   2.027
 8964TIP3    H126856   4.544   0.345   1.999
 8964TIP3    H226857   4.420   0.432   1.992
 8965TIP3   OH226858   3.509   0.633   5.455
 8965TIP3    H126859   3.501   0.697   5.526
 8965TIP3    H226860   3.451   0.667   5.386
 8966TIP3   OH226861   4.942   2.317   4.109
 8966TIP3    H126862   4.941   2.228   4.145
 8966TIP3    H226863   4.976   2.372   4.180
 8967TIP3   OH226864   4.855   6.154   1.958
 8967TIP3    H126865   4.885   6.064   1.971
 8967TIP3    H226866   4.919   6.193   1.899
 8968TIP3   OH226867   6.471   3.663   3.441
 8968TIP3    H126868   6.520   3.725   3.387
 8968TIP3    H226869   6.507   3.577   3.417
 8969TIP3   OH226870   3.979   4.280   0.875
 8969TIP3    H126871   3.888   4.281   0.906
 8969TIP3    H226872   4.018   4.359   0.913
 8970TIP3   OH226873   4.219   2.783   4.624
 8970TIP3    H126874   4.259   2.844   4.563
 8970TIP3    H226875   4.157   2.835   4.674
 8971TIP3   OH226876   6.099   0.584   0.402
 8971TIP3    H126877   6.078   0.633   0.323
 8971TIP3    H226878   6.108   0.651   0.470
 8972TIP3   OH226879   7.173   4.080   0.121
 8972TIP3    H126880   7.142   4.041   0.203
 8972TIP3    H226881   7.095   4.118   0.082
 8973TIP3   OH226882   5.027   4.383   4.998
 8973TIP3    H126883   5.094   4.448   5.019
 8973TIP3    H226884   4.947   4.417   5.038
 8974TIP3   OH226885   2.173   2.649   4.237
 8974TIP3    H126886   2.203   2.738   4.251
 8974TIP3    H226887   2.198   2.629   4.147
 8975TIP3   OH226888   1.244   4.686   4.311
 8975TIP3    H126889   1.224   4.672   4.404
 8975TIP3    H226890   1.158   4.690   4.269
 8976TIP3   OH226891   4.789   0.292   5.392
 8976TIP3    H126892   4.796   0.306   5.297
 8976TIP3    H226893   4.711   0.238   5.403
 8977TIP3   OH226894   3.669   1.140   3.088
 8977TIP3    H126895   3.649   1.108   3.000
 8977TIP3    H226896   3.588   1.127   3.137
 8978TIP3   OH226897   6.595   6.226   4.221
 8978TIP3    H126898   6.601   6.296   4.286
 8978TIP3    H226899   6.531   6.259   4.157
 8979TIP3   OH226900   2.513   4.626   0.330
 8979TIP3    H126901   2.454   4.679   0.383
 8979TIP3    H226902   2.601   4.657   0.354
 8980TIP3   OH226903   1.508   3.524   3.496
 8980TIP3    H126904   1.506   3.543   3.402
 8980TIP3    H226905   1.545   3.436   3.502
 8981TIP3   OH226906   6.031   3.413   2.616
 8981TIP3    H126907   5.976   3.336   2.624
 8981TIP3    H226908   6.101   3.388   2.556
 8982TIP3   OH226909   7.038   1.685   4.892
 8982TIP3    H126910   7.104   1.753   4.910
 8982TIP3    H226911   7.038   1.631   4.971
 8983TIP3   OH226912   2.231   6.420   5.149
 8983TIP3    H126913   2.207   6.327   5.141
 8983TIP3    H226914   2.170   6.466   5.092
 8984TIP3   OH226915   0.572   0.429   0.188
 8984TIP3    H126916   0.541   0.511   0.227
 8984TIP3    H226917   0.496   0.371   0.192
 8985TIP3   OH226918   0.152   4.434   2.725
 8985TIP3    H126919   0.083   4.438   2.659
 8985TIP3    H226920   0.108   4.457   2.807
 8986TIP3   OH226921   0.957   3.018   2.373
 8986TIP3    H126922   0.976   3.047   2.284
 8986TIP3    H226923   0.866   2.989   2.370
 8987TIP3   OH226924   6.322   6.369   3.702
 8987TIP3    H126925   6.286   6.374   3.614
 8987TIP3    H226926   6.410   6.332   3.690
 8988TIP3   OH226927   5.284   4.207   3.271
 8988TIP3    H126928   5.314   4.277   3.212
 8988TIP3    H226929   5.358   4.190   3.329
 8989TIP3   OH226930   5.041   1.341   3.886
 8989TIP3    H126931   5.092   1.421   3.870
 8989TIP3    H226932   5.106   1.278   3.918
 8990TIP3   OH226933   5.628   4.410   3.783
 8990TIP3    H126934   5.704   4.448   3.826
 8990TIP3    H226935   5.644   4.316   3.782
 8991TIP3   OH226936   6.161   4.675   4.621
 8991TIP3    H126937   6.085   4.635   4.578
 8991TIP3    H226938   6.176   4.757   4.574
 8992TIP3   OH226939   3.386   4.070   2.296
 8992TIP3    H126940   3.438   4.026   2.363
 8992TIP3    H226941   3.342   3.999   2.249
 8993TIP3   OH226942   2.037   1.542   0.459
 8993TIP3    H126943   2.091   1.488   0.401
 8993TIP3    H226944   2.094   1.614   0.485
 8994TIP3   OH226945   4.592   2.430   2.032
 8994TIP3    H126946   4.575   2.336   2.026
 8994TIP3    H226947   4.637   2.451   1.951
 8995TIP3   OH226948   2.310   3.460   1.832
 8995TIP3    H126949   2.314   3.376   1.786
 8995TIP3    H226950   2.271   3.520   1.768
 8996TIP3   OH226951   5.128   5.626   2.587
 8996TIP3    H126952   5.127   5.662   2.676
 8996TIP3    H226953   5.035   5.609   2.568
 8997TIP3   OH226954   3.168   2.189   2.603
 8997TIP3    H126955   3.153   2.098   2.629
 8997TIP3    H226956   3.223   2.182   2.525
 8998TIP3   OH226957   0.252   6.266   3.331
 8998TIP3    H126958   0.237   6.291   3.240
 8998TIP3    H226959   0.302   6.339   3.367
 8999TIP3   OH226960   6.872   0.831   0.462
 8999TIP3    H126961   6.907   0.875   0.539
 8999TIP3    H226962   6.921   0.868   0.388
 9000TIP3   OH226963   5.315   6.781   4.013
 9000TIP3    H126964   5.233   6.799   3.967
 9000TIP3    H226965   5.317   6.846   4.083
 9001TIP3   OH226966   4.928   5.765   4.258
 9001TIP3    H126967   5.013   5.730   4.231
 9001TIP3    H226968   4.900   5.707   4.329
 9002TIP3   OH226969   5.166   0.352   5.704
 9002TIP3    H126970   5.198   0.416   5.640
 9002TIP3    H226971   5.083   0.389   5.735
 9003TIP3   OH226972   0.466   0.865   5.095
 9003TIP3    H126973   0.477   0.954   5.060
 9003TIP3    H226974   0.401   0.825   5.038
 9004TIP3   OH226975   2.422   3.614   4.754
 9004TIP3    H126976   2.499   3.662   4.783
 9004TIP3    H226977   2.449   3.573   4.671
 9005TIP3   OH226978   4.272   0.535   1.602
 9005TIP3    H126979   4.339   0.480   1.643
 9005TIP3    H226980   4.208   0.550   1.672
 9006TIP3   OH226981   1.812   1.846   0.367
 9006TIP3    H126982   1.858   1.766   0.394
 9006TIP3    H226983   1.791   1.890   0.449
 9007TIP3   OH226984   0.256   1.205   3.218
 9007TIP3    H126985   0.253   1.155   3.136
 9007TIP3    H226986   0.259   1.138   3.286
 9008TIP3   OH226987   1.890   0.774   1.146
 9008TIP3    H126988   1.867   0.863   1.116
 9008TIP3    H226989   1.895   0.723   1.065
 9009TIP3   OH226990   3.953   0.347   3.491
 9009TIP3    H126991   3.940   0.350   3.586
 9009TIP3    H226992   3.992   0.432   3.469
 9010TIP3   OH226993   6.529   3.707   5.236
 9010TIP3    H126994   6.543   3.613   5.236
 9010TIP3    H226995   6.534   3.733   5.144
 9011TIP3   OH226996   6.338   4.204   4.900
 9011TIP3    H126997   6.295   4.239   4.822
 9011TIP3    H226998   6.277   4.137   4.932
 9012TIP3   OH226999   2.508   6.393   3.211
 9012TIP3    H127000   2.599   6.418   3.220
 9012TIP3    H227001   2.502   6.309   3.257
 9013TIP3   OH227002   5.463   2.679   5.470
 9013TIP3    H127003   5.465   2.685   5.374
 9013TIP3    H227004   5.419   2.597   5.488
 9014TIP3   OH227005   0.649   0.171   4.721
 9014TIP3    H127006   0.640   0.261   4.750
 9014TIP3    H227007   0.565   0.150   4.681
 9015TIP3   OH227008   6.962   5.841   2.410
 9015TIP3    H127009   6.902   5.892   2.464
 9015TIP3    H227010   7.049   5.861   2.446
 9016TIP3   OH227011   2.508   4.360   2.051
 9016TIP3    H127012   2.595   4.336   2.021
 9016TIP3    H227013   2.463   4.391   1.972
 9017TIP3   OH227014   7.210   0.666   3.072
 9017TIP3    H127015   7.152   0.604   3.029
 9017TIP3    H227016   7.204   0.644   3.165
 9018TIP3   OH227017   3.566   2.885   4.504
 9018TIP3    H127018   3.511   2.848   4.435
 9018TIP3    H227019   3.531   2.847   4.585
 9019TIP3   OH227020   5.797   3.536   5.813
 9019TIP3    H127021   5.778   3.619   5.857
 9019TIP3    H227022   5.814   3.560   5.722
 9020TIP3   OH227023   4.294   5.490   0.643
 9020TIP3    H127024   4.240   5.569   0.644
 9020TIP3    H227025   4.377   5.519   0.604
 9021TIP3   OH227026   2.201   4.826   1.069
 9021TIP3    H127027   2.230   4.917   1.060
 9021TIP3    H227028   2.246   4.779   0.999
 9022TIP3   OH227029   1.060   4.289   2.864
 9022TIP3    H127030   1.104   4.362   2.909
 9022TIP3    H227031   1.041   4.226   2.933
 9023TIP3   OH227032   0.934   5.732   2.841
 9023TIP3    H127033   0.953   5.778   2.760
 9023TIP3    H227034   0.847   5.695   2.828
 9024TIP3   OH227035   4.652   2.346   3.384
 9024TIP3    H127036   4.676   2.331   3.476
 9024TIP3    H227037   4.702   2.280   3.335
 9025TIP3   OH227038   2.162   0.868   5.113
 9025TIP3    H127039   2.221   0.940   5.088
 9025TIP3    H227040   2.087   0.912   5.152
 9026TIP3   OH227041   1.909   1.109   0.100
 9026TIP3    H127042   1.992   1.121   0.054
 9026TIP3    H227043   1.843   1.149   0.043
 9027TIP3   OH227044   5.486   5.611   0.397
 9027TIP3    H127045   5.510   5.666   0.471
 9027TIP3    H227046   5.566   5.564   0.375
 9028TIP3   OH227047   2.232   1.148   4.590
 9028TIP3    H127048   2.309   1.182   4.544
 9028TIP3    H227049   2.236   1.053   4.577
 9029TIP3   OH227050   3.502   2.313   1.194
 9029TIP3    H127051   3.437   2.373   1.158
 9029TIP3    H227052   3.535   2.359   1.272
 9030TIP3   OH227053   5.075   5.759   0.689
 9030TIP3    H127054   5.111   5.847   0.697
 9030TIP3    H227055   5.034   5.742   0.774
 9031TIP3   OH227056   7.021   3.181   1.209
 9031TIP3    H127057   7.092   3.182   1.273
 9031TIP3    H227058   7.031   3.262   1.160
 9032TIP3   OH227059   2.850   0.646   3.759
 9032TIP3    H127060   2.872   0.554   3.741
 9032TIP3    H227061   2.816   0.646   3.848
 9033TIP3   OH227062   3.384   3.015   2.989
 9033TIP3    H127063   3.460   2.967   3.021
 9033TIP3    H227064   3.357   3.070   3.063
 9034TIP3   OH227065   2.511   6.118   5.773
 9034TIP3    H127066   2.597   6.106   5.731
 9034TIP3    H227067   2.449   6.119   5.700
 9035TIP3   OH227068   3.768   5.490   0.415
 9035TIP3    H127069   3.710   5.470   0.341
 9035TIP3    H227070   3.709   5.511   0.487
 9036TIP3   OH227071   2.806   5.221   3.469
 9036TIP3    H127072   2.872   5.263   3.525
 9036TIP3    H227073   2.773   5.148   3.521
 9037TIP3   OH227074   3.134   1.290   0.227
 9037TIP3    H127075   3.179   1.208   0.246
 9037TIP3    H227076   3.162   1.313   0.139
 9038TIP3   OH227077   2.365   2.938   1.949
 9038TIP3    H127078   2.442   2.916   2.001
 9038TIP3    H227079   2.329   3.016   1.990
 9039TIP3   OH227080   4.620   0.968   0.242
 9039TIP3    H127081   4.588   1.005   0.160
 9039TIP3    H227082   4.661   0.885   0.217
 9040TIP3   OH227083   4.522   3.222   4.397
 9040TIP3    H127084   4.610   3.248   4.424
 9040TIP3    H227085   4.464   3.257   4.465
 9041TIP3   OH227086   5.956   1.742   4.164
 9041TIP3    H127087   5.999   1.816   4.121
 9041TIP3    H227088   6.008   1.665   4.139
 9042TIP3   OH227089   0.465   3.055   1.174
 9042TIP3    H127090   0.514   3.137   1.169
 9042TIP3    H227091   0.531   2.986   1.175
 9043TIP3   OH227092   1.716   1.653   5.110
 9043TIP3    H127093   1.800   1.617   5.135
 9043TIP3    H227094   1.701   1.725   5.172
 9044TIP3   OH227095   3.981   5.959   5.430
 9044TIP3    H127096   4.025   5.923   5.353
 9044TIP3    H227097   3.935   6.036   5.398
 9045TIP3   OH227098   4.639   3.445   1.217
 9045TIP3    H127099   4.592   3.510   1.269
 9045TIP3    H227100   4.622   3.470   1.126
 9046TIP3   OH227101   2.055   1.312   3.319
 9046TIP3    H127102   2.020   1.318   3.408
 9046TIP3    H227103   2.126   1.376   3.317
 9047TIP3   OH227104   0.081   2.262   1.145
 9047TIP3    H127105   0.050   2.333   1.200
 9047TIP3    H227106   0.001   2.221   1.111
 9048TIP3   OH227107   3.331   2.078   2.127
 9048TIP3    H127108   3.369   2.157   2.090
 9048TIP3    H227109   3.367   2.072   2.215
 9049TIP3   OH227110   1.831   5.350   2.259
 9049TIP3    H127111   1.843   5.439   2.293
 9049TIP3    H227112   1.850   5.357   2.166
 9050TIP3   OH227113   6.053   3.841   2.874
 9050TIP3    H127114   5.992   3.782   2.918
 9050TIP3    H227115   6.099   3.785   2.811
 9051TIP3   OH227116   0.451   2.467   0.801
 9051TIP3    H127117   0.530   2.513   0.772
 9051TIP3    H227118   0.473   2.432   0.887
 9052TIP3   OH227119   4.262   1.805   4.984
 9052TIP3    H127120   4.186   1.845   4.942
 9052TIP3    H227121   4.303   1.876   5.034
 9053TIP3   OH227122   1.152   3.776   3.470
 9053TIP3    H127123   1.146   3.732   3.555
 9053TIP3    H227124   1.079   3.739   3.419
 9054TIP3   OH227125   4.913   2.529   1.474
 9054TIP3    H127126   4.818   2.526   1.466
 9054TIP3    H227127   4.939   2.437   1.474
 9055TIP3   OH227128   1.065   0.065   3.913
 9055TIP3    H127129   1.016   0.113   3.980
 9055TIP3    H227130   1.011  -0.012   3.895
 9056TIP3   OH227131   0.418   0.207   2.763
 9056TIP3    H127132   0.439   0.133   2.819
 9056TIP3    H227133   0.474   0.278   2.795
 9057TIP3   OH227134   3.356   0.586   2.344
 9057TIP3    H127135   3.290   0.539   2.396
 9057TIP3    H227136   3.332   0.678   2.355
 9058TIP3   OH227137   3.741   5.532   5.696
 9058TIP3    H127138   3.726   5.442   5.667
 9058TIP3    H227139   3.717   5.586   5.620
 9059TIP3   OH227140   3.075   1.996   2.250
 9059TIP3    H127141   3.128   2.019   2.174
 9059TIP3    H227142   3.030   2.078   2.273
 9060TIP3   OH227143   1.059   0.081   5.353
 9060TIP3    H127144   1.047   0.099   5.447
 9060TIP3    H227145   1.136   0.025   5.349
 9061TIP3   OH227146   4.764   5.997   1.016
 9061TIP3    H127147   4.732   6.011   0.926
 9061TIP3    H227148   4.725   6.068   1.067
 9062TIP3   OH227149   2.428   4.272   2.400
 9062TIP3    H127150   2.397   4.277   2.490
 9062TIP3    H227151   2.496   4.204   2.402
 9063TIP3   OH227152  -0.038   3.513   4.227
 9063TIP3    H127153  -0.032   3.466   4.310
 9063TIP3    H227154  -0.094   3.458   4.172
 9064TIP3   OH227155   6.950   6.195   0.077
 9064TIP3    H127156   6.943   6.214   0.170
 9064TIP3    H227157   6.860   6.183   0.047
 9065TIP3   OH227158   6.909   3.775   5.027
 9065TIP3    H127159   6.959   3.835   5.082
 9065TIP3    H227160   6.967   3.701   5.012
 9066TIP3   OH227161   3.434   5.305   5.710
 9066TIP3    H127162   3.518   5.262   5.697
 9066TIP3    H227163   3.417   5.295   5.804
 9067TIP3   OH227164   1.576   0.458   5.730
 9067TIP3    H127165   1.578   0.446   5.635
 9067TIP3    H227166   1.529   0.382   5.763
 9068TIP3   OH227167   6.038   5.338   3.138
 9068TIP3    H127168   5.986   5.294   3.072
 9068TIP3    H227169   6.084   5.267   3.184
 9069TIP3   OH227170   2.150   1.925   2.801
 9069TIP3    H127171   2.107   1.857   2.853
 9069TIP3    H227172   2.081   1.987   2.780
 9070TIP3   OH227173   2.020   1.026   2.791
 9070TIP3    H127174   2.094   1.038   2.850
 9070TIP3    H227175   2.017   1.106   2.739
 9071TIP3   OH227176   7.019   3.560   1.448
 9071TIP3    H127177   7.081   3.606   1.505
 9071TIP3    H227178   6.979   3.494   1.506
 9072TIP3   OH227179   1.014   6.105   1.157
 9072TIP3    H127180   1.017   6.018   1.199
 9072TIP3    H227181   0.993   6.165   1.229
 9073TIP3   OH227182   0.746   3.799   0.384
 9073TIP3    H127183   0.702   3.798   0.468
 9073TIP3    H227184   0.676   3.816   0.320
 9074TIP3   OH227185   4.665   4.355   2.051
 9074TIP3    H127186   4.654   4.425   2.115
 9074TIP3    H227187   4.760   4.345   2.042
 9075TIP3   OH227188   3.716   2.334   0.221
 9075TIP3    H127189   3.659   2.380   0.283
 9075TIP3    H227190   3.790   2.393   0.209
 9076TIP3   OH227191   0.192   4.723   3.792
 9076TIP3    H127192   0.258   4.654   3.804
 9076TIP3    H227193   0.189   4.736   3.697
 9077TIP3   OH227194   7.031   4.848   2.457
 9077TIP3    H127195   6.947   4.888   2.477
 9077TIP3    H227196   7.011   4.759   2.430
 9078TIP3   OH227197   3.697   4.105   1.376
 9078TIP3    H127198   3.701   4.071   1.465
 9078TIP3    H227199   3.752   4.183   1.378
 9079TIP3   OH227200   2.273   1.744   5.371
 9079TIP3    H127201   2.347   1.756   5.311
 9079TIP3    H227202   2.196   1.764   5.318
 9080TIP3   OH227203   4.122   4.669   5.785
 9080TIP3    H127204   4.175   4.660   5.706
 9080TIP3    H227205   4.155   4.747   5.828
 9081TIP3   OH227206   4.095   2.252   4.385
 9081TIP3    H127207   4.153   2.280   4.456
 9081TIP3    H227208   4.138   2.283   4.305
 9082TIP3   OH227209   3.932   2.344   1.343
 9082TIP3    H127210   3.850   2.386   1.368
 9082TIP3    H227211   3.991   2.362   1.416
 9083TIP3   OH227212   5.824   1.843   5.717
 9083TIP3    H127213   5.827   1.905   5.790
 9083TIP3    H227214   5.882   1.881   5.652
 9084TIP3   OH227215   1.621   0.658   4.339
 9084TIP3    H127216   1.600   0.565   4.335
 9084TIP3    H227217   1.541   0.700   4.369
 9085TIP3   OH227218   1.315   1.546   1.434
 9085TIP3    H127219   1.368   1.468   1.447
 9085TIP3    H227220   1.291   1.574   1.522
 9086TIP3   OH227221   5.325   0.518   4.058
 9086TIP3    H127222   5.261   0.581   4.091
 9086TIP3    H227223   5.405   0.538   4.106
 9087TIP3   OH227224   0.297   1.285   0.380
 9087TIP3    H127225   0.327   1.365   0.336
 9087TIP3    H227226   0.330   1.294   0.469
 9088TIP3   OH227227   3.812   1.984   1.820
 9088TIP3    H127228   3.739   2.043   1.801
 9088TIP3    H227229   3.879   2.006   1.756
 9089TIP3   OH227230   5.252   3.764   3.415
 9089TIP3    H127231   5.207   3.757   3.499
 9089TIP3    H227232   5.183   3.770   3.350
 9090TIP3   OH227233   3.859   4.625   1.746
 9090TIP3    H127234   3.930   4.598   1.806
 9090TIP3    H227235   3.903   4.678   1.680
 9091TIP3   OH227236   0.659   4.910   0.357
 9091TIP3    H127237   0.572   4.902   0.397
 9091TIP3    H227238   0.717   4.859   0.414
 9092TIP3   OH227239   1.079   5.641   1.426
 9092TIP3    H127240   1.097   5.690   1.346
 9092TIP3    H227241   1.086   5.706   1.496
 9093TIP3   OH227242   7.123   3.686   0.181
 9093TIP3    H127243   7.113   3.665   0.088
 9093TIP3    H227244   7.057   3.754   0.196
 9094TIP3   OH227245   6.153   0.389   0.589
 9094TIP3    H127246   6.155   0.444   0.511
 9094TIP3    H227247   6.060   0.373   0.604
 9095TIP3   OH227248   2.341   0.446   2.123
 9095TIP3    H127249   2.367   0.476   2.210
 9095TIP3    H227250   2.288   0.518   2.088
 9096TIP3   OH227251   4.374   5.198   5.726
 9096TIP3    H127252   4.391   5.293   5.730
 9096TIP3    H227253   4.280   5.192   5.707
 9097TIP3   OH227254   7.174   3.669   0.865
 9097TIP3    H127255   7.163   3.693   0.773
 9097TIP3    H227256   7.108   3.601   0.880
 9098TIP3   OH227257   7.120   6.354   0.591
 9098TIP3    H127258   7.044   6.312   0.630
 9098TIP3    H227259   7.193   6.328   0.648
 9099TIP3   OH227260   6.988   0.171   0.965
 9099TIP3    H127261   7.008   0.189   1.057
 9099TIP3    H227262   6.914   0.110   0.969
 9100TIP3   OH227263   5.348   1.127   4.207
 9100TIP3    H127264   5.381   1.181   4.279
 9100TIP3    H227265   5.355   1.037   4.239
 9101TIP3   OH227266   3.811   4.893   3.172
 9101TIP3    H127267   3.788   4.937   3.254
 9101TIP3    H227268   3.779   4.951   3.104
 9102TIP3   OH227269   4.634   2.188   2.224
 9102TIP3    H127270   4.702   2.247   2.255
 9102TIP3    H227271   4.682   2.119   2.177
 9103TIP3   OH227272   5.912   5.650   0.423
 9103TIP3    H127273   5.933   5.559   0.406
 9103TIP3    H227274   5.913   5.657   0.519
 9104TIP3   OH227275   1.325   3.988   4.061
 9104TIP3    H127276   1.309   3.900   4.097
 9104TIP3    H227277   1.410   4.013   4.097
 9105TIP3   OH227278   3.260   2.801   1.672
 9105TIP3    H127279   3.192   2.734   1.668
 9105TIP3    H227280   3.277   2.812   1.765
 9106TIP3   OH227281   5.718   2.115   0.695
 9106TIP3    H127282   5.672   2.167   0.761
 9106TIP3    H227283   5.681   2.027   0.705
 9107TIP3   OH227284   7.060   3.549   5.017
 9107TIP3    H127285   7.147   3.573   5.049
 9107TIP3    H227286   7.026   3.488   5.083
 9108TIP3   OH227287   0.831   0.262   0.604
 9108TIP3    H127288   0.841   0.357   0.607
 9108TIP3    H227289   0.749   0.248   0.558
 9109TIP3   OH227290   0.153   1.898   1.259
 9109TIP3    H127291   0.140   1.808   1.290
 9109TIP3    H227292   0.107   1.952   1.323
 9110TIP3   OH227293   2.251   5.082   0.951
 9110TIP3    H127294   2.323   5.141   0.972
 9110TIP3    H227295   2.273   5.049   0.863
 9111TIP3   OH227296   2.135   0.604   3.898
 9111TIP3    H127297   2.134   0.628   3.806
 9111TIP3    H227298   2.143   0.508   3.898
 9112TIP3   OH227299   4.185   3.979   4.461
 9112TIP3    H127300   4.224   3.972   4.374
 9112TIP3    H227301   4.236   4.046   4.505
 9113TIP3   OH227302   3.968   4.667   1.514
 9113TIP3    H127303   4.063   4.664   1.502
 9113TIP3    H227304   3.938   4.731   1.450
 9114TIP3   OH227305   0.523   2.236   1.764
 9114TIP3    H127306   0.492   2.200   1.681
 9114TIP3    H227307   0.579   2.167   1.802
 9115TIP3   OH227308   5.897   0.489   5.808
 9115TIP3    H127309   5.850   0.483   5.891
 9115TIP3    H227310   5.951   0.568   5.817
 9116TIP3   OH227311   5.549   6.800   4.294
 9116TIP3    H127312   5.612   6.728   4.285
 9116TIP3    H227313   5.467   6.757   4.318
 9117TIP3   OH227314   5.845   3.543   0.182
 9117TIP3    H127315   5.807   3.533   0.094
 9117TIP3    H227316   5.850   3.638   0.194
 9118TIP3   OH227317   6.144   5.298   2.098
 9118TIP3    H127318   6.063   5.289   2.047
 9118TIP3    H227319   6.187   5.213   2.089
 9119TIP3   OH227320   2.264   5.163   0.282
 9119TIP3    H127321   2.288   5.255   0.274
 9119TIP3    H227322   2.178   5.163   0.325
 9120TIP3   OH227323   3.000   0.702   2.469
 9120TIP3    H127324   3.060   0.716   2.395
 9120TIP3    H227325   3.051   0.650   2.531
 9121TIP3   OH227326   1.711   5.524   2.936
 9121TIP3    H127327   1.726   5.575   2.857
 9121TIP3    H227328   1.616   5.514   2.941
 9122TIP3   OH227329   0.139   4.761   4.560
 9122TIP3    H127330   0.209   4.816   4.525
 9122TIP3    H227331   0.110   4.708   4.486
 9123TIP3   OH227332   1.554   2.370   5.423
 9123TIP3    H127333   1.470   2.405   5.454
 9123TIP3    H227334   1.558   2.398   5.331
 9124TIP3   OH227335   0.589   6.427   2.064
 9124TIP3    H127336   0.655   6.475   2.113
 9124TIP3    H227337   0.614   6.335   2.073
 9125TIP3   OH227338   6.506   1.458   2.636
 9125TIP3    H127339   6.599   1.478   2.636
 9125TIP3    H227340   6.498   1.384   2.697
 9126TIP3   OH227341   5.103   5.638   3.559
 9126TIP3    H127342   5.167   5.606   3.624
 9126TIP3    H227343   5.114   5.578   3.485
 9127TIP3   OH227344   4.654   2.820   3.445
 9127TIP3    H127345   4.571   2.805   3.400
 9127TIP3    H227346   4.675   2.912   3.429
 9128TIP3   OH227347   2.071   1.355   2.938
 9128TIP3    H127348   2.025   1.298   2.999
 9128TIP3    H227349   2.125   1.296   2.885
 9129TIP3   OH227350   1.052   6.504   2.429
 9129TIP3    H127351   1.104   6.537   2.502
 9129TIP3    H227352   1.100   6.530   2.351
 9130TIP3   OH227353   3.861   0.133   5.133
 9130TIP3    H127354   3.851   0.147   5.039
 9130TIP3    H227355   3.812   0.206   5.173
 9131TIP3   OH227356   2.227   5.437   0.921
 9131TIP3    H127357   2.154   5.395   0.966
 9131TIP3    H227358   2.298   5.374   0.927
 9132TIP3   OH227359   6.341   0.419   3.827
 9132TIP3    H127360   6.279   0.461   3.766
 9132TIP3    H227361   6.327   0.325   3.815
 9133TIP3   OH227362   1.436   4.059   0.767
 9133TIP3    H127363   1.388   4.048   0.685
 9133TIP3    H227364   1.463   3.970   0.792
 9134TIP3   OH227365   4.712   2.792   3.115
 9134TIP3    H127366   4.652   2.866   3.123
 9134TIP3    H227367   4.793   2.822   3.155
 9135TIP3   OH227368   3.728   6.153   4.033
 9135TIP3    H127369   3.814   6.195   4.044
 9135TIP3    H227370   3.715   6.150   3.938
 9136TIP3   OH227371   2.701   0.103   4.561
 9136TIP3    H127372   2.664   0.061   4.638
 9136TIP3    H227373   2.707   0.034   4.495
 9137TIP3   OH227374   3.023   6.097   4.353
 9137TIP3    H127375   3.039   6.074   4.444
 9137TIP3    H227376   3.090   6.050   4.304
 9138TIP3   OH227377   3.895   0.567   5.124
 9138TIP3    H127378   3.821   0.510   5.146
 9138TIP3    H227379   3.863   0.622   5.053
 9139TIP3   OH227380   4.534   3.835   0.434
 9139TIP3    H127381   4.501   3.837   0.524
 9139TIP3    H227382   4.569   3.746   0.423
 9140TIP3   OH227383   3.958   5.915   5.819
 9140TIP3    H127384   3.891   5.884   5.757
 9140TIP3    H227385   4.028   5.948   5.764
 9141TIP3   OH227386   2.931   1.002   1.299
 9141TIP3    H127387   3.000   1.063   1.327
 9141TIP3    H227388   2.925   1.014   1.204
 9142TIP3   OH227389   4.078   3.581   1.030
 9142TIP3    H127390   4.009   3.525   0.995
 9142TIP3    H227391   4.040   3.668   1.033
 9143TIP3   OH227392   2.337   3.862   1.937
 9143TIP3    H127393   2.330   3.822   1.850
 9143TIP3    H227394   2.284   3.942   1.931
 9144TIP3   OH227395   4.491   5.195   1.634
 9144TIP3    H127396   4.522   5.230   1.550
 9144TIP3    H227397   4.435   5.265   1.669
 9145TIP3   OH227398   0.626   4.012   3.723
 9145TIP3    H127399   0.662   3.963   3.797
 9145TIP3    H227400   0.534   3.985   3.719
 9146TIP3   OH227401   2.124   5.007   5.779
 9146TIP3    H127402   2.183   4.931   5.771
 9146TIP3    H227403   2.108   5.016   5.873
 9147TIP3   OH227404   2.823   0.966   3.447
 9147TIP3    H127405   2.834   0.877   3.482
 9147TIP3    H227406   2.748   0.959   3.388
 9148TIP3   OH227407   2.425   0.208   0.271
 9148TIP3    H127408   2.439   0.114   0.285
 9148TIP3    H227409   2.341   0.226   0.313
 9149TIP3   OH227410   5.699   4.141   2.097
 9149TIP3    H127411   5.757   4.217   2.107
 9149TIP3    H227412   5.742   4.071   2.145
 9150TIP3   OH227413   2.804   0.376   2.029
 9150TIP3    H127414   2.861   0.327   1.970
 9150TIP3    H227415   2.715   0.352   2.004
 9151TIP3   OH227416   0.873   6.502   0.884
 9151TIP3    H127417   0.845   6.530   0.971
 9151TIP3    H227418   0.831   6.563   0.824
 9152TIP3   OH227419   5.806   6.557   2.267
 9152TIP3    H127420   5.786   6.639   2.312
 9152TIP3    H227421   5.857   6.506   2.331
 9153TIP3   OH227422   1.894   2.021   1.759
 9153TIP3    H127423   1.974   2.057   1.798
 9153TIP3    H227424   1.897   2.048   1.668
 9154TIP3   OH227425   3.873   3.346   0.436
 9154TIP3    H127426   3.820   3.425   0.448
 9154TIP3    H227427   3.944   3.374   0.377
 9155TIP3   OH227428   4.755   0.499   4.480
 9155TIP3    H127429   4.746   0.480   4.573
 9155TIP3    H227430   4.702   0.433   4.436
 9156TIP3   OH227431   0.837   4.041   5.191
 9156TIP3    H127432   0.922   4.007   5.162
 9156TIP3    H227433   0.858   4.094   5.268
 9157TIP3   OH227434   3.872   1.303   5.165
 9157TIP3    H127435   3.849   1.216   5.195
 9157TIP3    H227436   3.797   1.330   5.111
 9158TIP3   OH227437   1.754   3.195   0.167
 9158TIP3    H127438   1.738   3.126   0.231
 9158TIP3    H227439   1.764   3.275   0.220
 9159TIP3   OH227440   4.019   2.171  -0.028
 9159TIP3    H127441   3.991   2.260  -0.008
 9159TIP3    H227442   3.986   2.155  -0.117
 9160TIP3   OH227443   0.154   3.120   0.148
 9160TIP3    H127444   0.243   3.132   0.181
 9160TIP3    H227445   0.165   3.068   0.068
 9161TIP3   OH227446   5.302   3.091   4.702
 9161TIP3    H127447   5.328   3.089   4.610
 9161TIP3    H227448   5.384   3.084   4.750
 9162TIP3   OH227449   5.940   2.551   4.644
 9162TIP3    H127450   5.994   2.480   4.680
 9162TIP3    H227451   5.850   2.524   4.662
 9163TIP3   OH227452   1.748   6.384   4.429
 9163TIP3    H127453   1.819   6.371   4.492
 9163TIP3    H227454   1.787   6.438   4.360
 9164TIP3   OH227455   6.958   1.090   2.214
 9164TIP3    H127456   7.013   1.147   2.160
 9164TIP3    H227457   6.980   1.001   2.185
 9165TIP3   OH227458   0.541   6.777   2.425
 9165TIP3    H127459   0.449   6.801   2.410
 9165TIP3    H227460   0.555   6.701   2.368
 9166TIP3   OH227461   6.451   6.280   5.852
 9166TIP3    H127462   6.440   6.267   5.758
 9166TIP3    H227463   6.512   6.212   5.879
 9167TIP3   OH227464   0.304   1.843   3.800
 9167TIP3    H127465   0.340   1.756   3.784
 9167TIP3    H227466   0.258   1.866   3.720
 9168TIP3   OH227467   2.607   5.424   4.576
 9168TIP3    H127468   2.513   5.415   4.588
 9168TIP3    H227469   2.627   5.512   4.608
 9169TIP3   OH227470   4.216   2.770   2.962
 9169TIP3    H127471   4.178   2.836   3.019
 9169TIP3    H227472   4.197   2.686   3.005
 9170TIP3   OH227473   2.677   1.277   3.475
 9170TIP3    H127474   2.708   1.217   3.543
 9170TIP3    H227475   2.733   1.354   3.484
 9171TIP3   OH227476   6.407   3.831   4.666
 9171TIP3    H127477   6.485   3.791   4.629
 9171TIP3    H227478   6.433   3.921   4.687
 9172TIP3   OH227479   0.492   2.651   1.114
 9172TIP3    H127480   0.491   2.655   1.209
 9172TIP3    H227481   0.570   2.699   1.088
 9173TIP3   OH227482   0.140   1.313   4.372
 9173TIP3    H127483   0.172   1.239   4.321
 9173TIP3    H227484   0.150   1.285   4.463
 9174TIP3   OH227485   7.215   1.069   1.936
 9174TIP3    H127486   7.270   1.061   1.858
 9174TIP3    H227487   7.167   0.986   1.940
 9175TIP3   OH227488   3.464   2.411   5.791
 9175TIP3    H127489   3.422   2.326   5.780
 9175TIP3    H227490   3.394   2.475   5.780
 9176TIP3   OH227491   2.904   5.197   1.922
 9176TIP3    H127492   2.900   5.119   1.866
 9176TIP3    H227493   2.996   5.223   1.921
 9177TIP3   OH227494   0.086   4.842   2.893
 9177TIP3    H127495   0.175   4.843   2.858
 9177TIP3    H227496   0.072   4.931   2.925
 9178TIP3   OH227497   3.425   5.438   5.004
 9178TIP3    H127498   3.487   5.378   4.963
 9178TIP3    H227499   3.344   5.426   4.955
 9179TIP3   OH227500   6.880   6.680   0.924
 9179TIP3    H127501   6.799   6.731   0.924
 9179TIP3    H227502   6.893   6.656   1.016
 9180TIP3   OH227503   4.491   2.065   2.425
 9180TIP3    H127504   4.463   2.145   2.469
 9180TIP3    H227505   4.539   2.095   2.348
 9181TIP3   OH227506   0.111   1.794   2.068
 9181TIP3    H127507   0.177   1.775   2.001
 9181TIP3    H227508   0.162   1.807   2.148
 9182TIP3   OH227509   3.512   2.486   0.353
 9182TIP3    H127510   3.420   2.473   0.376
 9182TIP3    H227511   3.543   2.552   0.415
 9183TIP3   OH227512   1.431   0.704   0.772
 9183TIP3    H127513   1.357   0.764   0.766
 9183TIP3    H227514   1.459   0.692   0.681
 9184TIP3   OH227515   1.433   3.862   2.211
 9184TIP3    H127516   1.512   3.857   2.157
 9184TIP3    H227517   1.365   3.891   2.150
 9185TIP3   OH227518   3.445   3.377   1.344
 9185TIP3    H127519   3.361   3.416   1.322
 9185TIP3    H227520   3.507   3.450   1.340
 9186TIP3   OH227521   2.471   3.954   2.625
 9186TIP3    H127522   2.498   3.885   2.687
 9186TIP3    H227523   2.384   3.927   2.595
 9187TIP3   OH227524   2.614   0.201   2.280
 9187TIP3    H127525   2.543   0.258   2.308
 9187TIP3    H227526   2.692   0.257   2.283
 9188TIP3   OH227527   2.679   0.632   1.639
 9188TIP3    H127528   2.613   0.575   1.680
 9188TIP3    H227529   2.632   0.714   1.622
 9189TIP3   OH227530   2.623   2.425   3.851
 9189TIP3    H127531   2.606   2.352   3.792
 9189TIP3    H227532   2.596   2.503   3.802
 9190TIP3   OH227533   5.233   1.102   4.670
 9190TIP3    H127534   5.246   1.152   4.750
 9190TIP3    H227535   5.170   1.035   4.693
 9191TIP3   OH227536   4.680   0.402   4.723
 9191TIP3    H127537   4.655   0.461   4.793
 9191TIP3    H227538   4.628   0.323   4.738
 9192TIP3   OH227539   4.757   5.127   2.360
 9192TIP3    H127540   4.726   5.038   2.375
 9192TIP3    H227541   4.801   5.124   2.276
 9193TIP3   OH227542   2.417   5.711   3.271
 9193TIP3    H127543   2.361   5.736   3.198
 9193TIP3    H227544   2.364   5.650   3.322
 9194TIP3   OH227545   7.074   6.176   2.514
 9194TIP3    H127546   7.047   6.245   2.575
 9194TIP3    H227547   7.020   6.101   2.537
 9195TIP3   OH227548   4.737   6.605   1.125
 9195TIP3    H127549   4.820   6.623   1.169
 9195TIP3    H227550   4.749   6.639   1.037
 9196TIP3   OH227551   6.429   5.797   2.786
 9196TIP3    H127552   6.339   5.830   2.791
 9196TIP3    H227553   6.445   5.758   2.872
 9197TIP3   OH227554   4.898   1.007   1.045
 9197TIP3    H127555   4.872   1.051   1.126
 9197TIP3    H227556   4.947   0.930   1.075
 9198TIP3   OH227557   0.911   4.013   4.618
 9198TIP3    H127558   0.826   4.055   4.610
 9198TIP3    H227559   0.962   4.049   4.546
 9199TIP3   OH227560   0.867   0.815   0.399
 9199TIP3    H127561   0.841   0.891   0.450
 9199TIP3    H227562   0.956   0.795   0.429
 9200TIP3   OH227563   6.091   4.896   1.048
 9200TIP3    H127564   6.024   4.879   1.114
 9200TIP3    H227565   6.057   4.972   1.000
 9201TIP3   OH227566   3.538   1.528   2.532
 9201TIP3    H127567   3.557   1.601   2.473
 9201TIP3    H227568   3.544   1.450   2.478
 9202TIP3   OH227569   6.745   6.198   1.557
 9202TIP3    H127570   6.677   6.264   1.547
 9202TIP3    H227571   6.819   6.245   1.596
 9203TIP3   OH227572   3.474   4.513   3.779
 9203TIP3    H127573   3.380   4.497   3.770
 9203TIP3    H227574   3.507   4.436   3.825
 9204TIP3   OH227575   6.500   1.613   1.252
 9204TIP3    H127576   6.407   1.608   1.234
 9204TIP3    H227577   6.505   1.658   1.337
 9205TIP3   OH227578   5.043   6.542   2.910
 9205TIP3    H127579   5.038   6.506   2.821
 9205TIP3    H227580   4.971   6.605   2.914
 9206TIP3   OH227581   2.981   2.624   3.365
 9206TIP3    H127582   2.905   2.605   3.310
 9206TIP3    H227583   2.966   2.573   3.445
 9207TIP3   OH227584   0.712   2.928   5.779
 9207TIP3    H127585   0.762   2.848   5.797
 9207TIP3    H227586   0.676   2.915   5.691
 9208TIP3   OH227587   6.985   5.067   4.185
 9208TIP3    H127588   6.915   5.074   4.250
 9208TIP3    H227589   6.949   5.107   4.106
 9209TIP3   OH227590   1.603   4.330   4.979
 9209TIP3    H127591   1.526   4.360   5.028
 9209TIP3    H227592   1.609   4.237   4.999
 9210TIP3   OH227593   2.601   0.499   0.417
 9210TIP3    H127594   2.679   0.545   0.446
 9210TIP3    H227595   2.585   0.433   0.484
 9211TIP3   OH227596   3.207   3.123   4.430
 9211TIP3    H127597   3.116   3.150   4.445
 9211TIP3    H227598   3.246   3.124   4.517
 9212TIP3   OH227599   6.268   6.303   4.510
 9212TIP3    H127600   6.332   6.326   4.578
 9212TIP3    H227601   6.201   6.370   4.516
 9213TIP3   OH227602   0.922   3.104   2.117
 9213TIP3    H127603   0.870   3.025   2.130
 9213TIP3    H227604   0.958   3.095   2.029
 9214TIP3   OH227605   2.592   2.716   3.390
 9214TIP3    H127606   2.544   2.713   3.307
 9214TIP3    H227607   2.590   2.808   3.415
 9215TIP3   OH227608   0.914   1.588   5.235
 9215TIP3    H127609   0.885   1.666   5.282
 9215TIP3    H227610   0.895   1.607   5.143
 9216TIP3   OH227611   7.193   3.425   1.154
 9216TIP3    H127612   7.134   3.498   1.171
 9216TIP3    H227613   7.200   3.420   1.059
 9217TIP3   OH227614   4.406   6.145   1.707
 9217TIP3    H127615   4.411   6.183   1.619
 9217TIP3    H227616   4.312   6.142   1.725
 9218TIP3   OH227617   5.043   1.704   1.393
 9218TIP3    H127618   5.090   1.692   1.476
 9218TIP3    H227619   5.023   1.615   1.364
 9219TIP3   OH227620   1.157   5.832   2.576
 9219TIP3    H127621   1.205   5.820   2.494
 9219TIP3    H227622   1.126   5.745   2.600
 9220TIP3   OH227623   6.130   4.616   0.950
 9220TIP3    H127624   6.111   4.700   0.992
 9220TIP3    H227625   6.217   4.592   0.982
 9221TIP3   OH227626   1.986   3.164   2.644
 9221TIP3    H127627   2.063   3.108   2.658
 9221TIP3    H227628   2.019   3.237   2.591
 9222TIP3   OH227629   4.694   2.164   2.782
 9222TIP3    H127630   4.676   2.086   2.834
 9222TIP3    H227631   4.631   2.229   2.814
 9223TIP3   OH227632   3.467   1.867   2.729
 9223TIP3    H127633   3.439   1.872   2.637
 9223TIP3    H227634   3.384   1.864   2.778
 9224TIP3   OH227635   2.330   5.801   3.847
 9224TIP3    H127636   2.328   5.747   3.927
 9224TIP3    H227637   2.423   5.812   3.828
 9225TIP3   OH227638   0.412   2.352   1.242
 9225TIP3    H127639   0.445   2.331   1.155
 9225TIP3    H227640   0.398   2.447   1.240
 9226TIP3   OH227641   1.002   0.538   3.754
 9226TIP3    H127642   0.984   0.629   3.776
 9226TIP3    H227643   1.055   0.542   3.674
 9227TIP3   OH227644   4.200   6.359   4.794
 9227TIP3    H127645   4.220   6.439   4.843
 9227TIP3    H227646   4.108   6.342   4.812
 9228TIP3   OH227647   5.329   1.253   0.894
 9228TIP3    H127648   5.233   1.252   0.900
 9228TIP3    H227649   5.358   1.243   0.985
 9229TIP3   OH227650   0.383   5.486   2.272
 9229TIP3    H127651   0.376   5.466   2.178
 9229TIP3    H227652   0.413   5.577   2.275
 9230TIP3   OH227653   3.599   0.294   3.175
 9230TIP3    H127654   3.562   0.377   3.145
 9230TIP3    H227655   3.537   0.261   3.240
 9231TIP3   OH227656   5.779   2.573   2.734
 9231TIP3    H127657   5.714   2.503   2.735
 9231TIP3    H227658   5.756   2.627   2.659
 9232TIP3   OH227659   0.738   5.551   2.759
 9232TIP3    H127660   0.698   5.533   2.673
 9232TIP3    H227661   0.673   5.520   2.822
 9233TIP3   OH227662   4.886   4.146   3.079
 9233TIP3    H127663   4.805   4.111   3.115
 9233TIP3    H227664   4.937   4.171   3.156
 9234TIP3   OH227665   3.518   5.399   5.270
 9234TIP3    H127666   3.445   5.364   5.321
 9234TIP3    H227667   3.480   5.419   5.184
 9235TIP3   OH227668   3.491   6.438   0.191
 9235TIP3    H127669   3.578   6.404   0.212
 9235TIP3    H227670   3.504   6.532   0.177
 9236TIP3   OH227671   4.105   3.478   1.659
 9236TIP3    H127672   4.168   3.449   1.592
 9236TIP3    H227673   4.119   3.572   1.666
 9237TIP3   OH227674   1.521   4.193   3.989
 9237TIP3    H127675   1.430   4.218   4.002
 9237TIP3    H227676   1.564   4.215   4.071
 9238TIP3   OH227677   1.538   0.534   3.465
 9238TIP3    H127678   1.506   0.454   3.424
 9238TIP3    H227679   1.602   0.505   3.530
 9239TIP3   OH227680   6.239   2.240   2.243
 9239TIP3    H127681   6.272   2.165   2.293
 9239TIP3    H227682   6.172   2.203   2.186
 9240TIP3   OH227683   1.040   4.763   5.720
 9240TIP3    H127684   1.009   4.755   5.629
 9240TIP3    H227685   0.961   4.776   5.771
 9241TIP3   OH227686   3.048   2.720   3.973
 9241TIP3    H127687   3.065   2.646   3.914
 9241TIP3    H227688   3.134   2.753   3.996
 9242TIP3   OH227689   0.405   5.013   0.058
 9242TIP3    H127690   0.459   4.935   0.044
 9242TIP3    H227691   0.450   5.082   0.009
 9243TIP3   OH227692   4.454   2.499   0.109
 9243TIP3    H127693   4.385   2.496   0.042
 9243TIP3    H227694   4.407   2.512   0.192
 9244TIP3   OH227695   3.287   0.766   5.330
 9244TIP3    H127696   3.335   0.842   5.362
 9244TIP3    H227697   3.248   0.796   5.247
 9245TIP3   OH227698   4.761   5.154   5.123
 9245TIP3    H127699   4.727   5.216   5.187
 9245TIP3    H227700   4.707   5.167   5.045
 9246TIP3   OH227701   6.467   2.617   5.498
 9246TIP3    H127702   6.523   2.611   5.420
 9246TIP3    H227703   6.469   2.528   5.535
 9247TIP3   OH227704   7.049   4.593   1.252
 9247TIP3    H127705   6.971   4.645   1.236
 9247TIP3    H227706   7.016   4.507   1.278
 9248TIP3   OH227707   0.396   3.872   0.809
 9248TIP3    H127708   0.366   3.838   0.893
 9248TIP3    H227709   0.331   3.839   0.746
 9249TIP3   OH227710   5.825   4.062   4.866
 9249TIP3    H127711   5.832   4.048   4.960
 9249TIP3    H227712   5.863   3.983   4.827
 9250TIP3   OH227713   2.169   1.863   3.320
 9250TIP3    H127714   2.151   1.777   3.359
 9250TIP3    H227715   2.105   1.921   3.361
 9251TIP3   OH227716   3.288   2.858   4.353
 9251TIP3    H127717   3.287   2.950   4.377
 9251TIP3    H227718   3.256   2.855   4.263
 9252TIP3   OH227719   0.954   2.797   0.584
 9252TIP3    H127720   0.968   2.734   0.655
 9252TIP3    H227721   1.040   2.805   0.542
 9253TIP3   OH227722   0.953   3.084   1.031
 9253TIP3    H127723   1.017   3.015   1.047
 9253TIP3    H227724   0.977   3.120   0.945
 9254TIP3   OH227725   1.774   1.922   0.100
 9254TIP3    H127726   1.696   1.977   0.094
 9254TIP3    H227727   1.767   1.882   0.187
 9255TIP3   OH227728   6.177   2.065   5.393
 9255TIP3    H127729   6.139   2.153   5.388
 9255TIP3    H227730   6.257   2.077   5.444
 9256TIP3   OH227731   4.192   5.378   1.433
 9256TIP3    H127732   4.264   5.440   1.444
 9256TIP3    H227733   4.116   5.432   1.417
 9257TIP3   OH227734   2.635   4.213   4.693
 9257TIP3    H127735   2.637   4.138   4.752
 9257TIP3    H227736   2.696   4.276   4.731
 9258TIP3   OH227737   6.280   3.153   4.574
 9258TIP3    H127738   6.341   3.080   4.585
 9258TIP3    H227739   6.336   3.228   4.553
 9259TIP3   OH227740   2.488   5.777   5.279
 9259TIP3    H127741   2.421   5.792   5.345
 9259TIP3    H227742   2.476   5.686   5.253
 9260TIP3   OH227743   2.891   5.864   3.496
 9260TIP3    H127744   2.907   5.860   3.590
 9260TIP3    H227745   2.820   5.801   3.481
 9261TIP3   OH227746   3.058   1.551   5.300
 9261TIP3    H127747   3.126   1.483   5.296
 9261TIP3    H227748   3.072   1.593   5.386
 9262TIP3   OH227749   6.472   5.581   1.163
 9262TIP3    H127750   6.568   5.572   1.164
 9262TIP3    H227751   6.443   5.521   1.094
 9263TIP3   OH227752   0.201   3.781   3.757
 9263TIP3    H127753   0.179   3.708   3.699
 9263TIP3    H227754   0.117   3.817   3.785
 9264TIP3   OH227755   4.324   5.864   5.307
 9264TIP3    H127756   4.385   5.825   5.244
 9264TIP3    H227757   4.241   5.820   5.290
 9265TIP3   OH227758   1.417   6.106   0.420
 9265TIP3    H127759   1.484   6.068   0.477
 9265TIP3    H227760   1.343   6.046   0.428
 9266TIP3   OH227761   4.109   0.096   3.593
 9266TIP3    H127762   4.195   0.106   3.633
 9266TIP3    H227763   4.116   0.144   3.510
 9267TIP3   OH227764   1.430   2.569   5.193
 9267TIP3    H127765   1.381   2.596   5.271
 9267TIP3    H227766   1.462   2.651   5.155
 9268TIP3   OH227767   2.971   1.578   1.499
 9268TIP3    H127768   2.880   1.602   1.478
 9268TIP3    H227769   3.023   1.621   1.432
 9269TIP3   OH227770   4.565   5.172   4.634
 9269TIP3    H127771   4.568   5.167   4.539
 9269TIP3    H227772   4.528   5.258   4.653
 9270TIP3   OH227773   0.492   2.350   2.091
 9270TIP3    H127774   0.442   2.348   2.009
 9270TIP3    H227775   0.566   2.291   2.076
 9271TIP3   OH227776   4.972   3.990   4.749
 9271TIP3    H127777   5.056   4.024   4.720
 9271TIP3    H227778   4.930   3.958   4.669
 9272TIP3   OH227779   1.620   4.380   5.925
 9272TIP3    H127780   1.606   4.344   5.837
 9272TIP3    H227781   1.670   4.313   5.971
 9273TIP3   OH227782   5.562   0.896   5.414
 9273TIP3    H127783   5.607   0.814   5.395
 9273TIP3    H227784   5.611   0.961   5.363
 9274TIP3   OH227785   0.895   6.359   3.803
 9274TIP3    H127786   0.872   6.329   3.715
 9274TIP3    H227787   0.909   6.453   3.794
 9275TIP3   OH227788   7.123   1.922   4.520
 9275TIP3    H127789   7.109   2.015   4.538
 9275TIP3    H227790   7.064   1.877   4.581
 9276TIP3   OH227791   5.307   2.591   4.780
 9276TIP3    H127792   5.277   2.654   4.846
 9276TIP3    H227793   5.332   2.514   4.831
 9277TIP3   OH227794   4.546   0.843   2.992
 9277TIP3    H127795   4.580   0.832   2.903
 9277TIP3    H227796   4.460   0.801   2.991
 9278TIP3   OH227797   3.346   4.878   3.377
 9278TIP3    H127798   3.257   4.848   3.394
 9278TIP3    H227799   3.402   4.818   3.426
 9279TIP3   OH227800   4.689   6.225   3.293
 9279TIP3    H127801   4.771   6.251   3.334
 9279TIP3    H227802   4.701   6.132   3.273
 9280TIP3   OH227803   4.518   4.792   3.226
 9280TIP3    H127804   4.597   4.766   3.179
 9280TIP3    H227805   4.543   4.791   3.318
 9281TIP3   OH227806   1.013   1.578   0.156
 9281TIP3    H127807   0.956   1.615   0.223
 9281TIP3    H227808   0.970   1.600   0.073
 9282TIP3   OH227809   3.421   4.942   1.356
 9282TIP3    H127810   3.414   4.934   1.451
 9282TIP3    H227811   3.333   4.923   1.324
 9283TIP3   OH227812   6.841   0.622   4.909
 9283TIP3    H127813   6.828   0.586   4.822
 9283TIP3    H227814   6.752   0.630   4.945
 9284TIP3   OH227815   0.592   1.666   0.469
 9284TIP3    H127816   0.597   1.761   0.462
 9284TIP3    H227817   0.500   1.646   0.451
 9285TIP3   OH227818   0.505   2.674   3.882
 9285TIP3    H127819   0.587   2.630   3.860
 9285TIP3    H227820   0.501   2.749   3.823
 9286TIP3   OH227821   3.716   5.679   3.062
 9286TIP3    H127822   3.790   5.735   3.085
 9286TIP3    H227823   3.733   5.653   2.972
 9287TIP3   OH227824   2.454   0.386   5.664
 9287TIP3    H127825   2.392   0.443   5.617
 9287TIP3    H227826   2.412   0.300   5.665
 9288TIP3   OH227827   6.488   3.372   3.807
 9288TIP3    H127828   6.479   3.347   3.899
 9288TIP3    H227829   6.519   3.463   3.810
 9289TIP3   OH227830   6.460   3.370   4.497
 9289TIP3    H127831   6.551   3.351   4.475
 9289TIP3    H227832   6.441   3.452   4.450
 9290TIP3   OH227833   6.910   5.573   4.413
 9290TIP3    H127834   6.874   5.662   4.415
 9290TIP3    H227835   6.905   5.547   4.322
 9291TIP3   OH227836   2.764   3.925   4.622
 9291TIP3    H127837   2.832   3.986   4.594
 9291TIP3    H227838   2.714   3.972   4.688
 9292TIP3   OH227839   4.213   1.063   3.135
 9292TIP3    H127840   4.267   1.040   3.211
 9292TIP3    H227841   4.192   1.155   3.148
 9293TIP3   OH227842   4.644   0.143   3.533
 9293TIP3    H127843   4.687   0.092   3.464
 9293TIP3    H227844   4.702   0.133   3.609
 9294TIP3   OH227845   6.897   1.102   5.173
 9294TIP3    H127846   6.904   1.164   5.245
 9294TIP3    H227847   6.804   1.081   5.168
 9295TIP3   OH227848   3.906   3.563   2.976
 9295TIP3    H127849   3.900   3.564   2.881
 9295TIP3    H227850   3.820   3.593   3.006
 9296TIP3   OH227851   2.346   0.899   1.488
 9296TIP3    H127852   2.420   0.859   1.443
 9296TIP3    H227853   2.385   0.942   1.564
 9297TIP3   OH227854   2.238   5.459   0.266
 9297TIP3    H127855   2.144   5.462   0.248
 9297TIP3    H227856   2.276   5.528   0.212
 9298TIP3   OH227857   4.993   0.552   1.562
 9298TIP3    H127858   5.055   0.561   1.489
 9298TIP3    H227859   5.049   0.531   1.637
 9299TIP3   OH227860   5.550   5.751   3.273
 9299TIP3    H127861   5.516   5.789   3.192
 9299TIP3    H227862   5.613   5.686   3.244
 9300TIP3   OH227863   7.116   1.085   3.046
 9300TIP3    H127864   7.087   1.160   3.097
 9300TIP3    H227865   7.176   1.037   3.103
 9301TIP3   OH227866   1.293   1.638   0.503
 9301TIP3    H127867   1.213   1.651   0.554
 9301TIP3    H227868   1.352   1.707   0.532
 9302TIP3   OH227869   2.280   4.380   1.528
 9302TIP3    H127870   2.184   4.377   1.526
 9302TIP3    H227871   2.307   4.303   1.478
 9303TIP3   OH227872   4.958   5.946   5.366
 9303TIP3    H127873   5.045   5.908   5.350
 9303TIP3    H227874   4.960   6.030   5.320
 9304TIP3   OH227875   7.113   6.220   2.104
 9304TIP3    H127876   7.169   6.236   2.180
 9304TIP3    H227877   7.098   6.307   2.067
 9305TIP3   OH227878   3.627   0.164   2.725
 9305TIP3    H127879   3.703   0.130   2.772
 9305TIP3    H227880   3.574   0.206   2.793
 9306TIP3   OH227881   5.657   4.635   0.272
 9306TIP3    H127882   5.661   4.619   0.366
 9306TIP3    H227883   5.603   4.713   0.263
 9307TIP3   OH227884   3.177   2.825   4.811
 9307TIP3    H127885   3.109   2.758   4.809
 9307TIP3    H227886   3.226   2.813   4.730
 9308TIP3   OH227887   1.871   5.412   0.504
 9308TIP3    H127888   1.942   5.386   0.562
 9308TIP3    H227889   1.890   5.367   0.422
 9309TIP3   OH227890   6.673   3.060   5.778
 9309TIP3    H127891   6.594   3.115   5.778
 9309TIP3    H227892   6.646   2.979   5.737
 9310TIP3   OH227893   1.803   1.494   2.411
 9310TIP3    H127894   1.889   1.530   2.433
 9310TIP3    H227895   1.774   1.450   2.491
 9311TIP3   OH227896   3.724   0.319   0.373
 9311TIP3    H127897   3.647   0.325   0.316
 9311TIP3    H227898   3.786   0.266   0.323
 9312TIP3   OH227899   3.941   0.282   1.795
 9312TIP3    H127900   3.899   0.273   1.710
 9312TIP3    H227901   3.994   0.362   1.788
 9313TIP3   OH227902   2.573   2.732   5.145
 9313TIP3    H127903   2.575   2.639   5.123
 9313TIP3    H227904   2.642   2.771   5.092
 9314TIP3   OH227905   5.527   4.753   3.732
 9314TIP3    H127906   5.523   4.765   3.827
 9314TIP3    H227907   5.451   4.802   3.699
 9315TIP3   OH227908   4.671   6.691   4.042
 9315TIP3    H127909   4.664   6.602   4.077
 9315TIP3    H227910   4.681   6.746   4.120
 9316TIP3   OH227911   6.517   3.473   0.456
 9316TIP3    H127912   6.586   3.538   0.475
 9316TIP3    H227913   6.453   3.521   0.403
 9317TIP3   OH227914   0.792   3.550   0.046
 9317TIP3    H127915   0.753   3.598  -0.027
 9317TIP3    H227916   0.716   3.523   0.099
 9318TIP3   OH227917   4.198   5.362   3.114
 9318TIP3    H127918   4.170   5.285   3.064
 9318TIP3    H227919   4.227   5.326   3.198
 9319TIP3   OH227920   5.232   1.101   0.034
 9319TIP3    H127921   5.172   1.027   0.023
 9319TIP3    H227922   5.266   1.091   0.123
 9320TIP3   OH227923   6.270   2.455   1.088
 9320TIP3    H127924   6.352   2.469   1.041
 9320TIP3    H227925   6.281   2.504   1.169
 9321TIP3   OH227926   0.565   1.876   3.909
 9321TIP3    H127927   0.474   1.871   3.881
 9321TIP3    H227928   0.611   1.919   3.837
 9322TIP3   OH227929   3.521   6.443   2.024
 9322TIP3    H127930   3.545   6.427   1.933
 9322TIP3    H227931   3.490   6.359   2.057
 9323TIP3   OH227932   3.105   3.482   1.510
 9323TIP3    H127933   3.162   3.548   1.470
 9323TIP3    H227934   3.036   3.533   1.553
 9324TIP3   OH227935   6.886   5.939   5.619
 9324TIP3    H127936   6.796   5.937   5.652
 9324TIP3    H227937   6.892   6.020   5.568
 9325TIP3   OH227938   5.769   3.160   2.973
 9325TIP3    H127939   5.828   3.227   2.939
 9325TIP3    H227940   5.827   3.088   3.000
 9326TIP3   OH227941   5.236   4.471   1.215
 9326TIP3    H127942   5.258   4.446   1.126
 9326TIP3    H227943   5.151   4.514   1.208
 9327TIP3   OH227944   0.849   2.780   4.149
 9327TIP3    H127945   0.899   2.834   4.212
 9327TIP3    H227946   0.761   2.817   4.151
 9328TIP3   OH227947   0.445   5.584   0.264
 9328TIP3    H127948   0.523   5.561   0.314
 9328TIP3    H227949   0.462   5.550   0.176
 9329TIP3   OH227950   1.337   5.875   0.695
 9329TIP3    H127951   1.266   5.897   0.756
 9329TIP3    H227952   1.382   5.801   0.736
 9330TIP3   OH227953   3.520   1.972   0.567
 9330TIP3    H127954   3.584   1.977   0.495
 9330TIP3    H227955   3.573   1.973   0.646
 9331TIP3   OH227956   1.776   2.349   5.583
 9331TIP3    H127957   1.850   2.368   5.525
 9331TIP3    H227958   1.698   2.368   5.530
 9332TIP3   OH227959   1.496   5.356   5.299
 9332TIP3    H127960   1.525   5.317   5.381
 9332TIP3    H227961   1.528   5.446   5.302
 9333TIP3   OH227962   4.097   5.307   0.948
 9333TIP3    H127963   4.112   5.302   1.043
 9333TIP3    H227964   4.004   5.286   0.938
 9334TIP3   OH227965   2.410   0.960   4.884
 9334TIP3    H127966   2.437   0.874   4.852
 9334TIP3    H227967   2.428   1.020   4.811
 9335TIP3   OH227968   0.520   6.040   5.062
 9335TIP3    H127969   0.550   5.956   5.025
 9335TIP3    H227970   0.427   6.025   5.081
 9336TIP3   OH227971   6.207   0.839   5.625
 9336TIP3    H127972   6.208   0.918   5.571
 9336TIP3    H227973   6.272   0.782   5.585
 9337TIP3   OH227974   4.913   4.202   1.466
 9337TIP3    H127975   4.893   4.193   1.373
 9337TIP3    H227976   4.992   4.256   1.469
 9338TIP3   OH227977   1.302   5.420   2.076
 9338TIP3    H127978   1.319   5.329   2.100
 9338TIP3    H227979   1.265   5.415   1.987
 9339TIP3   OH227980   6.761   4.538   3.958
 9339TIP3    H127981   6.798   4.493   4.034
 9339TIP3    H227982   6.692   4.480   3.927
 9340TIP3   OH227983   5.544   1.711   5.473
 9340TIP3    H127984   5.596   1.675   5.545
 9340TIP3    H227985   5.608   1.749   5.413
 9341TIP3   OH227986   3.381   3.398   3.321
 9341TIP3    H127987   3.451   3.391   3.386
 9341TIP3    H227988   3.343   3.484   3.337
 9342TIP3   OH227989   6.370   2.007   0.524
 9342TIP3    H127990   6.360   2.028   0.617
 9342TIP3    H227991   6.391   2.090   0.483
 9343TIP3   OH227992   0.883   6.420   3.281
 9343TIP3    H127993   0.802   6.461   3.249
 9343TIP3    H227994   0.953   6.472   3.243
 9344TIP3   OH227995   6.323   2.706   5.005
 9344TIP3    H127996   6.308   2.624   5.052
 9344TIP3    H227997   6.342   2.679   4.915
 9345TIP3   OH227998   6.368   1.393   1.626
 9345TIP3    H127999   6.370   1.385   1.531
 9345TIP3    H228000   6.441   1.450   1.648
 9346TIP3   OH228001   1.073   4.385   4.301
 9346TIP3    H128002   1.142   4.374   4.236
 9346TIP3    H228003   0.995   4.407   4.250
 9347TIP3   OH228004   3.303   4.271   4.232
 9347TIP3    H128005   3.209   4.290   4.227
 9347TIP3    H228006   3.314   4.191   4.181
 9348TIP3   OH228007   0.031   5.910   3.050
 9348TIP3    H128008   0.114   5.958   3.043
 9348TIP3    H228009   0.024   5.889   3.143
 9349TIP3   OH228010   1.805   4.998  -0.005
 9349TIP3    H128011   1.867   4.928   0.014
 9349TIP3    H228012   1.719   4.958   0.009
 9350TIP3   OH228013   3.047   1.283   3.823
 9350TIP3    H128014   2.975   1.270   3.761
 9350TIP3    H228015   3.026   1.366   3.866
 9351TIP3   OH228016   3.045   3.216   2.956
 9351TIP3    H128017   3.054   3.276   2.882
 9351TIP3    H228018   3.114   3.242   3.016
 9352TIP3   OH228019   3.727   5.054   2.343
 9352TIP3    H128020   3.769   4.980   2.388
 9352TIP3    H228021   3.637   5.025   2.327
 9353TIP3   OH228022   2.150   4.808   3.108
 9353TIP3    H128023   2.080   4.748   3.083
 9353TIP3    H228024   2.207   4.813   3.031
 9354TIP3   OH228025   2.844   3.251   0.186
 9354TIP3    H128026   2.768   3.281   0.136
 9354TIP3    H228027   2.827   3.280   0.275
 9355TIP3   OH228028   6.306   4.756   2.380
 9355TIP3    H128029   6.237   4.739   2.444
 9355TIP3    H228030   6.325   4.849   2.390
 9356TIP3   OH228031   6.492   1.502   3.202
 9356TIP3    H128032   6.426   1.434   3.211
 9356TIP3    H228033   6.447   1.573   3.157
 9357TIP3   OH228034   4.764   2.599   4.209
 9357TIP3    H128035   4.783   2.514   4.170
 9357TIP3    H228036   4.674   2.618   4.183
 9358TIP3   OH228037   1.777   3.504   2.723
 9358TIP3    H128038   1.850   3.522   2.783
 9358TIP3    H228039   1.809   3.534   2.638
 9359TIP3   OH228040   1.826   3.562   5.407
 9359TIP3    H128041   1.745   3.512   5.418
 9359TIP3    H228042   1.886   3.526   5.473
 9360TIP3   OH228043   4.246   0.490   4.350
 9360TIP3    H128044   4.233   0.535   4.434
 9360TIP3    H228045   4.299   0.550   4.298
 9361TIP3   OH228046   5.768   6.323   1.915
 9361TIP3    H128047   5.828   6.303   1.987
 9361TIP3    H228048   5.757   6.418   1.918
 9362TIP3   OH228049   4.804   3.744   2.593
 9362TIP3    H128050   4.846   3.670   2.549
 9362TIP3    H228051   4.823   3.819   2.538
 9363TIP3   OH228052   6.244   2.578   1.313
 9363TIP3    H128053   6.233   2.575   1.408
 9363TIP3    H228054   6.296   2.657   1.298
 9364TIP3   OH228055   3.520   3.603   4.389
 9364TIP3    H128056   3.437   3.650   4.381
 9364TIP3    H228057   3.536   3.568   4.302
 9365TIP3   OH228058   3.956   6.518   2.411
 9365TIP3    H128059   3.926   6.609   2.414
 9365TIP3    H228060   3.898   6.476   2.347
 9366TIP3   OH228061   5.508   4.141   5.686
 9366TIP3    H128062   5.553   4.224   5.672
 9366TIP3    H228063   5.504   4.101   5.599
 9367TIP3   OH228064   2.821   2.992   0.278
 9367TIP3    H128065   2.904   2.982   0.323
 9367TIP3    H228066   2.831   3.071   0.225
 9368TIP3   OH228067   5.415   4.975   1.404
 9368TIP3    H128068   5.499   4.932   1.419
 9368TIP3    H228069   5.354   4.903   1.390
 9369TIP3   OH228070   1.047   6.138   2.792
 9369TIP3    H128071   1.116   6.115   2.855
 9369TIP3    H228072   1.093   6.186   2.723
 9370TIP3   OH228073   5.665   1.583   5.665
 9370TIP3    H128074   5.751   1.623   5.675
 9370TIP3    H228075   5.635   1.567   5.755
 9371TIP3   OH228076   0.738   5.671   5.708
 9371TIP3    H128077   0.711   5.651   5.618
 9371TIP3    H228078   0.666   5.640   5.762
 9372TIP3   OH228079   5.019   2.502   4.537
 9372TIP3    H128080   4.925   2.520   4.544
 9372TIP3    H228081   5.026   2.408   4.551
 9373TIP3   OH228082   3.590   3.154   3.312
 9373TIP3    H128083   3.524   3.095   3.349
 9373TIP3    H228084   3.594   3.227   3.373
 9374TIP3   OH228085   2.843   1.141   4.867
 9374TIP3    H128086   2.911   1.076   4.844
 9374TIP3    H228087   2.859   1.214   4.807
 9375TIP3   OH228088   1.232   5.556   3.446
 9375TIP3    H128089   1.271   5.618   3.385
 9375TIP3    H228090   1.212   5.608   3.524
 9376TIP3   OH228091   0.858   4.573   2.911
 9376TIP3    H128092   0.782   4.580   2.854
 9376TIP3    H228093   0.921   4.636   2.875
 9377TIP3   OH228094   5.044   5.933   2.675
 9377TIP3    H128095   5.028   5.992   2.601
 9377TIP3    H228096   4.960   5.927   2.719
 9378TIP3   OH228097   3.094   2.255   4.648
 9378TIP3    H128098   3.049   2.267   4.564
 9378TIP3    H228099   3.077   2.336   4.696
 9379TIP3   OH228100   0.190   4.912   4.171
 9379TIP3    H128101   0.184   4.949   4.083
 9379TIP3    H228102   0.280   4.929   4.198
 9380TIP3   OH228103   7.092   5.953   0.191
 9380TIP3    H128104   7.116   6.026   0.133
 9380TIP3    H228105   7.082   5.994   0.277
 9381TIP3   OH228106   2.631   4.081   5.625
 9381TIP3    H128107   2.588   4.130   5.695
 9381TIP3    H228108   2.665   4.002   5.668
 9382TIP3   OH228109   3.849   1.059   5.345
 9382TIP3    H128110   3.797   0.984   5.373
 9382TIP3    H228111   3.937   1.025   5.335
 9383TIP3   OH228112   1.949   4.863   0.475
 9383TIP3    H128113   2.031   4.909   0.488
 9383TIP3    H228114   1.903   4.914   0.408
 9384TIP3   OH228115   5.874   1.072   4.095
 9384TIP3    H128116   5.846   0.986   4.129
 9384TIP3    H228117   5.810   1.133   4.131
 9385TIP3   OH228118   6.185   1.393   1.849
 9385TIP3    H128119   6.141   1.313   1.878
 9385TIP3    H228120   6.237   1.366   1.773
 9386TIP3   OH228121   2.596   1.263   0.405
 9386TIP3    H128122   2.580   1.323   0.332
 9386TIP3    H228123   2.572   1.177   0.370
 9387TIP3   OH228124   2.732   5.002   3.693
 9387TIP3    H128125   2.708   5.043   3.776
 9387TIP3    H228126   2.648   4.989   3.648
 9388TIP3   OH228127   5.456   5.216   5.671
 9388TIP3    H128128   5.489   5.227   5.581
 9388TIP3    H228129   5.363   5.236   5.664
 9389TIP3   OH228130   0.599   2.005   0.275
 9389TIP3    H128131   0.659   1.989   0.348
 9389TIP3    H228132   0.612   1.930   0.217
 9390TIP3   OH228133   5.068   2.348   2.714
 9390TIP3    H128134   5.153   2.380   2.742
 9390TIP3    H228135   5.030   2.309   2.793
 9391TIP3   OH228136   3.821   1.786   0.644
 9391TIP3    H128137   3.909   1.807   0.615
 9391TIP3    H228138   3.778   1.748   0.568
 9392TIP3   OH228139   6.828   2.921   3.836
 9392TIP3    H128140   6.897   2.957   3.781
 9392TIP3    H228141   6.755   2.983   3.828
 9393TIP3   OH228142   6.979   3.621   1.196
 9393TIP3    H128143   6.971   3.596   1.288
 9393TIP3    H228144   6.999   3.715   1.198
 9394TIP3   OH228145   6.902   2.672   1.534
 9394TIP3    H128146   6.929   2.764   1.530
 9394TIP3    H228147   6.808   2.674   1.516
 9395TIP3   OH228148   3.414   2.197   2.390
 9395TIP3    H128149   3.499   2.187   2.348
 9395TIP3    H228150   3.430   2.254   2.465
 9396TIP3   OH228151   0.655   0.660   4.967
 9396TIP3    H128152   0.750   0.666   4.955
 9396TIP3    H228153   0.629   0.747   4.997
 9397TIP3   OH228154   1.257   4.032   4.397
 9397TIP3    H128155   1.249   3.943   4.430
 9397TIP3    H228156   1.336   4.067   4.440
 9398TIP3   OH228157   2.064   3.764   0.466
 9398TIP3    H128158   2.026   3.691   0.515
 9398TIP3    H228159   2.158   3.752   0.474
 9399TIP3   OH228160   6.402   6.541   3.465
 9399TIP3    H128161   6.391   6.614   3.404
 9399TIP3    H228162   6.496   6.532   3.476
 9400TIP3   OH228163   3.214   4.264   5.215
 9400TIP3    H128164   3.260   4.341   5.181
 9400TIP3    H228165   3.249   4.252   5.303
 9401TIP3   OH228166   2.189   5.832   1.904
 9401TIP3    H128167   2.172   5.912   1.854
 9401TIP3    H228168   2.103   5.801   1.930
 9402TIP3   OH228169   6.150   4.594   2.034
 9402TIP3    H128170   6.070   4.633   2.070
 9402TIP3    H228171   6.211   4.668   2.026
 9403TIP3   OH228172   5.888   0.286   1.459
 9403TIP3    H128173   5.964   0.250   1.505
 9403TIP3    H228174   5.924   0.329   1.382
 9404TIP3   OH228175   6.591   6.707   2.195
 9404TIP3    H128176   6.664   6.759   2.230
 9404TIP3    H228177   6.513   6.758   2.216
 9405TIP3   OH228178   2.029   1.205   2.314
 9405TIP3    H128179   1.968   1.188   2.386
 9405TIP3    H228180   2.114   1.215   2.356
 9406TIP3   OH228181   5.489   5.687   1.984
 9406TIP3    H128182   5.540   5.701   1.904
 9406TIP3    H228183   5.450   5.600   1.973
 9407TIP3   OH228184   4.223   0.595   4.598
 9407TIP3    H128185   4.308   0.555   4.616
 9407TIP3    H228186   4.210   0.656   4.671
 9408TIP3   OH228187   0.617   4.895   3.731
 9408TIP3    H128188   0.608   4.802   3.711
 9408TIP3    H228189   0.696   4.901   3.784
 9409TIP3   OH228190   0.604   4.834  -0.076
 9409TIP3    H128191   0.680   4.857  -0.021
 9409TIP3    H228192   0.634   4.759  -0.127
 9410TIP3   OH228193   4.952   0.028   3.577
 9410TIP3    H128194   4.912   0.023   3.490
 9410TIP3    H228195   4.971  -0.063   3.600
 9411TIP3   OH228196   3.700   3.813   2.843
 9411TIP3    H128197   3.704   3.860   2.927
 9411TIP3    H228198   3.613   3.774   2.842
 9412TIP3   OH228199   6.500   4.298   3.957
 9412TIP3    H128200   6.472   4.366   3.895
 9412TIP3    H228201   6.594   4.289   3.942
 9413TIP3   OH228202   2.648   1.353   5.756
 9413TIP3    H128203   2.730   1.363   5.708
 9413TIP3    H228204   2.585   1.407   5.708
 9414TIP3   OH228205   3.047   6.430   5.840
 9414TIP3    H128206   3.075   6.432   5.748
 9414TIP3    H228207   3.128   6.416   5.889
 9415TIP3   OH228208   6.107   3.068   3.619
 9415TIP3    H128209   6.131   3.145   3.568
 9415TIP3    H228210   6.190   3.038   3.657
 9416TIP3   OH228211   5.209   3.357   0.225
 9416TIP3    H128212   5.129   3.322   0.262
 9416TIP3    H228213   5.254   3.282   0.186
 9417TIP3   OH228214   4.933   2.216   2.899
 9417TIP3    H128215   4.981   2.134   2.910
 9417TIP3    H228216   4.845   2.189   2.873
 9418TIP3   OH228217   1.792   3.607   2.171
 9418TIP3    H128218   1.827   3.549   2.103
 9418TIP3    H228219   1.865   3.619   2.232
 9419TIP3   OH228220   5.719   0.628   1.100
 9419TIP3    H128221   5.785   0.648   1.166
 9419TIP3    H228222   5.673   0.711   1.086
 9420TIP3   OH228223   5.790   5.863   0.836
 9420TIP3    H128224   5.854   5.838   0.902
 9420TIP3    H228225   5.803   5.957   0.823
 9421TIP3   OH228226   7.188   1.052   5.525
 9421TIP3    H128227   7.235   1.118   5.576
 9421TIP3    H228228   7.227   1.058   5.438
 9422TIP3   OH228229   4.165   1.135   0.470
 9422TIP3    H128230   4.103   1.126   0.543
 9422TIP3    H228231   4.110   1.156   0.395
 9423TIP3   OH228232   7.095   2.504   3.562
 9423TIP3    H128233   7.038   2.563   3.611
 9423TIP3    H228234   7.105   2.546   3.477
 9424TIP3   OH228235   5.341   1.225   3.356
 9424TIP3    H128236   5.303   1.152   3.306
 9424TIP3    H228237   5.417   1.252   3.304
 9425TIP3   OH228238   5.436   1.904   1.403
 9425TIP3    H128239   5.380   1.911   1.480
 9425TIP3    H228240   5.489   1.984   1.404
 9426TIP3   OH228241   1.587   2.046   0.731
 9426TIP3    H128242   1.592   2.138   0.704
 9426TIP3    H228243   1.494   2.026   0.733
 9427TIP3   OH228244   4.637   3.925   0.144
 9427TIP3    H128245   4.707   3.863   0.123
 9427TIP3    H228246   4.601   3.894   0.227
 9428TIP3   OH228247   1.301   4.424   4.049
 9428TIP3    H128248   1.294   4.398   4.141
 9428TIP3    H228249   1.247   4.360   4.002
 9429TIP3   OH228250   1.224   3.992   5.766
 9429TIP3    H128251   1.239   4.016   5.674
 9429TIP3    H228252   1.250   3.900   5.771
 9430TIP3   OH228253   7.065   1.037   3.469
 9430TIP3    H128254   7.144   0.998   3.507
 9430TIP3    H228255   7.091   1.125   3.442
 9431TIP3   OH228256   1.583   0.936   5.730
 9431TIP3    H128257   1.570   0.858   5.784
 9431TIP3    H228258   1.604   1.005   5.793
 9432TIP3   OH228259   6.124   6.096   4.397
 9432TIP3    H128260   6.180   6.166   4.433
 9432TIP3    H228261   6.083   6.136   4.321
 9433TIP3   OH228262   3.060   2.773   0.769
 9433TIP3    H128263   3.049   2.750   0.861
 9433TIP3    H228264   3.013   2.856   0.760
 9434TIP3   OH228265   4.369   5.373   4.966
 9434TIP3    H128266   4.327   5.370   5.052
 9434TIP3    H228267   4.297   5.357   4.904
 9435TIP3   OH228268   2.204   1.458   4.044
 9435TIP3    H128269   2.231   1.508   3.968
 9435TIP3    H228270   2.269   1.479   4.111
 9436TIP3   OH228271   2.102   1.084   3.934
 9436TIP3    H128272   2.114   1.005   3.985
 9436TIP3    H228273   2.027   1.128   3.975
 9437TIP3   OH228274   4.398   5.986   3.687
 9437TIP3    H128275   4.474   5.929   3.671
 9437TIP3    H228276   4.323   5.927   3.682
 9438TIP3   OH228277   0.036   0.953   2.411
 9438TIP3    H128278   0.053   1.018   2.342
 9438TIP3    H228279   0.019   0.872   2.364
 9439TIP3   OH228280   5.050   0.219   3.737
 9439TIP3    H128281   5.042   0.183   3.826
 9439TIP3    H228282   4.989   0.168   3.685
 9440TIP3   OH228283   4.049   4.794   0.189
 9440TIP3    H128284   3.975   4.754   0.143
 9440TIP3    H228285   4.096   4.842   0.121
 9441TIP3   OH228286   4.827   1.492   0.431
 9441TIP3    H128287   4.838   1.560   0.365
 9441TIP3    H228288   4.751   1.441   0.402
 9442TIP3   OH228289   1.286   6.599   5.411
 9442TIP3    H128290   1.271   6.670   5.349
 9442TIP3    H228291   1.370   6.620   5.452
 9443TIP3   OH228292   3.535   6.586   1.210
 9443TIP3    H128293   3.579   6.639   1.144
 9443TIP3    H228294   3.549   6.633   1.292
 9444TIP3   OH228295   4.755   3.461   4.231
 9444TIP3    H128296   4.804   3.400   4.177
 9444TIP3    H228297   4.783   3.443   4.321
 9445TIP3   OH228298   3.457   1.362   3.357
 9445TIP3    H128299   3.460   1.411   3.275
 9445TIP3    H228300   3.506   1.415   3.419
 9446TIP3   OH228301   2.969   1.253   5.144
 9446TIP3    H128302   2.921   1.185   5.095
 9446TIP3    H228303   2.967   1.222   5.234
 9447TIP3   OH228304   6.780   5.802   4.375
 9447TIP3    H128305   6.697   5.761   4.350
 9447TIP3    H228306   6.756   5.886   4.414
 9448TIP3   OH228307   1.443   4.811   3.103
 9448TIP3    H128308   1.383   4.840   3.035
 9448TIP3    H228309   1.471   4.724   3.075
 9449TIP3   OH228310   4.686   3.981   4.155
 9449TIP3    H128311   4.642   3.909   4.199
 9449TIP3    H228312   4.682   4.053   4.218
 9450TIP3   OH228313   6.524   3.004   4.591
 9450TIP3    H128314   6.558   3.017   4.503
 9450TIP3    H228315   6.550   2.915   4.614
 9451TIP3   OH228316   3.118   1.956   2.732
 9451TIP3    H128317   3.150   1.896   2.799
 9451TIP3    H228318   3.041   1.912   2.696
 9452TIP3   OH228319   3.688   0.979   3.583
 9452TIP3    H128320   3.617   1.040   3.601
 9452TIP3    H228321   3.686   0.917   3.656
 9453TIP3   OH228322   5.351   2.057   2.846
 9453TIP3    H128323   5.437   2.023   2.870
 9453TIP3    H228324   5.369   2.121   2.777
 9454TIP3   OH228325   6.663   4.802   4.202
 9454TIP3    H128326   6.600   4.730   4.196
 9454TIP3    H228327   6.745   4.759   4.227
 9455TIP3   OH228328   0.707   4.757   2.553
 9455TIP3    H128329   0.622   4.773   2.593
 9455TIP3    H228330   0.740   4.845   2.533
 9456TIP3   OH228331   2.246   0.288   0.661
 9456TIP3    H128332   2.213   0.333   0.582
 9456TIP3    H228333   2.249   0.196   0.636
 9457TIP3   OH228334   0.704   2.898   1.095
 9457TIP3    H128335   0.711   2.840   1.020
 9457TIP3    H228336   0.738   2.982   1.064
 9458TIP3   OH228337   4.897   0.226   2.373
 9458TIP3    H128338   4.815   0.176   2.366
 9458TIP3    H228339   4.964   0.167   2.338
 9459TIP3   OH228340   2.996   5.688   4.857
 9459TIP3    H128341   3.055   5.650   4.792
 9459TIP3    H228342   2.927   5.622   4.868
 9460TIP3   OH228343   4.765   3.432   5.456
 9460TIP3    H128344   4.740   3.525   5.450
 9460TIP3    H228345   4.839   3.424   5.396
 9461TIP3   OH228346   5.795   5.344   1.239
 9461TIP3    H128347   5.836   5.427   1.214
 9461TIP3    H228348   5.864   5.297   1.285
 9462TIP3   OH228349   2.426   3.028   0.967
 9462TIP3    H128350   2.456   3.000   1.054
 9462TIP3    H228351   2.437   2.951   0.912
 9463TIP3   OH228352   4.487   6.697   0.134
 9463TIP3    H128353   4.562   6.680   0.190
 9463TIP3    H228354   4.505   6.783   0.094
 9464TIP3   OH228355   3.078   2.583   4.702
 9464TIP3    H128356   2.982   2.591   4.697
 9464TIP3    H228357   3.109   2.622   4.620
 9465TIP3   OH228358   2.461   4.966   5.790
 9465TIP3    H128359   2.431   5.052   5.822
 9465TIP3    H228360   2.490   4.920   5.869
 9466TIP3   OH228361   5.372   1.630   0.370
 9466TIP3    H128362   5.305   1.607   0.305
 9466TIP3    H228363   5.447   1.658   0.317
 9467TIP3   OH228364   3.560   2.285   4.218
 9467TIP3    H128365   3.553   2.380   4.231
 9467TIP3    H228366   3.614   2.255   4.291
 9468TIP3   OH228367   0.320   1.626   0.478
 9468TIP3    H128368   0.252   1.694   0.471
 9468TIP3    H228369   0.291   1.571   0.550
 9469TIP3   OH228370   5.964   5.993   1.503
 9469TIP3    H128371   5.980   6.084   1.525
 9469TIP3    H228372   5.995   5.944   1.579
 9470TIP3   OH228373   1.178   2.375   0.922
 9470TIP3    H128374   1.164   2.291   0.966
 9470TIP3    H228375   1.260   2.408   0.959
 9471TIP3   OH228376   6.201   6.355   3.443
 9471TIP3    H128377   6.171   6.342   3.353
 9471TIP3    H228378   6.262   6.428   3.438
 9472TIP3   OH228379   3.256   6.619   1.117
 9472TIP3    H128380   3.261   6.608   1.022
 9472TIP3    H228381   3.336   6.578   1.149
 9473TIP3   OH228382   0.214   3.134   2.258
 9473TIP3    H128383   0.123   3.113   2.278
 9473TIP3    H228384   0.258   3.136   2.343
 9474TIP3   OH228385   4.304   1.208   4.798
 9474TIP3    H128386   4.386   1.172   4.831
 9474TIP3    H228387   4.255   1.234   4.876
 9475TIP3   OH228388   2.782   3.943   3.705
 9475TIP3    H128389   2.703   3.991   3.728
 9475TIP3    H228390   2.826   3.927   3.789
 9476TIP3   OH228391   1.643   3.043   5.608
 9476TIP3    H128392   1.701   3.049   5.684
 9476TIP3    H228393   1.675   2.967   5.559
 9477TIP3   OH228394   1.771   3.881   5.404
 9477TIP3    H128395   1.811   3.794   5.416
 9477TIP3    H228396   1.681   3.871   5.436
 9478TIP3   OH228397   4.416   0.996   1.414
 9478TIP3    H128398   4.477   0.990   1.340
 9478TIP3    H228399   4.466   0.963   1.489
 9479TIP3   OH228400   0.362   6.518   1.393
 9479TIP3    H128401   0.292   6.453   1.404
 9479TIP3    H228402   0.377   6.521   1.299
 9480TIP3   OH228403   6.974   0.929   0.702
 9480TIP3    H128404   6.929   1.002   0.745
 9480TIP3    H228405   7.067   0.944   0.720
 9481TIP3   OH228406   4.990   4.735   3.589
 9481TIP3    H128407   5.077   4.696   3.585
 9481TIP3    H228408   4.998   4.815   3.537
 9482TIP3   OH228409   3.471   5.620   3.173
 9482TIP3    H128410   3.559   5.646   3.145
 9482TIP3    H228411   3.427   5.703   3.190
 9483TIP3   OH228412   5.159   0.493   2.313
 9483TIP3    H128413   5.165   0.515   2.406
 9483TIP3    H228414   5.086   0.545   2.280
 9484TIP3   OH228415   0.103   2.086   1.733
 9484TIP3    H128416   0.191   2.051   1.737
 9484TIP3    H228417   0.068   2.076   1.822
 9485TIP3   OH228418   4.952   6.510   5.723
 9485TIP3    H128419   4.981   6.547   5.640
 9485TIP3    H228420   4.870   6.466   5.703
 9486TIP3   OH228421   5.896   5.804   2.821
 9486TIP3    H128422   5.979   5.838   2.786
 9486TIP3    H228423   5.919   5.717   2.856
 9487TIP3   OH228424   6.939   2.844   2.445
 9487TIP3    H128425   7.002   2.835   2.516
 9487TIP3    H228426   6.985   2.810   2.368
 9488TIP3   OH228427   4.685   6.387   0.822
 9488TIP3    H128428   4.696   6.407   0.915
 9488TIP3    H228429   4.674   6.473   0.781
 9489TIP3   OH228430   6.449   0.104   5.873
 9489TIP3    H128431   6.391   0.176   5.849
 9489TIP3    H228432   6.510   0.097   5.800
 9490TIP3   OH228433   5.326   3.400   1.370
 9490TIP3    H128434   5.378   3.479   1.353
 9490TIP3    H228435   5.236   3.426   1.352
 9491TIP3   OH228436   3.024   6.292   5.291
 9491TIP3    H128437   3.022   6.282   5.196
 9491TIP3    H228438   3.038   6.203   5.324
 9492TIP3   OH228439   5.137   5.407   2.331
 9492TIP3    H128440   5.076   5.403   2.405
 9492TIP3    H228441   5.081   5.422   2.254
 9493TIP3   OH228442   4.165   2.719   0.552
 9493TIP3    H128443   4.099   2.650   0.561
 9493TIP3    H228444   4.206   2.724   0.639
 9494TIP3   OH228445   3.797   2.933   4.049
 9494TIP3    H128446   3.726   2.990   4.020
 9494TIP3    H228447   3.875   2.968   4.006
 9495TIP3   OH228448   6.521   1.751   0.529
 9495TIP3    H128449   6.579   1.704   0.588
 9495TIP3    H228450   6.487   1.824   0.581
 9496TIP3   OH228451   3.785   4.740   0.126
 9496TIP3    H128452   3.717   4.720   0.189
 9496TIP3    H228453   3.741   4.736   0.041
 9497TIP3   OH228454   6.774   1.528   1.252
 9497TIP3    H128455   6.690   1.567   1.229
 9497TIP3    H228456   6.828   1.601   1.282
 9498TIP3   OH228457   5.237   3.561   0.399
 9498TIP3    H128458   5.168   3.509   0.442
 9498TIP3    H228459   5.271   3.503   0.331
 9499TIP3   OH228460   6.439   6.024   5.259
 9499TIP3    H128461   6.443   6.033   5.164
 9499TIP3    H228462   6.434   5.929   5.274
 9500TIP3   OH228463   4.689   1.059   3.945
 9500TIP3    H128464   4.739   1.054   3.863
 9500TIP3    H228465   4.614   1.000   3.931
 9501TIP3   OH228466   1.405   2.124   4.319
 9501TIP3    H128467   1.475   2.080   4.270
 9501TIP3    H228468   1.395   2.209   4.276
 9502TIP3   OH228469   2.052   1.884   4.456
 9502TIP3    H128470   2.138   1.863   4.418
 9502TIP3    H228471   2.038   1.976   4.435
 9503TIP3   OH228472   3.819   0.218   0.643
 9503TIP3    H128473   3.758   0.271   0.593
 9503TIP3    H228474   3.812   0.130   0.604
 9504TIP3   OH228475   2.212   3.383   0.876
 9504TIP3    H128476   2.241   3.325   0.805
 9504TIP3    H228477   2.271   3.365   0.948
 9505TIP3   OH228478   2.055   0.579   3.620
 9505TIP3    H128479   2.011   0.495   3.636
 9505TIP3    H228480   2.091   0.571   3.532
 9506TIP3   OH228481   1.920   1.654   4.408
 9506TIP3    H128482   1.982   1.581   4.409
 9506TIP3    H228483   1.974   1.732   4.424
 9507TIP3   OH228484   6.417   6.595   4.621
 9507TIP3    H128485   6.411   6.562   4.711
 9507TIP3    H228486   6.326   6.597   4.590
 9508TIP3   OH228487   2.085   0.016   4.216
 9508TIP3    H128488   2.058  -0.024   4.299
 9508TIP3    H228489   2.143  -0.049   4.175
 9509TIP3   OH228490   6.908   0.438   1.408
 9509TIP3    H128491   6.833   0.382   1.393
 9509TIP3    H228492   6.929   0.427   1.501
 9510TIP3   OH228493   3.161   0.859   5.105
 9510TIP3    H128494   3.150   0.868   5.011
 9510TIP3    H228495   3.082   0.898   5.143
 9511TIP3   OH228496   4.534   6.066   5.293
 9511TIP3    H128497   4.451   6.018   5.299
 9511TIP3    H228498   4.601   5.997   5.283
 9512TIP3   OH228499   4.368   1.051   2.816
 9512TIP3    H128500   4.433   1.119   2.797
 9512TIP3    H228501   4.336   1.073   2.904
 9513TIP3   OH228502   5.193   2.996   3.282
 9513TIP3    H128503   5.200   2.959   3.370
 9513TIP3    H228504   5.246   3.075   3.285
 9514TIP3   OH228505   6.526   2.724   2.061
 9514TIP3    H128506   6.520   2.629   2.062
 9514TIP3    H228507   6.530   2.747   1.968
 9515TIP3   OH228508   3.482   6.564   0.463
 9515TIP3    H128509   3.474   6.498   0.532
 9515TIP3    H228510   3.403   6.552   0.410
 9516TIP3   OH228511   4.911   0.088   1.361
 9516TIP3    H128512   4.943   0.146   1.430
 9516TIP3    H228513   4.988   0.039   1.332
 9517TIP3   OH228514   6.819   0.161   2.974
 9517TIP3    H128515   6.889   0.189   3.033
 9517TIP3    H228516   6.769   0.240   2.957
 9518TIP3   OH228517   1.268   0.573   2.223
 9518TIP3    H128518   1.260   0.479   2.210
 9518TIP3    H228519   1.351   0.584   2.270
 9519TIP3   OH228520   6.811   3.675   0.482
 9519TIP3    H128521   6.740   3.728   0.519
 9519TIP3    H228522   6.789   3.666   0.390
 9520TIP3   OH228523   4.955   6.262   4.779
 9520TIP3    H128524   4.861   6.250   4.791
 9520TIP3    H228525   4.964   6.353   4.750
 9521TIP3   OH228526   0.619   4.908   2.237
 9521TIP3    H128527   0.536   4.862   2.225
 9521TIP3    H228528   0.609   4.953   2.321
 9522TIP3   OH228529   3.503   4.177   0.899
 9522TIP3    H128530   3.426   4.194   0.846
 9522TIP3    H228531   3.536   4.093   0.868
 9523TIP3   OH228532   2.451   1.428   2.760
 9523TIP3    H128533   2.471   1.353   2.704
 9523TIP3    H228534   2.528   1.437   2.816
 9524TIP3   OH228535   5.343   4.123   0.900
 9524TIP3    H128536   5.349   4.095   0.991
 9524TIP3    H228537   5.249   4.122   0.880
 9525TIP3   OH228538   1.699   4.821   1.414
 9525TIP3    H128539   1.767   4.834   1.348
 9525TIP3    H228540   1.670   4.731   1.400
 9526TIP3   OH228541   2.690   4.390   0.022
 9526TIP3    H128542   2.611   4.365   0.069
 9526TIP3    H228543   2.689   4.337  -0.058
 9527TIP3   OH228544   0.855   0.750   1.092
 9527TIP3    H128545   0.790   0.819   1.078
 9527TIP3    H228546   0.841   0.689   1.019
 9528TIP3   OH228547   4.979   3.060   3.558
 9528TIP3    H128548   5.075   3.052   3.558
 9528TIP3    H228549   4.949   2.993   3.619
 9529TIP3   OH228550   6.489   1.726   1.500
 9529TIP3    H128551   6.458   1.811   1.533
 9529TIP3    H228552   6.550   1.695   1.567
 9530TIP3   OH228553   0.729   4.667   3.623
 9530TIP3    H128554   0.820   4.693   3.636
 9530TIP3    H228555   0.730   4.572   3.628
 9531TIP3   OH228556   1.535   6.355   3.391
 9531TIP3    H128557   1.526   6.269   3.430
 9531TIP3    H228558   1.582   6.407   3.456
 9532TIP3   OH228559   3.598   1.826   5.107
 9532TIP3    H128560   3.642   1.843   5.191
 9532TIP3    H228561   3.578   1.913   5.073
 9533TIP3   OH228562   2.416   1.290   4.418
 9533TIP3    H128563   2.436   1.204   4.382
 9533TIP3    H228564   2.380   1.339   4.344
 9534TIP3   OH228565   3.335   4.512   0.352
 9534TIP3    H128566   3.261   4.553   0.398
 9534TIP3    H228567   3.404   4.579   0.353
 9535TIP3   OH228568   3.589   2.664   3.324
 9535TIP3    H128569   3.636   2.616   3.391
 9535TIP3    H228570   3.500   2.627   3.326
 9536TIP3   OH228571   5.838   2.478   5.530
 9536TIP3    H128572   5.781   2.504   5.602
 9536TIP3    H228573   5.927   2.488   5.565
 9537TIP3   OH228574   5.244   0.557   0.543
 9537TIP3    H128575   5.280   0.555   0.454
 9537TIP3    H228576   5.239   0.465   0.569
 9538TIP3   OH228577   5.095   3.566   1.328
 9538TIP3    H128578   5.018   3.616   1.300
 9538TIP3    H228579   5.148   3.630   1.375
 9539TIP3   OH228580   0.253   4.328   3.482
 9539TIP3    H128581   0.189   4.257   3.482
 9539TIP3    H228582   0.253   4.360   3.392
 9540TIP3   OH228583   1.873   5.996   2.691
 9540TIP3    H128584   1.921   6.063   2.739
 9540TIP3    H228585   1.841   5.936   2.758
 9541TIP3   OH228586   3.091   3.113   1.174
 9541TIP3    H128587   3.045   3.197   1.176
 9541TIP3    H228588   3.183   3.137   1.167
 9542TIP3   OH228589   0.509   1.056   4.268
 9542TIP3    H128590   0.512   1.087   4.178
 9542TIP3    H228591   0.568   0.980   4.270
 9543TIP3   OH228592   2.848   3.751   4.867
 9543TIP3    H128593   2.799   3.711   4.938
 9543TIP3    H228594   2.783   3.796   4.814
 9544TIP3   OH228595   6.289   0.142   0.965
 9544TIP3    H128596   6.281   0.231   0.999
 9544TIP3    H228597   6.382   0.120   0.977
 9545TIP3   OH228598   5.460   0.365   3.863
 9545TIP3    H128599   5.389   0.352   3.801
 9545TIP3    H228600   5.424   0.424   3.929
 9546TIP3   OH228601   2.058   6.586   0.414
 9546TIP3    H128602   1.973   6.610   0.450
 9546TIP3    H228603   2.051   6.491   0.398
 9547TIP3   OH228604   0.655   6.065   1.152
 9547TIP3    H128605   0.642   6.159   1.159
 9547TIP3    H228606   0.568   6.030   1.132
 9548TIP3   OH228607   1.162   2.127   0.166
 9548TIP3    H128608   1.136   2.047   0.120
 9548TIP3    H228609   1.231   2.099   0.226
 9549TIP3   OH228610   6.909   6.287   2.870
 9549TIP3    H128611   6.996   6.291   2.830
 9549TIP3    H228612   6.902   6.369   2.920
 9550TIP3   OH228613   3.564   1.158   4.899
 9550TIP3    H128614   3.537   1.068   4.883
 9550TIP3    H228615   3.554   1.202   4.814
 9551TIP3   OH228616   1.678   2.111   3.728
 9551TIP3    H128617   1.697   2.020   3.750
 9551TIP3    H228618   1.745   2.134   3.664
 9552TIP3   OH228619   2.329   2.242   3.328
 9552TIP3    H128620   2.361   2.325   3.291
 9552TIP3    H228621   2.348   2.177   3.261
 9553TIP3   OH228622   0.894   2.256   1.055
 9553TIP3    H128623   0.860   2.255   1.145
 9553TIP3    H228624   0.936   2.170   1.045
 9554TIP3   OH228625   0.289   0.694   3.063
 9554TIP3    H128626   0.293   0.722   3.155
 9554TIP3    H228627   0.196   0.690   3.043
 9555TIP3   OH228628   2.599   4.183   2.690
 9555TIP3    H128629   2.635   4.152   2.773
 9555TIP3    H228630   2.563   4.104   2.649
 9556TIP3   OH228631   4.857   2.196   0.732
 9556TIP3    H128632   4.809   2.141   0.669
 9556TIP3    H228633   4.812   2.280   0.729
 9557TIP3   OH228634   0.092   4.144   3.924
 9557TIP3    H128635   0.126   4.225   3.885
 9557TIP3    H228636   0.121   4.149   4.015
 9558TIP3   OH228637   5.041   1.111   0.295
 9558TIP3    H128638   4.952   1.107   0.332
 9558TIP3    H228639   5.044   1.038   0.233
 9559TIP3   OH228640   2.336   6.583   2.038
 9559TIP3    H128641   2.407   6.535   2.081
 9559TIP3    H228642   2.278   6.514   2.005
 9560TIP3   OH228643   3.235   0.887   1.276
 9560TIP3    H128644   3.240   0.983   1.273
 9560TIP3    H228645   3.259   0.865   1.366
 9561TIP3   OH228646   0.221   6.763   4.790
 9561TIP3    H128647   0.160   6.740   4.861
 9561TIP3    H228648   0.295   6.703   4.801
 9562TIP3   OH228649   6.316   3.768   5.424
 9562TIP3    H128650   6.259   3.817   5.364
 9562TIP3    H228651   6.390   3.742   5.369
 9563TIP3   OH228652   3.889   4.453   3.333
 9563TIP3    H128653   3.844   4.447   3.417
 9563TIP3    H228654   3.922   4.543   3.330
 9564TIP3   OH228655   0.814   5.503   1.912
 9564TIP3    H128656   0.827   5.561   1.987
 9564TIP3    H228657   0.752   5.437   1.944
 9565TIP3   OH228658   4.259   0.163   4.217
 9565TIP3    H128659   4.194   0.231   4.236
 9565TIP3    H228660   4.281   0.177   4.125
 9566TIP3   OH228661   2.651   4.182   5.202
 9566TIP3    H128662   2.669   4.094   5.168
 9566TIP3    H228663   2.573   4.210   5.155
 9567TIP3   OH228664   1.820   0.024   4.184
 9567TIP3    H128665   1.829  -0.071   4.175
 9567TIP3    H228666   1.908   0.054   4.207
 9568TIP3   OH228667   2.477   5.585   0.652
 9568TIP3    H128668   2.554   5.637   0.632
 9568TIP3    H228669   2.504   5.495   0.634
 9569TIP3   OH228670   0.504   2.937   2.193
 9569TIP3    H128671   0.572   2.874   2.166
 9569TIP3    H228672   0.422   2.891   2.179
 9570TIP3   OH228673   0.221   5.473   3.174
 9570TIP3    H128674   0.300   5.494   3.125
 9570TIP3    H228675   0.229   5.522   3.256
 9571TIP3   OH228676   0.535   2.959   1.904
 9571TIP3    H128677   0.601   2.938   1.971
 9571TIP3    H228678   0.469   2.891   1.914
 9572TIP3   OH228679   4.559   6.213   2.529
 9572TIP3    H128680   4.629   6.278   2.532
 9572TIP3    H228681   4.593   6.139   2.578
 9573TIP3   OH228682   4.612   2.839   1.981
 9573TIP3    H128683   4.600   2.851   2.076
 9573TIP3    H228684   4.675   2.906   1.956
 9574TIP3   OH228685   6.145   1.823   2.879
 9574TIP3    H128686   6.214   1.840   2.942
 9574TIP3    H228687   6.166   1.738   2.842
 9575TIP3   OH228688   4.100   4.425   5.107
 9575TIP3    H128689   4.062   4.480   5.039
 9575TIP3    H228690   4.055   4.341   5.098
 9576TIP3   OH228691   4.340   6.075   1.163
 9576TIP3    H128692   4.272   6.067   1.096
 9576TIP3    H228693   4.408   6.127   1.121
 9577TIP3   OH228694   1.075   5.188   4.484
 9577TIP3    H128695   1.170   5.181   4.479
 9577TIP3    H228696   1.050   5.225   4.399
 9578TIP3   OH228697   7.076   0.472   0.553
 9578TIP3    H128698   6.983   0.494   0.545
 9578TIP3    H228699   7.105   0.520   0.630
 9579TIP3   OH228700   0.893   3.827   2.671
 9579TIP3    H128701   0.864   3.856   2.757
 9579TIP3    H228702   0.818   3.842   2.614
 9580TIP3   OH228703   5.288   4.256   0.507
 9580TIP3    H128704   5.289   4.351   0.517
 9580TIP3    H228705   5.363   4.225   0.557
 9581TIP3   OH228706   4.278   4.782   5.012
 9581TIP3    H128707   4.238   4.774   5.098
 9581TIP3    H228708   4.340   4.709   5.007
 9582TIP3   OH228709  -0.003   0.788   2.205
 9582TIP3    H128710   0.068   0.785   2.141
 9582TIP3    H228711  -0.013   0.698   2.234
 9583TIP3   OH228712   2.923   1.296   2.956
 9583TIP3    H128713   2.946   1.274   2.866
 9583TIP3    H228714   3.005   1.284   3.005
 9584TIP3   OH228715   0.279   2.881   4.145
 9584TIP3    H128716   0.189   2.913   4.151
 9584TIP3    H228717   0.307   2.905   4.057
 9585TIP3   OH228718   3.919   5.062   3.749
 9585TIP3    H128719   3.910   4.994   3.682
 9585TIP3    H228720   3.919   5.144   3.700
 9586TIP3   OH228721   5.217   0.964   3.813
 9586TIP3    H128722   5.136   0.915   3.801
 9586TIP3    H228723   5.284   0.897   3.828
 9587TIP3   OH228724   6.218   6.029   5.726
 9587TIP3    H128725   6.292   6.026   5.665
 9587TIP3    H228726   6.152   6.081   5.680
 9588TIP3   OH228727   5.035   4.494   5.294
 9588TIP3    H128728   5.026   4.484   5.389
 9588TIP3    H228729   4.953   4.537   5.267
 9589TIP3   OH228730   0.869   4.464   4.131
 9589TIP3    H128731   0.777   4.467   4.106
 9589TIP3    H228732   0.916   4.476   4.048
 9590TIP3   OH228733   4.053   3.797   3.891
 9590TIP3    H128734   4.039   3.763   3.803
 9590TIP3    H228735   3.972   3.777   3.938
 9591TIP3   OH228736   5.193   4.366   1.474
 9591TIP3    H128737   5.203   4.387   1.381
 9591TIP3    H228738   5.282   4.369   1.509
 9592TIP3   OH228739   3.077   3.000   3.363
 9592TIP3    H128740   3.052   2.941   3.434
 9592TIP3    H228741   3.037   2.962   3.284
 9593TIP3   OH228742   2.913   2.423   3.971
 9593TIP3    H128743   2.899   2.331   3.992
 9593TIP3    H228744   2.828   2.453   3.937
 9594TIP3   OH228745   2.908   3.983   3.407
 9594TIP3    H128746   2.957   4.031   3.340
 9594TIP3    H228747   2.914   4.039   3.485
 9595TIP3   OH228748   1.760   4.355   1.254
 9595TIP3    H128749   1.841   4.307   1.241
 9595TIP3    H228750   1.713   4.347   1.171
 9596TIP3   OH228751   6.162   0.451   2.040
 9596TIP3    H128752   6.084   0.451   1.985
 9596TIP3    H228753   6.139   0.396   2.115
 9597TIP3   OH228754   2.540   5.083   0.680
 9597TIP3    H128755   2.458   5.033   0.678
 9597TIP3    H228756   2.601   5.027   0.727
 9598TIP3   OH228757   6.363   2.030   3.233
 9598TIP3    H128758   6.412   2.011   3.313
 9598TIP3    H228759   6.367   1.948   3.183
 9599TIP3   OH228760   5.159   1.345   5.398
 9599TIP3    H128761   5.206   1.262   5.404
 9599TIP3    H228762   5.067   1.321   5.401
 9600TIP3   OH228763   6.929   4.597   2.629
 9600TIP3    H128764   6.855   4.547   2.664
 9600TIP3    H228765   6.904   4.689   2.640
 9601TIP3   OH228766   2.148   1.370   0.293
 9601TIP3    H128767   2.108   1.294   0.336
 9601TIP3    H228768   2.119   1.363   0.202
 9602TIP3   OH228769   2.428   0.514   4.948
 9602TIP3    H128770   2.345   0.561   4.948
 9602TIP3    H228771   2.443   0.493   4.855
 9603TIP3   OH228772   3.455   0.725   0.672
 9603TIP3    H128773   3.403   0.661   0.720
 9603TIP3    H228774   3.536   0.679   0.650
 9604TIP3   OH228775   4.744   5.536   2.892
 9604TIP3    H128776   4.672   5.598   2.907
 9604TIP3    H228777   4.747   5.526   2.797
 9605TIP3   OH228778   3.897   2.048   1.544
 9605TIP3    H128779   3.987   2.035   1.576
 9605TIP3    H228780   3.889   2.143   1.534
 9606TIP3   OH228781   3.724   5.544   2.814
 9606TIP3    H128782   3.637   5.504   2.815
 9606TIP3    H228783   3.767   5.505   2.738
 9607TIP3   OH228784   5.029   6.660   1.174
 9607TIP3    H128785   5.079   6.640   1.095
 9607TIP3    H228786   5.092   6.651   1.245
 9608TIP3   OH228787   3.988   2.547   4.657
 9608TIP3    H128788   4.014   2.552   4.749
 9608TIP3    H228789   4.038   2.616   4.614
 9609TIP3   OH228790   3.473   1.687   5.514
 9609TIP3    H128791   3.546   1.625   5.511
 9609TIP3    H228792   3.468   1.714   5.606
 9610TIP3   OH228793   2.108   2.288   1.307
 9610TIP3    H128794   2.090   2.197   1.331
 9610TIP3    H228795   2.113   2.334   1.391
 9611TIP3   OH228796   5.641   0.228   0.271
 9611TIP3    H128797   5.596   0.234   0.187
 9611TIP3    H228798   5.730   0.259   0.253
 9612TIP3   OH228799   4.055   1.671   2.920
 9612TIP3    H128800   3.997   1.714   2.857
 9612TIP3    H228801   4.065   1.735   2.991
 9613TIP3   OH228802   5.318   3.656   3.888
 9613TIP3    H128803   5.272   3.577   3.917
 9613TIP3    H228804   5.341   3.701   3.969
 9614TIP3   OH228805   0.627   1.789   4.773
 9614TIP3    H128806   0.675   1.779   4.691
 9614TIP3    H228807   0.616   1.699   4.805
 9615TIP3   OH228808   0.428   5.158   2.806
 9615TIP3    H128809   0.498   5.194   2.860
 9615TIP3    H228810   0.432   5.208   2.724
 9616TIP3   OH228811   4.409   5.455   3.561
 9616TIP3    H128812   4.501   5.473   3.580
 9616TIP3    H228813   4.384   5.388   3.625
 9617TIP3   OH228814   3.051   6.202   3.613
 9617TIP3    H128815   3.095   6.282   3.644
 9617TIP3    H228816   3.060   6.141   3.686
 9618TIP3   OH228817   2.309   5.344   5.469
 9618TIP3    H128818   2.363   5.310   5.397
 9618TIP3    H228819   2.246   5.402   5.427
 9619TIP3   OH228820   0.816   5.396   5.250
 9619TIP3    H128821   0.794   5.317   5.299
 9619TIP3    H228822   0.783   5.379   5.162
 9620TIP3   OH228823   0.102   1.167   2.215
 9620TIP3    H128824   0.181   1.143   2.168
 9620TIP3    H228825   0.034   1.170   2.148
 9621TIP3   OH228826   1.874   3.169   0.853
 9621TIP3    H128827   1.949   3.115   0.877
 9621TIP3    H228828   1.827   3.118   0.788
 9622TIP3   OH228829   2.707   2.758   0.201
 9622TIP3    H128830   2.628   2.762   0.255
 9622TIP3    H228831   2.749   2.843   0.215
 9623TIP3   OH228832   6.570   1.843   5.479
 9623TIP3    H128833   6.604   1.819   5.393
 9623TIP3    H228834   6.549   1.936   5.472
 9624TIP3   OH228835   4.913   1.715   3.950
 9624TIP3    H128836   5.007   1.714   3.927
 9624TIP3    H228837   4.911   1.700   4.044
 9625TIP3   OH228838   3.133   5.937   0.256
 9625TIP3    H128839   3.214   5.890   0.270
 9625TIP3    H228840   3.160   6.021   0.217
 9626TIP3   OH228841   3.455   1.212   2.879
 9626TIP3    H128842   3.472   1.220   2.785
 9626TIP3    H228843   3.451   1.117   2.894
 9627TIP3   OH228844   4.513   6.160   0.940
 9627TIP3    H128845   4.427   6.179   0.903
 9627TIP3    H228846   4.563   6.240   0.928
 9628TIP3   OH228847   6.963   3.472   5.412
 9628TIP3    H128848   6.942   3.553   5.367
 9628TIP3    H228849   6.905   3.407   5.374
 9629TIP3   OH228850   3.069   3.608  -0.037
 9629TIP3    H128851   3.154   3.634  -0.073
 9629TIP3    H228852   3.073   3.512  -0.034
 9630TIP3   OH228853   2.177   1.843   5.619
 9630TIP3    H128854   2.135   1.772   5.570
 9630TIP3    H228855   2.267   1.813   5.631
 9631TIP3   OH228856   3.193   0.286   0.950
 9631TIP3    H128857   3.208   0.191   0.955
 9631TIP3    H228858   3.098   0.296   0.957
 9632TIP3   OH228859   6.407   4.566   2.647
 9632TIP3    H128860   6.474   4.523   2.595
 9632TIP3    H228861   6.324   4.536   2.609
 9633TIP3   OH228862   6.515   2.081   2.761
 9633TIP3    H128863   6.572   2.037   2.824
 9633TIP3    H228864   6.535   2.040   2.677
 9634TIP3   OH228865   6.802   5.080   1.750
 9634TIP3    H128866   6.868   5.148   1.741
 9634TIP3    H228867   6.850   4.998   1.738
 9635TIP3   OH228868   5.550   2.252   5.554
 9635TIP3    H128869   5.502   2.303   5.489
 9635TIP3    H228870   5.553   2.308   5.632
 9636TIP3   OH228871   6.009   3.403   1.580
 9636TIP3    H128872   5.969   3.339   1.640
 9636TIP3    H228873   5.969   3.384   1.495
 9637TIP3   OH228874   0.847  -0.028   5.216
 9637TIP3    H128875   0.927   0.024   5.229
 9637TIP3    H228876   0.871  -0.092   5.149
 9638TIP3   OH228877   5.976   6.372   3.011
 9638TIP3    H128878   6.035   6.378   2.936
 9638TIP3    H228879   5.954   6.279   3.017
 9639TIP3   OH228880   1.171   3.219   1.627
 9639TIP3    H128881   1.180   3.314   1.617
 9639TIP3    H228882   1.078   3.203   1.617
 9640TIP3   OH228883   1.854   1.723   5.839
 9640TIP3    H128884   1.788   1.769   5.786
 9640TIP3    H228885   1.855   1.771   5.922
 9641TIP3   OH228886   1.292   1.113   0.714
 9641TIP3    H128887   1.208   1.076   0.738
 9641TIP3    H228888   1.283   1.136   0.621
 9642TIP3   OH228889   2.229   3.863   2.556
 9642TIP3    H128890   2.201   3.774   2.577
 9642TIP3    H228891   2.237   3.863   2.461
 9643TIP3   OH228892   3.230   2.829   5.145
 9643TIP3    H128893   3.319   2.814   5.178
 9643TIP3    H228894   3.177   2.840   5.224
 9644TIP3   OH228895   1.788   0.525   4.121
 9644TIP3    H128896   1.866   0.527   4.176
 9644TIP3    H228897   1.760   0.433   4.121
 9645TIP3   OH228898   3.482   3.252   0.848
 9645TIP3    H128899   3.512   3.307   0.920
 9645TIP3    H228900   3.559   3.243   0.791
 9646TIP3   OH228901   1.551   1.282   0.223
 9646TIP3    H128902   1.484   1.294   0.156
 9646TIP3    H228903   1.619   1.346   0.201
 9647TIP3   OH228904   5.478   6.427   2.948
 9647TIP3    H128905   5.450   6.335   2.950
 9647TIP3    H228906   5.499   6.443   2.856
 9648TIP3   OH228907   3.904   2.977   1.196
 9648TIP3    H128908   3.874   2.897   1.239
 9648TIP3    H228909   3.970   2.948   1.134
 9649TIP3   OH228910   2.048   2.087   2.090
 9649TIP3    H128911   1.994   2.132   2.025
 9649TIP3    H228912   2.090   2.016   2.041
 9650TIP3   OH228913   0.558   1.870   5.192
 9650TIP3    H128914   0.546   1.825   5.276
 9650TIP3    H228915   0.529   1.807   5.126
 9651TIP3   OH228916   1.998   4.704   5.423
 9651TIP3    H128917   1.955   4.758   5.356
 9651TIP3    H228918   1.948   4.623   5.425
 9652TIP3   OH228919   0.466   0.866   2.208
 9652TIP3    H128920   0.424   0.907   2.284
 9652TIP3    H228921   0.523   0.800   2.245
 9653TIP3   OH228922   4.664   0.104   3.885
 9653TIP3    H128923   4.669   0.197   3.862
 9653TIP3    H228924   4.731   0.091   3.951
 9654TIP3   OH228925   7.063   2.178   0.378
 9654TIP3    H128926   7.107   2.154   0.460
 9654TIP3    H228927   6.977   2.210   0.406
 9655TIP3   OH228928   3.441   4.924   4.507
 9655TIP3    H128929   3.484   4.867   4.443
 9655TIP3    H228930   3.348   4.901   4.500
 9656TIP3   OH228931   1.702   0.133   5.028
 9656TIP3    H128932   1.765   0.200   5.001
 9656TIP3    H228933   1.616   0.174   5.016
 9657TIP3   OH228934   1.350   1.219   2.212
 9657TIP3    H128935   1.301   1.144   2.178
 9657TIP3    H228936   1.300   1.247   2.289
 9658TIP3   OH228937   3.828   6.434   0.739
 9658TIP3    H128938   3.897   6.499   0.727
 9658TIP3    H228939   3.757   6.482   0.781
 9659TIP3   OH228940   6.725   1.406   4.072
 9659TIP3    H128941   6.698   1.440   3.986
 9659TIP3    H228942   6.782   1.473   4.107
 9660TIP3   OH228943   4.007   2.118   2.474
 9660TIP3    H128944   4.010   2.035   2.427
 9660TIP3    H228945   4.044   2.099   2.560
 9661TIP3   OH228946   5.602   0.774   0.845
 9661TIP3    H128947   5.609   0.807   0.934
 9661TIP3    H228948   5.684   0.801   0.803
 9662TIP3   OH228949   4.231   0.500   2.498
 9662TIP3    H128950   4.318   0.513   2.459
 9662TIP3    H228951   4.180   0.575   2.468
 9663TIP3   OH228952   3.163   0.472   2.522
 9663TIP3    H128953   3.078   0.428   2.518
 9663TIP3    H228954   3.210   0.427   2.593
 9664TIP3   OH228955   4.326   1.573   2.884
 9664TIP3    H128956   4.356   1.572   2.975
 9664TIP3    H228957   4.238   1.610   2.889
 9665TIP3   OH228958   5.700   0.116   5.388
 9665TIP3    H128959   5.660   0.080   5.467
 9665TIP3    H228960   5.627   0.130   5.328
 9666TIP3   OH228961   5.155   2.600   1.290
 9666TIP3    H128962   5.128   2.614   1.199
 9666TIP3    H228963   5.082   2.633   1.342
 9667TIP3   OH228964   6.101   2.379   3.995
 9667TIP3    H128965   6.109   2.302   4.051
 9667TIP3    H228966   6.177   2.432   4.017
 9668TIP3   OH228967   6.457   3.661   1.541
 9668TIP3    H128968   6.394   3.720   1.498
 9668TIP3    H228969   6.407   3.619   1.611
 9669TIP3   OH228970   0.252   2.819   2.199
 9669TIP3    H128971   0.193   2.778   2.135
 9669TIP3    H228972   0.224   2.911   2.201
 9670TIP3   OH228973   0.862   6.594   5.460
 9670TIP3    H128974   0.868   6.676   5.507
 9670TIP3    H228975   0.784   6.602   5.405
 9671TIP3   OH228976   1.229   5.310   2.494
 9671TIP3    H128977   1.238   5.223   2.457
 9671TIP3    H228978   1.227   5.296   2.589
 9672TIP3   OH228979   3.767   6.113   3.486
 9672TIP3    H128980   3.679   6.082   3.509
 9672TIP3    H228981   3.815   6.033   3.464
 9673TIP3   OH228982   2.090   3.095   2.081
 9673TIP3    H128983   2.065   3.154   2.010
 9673TIP3    H228984   2.008   3.076   2.126
 9674TIP3   OH228985   2.305   1.669   3.900
 9674TIP3    H128986   2.348   1.755   3.905
 9674TIP3    H228987   2.340   1.630   3.821
 9675TIP3   OH228988   5.436   5.350   4.500
 9675TIP3    H128989   5.373   5.283   4.474
 9675TIP3    H228990   5.387   5.407   4.559
 9676TIP3   OH228991   5.402   4.614   0.011
 9676TIP3    H128992   5.414   4.618   0.106
 9676TIP3    H228993   5.347   4.537  -0.003
 9677TIP3   OH228994   6.011   2.715   2.857
 9677TIP3    H128995   5.940   2.653   2.840
 9677TIP3    H228996   6.090   2.669   2.827
 9678TIP3   OH228997   1.251   4.068   1.418
 9678TIP3    H128998   1.203   4.018   1.352
 9678TIP3    H228999   1.184   4.092   1.483
 9679TIP3   OH229000   1.777   1.376   1.042
 9679TIP3    H129001   1.710   1.413   1.100
 9679TIP3    H229002   1.795   1.289   1.079
 9680TIP3   OH229003   5.691   1.273   3.635
 9680TIP3    H129004   5.706   1.276   3.730
 9680TIP3    H229005   5.779   1.280   3.597
 9681TIP3   OH229006   4.617   1.340   5.835
 9681TIP3    H129007   4.651   1.250   5.837
 9681TIP3    H229008   4.522   1.329   5.824
 9682TIP3   OH229009   6.360   5.247   4.262
 9682TIP3    H129010   6.352   5.342   4.249
 9682TIP3    H229011   6.453   5.229   4.246
 9683TIP3   OH229012   7.117   1.118   1.285
 9683TIP3    H129013   7.023   1.096   1.281
 9683TIP3    H229014   7.134   1.130   1.378
 9684TIP3   OH229015   6.289   2.176   1.745
 9684TIP3    H129016   6.305   2.128   1.826
 9684TIP3    H229017   6.279   2.268   1.772
 9685TIP3   OH229018   0.699   5.731   1.095
 9685TIP3    H129019   0.644   5.690   1.028
 9685TIP3    H229020   0.738   5.807   1.051
 9686TIP3   OH229021   3.263   1.617   3.194
 9686TIP3    H129022   3.214   1.560   3.253
 9686TIP3    H229023   3.337   1.564   3.165
 9687TIP3   OH229024   4.033   2.312   5.027
 9687TIP3    H129025   3.969   2.309   4.955
 9687TIP3    H229026   4.117   2.291   4.985
 9688TIP3   OH229027   1.641   4.864   0.240
 9688TIP3    H129028   1.627   4.826   0.153
 9688TIP3    H229029   1.685   4.794   0.289
 9689TIP3   OH229030   2.250   5.395   3.626
 9689TIP3    H129031   2.302   5.316   3.610
 9689TIP3    H229032   2.288   5.461   3.569
 9690TIP3   OH229033   6.426   1.508   4.575
 9690TIP3    H129034   6.518   1.488   4.588
 9690TIP3    H229035   6.423   1.557   4.493
 9691TIP3   OH229036   5.500   1.005   3.499
 9691TIP3    H129037   5.518   0.956   3.419
 9691TIP3    H229038   5.525   1.095   3.478
 9692TIP3   OH229039   6.223   4.216   5.635
 9692TIP3    H129040   6.168   4.139   5.650
 9692TIP3    H229041   6.246   4.212   5.543
 9693TIP3   OH229042   4.420   3.697   1.198
 9693TIP3    H129043   4.385   3.762   1.137
 9693TIP3    H229044   4.455   3.749   1.270
 9694TIP3   OH229045   2.676   3.557   1.937
 9694TIP3    H129046   2.646   3.643   1.968
 9694TIP3    H229047   2.748   3.534   1.995
 9695TIP3   OH229048   2.846   2.301   0.291
 9695TIP3    H129049   2.891   2.320   0.208
 9695TIP3    H229050   2.810   2.213   0.279
 9696TIP3   OH229051   5.209   4.875   5.229
 9696TIP3    H129052   5.117   4.894   5.245
 9696TIP3    H229053   5.253   4.891   5.312
 9697TIP3   OH229054   6.347   5.721   2.153
 9697TIP3    H129055   6.357   5.770   2.234
 9697TIP3    H229056   6.427   5.741   2.103
 9698TIP3   OH229057   3.993   1.131   1.876
 9698TIP3    H129058   3.933   1.165   1.943
 9698TIP3    H229059   3.998   1.201   1.811
 9699TIP3   OH229060   0.037   6.330   3.504
 9699TIP3    H129061   0.111   6.328   3.443
 9699TIP3    H229062  -0.023   6.264   3.471
 9700TIP3   OH229063   5.905   6.039   5.415
 9700TIP3    H129064   5.850   6.043   5.336
 9700TIP3    H229065   5.980   6.095   5.395
 9701TIP3   OH229066   1.370   3.194   4.542
 9701TIP3    H129067   1.289   3.145   4.553
 9701TIP3    H229068   1.343   3.285   4.534
 9702TIP3   OH229069   1.072   0.388   5.302
 9702TIP3    H129070   1.026   0.470   5.321
 9702TIP3    H229071   1.120   0.368   5.383
 9703TIP3   OH229072   5.355   6.689   2.074
 9703TIP3    H129073   5.263   6.673   2.053
 9703TIP3    H229074   5.355   6.769   2.126
 9704TIP3   OH229075   0.640   4.462   1.975
 9704TIP3    H129076   0.549   4.460   1.946
 9704TIP3    H229077   0.649   4.544   2.022
 9705TIP3   OH229078   0.379   2.455   1.818
 9705TIP3    H129079   0.436   2.379   1.811
 9705TIP3    H229080   0.313   2.441   1.749
 9706TIP3   OH229081   2.073   5.113   2.125
 9706TIP3    H129082   2.008   5.065   2.177
 9706TIP3    H229083   2.157   5.085   2.162
 9707TIP3   OH229084   3.103   3.379   2.380
 9707TIP3    H129085   3.085   3.472   2.363
 9707TIP3    H229086   3.194   3.377   2.410
 9708TIP3   OH229087   1.293   0.683   2.897
 9708TIP3    H129088   1.377   0.675   2.852
 9708TIP3    H229089   1.283   0.599   2.943
 9709TIP3   OH229090   0.304   1.040   2.071
 9709TIP3    H129091   0.365   1.009   2.139
 9709TIP3    H229092   0.275   0.960   2.027
 9710TIP3   OH229093   2.650   4.089   0.873
 9710TIP3    H129094   2.561   4.125   0.879
 9710TIP3    H229095   2.644   4.004   0.917
 9711TIP3   OH229096   1.325   4.928   5.564
 9711TIP3    H129097   1.274   4.994   5.611
 9711TIP3    H229098   1.321   4.956   5.473
 9712TIP3   OH229099   6.078   3.987   5.676
 9712TIP3    H129100   5.983   3.999   5.676
 9712TIP3    H229101   6.091   3.897   5.648
 9713TIP3   OH229102   0.786   1.258   5.810
 9713TIP3    H129103   0.770   1.185   5.870
 9713TIP3    H229104   0.785   1.336   5.866
 9714TIP3   OH229105   6.330   3.573   1.204
 9714TIP3    H129106   6.345   3.630   1.279
 9714TIP3    H229107   6.377   3.492   1.225
 9715TIP3   OH229108   0.122   1.650   1.392
 9715TIP3    H129109   0.137   1.587   1.322
 9715TIP3    H229110   0.058   1.608   1.449
 9716TIP3   OH229111   6.065   4.950   0.177
 9716TIP3    H129112   6.053   4.890   0.250
 9716TIP3    H229113   5.981   4.994   0.168
 9717TIP3   OH229114   7.081   2.211   2.923
 9717TIP3    H129115   7.040   2.127   2.899
 9717TIP3    H229116   7.007   2.268   2.945
 9718TIP3   OH229117   5.635   0.733   5.104
 9718TIP3    H129118   5.647   0.724   5.199
 9718TIP3    H229119   5.547   0.768   5.094
 9719TIP3   OH229120   5.550   4.984   5.214
 9719TIP3    H129121   5.533   4.891   5.227
 9719TIP3    H229122   5.644   4.989   5.194
 9720TIP3   OH229123   5.583   4.127   3.798
 9720TIP3    H129124   5.636   4.075   3.737
 9720TIP3    H229125   5.621   4.110   3.884
 9721TIP3   OH229126   5.471   3.080   3.978
 9721TIP3    H129127   5.435   3.031   3.904
 9721TIP3    H229128   5.565   3.064   3.973
 9722TIP3   OH229129   6.452   5.185   3.685
 9722TIP3    H129130   6.459   5.127   3.761
 9722TIP3    H229131   6.477   5.271   3.719
 9723TIP3   OH229132   6.622   3.022   4.321
 9723TIP3    H129133   6.713   2.993   4.317
 9723TIP3    H229134   6.599   3.039   4.230
 9724TIP3   OH229135   3.087   5.053   0.887
 9724TIP3    H129136   3.075   5.005   0.970
 9724TIP3    H229137   3.025   5.012   0.827
 9725TIP3   OH229138   0.962   2.842   3.742
 9725TIP3    H129139   1.051   2.839   3.778
 9725TIP3    H229140   0.956   2.763   3.689
 9726TIP3   OH229141   4.041   3.754   0.449
 9726TIP3    H129142   4.086   3.831   0.483
 9726TIP3    H229143   4.103   3.714   0.388
 9727TIP3   OH229144   2.628   3.549   3.195
 9727TIP3    H129145   2.639   3.513   3.283
 9727TIP3    H229146   2.694   3.505   3.142
 9728TIP3   OH229147   7.158   6.264   3.857
 9728TIP3    H129148   7.155   6.330   3.788
 9728TIP3    H229149   7.071   6.267   3.897
 9729TIP3   OH229150   5.557   1.915   0.098
 9729TIP3    H129151   5.642   1.946   0.069
 9729TIP3    H229152   5.543   1.958   0.183
 9730TIP3   OH229153   5.841   2.631   4.365
 9730TIP3    H129154   5.805   2.542   4.366
 9730TIP3    H229155   5.872   2.645   4.455
 9731TIP3   OH229156   6.044   1.073   4.820
 9731TIP3    H129157   6.087   0.990   4.798
 9731TIP3    H229158   6.116   1.136   4.827
 9732TIP3   OH229159   0.094   5.814   4.040
 9732TIP3    H129160   0.049   5.881   3.988
 9732TIP3    H229161   0.047   5.813   4.123
 9733TIP3   OH229162   6.487   4.999   4.573
 9733TIP3    H129163   6.440   5.082   4.586
 9733TIP3    H229164   6.430   4.933   4.613
 9734TIP3   OH229165   5.195   2.026   2.489
 9734TIP3    H129166   5.222   2.024   2.398
 9734TIP3    H229167   5.237   2.104   2.525
 9735TIP3   OH229168   2.746   1.267   4.262
 9735TIP3    H129169   2.762   1.361   4.266
 9735TIP3    H229170   2.775   1.234   4.347
 9736TIP3   OH229171   0.540   5.141   4.568
 9736TIP3    H129172   0.524   5.117   4.659
 9736TIP3    H229173   0.521   5.234   4.564
 9737TIP3   OH229174   0.763   3.217   4.436
 9737TIP3    H129175   0.799   3.291   4.485
 9737TIP3    H229176   0.689   3.187   4.489
 9738TIP3   OH229177   0.086   4.047   0.565
 9738TIP3    H129178   0.115   4.019   0.652
 9738TIP3    H229179   0.070   4.141   0.574
 9739TIP3   OH229180   5.460   5.593   4.361
 9739TIP3    H129181   5.546   5.602   4.322
 9739TIP3    H229182   5.453   5.500   4.384
 9740TIP3   OH229183   1.558   5.331   2.308
 9740TIP3    H129184   1.647   5.327   2.274
 9740TIP3    H229185   1.550   5.420   2.342
 9741TIP3   OH229186   1.877   1.239   2.082
 9741TIP3    H129187   1.912   1.320   2.046
 9741TIP3    H229188   1.933   1.220   2.158
 9742TIP3   OH229189   1.234   2.933   1.624
 9742TIP3    H129190   1.213   2.918   1.532
 9742TIP3    H229191   1.191   3.016   1.645
 9743TIP3   OH229192   2.447   0.645   0.260
 9743TIP3    H129193   2.494   0.593   0.326
 9743TIP3    H229194   2.512   0.658   0.191
 9744TIP3   OH229195   3.808   6.279   4.409
 9744TIP3    H129196   3.749   6.348   4.378
 9744TIP3    H229197   3.780   6.263   4.499
 9745TIP3   OH229198   5.786   2.736   1.402
 9745TIP3    H129199   5.766   2.670   1.335
 9745TIP3    H229200   5.712   2.797   1.398
 9746TIP3   OH229201   6.964   1.925   1.623
 9746TIP3    H129202   6.989   1.851   1.678
 9746TIP3    H229203   6.887   1.895   1.575
 9747TIP3   OH229204   3.415   6.099   1.770
 9747TIP3    H129205   3.506   6.129   1.779
 9747TIP3    H229206   3.362   6.175   1.793
 9748TIP3   OH229207   4.633   0.376   0.592
 9748TIP3    H129208   4.619   0.430   0.670
 9748TIP3    H229209   4.546   0.344   0.570
 9749TIP3   OH229210   2.109   0.276   5.693
 9749TIP3    H129211   2.090   0.219   5.767
 9749TIP3    H229212   2.080   0.363   5.722
   7.20543   6.79335   5.88320   0.00000   0.00000  -2.40181   0.00000  -2.40181  -3.39667
