Title
29212
    1ASP      N    1   3.475   1.714   0.921 -0.0065 -0.8248 -0.5024
    1ASP    HT1    2   3.539   1.729   1.001 -1.5615  0.5525  0.5323
    1ASP    HT2    3   3.387   1.766   0.937  0.9321  1.7976 -2.9209
    1ASP    HT3    4   3.511   1.765   0.838  1.4103  0.3223  0.7738
    1ASP     CA    5   3.473   1.569   0.892  0.2537 -0.4377  0.1691
    1ASP     HA    6   3.394   1.564   0.819  0.1065  1.4098  0.1499
    1ASP     CB    7   3.610   1.525   0.827 -0.2582 -0.0735  0.3861
    1ASP    HB1    8   3.694   1.528   0.899 -0.9400  0.0387  1.1890
    1ASP    HB2    9   3.630   1.594   0.742 -2.2139 -0.4847 -0.4664
    1ASP     CG   10   3.613   1.383   0.766  0.2389 -0.1887  0.0803
    1ASP    OD1   11   3.505   1.328   0.744  0.3147 -0.2058  0.0691
    1ASP    OD2   12   3.723   1.333   0.739  0.3132  0.0667  0.6677
    1ASP      C   13   3.415   1.488   1.009 -0.6117 -0.6439  0.0368
    1ASP      O   14   3.400   1.546   1.114 -0.4127 -0.3442  0.3974
    2GLY      N   15   3.385   1.356   0.995  0.0070  0.4352 -0.1915
    2GLY     HN   16   3.394   1.322   0.902 -0.7506  0.6199 -0.3350
    2GLY     CA   17   3.335   1.260   1.105  0.3932 -0.0280  0.3659
    2GLY    HA1   18   3.399   1.261   1.192 -0.0808 -3.1932  0.8463
    2GLY    HA2   19   3.337   1.164   1.056 -1.5180  0.8176 -1.4912
    2GLY      C   20   3.194   1.278   1.156  0.3209 -0.1252 -0.1349
    2GLY      O   21   3.131   1.389   1.155  0.0724  0.0401  0.1958
    3ASP      N   22   3.127   1.176   1.213 -0.0754 -0.0408  0.2899
    3ASP     HN   23   3.175   1.093   1.242 -4.0758 -1.8597  2.4491
    3ASP     CA   24   2.988   1.190   1.262 -0.2864  0.4096 -0.6081
    3ASP     HA   25   2.934   1.245   1.186  0.6589  1.4198 -0.5665
    3ASP     CB   26   2.917   1.053   1.284  0.2911  0.2041  0.7038
    3ASP    HB1   27   2.814   1.064   1.325 -0.2706  1.2189 -0.9013
    3ASP    HB2   28   2.977   0.995   1.357  0.5707  0.1974  0.4692
    3ASP     CG   29   2.910   0.970   1.152 -0.0706 -0.2290 -1.0423
    3ASP    OD1   30   2.862   1.021   1.049 -0.1142 -0.4384  0.0005
    3ASP    OD2   31   2.966   0.854   1.155  0.7026 -0.2733 -0.3523
    3ASP      C   32   2.975   1.266   1.386  0.1862  0.5545 -0.6825
    3ASP      O   33   3.025   1.220   1.488 -0.2897  0.0273  0.3635
    4GLY      N   34   2.916   1.386   1.384  0.6913 -0.5944 -1.2499
    4GLY     HN   35   2.884   1.416   1.294  0.0413 -3.5090 -2.0673
    4GLY     CA   36   2.895   1.470   1.507 -0.1290  0.0278 -0.0090
    4GLY    HA1   37   2.871   1.412   1.596  1.6136 -0.8875 -0.0879
    4GLY    HA2   38   2.812   1.531   1.476  1.0368  2.0677  0.6513
    4GLY      C   39   3.016   1.561   1.532 -0.1196  0.2802 -0.0383
    4GLY      O   40   3.108   1.573   1.447 -0.7268  0.5932 -0.7655
    5PRO      N   41   3.029   1.615   1.654 -0.0298  0.4979 -0.1330
    5PRO     CD   42   2.948   1.595   1.773  0.2976  0.4285 -0.2421
    5PRO    HD1   43   2.957   1.491   1.810 -1.5340  0.3219 -0.0476
    5PRO    HD2   44   2.842   1.606   1.743  0.3976  2.2652 -0.0575
    5PRO     CA   45   3.126   1.720   1.672 -0.5444  0.0569 -0.2602
    5PRO     HA   46   3.136   1.776   1.580 -1.8083 -1.8120 -1.6039
    5PRO     CB   47   3.058   1.797   1.784 -0.0532 -0.0186  0.5503
    5PRO    HB1   48   2.980   1.862   1.738 -0.6236 -0.8575  0.2942
    5PRO    HB2   49   3.123   1.862   1.845  0.4132 -0.6689  0.7623
    5PRO     CG   50   2.988   1.696   1.873 -0.2825 -0.0248  0.6169
    5PRO    HG1   51   3.051   1.642   1.947  1.0143 -0.0535 -0.4643
    5PRO    HG2   52   2.905   1.747   1.926  1.6210  1.6977  2.1651
    5PRO      C   53   3.269   1.667   1.707  0.1821 -0.2110  0.1409
    5PRO      O   54   3.275   1.565   1.772 -0.6149 -0.1315 -0.1704
    6GLY      N   55   3.378   1.732   1.668  0.3699 -0.5967 -0.0153
    6GLY     HN   56   3.373   1.818   1.617  0.1095 -1.4531 -1.5072
    6GLY     CA   57   3.514   1.700   1.698  0.4449 -0.7155 -0.0907
    6GLY    HA1   58   3.575   1.773   1.647 -1.8212  0.2766 -1.5814
    6GLY    HA2   59   3.531   1.599   1.663 -0.8704 -0.5717 -1.2520
    6GLY      C   60   3.557   1.711   1.847  0.6312 -0.6573 -0.4331
    6GLY      O   61   3.481   1.752   1.931 -0.4373  0.1372 -0.2024
    7ASP      N   62   3.679   1.665   1.880  0.2905 -0.1161  0.6646
    7ASP     HN   63   3.733   1.656   1.798  0.6118  1.0764  0.7288
    7ASP     CA   64   3.727   1.657   2.017 -0.2416  0.1687  0.6382
    7ASP     HA   65   3.657   1.585   2.058 -1.2017 -0.6167 -2.1265
    7ASP     CB   66   3.872   1.588   2.016  0.1081  0.6250  0.7995
    7ASP    HB1   67   3.907   1.551   2.115  0.8940 -0.2170  0.2300
    7ASP    HB2   68   3.957   1.655   1.989  0.0415  1.3149  2.2180
    7ASP     CG   69   3.889   1.472   1.916  0.2795 -0.4492  0.1715
    7ASP    OD1   70   3.811   1.370   1.936 -0.0224  0.2962  0.0294
    7ASP    OD2   71   3.975   1.476   1.825 -0.3478  0.2795  0.4457
    7ASP      C   72   3.727   1.790   2.098  0.3540 -0.2964  0.7082
    7ASP      O   73   3.745   1.899   2.044  1.1757 -0.9023 -0.2835
    8PRO      N   74   3.705   1.780   2.231 -0.1094 -0.6068  0.0944
    8PRO     CD   75   3.695   1.647   2.298 -0.4321 -0.6646 -0.2262
    8PRO    HD1   76   3.794   1.601   2.275  0.9858  2.9278 -2.1059
    8PRO    HD2   77   3.607   1.586   2.267 -0.5738 -0.3439 -0.4660
    8PRO     CA   78   3.725   1.887   2.324 -0.7109  0.4825 -0.4971
    8PRO     HA   79   3.636   1.949   2.321 -0.7276  0.4623 -0.4150
    8PRO     CB   80   3.740   1.809   2.464 -0.3881 -0.2627 -0.6951
    8PRO    HB1   81   3.697   1.867   2.549 -0.5819  1.0000 -1.6345
    8PRO    HB2   82   3.850   1.801   2.477 -0.2958  1.1428 -0.3834
    8PRO     CG   83   3.676   1.680   2.444 -0.9936 -0.1994 -0.3953
    8PRO    HG1   84   3.722   1.598   2.503 -0.6011 -0.1934 -0.6885
    8PRO    HG2   85   3.568   1.693   2.468 -1.3151 -1.9779 -0.7596
    8PRO      C   86   3.846   1.980   2.301 -0.2879  0.4871 -0.2184
    8PRO      O   87   3.951   1.928   2.256  1.0586 -0.5096 -0.8410
    9GLY      N   88   3.830   2.112   2.311  0.3227  0.0309 -0.3316
    9GLY     HN   89   3.740   2.141   2.342 -0.6695 -2.7745 -0.3471
    9GLY     CA   90   3.920   2.228   2.295  0.1982  0.6114  0.0251
    9GLY    HA1   91   3.852   2.310   2.308 -1.7179 -1.1751  2.2246
    9GLY    HA2   92   3.967   2.228   2.197  0.1765  0.9624  0.0143
    9GLY      C   93   4.024   2.236   2.402 -0.0561 -0.1685 -0.1942
    9GLY      O   94   4.027   2.148   2.488 -0.7346 -0.6020 -0.0336
   10ASP      N   95   4.103   2.343   2.409  0.4681 -0.0471  0.0438
   10ASP     HN   96   4.089   2.412   2.338 -0.1437 -1.0517 -0.8358
   10ASP     CA   97   4.198   2.379   2.511 -0.6210 -0.5652 -0.5799
   10ASP     HA   98   4.206   2.290   2.571 -0.8615 -0.4677 -0.4002
   10ASP     CB   99   4.329   2.420   2.443  0.9405  0.4070  0.1227
   10ASP    HB1  100   4.397   2.449   2.526 -0.5827 -0.6571  1.8264
   10ASP    HB2  101   4.321   2.501   2.368  0.3203  0.2630  0.0300
   10ASP     CG  102   4.381   2.297   2.374 -0.3862  0.7532  0.1587
   10ASP    OD1  103   4.407   2.192   2.439  1.0243  0.3665  0.5503
   10ASP    OD2  104   4.406   2.306   2.249  0.4903 -0.1435  0.0413
   10ASP      C  105   4.145   2.492   2.603 -0.1048 -0.4351  0.6107
   10ASP      O  106   4.110   2.599   2.552 -0.0294  0.0421 -0.2031
   11GLY      N  107   4.142   2.469   2.737 -0.2955  0.1143 -0.5282
   11GLY     HN  108   4.165   2.379   2.774 -4.1177 -0.3567  1.1894
   11GLY     CA  109   4.091   2.558   2.840 -0.5802 -0.0250 -0.4857
   11GLY    HA1  110   4.089   2.491   2.925  2.3118 -2.6390 -2.2451
   11GLY    HA2  111   3.994   2.600   2.819 -1.6899 -0.7996  2.6178
   11GLY      C  112   4.188   2.678   2.863 -1.2445  0.6198  0.0544
   11GLY    OT1  113   4.144   2.794   2.843  0.6068 -0.0331 -0.7298
   11GLY    OT2  114   4.306   2.656   2.896  0.9317  0.1092 -0.6851
   12SOD    SOD  115   3.260   0.874   0.819  0.0522 -0.1401  0.4160
   13SOD    SOD  116   4.814   5.718   3.272  0.7238  0.7129 -0.1908
   14SOD    SOD  117   2.012   4.452   3.145  0.3759 -0.2488 -0.1684
   15SOD    SOD  118   1.397   2.082   0.575  0.3824 -0.1465  0.3533
   16SOD    SOD  119   5.281   0.130   4.326 -0.0547 -0.1928 -0.1460
   17SOD    SOD  120   2.532   1.302   5.312  0.1908  0.2748  0.0514
   18SOD    SOD  121   5.336   4.082   3.071  0.0756 -0.2256  0.1126
   19SOD    SOD  122   4.416   1.934   3.860 -1.0051 -0.2635 -0.4089
   20SOD    SOD  123   1.037   5.139   0.254  0.3591  0.0601  0.4139
   21SOD    SOD  124   5.670   6.768   2.095  0.2596 -0.1177 -0.1953
   22SOD    SOD  125   2.074   6.095   4.335  0.1991 -0.7768 -0.1987
   23SOD    SOD  126   4.129   0.799   1.377 -0.1233 -0.1324  0.2595
   24SOD    SOD  127   4.649   0.298   1.017 -0.2138  0.4492  0.5020
   25SOD    SOD  128   3.778   5.323   3.665  0.7010 -0.4423 -0.1668
   26SOD    SOD  129   6.466   4.182   2.073  0.6868  0.0365  0.5220
   27SOD    SOD  130   4.375   1.505   4.817 -0.0436 -0.0563  0.4154
   28SOD    SOD  131   2.463   2.435   1.245  0.0798  0.0417  0.7694
   29SOD    SOD  132   0.500   6.091   1.817 -0.0546  0.0063  0.0160
   30SOD    SOD  133   0.788   0.031   0.410  0.0223 -0.4115  0.1454
   31SOD    SOD  134   4.083   3.743   1.116  0.2759  0.6492 -0.1543
   32SOD    SOD  135   4.498   3.744   0.690  0.0705 -0.1778  0.2781
   33SOD    SOD  136   1.492   1.548   4.119  0.2097 -0.1301 -0.2793
   34SOD    SOD  137   2.267   3.573   3.535  0.2118  0.4697  0.1273
   35SOD    SOD  138   0.998   2.093   1.986 -0.0346 -0.3294 -0.3371
   36SOD    SOD  139   4.911   3.332   4.180  0.1813  0.2436  0.0566
   37SOD    SOD  140   3.259   4.412   0.688  0.1197 -0.0631  0.3826
   38SOD    SOD  141   5.820   3.716   5.367 -0.3118 -0.2736 -0.6437
   39SOD    SOD  142   0.887   4.818   3.160  0.6648 -0.1678 -0.0520
   40SOD    SOD  143   5.908   1.158   0.914  0.0394  0.1850  0.3564
   41SOD    SOD  144   0.178   3.176   0.251 -0.4627  0.2065 -0.2895
   42SOD    SOD  145   4.171   3.990   5.379  0.4145 -0.4205  0.0537
   43CLA    CLA  146   0.438   6.693   0.491 -0.0706 -0.1557  0.1844
   44CLA    CLA  147   3.262   4.738   0.326  0.5179 -0.2335 -0.3909
   45CLA    CLA  148   5.201   0.955   3.339 -0.2571 -0.2649  0.0460
   46CLA    CLA  149   0.323   0.105   0.537 -0.4425  0.2200  0.2736
   47CLA    CLA  150   2.810   4.739   3.039  0.0095  0.3399  0.6193
   48CLA    CLA  151   0.740   2.141   0.275 -0.0321 -0.0779  0.3242
   49CLA    CLA  152   4.469   4.888   2.759  0.2777 -0.2787 -0.1111
   50CLA    CLA  153   5.425   1.218   0.260 -0.6268  0.2747 -0.1419
   51CLA    CLA  154   2.819   2.473   1.180  0.2220 -0.1217  0.1042
   52CLA    CLA  155   4.205   5.324   0.517  0.2194  0.2197 -0.4089
   53CLA    CLA  156   5.311   4.365   0.922 -0.0137 -0.3999 -0.0203
   54CLA    CLA  157   6.307   5.124   3.036  0.4546  0.2787  0.1996
   55CLA    CLA  158   1.097   1.555   1.535  0.1313 -0.0136 -0.0457
   56CLA    CLA  159   3.387   0.497   4.296 -0.0802 -0.1505 -0.2558
   57CLA    CLA  160   6.392   1.067   1.084 -0.2466  0.7535 -0.3989
   58CLA    CLA  161   6.153   2.924   5.131  0.0355  0.1483 -0.4767
   59CLA    CLA  162   2.192   6.233   2.098  0.1309 -0.0387 -0.1506
   60CLA    CLA  163   2.010   5.069   1.158  0.2139  0.1763 -0.1728
   61CLA    CLA  164   3.134   4.218   1.091  0.1243  0.0027  0.2422
   62CLA    CLA  165   6.856   5.359   5.231  0.2788  0.4124  0.1519
   63CLA    CLA  166   5.226   5.260   0.589 -0.3472  0.4840 -0.1608
   64CLA    CLA  167   3.741   5.812   1.375  0.1475 -0.0737  0.0053
   65CLA    CLA  168   1.508   2.011   3.274  0.2678 -0.0418 -0.1169
   66CLA    CLA  169   3.080   4.789   3.927  0.1538 -0.1338 -0.1715
   67CLA    CLA  170   6.806   4.006   5.369 -0.2193  0.2286 -0.0649
   68CLA    CLA  171   0.206   3.192   0.862  0.2490 -0.1390 -0.1619
   69CLA    CLA  172   1.214   0.643   3.854  0.0932  0.5892 -0.2766
   70TIP3   OH2  173   4.827   4.201   5.345 -0.1324  0.3748  0.3497
   70TIP3    H1  174   4.751   4.170   5.294 -0.4365 -1.6692  1.9368
   70TIP3    H2  175   4.789   4.259   5.411 -0.6030 -1.7672  2.0658
   71TIP3   OH2  176   6.102   1.039   0.171  0.2487 -0.0455  0.1129
   71TIP3    H1  177   6.197   1.051   0.164  0.3466 -0.5881  0.4370
   71TIP3    H2  178   6.066   1.128   0.165  0.7248  0.1086 -0.7324
   72TIP3   OH2  179   6.717   0.619   3.965 -0.0139  0.1071  0.1008
   72TIP3    H1  180   6.658   0.688   3.994 -0.5215  0.9013 -2.5445
   72TIP3    H2  181   6.659   0.552   3.928  0.6397  0.4889 -1.6997
   73TIP3   OH2  182   0.333   0.651   0.438 -0.4792  0.1522  0.4412
   73TIP3    H1  183   0.327   0.692   0.352 -0.5688  2.0419  1.3059
   73TIP3    H2  184   0.335   0.557   0.420  1.5036  0.5393 -1.7149
   74TIP3   OH2  185   5.244   1.144   3.114 -0.6172 -0.5617 -0.4881
   74TIP3    H1  186   5.151   1.167   3.108 -0.4446  0.7017  0.9951
   74TIP3    H2  187   5.253   1.099   3.198  0.2094 -0.0733 -0.2972
   75TIP3   OH2  188   0.814   2.516   3.068 -0.1328  0.2368  0.6931
   75TIP3    H1  189   0.832   2.478   2.982 -2.2071 -1.6393  1.0085
   75TIP3    H2  190   0.901   2.527   3.108  0.7458 -0.6557 -0.8778
   76TIP3   OH2  191   1.917   3.553   2.256  0.1856 -0.4048 -0.6988
   76TIP3    H1  192   1.976   3.491   2.214  1.0620 -2.8683  3.5792
   76TIP3    H2  193   1.975   3.612   2.304 -0.7813 -0.1483  0.1766
   77TIP3   OH2  194   0.323   5.465   5.473 -0.1555 -0.0747  0.0344
   77TIP3    H1  195   0.369   5.405   5.414  0.3298 -0.1313  0.4623
   77TIP3    H2  196   0.259   5.510   5.417 -0.1729 -0.6231 -0.3906
   78TIP3   OH2  197   6.194   4.645   0.860 -0.5941  0.3132 -0.4468
   78TIP3    H1  198   6.103   4.673   0.855 -0.3530  1.7734  1.7342
   78TIP3    H2  199   6.244   4.715   0.819 -0.2208  1.7745  2.2476
   79TIP3   OH2  200   4.007   1.344   1.087 -0.1032  0.5270  0.0235
   79TIP3    H1  201   4.007   1.311   1.177  1.0836  1.5859  0.4448
   79TIP3    H2  202   4.094   1.382   1.075  0.3760 -1.0859 -2.1718
   80TIP3   OH2  203   6.674   0.102   5.307  0.3604  0.3143  0.5792
   80TIP3    H1  204   6.722   0.132   5.384 -0.5386  3.0906  0.1878
   80TIP3    H2  205   6.582   0.111   5.332  0.0652  0.4739 -0.5370
   81TIP3   OH2  206   2.286   5.599   1.303 -0.5361 -0.1422  0.3623
   81TIP3    H1  207   2.361   5.644   1.341 -2.1991  2.1188  1.2717
   81TIP3    H2  208   2.281   5.516   1.350  3.2133 -1.9666 -2.0167
   82TIP3   OH2  209   5.617   2.094   0.965 -0.9100 -0.3466 -0.2648
   82TIP3    H1  210   5.625   2.020   0.905 -0.7270  1.2560 -2.3233
   82TIP3    H2  211   5.695   2.088   1.021 -0.1791 -0.9224 -1.3256
   83TIP3   OH2  212   1.196   1.689   5.209 -0.4460 -0.2894 -0.1506
   83TIP3    H1  213   1.183   1.601   5.247  2.8464 -0.8450  0.0185
   83TIP3    H2  214   1.290   1.705   5.219 -0.6827  2.6355 -1.6387
   84TIP3   OH2  215   5.977   2.528   2.180  0.0575  0.1906  0.2602
   84TIP3    H1  216   5.949   2.519   2.272 -1.5540 -1.1491 -0.3074
   84TIP3    H2  217   5.917   2.593   2.144  0.7253  0.7537  0.1367
   85TIP3   OH2  218   0.972   3.555   4.575  0.0640  0.1254 -0.4610
   85TIP3    H1  219   0.891   3.604   4.558 -0.0298  0.1477  0.0407
   85TIP3    H2  220   0.993   3.575   4.666 -0.0174 -0.8238 -0.2248
   86TIP3   OH2  221   2.721   4.554   5.705 -0.2249  0.1556 -0.1754
   86TIP3    H1  222   2.694   4.643   5.728  1.2924  0.5833  0.0317
   86TIP3    H2  223   2.792   4.566   5.642  0.2929 -0.8961  0.1878
   87TIP3   OH2  224   5.404   5.303   1.029  0.3252  0.0695 -0.3319
   87TIP3    H1  225   5.324   5.262   1.061 -0.5440  2.3663  0.6699
   87TIP3    H2  226   5.471   5.281   1.094  0.0554 -0.2958 -0.1775
   88TIP3   OH2  227   7.174   4.870   2.842 -0.7000 -0.2009 -0.2528
   88TIP3    H1  228   7.201   4.960   2.822 -1.5082 -0.1515 -1.2050
   88TIP3    H2  229   7.209   4.854   2.929  1.7027  0.1204 -1.0785
   89TIP3   OH2  230   7.120   2.898   5.328 -0.2551  0.0083  0.3104
   89TIP3    H1  231   7.078   2.817   5.300  0.6942 -0.9338  1.4810
   89TIP3    H2  232   7.050   2.947   5.371 -0.7456 -0.3679 -0.0361
   90TIP3   OH2  233   0.334   2.062   0.103  0.2465  0.1630 -0.7974
   90TIP3    H1  234   0.342   2.064   0.198  1.2617 -0.7822 -0.8542
   90TIP3    H2  235   0.242   2.082   0.087  0.2885  1.4169  0.3258
   91TIP3   OH2  236   6.581   0.144   2.364 -0.1513  0.0275 -0.3418
   91TIP3    H1  237   6.667   0.121   2.328 -0.2869  0.2888 -0.8448
   91TIP3    H2  238   6.539   0.196   2.295 -0.5190  0.3211  0.0930
   92TIP3   OH2  239   2.901   1.004   2.430 -0.0477  0.0265 -0.0953
   92TIP3    H1  240   2.888   0.939   2.500  0.8613 -1.2184 -1.0412
   92TIP3    H2  241   2.890   0.954   2.349  1.3766  0.8920 -0.8577
   93TIP3   OH2  242   1.688   4.382   2.826  0.1550 -0.4122  0.1094
   93TIP3    H1  243   1.604   4.427   2.838  0.8011  1.0414 -0.6104
   93TIP3    H2  244   1.687   4.353   2.735  0.6111  0.0191 -0.0383
   94TIP3   OH2  245   2.798   0.364   0.230 -0.4942  0.4717 -0.9625
   94TIP3    H1  246   2.703   0.371   0.217 -0.8773 -0.4698  1.0204
   94TIP3    H2  247   2.811   0.278   0.269  0.9778  1.2681  0.4160
   95TIP3   OH2  248   0.935   4.723   5.202  0.7113  0.4374 -0.3704
   95TIP3    H1  249   0.988   4.753   5.275  0.2499  1.4393 -0.4348
   95TIP3    H2  250   0.916   4.631   5.222  0.8432  0.6134  0.6160
   96TIP3   OH2  251   6.085   6.694   4.638  0.6864 -0.1118  0.4057
   96TIP3    H1  252   6.111   6.671   4.727 -0.8018  1.6079  1.3579
   96TIP3    H2  253   6.007   6.749   4.649  0.5325  0.2560 -1.9536
   97TIP3   OH2  254   4.570   5.792   5.711 -0.1559 -0.5660 -0.0459
   97TIP3    H1  255   4.569   5.762   5.620 -0.9212 -1.5942  0.2856
   97TIP3    H2  256   4.583   5.887   5.705 -0.1528 -0.6306 -1.2221
   98TIP3   OH2  257   2.015   0.851   3.308 -0.1604 -0.0109  0.3415
   98TIP3    H1  258   2.097   0.900   3.310 -1.8835  3.1053  1.0789
   98TIP3    H2  259   1.994   0.837   3.401 -0.7878 -0.1504  0.1842
   99TIP3   OH2  260   7.229   6.494   3.749  0.0847  0.5303 -0.2003
   99TIP3    H1  261   7.173   6.432   3.796 -1.0627  1.2061 -0.6043
   99TIP3    H2  262   7.202   6.486   3.657  1.4401  0.1001 -0.5776
  100TIP3   OH2  263   3.389   4.368   1.237  0.2302  0.1796 -0.7981
  100TIP3    H1  264   3.359   4.458   1.228  0.9509  0.4928 -0.1650
  100TIP3    H2  265   3.324   4.316   1.189 -1.5483  0.7888  0.8173
  101TIP3   OH2  266   4.227   3.064   3.645 -0.1883  0.4969  0.2766
  101TIP3    H1  267   4.165   3.093   3.578  0.6849 -0.7021 -1.0923
  101TIP3    H2  268   4.281   2.998   3.602  2.2709  1.7149  1.3412
  102TIP3   OH2  269   6.350   6.363   1.768 -0.2841 -0.6379 -0.2133
  102TIP3    H1  270   6.373   6.368   1.675  2.1902  0.3069  0.3605
  102TIP3    H2  271   6.351   6.269   1.788 -1.8820 -0.9298 -1.3157
  103TIP3   OH2  272   2.287   4.173   2.576  0.1023  0.0535  0.0415
  103TIP3    H1  273   2.380   4.172   2.554 -0.2309 -0.9205 -1.4878
  103TIP3    H2  274   2.246   4.219   2.502 -0.8437 -1.3547 -0.3507
  104TIP3   OH2  275   0.641   5.557   4.357  0.4070 -0.7157  0.5053
  104TIP3    H1  276   0.672   5.479   4.311  0.9971  0.3352 -0.9391
  104TIP3    H2  277   0.713   5.581   4.416  0.2319 -1.2285  0.9372
  105TIP3   OH2  278   1.022   5.062   1.198  0.1851 -0.0366  0.7323
  105TIP3    H1  279   0.927   5.073   1.193  0.3211  1.3361  0.7633
  105TIP3    H2  280   1.052   5.077   1.109  0.3678 -0.5492  0.7068
  106TIP3   OH2  281   3.735   4.777   0.248  0.4762 -0.4136 -0.4151
  106TIP3    H1  282   3.643   4.771   0.222 -0.6355 -0.9736  3.2167
  106TIP3    H2  283   3.772   4.843   0.188 -1.7468 -1.3963 -3.1087
  107TIP3   OH2  284   2.697   1.425   5.186  0.2740 -0.6134 -0.1144
  107TIP3    H1  285   2.714   1.384   5.101  0.4413  1.1106 -0.9458
  107TIP3    H2  286   2.676   1.516   5.166  1.0720  0.0429  1.7475
  108TIP3   OH2  287   1.217   2.339   2.135  0.3273  0.2959  0.0866
  108TIP3    H1  288   1.135   2.297   2.162  1.8958 -2.3524  1.0322
  108TIP3    H2  289   1.215   2.425   2.178 -2.7264  1.1481 -1.4165
  109TIP3   OH2  290   0.413   0.584   4.301 -0.3245  0.1923 -0.5017
  109TIP3    H1  291   0.477   0.624   4.361 -0.8223 -0.4342  0.4599
  109TIP3    H2  292   0.345   0.651   4.291 -0.1748  0.3493 -0.4736
  110TIP3   OH2  293   0.737   2.663   5.644  0.6537 -0.1678 -0.7167
  110TIP3    H1  294   0.669   2.608   5.682  0.5967  0.4015  0.0172
  110TIP3    H2  295   0.818   2.634   5.688  0.3713  1.5681  1.0846
  111TIP3   OH2  296   4.182   3.348   2.380  0.2075 -0.0683  0.1012
  111TIP3    H1  297   4.089   3.330   2.365  0.0458  0.1178  0.8178
  111TIP3    H2  298   4.228   3.288   2.322 -0.3519 -0.7654  0.3552
  112TIP3   OH2  299   3.542   1.759   4.537 -0.2279 -0.0792 -0.3066
  112TIP3    H1  300   3.446   1.761   4.537 -0.2289  0.2555 -1.1261
  112TIP3    H2  301   3.565   1.727   4.624 -1.0674  1.0306  0.3556
  113TIP3   OH2  302   6.923   5.360   2.146  0.4014  0.9030  0.9185
  113TIP3    H1  303   6.901   5.313   2.066  0.7527  1.3342  0.5668
  113TIP3    H2  304   7.015   5.339   2.162  0.3066  0.7462  1.2576
  114TIP3   OH2  305   2.417   5.012   3.149  0.2473 -0.4861  0.2991
  114TIP3    H1  306   2.507   5.003   3.118  0.9493  0.9656  1.7499
  114TIP3    H2  307   2.383   5.089   3.103 -0.4888 -1.3798 -0.6965
  115TIP3   OH2  308   0.644   2.684   1.314  0.0098 -0.3631 -0.1235
  115TIP3    H1  309   0.724   2.662   1.362 -0.1733 -0.6423  0.0568
  115TIP3    H2  310   0.620   2.603   1.269  0.5907  0.0980 -1.2944
  116TIP3   OH2  311   4.471   3.832   1.471  0.3066 -0.4355  0.0143
  116TIP3    H1  312   4.397   3.843   1.531  1.3489 -0.2762  1.2918
  116TIP3    H2  313   4.547   3.820   1.527  0.8987 -3.4309 -1.2192
  117TIP3   OH2  314   3.342   2.409   2.818  0.2811 -0.6133 -0.0499
  117TIP3    H1  315   3.372   2.456   2.896 -1.7934 -0.4527  0.7186
  117TIP3    H2  316   3.307   2.478   2.761  0.9053 -0.8323 -0.7040
  118TIP3   OH2  317   3.966   4.509   2.302  0.4521  0.6430  0.3775
  118TIP3    H1  318   3.988   4.460   2.382 -2.0789 -0.2331  0.6312
  118TIP3    H2  319   3.881   4.473   2.275  0.2658  2.3814 -1.5392
  119TIP3   OH2  320   4.747   3.013   1.709 -0.0940  0.1743  0.3248
  119TIP3    H1  321   4.770   2.932   1.665 -1.7587  0.7043 -1.7040
  119TIP3    H2  322   4.806   3.018   1.784  0.7801 -2.3370 -0.1120
  120TIP3   OH2  323   0.700   5.144   1.206 -0.4362 -0.0703  0.0195
  120TIP3    H1  324   0.624   5.091   1.227 -0.9928  1.2152  1.4631
  120TIP3    H2  325   0.728   5.181   1.290  1.2223  0.2296 -0.6056
  121TIP3   OH2  326   5.608   2.364   5.147  0.7532  0.6247  0.4504
  121TIP3    H1  327   5.516   2.391   5.145  0.4862 -0.1986 -1.6545
  121TIP3    H2  328   5.656   2.442   5.119  0.4151  0.3595 -0.9753
  122TIP3   OH2  329   6.821   3.809   1.339 -0.2970  0.6067 -0.2111
  122TIP3    H1  330   6.778   3.784   1.257  0.3507  1.0721 -0.7047
  122TIP3    H2  331   6.908   3.840   1.312 -0.4831  1.8531  0.5318
  123TIP3   OH2  332   2.040   4.238   4.086  0.2696  0.1763 -0.2281
  123TIP3    H1  333   1.978   4.312   4.091 -1.1450 -0.8301 -1.8315
  123TIP3    H2  334   2.087   4.252   4.004  2.1846  0.8655  0.9177
  124TIP3   OH2  335   3.001   3.070   2.928 -0.1789  0.1491  0.3000
  124TIP3    H1  336   2.991   3.055   2.834  0.0456 -0.9610  0.4436
  124TIP3    H2  337   2.912   3.090   2.958 -0.2134  0.7472 -0.1795
  125TIP3   OH2  338   4.402   0.952   1.813  0.3315 -0.1085  0.1037
  125TIP3    H1  339   4.482   0.928   1.860  1.4607  1.3733 -1.0003
  125TIP3    H2  340   4.338   0.969   1.883  1.6062  0.8283  1.0902
  126TIP3   OH2  341   2.825   6.622   5.284  0.3396  0.0557  0.1965
  126TIP3    H1  342   2.787   6.710   5.289  0.8266  0.2198  1.4704
  126TIP3    H2  343   2.783   6.574   5.356  0.6411 -0.5209 -0.0077
  127TIP3   OH2  344   4.059   4.127   2.090 -0.2601  0.2606 -0.2449
  127TIP3    H1  345   4.038   4.034   2.082 -1.0841  0.3624  0.5989
  127TIP3    H2  346   4.014   4.156   2.169  0.6488  1.2018 -0.0361
  128TIP3   OH2  347   3.734   6.439   3.811 -0.3575  0.2964  0.5245
  128TIP3    H1  348   3.643   6.459   3.830 -0.2843  0.8655  0.2897
  128TIP3    H2  349   3.772   6.522   3.784  0.2812  0.1018  0.8051
  129TIP3   OH2  350   4.650   0.145   5.567 -0.0957  0.0333  0.1512
  129TIP3    H1  351   4.681   0.233   5.543 -1.1611  0.2252 -0.5873
  129TIP3    H2  352   4.730   0.098   5.592  0.6889  0.7672 -0.8742
  130TIP3   OH2  353   6.184   5.919   0.718  0.8568 -0.3350 -0.3229
  130TIP3    H1  354   6.119   5.987   0.735  1.5950 -0.2775  2.7223
  130TIP3    H2  355   6.266   5.955   0.751  1.0359 -3.1086  2.7914
  131TIP3   OH2  356   6.333   6.022   5.852 -0.7457  0.3407 -0.1848
  131TIP3    H1  357   6.403   6.058   5.906 -1.8389  1.8365  0.2971
  131TIP3    H2  358   6.353   6.051   5.763 -0.2829  0.0025 -0.1924
  132TIP3   OH2  359   2.497   3.567   2.139 -0.6818  0.3772  0.4574
  132TIP3    H1  360   2.506   3.528   2.226 -0.5467 -1.6701 -0.4040
  132TIP3    H2  361   2.580   3.613   2.125 -0.4869  0.2716  1.1948
  133TIP3   OH2  362   4.186   0.347   4.555 -0.0078  0.2890  0.1135
  133TIP3    H1  363   4.132   0.331   4.632 -1.0495 -0.8197 -0.7916
  133TIP3    H2  364   4.165   0.436   4.528 -0.2002  0.4142  0.6769
  134TIP3   OH2  365   4.058   0.056   2.791  0.0042  0.1527  0.0987
  134TIP3    H1  366   4.037   0.130   2.734 -1.9322  0.2600  0.8766
  134TIP3    H2  367   4.151   0.067   2.812  0.2954  1.1205 -1.5399
  135TIP3   OH2  368   6.171   0.248   5.074  0.2457  0.3772 -0.2197
  135TIP3    H1  369   6.176   0.153   5.068  1.8892  0.4285 -0.0367
  135TIP3    H2  370   6.120   0.274   4.998  1.3473 -0.5466 -1.3131
  136TIP3   OH2  371   4.428   1.520   3.789  0.0255 -0.1436  0.2845
  136TIP3    H1  372   4.433   1.429   3.818 -1.2902 -0.5910 -0.8329
  136TIP3    H2  373   4.519   1.551   3.792  0.2787 -0.9689  2.2360
  137TIP3   OH2  374   4.910   0.585   0.478  0.1231 -0.1916  0.8459
  137TIP3    H1  375   4.970   0.654   0.508 -0.8776  1.2683 -0.3228
  137TIP3    H2  376   4.877   0.617   0.394 -0.4098 -2.1226  0.2740
  138TIP3   OH2  377   4.759   5.446   0.046 -0.2655 -0.5181 -0.2197
  138TIP3    H1  378   4.664   5.441   0.038 -0.3475 -0.8680  0.8442
  138TIP3    H2  379   4.785   5.360   0.077  0.5350 -0.8017 -1.6110
  139TIP3   OH2  380   5.104   6.687   5.719  0.6027  0.1856  0.5336
  139TIP3    H1  381   5.147   6.610   5.680  0.3848  0.9842 -1.4365
  139TIP3    H2  382   5.020   6.653   5.750 -0.2572 -0.1269 -1.8998
  140TIP3   OH2  383   2.885   0.369   1.400 -0.3328  0.3714 -0.3815
  140TIP3    H1  384   2.815   0.433   1.416  0.4899  0.9226  1.3107
  140TIP3    H2  385   2.947   0.414   1.343 -0.3599  0.6430 -0.1986
  141TIP3   OH2  386   3.175   5.527   1.803  0.1421 -0.4499 -0.2193
  141TIP3    H1  387   3.269   5.540   1.815  0.4921 -3.1870  0.8103
  141TIP3    H2  388   3.150   5.468   1.874 -1.9866 -1.1845 -1.4912
  142TIP3   OH2  389   4.033   2.051   3.283 -0.5072  0.0629 -0.2535
  142TIP3    H1  390   4.031   2.058   3.188  1.1156 -1.1387 -0.4265
  142TIP3    H2  391   4.005   2.137   3.314 -0.1667  0.7792 -1.8282
  143TIP3   OH2  392   2.391   2.004   2.302  0.6735 -0.1502 -0.2446
  143TIP3    H1  393   2.361   2.066   2.368  0.9654 -0.5726  0.2844
  143TIP3    H2  394   2.312   1.980   2.254  0.8150  2.2430 -1.8765
  144TIP3   OH2  395   5.685   6.239   0.137  0.2691  0.5792 -0.2349
  144TIP3    H1  396   5.612   6.179   0.124 -0.5437  1.5503 -0.3147
  144TIP3    H2  397   5.717   6.258   0.048  0.8886 -0.1417 -0.1794
  145TIP3   OH2  398   2.104   1.112   5.701 -0.0122  0.0241  0.3700
  145TIP3    H1  399   2.026   1.097   5.754 -1.7212 -0.5005 -2.0913
  145TIP3    H2  400   2.176   1.113   5.763 -1.8072 -0.9270  2.6098
  146TIP3   OH2  401   2.016   2.700   1.552  0.5719 -1.0211 -0.5854
  146TIP3    H1  402   2.013   2.780   1.499 -1.8775 -1.5016 -1.3321
  146TIP3    H2  403   2.109   2.688   1.572  1.2839  0.7474 -2.3886
  147TIP3   OH2  404   0.679   2.623   0.356  0.0390  0.6217 -0.6083
  147TIP3    H1  405   0.619   2.549   0.352 -3.1748  2.8071  1.7039
  147TIP3    H2  406   0.743   2.598   0.422 -0.9472 -0.1722  0.0831
  148TIP3   OH2  407   6.981   2.514   3.707 -0.1209 -0.0257 -0.6581
  148TIP3    H1  408   6.902   2.470   3.676 -1.2464  1.2728  0.2258
  148TIP3    H2  409   6.958   2.607   3.707  0.0252  0.1889  3.1521
  149TIP3   OH2  410   2.213   3.245   3.236  0.7733  0.8245 -0.5806
  149TIP3    H1  411   2.157   3.302   3.184 -0.1830  0.9974  0.6092
  149TIP3    H2  412   2.271   3.203   3.172 -0.7156  0.6304 -1.8487
  150TIP3   OH2  413   2.279   2.452   2.479 -0.5878  0.5471  0.1244
  150TIP3    H1  414   2.202   2.509   2.482 -1.7936 -0.9932 -0.5341
  150TIP3    H2  415   2.267   2.391   2.552  0.0353  0.3253  0.0504
  151TIP3   OH2  416   6.222   3.611   4.210  0.4322  0.2726  0.0944
  151TIP3    H1  417   6.266   3.696   4.206  2.4274 -0.6822  0.4367
  151TIP3    H2  418   6.292   3.549   4.230 -1.1865 -1.2950  1.1547
  152TIP3   OH2  419   3.499   5.512   5.665  0.1506  0.0089  0.6236
  152TIP3    H1  420   3.485   5.481   5.575  1.7089 -0.6355  0.5677
  152TIP3    H2  421   3.475   5.438   5.720  1.1447 -0.3336  0.6214
  153TIP3   OH2  422   4.227   2.198   2.064  0.1162 -0.4385 -0.0435
  153TIP3    H1  423   4.209   2.106   2.080  1.8246 -1.0997 -1.4958
  153TIP3    H2  424   4.284   2.225   2.136 -1.6172 -0.0197  1.2401
  154TIP3   OH2  425   0.393   1.581   1.630 -0.0282 -0.0020 -0.2976
  154TIP3    H1  426   0.334   1.527   1.683 -0.0371  1.9894  1.9193
  154TIP3    H2  427   0.471   1.528   1.620 -0.8971 -1.3360 -0.2590
  155TIP3   OH2  428   6.396   0.716   0.985 -0.1990  0.1928 -0.8057
  155TIP3    H1  429   6.434   0.787   0.933  0.7671  0.2217 -0.0931
  155TIP3    H2  430   6.458   0.704   1.057 -1.0863 -0.3983 -0.1216
  156TIP3   OH2  431   3.895   4.657   5.555 -0.2949 -0.2877 -0.0330
  156TIP3    H1  432   3.845   4.737   5.538 -1.1890 -0.0260  3.0817
  156TIP3    H2  433   3.939   4.638   5.473 -1.2509  2.5443 -1.3378
  157TIP3   OH2  434   1.224   1.058   2.091 -0.2171  0.0568  0.1593
  157TIP3    H1  435   1.308   1.014   2.083 -0.3329  0.0393 -1.0715
  157TIP3    H2  436   1.190   1.062   2.002 -1.2508  0.5955  0.5616
  158TIP3   OH2  437   2.219   0.293   5.058 -0.3462  0.0870  0.2590
  158TIP3    H1  438   2.240   0.362   4.996  1.0721  0.0713  0.7035
  158TIP3    H2  439   2.164   0.232   5.008 -1.0288  1.1569 -0.3344
  159TIP3   OH2  440   2.261   4.641   4.095  0.0057  0.0436 -0.0809
  159TIP3    H1  441   2.202   4.598   4.158  0.2460  0.5013  0.4613
  159TIP3    H2  442   2.239   4.734   4.102  1.4386  0.3340  0.8190
  160TIP3   OH2  443   6.619   5.357   4.207 -0.3845  0.3192 -0.4446
  160TIP3    H1  444   6.535   5.399   4.186 -0.7820 -0.0788  0.2990
  160TIP3    H2  445   6.637   5.382   4.298 -0.2263 -0.4425 -0.2552
  161TIP3   OH2  446   4.136   3.597   5.243  0.0433  0.0578 -0.2718
  161TIP3    H1  447   4.086   3.541   5.182 -0.9415 -0.9039  1.3526
  161TIP3    H2  448   4.166   3.537   5.311  0.1833  1.2933  0.7858
  162TIP3   OH2  449   7.079   0.582   3.015  0.8045 -0.3633  0.1101
  162TIP3    H1  450   7.082   0.495   3.056  3.0896 -0.4424 -0.0586
  162TIP3    H2  451   7.101   0.565   2.923  2.2578  0.4366  0.2730
  163TIP3   OH2  452   1.982   0.173   4.957  0.1336  0.2992  0.6364
  163TIP3    H1  453   1.909   0.200   4.902  1.5603  0.3576 -1.3101
  163TIP3    H2  454   2.047   0.139   4.896 -0.0233 -4.2279  2.5727
  164TIP3   OH2  455   4.664   2.477   2.576 -0.2399  0.4051 -0.0106
  164TIP3    H1  456   4.718   2.550   2.545 -0.0389  0.9676  1.5894
  164TIP3    H2  457   4.592   2.518   2.624 -1.1604 -0.4026 -0.6554
  165TIP3   OH2  458   5.566   5.471   0.883  0.5270 -0.4763 -0.3881
  165TIP3    H1  459   5.573   5.566   0.888 -0.0465 -0.3841 -1.0923
  165TIP3    H2  460   5.481   5.451   0.922  0.4461 -0.6528 -0.6508
  166TIP3   OH2  461   6.681   5.064   0.646 -0.4182  0.1948 -0.1770
  166TIP3    H1  462   6.606   5.084   0.591 -0.3506  1.6441  0.2150
  166TIP3    H2  463   6.737   5.142   0.640  0.6202 -0.4894  0.2517
  167TIP3   OH2  464   5.449   4.599   4.493 -0.5951  0.3787 -0.1638
  167TIP3    H1  465   5.384   4.529   4.481  0.6621 -1.2983  1.9951
  167TIP3    H2  466   5.411   4.654   4.562 -0.2192  0.0604  0.2939
  168TIP3   OH2  467   5.814   4.379   3.732  0.3478  0.2454 -0.6342
  168TIP3    H1  468   5.775   4.425   3.657 -1.7296 -1.2526 -0.5617
  168TIP3    H2  469   5.772   4.419   3.808  2.3206  1.6370 -0.2007
  169TIP3   OH2  470   3.655   5.207   4.920 -0.3472  0.0626 -0.1157
  169TIP3    H1  471   3.585   5.196   4.985 -0.0325  0.0631  0.2254
  169TIP3    H2  472   3.613   5.189   4.836 -0.6062 -0.5712  0.1477
  170TIP3   OH2  473   2.645   4.668   1.144  0.1847 -0.1023  0.2670
  170TIP3    H1  474   2.628   4.658   1.050  1.5464  0.8550 -0.1312
  170TIP3    H2  475   2.645   4.579   1.179 -1.8029 -0.3789 -0.3320
  171TIP3   OH2  476   5.829   2.967   1.912 -0.2705 -0.2247  0.1762
  171TIP3    H1  477   5.762   2.900   1.910  1.1707 -1.7181  0.0338
  171TIP3    H2  478   5.787   3.042   1.955 -2.7858 -0.1954 -2.1208
  172TIP3   OH2  479   4.022   5.400   1.137 -0.3261  0.4284  0.3659
  172TIP3    H1  480   3.979   5.344   1.202 -2.6363  0.0636 -1.3624
  172TIP3    H2  481   3.951   5.448   1.095  1.1368  1.1655 -1.4158
  173TIP3   OH2  482   4.146   1.298   4.199 -0.3469  0.3473  0.6186
  173TIP3    H1  483   4.125   1.372   4.257  1.2383  1.8047 -0.5628
  173TIP3    H2  484   4.069   1.290   4.143 -1.1186  0.1491  1.6763
  174TIP3   OH2  485   7.127   0.816   5.579  0.4053  0.4931  0.1832
  174TIP3    H1  486   7.138   0.851   5.491 -1.7990  0.6220 -0.1031
  174TIP3    H2  487   7.207   0.841   5.625  1.2159  1.2053 -1.5083
  175TIP3   OH2  488   2.439   4.577   3.490 -0.0146 -0.0368 -0.0118
  175TIP3    H1  489   2.345   4.590   3.495  0.1095  0.5331  1.7194
  175TIP3    H2  490   2.473   4.615   3.572  1.8615  1.0586 -1.2085
  176TIP3   OH2  491   6.534   2.257   2.471 -0.2887 -0.1700 -0.8822
  176TIP3    H1  492   6.531   2.322   2.401 -1.3999  0.5286 -0.2338
  176TIP3    H2  493   6.575   2.181   2.432  2.0043  1.2333 -1.4032
  177TIP3   OH2  494   4.962   0.078   3.047 -0.6306  0.5140  0.3766
  177TIP3    H1  495   5.042   0.040   3.011 -2.1335 -0.4755 -2.2708
  177TIP3    H2  496   4.987   0.166   3.075  1.1920  0.6047 -1.3123
  178TIP3   OH2  497   0.640   4.156   3.934  0.1768  0.3252  0.7749
  178TIP3    H1  498   0.725   4.201   3.930 -0.6063  1.7889 -0.8772
  178TIP3    H2  499   0.648   4.085   3.870  0.0030  0.8297  0.1726
  179TIP3   OH2  500   7.055   6.778   3.668  0.1246 -0.3903 -0.4002
  179TIP3    H1  501   7.143   6.815   3.668 -0.0828  0.1135 -0.4487
  179TIP3    H2  502   7.026   6.786   3.577  0.0007 -0.4875 -0.3692
  180TIP3   OH2  503   6.089   0.258   4.523  0.3121 -0.4436  0.3125
  180TIP3    H1  504   6.141   0.209   4.460  1.4339  0.5186  0.4540
  180TIP3    H2  505   5.998   0.239   4.500  0.7096 -0.7868 -1.0486
  181TIP3   OH2  506   7.091   3.582   3.143  0.1416  0.4761  0.0980
  181TIP3    H1  507   7.139   3.528   3.079 -1.3484  1.2344 -1.7481
  181TIP3    H2  508   7.117   3.672   3.122  0.2084  0.6997  1.0958
  182TIP3   OH2  509   6.528   6.414   0.587 -0.6046  0.2085  0.7818
  182TIP3    H1  510   6.621   6.430   0.600 -0.0740 -1.0710 -1.1106
  182TIP3    H2  511   6.485   6.493   0.619  1.2424  1.4827  0.2329
  183TIP3   OH2  512   2.970   1.809   2.441  0.4406  0.1844 -0.7404
  183TIP3    H1  513   2.882   1.844   2.457  0.5824  0.5733 -0.7940
  183TIP3    H2  514   2.989   1.832   2.350  0.1101 -0.9834 -1.1213
  184TIP3   OH2  515   2.970   6.095   5.629 -0.0941  0.5507  0.1885
  184TIP3    H1  516   2.999   6.107   5.539 -0.0420  1.6318  0.3366
  184TIP3    H2  517   3.050   6.072   5.677 -0.2358 -0.7020 -0.1454
  185TIP3   OH2  518   5.835   2.704   5.909  0.6904  0.3049 -0.6230
  185TIP3    H1  519   5.815   2.789   5.870 -1.0197 -0.1935 -0.9153
  185TIP3    H2  520   5.926   2.686   5.884  0.4445  1.1490 -2.2323
  186TIP3   OH2  521   6.998   6.091   2.195 -0.1881  0.2351  0.0579
  186TIP3    H1  522   7.060   6.022   2.172 -0.7542  0.1222 -1.2124
  186TIP3    H2  523   6.952   6.058   2.272  1.7283  0.5952  1.4278
  187TIP3   OH2  524   0.047   6.074   4.846  0.2497 -0.1554  0.1582
  187TIP3    H1  525   0.040   5.993   4.897 -1.1661  0.5352  1.1135
  187TIP3    H2  526  -0.039   6.083   4.804  0.7655  0.2903 -0.8262
  188TIP3   OH2  527   4.208   5.534  -0.011 -0.4060  0.7044 -0.1503
  188TIP3    H1  528   4.189   5.540   0.082 -1.7332  1.4989 -0.4315
  188TIP3    H2  529   4.150   5.464  -0.043  0.2725  0.2178 -0.3251
  189TIP3   OH2  530   5.003   2.904   5.191  0.7165 -0.4856 -0.3544
  189TIP3    H1  531   4.917   2.882   5.226  0.8921 -2.2370 -0.9119
  189TIP3    H2  532   5.056   2.926   5.268 -0.0531  0.0203  0.0419
  190TIP3   OH2  533   2.823   1.442   0.516  0.1891 -0.2862 -0.0109
  190TIP3    H1  534   2.918   1.440   0.512  0.1620 -1.1186 -0.3111
  190TIP3    H2  535   2.794   1.415   0.429 -0.3247  0.1641  0.0134
  191TIP3   OH2  536   6.658   3.422   5.460 -0.2206  0.1155  0.1160
  191TIP3    H1  537   6.706   3.339   5.467  1.8460  1.1579 -0.8731
  191TIP3    H2  538   6.573   3.404   5.500  0.9529 -1.8638  1.9289
  192TIP3   OH2  539   2.005   5.445   3.256  0.0189  0.0800  0.2027
  192TIP3    H1  540   2.022   5.524   3.308  0.0426 -1.3477  2.5105
  192TIP3    H2  541   1.937   5.471   3.194 -0.0310  1.8909  0.9663
  193TIP3   OH2  542   1.267   2.991   3.439 -0.4179 -0.0310 -0.0461
  193TIP3    H1  543   1.266   3.069   3.384 -0.2542  0.0095  0.0071
  193TIP3    H2  544   1.202   3.008   3.507 -0.5311 -0.0289 -0.1538
  194TIP3   OH2  545   6.401   4.894   4.621 -0.2425  0.4366 -0.1080
  194TIP3    H1  546   6.365   4.808   4.642  1.4205 -0.3932 -0.4592
  194TIP3    H2  547   6.360   4.918   4.538 -0.7866  0.0266  0.0396
  195TIP3   OH2  548   2.586   2.597   4.856  0.0664  0.4434 -0.2264
  195TIP3    H1  549   2.502   2.642   4.866  1.0269  1.8886  2.3577
  195TIP3    H2  550   2.638   2.656   4.801 -0.2979 -0.0525 -1.1290
  196TIP3   OH2  551   5.345   1.327   4.317 -0.0926 -0.6995  0.4219
  196TIP3    H1  552   5.361   1.238   4.348  1.0802 -1.4490 -2.0920
  196TIP3    H2  553   5.276   1.360   4.375  0.0528 -2.9033  1.9802
  197TIP3   OH2  554   1.496   4.533   0.457  0.1085 -0.1968  0.3984
  197TIP3    H1  555   1.411   4.567   0.485  0.1596  0.0095  0.3063
  197TIP3    H2  556   1.560   4.592   0.497  0.1701  0.3910 -0.5262
  198TIP3   OH2  557   3.440   2.414   5.787 -0.0470 -0.2898  0.4230
  198TIP3    H1  558   3.360   2.374   5.822 -0.1043  0.8658  1.7459
  198TIP3    H2  559   3.511   2.375   5.838  0.1149 -0.4248  0.0947
  199TIP3   OH2  560   5.199   3.095   4.782 -0.1398 -0.2775 -0.2802
  199TIP3    H1  561   5.111   3.120   4.808  0.1149 -0.9095  1.3126
  199TIP3    H2  562   5.230   3.168   4.728 -1.1505  0.5481  0.2283
  200TIP3   OH2  563   3.089   1.660   4.475 -0.1120 -0.7859  0.2193
  200TIP3    H1  564   3.000   1.673   4.508 -0.6239 -0.6991 -1.1481
  200TIP3    H2  565   3.141   1.728   4.518 -1.0175  0.1718 -0.1722
  201TIP3   OH2  566   4.589   6.117   1.681  0.0262  0.3453 -0.5532
  201TIP3    H1  567   4.531   6.187   1.652 -2.4198 -0.8490  1.1838
  201TIP3    H2  568   4.534   6.060   1.734  2.7102 -1.1441  0.8254
  202TIP3   OH2  569   0.727   2.486   4.944 -0.4187 -0.4517  0.3773
  202TIP3    H1  570   0.734   2.410   5.002 -1.2647 -0.6721  0.1954
  202TIP3    H2  571   0.648   2.471   4.893 -0.8194  0.7339  0.6077
  203TIP3   OH2  572   5.527   1.864   4.171  0.4036  0.1936  0.5171
  203TIP3    H1  573   5.452   1.814   4.139  1.8661 -0.8462 -1.5308
  203TIP3    H2  574   5.532   1.844   4.264 -2.8006  1.6364  1.1111
  204TIP3   OH2  575   5.336   0.865   4.617 -0.2165 -0.0326 -0.0332
  204TIP3    H1  576   5.315   0.807   4.689 -1.0016 -2.7886 -2.3016
  204TIP3    H2  577   5.255   0.869   4.565  0.7108  0.6828 -1.5063
  205TIP3   OH2  578   4.585   2.185   2.926  0.1375 -0.1913 -0.2811
  205TIP3    H1  579   4.584   2.180   2.830 -0.4130  1.2623 -0.3849
  205TIP3    H2  580   4.579   2.279   2.945  0.4115 -0.4413  1.1861
  206TIP3   OH2  581   7.116   4.189   5.523 -0.5608 -0.2707 -0.0960
  206TIP3    H1  582   7.129   4.280   5.548  0.3937 -1.4763  4.7088
  206TIP3    H2  583   7.029   4.166   5.557 -1.1363 -1.0398 -1.9359
  207TIP3   OH2  584   2.549   5.962   3.468 -0.0952  0.1792 -0.1491
  207TIP3    H1  585   2.522   5.955   3.377 -0.9877  2.8614 -0.1780
  207TIP3    H2  586   2.644   5.947   3.466 -0.1722 -0.2483 -1.4487
  208TIP3   OH2  587   2.423   6.296   4.449 -0.0066  0.5911  0.5928
  208TIP3    H1  588   2.437   6.250   4.366  2.8189  1.4829  0.4843
  208TIP3    H2  589   2.342   6.345   4.435  0.4056  0.7381 -1.6774
  209TIP3   OH2  590   0.910   1.188   4.798 -0.2795 -0.3419  0.3902
  209TIP3    H1  591   0.959   1.106   4.803  0.4409  0.0837  0.4843
  209TIP3    H2  592   0.954   1.246   4.860  1.8701  1.4870 -2.5894
  210TIP3   OH2  593   7.089   1.730   1.533 -0.3288 -0.1657  0.3927
  210TIP3    H1  594   7.130   1.792   1.473  0.2292  0.4805  1.4133
  210TIP3    H2  595   7.113   1.644   1.499  0.3586  0.1983 -0.0577
  211TIP3   OH2  596   0.919   0.429   4.690  0.0156  0.1824  1.2366
  211TIP3    H1  597   1.002   0.390   4.664  0.0671  0.2331  1.3260
  211TIP3    H2  598   0.864   0.422   4.611 -0.2755 -0.8748  1.5163
  212TIP3   OH2  599   5.544   3.644   3.842 -0.1286  0.2630  0.2430
  212TIP3    H1  600   5.536   3.682   3.929 -1.8929  0.3003  0.0915
  212TIP3    H2  601   5.514   3.554   3.852 -1.9931  0.7471 -0.6295
  213TIP3   OH2  602   0.431   1.889   1.965  0.1170 -0.0794 -0.0117
  213TIP3    H1  603   0.468   1.834   1.896 -0.0823  0.8601 -0.9000
  213TIP3    H2  604   0.504   1.904   2.025  0.5320 -0.2068 -0.4775
  214TIP3   OH2  605   0.835   2.302   0.522 -0.2372 -0.1335  0.0554
  214TIP3    H1  606   0.795   2.263   0.444  0.8684 -0.3798 -0.3953
  214TIP3    H2  607   0.929   2.299   0.506 -0.0624  2.0922  0.3012
  215TIP3   OH2  608   1.701   5.824   1.523  0.2851 -0.0045 -0.2450
  215TIP3    H1  609   1.614   5.805   1.487 -0.0291 -1.3313  1.1201
  215TIP3    H2  610   1.749   5.742   1.513  0.9167  0.2913  0.3141
  216TIP3   OH2  611   2.507   2.680   5.472 -0.2247  0.4336 -0.0155
  216TIP3    H1  612   2.550   2.651   5.392 -0.9035 -0.5217 -0.0507
  216TIP3    H2  613   2.490   2.774   5.457  0.9720  0.6077 -0.3662
  217TIP3   OH2  614   4.995   4.494   4.905  0.0470  0.2367 -0.0218
  217TIP3    H1  615   5.007   4.410   4.948  0.0793  0.2044 -0.0955
  217TIP3    H2  616   5.009   4.477   4.812 -0.2382  0.2638 -0.0721
  218TIP3   OH2  617   3.994   3.615   5.595  0.1786 -0.0419 -0.1814
  218TIP3    H1  618   3.933   3.674   5.551 -0.2897  0.7030  1.4140
  218TIP3    H2  619   3.939   3.542   5.625  0.2355  0.1530  0.4057
  219TIP3   OH2  620   0.291   2.656   3.298  0.6026 -0.8583  0.5648
  219TIP3    H1  621   0.332   2.631   3.215  1.0996  3.3788 -0.7223
  219TIP3    H2  622   0.353   2.629   3.365  2.2373 -0.7000 -0.8196
  220TIP3   OH2  623   5.573   4.764   1.680 -0.0951  0.3371  0.8566
  220TIP3    H1  624   5.531   4.824   1.741 -2.0097  0.7709 -0.7633
  220TIP3    H2  625   5.501   4.709   1.648  1.3635 -1.9583  1.2608
  221TIP3   OH2  626   0.029   0.047   1.483  0.5252  0.4061  0.5070
  221TIP3    H1  627  -0.008   0.116   1.537 -3.0624 -1.1068  0.3366
  221TIP3    H2  628   0.010  -0.034   1.531  0.8467 -0.7096 -1.1504
  222TIP3   OH2  629   1.470   4.200   1.354  0.0972 -0.2091 -0.2330
  222TIP3    H1  630   1.555   4.208   1.311  0.0211 -1.0993 -0.5674
  222TIP3    H2  631   1.475   4.118   1.404  0.1327  0.7351  1.3721
  223TIP3   OH2  632   1.056   2.211   2.648  0.1290 -0.3951 -0.3553
  223TIP3    H1  633   1.142   2.169   2.653  0.4186  0.2739  0.6996
  223TIP3    H2  634   1.070   2.289   2.594  0.0239 -0.6411 -0.7421
  224TIP3   OH2  635   5.188   5.068   1.658 -0.1591  0.9572 -0.3019
  224TIP3    H1  636   5.176   5.083   1.752 -1.2307 -1.3479  0.0198
  224TIP3    H2  637   5.110   5.107   1.618 -0.6427  0.3427  0.0069
  225TIP3   OH2  638   1.472   3.520  -0.016 -0.3612  0.3781 -0.3393
  225TIP3    H1  639   1.555   3.472  -0.017 -0.3702  0.3685 -0.5356
  225TIP3    H2  640   1.421   3.477   0.053  0.3992  1.3976  0.9155
  226TIP3   OH2  641   4.180   6.323   1.271  0.1438  0.4904 -0.1607
  226TIP3    H1  642   4.127   6.266   1.214  0.1895 -0.6509  0.8920
  226TIP3    H2  643   4.270   6.296   1.255  0.1988  0.5530  0.0392
  227TIP3   OH2  644   5.598   5.795   4.751  0.2739  0.2311 -0.3176
  227TIP3    H1  645   5.535   5.866   4.743 -1.2440 -0.9575  0.4105
  227TIP3    H2  646   5.546   5.720   4.781  1.9627 -0.9412 -0.1398
  228TIP3   OH2  647   4.995   4.387   2.678  0.1616 -0.5834  0.2285
  228TIP3    H1  648   5.003   4.476   2.711 -1.6854 -1.1166  2.4140
  228TIP3    H2  649   4.930   4.392   2.609 -0.8149 -0.3545  1.1344
  229TIP3   OH2  650   6.925   5.060   1.260  0.2860  0.2968 -0.1961
  229TIP3    H1  651   6.908   4.972   1.292  1.4260 -0.9860 -2.8958
  229TIP3    H2  652   6.923   5.115   1.339 -2.4041 -1.7608  1.3341
  230TIP3   OH2  653   0.511   0.356   0.521  0.0452  0.2634  0.1201
  230TIP3    H1  654   0.469   0.277   0.555 -1.2849  1.3782  1.1880
  230TIP3    H2  655   0.463   0.376   0.440 -1.6278  1.5376  1.3394
  231TIP3   OH2  656   4.507   2.008   1.288  0.2836 -0.8122 -0.1901
  231TIP3    H1  657   4.528   2.000   1.195 -0.1704 -1.3855 -0.2482
  231TIP3    H2  658   4.478   1.921   1.314 -2.4489  0.0118 -0.2247
  232TIP3   OH2  659   1.734   3.405   3.928 -0.1979  0.0364 -0.0070
  232TIP3    H1  660   1.697   3.452   4.003 -0.2017 -2.1630  1.4737
  232TIP3    H2  661   1.667   3.411   3.860 -0.8666  0.7625  0.7016
  233TIP3   OH2  662   1.124   2.460   1.393  0.0933 -0.2101  0.4663
  233TIP3    H1  663   1.208   2.422   1.365  1.2202  2.5279 -0.2537
  233TIP3    H2  664   1.143   2.497   1.479  0.3934  2.4111 -0.6386
  234TIP3   OH2  665   0.538   1.069   4.512 -0.5210 -0.0612  0.1106
  234TIP3    H1  666   0.624   1.107   4.531 -1.2624  0.8678  1.8787
  234TIP3    H2  667   0.556   0.976   4.495  0.9468  0.3613 -0.8315
  235TIP3   OH2  668   6.770   5.113   5.771 -0.0833  0.4341 -0.2782
  235TIP3    H1  669   6.771   5.203   5.802 -0.4975  0.8210 -1.3437
  235TIP3    H2  670   6.708   5.068   5.829 -0.2467  0.9544 -0.0474
  236TIP3   OH2  671   2.792   6.258   5.843  0.4775 -0.5709  0.5123
  236TIP3    H1  672   2.852   6.314   5.892  2.1399 -0.9319 -1.0165
  236TIP3    H2  673   2.819   6.169   5.864 -1.1006 -0.8335  1.6502
  237TIP3   OH2  674   5.605   4.097   0.979  0.4944 -0.0131  0.0586
  237TIP3    H1  675   5.655   4.173   1.009 -0.6910  1.2355 -0.9886
  237TIP3    H2  676   5.539   4.134   0.919  1.5721 -2.1280 -2.6514
  238TIP3   OH2  677   5.242   2.090   3.126 -0.1118 -0.5403  0.2575
  238TIP3    H1  678   5.296   2.065   3.201  1.2814  0.5925 -0.2989
  238TIP3    H2  679   5.184   2.158   3.160 -0.1414 -0.6974  0.5228
  239TIP3   OH2  680   1.943   5.363   0.482 -0.3570 -0.1644 -0.5013
  239TIP3    H1  681   1.937   5.354   0.577 -0.2075  0.5213 -0.4192
  239TIP3    H2  682   1.869   5.419   0.459  0.1125  0.3951 -0.6744
  240TIP3   OH2  683   7.106   2.736   4.434 -0.2227 -0.2409  0.1026
  240TIP3    H1  684   7.152   2.652   4.440 -0.1061 -0.1117  1.0498
  240TIP3    H2  685   7.016   2.712   4.411 -0.1272 -0.6026  0.0970
  241TIP3   OH2  686   6.586   4.598   4.930 -0.4094  0.0648 -0.4860
  241TIP3    H1  687   6.630   4.678   4.903 -0.8187 -0.4286 -2.8431
  241TIP3    H2  688   6.598   4.537   4.857 -0.2166 -2.0205  1.1564
  242TIP3   OH2  689   3.548   6.005   1.549 -0.2006 -0.1861 -0.3668
  242TIP3    H1  690   3.589   6.006   1.636 -1.7796 -2.6643  0.5149
  242TIP3    H2  691   3.616   5.970   1.491  0.5419  0.5246  0.0611
  243TIP3   OH2  692   2.667   4.210   3.248  0.7665  0.1541 -0.5016
  243TIP3    H1  693   2.572   4.203   3.259  0.4257 -0.9662 -3.2735
  243TIP3    H2  694   2.683   4.304   3.238 -0.1797  0.2936 -0.8197
  244TIP3   OH2  695   1.413   2.335   0.535 -0.2074  0.3834 -0.2906
  244TIP3    H1  696   1.433   2.427   0.554  0.8397  0.0302  0.4292
  244TIP3    H2  697   1.412   2.330   0.440  0.6512  0.9659 -0.3434
  245TIP3   OH2  698   1.495   1.321   3.719  0.5198 -0.0661  0.3731
  245TIP3    H1  699   1.529   1.363   3.798 -0.4749 -1.1182  1.3878
  245TIP3    H2  700   1.564   1.261   3.691  1.0999  0.7102  0.0993
  246TIP3   OH2  701   3.196   1.015   2.847  0.2284 -0.0116  0.3369
  246TIP3    H1  702   3.196   1.102   2.806  2.1479  0.1309  0.5433
  246TIP3    H2  703   3.274   0.972   2.812  0.9258 -0.5522  2.4097
  247TIP3   OH2  704   6.596   0.095   4.054  0.0137  0.0663 -0.4018
  247TIP3    H1  705   6.623   0.038   3.983 -0.5437 -0.8070  0.0697
  247TIP3    H2  706   6.531   0.154   4.015 -0.0399 -0.1827 -0.6867
  248TIP3   OH2  707   2.820   2.396   3.139 -0.8003  0.6597  0.2925
  248TIP3    H1  708   2.835   2.476   3.090  2.4100  0.1744  0.2778
  248TIP3    H2  709   2.781   2.426   3.222  0.3190  2.2455  0.2909
  249TIP3   OH2  710   2.425   1.461  -0.009  0.2350  0.1955 -0.2555
  249TIP3    H1  711   2.384   1.459   0.077  0.3285 -1.1822 -0.2233
  249TIP3    H2  712   2.499   1.521   0.002 -0.0033  0.3695  0.4989
  250TIP3   OH2  713   3.679   4.381   3.936  0.1709 -0.2441 -0.1024
  250TIP3    H1  714   3.699   4.435   4.012 -1.4814  2.5523 -1.4804
  250TIP3    H2  715   3.732   4.302   3.947  1.9837  1.2133  2.5670
  251TIP3   OH2  716   1.182   1.450   2.911 -0.0803 -0.5518 -0.3400
  251TIP3    H1  717   1.160   1.374   2.965 -2.2322  1.2275  1.4605
  251TIP3    H2  718   1.260   1.487   2.953 -1.2150  0.3054  1.1003
  252TIP3   OH2  719   6.146   1.480   1.878  0.3966 -0.5161  0.3866
  252TIP3    H1  720   6.072   1.539   1.891  1.1797  1.0163 -1.6482
  252TIP3    H2  721   6.219   1.521   1.926  1.1112  0.6281 -1.5614
  253TIP3   OH2  722   0.726   1.269   2.972 -0.4599  0.2891  0.5547
  253TIP3    H1  723   0.761   1.329   2.905 -0.5497  0.6882  0.8584
  253TIP3    H2  724   0.788   1.277   3.044  2.5344 -3.7967 -1.1623
  254TIP3   OH2  725   3.706   0.703   4.468  0.1963  0.2034 -0.2752
  254TIP3    H1  726   3.702   0.641   4.395  1.2731  1.3250 -1.3347
  254TIP3    H2  727   3.765   0.772   4.438  1.0442  0.4892  1.8517
  255TIP3   OH2  728   2.053   2.015   3.137  0.0803 -0.5463  0.1797
  255TIP3    H1  729   2.069   2.082   3.202  1.4432 -1.0996  0.4471
  255TIP3    H2  730   1.964   2.032   3.106  0.3794  1.3327  0.2692
  256TIP3   OH2  731   5.010   4.464   5.317  0.3070 -0.2604 -0.6330
  256TIP3    H1  732   5.030   4.426   5.403  2.3563 -2.7521 -2.0823
  256TIP3    H2  733   4.928   4.421   5.291  1.8389 -2.8538 -1.6075
  257TIP3   OH2  734   3.136   6.465   3.753  0.1079 -0.2475 -0.0787
  257TIP3    H1  735   3.138   6.385   3.804 -0.8658  0.0786  0.5079
  257TIP3    H2  736   3.059   6.512   3.785  0.1077  0.4764 -1.0821
  258TIP3   OH2  737   2.292   6.577   1.906 -0.1847 -0.3871  0.5582
  258TIP3    H1  738   2.232   6.571   1.831  0.0868 -1.7486  0.4197
  258TIP3    H2  739   2.244   6.536   1.978  0.3748 -1.0333  0.5726
  259TIP3   OH2  740   6.362   3.671   5.380 -0.2362 -0.4326  0.1105
  259TIP3    H1  741   6.405   3.756   5.384 -0.9913 -0.0783  1.1368
  259TIP3    H2  742   6.417   3.619   5.322  1.4052  0.0925  1.1385
  260TIP3   OH2  743   6.261   2.928   2.316  1.0883  0.1676  0.3508
  260TIP3    H1  744   6.179   2.975   2.331  0.3749 -0.5273 -1.1436
  260TIP3    H2  745   6.240   2.864   2.248  3.2760  1.1302 -1.3868
  261TIP3   OH2  746   1.034   3.225   3.084  0.3924 -0.1499 -0.3214
  261TIP3    H1  747   0.973   3.196   3.015  0.1841 -0.0094 -0.1963
  261TIP3    H2  748   1.018   3.165   3.156  0.1380  0.1170 -0.1531
  262TIP3   OH2  749   5.610   5.527   3.431  0.3811  0.0591  0.2100
  262TIP3    H1  750   5.606   5.433   3.420  0.6238  0.0662  0.0589
  262TIP3    H2  751   5.523   5.558   3.407 -0.0291 -0.2283  1.2618
  263TIP3   OH2  752   1.273   1.371   1.873  0.6019  0.2265 -0.7534
  263TIP3    H1  753   1.223   1.355   1.793 -0.1672 -0.0978 -0.2286
  263TIP3    H2  754   1.364   1.353   1.849  0.3317 -0.2467 -1.4476
  264TIP3   OH2  755   4.668   5.390   4.718  0.2791 -0.0326  0.7854
  264TIP3    H1  756   4.680   5.325   4.787 -0.4070 -1.0643 -0.0258
  264TIP3    H2  757   4.622   5.343   4.649 -0.1864  1.3126  0.1401
  265TIP3   OH2  758   6.024   0.156   0.763  0.0122  0.4712 -0.1581
  265TIP3    H1  759   5.937   0.128   0.793  0.1312  1.3798  1.1226
  265TIP3    H2  760   6.007   0.237   0.715  0.3325  1.8651  1.9778
  266TIP3   OH2  761   6.196   4.649   1.418 -0.3204  0.4194  0.3149
  266TIP3    H1  762   6.175   4.576   1.477 -1.7559  0.1105 -0.5450
  266TIP3    H2  763   6.285   4.674   1.443 -0.4314 -0.5016  1.7831
  267TIP3   OH2  764   6.287   0.307   0.051 -0.1905 -0.1494  0.1312
  267TIP3    H1  765   6.196   0.298   0.078  0.0615  0.8785  1.4563
  267TIP3    H2  766   6.295   0.399   0.025  0.0285 -0.6799 -1.8287
  268TIP3   OH2  767   4.713   6.496   0.315  0.1717  0.3646 -0.1473
  268TIP3    H1  768   4.671   6.525   0.396 -1.1036 -3.9168  1.0060
  268TIP3    H2  769   4.655   6.527   0.246 -2.5767 -1.4841  1.1363
  269TIP3   OH2  770   0.134   2.778   5.121  0.4813 -0.1963  0.3305
  269TIP3    H1  771   0.201   2.816   5.065  0.2943 -1.4760 -0.8198
  269TIP3    H2  772   0.120   2.843   5.191  0.8696  1.3437 -0.9771
  270TIP3   OH2  773   5.511   2.664   2.739 -0.0255 -0.1810 -0.2467
  270TIP3    H1  774   5.497   2.755   2.764 -1.2671 -0.3125 -0.4030
  270TIP3    H2  775   5.469   2.656   2.653 -1.1666 -1.2338  0.3806
  271TIP3   OH2  776   5.070   5.459   1.735 -0.4555 -0.1174  0.0914
  271TIP3    H1  777   5.043   5.541   1.777 -1.9409 -0.0643 -0.8931
  271TIP3    H2  778   5.041   5.467   1.645 -1.2713 -1.9962  0.1321
  272TIP3   OH2  779   2.454   2.178   3.074  0.0665  0.3901  0.1566
  272TIP3    H1  780   2.415   2.252   3.121 -1.7516  0.4847 -1.3715
  272TIP3    H2  781   2.522   2.217   3.019 -0.6399  0.8762 -0.3736
  273TIP3   OH2  782   7.173   2.002   2.527 -0.1002  0.1287 -0.2450
  273TIP3    H1  783   7.163   2.091   2.492  0.4908 -0.0648 -0.9410
  273TIP3    H2  784   7.180   2.014   2.621 -0.2392  0.8057 -0.3155
  274TIP3   OH2  785   6.296   6.023   5.116  0.2636 -0.0845  0.3890
  274TIP3    H1  786   6.253   5.991   5.037  0.4136  1.2181 -0.2426
  274TIP3    H2  787   6.309   5.945   5.170 -3.5581 -0.5027  0.9727
  275TIP3   OH2  788   6.788   6.639   5.016  0.0479 -0.4119  0.5029
  275TIP3    H1  789   6.876   6.664   4.988 -0.3499  1.1906  0.5740
  275TIP3    H2  790   6.788   6.648   5.111  0.0732 -1.3664  0.6037
  276TIP3   OH2  791   6.083   1.719   1.460 -0.4057 -0.0958  0.1205
  276TIP3    H1  792   6.097   1.769   1.380  0.7349  0.7312  0.7956
  276TIP3    H2  793   6.047   1.783   1.522 -0.6906 -0.5699  0.4486
  277TIP3   OH2  794   6.296   0.399   0.778  0.0603  0.3243  0.0448
  277TIP3    H1  795   6.366   0.355   0.826 -0.9837 -0.0582  1.2834
  277TIP3    H2  796   6.319   0.492   0.781 -0.6834  0.5011  2.6219
  278TIP3   OH2  797   4.769   5.269   2.321 -0.7070 -0.4207  0.1706
  278TIP3    H1  798   4.698   5.329   2.299 -1.2950 -1.2383 -0.2416
  278TIP3    H2  799   4.806   5.304   2.402 -0.3530  1.0645 -0.6093
  279TIP3   OH2  800   1.236   0.212   0.454  0.0680 -0.1703  0.3574
  279TIP3    H1  801   1.229   0.219   0.549  0.4763  1.6714  0.2730
  279TIP3    H2  802   1.318   0.256   0.432  0.5104 -1.4858 -0.7748
  280TIP3   OH2  803   6.691   1.624   5.716 -0.0221 -0.1769 -0.2429
  280TIP3    H1  804   6.774   1.599   5.756 -0.4873  0.9720  1.5700
  280TIP3    H2  805   6.710   1.707   5.671 -0.2182  0.1963  0.3522
  281TIP3   OH2  806   1.549   5.155   0.615 -0.5809 -0.1799  0.7819
  281TIP3    H1  807   1.592   5.076   0.582  0.2909 -0.0825  1.6568
  281TIP3    H2  808   1.460   5.127   0.636 -1.3058 -0.1691 -1.9231
  282TIP3   OH2  809   4.920   4.526   1.269 -1.1353 -0.1657  0.0874
  282TIP3    H1  810   4.911   4.617   1.294 -0.2235 -0.1129  0.2788
  282TIP3    H2  811   4.990   4.526   1.203 -2.0183 -0.5671 -0.8775
  283TIP3   OH2  812   0.575   1.941   0.873  0.3889 -0.3377  0.1868
  283TIP3    H1  813   0.545   1.853   0.894  2.0294 -1.1683 -0.7593
  283TIP3    H2  814   0.591   1.982   0.958 -1.8287 -0.3574  0.6860
  284TIP3   OH2  815   2.852   1.103   3.998  0.4572  0.2414 -0.3843
  284TIP3    H1  816   2.804   1.117   4.080 -1.1571  1.0495 -1.4120
  284TIP3    H2  817   2.943   1.124   4.020 -0.2670  2.6725  0.7109
  285TIP3   OH2  818   7.179   1.475   5.081  0.2698  0.1897 -0.0064
  285TIP3    H1  819   7.248   1.444   5.022  1.7340  3.2128 -0.1149
  285TIP3    H2  820   7.102   1.485   5.024  0.7448  0.0634 -0.6901
  286TIP3   OH2  821   1.745   0.221   3.336  0.5521  0.0118 -0.4695
  286TIP3    H1  822   1.720   0.170   3.413 -0.0791  0.0596 -0.6326
  286TIP3    H2  823   1.742   0.312   3.365 -0.3786  0.0745 -0.7249
  287TIP3   OH2  824   6.176   5.295   5.508  0.6163  0.9276 -0.1226
  287TIP3    H1  825   6.188   5.225   5.572  0.3443  1.4815  0.5373
  287TIP3    H2  826   6.088   5.327   5.523 -0.4363 -0.5692 -2.4350
  288TIP3   OH2  827   1.441   5.247   0.040 -0.0173  0.3646 -0.0358
  288TIP3    H1  828   1.476   5.192  -0.030 -0.1792  1.9987 -1.4690
  288TIP3    H2  829   1.379   5.191   0.086 -0.3429 -0.5806 -1.5806
  289TIP3   OH2  830   7.024   3.590   1.369  0.4429  0.6485  0.0692
  289TIP3    H1  831   7.056   3.514   1.320  0.2457  0.8832 -0.4295
  289TIP3    H2  832   6.929   3.584   1.364  0.3727 -0.1594  1.7281
  290TIP3   OH2  833   5.268   0.484   1.086 -0.8336  0.5297  0.6414
  290TIP3    H1  834   5.298   0.570   1.056 -0.7697  0.0446 -0.7637
  290TIP3    H2  835   5.250   0.435   1.005 -1.3372 -0.6148  1.4173
  291TIP3   OH2  836   5.567   2.479   1.946  0.0237 -0.5249  0.1758
  291TIP3    H1  837   5.569   2.397   1.897 -2.1075 -0.0049 -0.8928
  291TIP3    H2  838   5.477   2.509   1.938  0.6636  1.7474  0.8641
  292TIP3   OH2  839   2.800   4.515   2.834 -0.1149  0.1818 -0.0837
  292TIP3    H1  840   2.829   4.434   2.875 -1.2163 -0.5017 -0.6107
  292TIP3    H2  841   2.814   4.582   2.901  0.9326 -0.4156  0.3084
  293TIP3   OH2  842   1.756   5.182   3.387  0.2367  0.2914 -0.2066
  293TIP3    H1  843   1.794   5.234   3.459  0.0291  2.4505 -1.5840
  293TIP3    H2  844   1.829   5.170   3.326 -0.2062  0.6698 -0.8152
  294TIP3   OH2  845   3.342   6.609   2.893  0.0385 -0.0092 -0.5403
  294TIP3    H1  846   3.261   6.650   2.865  0.2097 -0.3805 -1.6488
  294TIP3    H2  847   3.318   6.556   2.969 -0.3069  1.5766  0.4844
  295TIP3   OH2  848   3.971   5.203   0.347 -0.2585 -0.3888 -0.3731
  295TIP3    H1  849   4.019   5.257   0.410 -0.0650  0.4348 -1.2091
  295TIP3    H2  850   3.914   5.265   0.301 -0.5597 -1.0120 -0.8510
  296TIP3   OH2  851   4.683   4.221   2.676 -0.0690  0.1972 -0.3532
  296TIP3    H1  852   4.664   4.226   2.582 -0.2279  1.1213 -0.2786
  296TIP3    H2  853   4.657   4.306   2.711  2.6006  0.9697  0.0424
  297TIP3   OH2  854   3.992   3.389   5.104  0.2080  0.0328 -0.2309
  297TIP3    H1  855   4.005   3.434   5.021  0.0998 -0.5653 -0.5825
  297TIP3    H2  856   3.977   3.298   5.079 -0.7824  0.0184  0.3948
  298TIP3   OH2  857   6.525   0.100   0.126 -0.1476  0.2964 -0.0422
  298TIP3    H1  858   6.507   0.146   0.208  0.9552  0.5481  0.0860
  298TIP3    H2  859   6.464   0.027   0.125 -0.1040  0.2243  1.0644
  299TIP3   OH2  860   1.343   6.144   5.781 -0.3992  0.2444 -0.3646
  299TIP3    H1  861   1.286   6.184   5.715 -2.5429  0.4959  1.5219
  299TIP3    H2  862   1.398   6.216   5.811 -1.6864  0.9613  0.3843
  300TIP3   OH2  863   6.294   6.532   2.943  0.0032  0.6524  0.1448
  300TIP3    H1  864   6.373   6.584   2.955  0.3363  0.0302  0.7510
  300TIP3    H2  865   6.285   6.483   3.025 -1.4290  1.2637  0.3773
  301TIP3   OH2  866   1.657   2.408   1.089  0.2275  0.2337 -0.2997
  301TIP3    H1  867   1.691   2.497   1.098  1.4038  0.0159 -1.9963
  301TIP3    H2  868   1.569   2.420   1.053  0.1694  0.7242 -0.0051
  302TIP3   OH2  869   0.966   3.759   0.743 -0.0408  0.5041 -0.3734
  302TIP3    H1  870   0.916   3.725   0.818  2.2736 -1.3623  0.4489
  302TIP3    H2  871   1.010   3.836   0.777 -0.4268  0.7212 -0.3630
  303TIP3   OH2  872   1.220   2.734   1.113 -0.0658  0.2341 -0.3110
  303TIP3    H1  873   1.157   2.690   1.170 -1.3037  2.3697  0.1062
  303TIP3    H2  874   1.181   2.730   1.026 -0.4473  0.8933 -0.1824
  304TIP3   OH2  875   5.905   6.715   0.955 -0.2989  0.1859 -0.0649
  304TIP3    H1  876   5.898   6.740   1.047  0.4106 -0.6387  0.2289
  304TIP3    H2  877   5.831   6.656   0.941 -1.0676  1.1824 -0.3447
  305TIP3   OH2  878   3.369   1.346   5.250 -0.6922 -0.1281 -0.1289
  305TIP3    H1  879   3.289   1.323   5.297 -0.6062 -0.5649 -0.1975
  305TIP3    H2  880   3.438   1.344   5.317 -0.4588 -1.3859 -0.3897
  306TIP3   OH2  881   4.362   5.938   3.469  0.5565  0.0584  0.2796
  306TIP3    H1  882   4.443   5.960   3.516 -0.3052  0.0995  1.8117
  306TIP3    H2  883   4.294   5.939   3.537 -0.3516 -2.4344 -0.4982
  307TIP3   OH2  884   6.582   4.483   4.241  0.0704 -0.3063 -0.0701
  307TIP3    H1  885   6.568   4.399   4.285  1.4575 -0.6866 -0.2960
  307TIP3    H2  886   6.648   4.464   4.174 -0.6913  0.6509 -1.1276
  308TIP3   OH2  887   1.998   2.482   2.570 -0.4837  0.4001  0.0127
  308TIP3    H1  888   1.930   2.421   2.601 -0.5685  0.7995  0.6407
  308TIP3    H2  889   2.006   2.545   2.641  0.8089  0.1556  0.0990
  309TIP3   OH2  890   6.790   5.749   1.666  0.2331 -0.4043  0.4756
  309TIP3    H1  891   6.764   5.841   1.659 -1.6589 -0.4952  3.9683
  309TIP3    H2  892   6.731   5.703   1.606  1.0744  0.5492 -1.1635
  310TIP3   OH2  893   0.353   3.831   1.710 -0.3939  0.2542  0.0889
  310TIP3    H1  894   0.413   3.897   1.745 -0.8763  0.3302  0.7816
  310TIP3    H2  895   0.285   3.881   1.665  1.0602  0.1271 -2.4207
  311TIP3   OH2  896   4.584   6.698   3.122  0.0746  0.1527  0.7276
  311TIP3    H1  897   4.491   6.675   3.115 -0.1006  0.7958  0.8296
  311TIP3    H2  898   4.628   6.615   3.137 -0.4746 -0.1758  0.5613
  312TIP3   OH2  899   1.861   4.026   5.031 -0.1930 -0.2721 -0.1509
  312TIP3    H1  900   1.815   3.954   5.074 -0.4188 -1.9514 -2.9181
  312TIP3    H2  901   1.804   4.102   5.041 -0.1843 -0.5445  2.4209
  313TIP3   OH2  902   5.336   3.939   3.457 -0.4250 -0.1253  0.4501
  313TIP3    H1  903   5.350   3.985   3.374 -0.3395 -1.8990 -0.5567
  313TIP3    H2  904   5.413   3.959   3.510 -0.3411  0.7737 -0.0005
  314TIP3   OH2  905   4.373   1.415   2.305 -0.3209 -0.2916 -0.3141
  314TIP3    H1  906   4.424   1.479   2.354 -0.5303  0.3083 -0.8669
  314TIP3    H2  907   4.307   1.384   2.366 -0.5784  0.4473 -0.2131
  315TIP3   OH2  908   6.398   5.073   4.112 -0.1841  0.0520 -0.4145
  315TIP3    H1  909   6.480   5.087   4.160 -0.6634  1.2380  0.1154
  315TIP3    H2  910   6.415   4.996   4.058  1.0405 -0.1495  0.2028
  316TIP3   OH2  911   2.487   1.104   4.419 -0.1039  0.2601  0.1159
  316TIP3    H1  912   2.459   1.183   4.467  0.6711  1.1304 -0.8112
  316TIP3    H2  913   2.528   1.049   4.486 -1.5012  0.1981  0.9610
  317TIP3   OH2  914   2.163   5.839   2.825  0.0099  0.5180 -0.2246
  317TIP3    H1  915   2.138   5.763   2.774  1.0607 -0.9305  1.3057
  317TIP3    H2  916   2.231   5.882   2.773 -0.3739  0.2501 -0.9559
  318TIP3   OH2  917   6.383   0.545   0.279 -0.1884  0.0230 -0.1396
  318TIP3    H1  918   6.465   0.496   0.277 -0.0146  0.2734  0.7560
  318TIP3    H2  919   6.333   0.510   0.205  0.9711  0.3096 -1.0887
  319TIP3   OH2  920   1.129   2.051   2.403  0.5931  0.6338 -0.1817
  319TIP3    H1  921   1.107   2.101   2.481 -1.8394  0.4908 -0.6979
  319TIP3    H2  922   1.088   1.966   2.417  1.1940  0.1736 -1.0940
  320TIP3   OH2  923   1.337   0.417   1.020  0.0048  0.0284  0.6189
  320TIP3    H1  924   1.258   0.452   0.979  2.1745  0.3864 -3.8017
  320TIP3    H2  925   1.328   0.322   1.012 -0.8377 -0.0575  2.1567
  321TIP3   OH2  926   6.178   6.162   1.994  0.5534  0.6578 -0.0817
  321TIP3    H1  927   6.213   6.149   1.906 -0.3163  1.9904 -0.6565
  321TIP3    H2  928   6.133   6.080   2.014  1.1097  0.1871 -0.7014
  322TIP3   OH2  929   5.157   1.468   2.598 -0.3764 -0.0328 -0.2226
  322TIP3    H1  930   5.102   1.430   2.667  0.0836  0.4792  0.4425
  322TIP3    H2  931   5.101   1.469   2.521 -1.6196  1.3067  0.6464
  323TIP3   OH2  932   6.859   6.160   1.690  0.5309 -0.7046 -0.6892
  323TIP3    H1  933   6.851   6.092   1.623 -0.7248 -0.0587 -1.2344
  323TIP3    H2  934   6.777   6.156   1.739  1.0398 -0.5337  0.2054
  324TIP3   OH2  935   1.862   3.916   1.272  0.4131  0.4819  0.3838
  324TIP3    H1  936   1.875   3.879   1.184  1.5320  0.9345  0.3437
  324TIP3    H2  937   1.767   3.919   1.283  0.2391 -2.0240  0.2318
  325TIP3   OH2  938   6.407   2.194   4.028 -0.0325 -0.0006 -0.5249
  325TIP3    H1  939   6.391   2.122   3.967 -0.2758 -0.1493 -0.2912
  325TIP3    H2  940   6.329   2.195   4.083  0.7566 -0.7377  0.6555
  326TIP3   OH2  941   5.568   1.805   3.133 -0.0903 -0.5174  0.3394
  326TIP3    H1  942   5.639   1.743   3.113 -0.2353 -1.3116  2.1371
  326TIP3    H2  943   5.610   1.891   3.128  0.0464 -0.6611 -2.4860
  327TIP3   OH2  944   5.786   1.034   0.458 -0.2803  0.5200  0.4433
  327TIP3    H1  945   5.873   1.002   0.433 -0.8027  0.0264 -0.7702
  327TIP3    H2  946   5.804   1.116   0.505  0.9258 -0.3249  1.5415
  328TIP3   OH2  947   6.336   1.670   2.003  0.1530 -0.2853  0.3405
  328TIP3    H1  948   6.397   1.719   2.058 -1.3248  1.9749  0.0744
  328TIP3    H2  949   6.362   1.692   1.913 -0.7785  0.3971  0.2242
  329TIP3   OH2  950   6.354   4.077   0.878  0.2606  0.3139  0.0158
  329TIP3    H1  951   6.367   4.163   0.836 -1.0832  0.9780  0.8909
  329TIP3    H2  952   6.405   4.083   0.959 -0.3867  0.5644  0.4128
  330TIP3   OH2  953   3.745   0.717   1.618 -0.1046 -0.4504  0.1008
  330TIP3    H1  954   3.759   0.753   1.705 -1.1638  1.6894 -0.5237
  330TIP3    H2  955   3.817   0.753   1.566 -0.7778  0.2586 -0.3769
  331TIP3   OH2  956   2.267   1.693   5.528 -0.5972  0.1595  0.1557
  331TIP3    H1  957   2.326   1.709   5.454 -1.8789 -1.9432 -1.4651
  331TIP3    H2  958   2.320   1.642   5.589  0.4968  1.9539  0.7859
  332TIP3   OH2  959   5.340   5.549   3.305  0.1354  0.1276  0.0937
  332TIP3    H1  960   5.289   5.576   3.381 -0.2768 -1.0026  0.2416
  332TIP3    H2  961   5.293   5.473   3.271  0.1189  0.8349 -1.5143
  333TIP3   OH2  962   7.025   3.063   2.049 -0.0524 -0.1620  0.3375
  333TIP3    H1  963   7.001   2.987   2.101 -0.4591 -0.1865  0.1159
  333TIP3    H2  964   6.984   3.048   1.964 -0.4402  0.4807  0.4066
  334TIP3   OH2  965   5.868   5.037   5.440 -0.0078  0.1759 -0.0463
  334TIP3    H1  966   5.806   5.098   5.400 -1.1132 -0.2587  0.9563
  334TIP3    H2  967   5.852   4.954   5.395 -2.7415 -0.8740  2.5437
  335TIP3   OH2  968   3.305   3.776   4.209 -0.7104  0.1729  0.3354
  335TIP3    H1  969   3.287   3.866   4.181 -0.3652 -0.4939 -2.3487
  335TIP3    H2  970   3.241   3.759   4.278 -1.4872  2.1334  0.1697
  336TIP3   OH2  971   7.089   6.582   5.620 -0.0403  0.2016 -0.3263
  336TIP3    H1  972   7.153   6.634   5.668  0.5216 -1.0158  0.2638
  336TIP3    H2  973   7.070   6.507   5.676 -0.0531 -0.7843 -1.5820
  337TIP3   OH2  974   5.083   3.934   3.574  0.4160 -0.3778  0.1481
  337TIP3    H1  975   5.040   3.850   3.589 -1.3920  0.2845 -0.9562
  337TIP3    H2  976   5.151   3.916   3.509 -0.0229 -0.9729 -0.1468
  338TIP3   OH2  977   4.262   3.381   4.596 -0.2596  0.0741 -0.4189
  338TIP3    H1  978   4.213   3.339   4.524  0.3040 -0.3622 -0.5506
  338TIP3    H2  979   4.257   3.318   4.668 -0.0124  0.0899 -0.3880
  339TIP3   OH2  980   4.851   0.027   5.243 -0.3268 -0.1430 -0.7236
  339TIP3    H1  981   4.834  -0.032   5.316  1.0378  1.4991  1.0490
  339TIP3    H2  982   4.787   0.097   5.253  1.3518  1.3277  0.4576
  340TIP3   OH2  983   6.304   6.668   1.984  0.4466  0.1902  0.6496
  340TIP3    H1  984   6.232   6.610   2.009 -1.3069  2.4084  1.0757
  340TIP3    H2  985   6.378   6.638   2.037 -0.4437 -1.4690  1.0282
  341TIP3   OH2  986   5.076   0.698   4.923  0.2011 -0.1620  0.3609
  341TIP3    H1  987   5.166   0.723   4.943  0.1895 -0.0279  0.2492
  341TIP3    H2  988   5.045   0.655   5.002  0.9479 -1.8370 -0.2052
  342TIP3   OH2  989   0.642   4.486   4.167  0.4539 -0.7222  0.6879
  342TIP3    H1  990   0.600   4.434   4.099  2.1752 -1.8060  0.3833
  342TIP3    H2  991   0.625   4.438   4.248 -1.5311  0.5282  1.0806
  343TIP3   OH2  992   6.817   0.259   4.100  0.2249  0.0965 -0.0118
  343TIP3    H1  993   6.745   0.196   4.097 -1.3272  1.8319 -1.6271
  343TIP3    H2  994   6.868   0.241   4.021 -0.0522  0.6579 -0.3221
  344TIP3   OH2  995   6.655   5.084   4.226  0.1143  0.6222  0.4335
  344TIP3    H1  996   6.643   5.095   4.321  3.7530  0.4674  1.0458
  344TIP3    H2  997   6.683   5.171   4.196 -2.3184  1.0392 -0.8466
  345TIP3   OH2  998   4.950   5.563   0.215 -0.0050  0.0929  0.0757
  345TIP3    H1  999   4.873   5.507   0.210 -0.5313  0.8114 -0.0189
  345TIP3    H2 1000   4.956   5.604   0.129  0.9461 -0.5432 -0.1809
  346TIP3   OH2 1001   0.066   6.630   4.912 -0.1033  0.6186 -0.0945
  346TIP3    H1 1002   0.122   6.619   4.835  0.3315  1.5626  0.0742
  346TIP3    H2 1003   0.082   6.552   4.965  0.8129  0.7288 -0.2002
  347TIP3   OH2 1004   2.072   2.342   3.085  0.5633  0.1417 -0.4890
  347TIP3    H1 1005   2.015   2.294   3.026 -1.7418  0.1201  1.5824
  347TIP3    H2 1006   2.087   2.282   3.158  0.6924  1.2470  0.4291
  348TIP3   OH2 1007   6.263   1.329   4.020 -0.9837 -0.3312  1.1017
  348TIP3    H1 1008   6.348   1.286   4.030 -1.0147 -0.5307  0.4939
  348TIP3    H2 1009   6.280   1.420   4.041 -0.6080 -0.3590  0.9220
  349TIP3   OH2 1010   4.259   1.023   5.425  0.3028  0.0913  0.1963
  349TIP3    H1 1011   4.185   1.067   5.383 -0.5437  0.1253  1.6594
  349TIP3    H2 1012   4.322   1.093   5.441 -1.3768  1.0786  3.2673
  350TIP3   OH2 1013   6.717   3.609   4.505  0.3403 -0.1543 -1.0812
  350TIP3    H1 1014   6.683   3.682   4.557 -2.7757 -1.9520 -0.3279
  350TIP3    H2 1015   6.781   3.650   4.446 -1.6797  3.3030 -1.1778
  351TIP3   OH2 1016   4.152   6.249   4.326 -0.6023 -0.3152 -0.3373
  351TIP3    H1 1017   4.058   6.270   4.323 -1.1008 -2.0358  1.2954
  351TIP3    H2 1018   4.158   6.178   4.390  2.0327  0.7321  0.6668
  352TIP3   OH2 1019   2.596   4.986   4.252 -0.2904  0.3074 -0.0226
  352TIP3    H1 1020   2.542   4.936   4.314 -0.8294  0.8132 -0.0703
  352TIP3    H2 1021   2.597   4.932   4.173 -0.2523  0.0257  0.1686
  353TIP3   OH2 1022   5.678   5.971   2.078  0.0139  0.4300 -0.3776
  353TIP3    H1 1023   5.640   5.988   2.164  0.5663 -2.0889  0.4672
  353TIP3    H2 1024   5.605   5.979   2.017 -1.1494 -0.9533  0.7659
  354TIP3   OH2 1025   1.887   3.408   3.321 -0.1175 -0.0930 -0.7702
  354TIP3    H1 1026   1.875   3.480   3.259 -1.2036 -0.6650 -1.2343
  354TIP3    H2 1027   1.856   3.330   3.276 -1.5764 -0.4256  0.6945
  355TIP3   OH2 1028   0.970   3.319   4.880 -0.1172 -0.0566 -0.3590
  355TIP3    H1 1029   0.966   3.409   4.850  0.1041 -0.0296 -0.3090
  355TIP3    H2 1030   0.937   3.267   4.807 -0.3308  0.0717 -0.3542
  356TIP3   OH2 1031   0.290   4.530   5.022  0.2346 -0.3189 -0.3456
  356TIP3    H1 1032   0.198   4.534   4.995  0.3789  1.1302 -0.6765
  356TIP3    H2 1033   0.339   4.556   4.944  0.7949  1.2342  0.4945
  357TIP3   OH2 1034   6.366   2.335   0.642  0.1790  0.0458  0.0026
  357TIP3    H1 1035   6.457   2.319   0.666 -0.2463 -2.0595  0.4016
  357TIP3    H2 1036   6.333   2.250   0.613 -1.3733  0.9902 -1.2170
  358TIP3   OH2 1037   4.405   5.497   5.504  0.0678  0.0902 -0.1240
  358TIP3    H1 1038   4.359   5.418   5.476 -0.5531  0.2260  0.4900
  358TIP3    H2 1039   4.474   5.465   5.562 -0.5148  0.0179  0.5522
  359TIP3   OH2 1040   2.112   2.762   0.594 -0.1920  0.8506  0.3190
  359TIP3    H1 1041   2.110   2.672   0.561  1.3901  1.0882 -0.5322
  359TIP3    H2 1042   2.068   2.814   0.527 -0.6300  0.7966  0.5587
  360TIP3   OH2 1043   7.073   4.322   0.651 -0.3406  0.2498  0.3546
  360TIP3    H1 1044   7.006   4.265   0.615  0.3879 -0.8122  0.6525
  360TIP3    H2 1045   7.029   4.372   0.720 -1.3225  1.0701 -0.8065
  361TIP3   OH2 1046   3.554   5.779   5.609 -0.0789 -0.0475 -0.1654
  361TIP3    H1 1047   3.541   5.686   5.628 -0.5253 -0.3907 -1.9087
  361TIP3    H2 1048   3.471   5.807   5.572 -0.3912  1.4197  1.5253
  362TIP3   OH2 1049   1.276   0.618   4.700 -0.8483 -0.3971 -0.1084
  362TIP3    H1 1050   1.278   0.673   4.622  2.6987  0.7869  0.6179
  362TIP3    H2 1051   1.327   0.540   4.677 -0.4962 -0.4289  0.7165
  363TIP3   OH2 1052   1.049   2.908   5.258  0.0093 -0.3049 -0.5930
  363TIP3    H1 1053   0.998   2.988   5.247  0.4506  0.0682 -0.0389
  363TIP3    H2 1054   1.001   2.858   5.323  0.4224  0.1281  0.0645
  364TIP3   OH2 1055   5.885   6.370   3.962 -0.2876  0.0907  0.5473
  364TIP3    H1 1056   5.959   6.401   3.910 -0.4504 -0.6033 -0.1329
  364TIP3    H2 1057   5.905   6.278   3.979 -1.5284 -0.4534 -0.6833
  365TIP3   OH2 1058   6.929   1.874   0.658  0.2975 -0.4850  0.7784
  365TIP3    H1 1059   6.838   1.894   0.637  0.9786  0.3513 -1.7021
  365TIP3    H2 1060   6.929   1.780   0.680 -1.0336 -0.6538  0.1395
  366TIP3   OH2 1061   3.756   1.757   3.310 -0.4325  0.1953 -0.0560
  366TIP3    H1 1062   3.841   1.718   3.331 -0.0503  1.2726  0.4786
  366TIP3    H2 1063   3.715   1.695   3.250  0.3268 -0.8077  0.4337
  367TIP3   OH2 1064   2.423   5.871   1.145 -0.7368 -0.4223  0.1865
  367TIP3    H1 1065   2.458   5.836   1.227 -1.6265  0.2585  0.8752
  367TIP3    H2 1066   2.408   5.793   1.091  0.5005 -0.8299  0.3858
  368TIP3   OH2 1067   6.723   5.914   2.149  0.2473  0.0947  0.6435
  368TIP3    H1 1068   6.769   5.861   2.214  1.1891 -0.3213 -0.3322
  368TIP3    H2 1069   6.670   5.852   2.099  2.1628 -0.1590 -1.1919
  369TIP3   OH2 1070   2.237   5.185   5.332 -0.0405  0.1444  0.4766
  369TIP3    H1 1071   2.324   5.222   5.316 -0.2947  1.4618  1.8523
  369TIP3    H2 1072   2.246   5.093   5.311  1.2648  0.5408 -0.9006
  370TIP3   OH2 1073   0.573   6.807   4.617 -0.2650 -0.0279 -0.1794
  370TIP3    H1 1074   0.632   6.749   4.569 -1.8918 -0.0497 -2.3381
  370TIP3    H2 1075   0.593   6.792   4.709  5.1390  2.1671 -0.6482
  371TIP3   OH2 1076   4.966   3.812   2.111 -0.1473  0.1569 -0.2054
  371TIP3    H1 1077   4.934   3.892   2.153  0.5371  0.6741 -0.6521
  371TIP3    H2 1078   5.060   3.809   2.132  0.9605  2.0141 -4.0432
  372TIP3   OH2 1079   4.414   5.297   2.108 -0.2642 -0.3814 -0.3691
  372TIP3    H1 1080   4.408   5.391   2.090  0.1582 -0.6112 -1.8043
  372TIP3    H2 1081   4.415   5.291   2.204 -0.5586  1.0527 -0.2550
  373TIP3   OH2 1082   4.108   4.852   5.063  0.2398  0.0432  0.0146
  373TIP3    H1 1083   4.100   4.760   5.091 -1.0683 -0.6501 -2.3969
  373TIP3    H2 1084   4.200   4.863   5.042  0.5894 -0.4009  1.2025
  374TIP3   OH2 1085   0.870   6.665   0.920  0.3127 -0.0245 -0.5677
  374TIP3    H1 1086   0.778   6.668   0.891 -0.5553 -0.5621  1.9292
  374TIP3    H2 1087   0.898   6.575   0.901  0.5906  0.3210 -1.9395
  375TIP3   OH2 1088   6.088   0.432   4.113 -0.3520 -0.1521 -0.2147
  375TIP3    H1 1089   6.101   0.483   4.193 -2.5206 -0.6658  0.5174
  375TIP3    H2 1090   6.039   0.490   4.055  0.7454  0.0225 -1.0069
  376TIP3   OH2 1091   6.040   0.331   0.204 -0.5354  0.7747  0.3817
  376TIP3    H1 1092   6.016   0.276   0.278 -0.5487  1.1547  0.6579
  376TIP3    H2 1093   5.972   0.315   0.138 -0.6340  0.5935  0.5290
  377TIP3   OH2 1094   5.072   1.915   5.130  0.3343  0.4063 -0.0772
  377TIP3    H1 1095   5.138   1.846   5.139  0.5458  0.6769  0.4586
  377TIP3    H2 1096   5.085   1.971   5.206 -1.4718 -0.3256  0.8143
  378TIP3   OH2 1097   5.500   2.190   1.856  0.1102 -0.4822  0.6367
  378TIP3    H1 1098   5.413   2.223   1.878 -0.6070 -2.6095  1.1274
  378TIP3    H2 1099   5.524   2.134   1.929  1.6049 -0.5098  0.1648
  379TIP3   OH2 1100   6.582   3.252   3.910  0.3913  0.9293 -0.2131
  379TIP3    H1 1101   6.594   3.317   3.979 -1.6272  0.3983  0.7070
  379TIP3    H2 1102   6.641   3.180   3.934 -0.4013  0.6843  1.0641
  380TIP3   OH2 1103   6.330   6.199   5.341  0.2332 -0.1490 -0.2050
  380TIP3    H1 1104   6.277   6.133   5.296  0.4584  0.2862 -1.1344
  380TIP3    H2 1105   6.398   6.223   5.277 -0.6922  2.0263 -0.4400
  381TIP3   OH2 1106   2.130   6.785   0.359 -0.4833  0.3389 -0.4073
  381TIP3    H1 1107   2.206   6.746   0.316 -0.5221 -0.5559  0.3032
  381TIP3    H2 1108   2.160   6.809   0.446 -0.5722  1.5709 -0.6951
  382TIP3   OH2 1109   3.470   2.984   2.172  0.6082  0.5517  0.4552
  382TIP3    H1 1110   3.476   2.909   2.232 -3.6569 -0.4935 -0.0779
  382TIP3    H2 1111   3.451   2.945   2.087 -0.2937  2.1951 -0.1379
  383TIP3   OH2 1112   1.767   0.258   2.329 -0.2976 -0.2804 -0.0958
  383TIP3    H1 1113   1.785   0.347   2.300  1.5347 -0.7011 -0.3812
  383TIP3    H2 1114   1.842   0.236   2.384 -0.1739 -2.0229 -0.9072
  384TIP3   OH2 1115   6.160   5.226   4.089  0.3273 -0.1002 -0.1610
  384TIP3    H1 1116   6.136   5.188   4.005 -0.6129  0.2625 -0.0706
  384TIP3    H2 1117   6.238   5.178   4.116  1.1827  0.3910 -1.6470
  385TIP3   OH2 1118   0.444   5.549   0.979 -0.8488 -0.1692 -0.6360
  385TIP3    H1 1119   0.439   5.454   0.996  0.2578  0.0703  1.3739
  385TIP3    H2 1120   0.506   5.557   0.907 -0.0969 -0.9372 -0.1018
  386TIP3   OH2 1121   2.975   5.302   0.040 -0.1525  0.3524  0.5971
  386TIP3    H1 1122   2.975   5.316  -0.054 -0.1725 -1.0066  0.3813
  386TIP3    H2 1123   2.917   5.227   0.054  1.6327 -0.9461  1.4446
  387TIP3   OH2 1124   5.866   1.182   2.872  0.0278  0.8169  0.0136
  387TIP3    H1 1125   5.930   1.130   2.920 -1.3112 -1.2732 -0.3320
  387TIP3    H2 1126   5.786   1.130   2.874 -0.5513  1.3740 -3.0781
  388TIP3   OH2 1127   6.588   1.032   4.064 -0.6142 -0.4404  0.7001
  388TIP3    H1 1128   6.604   0.970   3.992  0.1961 -0.3229  0.7723
  388TIP3    H2 1129   6.493   1.039   4.068 -0.7401 -1.9603  0.9160
  389TIP3   OH2 1130   0.533   1.335   1.987 -0.1720 -0.3364  0.0783
  389TIP3    H1 1131   0.535   1.423   2.024 -0.3441  0.8456 -2.4928
  389TIP3    H2 1132   0.448   1.329   1.943 -0.3173 -1.9520  0.4945
  390TIP3   OH2 1133   0.657   2.681   3.977  0.2824 -0.1537  0.2851
  390TIP3    H1 1134   0.720   2.620   3.939  2.4625  2.8000 -1.3034
  390TIP3    H2 1135   0.684   2.688   4.069  0.4451 -1.0528  0.3138
  391TIP3   OH2 1136   6.499   6.572   0.988  0.2016 -0.3888 -0.4078
  391TIP3    H1 1137   6.436   6.582   0.917  0.2001 -0.3756 -0.4042
  391TIP3    H2 1138   6.583   6.560   0.943  0.3898  0.8324 -0.4023
  392TIP3   OH2 1139   1.951   3.583   2.708  0.0332  0.1014  0.0460
  392TIP3    H1 1140   1.873   3.557   2.658 -0.6068  1.3231  0.3866
  392TIP3    H2 1141   2.024   3.568   2.647 -0.0778 -3.5617  0.5567
  393TIP3   OH2 1142   6.409   2.694   3.061  0.2842 -0.6746 -0.4466
  393TIP3    H1 1143   6.458   2.734   2.989  0.9446 -1.3552 -0.3884
  393TIP3    H2 1144   6.421   2.755   3.134  1.1783 -0.8922 -0.3909
  394TIP3   OH2 1145   6.060   6.446   3.755 -0.4505  0.0496 -0.0655
  394TIP3    H1 1146   6.036   6.535   3.728  0.1813  0.0227 -0.7399
  394TIP3    H2 1147   6.017   6.389   3.692  2.0676  0.0343 -1.9437
  395TIP3   OH2 1148   0.294   5.239   4.611 -0.3325 -0.5302  0.3672
  395TIP3    H1 1149   0.279   5.320   4.660  1.0807 -1.1121  1.8192
  395TIP3    H2 1150   0.374   5.255   4.561  0.6213 -1.3961  1.5615
  396TIP3   OH2 1151   2.903   0.302   3.294 -0.3909  0.3025 -0.2888
  396TIP3    H1 1152   2.959   0.284   3.219  0.5283 -0.6252  0.5804
  396TIP3    H2 1153   2.962   0.340   3.360 -1.0234  0.3909  0.2422
  397TIP3   OH2 1154   4.344   6.698   0.379  0.1221 -0.2231  0.1917
  397TIP3    H1 1155   4.358   6.766   0.313  0.0901 -0.6998 -0.3163
  397TIP3    H2 1156   4.300   6.743   0.451 -0.0579  0.2523 -0.2083
  398TIP3   OH2 1157   6.633   6.663   3.709  0.0377 -0.0683 -0.2685
  398TIP3    H1 1158   6.716   6.620   3.730  0.6127  0.8536 -0.5996
  398TIP3    H2 1159   6.566   6.610   3.752  0.8796 -0.3171  0.7443
  399TIP3   OH2 1160   1.527   2.585   2.138 -0.1675  0.8385  0.3695
  399TIP3    H1 1161   1.589   2.655   2.118  0.1297  0.0441 -1.8182
  399TIP3    H2 1162   1.448   2.609   2.090  0.3185 -0.8135 -1.4018
  400TIP3   OH2 1163   1.802   6.481   2.934 -0.7072  0.0527  0.1203
  400TIP3    H1 1164   1.850   6.469   3.016  0.7775 -0.1081 -0.7475
  400TIP3    H2 1165   1.768   6.394   2.914  1.1331 -0.5090 -0.7419
  401TIP3   OH2 1166   0.110   6.088   4.493 -0.2707  0.3913 -0.2531
  401TIP3    H1 1167   0.095   6.177   4.460 -1.4406  0.5808  0.6915
  401TIP3    H2 1168   0.067   6.088   4.579 -0.1592 -1.0486 -0.1823
  402TIP3   OH2 1169   0.308   6.149   0.465  0.2321  0.3281  0.0729
  402TIP3    H1 1170   0.391   6.182   0.499  0.0602  1.4035 -0.4943
  402TIP3    H2 1171   0.280   6.083   0.528  0.9581  0.7623  0.8624
  403TIP3   OH2 1172   1.239   3.561   3.346 -0.0148  0.0474 -0.7480
  403TIP3    H1 1173   1.153   3.528   3.319 -1.5471  1.8429  1.6008
  403TIP3    H2 1174   1.234   3.567   3.441  1.5622  3.1085 -0.7322
  404TIP3   OH2 1175   2.900   4.870   5.156 -0.4946  0.1271  0.2388
  404TIP3    H1 1176   2.885   4.963   5.145  0.2320  0.1267 -0.8604
  404TIP3    H2 1177   2.979   4.864   5.210 -0.8139  0.1325  0.7177
  405TIP3   OH2 1178   2.951   0.412   1.899 -0.4777  0.1181  0.2809
  405TIP3    H1 1179   2.861   0.430   1.876 -0.4080  1.7274  1.1069
  405TIP3    H2 1180   2.985   0.359   1.827 -1.3370  1.6710 -1.3235
  406TIP3   OH2 1181   6.766   5.781   0.095 -0.0459 -0.5273 -0.7297
  406TIP3    H1 1182   6.781   5.776   0.001 -1.7082  0.7287 -1.1074
  406TIP3    H2 1183   6.854   5.786   0.133  0.6814 -1.7864 -2.1219
  407TIP3   OH2 1184   3.498   1.300   2.433  0.2346  0.1090 -0.1984
  407TIP3    H1 1185   3.588   1.331   2.423  0.2229  0.1695 -0.1234
  407TIP3    H2 1186   3.465   1.293   2.344  0.7867 -1.3507 -0.3039
  408TIP3   OH2 1187   2.655   6.402   1.038  0.3436  0.1928 -0.2534
  408TIP3    H1 1188   2.638   6.420   1.131  0.2333  0.2581 -0.2855
  408TIP3    H2 1189   2.716   6.329   1.038  0.0500 -0.0566 -0.1360
  409TIP3   OH2 1190   1.234   5.573   2.601  0.3181 -0.1560 -0.3142
  409TIP3    H1 1191   1.297   5.531   2.660 -1.1687 -2.0476  0.0657
  409TIP3    H2 1192   1.160   5.596   2.658 -0.8640 -1.4162 -1.2630
  410TIP3   OH2 1193   0.838   5.585   5.502 -0.3932 -0.4799  0.6744
  410TIP3    H1 1194   0.839   5.514   5.438  1.6688 -0.3380  0.4566
  410TIP3    H2 1195   0.930   5.595   5.527 -0.7581  1.4936  1.3968
  411TIP3   OH2 1196   1.676   3.997   0.323  0.1183  0.8040 -0.0256
  411TIP3    H1 1197   1.682   3.911   0.365  0.0284  0.6562 -0.3145
  411TIP3    H2 1198   1.743   4.050   0.367  0.6094  0.4045 -0.2825
  412TIP3   OH2 1199   2.967   5.557   2.198  0.1159 -0.3560  0.2963
  412TIP3    H1 1200   2.961   5.610   2.119 -0.2386 -1.4153 -0.4054
  412TIP3    H2 1201   3.015   5.613   2.261  1.5567  0.0104 -1.0696
  413TIP3   OH2 1202   0.888   4.710   4.621  0.5022 -0.3146 -0.4548
  413TIP3    H1 1203   0.909   4.671   4.537 -1.3009 -2.0552 -0.1766
  413TIP3    H2 1204   0.806   4.757   4.606 -0.2735 -1.3200  0.4784
  414TIP3   OH2 1205   0.778   3.017   0.890  0.1181 -0.1710  0.0774
  414TIP3    H1 1206   0.725   3.004   0.811  1.8810 -1.9168 -0.9050
  414TIP3    H2 1207   0.719   3.062   0.951 -1.7563 -0.0387 -1.7063
  415TIP3   OH2 1208   2.982   6.044   0.156 -0.9371 -0.6251 -0.1078
  415TIP3    H1 1209   3.008   6.005   0.239 -1.6826  0.1188  0.5029
  415TIP3    H2 1210   2.889   6.066   0.168 -0.7654  0.5282 -0.7136
  416TIP3   OH2 1211   5.780   0.555   2.672  0.8896 -0.3011  0.6162
  416TIP3    H1 1212   5.774   0.478   2.615  0.3051 -0.7515  1.2536
  416TIP3    H2 1213   5.858   0.602   2.642  3.0819 -2.7200  2.1256
  417TIP3   OH2 1214   1.027   2.571   5.111  0.1269  0.0021 -0.3987
  417TIP3    H1 1215   1.044   2.664   5.095 -0.9696  0.2109 -0.4096
  417TIP3    H2 1216   1.030   2.531   5.025  0.6345  0.0238 -0.3911
  418TIP3   OH2 1217   3.496   4.843   4.819 -0.4794 -0.0703  0.3000
  418TIP3    H1 1218   3.575   4.843   4.874  0.1647  0.4647 -0.5986
  418TIP3    H2 1219   3.429   4.801   4.873 -0.0038  0.8780  1.6760
  419TIP3   OH2 1220   0.982   4.564   3.619  0.1490  0.4729  0.2598
  419TIP3    H1 1221   1.009   4.579   3.529 -1.0697 -0.4410 -0.2902
  419TIP3    H2 1222   1.029   4.486   3.646  0.1971  0.5058  0.2712
  420TIP3   OH2 1223   0.545   6.275   1.948 -0.6597  0.5832 -0.0619
  420TIP3    H1 1224   0.542   6.292   2.042 -2.1115  0.7687 -0.1209
  420TIP3    H2 1225   0.564   6.360   1.908  0.1706  0.4626  0.0673
  421TIP3   OH2 1226   4.324   0.412   5.890  0.1939  0.2373  0.1705
  421TIP3    H1 1227   4.299   0.439   5.802 -2.5717  0.0308  0.8108
  421TIP3    H2 1228   4.274   0.332   5.907  2.3751 -1.0269  1.1570
  422TIP3   OH2 1229   5.998   6.378   5.060 -0.2168 -0.3078 -0.0621
  422TIP3    H1 1230   5.936   6.392   5.131 -1.6811 -0.5245 -1.2350
  422TIP3    H2 1231   5.944   6.377   4.981  1.4120  0.5907 -1.2617
  423TIP3   OH2 1232   4.199   0.620   5.736 -0.2462 -0.1929 -0.9276
  423TIP3    H1 1233   4.208   0.640   5.830 -1.1108  1.5764 -1.1758
  423TIP3    H2 1234   4.105   0.607   5.724 -0.0596 -1.1569 -1.4445
  424TIP3   OH2 1235   6.228   2.536   5.522  0.0535  0.5213 -0.2046
  424TIP3    H1 1236   6.245   2.502   5.434 -1.6034  0.4361 -0.5276
  424TIP3    H2 1237   6.206   2.628   5.509 -1.2836  0.2547 -0.0500
  425TIP3   OH2 1238   2.502   5.462   1.664 -0.0112 -0.2858 -0.1160
  425TIP3    H1 1239   2.480   5.386   1.612  1.1869 -1.0342  0.4326
  425TIP3    H2 1240   2.483   5.537   1.607  1.1036 -1.0636 -1.5597
  426TIP3   OH2 1241   6.555   0.428   3.559  0.3763 -0.1942 -0.1386
  426TIP3    H1 1242   6.504   0.347   3.556  0.3081 -0.1216 -1.6248
  426TIP3    H2 1243   6.521   0.480   3.486  0.7549  0.9706  0.4978
  427TIP3   OH2 1244   5.763   1.495   3.810 -0.2019  0.4545  0.0102
  427TIP3    H1 1245   5.707   1.531   3.741  0.9121 -0.1412 -1.2368
  427TIP3    H2 1246   5.712   1.422   3.845 -0.3064  0.0106 -1.0116
  428TIP3   OH2 1247   6.853   5.258   2.683 -0.2599 -0.2608  0.0753
  428TIP3    H1 1248   6.941   5.286   2.657 -0.5933 -0.9729 -2.0135
  428TIP3    H2 1249   6.796   5.331   2.657 -0.2359  0.6011  2.2648
  429TIP3   OH2 1250   3.255   3.615   1.614  0.5774 -0.2526  0.5104
  429TIP3    H1 1251   3.173   3.642   1.654  0.3356 -1.7256  1.0931
  429TIP3    H2 1252   3.306   3.579   1.687  1.2543 -0.4529 -0.0516
  430TIP3   OH2 1253   0.007   5.547   1.409 -0.5281  0.4136  0.3256
  430TIP3    H1 1254  -0.039   5.464   1.398  0.6291 -0.1252 -0.6078
  430TIP3    H2 1255   0.049   5.563   1.324  0.1269  1.4254  0.8192
  431TIP3   OH2 1256   1.292   3.264   4.325 -0.8834  0.5785 -0.7856
  431TIP3    H1 1257   1.219   3.272   4.263 -1.7212 -0.2858  0.0568
  431TIP3    H2 1258   1.261   3.306   4.405 -0.2210  0.7385 -0.6076
  432TIP3   OH2 1259   7.151   5.399   4.751 -0.1955 -0.3501 -0.0981
  432TIP3    H1 1260   7.138   5.365   4.662 -2.2341  1.6758 -0.6939
  432TIP3    H2 1261   7.084   5.355   4.803  0.5823 -1.0634  0.3122
  433TIP3   OH2 1262   7.090   0.125   2.992  0.6908 -0.1843  0.2515
  433TIP3    H1 1263   7.033   0.058   3.029  1.0782 -0.6949 -0.0648
  433TIP3    H2 1264   7.178   0.089   3.000  1.0849  0.9370  1.5043
  434TIP3   OH2 1265   2.473   0.591   3.856 -0.0309 -0.2036 -0.2411
  434TIP3    H1 1266   2.441   0.609   3.768  0.7931 -0.4312 -0.6017
  434TIP3    H2 1267   2.561   0.628   3.857  0.6614 -1.7724 -0.1076
  435TIP3   OH2 1268   1.201   3.818   4.111  0.1514  0.1030 -0.9930
  435TIP3    H1 1269   1.140   3.790   4.180  2.1583 -0.6334  0.5922
  435TIP3    H2 1270   1.189   3.913   4.106  1.5610  0.5800  2.1595
  436TIP3   OH2 1271   3.824   4.804   2.404 -0.4188  0.4021 -0.2916
  436TIP3    H1 1272   3.891   4.781   2.340  1.0638  1.5148  0.7956
  436TIP3    H2 1273   3.863   4.875   2.456 -2.0618  0.4257  1.0073
  437TIP3   OH2 1274   2.603   1.619   4.079 -0.4286 -0.2869  0.4922
  437TIP3    H1 1275   2.602   1.691   4.017  1.4358 -0.4564  0.2221
  437TIP3    H2 1276   2.622   1.541   4.027 -0.3518 -0.6622  1.0603
  438TIP3   OH2 1277   2.850   3.613   0.910  0.2502 -0.5370  0.4743
  438TIP3    H1 1278   2.801   3.641   0.832 -0.0956  0.9523  1.1897
  438TIP3    H2 1279   2.910   3.546   0.878 -0.4135 -0.4944 -0.9312
  439TIP3   OH2 1280   5.549   3.624   2.991  0.4615 -0.0016 -0.2412
  439TIP3    H1 1281   5.536   3.696   3.052  1.1190 -0.7952  0.8615
  439TIP3    H2 1282   5.532   3.545   3.041  0.8416 -0.6703 -1.1262
  440TIP3   OH2 1283   3.266   4.319   5.642 -0.5242  0.6669  0.6024
  440TIP3    H1 1284   3.176   4.296   5.619 -0.7319  0.4617  1.5596
  440TIP3    H2 1285   3.265   4.415   5.648  0.1344  0.9821 -2.5448
  441TIP3   OH2 1286   0.673   3.716   2.373 -0.0296  0.0292 -0.1804
  441TIP3    H1 1287   0.718   3.642   2.413 -0.1251 -0.2596 -0.6044
  441TIP3    H2 1288   0.586   3.684   2.353 -0.3445  0.5109  0.3927
  442TIP3   OH2 1289   0.929   0.230   1.435  0.1689 -0.4930  0.4177
  442TIP3    H1 1290   0.997   0.276   1.386  1.7007 -1.1897  1.7541
  442TIP3    H2 1291   0.874   0.299   1.471 -0.1919  0.0676 -1.1715
  443TIP3   OH2 1292   5.685   6.538   0.928 -0.3694 -0.2922  0.2959
  443TIP3    H1 1293   5.612   6.535   0.867  0.6655  0.0956 -0.9941
  443TIP3    H2 1294   5.671   6.463   0.986 -0.2925 -1.9378 -1.6941
  444TIP3   OH2 1295   5.172   3.174   4.501  0.4067 -0.1103 -0.1490
  444TIP3    H1 1296   5.263   3.189   4.477  1.2568 -3.1977  0.7654
  444TIP3    H2 1297   5.159   3.080   4.488 -2.2030 -0.0117  1.2130
  445TIP3   OH2 1298   0.817   3.600   3.303  0.4647  0.1628  0.4809
  445TIP3    H1 1299   0.741   3.588   3.360 -0.0877  0.8142 -0.0957
  445TIP3    H2 1300   0.858   3.681   3.332 -0.0187  0.6819 -0.2516
  446TIP3   OH2 1301   1.398   3.447   3.609 -0.1690  0.4583  0.4505
  446TIP3    H1 1302   1.446   3.530   3.617  1.6992 -0.6525  1.7446
  446TIP3    H2 1303   1.422   3.414   3.522  2.5806 -0.6301  1.4828
  447TIP3   OH2 1304   2.269   4.926   4.096  0.4597 -0.1979 -0.3088
  447TIP3    H1 1305   2.237   4.948   4.008  1.2126 -0.8831 -0.7629
  447TIP3    H2 1306   2.364   4.928   4.088  0.5846  1.7210  0.9959
  448TIP3   OH2 1307   3.728   6.684   1.606  0.4542  0.1135  0.4798
  448TIP3    H1 1308   3.738   6.589   1.606 -0.0003  0.0295 -0.9044
  448TIP3    H2 1309   3.777   6.713   1.529  1.0180  1.0563  1.1880
  449TIP3   OH2 1310   3.946   5.243   3.524 -0.0478  0.5746  0.1734
  449TIP3    H1 1311   4.023   5.186   3.532 -0.7265 -0.4594 -0.4209
  449TIP3    H2 1312   3.921   5.236   3.432 -1.7239 -0.2903  0.6611
  450TIP3   OH2 1313   4.325   5.762   3.841  0.0358  0.2193  0.4982
  450TIP3    H1 1314   4.401   5.800   3.885 -0.0953  0.6656  0.3450
  450TIP3    H2 1315   4.262   5.745   3.911  0.3425 -0.3327  0.6522
  451TIP3   OH2 1316   1.633   0.272   5.579 -0.3923  0.5451 -0.4055
  451TIP3    H1 1317   1.558   0.217   5.559  0.3165 -0.8166  0.5889
  451TIP3    H2 1318   1.699   0.247   5.515 -0.4712  1.1341 -0.7307
  452TIP3   OH2 1319   3.923   2.171   4.640 -0.3238 -1.1293 -0.2109
  452TIP3    H1 1320   3.843   2.174   4.693 -2.2170 -0.1329 -2.9002
  452TIP3    H2 1321   3.909   2.098   4.580  0.9012 -1.0665 -0.6012
  453TIP3   OH2 1322   3.169   2.342   5.846  0.1782  0.1342 -0.1782
  453TIP3    H1 1323   3.162   2.274   5.779  1.4042 -0.2993  0.1014
  453TIP3    H2 1324   3.131   2.302   5.924 -1.4746  0.7252 -0.6313
  454TIP3   OH2 1325   5.151   2.491   2.479  0.3393  0.1715 -0.1858
  454TIP3    H1 1326   5.209   2.524   2.547 -1.3581  1.9446  0.4783
  454TIP3    H2 1327   5.094   2.428   2.524 -0.7523  1.3096  0.0850
  455TIP3   OH2 1328   5.403   2.289   0.210 -0.4856  0.9240 -0.3919
  455TIP3    H1 1329   5.453   2.262   0.133 -0.4642  0.3402 -0.1767
  455TIP3    H2 1330   5.466   2.289   0.282 -0.7731  0.2615 -0.1344
  456TIP3   OH2 1331   5.436   2.929   4.273 -0.1210 -0.1868 -0.5995
  456TIP3    H1 1332   5.454   2.898   4.362  3.4178  1.6073 -0.4832
  456TIP3    H2 1333   5.425   3.023   4.282  1.0540  0.1386 -2.0628
  457TIP3   OH2 1334   6.038   6.290   2.545 -0.4239  0.3996 -0.5672
  457TIP3    H1 1335   6.102   6.263   2.611  0.5656  0.8717 -1.3010
  457TIP3    H2 1336   5.994   6.365   2.584  2.4909  2.8968 -1.6348
  458TIP3   OH2 1337   3.746   3.470   0.374 -0.4064  0.1053  0.2565
  458TIP3    H1 1338   3.778   3.443   0.460 -1.0397  0.3885  0.5907
  458TIP3    H2 1339   3.690   3.398   0.345  0.5223 -0.4006 -0.3375
  459TIP3   OH2 1340   4.049   6.021   5.763  0.0697  0.0971 -0.2216
  459TIP3    H1 1341   4.053   6.114   5.740  0.4170  0.2386  0.3823
  459TIP3    H2 1342   4.041   6.020   5.859  0.2269 -0.4932 -0.2092
  460TIP3   OH2 1343   3.876   5.377   4.668  0.0801 -0.1842  0.9544
  460TIP3    H1 1344   3.830   5.434   4.606  2.1390 -0.9902 -1.4863
  460TIP3    H2 1345   3.853   5.412   4.754 -0.8993  2.6313 -0.3153
  461TIP3   OH2 1346   0.534   4.759   0.513 -0.2294  0.3122  0.3084
  461TIP3    H1 1347   0.539   4.703   0.591 -0.1972  1.2436  0.9886
  461TIP3    H2 1348   0.542   4.698   0.440  1.2443 -0.4350  1.0409
  462TIP3   OH2 1349   6.904   5.950   0.969  0.4477 -0.5643 -0.0717
  462TIP3    H1 1350   6.960   6.010   0.920  0.3107  0.7513  1.3209
  462TIP3    H2 1351   6.956   5.870   0.977  1.3221 -0.0528 -0.4881
  463TIP3   OH2 1352   0.810   5.758   2.652 -0.0426 -0.3541  0.3015
  463TIP3    H1 1353   0.733   5.797   2.610 -0.3727 -0.4672  0.7886
  463TIP3    H2 1354   0.842   5.827   2.711  0.3342 -0.2469 -0.0196
  464TIP3   OH2 1355   6.446   0.559   4.172 -0.2974  1.2018 -0.0876
  464TIP3    H1 1356   6.474   0.625   4.236 -1.0047  0.0225  1.4862
  464TIP3    H2 1357   6.450   0.476   4.219 -1.2266  0.3448 -1.4490
  465TIP3   OH2 1358   5.188   1.567   2.107 -0.3793 -0.0005 -0.1876
  465TIP3    H1 1359   5.119   1.542   2.168  0.6927 -3.2578 -0.1170
  465TIP3    H2 1360   5.149   1.557   2.020 -0.4206 -0.4871 -0.1162
  466TIP3   OH2 1361   0.622   5.088   0.921 -0.0930  0.0555  0.2989
  466TIP3    H1 1362   0.702   5.114   0.875  0.9959 -2.2967  0.6658
  466TIP3    H2 1363   0.653   5.063   1.008 -1.1617 -1.2177  0.3343
  467TIP3   OH2 1364   2.175   4.756   4.422 -0.3432  0.0294  0.1621
  467TIP3    H1 1365   2.131   4.796   4.347  2.4411 -0.9757 -2.1732
  467TIP3    H2 1366   2.106   4.708   4.468 -2.3751  1.6850 -0.9834
  468TIP3   OH2 1367   1.309   3.906   3.453  0.8308  0.1070  0.2286
  468TIP3    H1 1368   1.358   3.843   3.506 -0.6193  0.1364  1.7045
  468TIP3    H2 1369   1.316   3.988   3.501 -1.9968 -0.2518  1.4892
  469TIP3   OH2 1370   4.544   0.282   1.727 -0.0304 -0.3730 -0.1586
  469TIP3    H1 1371   4.450   0.266   1.736 -0.1612  1.0697  1.5176
  469TIP3    H2 1372   4.578   0.280   1.817  1.7321 -1.7821 -0.7964
  470TIP3   OH2 1373   4.293   6.437   5.696  0.3393  0.1061 -0.3236
  470TIP3    H1 1374   4.230   6.475   5.756 -1.7183  0.2916 -2.4418
  470TIP3    H2 1375   4.374   6.485   5.712 -1.0794  2.6089 -0.1299
  471TIP3   OH2 1376   0.456   1.200   3.491 -0.4282 -0.4120 -0.4252
  471TIP3    H1 1377   0.481   1.114   3.455 -0.5905 -0.2440 -0.9496
  471TIP3    H2 1378   0.507   1.263   3.440 -2.1384 -0.0332 -1.7840
  472TIP3   OH2 1379   1.399   0.016   4.378  0.1702  0.0230  0.3165
  472TIP3    H1 1380   1.342  -0.031   4.439  0.0794 -0.3412 -0.0427
  472TIP3    H2 1381   1.341   0.044   4.308  0.4850 -0.6227 -0.2102
  473TIP3   OH2 1382   5.351   3.132   1.707 -0.0394  0.3007  0.2832
  473TIP3    H1 1383   5.302   3.103   1.630 -0.5471 -0.3956  0.8510
  473TIP3    H2 1384   5.366   3.225   1.693 -1.4796  0.5164  0.0563
  474TIP3   OH2 1385   3.336   2.975   0.649 -0.3022 -0.1482  0.9919
  474TIP3    H1 1386   3.297   3.015   0.571 -0.2111 -0.5966  0.7149
  474TIP3    H2 1387   3.401   2.914   0.615  1.8863  1.7744  1.4484
  475TIP3   OH2 1388   0.085   1.191   4.003  0.4078  0.3789  0.4767
  475TIP3    H1 1389  -0.009   1.208   3.999  0.3905  0.9319  2.3953
  475TIP3    H2 1390   0.093   1.096   3.994 -0.2552  0.3970 -0.4286
  476TIP3   OH2 1391   4.900   5.745   3.989 -0.1155 -0.2689 -0.6144
  476TIP3    H1 1392   4.867   5.830   4.019  1.2101  1.1261 -2.8454
  476TIP3    H2 1393   4.950   5.711   4.064 -1.8998  0.1626  0.8364
  477TIP3   OH2 1394   7.153   3.823   3.745  0.0528  0.3953 -0.2383
  477TIP3    H1 1395   7.085   3.880   3.780  0.1662  0.7310 -0.5642
  477TIP3    H2 1396   7.106   3.757   3.694 -0.0823  0.1570  0.1899
  478TIP3   OH2 1397   5.294   3.261   0.918  0.3280  0.2733 -0.6209
  478TIP3    H1 1398   5.213   3.242   0.966 -0.3940  1.9321 -1.1110
  478TIP3    H2 1399   5.312   3.353   0.937  0.8258  0.5617 -2.3689
  479TIP3   OH2 1400   0.452   6.230   4.373 -0.1416 -0.2744 -0.1788
  479TIP3    H1 1401   0.527   6.171   4.365 -1.2265 -1.6394 -0.7796
  479TIP3    H2 1402   0.402   6.216   4.293  0.1937  2.4617 -0.9715
  480TIP3   OH2 1403   2.410   1.022   1.828 -0.0246 -0.1450  0.3826
  480TIP3    H1 1404   2.397   1.117   1.831  0.5663 -0.0542  0.1703
  480TIP3    H2 1405   2.469   1.004   1.901 -0.0901 -0.3398  0.3862
  481TIP3   OH2 1406   5.392   1.793   5.476 -0.1495 -0.1311  0.0442
  481TIP3    H1 1407   5.389   1.881   5.514 -0.0855  0.0899 -0.4486
  481TIP3    H2 1408   5.416   1.736   5.548 -0.7567  0.1784  0.4975
  482TIP3   OH2 1409   3.728   5.173   3.829 -0.0452  0.2823 -0.0514
  482TIP3    H1 1410   3.723   5.222   3.911  3.5217  0.8215  0.0114
  482TIP3    H2 1411   3.785   5.098   3.849 -0.4728 -0.5012 -1.6350
  483TIP3   OH2 1412   1.154   5.067   1.961  0.1548 -0.2302 -0.1871
  483TIP3    H1 1413   1.097   5.106   2.027  0.8747  0.5646 -0.0129
  483TIP3    H2 1414   1.100   5.062   1.882 -0.2140  0.3552  0.0172
  484TIP3   OH2 1415   3.655   6.003   1.808 -0.1348  0.1104  0.2203
  484TIP3    H1 1416   3.736   5.957   1.829 -1.2178 -0.6844  3.1493
  484TIP3    H2 1417   3.668   6.092   1.838 -0.3505 -0.0220  0.7086
  485TIP3   OH2 1418   6.940   1.388   2.553 -0.9637  0.7956 -0.2981
  485TIP3    H1 1419   6.995   1.449   2.602 -0.9717  0.1144  0.5920
  485TIP3    H2 1420   6.920   1.433   2.471  0.1752  1.4206 -0.2526
  486TIP3   OH2 1421   1.202   0.326   1.276 -0.0085  0.2540  0.0173
  486TIP3    H1 1422   1.181   0.298   1.187  1.7049 -0.0957 -0.3228
  486TIP3    H2 1423   1.291   0.361   1.269 -0.5618  2.0307  1.2247
  487TIP3   OH2 1424   5.102   5.421   3.211  0.5383 -0.9176 -0.2259
  487TIP3    H1 1425   5.007   5.425   3.203  0.3431 -1.7623  1.2820
  487TIP3    H2 1426   5.118   5.344   3.265  2.0464 -0.3395  0.1948
  488TIP3   OH2 1427   1.550   1.783   2.402  0.4424  0.0164 -0.5743
  488TIP3    H1 1428   1.606   1.815   2.332  0.5853  0.6232 -0.1972
  488TIP3    H2 1429   1.600   1.713   2.443  0.8932  0.4849 -0.3067
  489TIP3   OH2 1430   2.736   2.830   0.361 -0.5473  0.2141 -0.1886
  489TIP3    H1 1431   2.679   2.839   0.438  1.2832 -0.1517  1.2959
  489TIP3    H2 1432   2.769   2.918   0.344  0.7379 -0.0124  0.8885
  490TIP3   OH2 1433   4.699   6.195   2.849 -0.1197  0.3023  0.6000
  490TIP3    H1 1434   4.734   6.207   2.760  1.1527  0.5285  1.1034
  490TIP3    H2 1435   4.754   6.127   2.888 -0.7318  0.1282  1.1867
  491TIP3   OH2 1436   2.504   1.612   4.529  0.4707 -0.3118 -0.4901
  491TIP3    H1 1437   2.544   1.645   4.609 -0.1019  0.1253 -0.3819
  491TIP3    H2 1438   2.523   1.678   4.463 -0.3044  0.0427 -0.3729
  492TIP3   OH2 1439   3.747   2.138   1.362 -0.2836 -0.8077  0.4012
  492TIP3    H1 1440   3.678   2.203   1.377  0.5998  0.5451 -1.0956
  492TIP3    H2 1441   3.701   2.054   1.360 -1.7399 -0.0419  0.3925
  493TIP3   OH2 1442   5.290   4.696  -0.015  0.2295 -0.4661 -0.4122
  493TIP3    H1 1443   5.295   4.785   0.022 -0.7086 -0.1959 -0.9109
  493TIP3    H2 1444   5.364   4.650   0.024  0.5958  0.4736  0.0328
  494TIP3   OH2 1445   0.057   2.707   1.134 -0.6189 -0.4348  0.4072
  494TIP3    H1 1446   0.131   2.735   1.188 -0.4989  0.1413 -0.0481
  494TIP3    H2 1447   0.008   2.646   1.190 -0.1889 -0.2812  0.9584
  495TIP3   OH2 1448   6.923   3.764   4.108  0.1907  0.1425  0.2781
  495TIP3    H1 1449   6.980   3.835   4.079  0.1670  0.7066  1.5890
  495TIP3    H2 1450   6.835   3.795   4.089  0.2209  0.0076 -0.1089
  496TIP3   OH2 1451   3.433   5.833   2.671  0.2942 -0.0987 -0.1323
  496TIP3    H1 1452   3.358   5.794   2.627 -1.6165  0.2242  2.5821
  496TIP3    H2 1453   3.455   5.910   2.618 -0.1574 -1.1441 -1.8963
  497TIP3   OH2 1454   2.694   2.078   1.440 -0.5878 -0.4024  0.9726
  497TIP3    H1 1455   2.755   2.036   1.380  0.3387  1.1098  0.8066
  497TIP3    H2 1456   2.723   2.169   1.445 -2.2178  0.1284  1.6889
  498TIP3   OH2 1457   3.883   1.162   4.164  0.1183  0.0062 -0.0555
  498TIP3    H1 1458   3.872   1.227   4.233 -0.2161 -1.3309  1.1951
  498TIP3    H2 1459   3.807   1.105   4.171  0.9645 -1.2060 -0.3570
  499TIP3   OH2 1460   6.505   0.041   4.897 -0.2819  0.0013 -0.9533
  499TIP3    H1 1461   6.529  -0.020   4.967 -0.8605  0.6209 -0.1989
  499TIP3    H2 1462   6.588   0.065   4.857 -0.0466 -1.2951 -1.2755
  500TIP3   OH2 1463   0.592   5.995   3.133 -0.2255 -0.1134  0.1743
  500TIP3    H1 1464   0.545   5.943   3.067  0.1319  1.3174 -1.2681
  500TIP3    H2 1465   0.529   6.062   3.160 -0.2531 -0.4884  1.0607
  501TIP3   OH2 1466   3.474   6.568   5.294 -0.9943  0.2870 -0.4460
  501TIP3    H1 1467   3.475   6.660   5.319 -2.2213  0.5479 -1.2649
  501TIP3    H2 1468   3.408   6.528   5.350  0.8754 -0.5496  1.2703
  502TIP3   OH2 1469   3.847   2.802   2.954 -0.3594 -0.0870 -0.4206
  502TIP3    H1 1470   3.879   2.891   2.940  0.5052 -0.1103  1.2095
  502TIP3    H2 1471   3.916   2.745   2.921 -0.2678 -0.1433 -0.1362
  503TIP3   OH2 1472   4.352   3.109   0.805 -0.6079  0.5096 -0.1063
  503TIP3    H1 1473   4.268   3.071   0.779 -0.3258 -0.6108  0.5562
  503TIP3    H2 1474   4.398   3.038   0.850  1.1349  0.7649 -1.3651
  504TIP3   OH2 1475   3.520   5.561   5.119 -0.3195  0.1312 -0.2102
  504TIP3    H1 1476   3.539   5.655   5.110 -1.7136  0.5604  0.9072
  504TIP3    H2 1477   3.601   5.523   5.152  1.0651  0.4811 -2.9229
  505TIP3   OH2 1478   4.764   3.465   5.838 -0.2048  0.1860  0.4573
  505TIP3    H1 1479   4.787   3.507   5.755  0.0916 -0.5084  0.1847
  505TIP3    H2 1480   4.846   3.464   5.888 -0.0312 -0.7462  0.1623
  506TIP3   OH2 1481   5.942   2.461   4.868  0.0077 -0.2492  0.0882
  506TIP3    H1 1482   5.968   2.550   4.893  0.0873  0.2214 -1.5727
  506TIP3    H2 1483   5.862   2.446   4.917 -0.4833  1.0863 -0.2412
  507TIP3   OH2 1484   5.152   0.443   4.173 -0.6113  0.0261 -0.0418
  507TIP3    H1 1485   5.228   0.435   4.116 -0.0857  1.0722  0.4788
  507TIP3    H2 1486   5.130   0.353   4.196 -0.8938 -0.4180 -1.9414
  508TIP3   OH2 1487   0.498   3.952   4.154  0.3298  0.4904 -0.1800
  508TIP3    H1 1488   0.499   3.883   4.088 -0.9793  0.2680  0.0126
  508TIP3    H2 1489   0.577   4.003   4.136  1.0534 -0.7487 -0.6334
  509TIP3   OH2 1490   1.188   6.596   2.740  0.3848  0.1129  0.1101
  509TIP3    H1 1491   1.281   6.614   2.729  0.3095  0.5585  0.1670
  509TIP3    H2 1492   1.181   6.501   2.736  0.8935  0.0541  0.5442
  510TIP3   OH2 1493   0.460   1.736   5.616  0.0743  0.7505 -0.1593
  510TIP3    H1 1494   0.520   1.686   5.671 -1.8534  0.0699  1.4583
  510TIP3    H2 1495   0.373   1.705   5.642 -0.9742  0.4179 -3.6338
  511TIP3   OH2 1496   6.910   1.594   5.195  0.0342  0.0088 -0.1703
  511TIP3    H1 1497   6.876   1.666   5.142 -1.1589  0.2034  0.7990
  511TIP3    H2 1498   6.871   1.608   5.282 -0.9734 -2.2957 -0.1775
  512TIP3   OH2 1499   6.397   1.159   4.999 -0.1625 -0.5926  0.3587
  512TIP3    H1 1500   6.425   1.197   5.083 -1.1157  1.5995 -0.2393
  512TIP3    H2 1501   6.479   1.132   4.957  0.4670 -0.2803  1.3460
  513TIP3   OH2 1502   5.867   3.982   0.611 -0.1176  0.2006 -0.0875
  513TIP3    H1 1503   5.848   4.065   0.655 -1.4532 -0.7097  1.1285
  513TIP3    H2 1504   5.794   3.925   0.634 -0.2781 -0.7092 -2.5513
  514TIP3   OH2 1505   4.641   2.265   4.792  0.1272 -0.6510  0.2175
  514TIP3    H1 1506   4.640   2.354   4.829 -1.5278  0.0297 -1.2770
  514TIP3    H2 1507   4.727   2.258   4.749  0.1372  0.3933  0.0290
  515TIP3   OH2 1508   2.971   3.014   5.649 -0.1287  0.0092 -0.0769
  515TIP3    H1 1509   2.909   2.986   5.582 -0.6081  1.1714 -0.1604
  515TIP3    H2 1510   2.960   2.951   5.720  1.2136 -1.9158 -1.5031
  516TIP3   OH2 1511   5.500   5.948   2.771 -0.1970 -0.4832 -0.0681
  516TIP3    H1 1512   5.410   5.955   2.802 -0.9909  1.6887 -2.4845
  516TIP3    H2 1513   5.505   6.008   2.697  3.3268 -0.3558  0.0809
  517TIP3   OH2 1514   4.349   3.419   0.054 -0.1179  0.3972  0.0258
  517TIP3    H1 1515   4.350   3.338   0.002  2.2699  1.4795 -1.7934
  517TIP3    H2 1516   4.294   3.479   0.004  0.3490  0.7389 -0.0858
  518TIP3   OH2 1517   1.078   3.039   0.825  0.1358  0.3371 -0.1279
  518TIP3    H1 1518   0.991   2.999   0.836 -0.0381  0.5234 -0.7863
  518TIP3    H2 1519   1.134   2.967   0.797  0.4926 -0.0565  1.5181
  519TIP3   OH2 1520   5.621   2.110   0.295  0.3131  0.0645  0.0526
  519TIP3    H1 1521   5.702   2.132   0.248  0.3439  0.0462  0.0969
  519TIP3    H2 1522   5.649   2.102   0.387  0.0323  1.3045  0.2631
  520TIP3   OH2 1523   2.451   4.065   4.453 -0.1901 -0.5802  0.3198
  520TIP3    H1 1524   2.520   4.038   4.513  1.0401  1.9939  0.2034
  520TIP3    H2 1525   2.482   4.037   4.367 -0.8883 -2.2901  0.5944
  521TIP3   OH2 1526   1.108   3.951   4.465  0.2408 -0.7749 -0.4703
  521TIP3    H1 1527   1.152   3.983   4.387  2.5655  0.0941  1.0808
  521TIP3    H2 1528   1.155   3.871   4.488  0.3573 -0.4023  0.6486
  522TIP3   OH2 1529   0.221   4.549   1.256  0.1664 -0.1123 -0.5236
  522TIP3    H1 1530   0.167   4.572   1.181  0.2861  1.0001 -0.2830
  522TIP3    H2 1531   0.181   4.469   1.291  0.0479 -0.5711 -1.6937
  523TIP3   OH2 1532   5.630   0.330   0.171 -0.0382  0.1035  0.2476
  523TIP3    H1 1533   5.684   0.278   0.111  0.5297  0.7828  0.1658
  523TIP3    H2 1534   5.669   0.314   0.257 -0.6672 -0.6294  0.4102
  524TIP3   OH2 1535   3.982   0.363   5.230  0.2560 -0.1618  0.0966
  524TIP3    H1 1536   3.957   0.395   5.144  0.6580 -0.6769 -0.2195
  524TIP3    H2 1537   3.981   0.268   5.222  0.9490 -0.2104  0.4617
  525TIP3   OH2 1538   2.245   3.030   4.269  0.6398 -0.2181  0.9747
  525TIP3    H1 1539   2.197   3.086   4.208 -0.0470 -1.0852  0.6953
  525TIP3    H2 1540   2.178   2.971   4.305  1.1308 -0.1009  2.1408
  526TIP3   OH2 1541   7.213   2.370   3.641 -0.2901 -0.1598  0.2605
  526TIP3    H1 1542   7.140   2.418   3.681 -0.1939 -0.8127  1.2549
  526TIP3    H2 1543   7.278   2.437   3.621 -0.7692  0.3078  0.2604
  527TIP3   OH2 1544   6.193   1.618   0.128 -0.2006  0.0092  0.1651
  527TIP3    H1 1545   6.281   1.605   0.163  0.2406  0.0932 -0.8815
  527TIP3    H2 1546   6.205   1.676   0.052 -1.1712  0.1039  0.0646
  528TIP3   OH2 1547   6.615   4.110   3.752 -0.1066 -0.2390 -0.0132
  528TIP3    H1 1548   6.676   4.115   3.678  0.4401  0.1861  0.4558
  528TIP3    H2 1549   6.550   4.178   3.734 -0.6848 -0.9568 -0.7138
  529TIP3   OH2 1550   4.038   1.294   0.425  0.1430  0.4891 -0.4997
  529TIP3    H1 1551   3.953   1.254   0.445 -0.1474  1.1151 -0.4529
  529TIP3    H2 1552   4.097   1.259   0.492 -0.1921  0.4473 -0.2249
  530TIP3   OH2 1553   1.051   5.600   5.176 -0.0935 -0.4414 -0.7272
  530TIP3    H1 1554   1.082   5.683   5.212  0.6627 -1.3355  0.7683
  530TIP3    H2 1555   0.986   5.569   5.239 -0.4768 -0.9262 -1.3466
  531TIP3   OH2 1556   6.400   4.349   0.775  0.2775 -0.0863  0.2130
  531TIP3    H1 1557   6.468   4.380   0.835 -0.5767 -0.0980  1.2079
  531TIP3    H2 1558   6.441   4.355   0.689  1.0337  1.3551  0.6279
  532TIP3   OH2 1559   5.460   2.412   1.294  0.4988 -0.0969  0.3163
  532TIP3    H1 1560   5.416   2.467   1.359 -0.3037 -0.4266  0.0607
  532TIP3    H2 1561   5.460   2.465   1.214 -0.4166 -0.5188  0.0276
  533TIP3   OH2 1562   4.998   1.768   1.669 -0.7300  0.2881 -0.3431
  533TIP3    H1 1563   5.092   1.785   1.664 -0.4506 -1.4354 -2.3540
  533TIP3    H2 1564   4.987   1.712   1.746 -0.0334  0.0768 -0.3923
  534TIP3   OH2 1565   2.309   6.124   1.695 -0.5030  0.1337 -0.1920
  534TIP3    H1 1566   2.329   6.150   1.785 -1.4735 -0.2541  0.1541
  534TIP3    H2 1567   2.383   6.155   1.644  0.6155 -0.6455  0.8988
  535TIP3   OH2 1568   3.445   0.259   4.727 -0.7367 -0.5933 -0.1733
  535TIP3    H1 1569   3.423   0.270   4.635 -0.0362 -0.9428 -0.3912
  535TIP3    H2 1570   3.482   0.343   4.754  0.6765 -1.0182 -0.6937
  536TIP3   OH2 1571   2.436   5.294   0.059 -0.1205 -0.5919  0.3653
  536TIP3    H1 1572   2.471   5.363   0.115 -1.7056 -0.6538  1.5056
  536TIP3    H2 1573   2.349   5.276   0.095 -0.3364 -2.1402 -0.8318
  537TIP3   OH2 1574   5.713   5.866   3.851  0.0276  0.0845  0.1567
  537TIP3    H1 1575   5.655   5.833   3.920  2.3629 -0.5305  1.9665
  537TIP3    H2 1576   5.759   5.789   3.819  0.2252  0.6190 -0.8839
  538TIP3   OH2 1577   3.085   3.984   0.045 -0.5787 -0.2706 -0.0683
  538TIP3    H1 1578   3.115   3.905   0.090 -0.8764 -0.7664 -0.7207
  538TIP3    H2 1579   3.055   4.042   0.115 -1.5403 -1.2384  0.3461
  539TIP3   OH2 1580   7.024   2.496   3.980 -0.0986  0.0188 -0.0343
  539TIP3    H1 1581   7.047   2.485   3.888 -0.3398  3.1130 -0.5472
  539TIP3    H2 1582   7.102   2.466   4.027  0.1770 -1.2358 -1.2010
  540TIP3   OH2 1583   1.878   3.190   3.873  0.6134 -0.2930  0.5354
  540TIP3    H1 1584   1.829   3.270   3.894 -0.2491 -0.2318 -1.4714
  540TIP3    H2 1585   1.905   3.202   3.782 -1.8585 -3.3743 -0.7716
  541TIP3   OH2 1586   6.323   1.053   4.143  0.5674  0.4976  0.0806
  541TIP3    H1 1587   6.233   1.023   4.135  0.6866  0.5908 -2.2571
  541TIP3    H2 1588   6.319   1.123   4.208 -1.3958  1.6301 -1.1532
  542TIP3   OH2 1589   4.464   6.595   4.193  0.0986 -0.0570 -0.1077
  542TIP3    H1 1590   4.432   6.513   4.155  0.5041  0.4360 -1.5775
  542TIP3    H2 1591   4.539   6.619   4.138  0.3856  0.9595  0.7048
  543TIP3   OH2 1592   4.810   3.325   2.780 -0.1870 -0.2301 -0.8417
  543TIP3    H1 1593   4.780   3.234   2.773  1.0761 -0.7344 -0.0812
  543TIP3    H2 1594   4.905   3.318   2.787 -0.1372  1.0984  0.0774
  544TIP3   OH2 1595   3.872   2.447   5.488  0.0421 -0.2890  0.3448
  544TIP3    H1 1596   3.850   2.534   5.522  1.4318  1.1389 -2.1320
  544TIP3    H2 1597   3.797   2.422   5.435  1.1910  1.3516 -2.2601
  545TIP3   OH2 1598   6.887   2.926   1.828  0.3111 -0.0145  0.2968
  545TIP3    H1 1599   6.948   2.896   1.761  0.1155 -1.6653  0.8093
  545TIP3    H2 1600   6.807   2.949   1.780 -0.1493 -2.0658  0.0038
  546TIP3   OH2 1601   3.306   0.888   4.039 -0.1187  0.2845  0.2285
  546TIP3    H1 1602   3.252   0.876   3.961 -0.9406  1.2908  0.6265
  546TIP3    H2 1603   3.323   0.982   4.043  0.5437  0.1502  0.8660
  547TIP3   OH2 1604   0.151   1.653   3.248  0.3511 -0.0224  0.2110
  547TIP3    H1 1605   0.109   1.598   3.314  1.5608  1.5790  2.4379
  547TIP3    H2 1606   0.092   1.650   3.172 -2.7111  0.5204  2.4112
  548TIP3   OH2 1607   4.976   2.314   4.025 -0.3371 -0.1212 -0.3850
  548TIP3    H1 1608   5.009   2.224   4.033 -2.4879 -0.9487 -0.1980
  548TIP3    H2 1609   5.028   2.364   4.089  0.5093 -1.3327 -0.0780
  549TIP3   OH2 1610   4.025   0.071   0.541 -0.0569 -0.0798  0.7723
  549TIP3    H1 1611   3.951   0.114   0.498 -0.3026 -0.3822  0.8884
  549TIP3    H2 1612   4.032  -0.014   0.498  1.0523  0.4420 -0.1426
  550TIP3   OH2 1613   4.793   1.694   1.102  0.1540  0.4760 -0.7097
  550TIP3    H1 1614   4.761   1.624   1.045  0.4079  0.1850 -0.4981
  550TIP3    H2 1615   4.781   1.660   1.190  0.5289  0.5893 -0.6140
  551TIP3   OH2 1616   6.410   2.805   3.924  1.0067  0.4478 -0.1113
  551TIP3    H1 1617   6.399   2.869   3.854  1.2447  0.1862 -0.3872
  551TIP3    H2 1618   6.501   2.776   3.916  0.0773 -2.3945 -2.1121
  552TIP3   OH2 1619   5.191   3.295   1.396 -0.4938  0.0652  0.2329
  552TIP3    H1 1620   5.240   3.375   1.418  1.3207 -0.4149 -1.7469
  552TIP3    H2 1621   5.099   3.319   1.411 -0.0156  2.5233 -0.2284
  553TIP3   OH2 1622   5.497   4.248   2.123 -0.3857 -0.6145 -0.2801
  553TIP3    H1 1623   5.491   4.309   2.196  1.1744 -2.6448  1.7022
  553TIP3    H2 1624   5.535   4.299   2.052 -0.0624  0.9525  0.9507
  554TIP3   OH2 1625   1.679   5.176   2.936 -0.4024  0.7389 -0.5058
  554TIP3    H1 1626   1.645   5.101   2.886  0.3630  0.2953 -0.3756
  554TIP3    H2 1627   1.747   5.139   2.992 -1.2832  1.2238  0.9274
  555TIP3   OH2 1628   2.871   4.088   1.904  0.6129 -0.1423 -0.7557
  555TIP3    H1 1629   2.874   4.070   1.810  2.4909  0.0273 -0.7696
  555TIP3    H2 1630   2.950   4.140   1.920  0.7271 -0.8283  1.0559
  556TIP3   OH2 1631   3.121   3.977   0.557 -0.1502  0.1060  0.2376
  556TIP3    H1 1632   3.163   3.906   0.509 -0.2636  0.0193  0.2662
  556TIP3    H2 1633   3.157   4.057   0.519  0.7556  0.0295  0.8913
  557TIP3   OH2 1634   2.994   2.921   1.632 -0.1539  0.5522  0.2809
  557TIP3    H1 1635   3.071   2.899   1.684  0.0354  0.5192 -0.0072
  557TIP3    H2 1636   3.022   2.996   1.579 -0.0503  0.0450 -0.4107
  558TIP3   OH2 1637   5.642   3.651   1.096 -0.1705  0.3929  0.6402
  558TIP3    H1 1638   5.637   3.559   1.123  1.9933  0.2743  0.8048
  558TIP3    H2 1639   5.696   3.693   1.164 -2.9569  2.3597  1.8361
  559TIP3   OH2 1640   1.638   5.452   3.016 -0.3386 -0.3801  0.3248
  559TIP3    H1 1641   1.710   5.389   3.019  0.6536  0.7248  0.7426
  559TIP3    H2 1642   1.598   5.447   3.103  0.5059  0.3874  0.7806
  560TIP3   OH2 1643   0.903   2.515   2.039  0.1284  0.1063  0.1116
  560TIP3    H1 1644   0.814   2.509   2.074 -0.3080 -1.1408 -1.0908
  560TIP3    H2 1645   0.895   2.568   1.960 -0.0554 -1.9460 -1.3303
  561TIP3   OH2 1646   0.413   6.063   0.141  0.0969  0.0887  0.5436
  561TIP3    H1 1647   0.421   5.969   0.160  0.7393  0.1061  0.3779
  561TIP3    H2 1648   0.483   6.104   0.192  0.6027  0.3457 -0.3511
  562TIP3   OH2 1649   4.338   5.491   1.227 -0.1076 -0.2758 -0.3427
  562TIP3    H1 1650   4.305   5.401   1.227 -0.6347 -0.0950  0.6389
  562TIP3    H2 1651   4.275   5.540   1.280  0.2876  0.6318 -0.6926
  563TIP3   OH2 1652   3.909   5.127   2.328 -0.1542  0.1275  0.0485
  563TIP3    H1 1653   3.951   5.130   2.242 -0.2522  0.2003  0.0026
  563TIP3    H2 1654   3.819   5.156   2.312 -0.6003 -1.2699 -0.0643
  564TIP3   OH2 1655   2.596   6.109   4.868 -0.3241  0.5489  0.3429
  564TIP3    H1 1656   2.567   6.050   4.798  1.8674  0.9414 -0.9627
  564TIP3    H2 1657   2.572   6.196   4.837  0.4247  0.7052  0.2089
  565TIP3   OH2 1658   3.994   4.300   4.200  0.2464 -0.4512 -0.2558
  565TIP3    H1 1659   4.070   4.243   4.209  1.9662  1.6307 -0.5869
  565TIP3    H2 1660   4.023   4.384   4.237 -2.3570  0.0773  0.7919
  566TIP3   OH2 1661   7.023   5.770   2.888  0.1021  0.1605  0.6504
  566TIP3    H1 1662   7.036   5.864   2.879 -0.2763  0.0870 -1.1581
  566TIP3    H2 1663   7.041   5.751   2.980 -2.1258  2.3408  1.6328
  567TIP3   OH2 1664   3.833   4.628   4.841 -0.4080 -0.3714 -0.2052
  567TIP3    H1 1665   3.861   4.596   4.927  1.3116  1.1687 -0.1567
  567TIP3    H2 1666   3.786   4.709   4.860 -0.3964 -0.2482 -0.6997
  568TIP3   OH2 1667   6.350   1.979   4.960 -0.2772 -0.2052 -0.3665
  568TIP3    H1 1668   6.417   2.021   4.906 -1.2656  1.1458 -0.6080
  568TIP3    H2 1669   6.363   2.018   5.047 -0.6236 -0.0697 -0.3745
  569TIP3   OH2 1670   4.042   0.718   4.502 -0.0098  0.0348  0.2108
  569TIP3    H1 1671   4.031   0.757   4.416  2.1886 -0.4493 -0.3582
  569TIP3    H2 1672   4.019   0.626   4.490 -1.0020  0.2381  0.4896
  570TIP3   OH2 1673   5.024   4.998   5.659  0.3146 -0.0975  0.5911
  570TIP3    H1 1674   5.004   5.001   5.753 -0.1064 -0.6870  0.5258
  570TIP3    H2 1675   4.994   5.083   5.626  2.6077  1.0937  1.3734
  571TIP3   OH2 1676   5.294   6.244   5.311  0.6459  0.1222  0.0704
  571TIP3    H1 1677   5.359   6.212   5.248 -0.4398 -1.6912 -0.1998
  571TIP3    H2 1678   5.286   6.173   5.375 -1.7958 -0.1682 -0.4802
  572TIP3   OH2 1679   5.648   6.145   2.933 -0.3218 -0.1170  0.6084
  572TIP3    H1 1680   5.726   6.143   2.876 -1.4567  2.2718 -1.2156
  572TIP3    H2 1681   5.609   6.059   2.922 -0.5991  0.2706 -2.5893
  573TIP3   OH2 1682   1.745   5.835   0.269  0.5670  0.5279  0.8006
  573TIP3    H1 1683   1.760   5.821   0.175  0.1229 -0.1151  0.8237
  573TIP3    H2 1684   1.833   5.838   0.307  0.7422  0.5486  0.4007
  574TIP3   OH2 1685   4.670   2.317   1.053 -0.0359 -0.1463  0.0628
  574TIP3    H1 1686   4.612   2.243   1.070 -0.3369  0.5442  2.4489
  574TIP3    H2 1687   4.628   2.365   0.981 -1.8417 -0.3063  0.9571
  575TIP3   OH2 1688   3.721   4.118   0.282 -0.8584 -0.6975 -0.3080
  575TIP3    H1 1689   3.730   4.163   0.198 -0.4355 -0.4604 -0.1354
  575TIP3    H2 1690   3.672   4.180   0.337  1.0539  0.2313  0.4255
  576TIP3   OH2 1691   6.489   0.387   4.413  0.3993 -0.8117  0.2310
  576TIP3    H1 1692   6.578   0.381   4.378  0.5623 -0.2670  0.5375
  576TIP3    H2 1693   6.502   0.407   4.506 -0.0438 -0.0672  0.1406
  577TIP3   OH2 1694   3.531   6.291   2.925 -0.3945 -0.3826  0.1828
  577TIP3    H1 1695   3.445   6.292   2.968  0.3274 -0.0127  1.7084
  577TIP3    H2 1696   3.561   6.382   2.928 -0.3661 -0.3329 -1.2500
  578TIP3   OH2 1697   6.759   3.714   1.598  0.5025 -0.4379  0.3721
  578TIP3    H1 1698   6.757   3.748   1.508 -3.9927  1.3897  0.9053
  578TIP3    H2 1699   6.769   3.620   1.588 -2.1571 -0.5687 -2.3284
  579TIP3   OH2 1700   1.486   6.145   2.658  0.0360 -0.3758 -0.6901
  579TIP3    H1 1701   1.422   6.157   2.588 -0.7598 -0.6700 -0.0451
  579TIP3    H2 1702   1.534   6.066   2.633  1.1685  0.6776 -1.9167
  580TIP3   OH2 1703   3.722   0.136   4.362  0.5134  0.5671 -0.1705
  580TIP3    H1 1704   3.628   0.122   4.354  0.5847  0.6306 -1.2350
  580TIP3    H2 1705   3.755   0.135   4.272  1.4629  1.0195  0.1535
  581TIP3   OH2 1706   1.902   3.239   2.539 -0.0214 -0.0367  0.5687
  581TIP3    H1 1707   1.855   3.322   2.534  2.0720  1.2011  0.7210
  581TIP3    H2 1708   1.910   3.210   2.448 -0.0733  0.3009  0.4583
  582TIP3   OH2 1709   2.800   5.528   4.705 -0.3326 -0.0323  0.1911
  582TIP3    H1 1710   2.729   5.514   4.642 -0.5181  1.3527  0.0392
  582TIP3    H2 1711   2.787   5.461   4.771 -0.6676 -0.9621 -0.7951
  583TIP3   OH2 1712   3.533   6.139   5.448  0.3020  0.6572 -0.2349
  583TIP3    H1 1713   3.502   6.150   5.358  1.0691  2.4060 -0.3256
  583TIP3    H2 1714   3.476   6.071   5.485  0.6041 -0.7933 -2.2991
  584TIP3   OH2 1715   2.624   2.600   0.626  0.0844  0.3176  0.0650
  584TIP3    H1 1716   2.712   2.606   0.664  0.7080  0.3748 -1.3191
  584TIP3    H2 1717   2.608   2.506   0.617 -0.0975  0.3030  0.5431
  585TIP3   OH2 1718   2.502   2.720   4.477 -0.2868  0.0262 -0.1812
  585TIP3    H1 1719   2.587   2.760   4.495  0.3724 -1.1737 -0.5532
  585TIP3    H2 1720   2.461   2.777   4.412  0.4017  0.3938 -0.2948
  586TIP3   OH2 1721   4.594   4.230   4.340 -0.0349 -0.0428  0.5041
  586TIP3    H1 1722   4.557   4.220   4.252  0.5442  1.9648 -0.0245
  586TIP3    H2 1723   4.640   4.313   4.337  1.5893 -0.8228  2.1907
  587TIP3   OH2 1724   0.995   3.367   0.421  0.3694 -0.1901  0.1458
  587TIP3    H1 1725   1.019   3.275   0.430 -0.0095 -0.1901  1.4626
  587TIP3    H2 1726   1.023   3.407   0.503  0.2874  0.8184 -0.3037
  588TIP3   OH2 1727   3.969   4.492   1.372  0.2555 -0.4779 -0.6100
  588TIP3    H1 1728   3.956   4.517   1.281  0.4141  0.0109 -0.5061
  588TIP3    H2 1729   4.049   4.539   1.398 -0.0913 -0.1809 -0.0658
  589TIP3   OH2 1730   5.390   2.681   2.066  0.0475  0.4346  0.6296
  589TIP3    H1 1731   5.404   2.767   2.027  1.2220 -0.3535 -0.7900
  589TIP3    H2 1732   5.334   2.635   2.003  1.8697 -0.8206 -0.1463
  590TIP3   OH2 1733   4.891   6.088   4.498 -0.5151  0.1220 -0.3563
  590TIP3    H1 1734   4.960   6.119   4.557 -0.8733  0.7469 -0.2631
  590TIP3    H2 1735   4.893   6.148   4.424  1.0880 -1.6444 -1.8653
  591TIP3   OH2 1736   1.495   1.548   3.310  0.0204 -0.2575  0.0327
  591TIP3    H1 1737   1.441   1.511   3.380  0.0713  1.5142  1.0641
  591TIP3    H2 1738   1.445   1.531   3.230 -0.9642 -0.6409  0.7066
  592TIP3   OH2 1739   2.013   4.660   0.499  0.2825 -0.0633 -0.2442
  592TIP3    H1 1740   2.048   4.718   0.567 -2.0155  0.3618  0.6762
  592TIP3    H2 1741   1.963   4.593   0.547 -1.7539  0.4852 -1.4443
  593TIP3   OH2 1742   5.938   2.984   4.271  0.2218 -0.1618  0.2984
  593TIP3    H1 1743   5.992   3.060   4.294  0.5516 -0.2503 -0.1694
  593TIP3    H2 1744   5.855   2.998   4.317 -0.1035  0.9960 -0.6030
  594TIP3   OH2 1745   1.577   3.449   4.707 -0.3980 -0.5525 -0.1754
  594TIP3    H1 1746   1.547   3.481   4.622  1.6463  0.6354 -0.5034
  594TIP3    H2 1747   1.649   3.507   4.731  0.3121 -2.0254  1.4934
  595TIP3   OH2 1748   1.067   2.444   2.503 -0.3509  0.3718 -0.2240
  595TIP3    H1 1749   1.086   2.457   2.411  0.0201 -1.0271 -0.3706
  595TIP3    H2 1750   1.062   2.532   2.540  3.3816  0.9678 -0.7676
  596TIP3   OH2 1751   2.189   2.058   4.996  0.1844 -0.3044 -0.0164
  596TIP3    H1 1752   2.096   2.053   5.017  0.4832  0.0156  1.5409
  596TIP3    H2 1753   2.212   2.150   5.013  0.8380 -0.4419 -0.1361
  597TIP3   OH2 1754   3.936   0.174   0.277  0.0006 -0.4272 -0.2603
  597TIP3    H1 1755   4.008   0.118   0.248 -0.2666 -0.3409 -1.1487
  597TIP3    H2 1756   3.863   0.114   0.292 -0.1808 -0.3732 -0.8663
  598TIP3   OH2 1757   7.153   3.428   5.176  0.6003 -0.6091 -0.2313
  598TIP3    H1 1758   7.222   3.487   5.206  0.9161 -1.9350  1.8367
  598TIP3    H2 1759   7.191   3.382   5.102  1.3785 -0.2379 -0.0691
  599TIP3   OH2 1760   5.887   6.120   2.792 -0.6331 -0.4437 -0.0239
  599TIP3    H1 1761   5.901   6.030   2.762 -0.1839 -1.1681  2.1521
  599TIP3    H2 1762   5.975   6.153   2.812 -0.7841  0.5382 -0.8832
  600TIP3   OH2 1763   2.032   2.845   2.428 -0.0154  0.0350 -0.6745
  600TIP3    H1 1764   2.040   2.808   2.340  0.2333 -0.1970 -0.5560
  600TIP3    H2 1765   1.990   2.775   2.479 -3.3484  1.3349 -1.3687
  601TIP3   OH2 1766   3.790   2.180   5.606  0.5516 -0.2265  0.1215
  601TIP3    H1 1767   3.811   2.128   5.528  1.5883 -0.6963  0.7022
  601TIP3    H2 1768   3.808   2.270   5.580  0.9982 -0.3915 -0.1561
  602TIP3   OH2 1769   3.613   5.540   3.187 -0.4905 -0.6741  0.1261
  602TIP3    H1 1770   3.667   5.598   3.240 -0.4864 -1.6828  1.2623
  602TIP3    H2 1771   3.665   5.460   3.178 -1.3248 -1.2519  0.3045
  603TIP3   OH2 1772   4.219   1.637   3.633 -0.1659 -0.0109  0.1049
  603TIP3    H1 1773   4.272   1.608   3.707 -0.2957  1.4307  0.7980
  603TIP3    H2 1774   4.254   1.722   3.610 -0.2325 -0.3664 -1.4228
  604TIP3   OH2 1775   7.075   1.915   4.823 -0.1318 -0.1700  0.0388
  604TIP3    H1 1776   7.087   1.820   4.833  1.6134 -0.0750 -0.7181
  604TIP3    H2 1777   7.098   1.931   4.731  1.0079  1.1536  0.5222
  605TIP3   OH2 1778   5.687   4.172   2.624  0.0382 -0.1066  0.3337
  605TIP3    H1 1779   5.670   4.230   2.698 -1.3922 -0.0624  0.0053
  605TIP3    H2 1780   5.600   4.140   2.598  0.6812 -1.5254 -0.1973
  606TIP3   OH2 1781   0.391   3.655   4.423  1.0029 -0.0934 -0.0958
  606TIP3    H1 1782   0.401   3.665   4.328  0.6602  0.7100 -0.0533
  606TIP3    H2 1783   0.302   3.684   4.441  0.3021 -2.2193  0.2088
  607TIP3   OH2 1784   4.486   1.964   3.396 -0.4062 -0.0409  0.2198
  607TIP3    H1 1785   4.511   2.048   3.433 -0.5606 -0.4817  1.3779
  607TIP3    H2 1786   4.452   1.984   3.309 -0.0656  1.0352  0.3262
  608TIP3   OH2 1787   5.496   6.151   2.580 -0.1043 -0.5203 -0.3920
  608TIP3    H1 1788   5.576   6.204   2.583 -0.9543  0.8238 -0.2966
  608TIP3    H2 1789   5.427   6.211   2.611 -1.0530 -1.8149  0.0765
  609TIP3   OH2 1790   1.712   5.040   5.594  0.2276  0.6711  0.4050
  609TIP3    H1 1791   1.633   5.017   5.546  0.5412  3.5340 -1.7816
  609TIP3    H2 1792   1.692   5.020   5.685 -0.7452 -4.1630 -0.6314
  610TIP3   OH2 1793   0.505   4.315   4.947  0.2056 -0.0332 -0.1623
  610TIP3    H1 1794   0.569   4.246   4.964  1.9544  1.4432 -0.4185
  610TIP3    H2 1795   0.548   4.395   4.979 -1.9029  0.9011  0.4961
  611TIP3   OH2 1796   6.655   4.703   1.716  0.0804  0.0373  0.0103
  611TIP3    H1 1797   6.655   4.633   1.649 -0.0960 -1.4723  1.5208
  611TIP3    H2 1798   6.696   4.662   1.792 -0.7722  1.3524  1.2066
  612TIP3   OH2 1799   6.464   5.449   2.389 -0.1322  0.4578  0.0071
  612TIP3    H1 1800   6.518   5.415   2.318  1.1079  0.7132  0.7892
  612TIP3    H2 1801   6.407   5.376   2.413  1.0834 -0.4282  0.3161
  613TIP3   OH2 1802   5.708   1.394   5.667 -0.1016  0.4905  0.3522
  613TIP3    H1 1803   5.790   1.423   5.627 -0.5060 -1.2771 -1.9805
  613TIP3    H2 1804   5.734   1.360   5.753  1.4892  0.7108 -0.0068
  614TIP3   OH2 1805   6.718   1.391   3.794  0.0375 -0.2816  0.0053
  614TIP3    H1 1806   6.751   1.478   3.771  1.0089 -0.6218  0.0597
  614TIP3    H2 1807   6.657   1.369   3.724  0.7242 -0.0641 -0.6734
  615TIP3   OH2 1808   0.352   3.333   4.271  0.1556  0.1335 -0.1719
  615TIP3    H1 1809   0.363   3.421   4.236 -1.0691  0.9329  1.3321
  615TIP3    H2 1810   0.262   3.331   4.303 -0.1283 -1.9691 -0.9463
  616TIP3   OH2 1811   1.734   0.425   4.072 -0.7129  0.3631 -0.4008
  616TIP3    H1 1812   1.646   0.408   4.106 -0.8210  1.4919 -0.0807
  616TIP3    H2 1813   1.728   0.406   3.979 -0.6699 -1.8437 -0.0172
  617TIP3   OH2 1814   5.303   5.602   4.185 -0.4488  0.1976 -0.2573
  617TIP3    H1 1815   5.305   5.578   4.278  0.4545 -0.3076 -0.3903
  617TIP3    H2 1816   5.214   5.583   4.157 -0.3492 -1.0032  0.1708
  618TIP3   OH2 1817   4.595   3.377   1.060 -0.0825 -0.0791  0.0201
  618TIP3    H1 1818   4.557   3.427   1.133 -1.9462  0.8178 -1.4627
  618TIP3    H2 1819   4.553   3.291   1.066  2.1346 -1.1241  1.7913
  619TIP3   OH2 1820   7.098   1.545   1.270  0.2303 -0.4339 -0.3130
  619TIP3    H1 1821   7.095   1.457   1.234  0.7635  1.1841 -4.9333
  619TIP3    H2 1822   7.185   1.577   1.248 -0.8811  2.1182 -1.4242
  620TIP3   OH2 1823   2.460   5.570   2.336 -0.2987  0.4824  0.3813
  620TIP3    H1 1824   2.454   5.601   2.245 -2.8476  3.5988  1.4086
  620TIP3    H2 1825   2.550   5.589   2.362 -0.0295  1.2334 -1.0004
  621TIP3   OH2 1826   5.777   4.772   1.511  0.5445  0.1373 -0.2451
  621TIP3    H1 1827   5.712   4.756   1.580  1.1756 -0.4587  0.2361
  621TIP3    H2 1828   5.834   4.840   1.547  0.4772  0.3076 -0.4602
  622TIP3   OH2 1829   1.303   2.196   0.751  0.3555 -0.0697 -0.1164
  622TIP3    H1 1830   1.210   2.180   0.736 -0.0299  2.6710 -1.2176
  622TIP3    H2 1831   1.324   2.269   0.693  3.0426 -0.1571  0.6395
  623TIP3   OH2 1832   4.512   4.970   1.754 -0.6030  0.0960 -0.1672
  623TIP3    H1 1833   4.489   4.882   1.783 -0.2927  0.0040 -0.1968
  623TIP3    H2 1834   4.491   5.026   1.828  0.2393 -0.1428  0.2584
  624TIP3   OH2 1835   1.161   5.732   2.292  0.2220  0.1101 -0.4828
  624TIP3    H1 1836   1.084   5.722   2.237 -0.0599 -0.8991  0.0850
  624TIP3    H2 1837   1.134   5.793   2.361 -0.3188 -0.8199  0.1468
  625TIP3   OH2 1838   4.127   1.381   2.840 -0.0579  0.0274 -0.0318
  625TIP3    H1 1839   4.068   1.340   2.903 -1.7136  0.1259 -1.4420
  625TIP3    H2 1840   4.108   1.474   2.847 -0.9322 -0.0342 -1.2785
  626TIP3   OH2 1841   0.483   5.941   2.860 -0.4627 -0.0679  0.1640
  626TIP3    H1 1842   0.415   6.005   2.841 -0.3886 -0.8422 -3.2889
  626TIP3    H2 1843   0.438   5.856   2.858  0.0530 -0.3827  1.1618
  627TIP3   OH2 1844   4.393   5.729   1.767  0.1689 -0.1547 -0.5336
  627TIP3    H1 1845   4.458   5.750   1.699  0.5509  0.8377  0.1195
  627TIP3    H2 1846   4.309   5.750   1.727  0.4726  1.8047 -0.2500
  628TIP3   OH2 1847   1.143   2.320   4.162  0.3610 -0.3784 -0.4044
  628TIP3    H1 1848   1.209   2.390   4.168  1.0969 -1.0449 -0.4944
  628TIP3    H2 1849   1.118   2.302   4.252  0.3938 -0.2015 -0.3608
  629TIP3   OH2 1850   2.081   6.123   1.282 -0.2439 -0.5417  0.3537
  629TIP3    H1 1851   2.000   6.161   1.315  0.4970  0.0765  1.5060
  629TIP3    H2 1852   2.141   6.125   1.356  2.1527  2.7771 -1.4525
  630TIP3   OH2 1853   0.455   1.721   5.073 -0.1245  0.1857  0.1287
  630TIP3    H1 1854   0.443   1.754   4.984  2.0872 -0.3848 -0.4593
  630TIP3    H2 1855   0.448   1.798   5.129  1.5539  1.1440 -0.8845
  631TIP3   OH2 1856   4.091   3.814   5.824 -0.1847  0.3346 -0.3116
  631TIP3    H1 1857   4.107   3.728   5.786 -2.6265  0.0937 -0.9353
  631TIP3    H2 1858   4.096   3.800   5.919 -0.1875 -0.4080 -0.4163
  632TIP3   OH2 1859   4.518   2.018   0.166 -0.4970 -0.0711 -0.1506
  632TIP3    H1 1860   4.567   2.032   0.247  0.8787 -0.1512 -0.9488
  632TIP3    H2 1861   4.584   2.000   0.100 -1.6085 -0.2036 -1.2724
  633TIP3   OH2 1862   0.460   0.661   2.320  0.9293 -0.6522 -0.0448
  633TIP3    H1 1863   0.552   0.680   2.305  1.1012 -0.1956  1.4842
  633TIP3    H2 1864   0.460   0.592   2.387  0.1738 -1.5613 -0.9463
  634TIP3   OH2 1865   6.298   1.695   3.635  0.0251  0.1930 -0.0681
  634TIP3    H1 1866   6.210   1.677   3.667  0.5844  0.1712  1.5456
  634TIP3    H2 1867   6.286   1.719   3.543 -1.7717  1.1783  0.3849
  635TIP3   OH2 1868   0.685   2.676   0.807 -0.2881 -0.1617  0.1940
  635TIP3    H1 1869   0.744   2.670   0.882  0.5461 -1.3569 -0.5067
  635TIP3    H2 1870   0.641   2.591   0.804 -1.3083  0.3566  0.1067
  636TIP3   OH2 1871   1.867   2.940   5.306 -0.0593 -0.0196  0.1382
  636TIP3    H1 1872   1.962   2.941   5.300  0.0406 -0.5733  1.3573
  636TIP3    H2 1873   1.843   2.848   5.296 -0.3764 -0.0144  0.7540
  637TIP3   OH2 1874   4.631   1.378   2.969 -0.1589 -0.0936 -0.4079
  637TIP3    H1 1875   4.616   1.300   3.022  0.2615  0.0645 -0.0579
  637TIP3    H2 1876   4.553   1.431   2.984  0.1437  0.1408  0.3905
  638TIP3   OH2 1877   4.781   0.988   1.696 -0.4820  0.2634  0.1466
  638TIP3    H1 1878   4.797   1.080   1.674  0.1010 -0.1838 -1.4537
  638TIP3    H2 1879   4.711   0.961   1.637 -0.9927 -0.2122  0.9472
  639TIP3   OH2 1880   4.748   5.552   3.885  0.0148 -0.1403  0.1371
  639TIP3    H1 1881   4.697   5.534   3.963  0.8368 -1.0624  0.4772
  639TIP3    H2 1882   4.814   5.616   3.913  0.2094 -0.3492  0.1542
  640TIP3   OH2 1883   0.195   5.138   3.065  0.3570  0.0376  0.0308
  640TIP3    H1 1884   0.138   5.063   3.085 -1.3305  0.7647 -1.7184
  640TIP3    H2 1885   0.144   5.214   3.093  1.0343  0.6492 -0.3889
  641TIP3   OH2 1886   1.690   5.307   4.436 -0.0894  0.0568 -0.3485
  641TIP3    H1 1887   1.746   5.322   4.512 -0.9565  1.2730  0.0898
  641TIP3    H2 1888   1.621   5.373   4.443 -1.6615 -1.4485 -0.8092
  642TIP3   OH2 1889   3.125   2.724   4.163 -0.4611  0.6130  0.0084
  642TIP3    H1 1890   3.101   2.637   4.193 -1.4658  0.6603 -0.6078
  642TIP3    H2 1891   3.102   2.782   4.235  1.9587  0.2266  1.2091
  643TIP3   OH2 1892   3.645   5.133   2.959  0.8287  0.1904  0.0595
  643TIP3    H1 1893   3.561   5.169   2.929  1.4145  1.0412 -0.6094
  643TIP3    H2 1894   3.633   5.038   2.954 -0.1977  0.2918  0.2759
  644TIP3   OH2 1895   5.245   5.969   5.428 -0.7907  0.1517  0.1260
  644TIP3    H1 1896   5.313   5.963   5.495 -1.2620  0.0500  0.6052
  644TIP3    H2 1897   5.176   5.911   5.459 -1.0010  0.0805 -0.4690
  645TIP3   OH2 1898   1.601   3.556   5.743  0.8984 -0.1942 -0.2544
  645TIP3    H1 1899   1.566   3.582   5.828  1.2315  0.2381 -0.2439
  645TIP3    H2 1900   1.561   3.471   5.725  2.0180 -1.0252  1.0508
  646TIP3   OH2 1901   1.407   4.152   0.305 -0.0890  0.0916  0.2447
  646TIP3    H1 1902   1.500   4.148   0.326  0.0666 -1.4941 -0.5969
  646TIP3    H2 1903   1.384   4.062   0.281 -1.9096  0.3923  0.7131
  647TIP3   OH2 1904   0.250   4.074   0.171  0.1744 -0.0573 -0.2496
  647TIP3    H1 1905   0.199   3.998   0.141  1.8611 -0.7525 -1.4946
  647TIP3    H2 1906   0.214   4.148   0.123 -0.3207 -0.3626 -0.3584
  648TIP3   OH2 1907   6.984   3.066   1.554  0.6972  0.0717  0.2327
  648TIP3    H1 1908   6.908   3.075   1.497  0.1804  1.0890  1.0524
  648TIP3    H2 1909   7.017   2.978   1.536 -1.2603 -0.7793  0.5798
  649TIP3   OH2 1910   0.416   4.212   5.714 -0.1233  0.2688  0.0972
  649TIP3    H1 1911   0.396   4.212   5.620 -0.3418 -3.9585 -0.0486
  649TIP3    H2 1912   0.331   4.227   5.756 -0.1804  1.2921 -0.3505
  650TIP3   OH2 1913   0.620   2.049   5.680 -0.3700  0.2700 -0.2101
  650TIP3    H1 1914   0.633   2.109   5.606 -0.2477  0.7405  0.1901
  650TIP3    H2 1915   0.641   2.101   5.757  3.3690 -1.2185 -0.0032
  651TIP3   OH2 1916   5.309   2.912   1.333 -0.1677 -0.2454  0.0213
  651TIP3    H1 1917   5.261   2.923   1.415 -1.7919  0.0919 -0.9166
  651TIP3    H2 1918   5.255   2.958   1.268  1.7350  0.6398 -1.0143
  652TIP3   OH2 1919   1.788   1.269   5.677 -0.0076 -0.5221 -0.2454
  652TIP3    H1 1920   1.827   1.319   5.749 -1.0082  1.9813 -1.3440
  652TIP3    H2 1921   1.862   1.246   5.621  0.3776  0.6572 -0.2483
  653TIP3   OH2 1922   7.167   2.521   0.206 -0.5263  0.2409  0.0537
  653TIP3    H1 1923   7.107   2.544   0.135 -0.0684 -0.5021 -0.5919
  653TIP3    H2 1924   7.241   2.479   0.162  0.1502  0.5255  0.9039
  654TIP3   OH2 1925   4.889   5.481   1.247 -0.2944 -1.0205 -0.0114
  654TIP3    H1 1926   4.820   5.416   1.230  0.5751 -2.3723  1.3145
  654TIP3    H2 1927   4.937   5.486   1.165 -1.0379 -1.2280 -0.4738
  655TIP3   OH2 1928   2.888   4.864   1.252 -0.5226 -0.0913  0.2242
  655TIP3    H1 1929   2.846   4.781   1.277 -0.5535 -0.0157  0.4263
  655TIP3    H2 1930   2.938   4.890   1.330 -1.5019  0.7091  0.6058
  656TIP3   OH2 1931   2.273   4.618   3.203 -0.1405 -0.2934 -0.5907
  656TIP3    H1 1932   2.249   4.619   3.296 -0.1949  2.5215 -0.5479
  656TIP3    H2 1933   2.368   4.618   3.203  0.0218 -3.8120 -0.6978
  657TIP3   OH2 1934   3.346   0.489   1.004  0.3757 -0.3861  0.1916
  657TIP3    H1 1935   3.440   0.474   0.997  0.5169  0.9243 -1.2664
  657TIP3    H2 1936   3.337   0.551   1.076  0.5778 -0.8629  0.6308
  658TIP3   OH2 1937   6.138   4.041   1.539  0.0433  0.0151 -0.2760
  658TIP3    H1 1938   6.213   4.016   1.592  0.2215 -0.8577 -0.9147
  658TIP3    H2 1939   6.095   4.110   1.589  0.0263 -0.9818  1.1615
  659TIP3   OH2 1940   1.412   3.037   4.121  0.1654 -0.0414 -0.8476
  659TIP3    H1 1941   1.322   3.065   4.107 -0.1234 -0.3368  0.3257
  659TIP3    H2 1942   1.408   2.941   4.122  0.3268 -0.0494  0.1112
  660TIP3   OH2 1943   1.576   0.177   4.509 -0.2275 -0.3647  0.5228
  660TIP3    H1 1944   1.522   0.234   4.563 -1.5278 -0.0429 -1.0383
  660TIP3    H2 1945   1.514   0.113   4.472 -0.1067  1.3511 -3.1192
  661TIP3   OH2 1946   2.343   6.475   5.165  0.0511 -0.2913 -0.5269
  661TIP3    H1 1947   2.383   6.494   5.250 -2.8302 -0.8386  1.0836
  661TIP3    H2 1948   2.398   6.406   5.127  1.9201  0.5956  0.4261
  662TIP3   OH2 1949   6.062   4.929   4.652 -0.0805  0.2829  0.0761
  662TIP3    H1 1950   5.997   4.867   4.685  0.0158  0.4214  0.5423
  662TIP3    H2 1951   6.143   4.878   4.647 -0.2955  0.0127 -0.8575
  663TIP3   OH2 1952   3.999   3.571   3.812  0.6336 -0.1048 -0.0502
  663TIP3    H1 1953   3.912   3.539   3.788  0.1800  0.5332  0.7091
  663TIP3    H2 1954   4.056   3.539   3.742  0.0019 -1.5533  0.0601
  664TIP3   OH2 1955   0.844   5.668   4.869  0.5541 -0.0688  0.5388
  664TIP3    H1 1956   0.768   5.687   4.813  0.7855  0.3039  0.3493
  664TIP3    H2 1957   0.849   5.743   4.929  0.7058 -0.1479  0.6258
  665TIP3   OH2 1958   3.164   5.487   0.680  0.0546 -0.6115  0.2066
  665TIP3    H1 1959   3.086   5.539   0.659  0.5196 -1.3471 -4.4507
  665TIP3    H2 1960   3.130   5.402   0.709 -0.8774 -0.3303 -0.0442
  666TIP3   OH2 1961   0.571   0.038   5.446 -0.1688 -0.9410  0.5732
  666TIP3    H1 1962   0.562  -0.053   5.420  0.4124 -0.8373 -0.0350
  666TIP3    H2 1963   0.483   0.066   5.468 -0.6842 -1.1149 -1.0840
  667TIP3   OH2 1964   5.296   5.162   4.247  0.4459 -0.4229  0.5687
  667TIP3    H1 1965   5.245   5.084   4.228  1.3427 -0.7869 -0.4895
  667TIP3    H2 1966   5.360   5.134   4.313  1.1231 -0.7612 -0.2061
  668TIP3   OH2 1967   3.904   0.160   4.574 -0.0109 -0.3149 -0.7222
  668TIP3    H1 1968   3.834   0.129   4.517 -2.3630  0.2587  1.6933
  668TIP3    H2 1969   3.897   0.255   4.571  0.3230 -0.2639 -0.0231
  669TIP3   OH2 1970   1.018   3.079   3.540 -0.7926  0.1383  0.2271
  669TIP3    H1 1971   0.984   3.051   3.625  1.6429  0.2804  1.3409
  669TIP3    H2 1972   1.023   3.174   3.545 -0.0978  0.1109  0.1632
  670TIP3   OH2 1973   5.075   5.349   0.044  0.0808  0.5439 -0.4356
  670TIP3    H1 1974   5.060   5.295  -0.034  0.8364 -0.4285  0.0745
  670TIP3    H2 1975   5.002   5.329   0.102  0.0451  0.5347 -0.4834
  671TIP3   OH2 1976   2.506   4.805   3.695  0.3306  0.2992  0.3801
  671TIP3    H1 1977   2.599   4.829   3.686  0.9430 -2.3253 -1.3686
  671TIP3    H2 1978   2.459   4.878   3.655  1.7479  0.9053 -0.2502
  672TIP3   OH2 1979   1.246   4.990   4.860  0.5883  0.1076 -0.3371
  672TIP3    H1 1980   1.185   4.992   4.786 -1.1648  1.7940  1.0609
  672TIP3    H2 1981   1.200   4.942   4.928  2.0347 -1.0961 -0.1530
  673TIP3   OH2 1982   3.068   5.282   2.121  0.7365 -0.1927  0.2790
  673TIP3    H1 1983   3.058   5.375   2.140  0.4271 -0.3163  0.7553
  673TIP3    H2 1984   3.144   5.276   2.064 -1.0946  0.6928 -2.4883
  674TIP3   OH2 1985   5.478   5.117   5.853  0.5549 -0.2446 -0.4105
  674TIP3    H1 1986   5.470   5.106   5.758 -1.7611 -0.4681 -0.2299
  674TIP3    H2 1987   5.537   5.192   5.864 -1.0638  1.3693 -2.0844
  675TIP3   OH2 1988   0.532   6.474   0.923  0.1907 -0.3463  0.0570
  675TIP3    H1 1989   0.621   6.443   0.940  0.0646 -0.3249  0.7870
  675TIP3    H2 1990   0.503   6.509   1.007 -1.4204 -2.5941  0.5074
  676TIP3   OH2 1991   3.204   2.798   1.261 -0.0020 -0.1738 -0.0194
  676TIP3    H1 1992   3.157   2.714   1.263  1.3127 -0.9253 -0.0341
  676TIP3    H2 1993   3.153   2.851   1.200 -1.0138 -0.8505  0.1924
  677TIP3   OH2 1994   4.581   4.249   5.821  0.2638 -0.7043 -0.1459
  677TIP3    H1 1995   4.636   4.252   5.899  1.3933  0.6761 -0.9323
  677TIP3    H2 1996   4.548   4.159   5.817 -1.7784 -0.2688  3.1662
  678TIP3   OH2 1997   4.922   3.500   5.224 -0.0769 -0.2382  0.5743
  678TIP3    H1 1998   5.003   3.450   5.213  0.1059  0.3156 -0.8716
  678TIP3    H2 1999   4.949   3.579   5.272  0.3369  0.1251 -0.2351
  679TIP3   OH2 2000   6.394   0.393   5.848 -0.2294  0.0019 -0.8196
  679TIP3    H1 2001   6.339   0.321   5.817 -0.6385  0.0039 -0.1047
  679TIP3    H2 2002   6.476   0.351   5.874 -0.2820 -0.1359 -0.8751
  680TIP3   OH2 2003   2.019   6.284   5.326  0.5544  0.2458 -0.4757
  680TIP3    H1 2004   2.052   6.333   5.402 -1.8984  2.5670 -0.7378
  680TIP3    H2 2005   2.018   6.348   5.255 -2.1192 -0.2836 -1.0458
  681TIP3   OH2 2006   6.913   4.765   3.556  0.0982  0.1824 -0.4749
  681TIP3    H1 2007   6.874   4.719   3.481  0.9664 -0.9608 -0.2710
  681TIP3    H2 2008   7.003   4.781   3.528  0.5229 -0.5438  0.4244
  682TIP3   OH2 2009   7.083   2.999   3.402 -0.0413  0.1823 -0.1448
  682TIP3    H1 2010   7.050   2.992   3.312 -0.5366 -0.7762  0.0935
  682TIP3    H2 2011   7.160   2.942   3.404 -0.0381  0.1926  0.0407
  683TIP3   OH2 2012   0.497   6.249   5.376  0.0282  0.2920 -0.2534
  683TIP3    H1 2013   0.407   6.221   5.358  0.2549 -1.1065  0.6839
  683TIP3    H2 2014   0.550   6.203   5.311  0.2209 -0.1131  0.1837
  684TIP3   OH2 2015   5.844   2.398   1.028  0.4397  0.1096  0.5573
  684TIP3    H1 2016   5.803   2.361   1.106  0.0233  0.4779  0.5184
  684TIP3    H2 2017   5.937   2.377   1.037  0.0347 -2.3447 -0.2405
  685TIP3   OH2 2018   7.119   4.353   2.413 -0.0320 -0.4000  0.2063
  685TIP3    H1 2019   7.143   4.350   2.320  0.6557  0.0543  0.3665
  685TIP3    H2 2020   7.041   4.408   2.416  0.3571  0.1739 -0.0236
  686TIP3   OH2 2021   4.458   5.318   5.077 -0.1086 -0.4550 -0.4063
  686TIP3    H1 2022   4.536   5.268   5.051 -0.8974 -1.9601  0.0089
  686TIP3    H2 2023   4.385   5.259   5.062 -0.9892  0.1537  1.1907
  687TIP3   OH2 2024   1.689   0.934   4.846 -0.6844  0.4693 -0.3838
  687TIP3    H1 2025   1.599   0.920   4.874 -0.4356  2.5570  1.7533
  687TIP3    H2 2026   1.687   1.019   4.800  0.2674  0.8428  0.2317
  688TIP3   OH2 2027   7.031   5.601   5.328 -0.2137 -0.0826 -0.4696
  688TIP3    H1 2028   6.962   5.540   5.300 -0.8690  1.0687 -1.4305
  688TIP3    H2 2029   7.006   5.626   5.416  0.5686 -1.8919  0.3200
  689TIP3   OH2 2030   4.531   6.223   4.242  0.1766  0.1845 -0.6957
  689TIP3    H1 2031   4.503   6.268   4.162  0.9825  0.2965 -0.9299
  689TIP3    H2 2032   4.620   6.193   4.222 -0.0194 -0.7462 -0.2265
  690TIP3   OH2 2033   7.194   2.081   4.330  0.1335 -0.1019 -0.3198
  690TIP3    H1 2034   7.225   2.030   4.255  1.1957 -0.2828  0.2278
  690TIP3    H2 2035   7.135   2.146   4.292  0.0057 -0.7201 -1.2115
  691TIP3   OH2 2036   1.322   3.260   5.796 -0.1323 -0.2699 -0.2889
  691TIP3    H1 2037   1.268   3.272   5.718  0.4331 -0.9330 -0.7899
  691TIP3    H2 2038   1.406   3.228   5.763  1.4984  3.0707  0.2304
  692TIP3   OH2 2039   6.936   2.558   5.073 -0.2768 -0.2400  0.2383
  692TIP3    H1 2040   6.868   2.530   5.011  0.0946 -1.3646  0.3247
  692TIP3    H2 2041   6.962   2.645   5.041 -0.9097 -0.3054 -0.4980
  693TIP3   OH2 2042   5.577   5.013   4.441 -0.0333  0.0958 -0.4407
  693TIP3    H1 2043   5.595   5.070   4.366 -0.7090  0.3609 -0.4046
  693TIP3    H2 2044   5.562   4.926   4.402 -1.0392  0.3674 -0.6786
  694TIP3   OH2 2045   2.162   1.287   0.125  0.2895 -0.3649  0.0966
  694TIP3    H1 2046   2.076   1.320   0.100 -0.2048 -1.1332  0.7454
  694TIP3    H2 2047   2.154   1.266   0.218  1.3858  0.1932  0.3318
  695TIP3   OH2 2048   2.195   3.707   4.366  0.0345 -0.0180 -0.0131
  695TIP3    H1 2049   2.223   3.752   4.286 -1.4635  1.7561  0.3909
  695TIP3    H2 2050   2.231   3.759   4.437  0.1101 -0.7421  0.4957
  696TIP3   OH2 2051   3.296   3.758   1.233  0.1460  0.2155 -0.2737
  696TIP3    H1 2052   3.345   3.808   1.298  0.7732 -1.3394  0.5202
  696TIP3    H2 2053   3.225   3.815   1.206  1.3374  1.8462 -0.0828
  697TIP3   OH2 2054   6.058   4.326   4.995 -0.0925 -0.7996 -0.1993
  697TIP3    H1 2055   5.975   4.355   5.032  0.2281  0.5798 -0.5226
  697TIP3    H2 2056   6.117   4.401   5.005  0.4470 -0.9230 -2.1015
  698TIP3   OH2 2057   3.995   6.152   1.170  0.5248  0.4288  0.2352
  698TIP3    H1 2058   3.912   6.126   1.211  1.2908 -0.2944  1.4080
  698TIP3    H2 2059   3.970   6.186   1.085 -0.8949 -0.8141  0.1041
  699TIP3   OH2 2060   1.824   1.665   4.291  0.5216 -0.2397  0.0517
  699TIP3    H1 2061   1.907   1.710   4.275 -0.3566  1.1659 -0.6841
  699TIP3    H2 2062   1.848   1.592   4.349  1.9099  1.5100  1.8208
  700TIP3   OH2 2063   6.078   0.309   2.800  0.5968 -0.3279  0.1203
  700TIP3    H1 2064   6.006   0.316   2.862 -0.1618  2.5119 -0.9450
  700TIP3    H2 2065   6.036   0.305   2.714  1.6961 -0.4097 -0.4350
  701TIP3   OH2 2066   0.359   5.905   3.678  0.8788 -0.0819 -0.1031
  701TIP3    H1 2067   0.414   5.899   3.756  1.7825  1.0689 -0.6328
  701TIP3    H2 2068   0.419   5.931   3.608 -0.2420  0.6427 -0.8172
  702TIP3   OH2 2069   4.853   1.896   3.408 -0.0564  0.2887  0.5879
  702TIP3    H1 2070   4.832   1.893   3.314  1.3554  0.1153  0.2511
  702TIP3    H2 2071   4.948   1.905   3.410 -0.0098 -0.3508  2.0189
  703TIP3   OH2 2072   4.009   6.094   2.720 -0.0775 -0.2497  0.1484
  703TIP3    H1 2073   4.045   6.008   2.699  0.0521 -0.2947  0.5458
  703TIP3    H2 2074   3.945   6.111   2.651 -0.7733 -1.0724  0.5687
  704TIP3   OH2 2075   2.216   5.767   1.891  0.2258  0.1267 -0.8686
  704TIP3    H1 2076   2.182   5.813   1.968  0.7650 -1.1161  0.1668
  704TIP3    H2 2077   2.143   5.766   1.829 -1.5296 -1.9880  1.0610
  705TIP3   OH2 2078   6.393   2.455   1.410  0.2488 -0.0947  0.3155
  705TIP3    H1 2079   6.414   2.539   1.370 -0.9584  0.2012  0.2721
  705TIP3    H2 2080   6.302   2.438   1.385  0.3195 -1.1791  0.7291
  706TIP3   OH2 2081   4.279   6.474   1.772  0.1133 -1.2658 -0.2962
  706TIP3    H1 2082   4.208   6.438   1.825 -0.1000 -1.9329 -1.0027
  706TIP3    H2 2083   4.264   6.568   1.771 -0.0027 -1.2681  0.6292
  707TIP3   OH2 2084   3.660   0.666   0.223 -0.4996 -0.0301  0.6751
  707TIP3    H1 2085   3.603   0.743   0.222  0.2090  0.5223  1.1679
  707TIP3    H2 2086   3.692   0.661   0.313 -0.0283 -0.5120  0.4887
  708TIP3   OH2 2087   2.433   0.979   4.979 -0.5181  0.6051  0.8147
  708TIP3    H1 2088   2.381   0.902   5.003 -0.8068  0.8493  0.9683
  708TIP3    H2 2089   2.372   1.037   4.934  0.0163  0.1293 -0.5873
  709TIP3   OH2 2090   6.953   1.879   3.733 -0.1035  0.1570 -0.0329
  709TIP3    H1 2091   6.861   1.902   3.743 -0.2074 -1.1163  3.4097
  709TIP3    H2 2092   6.999   1.963   3.729 -1.2720  0.8244  0.0962
  710TIP3   OH2 2093   5.782   0.870   2.605  0.2257  0.2992  0.0050
  710TIP3    H1 2094   5.847   0.910   2.547  0.3111  0.0592 -0.0684
  710TIP3    H2 2095   5.834   0.813   2.662  0.0114 -0.4549 -0.5295
  711TIP3   OH2 2096   1.849   5.033   1.400 -0.3479 -0.1078 -0.3591
  711TIP3    H1 2097   1.872   5.065   1.313 -2.2931 -0.6667 -1.1409
  711TIP3    H2 2098   1.901   5.086   1.460  1.6236 -0.2196 -1.8551
  712TIP3   OH2 2099   4.963   3.888   3.858 -0.4167 -0.6165 -0.8688
  712TIP3    H1 2100   4.952   3.815   3.797 -2.5680 -0.6434 -0.5218
  712TIP3    H2 2101   4.878   3.931   3.860  0.6630  1.6521 -0.6896
  713TIP3   OH2 2102   4.894   0.282   2.667 -0.6186 -0.0403  0.1642
  713TIP3    H1 2103   4.850   0.347   2.723 -1.3533 -0.3816 -0.0089
  713TIP3    H2 2104   4.851   0.290   2.583  0.7937  0.7933 -0.5255
  714TIP3   OH2 2105   1.173   4.489   2.651  0.1803 -0.2299 -0.2011
  714TIP3    H1 2106   1.144   4.398   2.647 -1.6643  0.1144  2.5531
  714TIP3    H2 2107   1.127   4.531   2.577 -0.7948 -1.1089 -0.1226
  715TIP3   OH2 2108   3.280   2.238   5.194 -0.2287 -0.5016 -0.0552
  715TIP3    H1 2109   3.220   2.306   5.163  0.2224  0.5489  1.3063
  715TIP3    H2 2110   3.365   2.263   5.159  0.0712  0.0667  1.0261
  716TIP3   OH2 2111   3.676   5.607   4.014  0.2348  0.6344  0.0987
  716TIP3    H1 2112   3.624   5.527   4.019  0.3238  0.4802 -1.1177
  716TIP3    H2 2113   3.655   5.654   4.095 -2.9375  1.2445 -0.9228
  717TIP3   OH2 2114   6.533   2.673   2.787 -0.2287 -0.3622 -0.7351
  717TIP3    H1 2115   6.447   2.633   2.777  0.0338 -1.5536  1.3611
  717TIP3    H2 2116   6.594   2.608   2.752 -0.0342 -0.4036 -0.3224
  718TIP3   OH2 2117   5.586   4.739   4.073  0.3401  0.2599 -0.0229
  718TIP3    H1 2118   5.511   4.798   4.064 -1.1301 -1.5808 -0.3783
  718TIP3    H2 2119   5.600   4.733   4.168 -1.7421 -1.4303  0.2484
  719TIP3   OH2 2120   0.089   0.068   3.908 -0.3949 -0.1847  0.2433
  719TIP3    H1 2121   0.114   0.086   3.817 -2.0293 -0.2084 -0.2548
  719TIP3    H2 2122   0.102   0.151   3.953 -0.6395  0.1483 -0.2818
  720TIP3   OH2 2123   6.125   4.348   0.676 -0.2190 -0.4105  0.4185
  720TIP3    H1 2124   6.117   4.275   0.614 -0.2849 -0.9518  1.0464
  720TIP3    H2 2125   6.215   4.378   0.665  0.5212 -2.0059  1.6630
  721TIP3   OH2 2126   7.091   3.301   0.896  0.2177  0.1644  0.2549
  721TIP3    H1 2127   7.085   3.397   0.902  1.7679  0.3318 -0.2357
  721TIP3    H2 2128   7.163   3.286   0.834 -1.1320 -1.3392 -1.0224
  722TIP3   OH2 2129   1.395   5.453   3.959  0.4569 -0.1360  0.0521
  722TIP3    H1 2130   1.410   5.411   4.043 -0.2759 -2.1286 -0.7410
  722TIP3    H2 2131   1.391   5.546   3.978 -1.0964 -0.6218  2.4505
  723TIP3   OH2 2132   6.676   4.119   5.066  0.4875 -0.3263  0.2916
  723TIP3    H1 2133   6.713   4.090   5.149 -0.0389  0.3740  0.7878
  723TIP3    H2 2134   6.620   4.193   5.090 -0.5650 -0.8310 -0.5426
  724TIP3   OH2 2135   5.699   6.822   0.057  0.7704 -0.1857 -0.1104
  724TIP3    H1 2136   5.614   6.806   0.100 -0.2595  1.3338 -1.4782
  724TIP3    H2 2137   5.710   6.746  -0.001 -0.4111  0.3125 -1.0295
  725TIP3   OH2 2138   0.138   2.369   5.277  0.2356 -0.2737 -0.1602
  725TIP3    H1 2139   0.224   2.412   5.276 -0.4137  1.0446 -0.4398
  725TIP3    H2 2140   0.159   2.276   5.263  1.5091  0.2384 -2.0646
  726TIP3   OH2 2141   4.713   6.554   4.344  0.2828 -0.3870 -0.2813
  726TIP3    H1 2142   4.640   6.599   4.301  0.1706 -0.5426 -0.2518
  726TIP3    H2 2143   4.681   6.534   4.432  0.4020 -0.3523 -0.2290
  727TIP3   OH2 2144   0.060   5.695   2.782 -0.0837  0.2156 -0.4902
  727TIP3    H1 2145  -0.020   5.652   2.814  0.8297 -0.0403  1.6953
  727TIP3    H2 2146   0.045   5.788   2.796 -0.0166  0.1637 -0.0300
  728TIP3   OH2 2147   4.040   4.975   1.551 -0.2166  0.2733  0.3892
  728TIP3    H1 2148   3.967   4.954   1.609 -0.4968  0.3958  0.0821
  728TIP3    H2 2149   4.001   5.025   1.479 -0.6380 -3.0640 -1.9727
  729TIP3   OH2 2150   6.103   0.744   0.663 -0.4182 -0.2631  0.3403
  729TIP3    H1 2151   6.156   0.824   0.659 -0.6692 -0.1542 -1.9366
  729TIP3    H2 2152   6.137   0.689   0.591 -1.8970 -1.1478  0.2756
  730TIP3   OH2 2153   6.359   2.627   5.849  0.3855 -0.1394  0.1316
  730TIP3    H1 2154   6.440   2.648   5.895  0.1081  0.0797  0.5298
  730TIP3    H2 2155   6.360   2.532   5.839  0.6034 -0.1535  0.2992
  731TIP3   OH2 2156   4.426   4.810   0.397 -0.0703 -0.0983 -0.1517
  731TIP3    H1 2157   4.384   4.883   0.443  1.2538  0.8940 -0.4699
  731TIP3    H2 2158   4.508   4.796   0.443 -0.3650 -1.5059 -0.0171
  732TIP3   OH2 2159   6.987   6.144   3.101  0.1408  0.5474  0.3450
  732TIP3    H1 2160   6.970   6.077   3.035  0.4062  0.2972  0.5256
  732TIP3    H2 2161   6.933   6.119   3.176 -1.1369  1.5318 -0.2116
  733TIP3   OH2 2162   0.626   2.508   1.729 -0.1264  0.4349 -0.2203
  733TIP3    H1 2163   0.566   2.562   1.677 -2.5692  0.5006  2.4590
  733TIP3    H2 2164   0.604   2.528   1.820  3.3119 -0.3699  0.9404
  734TIP3   OH2 2165   6.019   1.841   2.965 -0.0062  0.8691  0.6568
  734TIP3    H1 2166   6.024   1.747   2.953  1.3791  0.9477  0.4122
  734TIP3    H2 2167   5.972   1.852   3.048  0.7039 -0.0788  1.2062
  735TIP3   OH2 2168   6.862   1.309   4.764  0.4466  0.1074 -0.0597
  735TIP3    H1 2169   6.914   1.364   4.705  3.3109 -2.6467 -0.3888
  735TIP3    H2 2170   6.878   1.345   4.851  2.9835 -0.5771 -0.1674
  736TIP3   OH2 2171   1.562   6.570   0.823  0.0309 -0.7204  0.4208
  736TIP3    H1 2172   1.513   6.652   0.836 -1.6553 -1.4869 -0.8198
  736TIP3    H2 2173   1.498   6.501   0.837  0.8226 -1.7773 -0.8913
  737TIP3   OH2 2174   5.727   4.500   1.441 -0.8766 -0.1013 -0.0744
  737TIP3    H1 2175   5.632   4.512   1.441 -0.9390 -0.5536  0.8577
  737TIP3    H2 2176   5.761   4.589   1.453 -1.2005 -0.0089  0.2041
  738TIP3   OH2 2177   5.938   4.274   2.772  0.1698 -0.3970 -0.2454
  738TIP3    H1 2178   5.887   4.222   2.709  0.4526 -0.6089 -0.3021
  738TIP3    H2 2179   5.902   4.362   2.765  0.3011 -0.3808 -0.8281
  739TIP3   OH2 2180   0.690   4.531   1.150  0.2328  0.3325 -0.2692
  739TIP3    H1 2181   0.752   4.513   1.079  1.1679  0.9516  0.3648
  739TIP3    H2 2182   0.703   4.624   1.170 -0.9438  0.4787 -0.1579
  740TIP3   OH2 2183   1.331   0.153   0.992 -0.2255  0.4815  0.3422
  740TIP3    H1 2184   1.266   0.083   0.999  0.3760 -0.0631  0.5337
  740TIP3    H2 2185   1.411   0.115   1.027  0.3991  0.8816 -0.6018
  741TIP3   OH2 2186   3.025   5.354   2.653  0.6287  0.0297 -0.3461
  741TIP3    H1 2187   2.943   5.311   2.630  1.0486 -0.2486 -1.3783
  741TIP3    H2 2188   2.998   5.434   2.698 -0.1713 -0.8507  0.7979
  742TIP3   OH2 2189   6.811   6.631   5.302  0.3996 -0.0962  0.0889
  742TIP3    H1 2190   6.738   6.613   5.361 -0.2328 -0.4542 -0.7718
  742TIP3    H2 2191   6.818   6.726   5.302 -0.3191 -0.0329 -0.0966
  743TIP3   OH2 2192   2.397   4.508   5.236 -0.2968 -0.1279  0.5778
  743TIP3    H1 2193   2.302   4.491   5.231 -0.5871  1.3853  0.5582
  743TIP3    H2 2194   2.409   4.552   5.320  0.3153  0.1852  0.3276
  744TIP3   OH2 2195   0.021   0.172   4.872  0.1423 -0.4609 -0.0165
  744TIP3    H1 2196   0.069   0.228   4.812  1.8814 -0.1541  1.5618
  744TIP3    H2 2197  -0.068   0.207   4.870  0.8257  1.4075 -0.2326
  745TIP3   OH2 2198   0.535   5.200   2.189 -0.0639 -0.3530  0.0455
  745TIP3    H1 2199   0.609   5.184   2.246 -0.4737 -0.8353  0.4520
  745TIP3    H2 2200   0.480   5.263   2.236  1.1561  1.7680 -1.2116
  746TIP3   OH2 2201   5.440   1.513   2.233  0.2608  0.1710  0.1031
  746TIP3    H1 2202   5.357   1.533   2.189 -0.6501  0.1409  1.7285
  746TIP3    H2 2203   5.425   1.427   2.274  1.5569 -0.4431 -0.6365
  747TIP3   OH2 2204   7.202   1.750   3.904  0.3266  0.4860  0.4467
  747TIP3    H1 2205   7.172   1.697   3.979  0.9515 -2.2422 -1.1103
  747TIP3    H2 2206   7.160   1.835   3.917  0.3463  0.1108  3.8309
  748TIP3   OH2 2207   5.211   5.921   4.090  0.6714 -0.1803  0.2945
  748TIP3    H1 2208   5.163   5.989   4.137 -0.0080 -1.3202  1.3207
  748TIP3    H2 2209   5.165   5.840   4.111 -0.2068 -0.6862 -3.0758
  749TIP3   OH2 2210   1.421   1.601   1.106 -0.0004  0.2428  0.4529
  749TIP3    H1 2211   1.435   1.695   1.117 -1.8485  0.6585 -0.3064
  749TIP3    H2 2212   1.374   1.574   1.186 -2.2336  0.6592 -0.6449
  750TIP3   OH2 2213   5.488   6.007   0.152 -0.5208 -0.2079 -0.2509
  750TIP3    H1 2214   5.431   6.021   0.227  0.3767  0.1025  0.3931
  750TIP3    H2 2215   5.447   5.936   0.103 -2.2896  1.0438 -0.6721
  751TIP3   OH2 2216   1.625   0.762   0.735  0.0265 -0.3557  0.4674
  751TIP3    H1 2217   1.549   0.728   0.688  0.1214  0.5209 -0.3588
  751TIP3    H2 2218   1.670   0.816   0.670  0.8724 -0.1509  1.2095
  752TIP3   OH2 2219   4.184   2.963   2.642  0.6747  0.3383  0.9668
  752TIP3    H1 2220   4.188   2.887   2.700  1.2755 -1.2182 -1.0332
  752TIP3    H2 2221   4.091   2.986   2.640 -0.2122 -2.7957 -1.2954
  753TIP3   OH2 2222   3.596   3.971   5.860 -0.3082 -0.1254  0.1482
  753TIP3    H1 2223   3.616   3.877   5.859 -0.9181 -0.2717 -1.0966
  753TIP3    H2 2224   3.649   4.006   5.931 -0.3675 -1.4745  0.9081
  754TIP3   OH2 2225   6.033   1.684   3.733  0.2256 -0.7567 -0.1159
  754TIP3    H1 2226   5.979   1.637   3.797 -0.3360  0.4366  0.3280
  754TIP3    H2 2227   5.969   1.729   3.677  0.7029 -1.8760 -1.6223
  755TIP3   OH2 2228   5.883   2.241   3.947  0.2201 -0.0156  0.3103
  755TIP3    H1 2229   5.833   2.322   3.953 -1.0304 -0.6810 -0.7124
  755TIP3    H2 2230   5.845   2.184   4.013  0.2355 -0.1977  0.1649
  756TIP3   OH2 2231   3.979   1.663   1.288 -0.1312  0.6005  0.8936
  756TIP3    H1 2232   3.928   1.744   1.285  1.5730  1.7128  0.4129
  756TIP3    H2 2233   4.011   1.657   1.378 -0.1614  0.5250  0.8996
  757TIP3   OH2 2234   0.502   4.500   2.300 -0.2412  0.1570  0.2569
  757TIP3    H1 2235   0.591   4.516   2.330 -0.0244  0.5134 -0.5384
  757TIP3    H2 2236   0.453   4.578   2.326 -0.2728  0.0520  0.5118
  758TIP3   OH2 2237   0.728   0.653   0.297 -0.2043 -0.1873 -0.3060
  758TIP3    H1 2238   0.756   0.571   0.338  0.6429  0.1199 -0.2548
  758TIP3    H2 2239   0.786   0.719   0.334 -0.0291  0.2408 -1.3344
  759TIP3   OH2 2240   1.164   0.763   2.958 -0.5973  0.1659 -0.5233
  759TIP3    H1 2241   1.186   0.848   2.919 -0.3246 -0.0767 -0.9073
  759TIP3    H2 2242   1.249   0.719   2.967 -0.6476  0.2169  0.3636
  760TIP3   OH2 2243   3.854   2.287   3.446 -0.2357  0.3648  0.5357
  760TIP3    H1 2244   3.774   2.237   3.430  0.3104 -0.2714 -0.2878
  760TIP3    H2 2245   3.836   2.372   3.405 -0.3813  0.1226  0.0901
  761TIP3   OH2 2246   4.544   5.306   3.130 -0.1351 -0.7858  0.3852
  761TIP3    H1 2247   4.496   5.263   3.059  0.8819 -0.8505 -0.2861
  761TIP3    H2 2248   4.555   5.396   3.100 -1.1541 -0.3663  1.2254
  762TIP3   OH2 2249   6.045   4.146   0.476 -0.3093  0.1130  0.2695
  762TIP3    H1 2250   5.982   4.078   0.499 -0.9457  0.4590 -0.4292
  762TIP3    H2 2251   6.118   4.097   0.437  0.5001 -0.4209  2.2954
  763TIP3   OH2 2252   4.221   2.621   5.225 -0.0477  0.3295  0.3258
  763TIP3    H1 2253   4.195   2.539   5.267 -0.5773  0.0313 -0.5634
  763TIP3    H2 2254   4.314   2.631   5.248  0.5286 -1.4558 -1.0308
  764TIP3   OH2 2255   6.852   6.395   2.930  0.6006 -0.3083  0.1473
  764TIP3    H1 2256   6.783   6.401   2.864  2.4355  2.5268 -1.7328
  764TIP3    H2 2257   6.864   6.301   2.944 -1.7073 -0.9343 -1.4952
  765TIP3   OH2 2258   6.679   0.900   3.862 -0.2964  0.3520  0.2904
  765TIP3    H1 2259   6.689   0.833   3.795 -0.2318  0.8852 -0.2376
  765TIP3    H2 2260   6.768   0.924   3.887 -0.3197 -0.4046  1.1407
  766TIP3   OH2 2261   3.533   4.358   3.102  0.2668  0.2460 -0.0540
  766TIP3    H1 2262   3.438   4.355   3.086  0.4236 -1.3339 -0.8230
  766TIP3    H2 2263   3.544   4.319   3.188  0.2210  0.3769  0.0111
  767TIP3   OH2 2264   5.042   0.462   5.450  0.6433 -0.1476  0.2016
  767TIP3    H1 2265   5.065   0.542   5.496 -0.3841 -0.3690  1.1440
  767TIP3    H2 2266   5.031   0.489   5.359  0.3403  0.7724  0.5036
  768TIP3   OH2 2267   3.314   2.415   1.862 -0.0479 -0.1003 -0.0193
  768TIP3    H1 2268   3.251   2.358   1.908  2.3286 -1.3078  2.0066
  768TIP3    H2 2269   3.264   2.453   1.791 -3.0246 -1.0920  1.3655
  769TIP3   OH2 2270   1.444   0.450   4.537  0.0740  0.7264 -0.1660
  769TIP3    H1 2271   1.529   0.455   4.491  0.4140  0.0947  0.3825
  769TIP3    H2 2272   1.379   0.453   4.466  0.5795  0.3065 -0.6613
  770TIP3   OH2 2273   5.967   4.932   1.613  0.2810  0.3617  0.1712
  770TIP3    H1 2274   5.900   4.972   1.669 -1.7460 -1.3928 -0.8466
  770TIP3    H2 2275   5.986   4.997   1.547 -0.3673  0.9229  0.5286
  771TIP3   OH2 2276   2.714   1.145   2.240 -0.1706 -0.0220  0.3698
  771TIP3    H1 2277   2.768   1.105   2.309 -0.1414 -0.3552  0.1564
  771TIP3    H2 2278   2.740   1.237   2.240  2.0769 -0.5675 -1.2564
  772TIP3   OH2 2279   2.882   0.745   3.647  0.0940 -0.1763 -0.5003
  772TIP3    H1 2280   2.806   0.748   3.705  0.3205 -2.2174 -0.0516
  772TIP3    H2 2281   2.957   0.756   3.704  0.2047  0.9082 -0.8310
  773TIP3   OH2 2282   5.791   2.566   5.071 -0.3095 -0.1023  0.1826
  773TIP3    H1 2283   5.866   2.588   5.127  0.7778 -0.4029 -1.1138
  773TIP3    H2 2284   5.747   2.649   5.055 -0.1177  0.1118  0.7521
  774TIP3   OH2 2285   4.023   5.310   0.779 -0.3419  0.2444 -0.4721
  774TIP3    H1 2286   4.057   5.249   0.845 -1.8485  0.0709  0.1847
  774TIP3    H2 2287   4.081   5.299   0.704  0.1077 -1.1655  0.0534
  775TIP3   OH2 2288   2.785   2.163   4.364 -0.7438  0.6890 -0.0134
  775TIP3    H1 2289   2.712   2.198   4.414 -1.1943  1.2040 -1.0155
  775TIP3    H2 2290   2.830   2.104   4.425 -1.8694  0.5243  0.6721
  776TIP3   OH2 2291   2.622   1.803   2.980  0.6843  0.2353  0.1585
  776TIP3    H1 2292   2.715   1.788   2.994  0.6771 -0.1526 -0.1831
  776TIP3    H2 2293   2.594   1.732   2.922  0.7912  1.8863 -2.0888
  777TIP3   OH2 2294   6.689   1.811   0.562  0.3713  0.5453 -0.0193
  777TIP3    H1 2295   6.628   1.867   0.514 -0.1406 -0.0430 -0.0661
  777TIP3    H2 2296   6.633   1.745   0.603  0.6677  1.5653  2.1872
  778TIP3   OH2 2297   0.709   0.692   5.451 -0.2864 -0.6956 -0.0814
  778TIP3    H1 2298   0.626   0.673   5.408 -0.6928  0.3417  0.2255
  778TIP3    H2 2299   0.695   0.775   5.496  1.8539  1.2181 -2.6187
  779TIP3   OH2 2300   7.015   4.223   0.240 -0.0864  0.4874 -0.0265
  779TIP3    H1 2301   7.045   4.169   0.167  0.2285  1.4367 -0.6184
  779TIP3    H2 2302   6.925   4.196   0.255 -0.0341  0.0267 -0.5254
  780TIP3   OH2 2303   7.028   1.975   2.874  0.3117  0.2253  0.0016
  780TIP3    H1 2304   7.047   2.010   2.961 -1.2431  1.8180 -0.2293
  780TIP3    H2 2305   7.024   2.053   2.818  2.5914 -0.8404 -1.8363
  781TIP3   OH2 2306   4.836   3.374   5.571 -0.0214 -0.0113  0.8565
  781TIP3    H1 2307   4.741   3.364   5.578  0.1170 -0.1997  3.9460
  781TIP3    H2 2308   4.849   3.469   5.572 -0.1839  0.0932 -1.4907
  782TIP3   OH2 2309   2.653   6.203   5.595  0.0225 -0.7093  0.5055
  782TIP3    H1 2310   2.709   6.151   5.538 -0.0426 -1.8920  1.4713
  782TIP3    H2 2311   2.702   6.212   5.676  0.1934  1.1070  0.2537
  783TIP3   OH2 2312   0.892   2.508   4.565  0.2974 -0.1520  0.3834
  783TIP3    H1 2313   0.803   2.490   4.595  0.6840 -0.5556  1.3003
  783TIP3    H2 2314   0.911   2.596   4.599  0.0587  0.1657 -0.2809
  784TIP3   OH2 2315   5.585   5.446   4.495 -0.0015 -0.0123  1.1802
  784TIP3    H1 2316   5.611   5.534   4.469  1.7948 -0.9459 -0.4336
  784TIP3    H2 2317   5.651   5.420   4.559  0.0700 -0.5542  0.8875
  785TIP3   OH2 2318   4.682   3.058   5.535 -0.4632  0.7827 -0.2184
  785TIP3    H1 2319   4.761   3.080   5.486  0.6098 -1.4371  0.4126
  785TIP3    H2 2320   4.648   3.143   5.564  1.5550  1.8086 -0.6945
  786TIP3   OH2 2321   0.815   5.162   2.757  0.0904 -0.0099  0.2858
  786TIP3    H1 2322   0.793   5.070   2.768 -0.1006  0.1111  1.0322
  786TIP3    H2 2323   0.900   5.172   2.800  0.0039  0.2006  0.4126
  787TIP3   OH2 2324   2.329   0.710   4.420  0.5238  0.3456 -0.4259
  787TIP3    H1 2325   2.248   0.749   4.452  0.4660 -1.0075  1.2035
  787TIP3    H2 2326   2.365   0.664   4.495  2.4182  0.2671 -1.3330
  788TIP3   OH2 2327   5.737   1.610   4.782  0.2084  0.2053  0.5366
  788TIP3    H1 2328   5.684   1.670   4.834 -0.5935 -0.3158  0.3385
  788TIP3    H2 2329   5.744   1.652   4.696 -2.8668 -1.2553 -0.5817
  789TIP3   OH2 2330   6.107   1.816   1.800 -0.1087  0.1154  0.1959
  789TIP3    H1 2331   6.122   1.893   1.855 -0.5337  2.2381 -2.4162
  789TIP3    H2 2332   6.031   1.773   1.839 -0.7989  1.8752  0.9191
  790TIP3   OH2 2333   7.043   1.230   4.109 -0.4671 -0.1254 -0.0919
  790TIP3    H1 2334   7.022   1.225   4.202 -0.4345 -3.2921 -0.1188
  790TIP3    H2 2335   6.972   1.181   4.066  0.8296 -0.9165 -1.4226
  791TIP3   OH2 2336   4.692   1.915   4.280  0.2985 -0.3514 -0.1956
  791TIP3    H1 2337   4.657   1.910   4.191  0.6905  0.5287 -0.4171
  791TIP3    H2 2338   4.687   1.826   4.313 -1.3946 -0.3907 -0.4972
  792TIP3   OH2 2339   1.742   1.191   3.596  0.7266  0.1894  0.0693
  792TIP3    H1 2340   1.711   1.224   3.511 -0.6126  1.2237  0.9118
  792TIP3    H2 2341   1.748   1.096   3.584 -0.5073  0.2039 -0.8717
  793TIP3   OH2 2342   4.517   4.739   1.220  1.0601  0.1493 -0.0922
  793TIP3    H1 2343   4.445   4.794   1.189  0.8366 -1.0243 -1.8542
  793TIP3    H2 2344   4.580   4.800   1.258 -0.7747  1.2220  1.4071
  794TIP3   OH2 2345   1.710   3.692   2.049 -0.2856 -0.1555 -0.9727
  794TIP3    H1 2346   1.692   3.602   2.074 -0.0378 -0.1396 -0.7390
  794TIP3    H2 2347   1.805   3.700   2.054 -0.3412  0.2633 -0.5052
  795TIP3   OH2 2348   7.044   4.479   5.883  0.2304 -0.9787  0.0289
  795TIP3    H1 2349   7.104   4.507   5.814  0.1436 -0.6539  0.0867
  795TIP3    H2 2350   7.025   4.558   5.933  1.1280 -1.3903  1.0822
  796TIP3   OH2 2351   5.382   1.331   1.724  0.7627 -0.9223 -0.2925
  796TIP3    H1 2352   5.443   1.360   1.657 -0.3820  0.8910 -0.6141
  796TIP3    H2 2353   5.437   1.310   1.799  1.8501 -0.2749 -0.8860
  797TIP3   OH2 2354   1.311   3.522   4.087  0.4419 -0.0119 -0.1278
  797TIP3    H1 2355   1.219   3.527   4.114  0.4726 -1.0807  0.2221
  797TIP3    H2 2356   1.315   3.446   4.029  1.3235 -0.7199  0.8314
  798TIP3   OH2 2357   2.224   2.623   4.298 -0.0046  0.1643  0.2262
  798TIP3    H1 2358   2.178   2.645   4.379  0.0217  3.3208 -0.4959
  798TIP3    H2 2359   2.286   2.695   4.285 -0.7922  0.4230 -3.1463
  799TIP3   OH2 2360   2.174   4.867   3.123 -0.1454  0.2280  0.3759
  799TIP3    H1 2361   2.238   4.932   3.151 -2.1673  1.0057  3.8867
  799TIP3    H2 2362   2.213   4.783   3.148 -0.1133  0.6450  1.8817
  800TIP3   OH2 2363   3.788   4.035   1.050 -0.2123 -0.4562  0.0361
  800TIP3    H1 2364   3.798   4.043   0.956 -0.5008  1.9342  0.1617
  800TIP3    H2 2365   3.721   4.099   1.073  0.6382 -0.1947  1.9891
  801TIP3   OH2 2366   6.463   3.142   4.569  0.0727  0.4755  0.2124
  801TIP3    H1 2367   6.414   3.126   4.488  0.3045  0.9379 -0.0199
  801TIP3    H2 2368   6.525   3.211   4.547  0.9525 -0.2192  0.4626
  802TIP3   OH2 2369   6.391   4.917   2.329  0.1584  0.3247  0.0068
  802TIP3    H1 2370   6.357   4.828   2.337  0.1344  0.5149  4.9345
  802TIP3    H2 2371   6.319   4.974   2.356  1.1042  1.6278 -0.0941
  803TIP3   OH2 2372   4.562   2.753   4.345  0.0160 -0.2044  0.3027
  803TIP3    H1 2373   4.547   2.729   4.254  0.0346 -0.5275  0.3841
  803TIP3    H2 2374   4.654   2.729   4.361 -0.3918 -1.4798  0.8215
  804TIP3   OH2 2375   1.663   0.806   2.351 -0.3958  0.2475 -0.0391
  804TIP3    H1 2376   1.617   0.748   2.291  0.2640  0.5456 -0.8426
  804TIP3    H2 2377   1.644   0.771   2.438 -1.9055  0.2067 -0.3714
  805TIP3   OH2 2378   1.994   2.668   2.830 -0.7158  0.0712 -0.0813
  805TIP3    H1 2379   2.002   2.604   2.901 -0.1446  2.5974  2.3273
  805TIP3    H2 2380   1.913   2.715   2.849 -2.3558 -1.2208 -3.0916
  806TIP3   OH2 2381   1.016   6.160   3.093  0.0013 -0.4955 -0.1507
  806TIP3    H1 2382   1.023   6.255   3.104  1.5779 -0.6319  0.2579
  806TIP3    H2 2383   0.927   6.146   3.061 -1.5816  0.8181  3.1914
  807TIP3   OH2 2384   2.742   0.207   3.707 -0.1172 -0.0109 -0.0668
  807TIP3    H1 2385   2.766   0.297   3.688  0.5372 -0.1760 -0.0586
  807TIP3    H2 2386   2.740   0.202   3.802 -0.1827  0.0053 -0.0677
  808TIP3   OH2 2387   1.717   5.580   4.156 -0.1486 -0.2307  0.6513
  808TIP3    H1 2388   1.788   5.535   4.201 -0.5072 -0.1564  1.3024
  808TIP3    H2 2389   1.716   5.541   4.069  1.8538  1.0023 -0.0092
  809TIP3   OH2 2390   5.513   4.007   4.810  0.2439 -0.1038 -0.1763
  809TIP3    H1 2391   5.448   3.944   4.780  0.1050  0.1470 -0.4157
  809TIP3    H2 2392   5.571   3.958   4.867  0.7323 -0.6938 -1.1454
  810TIP3   OH2 2393   1.979   1.175   5.032  0.4081  0.0700  0.6933
  810TIP3    H1 2394   1.904   1.158   5.089 -0.2078 -0.0468 -0.1446
  810TIP3    H2 2395   1.973   1.268   5.011  0.9249  0.2278  1.2204
  811TIP3   OH2 2396   0.720   0.350   1.610 -0.0613 -0.0034  0.3127
  811TIP3    H1 2397   0.629   0.320   1.601  0.6060 -2.9384  1.9310
  811TIP3    H2 2398   0.736   0.349   1.704  1.6519  0.4176  0.0508
  812TIP3   OH2 2399   2.079   6.785   1.940 -0.1324 -0.0269 -0.4185
  812TIP3    H1 2400   2.093   6.740   1.856 -0.0894 -1.5828  0.3838
  812TIP3    H2 2401   2.068   6.714   2.003  1.5415  1.0675  1.2113
  813TIP3   OH2 2402   4.360   1.167   2.914 -0.3297 -0.1840 -0.4668
  813TIP3    H1 2403   4.451   1.137   2.916 -0.4254 -0.5013 -0.7600
  813TIP3    H2 2404   4.356   1.228   2.840 -0.3257 -0.0752 -0.3772
  814TIP3   OH2 2405   5.810   5.706   4.102  0.6020  0.0361  0.2855
  814TIP3    H1 2406   5.890   5.715   4.050 -0.5483  2.3127 -1.2693
  814TIP3    H2 2407   5.786   5.796   4.125 -1.4556 -0.5778  0.7663
  815TIP3   OH2 2408   0.360   4.655   5.253 -0.3511 -0.3868  0.2762
  815TIP3    H1 2409   0.332   4.612   5.172  0.2425 -0.1813 -0.0394
  815TIP3    H2 2410   0.391   4.584   5.308  1.8009 -0.2853 -0.7121
  816TIP3   OH2 2411   2.171   3.774   2.501 -0.0673  0.1105 -0.0394
  816TIP3    H1 2412   2.142   3.684   2.516  0.6332  0.1702  2.0219
  816TIP3    H2 2413   2.253   3.764   2.452 -0.3919 -0.3304 -0.5058
  817TIP3   OH2 2414   3.384   4.864   1.810  0.2546  0.6392  0.1487
  817TIP3    H1 2415   3.357   4.950   1.779 -0.8845 -0.5645 -2.4959
  817TIP3    H2 2416   3.315   4.837   1.871  1.5139  2.2240  2.4202
  818TIP3   OH2 2417   7.104   5.094   2.525 -0.1340 -0.6513 -0.4462
  818TIP3    H1 2418   7.079   5.184   2.506  0.4713 -0.8301 -2.3131
  818TIP3    H2 2419   7.133   5.096   2.617  0.7446  1.2606 -0.7129
  819TIP3   OH2 2420   1.721   4.885   3.366 -0.1579  0.3159  0.2191
  819TIP3    H1 2421   1.773   4.855   3.291  0.5403 -1.5824  1.3918
  819TIP3    H2 2422   1.744   4.978   3.376  2.0938 -0.1571 -0.0790
  820TIP3   OH2 2423   6.195   1.345   5.294  0.1022  0.5328 -0.5854
  820TIP3    H1 2424   6.219   1.436   5.276 -0.1473  0.8088  0.4185
  820TIP3    H2 2425   6.129   1.325   5.227 -1.5145  1.8370  0.5351
  821TIP3   OH2 2426   4.703   0.257   3.517  0.2641 -0.1873 -0.1810
  821TIP3    H1 2427   4.662   0.319   3.456 -0.3472  1.3499  1.6882
  821TIP3    H2 2428   4.730   0.311   3.591  3.6747 -1.5082 -0.3103
  822TIP3   OH2 2429   4.365   2.948   4.809 -0.0883 -0.5574  0.1777
  822TIP3    H1 2430   4.383   2.880   4.744  0.6604 -0.6488  0.4666
  822TIP3    H2 2431   4.355   2.900   4.891  2.1376 -0.2293  0.7061
  823TIP3   OH2 2432   6.176   4.257   2.638  0.2055 -0.6038 -0.1819
  823TIP3    H1 2433   6.102   4.271   2.697 -0.1956 -0.9188 -0.6029
  823TIP3    H2 2434   6.254   4.268   2.693 -0.0444  2.5432 -0.2776
  824TIP3   OH2 2435   0.617   2.338   1.464  0.0157 -0.3240  0.0762
  824TIP3    H1 2436   0.591   2.350   1.555 -0.6587 -2.6652  0.2570
  824TIP3    H2 2437   0.535   2.323   1.417  0.3988  0.3630 -0.8465
  825TIP3   OH2 2438   1.923   2.907   3.822  0.3213  0.7960 -0.3164
  825TIP3    H1 2439   1.840   2.884   3.781  0.2793  1.2439 -0.4958
  825TIP3    H2 2440   1.912   2.998   3.849 -0.4499 -0.0975  2.7377
  826TIP3   OH2 2441   1.243   2.937   2.997 -0.3339  0.0016 -0.1098
  826TIP3    H1 2442   1.282   2.863   2.950  0.3296 -0.3140  0.9055
  826TIP3    H2 2443   1.285   2.935   3.083  0.2209  1.9999 -0.3029
  827TIP3   OH2 2444   6.077   0.146   4.125  0.1751 -0.1455  0.4033
  827TIP3    H1 2445   6.038   0.120   4.208 -1.1069 -0.4804 -0.2709
  827TIP3    H2 2446   6.088   0.240   4.132  0.9154 -0.2890  1.2847
  828TIP3   OH2 2447   1.838   5.984   5.410  0.6809 -0.4790 -0.2832
  828TIP3    H1 2448   1.792   5.953   5.332  1.6539 -2.5881 -0.0896
  828TIP3    H2 2449   1.792   5.943   5.483  0.5797  0.4299  0.1751
  829TIP3   OH2 2450   4.010   5.563   0.489  0.0568 -0.2413 -0.2239
  829TIP3    H1 2451   3.999   5.605   0.575 -1.5757 -0.4459 -0.3032
  829TIP3    H2 2452   4.074   5.493   0.504  3.3865  2.4947 -0.1991
  830TIP3   OH2 2453   0.548   3.194   1.170  0.3150 -0.1066  0.2727
  830TIP3    H1 2454   0.548   3.107   1.129  1.3016  0.4817 -1.0498
  830TIP3    H2 2455   0.637   3.205   1.204  0.2417  0.4577  0.2951
  831TIP3   OH2 2456   4.146   2.707   4.443 -0.0815 -0.0862 -0.2477
  831TIP3    H1 2457   4.212   2.666   4.387 -0.1551  0.2538 -0.5911
  831TIP3    H2 2458   4.173   2.685   4.532  0.3289 -0.2004 -0.3987
  832TIP3   OH2 2459   0.776   0.420   5.402  0.4688  0.0818 -0.0188
  832TIP3    H1 2460   0.823   0.487   5.453 -0.0983  0.9966 -0.6635
  832TIP3    H2 2461   0.684   0.435   5.423  0.1224  1.1491 -2.0329
  833TIP3   OH2 2462   6.302   5.904   2.175 -0.3266  0.0738 -0.1520
  833TIP3    H1 2463   6.364   5.906   2.247 -0.6467  0.0285  0.1243
  833TIP3    H2 2464   6.221   5.869   2.213 -0.8975  1.2842 -0.2067
  834TIP3   OH2 2465   3.540   2.494   2.975 -0.2082 -0.8377  0.3374
  834TIP3    H1 2466   3.577   2.570   3.019  1.2229 -0.5152 -1.2766
  834TIP3    H2 2467   3.567   2.420   3.028 -1.1388 -0.2862  1.6230
  835TIP3   OH2 2468   6.308   2.613   3.474 -0.2822 -0.6017 -0.1483
  835TIP3    H1 2469   6.335   2.609   3.565 -0.8918 -1.2754  0.0121
  835TIP3    H2 2470   6.239   2.547   3.466 -1.8989  1.0392 -0.5388
  836TIP3   OH2 2471   4.277   5.219   5.710  0.2598 -0.1099  0.3776
  836TIP3    H1 2472   4.193   5.264   5.722  0.2784  0.3121 -0.8921
  836TIP3    H2 2473   4.287   5.165   5.788 -0.0600  1.6182  1.6768
  837TIP3   OH2 2474   3.587   2.957   5.181 -0.2009 -0.1030  0.3060
  837TIP3    H1 2475   3.554   3.046   5.188  1.4740  0.5758  0.0484
  837TIP3    H2 2476   3.656   2.962   5.115 -0.8049 -1.8311 -0.5297
  838TIP3   OH2 2477   1.860   4.759   5.263 -0.6852 -0.1551 -0.6409
  838TIP3    H1 2478   1.923   4.740   5.193 -0.1752 -1.4922  0.1360
  838TIP3    H2 2479   1.781   4.786   5.217 -0.0374  0.0502 -1.6900
  839TIP3   OH2 2480   0.491   5.780   4.246  0.5130 -0.4614  0.3301
  839TIP3    H1 2481   0.564   5.828   4.207  0.5412 -0.2921  0.5942
  839TIP3    H2 2482   0.530   5.700   4.280  0.4558 -0.7076 -0.1643
  840TIP3   OH2 2483   5.480   1.689   1.169 -0.0361  0.1203 -0.1488
  840TIP3    H1 2484   5.540   1.652   1.104 -0.6241 -0.3729 -0.4250
  840TIP3    H2 2485   5.393   1.677   1.131 -0.2154  3.0422 -0.8842
  841TIP3   OH2 2486   3.808   1.837   1.604  0.0706  0.1694 -0.6709
  841TIP3    H1 2487   3.836   1.747   1.592  0.3243 -0.1893  1.9550
  841TIP3    H2 2488   3.871   1.889   1.555  1.5055 -0.9621 -0.0771
  842TIP3   OH2 2489   2.751   2.011   2.792  0.1166  0.2294  0.1767
  842TIP3    H1 2490   2.833   1.962   2.796  0.3318  0.2882 -2.0522
  842TIP3    H2 2491   2.688   1.958   2.841  1.1372 -0.5405  0.6902
  843TIP3   OH2 2492   6.460   4.329   0.510  0.1572  0.4536 -0.5841
  843TIP3    H1 2493   6.501   4.403   0.465  0.4343  1.3747  1.0673
  843TIP3    H2 2494   6.367   4.336   0.489  0.1240  1.5333 -0.1354
  844TIP3   OH2 2495   1.391   1.407   3.967  0.6101 -0.2911  0.0885
  844TIP3    H1 2496   1.345   1.325   3.980  0.6973 -0.5105 -0.9467
  844TIP3    H2 2497   1.340   1.453   3.900  0.4777  0.5651  0.7607
  845TIP3   OH2 2498   3.822   5.603   0.281  0.5271 -0.4990 -0.2026
  845TIP3    H1 2499   3.832   5.694   0.253 -0.4341  0.6958  2.9281
  845TIP3    H2 2500   3.863   5.600   0.367 -0.8300 -2.6267  0.4338
  846TIP3   OH2 2501   0.945   3.116   5.652 -0.2046  0.1371 -0.1205
  846TIP3    H1 2502   0.888   3.143   5.580  0.4507  0.4607 -0.5307
  846TIP3    H2 2503   0.908   3.033   5.682 -0.8098  0.2790 -0.4625
  847TIP3   OH2 2504   1.868   0.756   1.954  0.5039  0.0512 -0.5553
  847TIP3    H1 2505   1.917   0.678   1.926  0.1799  0.2033 -1.5843
  847TIP3    H2 2506   1.776   0.730   1.948  0.3700  0.6940 -1.5095
  848TIP3   OH2 2507   0.114   5.879   4.310 -0.1917 -0.5814 -0.0003
  848TIP3    H1 2508   0.087   5.961   4.351  0.6392  0.2513 -1.0746
  848TIP3    H2 2509   0.064   5.812   4.356 -1.7302  0.6183  0.1519
  849TIP3   OH2 2510   5.634   2.808   5.037  0.2759 -0.5005  0.0258
  849TIP3    H1 2511   5.566   2.793   5.102  0.2492  0.5300  0.2420
  849TIP3    H2 2512   5.708   2.843   5.086  0.9324 -1.4920 -0.2295
  850TIP3   OH2 2513   2.187   6.676   3.256 -0.0731  0.0078 -0.6851
  850TIP3    H1 2514   2.189   6.654   3.163 -0.6712 -0.4326 -0.6001
  850TIP3    H2 2515   2.227   6.601   3.300 -1.0536 -0.4245 -0.4884
  851TIP3   OH2 2516   1.541   2.903   3.428  0.2106 -0.4159  0.2918
  851TIP3    H1 2517   1.453   2.938   3.438  1.4988  2.9298  1.2761
  851TIP3    H2 2518   1.542   2.824   3.482 -2.2513 -0.7051 -0.0103
  852TIP3   OH2 2519   5.463   5.748   5.207  0.1308  0.8094  0.3324
  852TIP3    H1 2520   5.489   5.700   5.129 -0.7817 -1.4222  1.3258
  852TIP3    H2 2521   5.543   5.793   5.236  0.7253  0.8356 -1.2721
  853TIP3   OH2 2522   1.122   6.508   5.096  0.6911  0.0438 -0.3370
  853TIP3    H1 2523   1.155   6.438   5.040 -0.0611 -0.4054 -0.2245
  853TIP3    H2 2524   1.195   6.570   5.101  1.1545 -0.4357 -0.9205
  854TIP3   OH2 2525   0.738   2.187   4.385  0.1077 -0.5266  0.2505
  854TIP3    H1 2526   0.657   2.183   4.437 -0.6981  2.2048 -0.6074
  854TIP3    H2 2527   0.715   2.144   4.303  0.8730 -3.3645  1.4039
  855TIP3   OH2 2528   5.266   3.792   1.586  0.1178  0.1462 -0.3102
  855TIP3    H1 2529   5.361   3.790   1.596  0.1844  0.1045 -0.9467
  855TIP3    H2 2530   5.245   3.713   1.536 -0.1515  0.6456 -0.9944
  856TIP3   OH2 2531   0.348   1.494   1.044  0.9115  0.1261 -0.2705
  856TIP3    H1 2532   0.280   1.428   1.031 -0.0601  1.0544 -0.0288
  856TIP3    H2 2533   0.430   1.445   1.036  0.3068 -1.8665  3.2511
  857TIP3   OH2 2534   5.293   4.391   1.719  0.0476 -0.3951  0.5292
  857TIP3    H1 2535   5.298   4.326   1.789  2.4565 -2.7884 -1.6394
  857TIP3    H2 2536   5.250   4.346   1.647  0.8654  0.7532 -0.7324
  858TIP3   OH2 2537   2.690   0.900   3.488  0.5125 -0.0593  0.7456
  858TIP3    H1 2538   2.642   0.982   3.497  1.4088  0.6122 -0.3627
  858TIP3    H2 2539   2.665   0.849   3.565 -1.9985  0.2288  0.1902
  859TIP3   OH2 2540   5.721   6.185   1.281 -0.1097 -0.0667  0.6075
  859TIP3    H1 2541   5.715   6.207   1.188 -1.0307 -0.3866  0.5750
  859TIP3    H2 2542   5.645   6.128   1.296  0.5333 -0.7373  1.3580
  860TIP3   OH2 2543   5.917   3.046   0.223 -0.3356 -0.1586 -0.1525
  860TIP3    H1 2544   5.825   3.057   0.243 -1.1751 -2.6411 -2.1437
  860TIP3    H2 2545   5.927   3.082   0.135  0.7836  0.6642  0.2748
  861TIP3   OH2 2546   1.918   4.101   3.390 -0.7587  0.1374 -0.8128
  861TIP3    H1 2547   1.956   4.054   3.316  0.4599  1.1592 -0.8745
  861TIP3    H2 2548   1.847   4.153   3.352 -0.3638  0.3917 -1.2147
  862TIP3   OH2 2549   5.577   4.427   5.476  0.2941  0.2669 -0.2947
  862TIP3    H1 2550   5.625   4.345   5.485 -1.6496 -0.9290 -0.2750
  862TIP3    H2 2551   5.544   4.426   5.386 -0.1214  0.8050 -0.1570
  863TIP3   OH2 2552   6.619   2.618   0.496  0.5019  0.2175 -0.6873
  863TIP3    H1 2553   6.616   2.528   0.463  0.0218 -0.2958  0.6824
  863TIP3    H2 2554   6.529   2.639   0.519  0.8185  0.5124  0.3537
  864TIP3   OH2 2555   1.321   1.686   0.160  0.6778  0.2237 -0.9124
  864TIP3    H1 2556   1.384   1.722   0.223  0.9153 -0.8361 -0.5048
  864TIP3    H2 2557   1.367   1.612   0.121 -0.1990 -0.3820 -0.8353
  865TIP3   OH2 2558   6.428   6.671   4.590  0.5056 -0.2039 -0.3941
  865TIP3    H1 2559   6.515   6.677   4.628 -0.3674 -1.2107  1.9993
  865TIP3    H2 2560   6.372   6.721   4.650 -0.5430  0.7542 -2.0775
  866TIP3   OH2 2561   3.065   6.624   4.934  0.1462 -0.1514  0.2328
  866TIP3    H1 2562   3.013   6.700   4.906 -0.0146  0.3294  1.7052
  866TIP3    H2 2563   3.150   6.637   4.893 -1.0899 -1.5264 -3.1492
  867TIP3   OH2 2564   6.744   6.803   0.263 -0.3717  0.5617 -0.2544
  867TIP3    H1 2565   6.824   6.843   0.229  0.6584 -1.6829 -0.6239
  867TIP3    H2 2566   6.775   6.737   0.325 -2.0626  1.3680  1.5350
  868TIP3   OH2 2567   5.951   6.601   0.690  0.1020  0.0463 -0.0157
  868TIP3    H1 2568   5.871   6.602   0.637  1.2533 -0.5846 -1.8803
  868TIP3    H2 2569   5.924   6.635   0.776 -2.1104 -0.0166 -0.6263
  869TIP3   OH2 2570   1.782   5.864   3.421  0.0310  0.1019  0.4204
  869TIP3    H1 2571   1.874   5.885   3.408 -0.1858  1.2229  0.6047
  869TIP3    H2 2572   1.745   5.860   3.333  0.4337 -1.2693  0.2954
  870TIP3   OH2 2573   3.375   4.135   5.851  0.0683  0.2009  0.1003
  870TIP3    H1 2574   3.352   4.217   5.807 -0.4397 -0.6144 -1.2150
  870TIP3    H2 2575   3.453   4.105   5.805 -1.2608 -1.3717 -1.2789
  871TIP3   OH2 2576   3.994   5.980   3.977 -0.3975 -0.5766  0.4696
  871TIP3    H1 2577   3.937   5.983   4.054 -0.3991 -0.0366  0.4524
  871TIP3    H2 2578   3.948   6.034   3.912 -0.5099 -1.2235  0.0125
  872TIP3   OH2 2579   5.461   4.078   3.251 -0.0895  0.6311 -0.9461
  872TIP3    H1 2580   5.554   4.097   3.262 -0.3750  0.9764  1.3963
  872TIP3    H2 2581   5.417   4.153   3.291 -1.4427  1.0395 -3.0433
  873TIP3   OH2 2582   6.914   1.591   2.356 -0.6524  0.3911  0.0733
  873TIP3    H1 2583   6.839   1.619   2.302 -0.3878 -0.2169 -0.6337
  873TIP3    H2 2584   6.938   1.669   2.406 -0.7102  1.0697 -0.9265
  874TIP3   OH2 2585   1.207   1.000   2.851  0.6847  0.4065  0.5554
  874TIP3    H1 2586   1.142   1.071   2.852 -0.4406 -0.5755  1.9669
  874TIP3    H2 2587   1.291   1.045   2.839 -0.0878  1.8754  0.3862
  875TIP3   OH2 2588   2.556   2.860   0.566  0.2975 -0.0405  0.1983
  875TIP3    H1 2589   2.570   2.766   0.577  1.3439  0.0553 -0.2047
  875TIP3    H2 2590   2.563   2.895   0.655 -0.0373 -0.3291  0.3431
  876TIP3   OH2 2591   2.962   0.377   2.263 -1.1323 -0.2253  0.3450
  876TIP3    H1 2592   2.881   0.344   2.223 -1.2250  0.2435  0.1391
  876TIP3    H2 2593   3.000   0.301   2.306 -0.5615 -0.9661 -1.4115
  877TIP3   OH2 2594   2.185   6.147   2.733 -0.0689 -0.4409  0.2348
  877TIP3    H1 2595   2.096   6.118   2.713 -0.3455  0.7868 -0.4147
  877TIP3    H2 2596   2.180   6.243   2.732  0.8378 -0.3261  2.2100
  878TIP3   OH2 2597   2.132   5.247   2.432  0.5209  0.2463  0.1633
  878TIP3    H1 2598   2.224   5.269   2.417  0.4087 -0.9364 -3.1453
  878TIP3    H2 2599   2.109   5.190   2.358 -3.0482  1.0137  0.5161
  879TIP3   OH2 2600   6.465   4.735   5.143 -0.0695  0.2136 -0.1225
  879TIP3    H1 2601   6.479   4.829   5.128 -1.0738  0.1068 -2.0130
  879TIP3    H2 2602   6.515   4.692   5.074 -1.7138 -0.5064 -0.9276
  880TIP3   OH2 2603   4.993   4.360   3.376  0.3567 -0.2945  0.0338
  880TIP3    H1 2604   4.970   4.282   3.427 -0.2524  0.6764  1.3294
  880TIP3    H2 2605   5.086   4.374   3.395  0.9280 -1.6198 -1.5489
  881TIP3   OH2 2606   1.685   0.800   5.807 -0.2635  0.5063  0.2368
  881TIP3    H1 2607   1.590   0.810   5.793 -0.2058  0.8761  0.0832
  881TIP3    H2 2608   1.721   0.784   5.720 -0.3943 -1.5949  0.5221
  882TIP3   OH2 2609   3.436   5.872   4.400  0.5908  0.1423  0.3008
  882TIP3    H1 2610   3.426   5.783   4.435  0.8103 -0.0290 -0.0667
  882TIP3    H2 2611   3.349   5.912   4.411 -0.3909 -1.0726 -2.1462
  883TIP3   OH2 2612   0.465   6.787   2.646 -0.0742 -0.1759 -0.3867
  883TIP3    H1 2613   0.425   6.758   2.729 -0.0343 -1.7617 -0.8909
  883TIP3    H2 2614   0.392   6.789   2.584  0.2588 -1.1691 -0.8320
  884TIP3   OH2 2615   4.761   1.392   4.430  0.0297  0.6592  0.0310
  884TIP3    H1 2616   4.795   1.349   4.351  2.4258  0.3733  1.1442
  884TIP3    H2 2617   4.683   1.340   4.453  0.9154 -1.0106 -0.5588
  885TIP3   OH2 2618   3.005   1.574   2.547  0.2782 -0.3894  0.2099
  885TIP3    H1 2619   2.992   1.661   2.510 -3.2716 -0.7020  0.3359
  885TIP3    H2 2620   3.052   1.526   2.479  0.0988  0.9584 -0.9128
  886TIP3   OH2 2621   1.174   0.436   1.812  0.2493  0.1825  0.0391
  886TIP3    H1 2622   1.079   0.447   1.804  0.3421  1.5946  0.5140
  886TIP3    H2 2623   1.195   0.364   1.753 -1.1256 -0.2123 -0.0079
  887TIP3   OH2 2624   3.806   2.390   3.961 -0.3402  0.7160 -0.3288
  887TIP3    H1 2625   3.892   2.421   3.986 -0.7702 -0.4805  3.3545
  887TIP3    H2 2626   3.822   2.329   3.889  2.0746 -0.2625  0.9202
  888TIP3   OH2 2627   2.134   4.922   4.862 -0.0745 -0.2453  0.1514
  888TIP3    H1 2628   2.123   4.944   4.769 -0.3899 -0.1005  0.2225
  888TIP3    H2 2629   2.158   4.830   4.862  1.5031  0.1360 -0.1650
  889TIP3   OH2 2630   4.753   6.579   2.267  0.9915 -0.1735 -0.4452
  889TIP3    H1 2631   4.699   6.514   2.220  0.7071  0.6204 -1.2428
  889TIP3    H2 2632   4.753   6.656   2.210  0.0763  1.0766  1.1757
  890TIP3   OH2 2633   0.329   0.711   2.932  0.1410  0.3089  0.4099
  890TIP3    H1 2634   0.281   0.754   3.002 -0.5181  2.4948 -1.2925
  890TIP3    H2 2635   0.269   0.644   2.899 -0.2199  0.4455  0.7847
  891TIP3   OH2 2636   0.703   2.968   4.215  0.2622  0.8806  0.3601
  891TIP3    H1 2637   0.624   2.947   4.264  0.7020 -1.2365  0.2260
  891TIP3    H2 2638   0.774   2.961   4.278  0.6887 -0.6028 -0.2447
  892TIP3   OH2 2639   0.198   0.266   1.916 -0.2116  0.0138  0.1537
  892TIP3    H1 2640   0.208   0.221   1.999  1.8935 -0.2648 -0.1981
  892TIP3    H2 2641   0.213   0.198   1.850  3.1505  1.0900 -0.3850
  893TIP3   OH2 2642   2.982   2.899   0.663 -0.2450  0.6630  0.4803
  893TIP3    H1 2643   2.983   2.986   0.623  1.9011  1.1454  1.4271
  893TIP3    H2 2644   3.005   2.839   0.591  0.4321  1.1465  0.2857
  894TIP3   OH2 2645   6.600   1.667   2.883 -0.1083 -0.5875  1.0345
  894TIP3    H1 2646   6.615   1.603   2.814 -0.3871 -1.3698  1.6949
  894TIP3    H2 2647   6.676   1.726   2.878 -0.8687  0.3229 -0.9501
  895TIP3   OH2 2648   0.344   1.848   4.333  0.3671 -0.5636 -0.0531
  895TIP3    H1 2649   0.266   1.827   4.282  0.2501  0.1516 -0.1780
  895TIP3    H2 2650   0.417   1.825   4.276  0.3253  3.7745 -2.2261
  896TIP3   OH2 2651   4.285   2.357   0.599  0.0677 -0.6302  0.4412
  896TIP3    H1 2652   4.277   2.446   0.565 -0.6791 -1.3844 -1.5071
  896TIP3    H2 2653   4.372   2.327   0.571  1.0852  0.0424  2.6531
  897TIP3   OH2 2654   6.907   4.317   2.123  0.3400  0.5700  0.5767
  897TIP3    H1 2655   6.970   4.280   2.185 -0.4283  1.7796  2.1574
  897TIP3    H2 2656   6.935   4.408   2.111  0.7225  0.2566 -1.2409
  898TIP3   OH2 2657   3.669   4.762   5.203  0.0928  0.4040 -0.1280
  898TIP3    H1 2658   3.702   4.791   5.288  2.1096  1.8225 -1.3058
  898TIP3    H2 2659   3.699   4.671   5.196 -0.4610  0.1296  0.8173
  899TIP3   OH2 2660   2.835   0.111   1.522  0.5355  0.1244 -0.0016
  899TIP3    H1 2661   2.743   0.098   1.544  0.1715 -2.3334 -2.3750
  899TIP3    H2 2662   2.835   0.184   1.460  0.2558  0.4031  0.3254
  900TIP3   OH2 2663   4.156   4.830   2.866 -0.4061 -0.4039  0.4414
  900TIP3    H1 2664   4.078   4.805   2.816  0.0557 -1.0495  0.0271
  900TIP3    H2 2665   4.220   4.856   2.799  0.2367 -1.3192  0.6727
  901TIP3   OH2 2666   4.883   1.709   5.860  0.2797  0.1241  0.0567
  901TIP3    H1 2667   4.912   1.632   5.811  0.3539  1.3608 -1.9647
  901TIP3    H2 2668   4.828   1.758   5.798 -0.4962  1.2532  1.5736
  902TIP3   OH2 2669   2.288   6.464   0.269  0.2851  0.4823  0.2470
  902TIP3    H1 2670   2.249   6.414   0.341  0.6429  0.3583  0.3539
  902TIP3    H2 2671   2.316   6.546   0.310  0.2565  0.5170  0.1966
  903TIP3   OH2 2672   1.255   6.426   0.900  0.1649  0.2656 -0.3631
  903TIP3    H1 2673   1.254   6.472   0.984  0.6731 -0.7877  0.2527
  903TIP3    H2 2674   1.168   6.441   0.863 -0.3726  0.0604  0.7599
  904TIP3   OH2 2675   0.723   1.912   3.416  0.4023 -0.3272 -0.4260
  904TIP3    H1 2676   0.791   1.958   3.466 -0.4444  0.8727 -0.3417
  904TIP3    H2 2677   0.724   1.823   3.451 -1.3695  0.8491  3.0739
  905TIP3   OH2 2678   6.354   0.684   3.941  0.4246  0.2567  0.0316
  905TIP3    H1 2679   6.268   0.717   3.968 -0.3002 -0.4877 -1.2682
  905TIP3    H2 2680   6.389   0.641   4.019 -2.1616 -2.9521 -0.3465
  906TIP3   OH2 2681   5.186   2.205   0.353  0.2363  0.0763  0.0661
  906TIP3    H1 2682   5.231   2.220   0.436  1.0211 -0.3205 -0.2733
  906TIP3    H2 2683   5.250   2.230   0.286 -0.5549  0.8591 -0.4280
  907TIP3   OH2 2684   2.866   4.291   2.965 -0.1268 -0.1588 -0.4331
  907TIP3    H1 2685   2.958   4.317   2.970 -0.8995  2.9590  0.0749
  907TIP3    H2 2686   2.839   4.278   3.055 -0.2566 -0.7655 -0.5573
  908TIP3   OH2 2687   1.462   0.877   5.622  0.0395 -0.1414  0.3811
  908TIP3    H1 2688   1.523   0.819   5.575 -1.3470 -0.9738 -0.4756
  908TIP3    H2 2689   1.375   0.847   5.594 -0.8016  0.4242  2.2362
  909TIP3   OH2 2690   3.814   3.863   0.744  0.3469 -0.1315  0.0629
  909TIP3    H1 2691   3.898   3.820   0.730  0.3719  0.2373 -1.0399
  909TIP3    H2 2692   3.768   3.852   0.660 -0.5444  0.0166  0.5197
  910TIP3   OH2 2693   6.276   1.721   4.859 -0.1013  0.3364  0.4654
  910TIP3    H1 2694   6.212   1.708   4.929 -2.7789 -0.7695 -1.9882
  910TIP3    H2 2695   6.302   1.813   4.867 -1.0537  0.4945  2.2787
  911TIP3   OH2 2696   2.879   4.993   0.641  0.2680 -0.3240 -0.1364
  911TIP3    H1 2697   2.863   5.054   0.569  0.0759  1.8852  1.6913
  911TIP3    H2 2698   2.802   4.999   0.696 -0.3229 -3.2238 -0.4776
  912TIP3   OH2 2699   0.748   4.213   0.480  0.5562 -0.3863 -0.3147
  912TIP3    H1 2700   0.805   4.144   0.512  0.0446 -0.7853 -0.2412
  912TIP3    H2 2701   0.704   4.175   0.404 -0.0062 -0.2805 -0.0518
  913TIP3   OH2 2702   4.930   4.780   1.390 -0.4841  0.0537 -0.4173
  913TIP3    H1 2703   4.933   4.868   1.352 -0.7739  0.6979  0.9727
  913TIP3    H2 2704   4.911   4.795   1.483  1.6568 -1.3475  0.3163
  914TIP3   OH2 2705   1.044   5.843   2.501 -0.5555  0.0517 -0.4234
  914TIP3    H1 2706   1.137   5.832   2.523 -0.0787  0.6820 -1.9851
  914TIP3    H2 2707   1.008   5.892   2.575  0.8463  1.6431 -0.7385
  915TIP3   OH2 2708   6.439   2.002   0.224  0.0557  0.2123  0.8676
  915TIP3    H1 2709   6.526   2.038   0.212  0.0922  0.3337  1.4673
  915TIP3    H2 2710   6.386   2.042   0.155  0.5295 -0.0639  0.3407
  916TIP3   OH2 2711   3.553   2.687   0.963 -0.9779 -0.3125 -0.3017
  916TIP3    H1 2712   3.552   2.782   0.972  3.4703 -0.0158 -0.4085
  916TIP3    H2 2713   3.562   2.672   0.868  3.7233 -0.2636 -0.1214
  917TIP3   OH2 2714   6.336   6.125   4.344 -0.0991  0.2917 -0.4802
  917TIP3    H1 2715   6.254   6.173   4.345 -0.5100 -0.3804 -1.0939
  917TIP3    H2 2716   6.330   6.064   4.417  0.0835  0.6022 -0.2011
  918TIP3   OH2 2717   6.169   3.309   2.906 -0.1347  0.2669 -0.2033
  918TIP3    H1 2718   6.158   3.214   2.918 -0.0883  0.3752  0.7675
  918TIP3    H2 2719   6.256   3.327   2.939  0.0167  0.5945 -0.7709
  919TIP3   OH2 2720   6.816   2.711   1.230  0.0433  0.3332 -0.2603
  919TIP3    H1 2721   6.798   2.708   1.324  1.4326  0.0906  0.0162
  919TIP3    H2 2722   6.735   2.744   1.191 -0.4808  0.6245  1.0384
  920TIP3   OH2 2723   0.733   4.017   1.245  0.2535  0.1527 -0.4862
  920TIP3    H1 2724   0.654   3.980   1.284  1.0878 -0.5607  0.5975
  920TIP3    H2 2725   0.761   3.952   1.180 -0.6072  0.9013 -1.6579
  921TIP3   OH2 2726   4.006   3.606   0.596 -0.0237 -0.6397 -0.2744
  921TIP3    H1 2727   3.938   3.543   0.623  0.3218 -0.7532  0.3606
  921TIP3    H2 2728   4.075   3.551   0.558  0.5003 -0.7118  0.7400
  922TIP3   OH2 2729   2.384   6.020   5.252  0.1676 -0.7769  0.0431
  922TIP3    H1 2730   2.380   5.964   5.174 -0.0538 -0.2537 -0.3341
  922TIP3    H2 2731   2.293   6.036   5.275  0.1598  0.7765 -0.8711
  923TIP3   OH2 2732   6.061   3.156   0.511  0.3015 -0.7732 -0.2568
  923TIP3    H1 2733   6.130   3.120   0.455  1.7017  1.4134 -0.0839
  923TIP3    H2 2734   5.998   3.194   0.449  1.8722  1.6861 -0.4938
  924TIP3   OH2 2735   3.208   2.799   3.314  0.0143 -0.0237  0.0638
  924TIP3    H1 2736   3.220   2.712   3.274  0.9145  0.6401 -1.1968
  924TIP3    H2 2737   3.145   2.843   3.256  0.6082  0.6321 -0.0954
  925TIP3   OH2 2738   3.470   6.688   3.858 -0.7808  0.0689 -0.0985
  925TIP3    H1 2739   3.496   6.629   3.929  2.1719  0.1804 -0.9663
  925TIP3    H2 2740   3.462   6.632   3.782  1.8338  0.6352 -0.8833
  926TIP3   OH2 2741   0.946   6.484   4.237 -0.1800  0.5754  0.4460
  926TIP3    H1 2742   0.868   6.538   4.220 -0.0328  1.6813  2.9345
  926TIP3    H2 2743   0.922   6.430   4.312  0.6451 -0.9388 -0.3191
  927TIP3   OH2 2744   3.765   1.061   2.027 -0.1197 -0.2727 -0.7090
  927TIP3    H1 2745   3.678   1.071   1.990 -0.4292 -0.1540  0.0309
  927TIP3    H2 2746   3.804   1.149   2.021 -1.4541  0.6844  2.3477
  928TIP3   OH2 2747   5.404   2.899   0.089 -0.6866 -0.6057 -0.4177
  928TIP3    H1 2748   5.380   2.825   0.033 -0.1198  0.1824 -1.7495
  928TIP3    H2 2749   5.453   2.958   0.031  1.9558 -0.8071  1.4279
  929TIP3   OH2 2750   4.041   3.914   1.871  0.1751  0.0799  0.0218
  929TIP3    H1 2751   4.088   3.985   1.828 -1.5017  0.8222 -0.6889
  929TIP3    H2 2752   3.985   3.877   1.802 -0.9710 -0.1351  1.0230
  930TIP3   OH2 2753   1.512   0.858   3.561  0.4626 -0.0291 -0.3630
  930TIP3    H1 2754   1.429   0.826   3.528  0.9091 -0.7431 -0.8272
  930TIP3    H2 2755   1.489   0.930   3.620 -0.4100  0.5880 -1.4224
  931TIP3   OH2 2756   6.900   6.772   4.470 -0.3275  0.3158  0.1578
  931TIP3    H1 2757   6.992   6.784   4.492 -0.3312 -0.2633  0.5121
  931TIP3    H2 2758   6.854   6.772   4.554 -0.8122  1.8247 -0.0866
  932TIP3   OH2 2759   4.483   2.175   5.130  0.4124 -0.7076 -0.4953
  932TIP3    H1 2760   4.558   2.192   5.073 -0.1385  0.0174 -1.0291
  932TIP3    H2 2761   4.442   2.261   5.141 -0.2794 -1.0800 -0.1351
  933TIP3   OH2 2762   1.059   3.711   5.445 -0.0464  0.1110  0.0430
  933TIP3    H1 2763   1.105   3.691   5.526  0.4870  1.4160  0.0710
  933TIP3    H2 2764   1.075   3.634   5.389  1.8022  0.3421  0.2074
  934TIP3   OH2 2765   0.971   2.333   2.891  0.2268 -0.6196 -0.0787
  934TIP3    H1 2766   1.012   2.293   2.815 -0.1600 -0.8073 -0.1928
  934TIP3    H2 2767   1.041   2.342   2.955  0.1067 -2.5120  0.3751
  935TIP3   OH2 2768   4.650   2.792   4.771 -0.2544 -0.1799  0.6385
  935TIP3    H1 2769   4.655   2.854   4.844 -1.1653  0.6752 -0.0088
  935TIP3    H2 2770   4.737   2.796   4.730 -0.0389  0.0229  1.1142
  936TIP3   OH2 2771   6.882   5.279   1.045 -0.0424 -0.0337  0.7014
  936TIP3    H1 2772   6.858   5.217   1.113  1.0304 -0.5567  0.6323
  936TIP3    H2 2773   6.951   5.234   0.995  1.3805  1.5045  1.1756
  937TIP3   OH2 2774   0.858   3.828   1.082 -0.0206 -0.2201 -0.2154
  937TIP3    H1 2775   0.828   3.764   1.018 -0.4331 -0.6289  0.3752
  937TIP3    H2 2776   0.949   3.844   1.059  0.1369 -1.1412 -0.2756
  938TIP3   OH2 2777   4.669   2.784   1.110  0.0871  0.2022  0.0369
  938TIP3    H1 2778   4.728   2.709   1.111 -0.0285 -0.0403 -2.6399
  938TIP3    H2 2779   4.583   2.747   1.127  0.3713  0.2040  1.5915
  939TIP3   OH2 2780   7.214   2.012   4.573 -0.0266 -0.2978  0.5971
  939TIP3    H1 2781   7.227   2.030   4.480 -2.1208 -0.5959  0.2009
  939TIP3    H2 2782   7.174   2.092   4.608  0.1027 -0.4421  1.0872
  940TIP3   OH2 2783   1.652   4.821   5.841  0.2233  0.0896  0.3502
  940TIP3    H1 2784   1.659   4.910   5.875  1.7395  0.1913 -0.1218
  940TIP3    H2 2785   1.644   4.833   5.746  1.5610 -0.2712  0.1744
  941TIP3   OH2 2786   0.938   3.170   2.821 -0.6193 -0.0475  0.2630
  941TIP3    H1 2787   1.020   3.159   2.772 -0.7767  0.2087 -0.0663
  941TIP3    H2 2788   0.882   3.098   2.790 -1.4740  1.2975 -1.5270
  942TIP3   OH2 2789   4.362   6.280   0.055 -0.5955 -0.7886 -0.1531
  942TIP3    H1 2790   4.424   6.326  -0.002 -0.4415 -0.3879  0.3326
  942TIP3    H2 2791   4.365   6.189   0.024  0.3641 -0.8079 -0.0361
  943TIP3   OH2 2792   0.636   3.343   1.892  0.3922  0.0640 -0.4321
  943TIP3    H1 2793   0.611   3.435   1.891  0.2827  0.0402 -1.4926
  943TIP3    H2 2794   0.553   3.296   1.878  0.5260 -0.1649 -0.4534
  944TIP3   OH2 2795   1.937   2.787   5.055 -0.2234 -0.1318  0.5296
  944TIP3    H1 2796   2.032   2.793   5.065 -0.3742  2.7438  1.1350
  944TIP3    H2 2797   1.908   2.743   5.135  0.5630 -0.8138  0.4557
  945TIP3   OH2 2798   5.353   6.640   3.030  0.5773  0.1537  0.1936
  945TIP3    H1 2799   5.411   6.565   3.021  0.8577 -0.0719  2.9397
  945TIP3    H2 2800   5.285   6.611   3.090 -1.2661  1.0701 -1.3395
  946TIP3   OH2 2801   2.728   2.119   0.343 -0.1322  0.3857 -0.3617
  946TIP3    H1 2802   2.649   2.173   0.335 -1.6726 -1.5314  0.8828
  946TIP3    H2 2803   2.736   2.077   0.257  1.0145  2.4135 -1.2983
  947TIP3   OH2 2804   6.650   5.823   4.199  0.7965 -0.4991 -0.5488
  947TIP3    H1 2805   6.621   5.908   4.233  1.4055 -0.6301  0.3502
  947TIP3    H2 2806   6.744   5.821   4.216  0.6222 -1.7878  0.4515
  948TIP3   OH2 2807   3.095   0.354   3.085 -0.0749 -0.1607  0.1830
  948TIP3    H1 2808   3.161   0.418   3.060 -0.1979 -0.5316 -1.1931
  948TIP3    H2 2809   3.061   0.321   3.002 -1.3953 -0.5924  0.8629
  949TIP3   OH2 2810   4.950   4.134   1.718 -0.0741  0.1805 -0.9236
  949TIP3    H1 2811   4.903   4.051   1.717 -0.4036  0.3226  0.5233
  949TIP3    H2 2812   5.032   4.116   1.671  0.6858 -1.4958  0.9327
  950TIP3   OH2 2813   0.445   4.754   1.052 -0.1329 -0.5090 -0.3230
  950TIP3    H1 2814   0.406   4.672   1.022 -2.6769  0.3979  0.2785
  950TIP3    H2 2815   0.411   4.820   0.992  0.4270  0.3687  0.3035
  951TIP3   OH2 2816   1.889   4.248   0.404  0.0763  0.3850 -0.0522
  951TIP3    H1 2817   1.906   4.314   0.336  1.4299 -0.9749 -1.0871
  951TIP3    H2 2818   1.795   4.254   0.418  0.0205  1.9089 -0.7767
  952TIP3   OH2 2819   4.143   3.406   1.575  0.1848  0.1895 -0.2343
  952TIP3    H1 2820   4.216   3.363   1.619 -1.1956 -0.7405  1.2740
  952TIP3    H2 2821   4.099   3.336   1.528 -0.6745  0.3958  0.2376
  953TIP3   OH2 2822   6.747   4.285   1.314  0.1057 -0.4211 -0.0310
  953TIP3    H1 2823   6.699   4.366   1.301 -1.4421 -1.3944 -0.6516
  953TIP3    H2 2824   6.830   4.298   1.266 -0.7568  0.2489 -1.4036
  954TIP3   OH2 2825   5.143   1.557   5.734 -0.4439 -0.4331 -0.3343
  954TIP3    H1 2826   5.048   1.552   5.724 -0.3220 -0.5245 -1.6080
  954TIP3    H2 2827   5.162   1.650   5.738 -0.6075 -0.4201  0.2094
  955TIP3   OH2 2828   1.198   2.562   4.317  0.5000 -0.3087  0.1651
  955TIP3    H1 2829   1.128   2.626   4.311  0.8554 -0.0275 -1.2160
  955TIP3    H2 2830   1.238   2.578   4.403 -0.4182  0.2543  0.4947
  956TIP3   OH2 2831   1.492   0.129   3.074 -0.0269 -0.2730 -0.6022
  956TIP3    H1 2832   1.481   0.224   3.078 -0.9088 -0.3864 -0.1884
  956TIP3    H2 2833   1.535   0.113   2.990  0.7653  0.5449 -0.3604
  957TIP3   OH2 2834   6.917   3.941   0.934 -0.0548  0.1568 -0.0613
  957TIP3    H1 2835   6.933   3.954   1.028 -0.2584  1.9413 -0.2329
  957TIP3    H2 2836   6.828   3.973   0.920 -0.6520 -1.6376 -0.6145
  958TIP3   OH2 2837   4.926   5.825   1.102  0.3266  0.4322 -0.3849
  958TIP3    H1 2838   4.949   5.887   1.170  0.7076  1.0766 -1.0797
  958TIP3    H2 2839   4.975   5.854   1.025  0.5481 -0.7576 -0.7223
  959TIP3   OH2 2840   0.616   6.571   4.217  0.2437 -0.2068  0.5403
  959TIP3    H1 2841   0.646   6.608   4.134  0.2415 -0.7395  0.2979
  959TIP3    H2 2842   0.521   6.563   4.206  0.1190  0.5937  0.9501
  960TIP3   OH2 2843   5.665   4.690   2.995 -0.1239 -0.7263 -0.1043
  960TIP3    H1 2844   5.730   4.735   3.049  1.6816 -1.9223 -1.2017
  960TIP3    H2 2845   5.705   4.683   2.909 -2.4699  0.0833 -1.3530
  961TIP3   OH2 2846   2.074   5.796   1.312 -0.6859 -0.1275 -0.2747
  961TIP3    H1 2847   2.139   5.731   1.286 -0.3866  0.4469 -0.9558
  961TIP3    H2 2848   2.125   5.869   1.347 -0.9697  0.2658 -0.6781
  962TIP3   OH2 2849   2.419   0.089   1.388 -0.3257 -0.0725 -0.2472
  962TIP3    H1 2850   2.378   0.015   1.432 -0.9679 -0.3946 -1.3545
  962TIP3    H2 2851   2.511   0.064   1.378 -0.3769 -0.3866  0.0563
  963TIP3   OH2 2852   1.429   6.616   5.746 -0.7156 -0.4454 -0.2364
  963TIP3    H1 2853   1.515   6.613   5.788 -0.8304  1.0121  0.1443
  963TIP3    H2 2854   1.446   6.586   5.656 -0.0829 -1.5092  0.2190
  964TIP3   OH2 2855   5.513   1.367   3.177 -0.2077 -0.0860 -0.1294
  964TIP3    H1 2856   5.494   1.435   3.112  0.0920 -1.4014 -1.6465
  964TIP3    H2 2857   5.429   1.323   3.192 -0.1827 -0.0756  0.0466
  965TIP3   OH2 2858   0.452   5.311   4.144 -0.1080  0.5141 -0.0835
  965TIP3    H1 2859   0.454   5.307   4.048  0.0788 -0.4189 -0.0498
  965TIP3    H2 2860   0.410   5.394   4.164 -0.0351  0.7725 -0.9788
  966TIP3   OH2 2861   2.056   0.213   1.936  0.9235  0.5271  0.5977
  966TIP3    H1 2862   1.981   0.206   1.995  0.5788 -0.0430  0.1034
  966TIP3    H2 2863   2.099   0.127   1.942 -1.0303 -0.8238 -2.4903
  967TIP3   OH2 2864   0.301   4.741   4.531  0.4662  0.4396 -0.1251
  967TIP3    H1 2865   0.383   4.694   4.520  0.6293  0.7700 -0.3397
  967TIP3    H2 2866   0.327   4.830   4.555  0.2144  0.8936 -1.4550
  968TIP3   OH2 2867   1.886   4.670   2.117  0.5186 -0.0488 -0.4006
  968TIP3    H1 2868   1.915   4.654   2.207  3.3554  1.7884 -0.8426
  968TIP3    H2 2869   1.809   4.614   2.106 -1.8153  1.7514  4.0527
  969TIP3   OH2 2870   1.936   4.654   0.234  0.2130 -0.4741 -0.2722
  969TIP3    H1 2871   2.019   4.697   0.216  0.1867 -0.8153 -1.2697
  969TIP3    H2 2872   1.936   4.640   0.329 -0.2658  2.7066  0.3034
  970TIP3   OH2 2873   4.990   2.731   3.491 -0.6451 -0.1796  0.2236
  970TIP3    H1 2874   4.987   2.638   3.512 -2.0719 -0.5207 -1.2497
  970TIP3    H2 2875   4.900   2.762   3.506  0.5710  1.9907  4.6081
  971TIP3   OH2 2876   3.457   0.614   1.639 -0.3800  0.7439  0.2856
  971TIP3    H1 2877   3.552   0.625   1.644 -0.4852  1.6220  0.4319
  971TIP3    H2 2878   3.445   0.529   1.595  0.4612 -0.3233  2.0395
  972TIP3   OH2 2879   1.230   2.963   2.556 -0.0965 -0.1092 -0.0172
  972TIP3    H1 2880   1.140   2.943   2.531  0.7111 -0.6875 -2.7999
  972TIP3    H2 2881   1.278   2.966   2.473  2.4082  0.4587  1.3511
  973TIP3   OH2 2882   6.360   2.164   2.261  0.4725  0.5605 -0.2037
  973TIP3    H1 2883   6.355   2.209   2.176 -1.0680 -0.6133 -0.7901
  973TIP3    H2 2884   6.315   2.223   2.321 -0.8726  0.1995 -0.8095
  974TIP3   OH2 2885   0.618   3.598   0.643 -0.4769  0.3287 -0.4963
  974TIP3    H1 2886   0.659   3.521   0.604 -0.3788  0.7177 -1.1571
  974TIP3    H2 2887   0.666   3.672   0.607 -0.0547  0.6865  0.7357
  975TIP3   OH2 2888   2.996   3.657   3.642  0.4028  0.2938  0.3301
  975TIP3    H1 2889   3.054   3.695   3.709  0.6350  0.3924  0.0757
  975TIP3    H2 2890   2.962   3.577   3.683  1.2286 -0.1098  0.2435
  976TIP3   OH2 2891   6.789   0.144   3.062  0.4160 -0.5191 -0.4800
  976TIP3    H1 2892   6.788   0.122   2.969 -1.3423 -0.2894 -0.5579
  976TIP3    H2 2893   6.746   0.230   3.066  3.4074  1.0731  0.2349
  977TIP3   OH2 2894   0.899   1.934   3.150  0.7243 -0.2774  0.9579
  977TIP3    H1 2895   0.843   1.960   3.222 -1.5393  0.0449 -0.8205
  977TIP3    H2 2896   0.862   1.851   3.119  1.8025 -0.5460  0.3128
  978TIP3   OH2 2897   0.061   4.763   4.666 -0.3563  0.3046  0.0384
  978TIP3    H1 2898   0.142   4.729   4.630  0.0717  1.5037 -0.1568
  978TIP3    H2 2899   0.073   4.758   4.761 -0.2860 -0.0456  0.0124
  979TIP3   OH2 2900   5.058   3.363   5.734  0.6423  0.3471 -0.4008
  979TIP3    H1 2901   4.978   3.324   5.699  0.1050 -0.3328  1.4581
  979TIP3    H2 2902   5.046   3.457   5.722 -0.5210  0.2631  0.0178
  980TIP3   OH2 2903   0.743   5.113   5.594  0.0750 -0.3655 -0.0582
  980TIP3    H1 2904   0.664   5.076   5.633 -0.7278 -0.1561 -1.4117
  980TIP3    H2 2905   0.812   5.095   5.658 -1.0231 -0.7097  1.0734
  981TIP3   OH2 2906   2.445   2.723   5.121  0.0093 -0.0406 -0.1240
  981TIP3    H1 2907   2.428   2.629   5.111 -0.3087 -0.0905  0.7424
  981TIP3    H2 2908   2.530   2.728   5.163  0.3751  0.0912 -0.8653
  982TIP3   OH2 2909   1.975   1.999   0.135 -0.3724  0.1225 -0.8042
  982TIP3    H1 2910   1.974   2.046   0.052 -0.5652  0.4372 -0.6231
  982TIP3    H2 2911   2.010   1.912   0.113 -0.3689  0.2247 -1.2017
  983TIP3   OH2 2912   5.775   4.146   1.778 -0.7926 -0.9184 -0.1977
  983TIP3    H1 2913   5.682   4.160   1.761 -0.9400 -0.0296  1.1789
  983TIP3    H2 2914   5.786   4.051   1.774 -2.4194 -1.3385  2.5541
  984TIP3   OH2 2915   6.423   6.675   4.255 -0.8045 -0.6128 -0.0071
  984TIP3    H1 2916   6.353   6.721   4.302 -2.0393 -1.0596 -1.3321
  984TIP3    H2 2917   6.457   6.612   4.319 -0.6154  0.5988  1.1145
  985TIP3   OH2 2918   7.122   1.047   4.562 -0.0293  0.2380 -0.1316
  985TIP3    H1 2919   7.090   0.980   4.622 -0.6463  0.4874 -0.1772
  985TIP3    H2 2920   7.044   1.091   4.531  0.4153  2.0878  1.1601
  986TIP3   OH2 2921   5.661   3.713   3.617 -0.0517 -0.1134 -0.0678
  986TIP3    H1 2922   5.638   3.686   3.706  1.5267  1.5942  0.9368
  986TIP3    H2 2923   5.614   3.796   3.604 -0.1337 -0.2633 -0.7647
  987TIP3   OH2 2924   0.432   6.329   1.398 -0.0754 -0.0682  0.1439
  987TIP3    H1 2925   0.421   6.412   1.445 -0.6184 -0.6183  1.0227
  987TIP3    H2 2926   0.365   6.331   1.330  1.0109  0.9339 -0.9497
  988TIP3   OH2 2927   4.476   3.540   1.263 -0.6792  0.0087 -0.1825
  988TIP3    H1 2928   4.388   3.503   1.265 -1.4774  1.7882  1.7780
  988TIP3    H2 2929   4.468   3.618   1.208  0.3444 -1.1502 -2.0862
  989TIP3   OH2 2930   4.345   1.890   4.977 -0.2832  0.0656 -0.6528
  989TIP3    H1 2931   4.384   1.966   4.934  1.5701 -0.5623 -0.1514
  989TIP3    H2 2932   4.325   1.829   4.906 -2.1883  1.1401 -1.1072
  990TIP3   OH2 2933   5.436   4.760   3.546  0.7666  0.0519  0.2174
  990TIP3    H1 2934   5.467   4.669   3.540  1.7114  0.3635  0.2681
  990TIP3    H2 2935   5.422   4.786   3.455  1.3703  0.1472  0.1492
  991TIP3   OH2 2936   1.261   1.617   4.174 -0.0242 -0.7869  0.1266
  991TIP3    H1 2937   1.223   1.635   4.088  0.2395 -0.9062 -0.0204
  991TIP3    H2 2938   1.188   1.589   4.228 -0.1258 -1.1306 -0.1847
  992TIP3   OH2 2939   4.460   2.549   3.720  0.1565  0.0480  0.2707
  992TIP3    H1 2940   4.495   2.487   3.655  0.5994 -0.4293  0.9498
  992TIP3    H2 2941   4.375   2.512   3.744 -0.5650  0.8675 -0.9063
  993TIP3   OH2 2942   7.147   6.239   2.520 -0.0477 -0.1779 -0.4049
  993TIP3    H1 2943   7.067   6.198   2.553  0.1082 -0.2058 -0.0632
  993TIP3    H2 2944   7.118   6.324   2.488 -0.1616 -0.0496  0.0272
  994TIP3   OH2 2945   5.999   4.043   2.562  0.5570  0.0965 -0.0955
  994TIP3    H1 2946   5.926   3.998   2.605  0.7517 -1.2454 -1.1083
  994TIP3    H2 2947   6.065   4.051   2.630 -1.3180  3.5636  1.6013
  995TIP3   OH2 2948   2.390   0.013   5.739 -0.6127 -0.2854 -0.4880
  995TIP3    H1 2949   2.344   0.047   5.663 -2.0117  0.8246  0.7804
  995TIP3    H2 2950   2.340   0.046   5.814  0.9166 -1.0150  0.9264
  996TIP3   OH2 2951   0.441   4.982   2.009 -0.5005 -0.1729  0.6946
  996TIP3    H1 2952   0.513   4.919   1.996 -1.3021 -1.0709  0.4756
  996TIP3    H2 2953   0.462   5.025   2.092  1.0211  0.6092 -0.0505
  997TIP3   OH2 2954   3.344   5.490   2.863  0.7837  0.3734  0.1207
  997TIP3    H1 2955   3.346   5.414   2.923  1.6839 -0.0838 -0.4566
  997TIP3    H2 2956   3.431   5.489   2.822  1.1231  2.2398  0.7301
  998TIP3   OH2 2957   3.560   2.371   0.589 -0.2398 -0.2104  0.1340
  998TIP3    H1 2958   3.481   2.321   0.612 -1.3804  1.9603  1.2567
  998TIP3    H2 2959   3.603   2.318   0.522 -0.8557 -3.1127  1.8390
  999TIP3   OH2 2960   2.964   3.668   3.374  0.0356  0.4314 -0.0971
  999TIP3    H1 2961   2.968   3.635   3.464  2.0635  0.0487 -0.2744
  999TIP3    H2 2962   2.872   3.663   3.350 -0.5404  0.5274  1.9473
 1000TIP3   OH2 2963   0.840   3.151   1.785  0.0408  0.3181  0.6015
 1000TIP3    H1 2964   0.828   3.062   1.817 -0.4550 -0.2797 -1.1354
 1000TIP3    H2 2965   0.756   3.194   1.801 -0.5164 -0.2535 -0.6631
 1001TIP3   OH2 2966   2.481   0.135   2.279 -0.1925 -0.3265  0.3364
 1001TIP3    H1 2967   2.441   0.193   2.343 -1.1909 -0.4388 -0.1564
 1001TIP3    H2 2968   2.517   0.062   2.330  1.3715  0.8607  0.9919
 1002TIP3   OH2 2969   6.759   5.487   0.920 -0.4244  0.2843  0.4781
 1002TIP3    H1 2970   6.683   5.447   0.878 -0.8713  0.1109  1.4229
 1002TIP3    H2 2971   6.804   5.414   0.962  0.0434  0.4501  0.2728
 1003TIP3   OH2 2972   5.992   1.348   2.676  0.5703 -1.0653  0.2209
 1003TIP3    H1 2973   5.983   1.253   2.688  0.1954 -0.8324  2.0720
 1003TIP3    H2 2974   6.076   1.358   2.630 -0.2349 -2.3528 -1.6671
 1004TIP3   OH2 2975   4.817   6.298   0.916  0.3187  0.7564  0.0547
 1004TIP3    H1 2976   4.821   6.290   0.820 -0.9797 -0.2470  0.0621
 1004TIP3    H2 2977   4.909   6.291   0.944  0.4540 -2.8016 -0.8808
 1005TIP3   OH2 2978   6.001   0.174   0.431  0.1734 -0.3020  0.3047
 1005TIP3    H1 2979   6.017   0.082   0.412  0.5379 -0.8463  2.9499
 1005TIP3    H2 2980   6.074   0.201   0.486 -1.5931  0.6180  2.3208
 1006TIP3   OH2 2981   1.911   0.212   3.078 -0.3044  0.0056 -0.0608
 1006TIP3    H1 2982   1.930   0.304   3.099 -1.9492  0.4667 -0.4126
 1006TIP3    H2 2983   1.853   0.183   3.148 -0.4417 -0.5018 -0.3781
 1007TIP3   OH2 2984   2.357   2.233   5.188 -0.4824  0.0675 -0.2839
 1007TIP3    H1 2985   2.266   2.230   5.220 -1.3126 -4.4495 -2.1142
 1007TIP3    H2 2986   2.409   2.195   5.259 -0.3966  0.6205 -0.0513
 1008TIP3   OH2 2987   2.210   0.629   5.396  0.1016  0.6331 -0.9108
 1008TIP3    H1 2988   2.131   0.684   5.403  0.6124  1.2402  0.4232
 1008TIP3    H2 2989   2.273   0.684   5.349  0.0673  0.5281 -1.0822
 1009TIP3   OH2 2990   0.672   0.331   0.217  0.4148  0.7012  0.0911
 1009TIP3    H1 2991   0.756   0.369   0.243  0.3881  1.2384 -0.5698
 1009TIP3    H2 2992   0.634   0.396   0.158 -2.0233  2.1285  2.9276
 1010TIP3   OH2 2993   4.783   3.408   1.727  0.6254 -0.4327 -0.3540
 1010TIP3    H1 2994   4.877   3.404   1.709  0.7205 -1.1601  0.2520
 1010TIP3    H2 2995   4.761   3.501   1.717  0.7793 -0.6320 -3.4406
 1011TIP3   OH2 2996   5.174   2.917   0.213  0.0645 -0.1960  0.7965
 1011TIP3    H1 2997   5.141   3.000   0.180  0.1704 -0.0097  1.1554
 1011TIP3    H2 2998   5.266   2.914   0.186 -0.5410 -1.3131 -1.3692
 1012TIP3   OH2 2999   0.048   1.587   4.528  0.1397  0.2339 -0.6280
 1012TIP3    H1 3000   0.091   1.626   4.452 -0.6401 -0.5870 -1.5331
 1012TIP3    H2 3001   0.085   1.499   4.534  1.2823  0.7851  0.8818
 1013TIP3   OH2 3002   4.415   1.715   4.720 -0.0288  0.3078  0.0711
 1013TIP3    H1 3003   4.351   1.766   4.671  0.9068  0.2378 -1.2964
 1013TIP3    H2 3004   4.496   1.723   4.668  0.5113 -1.3422  0.6036
 1014TIP3   OH2 3005   2.453   4.997   2.861  0.1640 -0.4057  0.5175
 1014TIP3    H1 3006   2.534   4.948   2.844 -0.8590 -1.0569 -3.4442
 1014TIP3    H2 3007   2.467   5.081   2.818 -1.0235 -0.2697  0.3806
 1015TIP3   OH2 3008   0.235   5.542   1.237  0.9047  0.1527  0.2166
 1015TIP3    H1 3009   0.319   5.538   1.281  1.1672  1.0831 -0.1686
 1015TIP3    H2 3010   0.238   5.472   1.172  1.7550  0.7616 -0.4140
 1016TIP3   OH2 3011   6.935   1.913   1.647  0.1419  0.3522 -0.8098
 1016TIP3    H1 3012   6.980   1.993   1.619  1.3206  0.1525  0.3928
 1016TIP3    H2 3013   6.988   1.841   1.613  0.1530  0.1080 -0.2992
 1017TIP3   OH2 3014   5.269   5.470   0.841  0.6793 -0.3717 -0.6486
 1017TIP3    H1 3015   5.317   5.430   0.913  0.1845 -0.1034 -0.1591
 1017TIP3    H2 3016   5.266   5.402   0.773  0.0216 -1.1077  0.0967
 1018TIP3   OH2 3017   3.836   3.747   4.506 -0.4860 -0.4882 -0.0331
 1018TIP3    H1 3018   3.836   3.669   4.561  0.2276  0.1981  0.9697
 1018TIP3    H2 3019   3.834   3.713   4.416 -2.8142 -1.6169  0.3631
 1019TIP3   OH2 3020   1.857   1.042   0.222  0.3006  0.1527 -0.0893
 1019TIP3    H1 3021   1.821   0.980   0.160 -0.1834  0.2889  0.0488
 1019TIP3    H2 3022   1.925   0.993   0.269  0.0808 -0.2016 -0.1384
 1020TIP3   OH2 3023   3.107   5.110   5.264 -0.0621  0.3462  0.2446
 1020TIP3    H1 3024   3.165   5.041   5.233 -1.3978 -0.5733 -0.2962
 1020TIP3    H2 3025   3.165   5.184   5.283  1.1592 -0.1806 -1.2751
 1021TIP3   OH2 3026   5.678   5.092   1.481  0.4245 -0.6124 -0.2347
 1021TIP3    H1 3027   5.614   5.143   1.531 -0.6019  0.8684 -2.8828
 1021TIP3    H2 3028   5.628   5.018   1.447  0.8048 -0.9081 -0.1585
 1022TIP3   OH2 3029   2.032   4.684   1.248 -0.5389  0.1761  0.5733
 1022TIP3    H1 3030   2.094   4.755   1.262 -1.7848  1.1645  1.3478
 1022TIP3    H2 3031   2.065   4.612   1.303  1.6293 -0.4955 -1.4556
 1023TIP3   OH2 3032   0.460   4.551   0.153  0.0520 -0.2839  0.1840
 1023TIP3    H1 3033   0.372   4.583   0.172 -0.6189 -0.1103 -2.7699
 1023TIP3    H2 3034   0.513   4.630   0.144 -0.4521 -0.1244 -1.9648
 1024TIP3   OH2 3035   7.040   2.396   2.080  0.0309 -0.0028 -0.1969
 1024TIP3    H1 3036   7.048   2.455   2.005 -0.6719 -1.1067 -1.1648
 1024TIP3    H2 3037   6.997   2.318   2.046  1.5107 -1.3809  0.8884
 1025TIP3   OH2 3038   0.581   5.901   1.245 -0.2605 -0.1664  0.3911
 1025TIP3    H1 3039   0.522   5.845   1.295  0.5588 -2.0049 -0.6095
 1025TIP3    H2 3040   0.621   5.959   1.311 -2.2942  0.3599  1.2263
 1026TIP3   OH2 3041   3.400   2.759   5.070  0.0108  0.4631  0.1095
 1026TIP3    H1 3042   3.440   2.825   5.127 -0.7390  0.1442  1.0187
 1026TIP3    H2 3043   3.387   2.683   5.125 -3.8825  1.2300  0.5866
 1027TIP3   OH2 3044   4.415   1.558   2.928  0.3370 -0.6913 -0.4036
 1027TIP3    H1 3045   4.404   1.512   2.844 -2.0108 -1.3255  0.1961
 1027TIP3    H2 3046   4.332   1.604   2.942  1.1336  0.4045  1.0203
 1028TIP3   OH2 3047   1.208   4.813   0.897 -0.4270  0.2183 -0.6709
 1028TIP3    H1 3048   1.244   4.730   0.866 -2.3767 -2.2536  2.8855
 1028TIP3    H2 3049   1.118   4.793   0.920 -0.5671  2.9090  1.7701
 1029TIP3   OH2 3050   1.374   6.229   5.296 -0.7917  0.2551 -0.2442
 1029TIP3    H1 3051   1.373   6.321   5.320  0.6750  0.4069 -0.6477
 1029TIP3    H2 3052   1.430   6.225   5.219  0.3530 -1.1461  0.6019
 1030TIP3   OH2 3053   6.316   2.304   3.632 -0.0581 -0.5162 -0.4067
 1030TIP3    H1 3054   6.331   2.387   3.678  3.0166 -0.7295 -0.8385
 1030TIP3    H2 3055   6.257   2.327   3.560 -0.2923  1.0185  0.2392
 1031TIP3   OH2 3056   0.488   1.988   3.273  0.5373  0.3675 -0.0750
 1031TIP3    H1 3057   0.486   1.973   3.179 -0.1445 -0.5998  0.0775
 1031TIP3    H2 3058   0.580   1.983   3.297  0.6072 -0.5592 -0.5198
 1032TIP3   OH2 3059   3.713   6.504   2.864 -0.6199  0.1719 -0.4442
 1032TIP3    H1 3060   3.695   6.577   2.923 -3.2625 -1.1060  0.4518
 1032TIP3    H2 3061   3.809   6.496   2.865 -0.1873  3.6957 -0.7755
 1033TIP3   OH2 3062   5.840   4.833   1.248  0.1087  0.1105  0.2840
 1033TIP3    H1 3063   5.823   4.843   1.341 -0.3188  0.9060  0.1301
 1033TIP3    H2 3064   5.795   4.752   1.223 -0.6101  0.4182  0.5685
 1034TIP3   OH2 3065   4.801   1.985   4.800  0.2286  0.0014 -0.0122
 1034TIP3    H1 3066   4.884   1.938   4.792  0.4735  0.5538 -0.9606
 1034TIP3    H2 3067   4.780   2.011   4.710 -1.6257 -1.2221  0.0133
 1035TIP3   OH2 3068   6.994   3.051   2.439  0.2353 -0.0746  0.1105
 1035TIP3    H1 3069   6.989   2.999   2.519  0.0754  2.7318  2.1003
 1035TIP3    H2 3070   7.088   3.061   2.423  0.3415  1.0877  1.2699
 1036TIP3   OH2 3071   0.056   5.678   5.739  0.1963 -0.1917 -0.7173
 1036TIP3    H1 3072   0.105   5.688   5.821  0.8200  0.0165 -1.1057
 1036TIP3    H2 3073   0.091   5.747   5.682 -1.2319  0.6021 -0.6881
 1037TIP3   OH2 3074   6.402   3.025   3.743  0.0071 -0.1609 -0.4433
 1037TIP3    H1 3075   6.402   3.096   3.807 -0.2819  1.3437 -2.0310
 1037TIP3    H2 3076   6.472   3.048   3.682  1.4077 -2.4373  0.1768
 1038TIP3   OH2 3077   2.130   1.645   0.709  0.0402 -0.7853  0.2825
 1038TIP3    H1 3078   2.042   1.630   0.742 -1.2137 -0.2060 -2.4645
 1038TIP3    H2 3079   2.149   1.736   0.729 -0.3504 -0.6708  0.1264
 1039TIP3   OH2 3080   1.796   6.538   0.961  0.2187  0.0951 -0.4107
 1039TIP3    H1 3081   1.725   6.535   0.897  0.0591 -0.8028 -0.2011
 1039TIP3    H2 3082   1.839   6.622   0.945  0.4526 -0.2899 -1.9850
 1040TIP3   OH2 3083   1.756   1.872   1.290  0.4487  0.3417 -0.1685
 1040TIP3    H1 3084   1.810   1.796   1.311 -0.2786 -0.4497 -1.0991
 1040TIP3    H2 3085   1.674   1.858   1.338  1.0344  1.5706  1.2940
 1041TIP3   OH2 3086   6.032   6.476   1.252  0.0493 -0.3220 -0.0263
 1041TIP3    H1 3087   6.062   6.386   1.268 -0.8705 -0.6373 -0.0104
 1041TIP3    H2 3088   5.964   6.490   1.318 -0.0696  0.2545 -0.2682
 1042TIP3   OH2 3089   0.060   1.961   0.501  0.1715  0.4211 -0.4995
 1042TIP3    H1 3090   0.091   1.889   0.445  1.5127  0.3605  0.2683
 1042TIP3    H2 3091   0.001   2.011   0.445 -1.3430 -1.6396 -0.8561
 1043TIP3   OH2 3092   2.321   5.142   4.342  0.3377 -0.1457  0.1535
 1043TIP3    H1 3093   2.254   5.074   4.336  0.0261  0.2210 -0.7278
 1043TIP3    H2 3094   2.358   5.147   4.253  2.1207 -0.9197  0.8099
 1044TIP3   OH2 3095   0.301   2.459   0.292 -0.3777 -0.0189 -0.4747
 1044TIP3    H1 3096   0.253   2.491   0.368 -0.0126 -2.2315  0.7535
 1044TIP3    H2 3097   0.389   2.442   0.325  0.3464  0.7515 -1.8828
 1045TIP3   OH2 3098   6.777   2.330   1.938 -0.2095  0.2950 -0.1522
 1045TIP3    H1 3099   6.694   2.348   1.981 -0.3995  0.0075 -0.3899
 1045TIP3    H2 3100   6.789   2.403   1.877 -1.2216 -0.6059 -1.4740
 1046TIP3   OH2 3101   6.347   5.086   5.631  0.0567  0.4202 -0.4314
 1046TIP3    H1 3102   6.359   5.030   5.708 -0.3280  2.0771  0.9115
 1046TIP3    H2 3103   6.392   5.040   5.560  0.3576 -1.2127  0.7475
 1047TIP3   OH2 3104   2.512  -0.002   3.402  0.1506 -0.1443 -0.0063
 1047TIP3    H1 3105   2.445   0.052   3.360  0.7664  0.2713 -0.4779
 1047TIP3    H2 3106   2.573   0.061   3.441 -0.9048 -0.5079  2.3985
 1048TIP3   OH2 3107   0.388   0.355   0.815 -0.5275  1.0996 -0.1735
 1048TIP3    H1 3108   0.467   0.316   0.851 -1.5215  0.1443  1.0874
 1048TIP3    H2 3109   0.383   0.321   0.726 -0.0706  0.3106  0.0916
 1049TIP3   OH2 3110   6.208   3.177   1.121  0.2695 -0.5825  0.0620
 1049TIP3    H1 3111   6.248   3.109   1.067 -1.0994 -1.0842 -0.3649
 1049TIP3    H2 3112   6.168   3.237   1.059 -0.2473 -0.4855  0.4860
 1050TIP3   OH2 3113   3.779   3.052   3.285 -0.4657 -0.0584  0.7104
 1050TIP3    H1 3114   3.709   3.040   3.348 -0.1295 -1.5897  0.8288
 1050TIP3    H2 3115   3.738   3.097   3.212 -1.3609 -0.1353  1.1490
 1051TIP3   OH2 3116   5.715   0.127   1.754  0.0481 -0.6498  0.1844
 1051TIP3    H1 3117   5.795   0.135   1.805 -0.4691  2.0880  0.7094
 1051TIP3    H2 3118   5.744   0.135   1.663  0.3235  1.5967  0.4155
 1052TIP3   OH2 3119   1.786   6.016   5.702  0.0887 -0.2925 -0.2727
 1052TIP3    H1 3120   1.810   6.108   5.693  0.6655 -0.4537 -0.4295
 1052TIP3    H2 3121   1.835   5.986   5.779  0.6610 -0.7115 -0.7939
 1053TIP3   OH2 3122   0.528   4.646   3.266 -0.1146 -0.0798 -0.7758
 1053TIP3    H1 3123   0.525   4.631   3.360  0.5188  0.0009 -0.7377
 1053TIP3    H2 3124   0.496   4.565   3.227  1.1845 -0.7358 -0.5248
 1054TIP3   OH2 3125   3.407   6.481   0.309 -0.3420 -0.3491  0.2887
 1054TIP3    H1 3126   3.469   6.506   0.239  0.1380 -0.9259  0.5017
 1054TIP3    H2 3127   3.378   6.394   0.284 -1.2159 -0.0080  0.0992
 1055TIP3   OH2 3128   1.562   1.127   1.395  0.0825 -0.1897  0.3178
 1055TIP3    H1 3129   1.527   1.131   1.306 -1.4854  0.6753  0.9350
 1055TIP3    H2 3130   1.584   1.034   1.408  2.1987 -0.0356 -1.6046
 1056TIP3   OH2 3131   3.704   1.957   0.245 -0.1202  0.0491  0.4237
 1056TIP3    H1 3132   3.677   1.897   0.175 -2.1610  0.0061  1.1700
 1056TIP3    H2 3133   3.742   2.032   0.199 -0.4121 -0.4654 -0.6897
 1057TIP3   OH2 3134   4.269   6.748   1.829 -0.3923 -0.2535  0.2996
 1057TIP3    H1 3135   4.177   6.725   1.813 -0.9066  0.6527  1.6663
 1057TIP3    H2 3136   4.266   6.799   1.911  1.5293 -1.6087  1.2810
 1058TIP3   OH2 3137   5.110   3.402   3.875  0.8931  0.5760  0.3241
 1058TIP3    H1 3138   5.033   3.346   3.860  1.1060  0.1277  0.8880
 1058TIP3    H2 3139   5.171   3.375   3.806  0.9768  0.1401  0.5627
 1059TIP3   OH2 3140   7.214   4.524   4.985 -0.5806  0.0066  0.3886
 1059TIP3    H1 3141   7.181   4.527   4.896  1.4135  1.0141 -0.3647
 1059TIP3    H2 3142   7.176   4.445   5.022 -1.6239 -0.3054 -1.2627
 1060TIP3   OH2 3143   0.805   6.316   0.102  0.5026 -0.1695  0.0744
 1060TIP3    H1 3144   0.814   6.275   0.188  0.5488 -3.2197 -1.2802
 1060TIP3    H2 3145   0.852   6.399   0.110  0.1958 -0.1720  3.0552
 1061TIP3   OH2 3146   0.895   0.797   0.952  0.0934  0.4704 -0.3681
 1061TIP3    H1 3147   0.903   0.763   1.041 -0.6626  0.3050 -0.3537
 1061TIP3    H2 3148   0.973   0.851   0.939  1.1509 -0.9873 -0.2730
 1062TIP3   OH2 3149   6.472   4.641   3.761  0.2935  0.3340  0.0666
 1062TIP3    H1 3150   6.539   4.700   3.726  1.6062 -0.9360  0.3542
 1062TIP3    H2 3151   6.468   4.661   3.854 -1.0838  1.6665 -0.2353
 1063TIP3   OH2 3152   1.278   3.857   0.429 -0.0902 -0.0716  0.0163
 1063TIP3    H1 3153   1.307   3.874   0.339 -2.9829 -2.0012 -1.4660
 1063TIP3    H2 3154   1.196   3.808   0.418 -0.5989 -0.3212  3.7503
 1064TIP3   OH2 3155   3.107   3.040   2.511 -0.4695  0.1731  0.2271
 1064TIP3    H1 3156   3.190   2.993   2.513 -0.5228  0.0013 -1.0796
 1064TIP3    H2 3157   3.050   2.990   2.569  0.9512  1.5932  3.1236
 1065TIP3   OH2 3158   6.041   3.346   0.207  0.6944  0.1745  0.2160
 1065TIP3    H1 3159   5.959   3.328   0.254 -0.1261  1.3516 -0.7108
 1065TIP3    H2 3160   6.024   3.319   0.117  1.2742  0.5708 -0.0170
 1066TIP3   OH2 3161   7.073   6.465   5.376  0.7357  0.5119  0.1675
 1066TIP3    H1 3162   7.074   6.491   5.468 -2.3291 -0.4446  0.5968
 1066TIP3    H2 3163   7.015   6.528   5.333  0.0446 -0.5446 -0.5262
 1067TIP3   OH2 3164   3.714   0.285   1.428 -0.0565 -0.4066 -0.6326
 1067TIP3    H1 3165   3.756   0.199   1.429  0.1578 -0.3265  1.4157
 1067TIP3    H2 3166   3.621   0.265   1.412 -0.3780 -1.2978  1.7812
 1068TIP3   OH2 3167   1.829   1.298   2.383 -0.3162  0.2171  0.2315
 1068TIP3    H1 3168   1.913   1.328   2.415 -0.3365  0.0702  0.4248
 1068TIP3    H2 3169   1.828   1.322   2.290  0.8316 -1.6819 -0.3140
 1069TIP3   OH2 3170   6.207   3.823   2.005  0.2213  0.0960  0.2527
 1069TIP3    H1 3171   6.255   3.775   2.072  0.9900 -0.6054 -0.7734
 1069TIP3    H2 3172   6.225   3.776   1.924 -1.0082  0.6912 -0.4000
 1070TIP3   OH2 3173   0.909   5.070   5.378 -0.1010  0.1099  0.0381
 1070TIP3    H1 3174   0.840   5.067   5.444 -0.3473  0.1803 -0.2115
 1070TIP3    H2 3175   0.862   5.070   5.294  0.1901  0.5887 -0.1270
 1071TIP3   OH2 3176   3.389   1.748   0.046  0.2833  0.5314  0.0488
 1071TIP3    H1 3177   3.373   1.707  -0.039  1.8145  0.1050 -0.0510
 1071TIP3    H2 3178   3.345   1.833   0.039  0.6602  0.6477 -1.2944
 1072TIP3   OH2 3179   5.592   4.269   5.020  0.2440  0.6831  0.0686
 1072TIP3    H1 3180   5.682   4.236   5.023  0.6801  1.5756 -1.7890
 1072TIP3    H2 3181   5.540   4.193   4.993  0.6764  0.5435 -0.3911
 1073TIP3   OH2 3182   2.266   3.937   1.931 -0.5447  0.6316  0.5501
 1073TIP3    H1 3183   2.293   4.029   1.936  1.2738  0.1653  0.0249
 1073TIP3    H2 3184   2.218   3.931   1.849 -0.2370  1.0199  0.3364
 1074TIP3   OH2 3185   6.264   0.646   2.074  0.1911  0.0240  0.1894
 1074TIP3    H1 3186   6.242   0.739   2.078 -0.2494 -0.1009  1.1265
 1074TIP3    H2 3187   6.334   0.640   2.009 -1.5066  0.6672 -1.8271
 1075TIP3   OH2 3188   0.994   0.356   5.156 -0.2153  0.1245 -0.1830
 1075TIP3    H1 3189   0.975   0.331   5.066 -1.0375  2.0517 -0.6013
 1075TIP3    H2 3190   0.928   0.423   5.177  0.6587  0.5293  1.4540
 1076TIP3   OH2 3191   1.070   5.078   0.934 -0.2945  0.0100  0.3135
 1076TIP3    H1 3192   1.117   4.997   0.952  0.7728  0.7670  1.0177
 1076TIP3    H2 3193   0.988   5.049   0.892  1.4306 -1.2835 -2.4613
 1077TIP3   OH2 3194   2.498   0.571   1.141  0.0661 -0.5296 -0.2023
 1077TIP3    H1 3195   2.567   0.619   1.185  1.9564 -0.8265 -2.6092
 1077TIP3    H2 3196   2.456   0.635   1.084 -1.6283 -0.3867  1.1291
 1078TIP3   OH2 3197   7.120   3.489   5.662 -0.6442 -0.0542 -0.1465
 1078TIP3    H1 3198   7.162   3.457   5.742 -1.1844 -0.3165  0.0383
 1078TIP3    H2 3199   7.044   3.538   5.693  1.4553  3.6469 -0.2612
 1079TIP3   OH2 3200   4.233   4.649   4.833  0.0984  0.3561  0.4338
 1079TIP3    H1 3201   4.150   4.607   4.813 -0.6468  1.0338  1.9811
 1079TIP3    H2 3202   4.240   4.720   4.769 -0.3540  0.1172  0.1157
 1080TIP3   OH2 3203   5.365   0.506   5.094 -0.9798  0.2914  0.2744
 1080TIP3    H1 3204   5.459   0.494   5.081 -1.4025 -2.5022 -0.8393
 1080TIP3    H2 3205   5.357   0.536   5.184  0.9387  0.0545  0.5688
 1081TIP3   OH2 3206   4.824   1.290   1.174 -0.3445 -0.1396  0.0983
 1081TIP3    H1 3207   4.910   1.296   1.131 -0.6719 -1.7446 -0.8409
 1081TIP3    H2 3208   4.810   1.197   1.188 -2.5562 -0.0363 -1.0217
 1082TIP3   OH2 3209   0.058   0.084   5.526 -0.0441 -0.1375 -0.3365
 1082TIP3    H1 3210   0.047   0.000   5.570  0.7912 -0.1701 -0.1652
 1082TIP3    H2 3211  -0.014   0.088   5.462 -0.2771 -0.8327 -0.1229
 1083TIP3   OH2 3212   2.832   5.502   3.591  0.2459 -0.4038  0.7548
 1083TIP3    H1 3213   2.746   5.544   3.590  0.0055 -0.8878  0.1564
 1083TIP3    H2 3214   2.888   5.564   3.638 -0.4801 -0.1923  1.3745
 1084TIP3   OH2 3215   0.174   5.905   1.623 -0.1645 -0.0494  0.7850
 1084TIP3    H1 3216   0.162   5.816   1.590 -0.1664  1.2030 -3.0037
 1084TIP3    H2 3217   0.086   5.942   1.625  0.0704  0.5447  0.1976
 1085TIP3   OH2 3218   5.158   1.564   0.489  0.1323  0.3801  0.2351
 1085TIP3    H1 3219   5.137   1.538   0.399 -1.7638  0.3163  0.6484
 1085TIP3    H2 3220   5.194   1.652   0.481  1.7466 -0.3373 -0.7284
 1086TIP3   OH2 3221   2.705   3.429   1.154  0.0185  0.8810  0.2524
 1086TIP3    H1 3222   2.764   3.391   1.088  0.7428  1.3490  0.6235
 1086TIP3    H2 3223   2.704   3.364   1.225  0.9695  1.3677  0.7271
 1087TIP3   OH2 3224   6.459   0.308   5.105  0.6802  0.1815  0.3813
 1087TIP3    H1 3225   6.371   0.279   5.131  1.4981 -0.8910  2.1530
 1087TIP3    H2 3226   6.499   0.229   5.068  0.7359  0.8059 -0.9136
 1088TIP3   OH2 3227   1.930   4.941   5.469  0.1023 -0.0852  0.0526
 1088TIP3    H1 3228   1.859   4.994   5.505  0.5338 -0.9610  2.4006
 1088TIP3    H2 3229   1.888   4.886   5.403 -1.3440 -0.3211  1.1293
 1089TIP3   OH2 3230   2.639   1.121   4.200 -0.6834  0.8242 -0.1486
 1089TIP3    H1 3231   2.584   1.120   4.278  1.8098 -0.8777  1.7455
 1089TIP3    H2 3232   2.607   1.048   4.146 -0.6973  0.2674  0.6047
 1090TIP3   OH2 3233   6.120   5.122   4.811  0.4446  0.4573 -0.5430
 1090TIP3    H1 3234   6.087   5.056   4.751  0.0654 -0.6886  0.8714
 1090TIP3    H2 3235   6.173   5.074   4.874  0.9755  1.6410 -0.0465
 1091TIP3   OH2 3236   0.041   4.823   0.436  0.4161 -0.3009  0.3078
 1091TIP3    H1 3237   0.134   4.839   0.450  0.1773  0.9364  0.5286
 1091TIP3    H2 3238   0.015   4.888   0.370 -0.5264  0.0938  1.0480
 1092TIP3   OH2 3239   5.412   5.385   3.085 -0.1457  0.1456  0.7156
 1092TIP3    H1 3240   5.374   5.420   3.005  0.4074  1.7682  1.1334
 1092TIP3    H2 3241   5.432   5.461   3.138 -0.0586 -0.8793  2.2162
 1093TIP3   OH2 3242   3.159   2.981   2.045 -0.0734 -0.1065 -0.4272
 1093TIP3    H1 3243   3.143   2.903   2.098  1.6716 -0.7286 -0.7577
 1093TIP3    H2 3244   3.158   3.053   2.108  0.5981 -0.6784  0.2645
 1094TIP3   OH2 3245   6.289   4.820   0.673  0.1577 -0.0709  0.2663
 1094TIP3    H1 3246   6.202   4.838   0.638 -0.7635 -2.7418  0.9393
 1094TIP3    H2 3247   6.346   4.819   0.596 -0.7222 -0.0019 -0.4044
 1095TIP3   OH2 3248   0.065   1.632   0.934 -0.1097  0.5222  0.6697
 1095TIP3    H1 3249   0.092   1.685   0.859  0.5674 -1.8420 -0.8586
 1095TIP3    H2 3250   0.142   1.581   0.957 -0.9959 -0.5112  1.4442
 1096TIP3   OH2 3251   1.646   6.171   0.703  0.4332 -0.4169  0.3805
 1096TIP3    H1 3252   1.691   6.166   0.787 -0.4347 -0.8113  0.8419
 1096TIP3    H2 3253   1.695   6.236   0.653  0.3614  0.5879  1.5694
 1097TIP3   OH2 3254   2.321   3.115   4.857  0.4583 -0.0533 -0.1345
 1097TIP3    H1 3255   2.324   3.181   4.926  1.0634  0.4311 -0.6166
 1097TIP3    H2 3256   2.229   3.089   4.853  0.0309  1.4365 -0.5744
 1098TIP3   OH2 3257   3.106   1.319   0.792  0.4497 -0.2782  0.1496
 1098TIP3    H1 3258   3.113   1.413   0.808  2.1369 -0.4683  0.6703
 1098TIP3    H2 3259   3.016   1.297   0.818 -0.2317  1.3106 -0.7333
 1099TIP3   OH2 3260   0.448   4.408   1.153  0.2457 -0.0913 -0.1437
 1099TIP3    H1 3261   0.531   4.447   1.179  1.5635 -1.3917 -2.1603
 1099TIP3    H2 3262   0.382   4.474   1.176  1.8368  1.1183  1.1535
 1100TIP3   OH2 3263   7.000   2.815   5.000 -0.6847  0.3176 -0.4067
 1100TIP3    H1 3264   7.016   2.902   5.037  2.6221 -0.3303 -0.0609
 1100TIP3    H2 3265   7.021   2.824   4.907 -0.9987  0.0502 -0.5054
 1101TIP3   OH2 3266   4.450   2.827   0.863  1.1737  0.4933 -0.2492
 1101TIP3    H1 3267   4.453   2.770   0.940 -0.9752  0.8027  0.1173
 1101TIP3    H2 3268   4.416   2.771   0.793 -1.3617  1.3563  0.2139
 1102TIP3   OH2 3269   6.264   1.595   1.658 -0.0065  0.2544 -0.1421
 1102TIP3    H1 3270   6.206   1.655   1.610 -0.9164  1.0914  1.8682
 1102TIP3    H2 3271   6.208   1.558   1.726  0.8002 -2.1917 -0.7192
 1103TIP3   OH2 3272   6.383   2.051   5.581  0.1783  0.0095  0.2230
 1103TIP3    H1 3273   6.446   2.098   5.526  1.3576  0.7217  2.0854
 1103TIP3    H2 3274   6.336   2.119   5.628 -0.0621 -0.5908  0.8773
 1104TIP3   OH2 3275   6.035   3.085   1.334  0.0689 -0.2310 -0.2009
 1104TIP3    H1 3276   6.074   3.090   1.247 -1.4256  0.4995 -0.8572
 1104TIP3    H2 3277   5.981   3.163   1.341 -1.1831 -1.1400  0.7206
 1105TIP3   OH2 3278   2.688   4.325   4.895  0.0871 -0.1633  0.1850
 1105TIP3    H1 3279   2.640   4.243   4.906 -1.3051  0.5820 -0.0797
 1105TIP3    H2 3280   2.758   4.321   4.961  0.1001 -1.5743  0.1223
 1106TIP3   OH2 3281   0.656   3.486   1.139 -0.5836  0.1866 -0.0965
 1106TIP3    H1 3282   0.626   3.404   1.178  1.3634 -0.0083  1.1115
 1106TIP3    H2 3283   0.627   3.554   1.200 -1.9615  0.4165 -0.9612
 1107TIP3   OH2 3284   2.586   2.932   3.227 -0.2288 -0.3061  0.5135
 1107TIP3    H1 3285   2.540   2.855   3.194 -0.1329 -1.1748  2.3072
 1107TIP3    H2 3286   2.641   2.899   3.298 -0.6553  1.5075  1.7402
 1108TIP3   OH2 3287   6.635   3.784   0.319 -0.1943 -0.5369  0.0442
 1108TIP3    H1 3288   6.555   3.770   0.369 -0.2705 -2.3967 -0.5262
 1108TIP3    H2 3289   6.642   3.707   0.263  0.3920  1.0083 -2.1311
 1109TIP3   OH2 3290   1.121   5.032   4.039 -0.1601 -0.2521 -0.3342
 1109TIP3    H1 3291   1.098   5.050   4.130 -0.6844 -1.9279 -0.0943
 1109TIP3    H2 3292   1.197   5.087   4.022 -1.6305  2.1302  0.2514
 1110TIP3   OH2 3293   0.390   2.401   2.180  0.5963 -0.9790  0.1219
 1110TIP3    H1 3294   0.326   2.394   2.250  0.2908 -1.1000 -0.1688
 1110TIP3    H2 3295   0.411   2.311   2.157 -0.2739 -0.9599 -0.8218
 1111TIP3   OH2 3296   5.058   1.365   1.478 -0.1988  0.1832  0.6002
 1111TIP3    H1 3297   4.966   1.377   1.456  0.0039  0.1896 -0.2565
 1111TIP3    H2 3298   5.073   1.271   1.468 -0.3147  0.0519  1.5646
 1112TIP3   OH2 3299   6.844   4.263   2.844 -0.3132 -0.1413  0.2909
 1112TIP3    H1 3300   6.911   4.282   2.778  0.7199 -0.6227  1.1688
 1112TIP3    H2 3301   6.784   4.203   2.800  0.4546 -0.5958 -0.1536
 1113TIP3   OH2 3302   1.177   5.279   3.512  0.0726  0.2426 -0.2756
 1113TIP3    H1 3303   1.153   5.216   3.580 -0.6859  0.8828  0.0729
 1113TIP3    H2 3304   1.093   5.312   3.481  0.4350  3.2970  1.6352
 1114TIP3   OH2 3305   5.037   4.996   4.435 -0.2863  0.2969 -0.0201
 1114TIP3    H1 3306   4.942   5.004   4.437 -0.3741  0.2131 -2.0715
 1114TIP3    H2 3307   5.054   4.903   4.453 -0.6257  0.1856 -0.2681
 1115TIP3   OH2 3308   1.335   6.064   4.067 -0.0518 -0.0200  0.1460
 1115TIP3    H1 3309   1.294   5.979   4.054  0.5695 -0.3660  0.4315
 1115TIP3    H2 3310   1.353   6.069   4.161  1.3311 -0.2460 -0.0769
 1116TIP3   OH2 3311   1.834   1.359   2.106  0.3966  0.3178 -0.0816
 1116TIP3    H1 3312   1.827   1.414   2.028 -0.0396 -3.5270 -3.0490
 1116TIP3    H2 3313   1.771   1.288   2.092  4.4905 -4.0003  0.4939
 1117TIP3   OH2 3314   6.557   2.523   5.222 -0.3260 -0.2347  1.1700
 1117TIP3    H1 3315   6.593   2.468   5.291 -0.2520 -0.2697  1.1031
 1117TIP3    H2 3316   6.580   2.612   5.249  1.7356 -0.3829  0.0276
 1118TIP3   OH2 3317   7.139   4.171   4.295  0.1130  0.3297 -0.1570
 1118TIP3    H1 3318   7.141   4.209   4.383  0.5848 -0.2193  0.0778
 1118TIP3    H2 3319   7.180   4.237   4.239  2.2553 -0.3832  0.4782
 1119TIP3   OH2 3320   2.830   0.574   5.583 -0.3350 -0.8017 -0.2562
 1119TIP3    H1 3321   2.851   0.643   5.645  0.3337 -0.4487 -0.8594
 1119TIP3    H2 3322   2.887   0.590   5.508 -1.5878 -0.8196 -1.2578
 1120TIP3   OH2 3323   0.034   5.372   5.061  0.4571  0.2772  0.2800
 1120TIP3    H1 3324   0.029   5.345   4.970  2.3487  1.5610 -0.2718
 1120TIP3    H2 3325  -0.055   5.359   5.095  0.5782 -3.9632 -0.5683
 1121TIP3   OH2 3326   0.410   3.848   3.040  0.1184  0.2821 -0.2868
 1121TIP3    H1 3327   0.489   3.803   3.010  0.8867 -0.3152  2.3528
 1121TIP3    H2 3328   0.358   3.780   3.083 -0.7414  1.1289  0.0630
 1122TIP3   OH2 3329   1.181   2.643   3.623  0.2113  0.0294  0.3109
 1122TIP3    H1 3330   1.195   2.694   3.543  0.4595 -0.8547 -0.2311
 1122TIP3    H2 3331   1.128   2.700   3.679  0.6607  0.9547 -0.1804
 1123TIP3   OH2 3332   2.727   0.135   1.915  0.3847 -0.7105 -0.0050
 1123TIP3    H1 3333   2.805   0.103   1.870  0.0695  0.0674 -1.1505
 1123TIP3    H2 3334   2.759   0.163   2.001  1.3611 -0.4331 -0.4456
 1124TIP3   OH2 3335   5.019   1.336   4.166  0.1206  0.2020 -0.0353
 1124TIP3    H1 3336   5.092   1.360   4.109 -0.4577 -1.2830 -1.4807
 1124TIP3    H2 3337   4.959   1.289   4.109 -1.9537  1.2878  1.1371
 1125TIP3   OH2 3338   5.852   5.681   3.383  0.1707  0.1522 -0.8769
 1125TIP3    H1 3339   5.925   5.630   3.348  0.3625 -0.4523  0.3239
 1125TIP3    H2 3340   5.776   5.623   3.376  0.3857 -0.3388  0.4759
 1126TIP3   OH2 3341   2.489   6.341   4.744  0.0633 -0.2412 -0.1101
 1126TIP3    H1 3342   2.548   6.415   4.754  1.2325 -1.2121  0.4561
 1126TIP3    H2 3343   2.466   6.341   4.651  1.1825 -0.0066 -0.4014
 1127TIP3   OH2 3344   5.036   0.037   3.767 -0.2290  0.4054 -0.2379
 1127TIP3    H1 3345   5.048   0.068   3.677  0.3663 -0.2884 -0.4051
 1127TIP3    H2 3346   4.961  -0.023   3.761  0.4172 -0.4042 -0.4769
 1128TIP3   OH2 3347   6.585   6.438   4.382  0.4575  0.0104  0.2202
 1128TIP3    H1 3348   6.667   6.456   4.428  0.8927 -1.6398  0.1323
 1128TIP3    H2 3349   6.533   6.389   4.446  0.3277 -0.6803 -0.4158
 1129TIP3   OH2 3350   2.591   1.590   2.244  0.2748  0.1116 -0.4623
 1129TIP3    H1 3351   2.579   1.684   2.233 -2.2610 -0.1786 -0.8147
 1129TIP3    H2 3352   2.533   1.567   2.317 -0.1701 -1.3324 -1.2186
 1130TIP3   OH2 3353   5.740   5.497   1.212  0.0226 -0.3428 -0.1764
 1130TIP3    H1 3354   5.655   5.541   1.216  0.5913  0.7670  0.1787
 1130TIP3    H2 3355   5.733   5.440   1.135 -0.7048  0.4700 -0.7390
 1131TIP3   OH2 3356   4.986   5.519   2.880 -0.2663  0.4815  0.0044
 1131TIP3    H1 3357   5.071   5.544   2.918 -1.4152  1.1107  2.3249
 1131TIP3    H2 3358   4.991   5.423   2.873  0.8815  0.5575 -0.6370
 1132TIP3   OH2 3359   1.879   0.565   4.442  0.5079  0.3927 -0.1574
 1132TIP3    H1 3360   1.859   0.627   4.373 -2.5380 -0.8594 -0.5771
 1132TIP3    H2 3361   1.848   0.607   4.523  0.0313  0.1135 -0.1933
 1133TIP3   OH2 3362   1.695   3.483   2.919 -0.5611 -0.2055  0.4385
 1133TIP3    H1 3363   1.711   3.518   2.832 -1.3415 -1.3637 -0.1921
 1133TIP3    H2 3364   1.719   3.391   2.913  0.1623 -0.1347  1.6934
 1134TIP3   OH2 3365   6.682   6.382   1.127  0.3774 -0.3652  0.3878
 1134TIP3    H1 3366   6.670   6.467   1.168  0.1384 -0.7011  1.0237
 1134TIP3    H2 3367   6.708   6.324   1.198  0.6861 -0.7915 -0.0660
 1135TIP3   OH2 3368   0.798   4.043   1.827  0.6080  0.0533  0.2229
 1135TIP3    H1 3369   0.788   3.969   1.768  0.1196 -0.6544  1.1684
 1135TIP3    H2 3370   0.876   4.090   1.795 -0.3418  0.4080 -1.7206
 1136TIP3   OH2 3371   1.728   2.879   4.637 -0.4868  0.0458  0.3475
 1136TIP3    H1 3372   1.753   2.806   4.694  0.4214 -0.4449 -0.6330
 1136TIP3    H2 3373   1.811   2.925   4.620 -0.6232 -0.1695 -1.0315
 1137TIP3   OH2 3374   3.672   5.703   5.894  0.6140  0.3595  0.2767
 1137TIP3    H1 3375   3.688   5.732   5.804 -0.5295  1.5320  0.4140
 1137TIP3    H2 3376   3.577   5.708   5.904  0.7118  0.1365  1.5081
 1138TIP3   OH2 3377   0.201   3.965   3.379  0.5240  0.1126  0.6260
 1138TIP3    H1 3378   0.109   3.962   3.353  0.9753  0.0998 -1.0840
 1138TIP3    H2 3379   0.203   3.927   3.467 -1.0997  0.1766  0.7101
 1139TIP3   OH2 3380   5.867   3.391   4.333 -0.3032 -0.7073 -0.6717
 1139TIP3    H1 3381   5.797   3.328   4.347 -0.7270 -0.2551 -0.7247
 1139TIP3    H2 3382   5.939   3.359   4.388 -0.7384 -0.8813 -0.1889
 1140TIP3   OH2 3383   0.730   4.351   0.863 -0.0232  0.6823  0.1580
 1140TIP3    H1 3384   0.668   4.380   0.796 -1.0736  1.1014  1.2790
 1140TIP3    H2 3385   0.683   4.284   0.912  1.5439 -1.3410 -0.9016
 1141TIP3   OH2 3386   2.356   2.976   4.609 -0.2453 -0.1970  0.4834
 1141TIP3    H1 3387   2.342   3.013   4.697 -0.4247  1.6302 -0.2764
 1141TIP3    H2 3388   2.318   3.041   4.550 -0.4066 -1.5552 -0.9521
 1142TIP3   OH2 3389   2.495   3.679   3.173 -0.8781 -0.1915  0.7418
 1142TIP3    H1 3390   2.404   3.694   3.200 -1.9288 -0.4207 -2.2901
 1142TIP3    H2 3391   2.488   3.645   3.084  2.2290  0.4949  0.1320
 1143TIP3   OH2 3392   2.851   2.547   5.027  0.3293  0.2424  0.3916
 1143TIP3    H1 3393   2.770   2.532   4.979  0.1751 -0.8288  0.9415
 1143TIP3    H2 3394   2.886   2.628   4.992 -1.6149  1.4013  1.0186
 1144TIP3   OH2 3395   5.456   5.706   3.020  0.3555  0.3391 -0.0957
 1144TIP3    H1 3396   5.533   5.744   3.061  0.4439 -0.8487  0.8800
 1144TIP3    H2 3397   5.486   5.679   2.933  1.0205 -0.0149  0.2379
 1145TIP3   OH2 3398   5.705   1.207   0.789  0.7615  0.4692  0.5001
 1145TIP3    H1 3399   5.682   1.223   0.697 -0.2577 -0.3882  0.5870
 1145TIP3    H2 3400   5.628   1.235   0.838  2.1057  3.0258  1.3228
 1146TIP3   OH2 3401   3.082   3.960   2.236 -0.0892  0.4006 -0.5539
 1146TIP3    H1 3402   3.034   3.935   2.315  0.5323 -0.2759 -0.3811
 1146TIP3    H2 3403   3.169   3.922   2.248  0.2540  0.9640 -1.2102
 1147TIP3   OH2 3404   0.467   1.109   5.582  0.7797  0.1530 -0.3400
 1147TIP3    H1 3405   0.430   1.158   5.509  0.8405 -0.1782 -0.5971
 1147TIP3    H2 3406   0.539   1.164   5.614  0.6467  0.3756 -0.4223
 1148TIP3   OH2 3407   6.107   0.307   4.791 -0.5553  0.0448 -0.6956
 1148TIP3    H1 3408   6.115   0.295   4.697  1.2912 -1.8956 -0.3849
 1148TIP3    H2 3409   6.120   0.401   4.805  0.8569  0.1308 -2.2840
 1149TIP3   OH2 3410   5.915   2.572   0.818 -0.2310 -0.1219  0.0521
 1149TIP3    H1 3411   5.874   2.527   0.892 -0.4143  1.8460  1.2176
 1149TIP3    H2 3412   6.008   2.555   0.829 -0.4447 -3.6440 -1.9520
 1150TIP3   OH2 3413   3.887   4.532   2.015 -0.3417 -0.1136  0.4290
 1150TIP3    H1 3414   3.794   4.535   2.037 -0.1843  0.5255  1.0597
 1150TIP3    H2 3415   3.901   4.445   1.978 -0.9729 -0.6049  1.3135
 1151TIP3   OH2 3416   4.184   6.450   3.902 -0.4602 -0.3746 -0.5054
 1151TIP3    H1 3417   4.091   6.436   3.923 -0.6323 -0.6586 -1.4019
 1151TIP3    H2 3418   4.202   6.389   3.830 -0.0928  0.9866 -1.6172
 1152TIP3   OH2 3419   1.681   4.296   2.561 -0.3882 -0.2681  0.3411
 1152TIP3    H1 3420   1.705   4.206   2.538  1.0927  0.2091 -0.0935
 1152TIP3    H2 3421   1.695   4.346   2.481 -3.2761  0.0441 -0.0832
 1153TIP3   OH2 3422   4.978   3.383   4.629  0.1161  0.2421  0.1410
 1153TIP3    H1 3423   4.955   3.295   4.599  0.1890 -0.0371  0.8955
 1153TIP3    H2 3424   4.971   3.379   4.724 -2.6330  1.8078  0.1144
 1154TIP3   OH2 3425   0.312   0.881   1.933  0.2592  0.3794 -0.2874
 1154TIP3    H1 3426   0.368   0.809   1.904 -0.7065 -0.0690 -1.0969
 1154TIP3    H2 3427   0.316   0.877   2.029  1.4693  0.2586 -0.3305
 1155TIP3   OH2 3428   6.571   3.188   1.219  0.4839  0.2849 -0.2369
 1155TIP3    H1 3429   6.536   3.204   1.131  2.0208  0.9081 -0.7639
 1155TIP3    H2 3430   6.604   3.273   1.247 -0.7380  0.2954  1.3221
 1156TIP3   OH2 3431   3.196   1.463   5.861 -0.6293 -0.3102 -1.0319
 1156TIP3    H1 3432   3.253   1.538   5.844 -0.2585 -0.8733 -2.3995
 1156TIP3    H2 3433   3.147   1.487   5.939  0.0567  1.0173 -0.9867
 1157TIP3   OH2 3434   5.618   3.843   0.885 -0.8741 -0.1367 -0.1180
 1157TIP3    H1 3435   5.620   3.929   0.927 -0.5093 -0.4701  0.5684
 1157TIP3    H2 3436   5.609   3.781   0.957 -1.9041 -0.6432 -0.6626
 1158TIP3   OH2 3437   6.658   3.328   3.100 -0.1641 -0.5875 -0.3293
 1158TIP3    H1 3438   6.692   3.396   3.159 -2.7176  0.0154  0.6077
 1158TIP3    H2 3439   6.733   3.273   3.081  1.8897  2.0580 -0.5580
 1159TIP3   OH2 3440   6.927   2.843   3.703 -0.1541 -0.2101 -0.0030
 1159TIP3    H1 3441   6.930   2.916   3.765  0.5856 -1.7335  1.8698
 1159TIP3    H2 3442   7.019   2.827   3.681 -0.3330 -0.4068 -0.6251
 1160TIP3   OH2 3443   0.616   4.010   3.697  0.7555 -0.3451 -0.0524
 1160TIP3    H1 3444   0.596   4.034   3.606 -0.4907 -0.5106  0.1618
 1160TIP3    H2 3445   0.702   3.968   3.692  1.1213  0.4675 -1.0187
 1161TIP3   OH2 3446   5.748   2.604   2.334 -0.2006 -0.4108  0.2133
 1161TIP3    H1 3447   5.686   2.538   2.304  0.6190 -1.0342 -0.1547
 1161TIP3    H2 3448   5.749   2.670   2.264 -0.0820 -0.6480 -0.0096
 1162TIP3   OH2 3449   6.944   6.653   0.381 -0.3945 -0.1426 -0.4298
 1162TIP3    H1 3450   7.039   6.654   0.369 -0.5771  1.7932 -2.3274
 1162TIP3    H2 3451   6.923   6.562   0.399  1.2661 -1.8394 -5.4595
 1163TIP3   OH2 3452   0.244   1.889   3.392  0.0485  0.4050  0.1816
 1163TIP3    H1 3453   0.213   1.818   3.335 -1.3261  1.8426 -0.9896
 1163TIP3    H2 3454   0.338   1.895   3.374 -0.0188 -0.4090 -0.5106
 1164TIP3   OH2 3455   2.921   4.430   0.389 -0.2136 -0.3058  0.5916
 1164TIP3    H1 3456   2.872   4.497   0.438  0.5950 -0.3732  1.5064
 1164TIP3    H2 3457   2.945   4.474   0.307 -1.2961 -0.0892  0.3763
 1165TIP3   OH2 3458   2.744   3.445   2.798  0.1987  0.5935 -0.0199
 1165TIP3    H1 3459   2.670   3.384   2.796  0.2281  0.5395 -2.4692
 1165TIP3    H2 3460   2.767   3.451   2.891 -1.4070 -1.1484  0.5698
 1166TIP3   OH2 3461   5.486   6.534   5.306  0.2311 -0.4374 -0.4951
 1166TIP3    H1 3462   5.453   6.550   5.218 -0.7553  0.8996  0.0950
 1166TIP3    H2 3463   5.575   6.501   5.292 -0.5032 -1.9700 -2.0315
 1167TIP3   OH2 3464   4.645   3.429   4.803 -0.1296  0.0295 -0.4778
 1167TIP3    H1 3465   4.587   3.473   4.740  0.0476  0.0054 -0.6565
 1167TIP3    H2 3466   4.630   3.336   4.788  1.8706 -0.0713 -2.3525
 1168TIP3   OH2 3467   1.760   2.408   2.708  0.1658  0.5787 -0.1517
 1168TIP3    H1 3468   1.680   2.368   2.673  0.5054 -1.4741  1.2573
 1168TIP3    H2 3469   1.729   2.461   2.782  0.0353  0.2602  0.0259
 1169TIP3   OH2 3470   2.881   5.608   5.299 -0.1492 -0.2071  0.4019
 1169TIP3    H1 3471   2.947   5.571   5.358 -1.6273 -0.8441  1.7424
 1169TIP3    H2 3472   2.837   5.675   5.352 -1.0555 -0.3226 -0.1846
 1170TIP3   OH2 3473   0.054   6.573   4.600 -0.6941  0.0070 -0.0884
 1170TIP3    H1 3474   0.013   6.657   4.580  0.4269  1.0353  1.7030
 1170TIP3    H2 3475   0.136   6.573   4.551 -0.0512  0.5881  0.9503
 1171TIP3   OH2 3476   2.423   3.370   4.592 -0.4152 -0.2865 -0.2511
 1171TIP3    H1 3477   2.344   3.322   4.569 -0.1607 -0.4291 -0.8593
 1171TIP3    H2 3478   2.478   3.365   4.513  0.9450 -1.6929  0.7069
 1172TIP3   OH2 3479   5.821   5.479   3.900  0.3910 -0.1159 -0.5160
 1172TIP3    H1 3480   5.745   5.422   3.908  0.7830 -0.7946 -1.5492
 1172TIP3    H2 3481   5.806   5.528   3.819  0.7125  0.2848 -0.3380
 1173TIP3   OH2 3482   4.034   1.232   1.721  0.5617 -0.5318 -0.2206
 1173TIP3    H1 3483   4.019   1.311   1.774  0.9480  0.4932 -1.5994
 1173TIP3    H2 3484   3.952   1.221   1.672  0.0941 -1.6493  0.7439
 1174TIP3   OH2 3485   3.583   5.535   1.457  0.0864  0.2213 -0.2603
 1174TIP3    H1 3486   3.504   5.569   1.499  0.6736  1.5048 -0.1386
 1174TIP3    H2 3487   3.633   5.613   1.435  0.7299 -0.5153 -1.5153
 1175TIP3   OH2 3488   4.702   3.725   3.508 -0.1229 -0.1903  0.2535
 1175TIP3    H1 3489   4.645   3.800   3.487 -0.4118 -0.4212  0.2075
 1175TIP3    H2 3490   4.673   3.656   3.449 -0.0634 -0.4345  0.5092
 1176TIP3   OH2 3491   3.899   6.177   3.789 -0.5203 -0.4017  0.3745
 1176TIP3    H1 3492   3.832   6.231   3.831  0.5586  1.0004  0.3773
 1176TIP3    H2 3493   3.901   6.207   3.698 -0.2384 -0.7743  0.2541
 1177TIP3   OH2 3494   2.355   6.102   5.567 -0.0301  0.2651 -0.0995
 1177TIP3    H1 3495   2.449   6.112   5.552 -0.0615  0.1569 -0.3676
 1177TIP3    H2 3496   2.316   6.099   5.480 -0.4179  1.5494  0.0108
 1178TIP3   OH2 3497   5.632   5.695   2.785  0.1359 -0.1304 -0.5961
 1178TIP3    H1 3498   5.572   5.770   2.779  0.6301  0.4049  0.7638
 1178TIP3    H2 3499   5.718   5.733   2.766  0.4142 -0.3063  0.2896
 1179TIP3   OH2 3500   4.942   3.392   1.439  0.1357 -0.5467  0.0588
 1179TIP3    H1 3501   4.892   3.451   1.382 -0.3672 -1.5973 -0.6279
 1179TIP3    H2 3502   4.885   3.316   1.449  0.2543 -0.4178  1.9389
 1180TIP3   OH2 3503   0.845   3.933   0.035  0.7397 -0.4613 -0.7052
 1180TIP3    H1 3504   0.790   3.861   0.063  2.0151 -0.5816  1.7197
 1180TIP3    H2 3505   0.802   4.012   0.069  0.7097 -0.3175 -1.0717
 1181TIP3   OH2 3506   4.720   1.456   2.721  0.5696  0.2433  0.6837
 1181TIP3    H1 3507   4.681   1.377   2.682 -0.1225  0.0130  1.8000
 1181TIP3    H2 3508   4.708   1.444   2.815  0.5244  1.6556  0.8715
 1182TIP3   OH2 3509   6.730   3.396   3.586 -0.1435  0.1249  0.5180
 1182TIP3    H1 3510   6.651   3.389   3.641  0.6953 -1.6846  1.6076
 1182TIP3    H2 3511   6.715   3.333   3.515  0.4672 -0.5551  0.9743
 1183TIP3   OH2 3512   3.468   0.532   3.572  0.9003 -0.8592 -0.1966
 1183TIP3    H1 3513   3.396   0.522   3.510  1.3927 -0.1778 -0.9006
 1183TIP3    H2 3514   3.451   0.466   3.639  0.2693 -1.5078 -0.9679
 1184TIP3   OH2 3515   6.907   3.526   0.399 -0.3254 -0.3354  0.2471
 1184TIP3    H1 3516   6.920   3.619   0.377 -0.4664 -0.4248 -0.2085
 1184TIP3    H2 3517   6.952   3.516   0.483  1.5858 -0.3529 -0.7174
 1185TIP3   OH2 3518   5.103   3.774   4.344 -0.6946  0.6840 -0.1589
 1185TIP3    H1 3519   5.134   3.706   4.404 -1.1805  1.2342  0.7389
 1185TIP3    H2 3520   5.113   3.736   4.257  4.2530  1.4097 -0.1798
 1186TIP3   OH2 3521   0.298   1.801   2.556  0.5649  0.2025  0.7658
 1186TIP3    H1 3522   0.343   1.748   2.490  0.4485  0.3911  0.5327
 1186TIP3    H2 3523   0.347   1.883   2.558 -1.1628  1.3976 -1.2669
 1187TIP3   OH2 3524   5.822   5.348   4.636 -0.5019 -0.9001 -0.1954
 1187TIP3    H1 3525   5.916   5.347   4.654 -0.3856 -1.8125 -0.7912
 1187TIP3    H2 3526   5.815   5.321   4.545 -1.2300  1.2154 -0.8201
 1188TIP3   OH2 3527   1.420   3.272   1.262 -0.6952  0.6378  0.0617
 1188TIP3    H1 3528   1.457   3.195   1.217 -1.7559 -1.1596  2.1014
 1188TIP3    H2 3529   1.335   3.285   1.221 -1.2759 -0.4268  0.8999
 1189TIP3   OH2 3530   5.937   5.937   0.255 -0.6450  0.4766  0.4010
 1189TIP3    H1 3531   5.949   5.992   0.178 -0.1988 -0.2769 -0.0828
 1189TIP3    H2 3532   6.022   5.894   0.267 -0.7626  0.4481  1.2104
 1190TIP3   OH2 3533   4.894   4.758   2.417 -0.6487  0.3542 -0.1719
 1190TIP3    H1 3534   4.908   4.762   2.322 -0.6112 -0.0423 -0.1836
 1190TIP3    H2 3535   4.840   4.680   2.430 -0.0349 -0.0122  0.2071
 1191TIP3   OH2 3536   2.098   6.032   5.321  0.5499 -0.0532  0.1682
 1191TIP3    H1 3537   2.034   5.973   5.363 -1.6502 -0.4287 -3.3156
 1191TIP3    H2 3538   2.063   6.120   5.337  0.4523 -0.1055  0.2486
 1192TIP3   OH2 3539   2.737   5.717   1.688 -0.0272 -0.1348  0.1981
 1192TIP3    H1 3540   2.772   5.630   1.709 -0.3702 -0.5211 -0.7898
 1192TIP3    H2 3541   2.724   5.758   1.774  1.5083 -0.4914  0.6527
 1193TIP3   OH2 3542   4.973   5.195   1.552  0.0322 -0.4111 -0.2873
 1193TIP3    H1 3543   4.917   5.147   1.613  2.0655 -2.8212 -0.1985
 1193TIP3    H2 3544   4.937   5.284   1.553 -3.2123 -1.5821  0.4075
 1194TIP3   OH2 3545   2.584   2.340   1.018  0.0920  0.6702 -0.6213
 1194TIP3    H1 3546   2.651   2.394   1.060 -0.0370 -0.9064  1.7331
 1194TIP3    H2 3547   2.634   2.278   0.965  0.4327  0.4392 -0.0366
 1195TIP3   OH2 3548   6.813   4.123   3.534 -0.2683 -0.3511  0.5662
 1195TIP3    H1 3549   6.897   4.165   3.520 -0.4361 -0.3730 -0.5850
 1195TIP3    H2 3550   6.812   4.049   3.474 -0.7027 -0.9600  1.3008
 1196TIP3   OH2 3551   6.636   5.822   3.303  0.1631 -0.4635 -0.2616
 1196TIP3    H1 3552   6.668   5.912   3.307  2.4465 -1.1337 -1.8115
 1196TIP3    H2 3553   6.659   5.792   3.216  2.0692 -3.4231  1.1016
 1197TIP3   OH2 3554   4.622   2.419   5.282 -0.0701 -0.0682 -0.0349
 1197TIP3    H1 3555   4.609   2.401   5.189  1.5015 -0.9584 -0.1112
 1197TIP3    H2 3556   4.702   2.472   5.286 -0.8760  1.1493  0.7232
 1198TIP3   OH2 3557   3.931   5.037   2.580 -0.2005  0.3563 -0.2254
 1198TIP3    H1 3558   3.917   5.057   2.487  0.4816 -0.4521 -0.5090
 1198TIP3    H2 3559   3.990   5.106   2.611  1.2789 -0.5366 -0.9344
 1199TIP3   OH2 3560   1.347   5.577   0.482  0.1276  0.1215 -0.1807
 1199TIP3    H1 3561   1.361   5.632   0.405  0.2294 -0.9580 -0.9657
 1199TIP3    H2 3562   1.412   5.606   0.545 -0.1556  1.2318 -0.3844
 1200TIP3   OH2 3563   0.611   6.348   4.593  0.2966 -0.2627 -0.0300
 1200TIP3    H1 3564   0.569   6.339   4.507  0.6568 -0.4793 -0.1833
 1200TIP3    H2 3565   0.649   6.435   4.591  0.1576 -0.2007 -0.0230
 1201TIP3   OH2 3566   6.199   0.483   2.481  0.1612 -0.3588 -0.3901
 1201TIP3    H1 3567   6.156   0.424   2.420  0.8873 -2.0220  0.6208
 1201TIP3    H2 3568   6.277   0.435   2.511  0.0228  0.5093  1.5698
 1202TIP3   OH2 3569   0.795   6.023   1.110  0.2497 -0.2458  0.0673
 1202TIP3    H1 3570   0.701   6.036   1.097  0.2480 -0.4608 -0.1351
 1202TIP3    H2 3571   0.801   5.965   1.185  0.2304  0.0274  0.2837
 1203TIP3   OH2 3572   5.410   6.763   0.530 -0.3296  0.6965  0.1530
 1203TIP3    H1 3573   5.333   6.818   0.546 -1.0955 -0.4248  0.4129
 1203TIP3    H2 3574   5.405   6.694   0.597  0.2268 -0.0967 -0.6028
 1204TIP3   OH2 3575   4.260   6.219   5.528 -0.1034 -0.3320 -0.3469
 1204TIP3    H1 3576   4.299   6.237   5.442  0.9647 -3.1065 -0.5494
 1204TIP3    H2 3577   4.286   6.293   5.582  1.6547  0.1021 -1.6839
 1205TIP3   OH2 3578   1.605   5.941   1.783 -0.0807  0.1452  0.4780
 1205TIP3    H1 3579   1.599   5.951   1.688  1.7908 -1.2792  0.1541
 1205TIP3    H2 3580   1.580   5.851   1.800  3.1296 -0.8369  0.8133
 1206TIP3   OH2 3581   2.251   1.852   1.813  0.3586 -0.5401 -0.1646
 1206TIP3    H1 3582   2.266   1.802   1.733  0.4389 -0.5629 -0.1356
 1206TIP3    H2 3583   2.275   1.792   1.884 -2.6306 -1.6658  0.0502
 1207TIP3   OH2 3584   2.366   4.453   0.313 -0.5029  0.6599 -0.5548
 1207TIP3    H1 3585   2.385   4.462   0.407  2.2023 -0.5428 -0.8926
 1207TIP3    H2 3586   2.384   4.539   0.277  1.1745  0.4739 -0.2873
 1208TIP3   OH2 3587   5.994   1.976   2.727 -0.0004  0.3394  0.1437
 1208TIP3    H1 3588   5.984   1.926   2.808  0.2513  0.4899  0.2685
 1208TIP3    H2 3589   6.077   2.023   2.737  0.4604 -0.3011 -0.5626
 1209TIP3   OH2 3590   3.406   4.135   0.973 -0.7289 -0.5062  0.2769
 1209TIP3    H1 3591   3.319   4.159   1.006  0.4745  3.5771  1.1117
 1209TIP3    H2 3592   3.447   4.090   1.046 -2.4802 -3.9745 -0.6565
 1210TIP3   OH2 3593   3.443   0.122   1.989 -0.3689  0.2173 -0.2922
 1210TIP3    H1 3594   3.362   0.072   1.982  0.0581 -0.3121 -1.9280
 1210TIP3    H2 3595   3.508   0.070   1.942  0.7838  0.9352  0.4382
 1211TIP3   OH2 3596   2.699   5.477   1.027 -0.0221  0.0142 -0.0595
 1211TIP3    H1 3597   2.767   5.543   1.021  0.3516 -0.4920 -1.8955
 1211TIP3    H2 3598   2.728   5.419   1.098  0.8953  0.4328 -0.0803
 1212TIP3   OH2 3599   0.811   0.313   1.872 -0.0325 -0.3100  0.1761
 1212TIP3    H1 3600   0.735   0.304   1.930 -0.1415  0.9780  0.2691
 1212TIP3    H2 3601   0.836   0.405   1.881  1.5328 -0.7056  0.1263
 1213TIP3   OH2 3602   5.716   4.257   4.118 -0.4218  0.1632  0.0433
 1213TIP3    H1 3603   5.783   4.221   4.176  0.9100  0.8986 -0.9870
 1213TIP3    H2 3604   5.761   4.326   4.069 -0.9275 -1.6376 -3.2368
 1214TIP3   OH2 3605   1.171   2.576   1.626 -0.3572 -0.5012 -0.2611
 1214TIP3    H1 3606   1.153   2.549   1.716 -2.0328  0.4259 -0.2706
 1214TIP3    H2 3607   1.236   2.645   1.634  0.3184 -1.1627  0.1329
 1215TIP3   OH2 3608   0.652   4.384   4.428  0.8237 -0.0131  0.1846
 1215TIP3    H1 3609   0.620   4.311   4.481  1.2724 -3.1156 -3.4242
 1215TIP3    H2 3610   0.747   4.371   4.423  0.7926  0.1729 -1.2970
 1216TIP3   OH2 3611   4.893   1.779   1.411 -0.0587  0.2624  0.4741
 1216TIP3    H1 3612   4.952   1.797   1.338 -2.4952  3.6044 -0.9198
 1216TIP3    H2 3613   4.950   1.768   1.487  2.5300 -2.2645 -1.6228
 1217TIP3   OH2 3614   2.944   1.835   1.068  0.3785 -0.1064 -0.1270
 1217TIP3    H1 3615   3.005   1.766   1.095  0.2800 -0.2755 -0.3302
 1217TIP3    H2 3616   2.949   1.900   1.138  1.3288  0.2296 -0.4906
 1218TIP3   OH2 3617   5.701   3.638   2.443  0.0872 -0.8640  0.1109
 1218TIP3    H1 3618   5.763   3.570   2.468  0.4395 -0.3496  0.6830
 1218TIP3    H2 3619   5.746   3.720   2.462  1.1210 -0.2999 -3.9074
 1219TIP3   OH2 3620   0.711   0.121   3.081 -0.4049 -0.3100  0.8344
 1219TIP3    H1 3621   0.736   0.106   3.173  2.0018  0.1729  0.3195
 1219TIP3    H2 3622   0.706   0.034   3.043  0.3335 -0.4444  1.0260
 1220TIP3   OH2 3623   4.126   4.256   1.722 -0.1084  0.5678 -0.1961
 1220TIP3    H1 3624   4.117   4.216   1.636  2.0318  2.8388 -1.6225
 1220TIP3    H2 3625   4.036   4.270   1.751 -0.9108  0.0993 -2.2668
 1221TIP3   OH2 3626   6.109   3.462   4.638  0.1802  0.2068  0.5382
 1221TIP3    H1 3627   6.197   3.489   4.663  0.6843 -2.6105  2.2262
 1221TIP3    H2 3628   6.122   3.379   4.591 -1.6090 -0.9438  1.9732
 1222TIP3   OH2 3629   0.380   6.434   0.677  0.7384 -0.2928 -0.5403
 1222TIP3    H1 3630   0.420   6.458   0.760 -2.3229 -0.6757  1.2195
 1222TIP3    H2 3631   0.374   6.517   0.628 -0.9917  0.8185  1.3925
 1223TIP3   OH2 3632   1.466   6.545   1.753  0.7545 -0.1561 -0.0146
 1223TIP3    H1 3633   1.385   6.499   1.733  1.3694 -2.1501  1.7173
 1223TIP3    H2 3634   1.533   6.500   1.701  0.9380  0.8221 -0.6572
 1224TIP3   OH2 3635   3.777   2.817   0.464 -0.0079  0.0736  0.8898
 1224TIP3    H1 3636   3.813   2.900   0.495  1.0212 -0.2942  0.7206
 1224TIP3    H2 3637   3.838   2.787   0.397 -0.4062 -0.7756  0.8834
 1225TIP3   OH2 3638   5.300   6.623   3.598 -0.3108  0.0454  0.2269
 1225TIP3    H1 3639   5.209   6.597   3.584 -0.6427  1.4127 -0.2883
 1225TIP3    H2 3640   5.295   6.714   3.625  0.8192 -0.3678  2.0039
 1226TIP3   OH2 3641   0.619   1.359   0.024  0.0670  0.4350  0.8555
 1226TIP3    H1 3642   0.528   1.328   0.028  0.5753 -1.2732  0.0216
 1226TIP3    H2 3643   0.611   1.454   0.014 -1.7089  0.1618 -1.1300
 1227TIP3   OH2 3644   2.819   4.245   1.053 -0.3503  0.5701 -0.5526
 1227TIP3    H1 3645   2.802   4.175   0.991 -0.8898 -0.6877  0.9418
 1227TIP3    H2 3646   2.914   4.258   1.051  0.1796 -2.2986  1.2429
 1228TIP3   OH2 3647   6.824   5.285   0.618  0.3011  0.2335  0.0807
 1228TIP3    H1 3648   6.894   5.253   0.561 -1.4489  0.9861 -2.6244
 1228TIP3    H2 3649   6.789   5.361   0.573 -1.7889  0.3497  1.7563
 1229TIP3   OH2 3650   4.507   6.617   1.580 -0.4783  0.3491  0.2304
 1229TIP3    H1 3651   4.496   6.712   1.570 -0.5444  0.3397  0.2119
 1229TIP3    H2 3652   4.596   6.607   1.614 -0.6777  0.4590  0.7980
 1230TIP3   OH2 3653   1.754   6.079   3.916  0.0350  0.7226  0.1169
 1230TIP3    H1 3654   1.840   6.100   3.880 -0.2548  1.1015 -0.3601
 1230TIP3    H2 3655   1.758   5.985   3.934  0.8576  0.9044  0.9519
 1231TIP3   OH2 3656   4.806   1.057   4.920 -0.2449  0.0315  0.0751
 1231TIP3    H1 3657   4.855   1.024   4.845 -0.0779  0.2109  0.1039
 1231TIP3    H2 3658   4.858   1.130   4.953 -0.1966 -0.1985  0.5152
 1232TIP3   OH2 3659   3.647   5.002   3.263  0.0250  0.4827 -0.2499
 1232TIP3    H1 3660   3.673   4.958   3.182  0.5201  1.2337 -0.5082
 1232TIP3    H2 3661   3.618   4.932   3.320  0.7312 -0.1692 -0.6803
 1233TIP3   OH2 3662   6.673   0.930   2.925  0.6630  0.8577 -0.0396
 1233TIP3    H1 3663   6.767   0.933   2.940  0.6690 -0.8125  0.4941
 1233TIP3    H2 3664   6.634   0.921   3.012  0.0836  0.6155 -0.3140
 1234TIP3   OH2 3665   1.688   3.219   4.750  0.1373  0.1386  0.3842
 1234TIP3    H1 3666   1.641   3.302   4.747  0.3580  0.2630  0.3458
 1234TIP3    H2 3667   1.749   3.223   4.676 -1.6099 -1.1207 -1.2234
 1235TIP3   OH2 3668   1.250   4.540   4.873  0.2077  0.0344 -0.2139
 1235TIP3    H1 3669   1.312   4.473   4.902  0.0306  0.5966  1.5722
 1235TIP3    H2 3670   1.169   4.521   4.919 -0.3264  0.5695 -0.8923
 1236TIP3   OH2 3671   4.345   4.353   3.945 -0.2083  0.0003 -0.1876
 1236TIP3    H1 3672   4.277   4.310   3.894 -0.9173  0.8854 -0.0163
 1236TIP3    H2 3673   4.305   4.370   4.030 -1.4664  4.5513 -1.4012
 1237TIP3   OH2 3674   1.976   2.108   4.346 -0.1791  0.2211 -0.9848
 1237TIP3    H1 3675   1.896   2.080   4.390  0.4916  0.3468  0.3577
 1237TIP3    H2 3676   2.047   2.067   4.396  0.6587  1.2574 -1.2699
 1238TIP3   OH2 3677   6.449   4.818   3.130 -0.4536  0.0908  0.2579
 1238TIP3    H1 3678   6.503   4.801   3.053 -1.3586 -2.0925  0.0418
 1238TIP3    H2 3679   6.440   4.914   3.132  0.6024  0.2779 -1.6184
 1239TIP3   OH2 3680   5.389   0.166   5.254 -0.4587 -0.3146 -0.5729
 1239TIP3    H1 3681   5.303   0.124   5.255 -0.4455 -0.3307  0.8630
 1239TIP3    H2 3682   5.449   0.100   5.290  0.1389 -0.2309 -1.3682
 1240TIP3   OH2 3683   4.226   0.092   4.253  0.7816  0.0259  0.2405
 1240TIP3    H1 3684   4.242   0.180   4.219  0.6919  0.2840  0.8567
 1240TIP3    H2 3685   4.247   0.098   4.346 -0.6366 -0.2101  0.6042
 1241TIP3   OH2 3686   2.635   2.752   1.482  0.4738 -0.3881  0.7146
 1241TIP3    H1 3687   2.699   2.787   1.420  2.0857  0.1512  2.6009
 1241TIP3    H2 3688   2.624   2.820   1.547 -3.9987  0.6047 -0.7431
 1242TIP3   OH2 3689   1.207   5.884   3.613  0.4132  0.2638 -0.0109
 1242TIP3    H1 3690   1.166   5.801   3.586 -1.9771  1.0242  1.0051
 1242TIP3    H2 3691   1.289   5.857   3.654  0.0856 -1.5285 -0.4092
 1243TIP3   OH2 3692   4.649   0.028   0.605  0.5826  0.3833  0.1389
 1243TIP3    H1 3693   4.744   0.017   0.594  0.2650 -0.5880 -2.1909
 1243TIP3    H2 3694   4.625  -0.039   0.670  1.4015  0.2501  0.3169
 1244TIP3   OH2 3695   3.967   6.227   3.262  0.0099 -0.0243  0.5614
 1244TIP3    H1 3696   3.884   6.218   3.215  1.4219  2.4901 -2.8993
 1244TIP3    H2 3697   4.014   6.146   3.243  0.2972  0.6741 -2.1605
 1245TIP3   OH2 3698   4.737   2.185   5.069 -0.4812  0.2192 -0.2011
 1245TIP3    H1 3699   4.746   2.190   4.974 -0.7695  0.0942 -0.2363
 1245TIP3    H2 3700   4.815   2.230   5.103 -0.1699 -0.0944 -0.4926
 1246TIP3   OH2 3701   1.224   0.483   4.359 -0.3309 -0.4112  0.2134
 1246TIP3    H1 3702   1.197   0.487   4.267 -0.9624 -0.7745  0.3796
 1246TIP3    H2 3703   1.184   0.559   4.399 -0.5017 -0.5481  0.3033
 1247TIP3   OH2 3704   6.354   4.298   3.478 -0.0538  0.1542  0.2880
 1247TIP3    H1 3705   6.299   4.376   3.473 -0.4163  0.3166  3.9153
 1247TIP3    H2 3706   6.426   4.324   3.536  1.6766 -1.2835 -1.0928
 1248TIP3   OH2 3707   0.752   2.999   2.710  0.2600 -0.0249  0.8688
 1248TIP3    H1 3708   0.669   2.977   2.752  0.6648 -1.0198  1.1926
 1248TIP3    H2 3709   0.781   2.917   2.670  1.0792  0.3085  0.7551
 1249TIP3   OH2 3710   4.459   4.014   2.340 -0.3346 -0.5838 -0.2703
 1249TIP3    H1 3711   4.446   3.941   2.279  0.3140  0.0055 -1.1302
 1249TIP3    H2 3712   4.410   4.086   2.302  0.6933  0.0062 -0.5102
 1250TIP3   OH2 3713   4.552   3.554   3.365 -0.0013  0.0568  0.6215
 1250TIP3    H1 3714   4.511   3.475   3.329  0.7534  0.3575 -0.9775
 1250TIP3    H2 3715   4.602   3.590   3.292 -0.0714  1.8464  1.4232
 1251TIP3   OH2 3716   3.337   5.596   3.180  0.0690 -0.3655 -0.1236
 1251TIP3    H1 3717   3.302   5.539   3.112 -0.0361 -0.1147 -0.2791
 1251TIP3    H2 3718   3.431   5.575   3.183 -0.0851 -1.0250  0.2859
 1252TIP3   OH2 3719   5.777   6.536   1.387 -0.2803 -0.0358  0.4358
 1252TIP3    H1 3720   5.724   6.458   1.405 -0.7356  0.4640  1.3474
 1252TIP3    H2 3721   5.781   6.582   1.471  0.7821  0.4459  0.1398
 1253TIP3   OH2 3722   5.553   1.631   5.702  0.2064  0.0023  0.5488
 1253TIP3    H1 3723   5.603   1.550   5.690 -0.4724 -0.3030 -0.3009
 1253TIP3    H2 3724   5.493   1.611   5.774 -2.4196 -1.5349 -1.8514
 1254TIP3   OH2 3725   3.644   0.502   4.875 -0.1076 -0.1843  0.0584
 1254TIP3    H1 3726   3.596   0.515   4.793  0.2600  0.3294 -0.0823
 1254TIP3    H2 3727   3.586   0.448   4.929 -0.9012  0.5225 -0.0663
 1255TIP3   OH2 3728   0.105   6.347   0.393  0.3285 -0.2503 -0.1751
 1255TIP3    H1 3729   0.107   6.364   0.299 -2.4651 -2.4097 -0.7353
 1255TIP3    H2 3730   0.185   6.297   0.410 -0.1432 -1.6706 -1.8749
 1256TIP3   OH2 3731   2.186   2.244   5.686  0.0351  0.5253 -0.2788
 1256TIP3    H1 3732   2.236   2.285   5.757  0.1010  0.1722 -0.1188
 1256TIP3    H2 3733   2.172   2.154   5.716 -0.4337  0.5373 -0.4627
 1257TIP3   OH2 3734   2.386   1.090   3.521  0.2997 -0.4732  0.0702
 1257TIP3    H1 3735   2.382   1.161   3.586 -1.0192 -0.2105 -0.2731
 1257TIP3    H2 3736   2.430   1.129   3.446  1.8619 -0.7857  0.7785
 1258TIP3   OH2 3737   4.610   3.935   4.624  0.8242  0.2092  0.3088
 1258TIP3    H1 3738   4.697   3.897   4.607  0.2904 -1.2908  0.7868
 1258TIP3    H2 3739   4.575   3.882   4.696 -0.2030  1.2616  0.5989
 1259TIP3   OH2 3740   0.046   0.952   1.498  0.2306  0.9753 -0.4237
 1259TIP3    H1 3741   0.078   0.890   1.564 -0.7102  0.0441 -0.8150
 1259TIP3    H2 3742  -0.045   0.968   1.523 -0.6376 -0.5866 -2.3023
 1260TIP3   OH2 3743   4.602   6.252   3.674 -0.2097  0.6143 -0.4320
 1260TIP3    H1 3744   4.657   6.222   3.601 -1.7394 -2.5439 -0.4561
 1260TIP3    H2 3745   4.523   6.286   3.632 -0.6184 -0.1528 -0.2947
 1261TIP3   OH2 3746   1.412   4.523   2.801  0.0079  0.6217 -0.0246
 1261TIP3    H1 3747   1.384   4.562   2.883 -1.3304 -0.2137 -0.0545
 1261TIP3    H2 3748   1.333   4.520   2.747 -0.0596 -2.2750  0.0508
 1262TIP3   OH2 3749   3.778   5.053   0.874 -0.3148  0.1081 -0.2320
 1262TIP3    H1 3750   3.778   5.047   0.779  0.9010 -0.4242 -0.2040
 1262TIP3    H2 3751   3.844   4.990   0.903 -1.4727 -0.5853  1.0251
 1263TIP3   OH2 3752   4.503   1.933   2.384 -0.0669  0.5002  0.0703
 1263TIP3    H1 3753   4.543   1.943   2.298 -0.5955  0.5127 -0.1752
 1263TIP3    H2 3754   4.472   2.021   2.407  0.4857  0.5906  0.4779
 1264TIP3   OH2 3755   4.632   0.582   4.565  0.0858  0.0935  0.4863
 1264TIP3    H1 3756   4.581   0.658   4.539  0.3059  0.6296  1.5946
 1264TIP3    H2 3757   4.639   0.588   4.660  0.2367 -1.2313  0.5818
 1265TIP3   OH2 3758   6.219   2.713   2.690 -0.6146  0.3173 -0.5740
 1265TIP3    H1 3759   6.171   2.632   2.706 -0.1142  0.1394  0.0791
 1265TIP3    H2 3760   6.152   2.775   2.659 -1.2342  0.0241  0.1418
 1266TIP3   OH2 3761   4.507   2.973   1.580 -0.6372  0.2545 -0.6617
 1266TIP3    H1 3762   4.442   2.938   1.641  0.1487  0.0237  0.0665
 1266TIP3    H2 3763   4.581   2.997   1.636  0.5382 -0.9641 -1.6173
 1267TIP3   OH2 3764   4.066   4.664   3.530 -0.4305 -0.3923  0.1493
 1267TIP3    H1 3765   4.110   4.602   3.588  0.2602  1.3504  1.5588
 1267TIP3    H2 3766   4.035   4.734   3.587 -1.9044  0.1914 -1.2887
 1268TIP3   OH2 3767   5.183   2.074   2.411  0.3882  0.6691 -0.4714
 1268TIP3    H1 3768   5.104   2.126   2.398  0.6410  0.6040 -2.6266
 1268TIP3    H2 3769   5.194   2.070   2.506 -0.1912  3.7206 -0.1815
 1269TIP3   OH2 3770   5.823   3.885   4.620  0.5445 -0.1705 -0.1073
 1269TIP3    H1 3771   5.859   3.849   4.539  1.1768 -0.2604  0.2105
 1269TIP3    H2 3772   5.757   3.949   4.590 -0.1514 -1.1226 -0.6801
 1270TIP3   OH2 3773   1.080   4.955   4.657 -0.3532  0.0951  0.0118
 1270TIP3    H1 3774   1.078   4.859   4.658 -1.0850  0.0909 -1.1583
 1270TIP3    H2 3775   1.010   4.981   4.597 -1.6938  1.4418  2.0395
 1271TIP3   OH2 3776   1.511   4.376   5.491 -0.5550 -0.1708 -0.6632
 1271TIP3    H1 3777   1.544   4.371   5.581 -1.0760  0.0153 -0.4566
 1271TIP3    H2 3778   1.573   4.432   5.445  0.6640 -1.6153 -0.8631
 1272TIP3   OH2 3779   5.854   3.434   2.543  0.4103 -0.1723 -0.4258
 1272TIP3    H1 3780   5.835   3.444   2.636 -2.7114 -0.8829 -0.8899
 1272TIP3    H2 3781   5.940   3.390   2.541 -0.4374 -2.2271  2.2074
 1273TIP3   OH2 3782   6.401   0.203   3.708  0.0216 -0.2222  0.4600
 1273TIP3    H1 3783   6.335   0.140   3.676  0.0082 -0.6016  1.2064
 1273TIP3    H2 3784   6.351   0.283   3.723 -0.0004 -0.0853 -0.3125
 1274TIP3   OH2 3785   0.678   0.455   2.434  0.3666 -0.0889  0.2801
 1274TIP3    H1 3786   0.696   0.361   2.425  1.7169 -0.0562  2.1025
 1274TIP3    H2 3787   0.617   0.460   2.508 -0.1113  0.4459 -0.1466
 1275TIP3   OH2 3788   1.612   2.207   3.978 -0.3122  0.6872  0.6575
 1275TIP3    H1 3789   1.532   2.155   3.990 -0.5316  0.2970 -1.9203
 1275TIP3    H2 3790   1.586   2.296   4.000 -1.6869  0.6709 -0.7424
 1276TIP3   OH2 3791   1.901   6.672   4.723 -0.2175 -0.7225 -0.4988
 1276TIP3    H1 3792   1.839   6.726   4.674  1.6507  0.6136 -1.5254
 1276TIP3    H2 3793   1.904   6.711   4.810 -0.6295 -0.6529 -0.5160
 1277TIP3   OH2 3794   3.538   2.714   1.260 -0.3218 -0.2175 -0.3735
 1277TIP3    H1 3795   3.519   2.687   1.350  0.1170 -0.6295 -0.3960
 1277TIP3    H2 3796   3.478   2.663   1.206  1.2426 -2.0491 -0.4955
 1278TIP3   OH2 3797   0.777   1.495   2.254  0.1097  0.1132  0.0165
 1278TIP3    H1 3798   0.862   1.534   2.276  0.2996 -0.4362  0.2763
 1278TIP3    H2 3799   0.731   1.491   2.338  1.3994 -3.3701  0.7153
 1279TIP3   OH2 3800   0.266   4.959   3.575  0.2847  0.0874  0.3244
 1279TIP3    H1 3801   0.258   4.865   3.561 -0.4482  0.2623 -0.5445
 1279TIP3    H2 3802   0.339   4.986   3.519  0.4838  0.0358  0.5605
 1280TIP3   OH2 3803   5.244   4.406   4.492  0.6555  0.6089 -0.0692
 1280TIP3    H1 3804   5.206   4.324   4.525  1.3854  0.6806  1.0068
 1280TIP3    H2 3805   5.226   4.405   4.398  3.3088 -2.2769 -0.7233
 1281TIP3   OH2 3806   5.823   3.311   0.373 -0.1849 -0.0191  0.1161
 1281TIP3    H1 3807   5.767   3.382   0.340 -0.2599  0.3740  1.0571
 1281TIP3    H2 3808   5.767   3.262   0.432 -0.0638 -0.7364 -0.3607
 1282TIP3   OH2 3809   5.873   4.540   4.165  0.4210  0.9961 -0.1457
 1282TIP3    H1 3810   5.833   4.525   4.251 -1.3920  1.4600 -0.8414
 1282TIP3    H2 3811   5.964   4.561   4.183  0.0662  1.0874  1.6700
 1283TIP3   OH2 3812   5.151   6.667   2.163 -0.5555  0.2182  0.3965
 1283TIP3    H1 3813   5.135   6.711   2.247  0.3152  0.5082  0.4255
 1283TIP3    H2 3814   5.181   6.580   2.187  1.0951  0.7629  0.4574
 1284TIP3   OH2 3815   0.176   0.125   3.620 -0.0905 -0.6856  0.3251
 1284TIP3    H1 3816   0.216   0.176   3.550  0.9173 -3.1574 -1.0297
 1284TIP3    H2 3817   0.104   0.180   3.652  1.4624  1.9048 -0.3680
 1285TIP3   OH2 3818   6.934   4.847   3.160  0.0317  0.5116  0.1516
 1285TIP3    H1 3819   6.913   4.882   3.247  0.3100 -1.5389  1.0932
 1285TIP3    H2 3820   6.852   4.854   3.111 -0.6859 -0.0885  1.2265
 1286TIP3   OH2 3821   4.252   6.060   4.125 -0.4685 -0.1362 -0.4705
 1286TIP3    H1 3822   4.198   6.023   4.055 -1.2739  1.3688 -0.7033
 1286TIP3    H2 3823   4.196   6.127   4.165  1.1079  1.2762 -0.5191
 1287TIP3   OH2 3824   5.536   6.405   2.976 -0.5132  0.3577  0.3881
 1287TIP3    H1 3825   5.571   6.329   2.928 -1.7319  0.4746 -0.7473
 1287TIP3    H2 3826   5.561   6.389   3.067  0.9257 -0.4293 -0.1088
 1288TIP3   OH2 3827   4.341   2.762   3.626  0.4195  0.0281 -0.5317
 1288TIP3    H1 3828   4.387   2.684   3.658  2.0922  0.6530 -1.3128
 1288TIP3    H2 3829   4.411   2.823   3.601 -0.8146  2.2799  1.1668
 1289TIP3   OH2 3830   6.668   3.307   0.058  0.0484 -0.1991 -0.2271
 1289TIP3    H1 3831   6.753   3.351   0.056  0.2019 -0.5289 -1.0257
 1289TIP3    H2 3832   6.615   3.361   0.117 -0.0843  1.6550 -1.9295
 1290TIP3   OH2 3833   5.332   2.397   5.176 -0.4805  0.0925 -0.4287
 1290TIP3    H1 3834   5.254   2.418   5.123 -0.8179 -0.4136 -0.1429
 1290TIP3    H2 3835   5.328   2.457   5.250  0.4940  1.4368 -1.4355
 1291TIP3   OH2 3836   0.035   1.777   5.028  0.3089 -0.1220  0.4324
 1291TIP3    H1 3837  -0.040   1.721   5.009  0.2365 -0.3437  1.3306
 1291TIP3    H2 3838   0.103   1.747   4.968 -0.0496 -0.4992  0.2094
 1292TIP3   OH2 3839   3.875   0.400   4.958 -0.2467  0.5753 -0.3025
 1292TIP3    H1 3840   3.796   0.448   4.934 -0.2288  1.2615  0.9262
 1292TIP3    H2 3841   3.850   0.308   4.953 -0.9031  0.7628 -0.6214
 1293TIP3   OH2 3842   0.867   0.989   1.593 -0.0245 -0.7855  0.0490
 1293TIP3    H1 3843   0.942   1.041   1.563 -1.8522  1.3071 -1.2066
 1293TIP3    H2 3844   0.834   0.947   1.514 -0.4100 -1.3657  0.5124
 1294TIP3   OH2 3845   3.214   5.343   5.329  0.0764 -0.3747  0.3574
 1294TIP3    H1 3846   3.211   5.420   5.385  0.9683 -0.7119  0.9010
 1294TIP3    H2 3847   3.229   5.377   5.241 -0.4272  0.1158  0.4647
 1295TIP3   OH2 3848   4.387   4.992   1.200  0.0341  0.3062 -0.0392
 1295TIP3    H1 3849   4.359   5.059   1.263  0.3289  0.0357  0.3869
 1295TIP3    H2 3850   4.483   4.997   1.202  0.0965 -0.8523  0.8064
 1296TIP3   OH2 3851   6.248   6.584   0.824  0.8679  0.1186 -0.1172
 1296TIP3    H1 3852   6.173   6.642   0.812  0.9805 -0.1305 -2.6813
 1296TIP3    H2 3853   6.214   6.510   0.874  0.1886  1.3508  1.3061
 1297TIP3   OH2 3854   1.846   1.148   5.286 -0.1766  0.2986 -0.1866
 1297TIP3    H1 3855   1.755   1.177   5.293  0.2888  1.6197  0.7817
 1297TIP3    H2 3856   1.847   1.062   5.328 -1.2862 -0.4882 -1.6938
 1298TIP3   OH2 3857   6.484   2.299   5.000  0.0546 -0.5725 -0.0995
 1298TIP3    H1 3858   6.510   2.211   4.973 -0.7026 -1.2179  1.1498
 1298TIP3    H2 3859   6.393   2.306   4.973  0.2436  0.0130 -0.5994
 1299TIP3   OH2 3860   6.789   2.766   3.469  0.4781 -0.4507 -0.4695
 1299TIP3    H1 3861   6.838   2.803   3.543 -0.8900  1.9601 -0.6803
 1299TIP3    H2 3862   6.714   2.824   3.459  0.6870 -0.5940 -3.8772
 1300TIP3   OH2 3863   2.651   1.452   2.622  0.4339  0.0929 -0.4062
 1300TIP3    H1 3864   2.663   1.358   2.610 -0.0274  0.1370 -1.2502
 1300TIP3    H2 3865   2.647   1.488   2.534  1.2217  0.9982 -0.0924
 1301TIP3   OH2 3866   6.278   1.426   1.196  0.3367  0.4548 -0.0357
 1301TIP3    H1 3867   6.309   1.350   1.244 -0.7573 -0.1216 -0.2134
 1301TIP3    H2 3868   6.351   1.488   1.200  0.6159  0.0690  1.5675
 1302TIP3   OH2 3869   4.706   1.936   5.455 -0.4305  0.4360 -0.5588
 1302TIP3    H1 3870   4.676   1.917   5.366 -3.4526  2.6763 -0.1872
 1302TIP3    H2 3871   4.697   2.031   5.463  0.2057  0.3443  2.0099
 1303TIP3   OH2 3872   0.674   2.443   4.235  0.3754  0.6980  0.2186
 1303TIP3    H1 3873   0.693   2.360   4.279  0.1680  0.4031 -0.2407
 1303TIP3    H2 3874   0.756   2.466   4.191  0.1999  0.3261 -0.3106
 1304TIP3   OH2 3875   0.858   2.680   4.804 -0.2582 -0.4624 -0.1192
 1304TIP3    H1 3876   0.889   2.733   4.877  0.6298 -1.1809  0.0447
 1304TIP3    H2 3877   0.798   2.616   4.843 -0.2577 -0.4579 -0.1113
 1305TIP3   OH2 3878   2.073   6.489   3.861 -0.1585  0.4226  0.1827
 1305TIP3    H1 3879   1.981   6.482   3.836 -0.2085  0.7512  0.2742
 1305TIP3    H2 3880   2.110   6.554   3.800  0.5752 -1.4234 -1.4450
 1306TIP3   OH2 3881   0.001   4.283   4.533  1.2199 -0.2758  0.0971
 1306TIP3    H1 3882   0.067   4.329   4.482  0.0749  0.3931 -0.8273
 1306TIP3    H2 3883  -0.026   4.346   4.600 -0.8050  0.7127 -1.5598
 1307TIP3   OH2 3884   5.634   4.525   0.435  0.2887  0.3305 -1.1800
 1307TIP3    H1 3885   5.639   4.448   0.379  0.1067 -1.3277  0.9251
 1307TIP3    H2 3886   5.714   4.520   0.488 -1.0441 -0.0941  0.9243
 1308TIP3   OH2 3887   1.533   3.431   3.155  0.0580 -0.4467  0.1307
 1308TIP3    H1 3888   1.566   3.436   3.065 -2.0326  1.7053 -0.6349
 1308TIP3    H2 3889   1.441   3.406   3.146 -0.2440  0.0022  1.6228
 1309TIP3   OH2 3890   1.823   0.917   5.448 -0.2856  0.3657  0.3156
 1309TIP3    H1 3891   1.742   0.872   5.469  0.1651 -0.9314 -0.6198
 1309TIP3    H2 3892   1.891   0.868   5.494  0.2017  0.1090 -0.6486
 1310TIP3   OH2 3893   0.876   0.127   2.242 -0.2450 -0.5213 -0.1340
 1310TIP3    H1 3894   0.857   0.177   2.322  2.0190  0.1511  0.0507
 1310TIP3    H2 3895   0.957   0.166   2.209 -0.3135 -1.8199 -1.9258
 1311TIP3   OH2 3896   1.022   3.777   3.122 -0.0596 -0.0394  0.2150
 1311TIP3    H1 3897   0.981   3.731   3.196  0.6306  0.4841  0.9352
 1311TIP3    H2 3898   1.074   3.846   3.163  1.6607 -0.7685 -0.6755
 1312TIP3   OH2 3899   0.491   2.764   2.290  0.1826  0.1412 -0.4974
 1312TIP3    H1 3900   0.421   2.730   2.235  0.9155  0.7601 -1.8829
 1312TIP3    H2 3901   0.461   2.851   2.315  0.4121  0.3778 -1.0301
 1313TIP3   OH2 3902   6.865   2.539   2.887  0.1001  0.7268  0.3803
 1313TIP3    H1 3903   6.830   2.524   2.799  0.1180  2.5020  0.0336
 1313TIP3    H2 3904   6.886   2.452   2.920 -0.6031 -0.0263 -1.0859
 1314TIP3   OH2 3905   0.872   4.513   2.724  0.0515  0.3071 -0.2738
 1314TIP3    H1 3906   0.911   4.578   2.665  2.3131 -0.8003 -0.1304
 1314TIP3    H2 3907   0.878   4.430   2.675 -0.6272 -0.1810  0.4408
 1315TIP3   OH2 3908   2.777   2.015   2.017 -0.0928 -0.0181 -0.5365
 1315TIP3    H1 3909   2.726   2.083   2.061  0.1705  0.2471 -0.6463
 1315TIP3    H2 3910   2.804   2.055   1.935  0.8158  0.0504 -0.2098
 1316TIP3   OH2 3911   0.096   3.003   2.076  0.0873  0.3102 -0.0623
 1316TIP3    H1 3912   0.007   3.039   2.073  0.6353  1.6817 -0.5108
 1316TIP3    H2 3913   0.133   3.038   2.157  0.2909 -0.1131  0.0309
 1317TIP3   OH2 3914   6.327   5.782   5.244  0.6841 -0.0743 -0.1306
 1317TIP3    H1 3915   6.318   5.737   5.328 -0.8941 -0.1555 -0.3146
 1317TIP3    H2 3916   6.413   5.756   5.211  0.5955 -1.4167  0.6650
 1318TIP3   OH2 3917   5.152   2.841   2.738 -0.7606 -0.1853  0.4370
 1318TIP3    H1 3918   5.218   2.898   2.777  1.7244 -2.5528  0.0359
 1318TIP3    H2 3919   5.137   2.878   2.650  0.0700  0.3594  0.5143
 1319TIP3   OH2 3920   6.815   0.659   5.632  0.1680  0.4805 -0.8838
 1319TIP3    H1 3921   6.757   0.584   5.626  0.3801  0.2542 -0.2311
 1319TIP3    H2 3922   6.902   0.622   5.646  0.2918  0.8383 -0.6686
 1320TIP3   OH2 3923   4.716   6.048   5.647  0.1262  0.3333  0.0627
 1320TIP3    H1 3924   4.773   6.055   5.724  0.2506  0.0608 -0.0021
 1320TIP3    H2 3925   4.696   6.139   5.624 -0.1619  0.4068  0.5977
 1321TIP3   OH2 3926   4.030   4.099   3.710 -0.0177 -0.9244 -0.4343
 1321TIP3    H1 3927   3.988   4.119   3.627  0.0623 -1.5019 -0.6183
 1321TIP3    H2 3928   4.025   4.003   3.718  1.1146 -0.9987 -0.3903
 1322TIP3   OH2 3929   3.469   4.083   2.931 -0.1351  0.3374  0.4296
 1322TIP3    H1 3930   3.388   4.092   2.980 -0.0557  0.7769  0.4789
 1322TIP3    H2 3931   3.450   4.120   2.845  0.0642  0.6009  0.4976
 1323TIP3   OH2 3932   6.401   0.279   2.916 -0.0892 -0.0385  0.2695
 1323TIP3    H1 3933   6.314   0.289   2.954 -0.1616 -1.2911  0.4726
 1323TIP3    H2 3934   6.434   0.197   2.952  0.3389 -0.6518 -1.4244
 1324TIP3   OH2 3935   1.911   1.749   3.894 -0.2696  0.1300  0.5735
 1324TIP3    H1 3936   1.843   1.706   3.842 -0.0414  0.2109  0.2056
 1324TIP3    H2 3937   1.870   1.830   3.924 -0.1174  0.5100 -0.2188
 1325TIP3   OH2 3938   1.966   6.635   2.743  0.0972  0.6617 -0.2755
 1325TIP3    H1 3939   2.016   6.687   2.806  0.4321  0.3675 -0.2955
 1325TIP3    H2 3940   1.898   6.593   2.796  0.5588  0.1820 -0.0577
 1326TIP3   OH2 3941   0.254   5.919   3.215 -0.4800  0.2510  0.0470
 1326TIP3    H1 3942   0.328   5.959   3.261  1.9263 -0.2147 -3.0828
 1326TIP3    H2 3943   0.195   5.991   3.196 -0.1589  0.8940  1.3954
 1327TIP3   OH2 3944   4.855   6.696   0.070  0.5347  0.0604  0.1110
 1327TIP3    H1 3945   4.846   6.717   0.163  1.1502  0.3143  0.1213
 1327TIP3    H2 3946   4.814   6.770   0.025  1.4133  0.6041  0.1699
 1328TIP3   OH2 3947   4.935   1.805   0.107  0.0306 -0.4291  0.2530
 1328TIP3    H1 3948   4.930   1.861   0.185 -0.6013 -3.2066  2.3442
 1328TIP3    H2 3949   5.022   1.823   0.071  0.0073  1.5673  1.0705
 1329TIP3   OH2 3950   3.731   0.405   2.206  0.9737  0.0706 -0.3390
 1329TIP3    H1 3951   3.642   0.385   2.233  1.2156 -1.8267 -0.7893
 1329TIP3    H2 3952   3.723   0.485   2.152 -0.8897 -1.5534 -2.6902
 1330TIP3   OH2 3953   1.753   6.395   0.646 -0.2503 -0.3765 -0.8162
 1330TIP3    H1 3954   1.753   6.406   0.741  0.1604 -3.0070 -0.4427
 1330TIP3    H2 3955   1.839   6.428   0.619  0.1767 -0.8364 -0.0727
 1331TIP3   OH2 3956   5.538   6.713   3.501 -0.1687  0.5583  0.4544
 1331TIP3    H1 3957   5.554   6.755   3.586 -1.3548  0.8337  0.5676
 1331TIP3    H2 3958   5.453   6.670   3.512 -1.1609  2.0128 -1.1076
 1332TIP3   OH2 3959   0.223   3.907   5.881 -0.2648 -0.4368  0.5193
 1332TIP3    H1 3960   0.309   3.920   5.841  0.1786  0.0480  1.5742
 1332TIP3    H2 3961   0.163   3.961   5.828  0.4717  0.9377  1.0348
 1333TIP3   OH2 3962   1.480   2.400   2.639  0.6298  0.0315  0.6005
 1333TIP3    H1 3963   1.485   2.449   2.556 -2.3576 -1.3879 -0.6006
 1333TIP3    H2 3964   1.426   2.455   2.696 -0.4734 -0.6201  0.2108
 1334TIP3   OH2 3965   2.688   4.604   5.020  0.1428  0.7297  0.6835
 1334TIP3    H1 3966   2.672   4.521   4.973 -0.9237  2.3704 -2.1421
 1334TIP3    H2 3967   2.780   4.624   5.003 -0.1768  1.1978 -0.6714
 1335TIP3   OH2 3968   3.481   2.549   2.062 -0.1644  0.0898 -0.2747
 1335TIP3    H1 3969   3.575   2.540   2.073  0.3330  2.8074 -1.4043
 1335TIP3    H2 3970   3.456   2.480   2.001  0.8095 -1.4630  1.0210
 1336TIP3   OH2 3971   0.969   4.566   0.867 -0.1209 -0.0697  0.0575
 1336TIP3    H1 3972   0.962   4.555   0.962 -1.4344  0.9031  0.1097
 1336TIP3    H2 3973   0.879   4.560   0.836  0.3122 -0.5447 -1.1670
 1337TIP3   OH2 3974   1.814   0.140   0.051 -0.8229 -0.0606 -0.4160
 1337TIP3    H1 3975   1.854   0.105   0.131  1.6095 -1.5668 -2.1379
 1337TIP3    H2 3976   1.730   0.096   0.044 -0.2276 -1.3757  0.3626
 1338TIP3   OH2 3977   3.099   1.975   2.631 -0.2811  0.2803 -0.1199
 1338TIP3    H1 3978   3.113   1.914   2.703 -1.7360 -1.0772 -0.9294
 1338TIP3    H2 3979   3.067   1.921   2.559  0.5578  1.6891 -1.6090
 1339TIP3   OH2 3980   0.463   2.960   2.011 -0.0507 -0.1180 -0.1185
 1339TIP3    H1 3981   0.475   2.984   2.103 -0.2990 -1.4893  0.3030
 1339TIP3    H2 3982   0.381   2.910   2.010  0.7951 -1.5750 -0.7744
 1340TIP3   OH2 3983   4.150   0.704   4.100  0.4697 -0.1942  0.1163
 1340TIP3    H1 3984   4.190   0.791   4.110  1.3965 -0.4518 -1.0952
 1340TIP3    H2 3985   4.159   0.684   4.007  1.0482 -1.9553  0.5127
 1341TIP3   OH2 3986   1.607   5.431   2.065 -0.1522  0.6150 -0.0113
 1341TIP3    H1 3987   1.674   5.383   2.115 -1.9179 -1.8041  0.2251
 1341TIP3    H2 3988   1.524   5.399   2.100 -1.4900 -0.3316 -3.6104
 1342TIP3   OH2 3989   5.443   6.284   0.353  0.1151  0.0391  0.1127
 1342TIP3    H1 3990   5.489   6.298   0.436  2.5098 -0.9361 -0.9364
 1342TIP3    H2 3991   5.401   6.199   0.362  0.0430  0.1153  0.4759
 1343TIP3   OH2 3992   5.864   2.125   0.134 -0.2331  0.5386  0.1787
 1343TIP3    H1 3993   5.957   2.119   0.156 -0.3672 -0.0665  0.6289
 1343TIP3    H2 3994   5.850   2.055   0.071 -0.8397 -0.9501  1.8649
 1344TIP3   OH2 3995   2.293   3.870   4.176  0.1911 -0.2272 -0.5152
 1344TIP3    H1 3996   2.248   3.952   4.195  0.1294  0.7472 -4.1250
 1344TIP3    H2 3997   2.244   3.832   4.103  2.2954 -1.6852 -1.2665
 1345TIP3   OH2 3998   1.246   0.850   3.409 -0.2420  0.1193 -0.0736
 1345TIP3    H1 3999   1.183   0.898   3.355 -2.0735 -2.0207  0.0053
 1345TIP3    H2 4000   1.208   0.849   3.496  0.7194  0.1708  0.3590
 1346TIP3   OH2 4001   6.182   6.489   5.654 -0.2592  0.4845  0.2438
 1346TIP3    H1 4002   6.187   6.582   5.678 -3.5099  1.3021 -1.6565
 1346TIP3    H2 4003   6.211   6.486   5.563 -1.1040 -0.1530 -0.0169
 1347TIP3   OH2 4004   6.286   2.538   4.039  0.1462 -0.0337 -0.0344
 1347TIP3    H1 4005   6.301   2.524   4.133 -0.7482 -0.2533  0.0854
 1347TIP3    H2 4006   6.253   2.454   4.007 -3.1400  1.0035  0.2396
 1348TIP3   OH2 4007   1.111   1.339   4.961  0.0090 -0.3680 -0.2661
 1348TIP3    H1 4008   1.188   1.374   5.004  0.2189 -0.0041 -0.9343
 1348TIP3    H2 4009   1.060   1.416   4.934  0.2415 -0.5672 -1.3148
 1349TIP3   OH2 4010   6.871   6.051   4.478 -0.1572 -0.1653 -0.7782
 1349TIP3    H1 4011   6.880   6.008   4.393  0.1154 -0.9504 -0.3592
 1349TIP3    H2 4012   6.784   6.026   4.509 -1.0612  1.6887 -1.6670
 1350TIP3   OH2 4013   6.165   0.286   1.004 -0.3223 -0.2371 -0.2910
 1350TIP3    H1 4014   6.211   0.208   0.973  1.7164  1.4450 -1.8419
 1350TIP3    H2 4015   6.133   0.328   0.924 -2.8075 -0.2531  0.6279
 1351TIP3   OH2 4016   0.828   6.643   1.561  0.2789  0.4655 -0.5831
 1351TIP3    H1 4017   0.911   6.663   1.605  0.6549 -0.4560 -0.8617
 1351TIP3    H2 4018   0.852   6.587   1.488 -0.7668 -1.3514  0.3971
 1352TIP3   OH2 4019   3.824   1.887   4.616  0.2187 -0.3868  0.4588
 1352TIP3    H1 4020   3.790   1.856   4.700 -1.3651 -2.4997 -0.8585
 1352TIP3    H2 4021   3.753   1.938   4.578  0.5455 -0.2720 -0.0142
 1353TIP3   OH2 4022   6.209   5.052   1.810  0.5174  0.4609  0.3886
 1353TIP3    H1 4023   6.191   5.026   1.901 -0.3101  1.7478  0.6323
 1353TIP3    H2 4024   6.156   5.131   1.798  0.0753 -0.0855 -1.4540
 1354TIP3   OH2 4025   6.256   5.582   5.429 -0.2769  0.3292  0.3805
 1354TIP3    H1 4026   6.161   5.578   5.423 -0.3323  0.4398  1.0846
 1354TIP3    H2 4027   6.281   5.499   5.469 -0.2252  0.9478  1.6859
 1355TIP3   OH2 4028   2.731   5.295   4.893  0.2240 -0.0500  0.2953
 1355TIP3    H1 4029   2.662   5.271   4.955  1.9886 -1.0783  1.9577
 1355TIP3    H2 4030   2.763   5.212   4.858  1.0221  0.3538  0.0290
 1356TIP3   OH2 4031   0.565   6.450   3.260  0.3226  0.0218 -0.0027
 1356TIP3    H1 4032   0.522   6.492   3.334  0.2313  0.4975 -0.3236
 1356TIP3    H2 4033   0.548   6.508   3.185 -0.1449 -0.7873 -0.5352
 1357TIP3   OH2 4034   3.401   6.022   2.348 -0.0902  0.2122 -0.2648
 1357TIP3    H1 4035   3.433   6.083   2.282  0.4348 -0.8554 -1.0172
 1357TIP3    H2 4036   3.454   6.041   2.426  0.5039  0.2923 -0.6826
 1358TIP3   OH2 4037   1.219   0.932   5.216 -0.3622 -0.2401  0.1669
 1358TIP3    H1 4038   1.284   0.868   5.243 -2.2713 -2.1599  0.4823
 1358TIP3    H2 4039   1.170   0.889   5.146 -0.9931  1.3267 -0.4055
 1359TIP3   OH2 4040   3.893   5.072   1.212 -0.0858  0.8806  0.4632
 1359TIP3    H1 4041   3.844   5.145   1.174  0.5429  2.3573  2.3118
 1359TIP3    H2 4042   3.941   5.034   1.139  0.5723  3.1716 -0.3864
 1360TIP3   OH2 4043   6.840   3.257   1.118 -0.4761 -0.0521 -0.6543
 1360TIP3    H1 4044   6.782   3.285   1.189 -1.0519 -1.1156 -0.6780
 1360TIP3    H2 4045   6.807   3.304   1.041  1.8022  3.2160  0.1766
 1361TIP3   OH2 4046   4.120   1.983   2.821 -0.8268 -0.2070 -0.0903
 1361TIP3    H1 4047   4.178   2.001   2.746  0.5493  1.3040  1.2541
 1361TIP3    H2 4048   4.070   2.063   2.832 -1.0878 -0.4559  0.5504
 1362TIP3   OH2 4049   0.193   3.454   4.620 -0.4880  0.2609  0.2872
 1362TIP3    H1 4050   0.232   3.512   4.554  0.9387  1.1844  1.8687
 1362TIP3    H2 4051   0.121   3.505   4.657 -1.4335 -0.3435 -0.6564
 1363TIP3   OH2 4052   5.149   1.712   3.622 -0.6365  0.3081 -0.0663
 1363TIP3    H1 4053   5.125   1.758   3.541  2.5679  0.9185 -0.7796
 1363TIP3    H2 4054   5.244   1.714   3.624 -0.4834 -2.8038  1.9963
 1364TIP3   OH2 4055   3.989   2.430   3.241 -0.3004  0.0143  0.4383
 1364TIP3    H1 4056   3.982   2.525   3.239 -2.2835 -0.0515  1.9009
 1364TIP3    H2 4057   4.074   2.413   3.283 -0.3665  1.1259  1.0539
 1365TIP3   OH2 4058   5.117   2.873   0.635 -0.2225  0.6529  0.1152
 1365TIP3    H1 4059   5.211   2.866   0.652  0.2609  0.5071 -2.2772
 1365TIP3    H2 4060   5.108   2.954   0.585 -0.9408 -0.5478 -1.8517
 1366TIP3   OH2 4061   4.173   3.212   4.421 -0.1524 -0.2087 -0.4510
 1366TIP3    H1 4062   4.155   3.128   4.464  0.6922 -0.3570 -0.3812
 1366TIP3    H2 4063   4.185   3.189   4.329 -2.3313  0.1541 -0.8725
 1367TIP3   OH2 4064   3.730   6.189   3.136 -0.0564  0.0016  0.4151
 1367TIP3    H1 4065   3.675   6.222   3.065 -0.2303 -0.4945  0.3125
 1367TIP3    H2 4066   3.751   6.099   3.110 -1.4328 -0.7511  1.7290
 1368TIP3   OH2 4067   6.115   3.504   2.734 -0.3660 -0.3333 -0.1484
 1368TIP3    H1 4068   6.104   3.460   2.650 -0.0193 -1.0095  0.1542
 1368TIP3    H2 4069   6.179   3.451   2.781 -1.1031 -0.3766  0.8380
 1369TIP3   OH2 4070   1.646   2.284   5.659 -0.1182 -0.0418  0.6181
 1369TIP3    H1 4071   1.697   2.263   5.737  1.6249 -0.2593 -0.5236
 1369TIP3    H2 4072   1.611   2.199   5.630 -0.5281 -0.0022  0.9857
 1370TIP3   OH2 4073   4.132   1.682   4.145  0.4203 -0.5769 -0.2705
 1370TIP3    H1 4074   4.046   1.682   4.103 -0.3928 -0.6309  1.3154
 1370TIP3    H2 4075   4.123   1.620   4.217  1.2065  0.7727  1.0346
 1371TIP3   OH2 4076   2.134   3.234   0.934 -0.3427 -0.4263 -0.2374
 1371TIP3    H1 4077   2.043   3.260   0.949  0.0761  1.7069 -1.0089
 1371TIP3    H2 4078   2.184   3.285   0.997  0.5204  0.5867 -1.6863
 1372TIP3   OH2 4079   6.965   4.488   3.446  0.3788 -0.2317 -0.2858
 1372TIP3    H1 4080   6.902   4.482   3.517 -2.0191 -1.4739 -2.3780
 1372TIP3    H2 4081   7.022   4.412   3.457  0.7932  0.2300  0.9086
 1373TIP3   OH2 4082   1.766   0.441   2.611  0.0901 -0.3104 -0.1647
 1373TIP3    H1 4083   1.768   0.466   2.518 -0.1167  0.9072  0.1440
 1373TIP3    H2 4084   1.673   0.445   2.635 -0.0140 -1.8167 -0.1904
 1374TIP3   OH2 4085   6.664   2.095   1.122 -0.0466 -0.1125 -0.0475
 1374TIP3    H1 4086   6.684   2.025   1.184 -0.4865  0.7991  1.1432
 1374TIP3    H2 4087   6.602   2.151   1.168  1.0738  1.6332 -0.5819
 1375TIP3   OH2 4088   2.939   2.019   1.264  0.0579  0.2226 -0.2752
 1375TIP3    H1 4089   2.959   2.103   1.223  0.9866  0.5466  0.7912
 1375TIP3    H2 4090   2.999   2.014   1.339 -0.2360 -1.2278 -0.1104
 1376TIP3   OH2 4091   3.559   4.867   0.953 -0.2886 -0.2544 -0.5324
 1376TIP3    H1 4092   3.480   4.892   1.002  0.0348  0.6556 -0.4630
 1376TIP3    H2 4093   3.618   4.942   0.962  1.0536 -1.3726  0.3941
 1377TIP3   OH2 4094   1.351   6.377   4.655 -0.2825 -0.0968 -0.7067
 1377TIP3    H1 4095   1.427   6.326   4.626  0.0918 -0.0448  0.1599
 1377TIP3    H2 4096   1.323   6.424   4.576 -1.2644 -2.3729 -1.8340
 1378TIP3   OH2 4097   4.119   6.487   3.215  0.3061 -0.3743 -1.0525
 1378TIP3    H1 4098   4.200   6.493   3.265  0.3312 -0.1268 -1.1245
 1378TIP3    H2 4099   4.085   6.400   3.235  0.0502 -0.0880 -0.1801
 1379TIP3   OH2 4100   5.364   0.608   5.360 -0.4762 -0.9204  0.4634
 1379TIP3    H1 4101   5.323   0.660   5.430  2.6140 -1.2433  2.7401
 1379TIP3    H2 4102   5.401   0.533   5.406  1.7486 -1.1452 -1.5307
 1380TIP3   OH2 4103   5.178   4.997   3.061  0.7412  0.3909  0.0731
 1380TIP3    H1 4104   5.214   5.054   3.128  2.1674 -0.4794  0.0737
 1380TIP3    H2 4105   5.083   5.008   3.069  0.8213 -0.1308  2.6427
 1381TIP3   OH2 4106   0.001   5.419   5.609 -0.1930  0.4641  0.3573
 1381TIP3    H1 4107   0.005   5.501   5.657 -0.3847  1.2312 -0.9041
 1381TIP3    H2 4108   0.054   5.434   5.531  0.3649 -0.8549  0.4582
 1382TIP3   OH2 4109   4.849   4.067   5.585 -0.3065 -0.2010  0.4160
 1382TIP3    H1 4110   4.920   4.111   5.632  0.2314 -1.0817  0.4428
 1382TIP3    H2 4111   4.854   4.103   5.496  0.6677 -0.7993  0.2138
 1383TIP3   OH2 4112   3.858   0.729   4.066  0.0589  0.1063 -0.6555
 1383TIP3    H1 4113   3.942   0.692   4.040 -0.6912 -1.8857 -0.4480
 1383TIP3    H2 4114   3.793   0.679   4.016 -1.2217 -1.5454  2.3724
 1384TIP3   OH2 4115   4.123   3.079   3.386 -0.5760 -0.6339 -0.3762
 1384TIP3    H1 4116   4.177   3.127   3.322 -1.7109 -0.1752 -1.0247
 1384TIP3    H2 4117   4.093   3.001   3.338 -1.2778 -0.3862 -0.3506
 1385TIP3   OH2 4118   7.238   2.256   0.801  0.2681 -0.3360  0.2503
 1385TIP3    H1 4119   7.197   2.326   0.852 -0.1873  0.7469 -1.5497
 1385TIP3    H2 4120   7.168   2.192   0.787 -0.5052  0.8581 -1.6400
 1386TIP3   OH2 4121   3.853   6.365   4.198 -0.4074 -0.6823 -0.0574
 1386TIP3    H1 4122   3.838   6.316   4.279  0.0432 -0.8492 -0.0706
 1386TIP3    H2 4123   3.795   6.324   4.134 -0.2503 -1.0071  0.0067
 1387TIP3   OH2 4124   2.442   0.441   4.933  0.0000  0.1271  0.3652
 1387TIP3    H1 4125   2.458   0.359   4.885 -0.0511 -0.1807  0.8689
 1387TIP3    H2 4126   2.521   0.455   4.984  0.5713  1.1220 -0.7481
 1388TIP3   OH2 4127   5.611   3.570   1.857 -0.0435 -0.1425 -0.2806
 1388TIP3    H1 4128   5.675   3.597   1.923  0.4822  0.7854 -1.1558
 1388TIP3    H2 4129   5.642   3.484   1.828 -1.0614 -1.2331  1.6521
 1389TIP3   OH2 4130   6.358   5.696   0.266 -0.6646 -0.2428 -0.1123
 1389TIP3    H1 4131   6.417   5.711   0.192 -2.0934  0.0994 -1.2205
 1389TIP3    H2 4132   6.335   5.784   0.297 -0.7873 -0.3710  0.1678
 1390TIP3   OH2 4133   0.709   4.813   1.132  0.1594  0.1915 -0.2378
 1390TIP3    H1 4134   0.621   4.813   1.095  0.4868 -1.4271 -1.1285
 1390TIP3    H2 4135   0.696   4.825   1.226 -0.8223  2.3275 -0.5935
 1391TIP3   OH2 4136   4.748   1.793   2.233  0.3128  0.2281  0.0213
 1391TIP3    H1 4137   4.824   1.776   2.177 -0.5571  1.1572 -1.5447
 1391TIP3    H2 4138   4.741   1.888   2.234 -0.9637  0.1543 -0.0985
 1392TIP3   OH2 4139   3.309   6.671   4.835  0.2935 -0.3676 -0.4428
 1392TIP3    H1 4140   3.360   6.744   4.801  0.7167 -0.7677 -0.6794
 1392TIP3    H2 4141   3.368   6.627   4.896 -0.1320 -0.2209  0.0802
 1393TIP3   OH2 4142   1.710   5.676   3.804  0.0559 -0.4049  0.3028
 1393TIP3    H1 4143   1.711   5.725   3.887  1.0817 -0.0720  0.1095
 1393TIP3    H2 4144   1.749   5.736   3.741  1.9122 -1.6864  0.1799
 1394TIP3   OH2 4145   5.910   0.076   1.518  0.6555  0.2219  0.3422
 1394TIP3    H1 4146   5.902   0.107   1.427  0.7273  0.4733  0.4205
 1394TIP3    H2 4147   5.987   0.018   1.517 -0.1762 -0.9184 -0.0629
 1395TIP3   OH2 4148   0.572   2.249   0.936 -0.1345 -0.2064  0.6333
 1395TIP3    H1 4149   0.642   2.313   0.920  0.9857 -1.3576  0.7275
 1395TIP3    H2 4150   0.536   2.231   0.849  1.1635 -1.1951  0.2632
 1396TIP3   OH2 4151   3.782   0.748   2.370  0.0147  0.0863  0.1609
 1396TIP3    H1 4152   3.706   0.792   2.332  1.3358  2.3828 -0.0373
 1396TIP3    H2 4153   3.842   0.737   2.296  0.1494 -1.1398  0.4294
 1397TIP3   OH2 4154   0.638   2.015   4.941  0.1218  0.0188 -0.5626
 1397TIP3    H1 4155   0.576   1.953   4.902  0.3095  0.5427 -1.7525
 1397TIP3    H2 4156   0.604   2.031   5.029 -0.6124 -0.8232 -0.6759
 1398TIP3   OH2 4157   1.921   2.554   0.363 -0.1158 -0.5138 -0.3041
 1398TIP3    H1 4158   1.999   2.543   0.309  0.2588 -0.9634  0.3122
 1398TIP3    H2 4159   1.874   2.471   0.355  0.0647 -0.6707  0.2522
 1399TIP3   OH2 4160   2.903   4.587   1.362 -0.3238  0.5716 -0.4474
 1399TIP3    H1 4161   2.829   4.543   1.404  0.0405 -0.3086 -0.6936
 1399TIP3    H2 4162   2.889   4.573   1.269  1.5411 -2.0180 -0.4308
 1400TIP3   OH2 4163   7.105   0.043   5.136 -0.3920  0.1926  0.6731
 1400TIP3    H1 4164   7.146  -0.040   5.159 -1.7651 -0.9859 -0.8310
 1400TIP3    H2 4165   7.150   0.071   5.057 -0.6731  0.2915  0.5458
 1401TIP3   OH2 4166   0.153   1.136   3.584 -0.2844  0.3085  0.9693
 1401TIP3    H1 4167   0.235   1.088   3.594  0.4986  0.8627 -1.8140
 1401TIP3    H2 4168   0.088   1.068   3.568  0.0832 -0.0314  0.9014
 1402TIP3   OH2 4169   0.103   1.688   0.378 -0.1168  0.5947  0.1384
 1402TIP3    H1 4170   0.195   1.662   0.371  0.0298  1.2407 -0.6032
 1402TIP3    H2 4171   0.072   1.649   0.459  0.6166 -0.2283  0.0319
 1403TIP3   OH2 4172   5.629   6.522   4.692 -0.1018  0.7446 -0.1899
 1403TIP3    H1 4173   5.557   6.484   4.641  2.2458 -0.4803 -2.9166
 1403TIP3    H2 4174   5.642   6.609   4.655  0.3904  0.5778 -0.4347
 1404TIP3   OH2 4175   3.538   0.574   0.550  0.2751  0.2341  0.0043
 1404TIP3    H1 4176   3.481   0.517   0.499  0.1261 -0.2308  0.6705
 1404TIP3    H2 4177   3.538   0.658   0.503 -0.6169  0.1094 -0.2305
 1405TIP3   OH2 4178   1.156   6.346   4.871 -0.4242 -0.0607 -0.5324
 1405TIP3    H1 4179   1.073   6.368   4.828 -0.4339  1.4819  0.1844
 1405TIP3    H2 4180   1.222   6.359   4.803 -0.3582  3.0887 -0.0280
 1406TIP3   OH2 4181   3.828   2.766   4.808 -0.3011 -0.3488  0.3669
 1406TIP3    H1 4182   3.809   2.786   4.716 -0.5367 -0.8540  0.2999
 1406TIP3    H2 4183   3.898   2.701   4.804 -0.4213 -0.4892  0.5406
 1407TIP3   OH2 4184   0.501   1.132   0.859 -0.1709  0.0565  0.3531
 1407TIP3    H1 4185   0.592   1.111   0.839  0.1275  0.1185  1.5633
 1407TIP3    H2 4186   0.463   1.155   0.774  1.6290  2.6803  0.0999
 1408TIP3   OH2 4187   4.113   3.188   5.747 -0.1360 -0.0833  0.3411
 1408TIP3    H1 4188   4.055   3.113   5.759 -2.0693  1.0810 -1.1135
 1408TIP3    H2 4189   4.080   3.254   5.807  0.4315  0.2251  0.3274
 1409TIP3   OH2 4190   0.888   5.664   3.980  0.2399  0.5204  0.3703
 1409TIP3    H1 4191   0.860   5.670   3.888  1.4013  0.3359 -0.0093
 1409TIP3    H2 4192   0.871   5.573   4.003  0.5644  0.3931  0.1213
 1410TIP3   OH2 4193   6.388   3.414   4.276 -0.4818  0.0345  0.1250
 1410TIP3    H1 4194   6.474   3.409   4.234 -0.7622  1.2146 -0.6549
 1410TIP3    H2 4195   6.406   3.412   4.370  0.3646 -0.0113 -0.0310
 1411TIP3   OH2 4196   1.184   6.235   0.425 -0.2305  0.7756  0.5085
 1411TIP3    H1 4197   1.104   6.231   0.373  0.2536 -1.5009 -0.2070
 1411TIP3    H2 4198   1.253   6.249   0.361  0.1073  0.8072  0.8747
 1412TIP3   OH2 4199   0.105   4.051   1.231 -0.1054  0.0192 -0.4322
 1412TIP3    H1 4200   0.115   3.970   1.281  1.0264 -0.1963 -0.9741
 1412TIP3    H2 4201   0.123   4.025   1.140  1.5270  1.1021 -0.4574
 1413TIP3   OH2 4202   0.696   5.778   5.646  0.7914  0.3221  0.1131
 1413TIP3    H1 4203   0.728   5.736   5.566 -0.1318  0.6921 -0.4725
 1413TIP3    H2 4204   0.614   5.820   5.619  0.8116  1.0199  1.0981
 1414TIP3   OH2 4205   6.665   6.410   1.849  0.3313  0.1863  0.4626
 1414TIP3    H1 4206   6.641   6.423   1.941 -0.2398  0.0822  0.3288
 1414TIP3    H2 4207   6.632   6.322   1.828  0.9014  0.0054  0.2984
 1415TIP3   OH2 4208   6.285   5.914   0.394 -0.0117 -0.3201  0.5850
 1415TIP3    H1 4209   6.211   5.902   0.454  0.9252  1.4358  2.2133
 1415TIP3    H2 4210   6.274   6.003   0.360  2.2583  0.7559  2.3481
 1416TIP3   OH2 4211   4.913   5.054   1.298  0.3137 -0.9382  0.0597
 1416TIP3    H1 4212   5.001   5.044   1.262  0.7300 -0.0379  0.7627
 1416TIP3    H2 4213   4.927   5.102   1.380 -0.9935  0.8658 -0.7092
 1417TIP3   OH2 4214   2.274   3.292   2.309 -0.9740 -0.5573  0.1003
 1417TIP3    H1 4215   2.248   3.364   2.253 -0.4721 -0.3726  0.1042
 1417TIP3    H2 4216   2.217   3.219   2.283 -0.9247 -0.3971 -0.4623
 1418TIP3   OH2 4217   2.863   0.049   0.890 -0.2885 -0.0358  0.0633
 1418TIP3    H1 4218   2.878   0.102   0.968 -0.2338 -1.1998  0.8652
 1418TIP3    H2 4219   2.853  -0.040   0.923 -2.5141 -0.2474 -1.0362
 1419TIP3   OH2 4220   5.978   1.204   5.155 -0.9283 -0.2371  0.0085
 1419TIP3    H1 4221   6.015   1.116   5.150 -0.1338  0.0280  0.9754
 1419TIP3    H2 4222   5.890   1.191   5.189 -0.3495 -0.5754  1.4709
 1420TIP3   OH2 4223   0.309   2.361   3.980  0.5693  0.4092  1.1032
 1420TIP3    H1 4224   0.298   2.279   3.932  1.8946  0.1416  1.2091
 1420TIP3    H2 4225   0.398   2.356   4.015  0.4163  1.5897  1.7009
 1421TIP3   OH2 4226   0.981   2.841   1.339  0.7268 -0.2561 -0.2251
 1421TIP3    H1 4227   0.950   2.880   1.258 -0.0156  0.1528  0.2429
 1421TIP3    H2 4228   1.066   2.884   1.356  1.1340 -0.7219 -1.0407
 1422TIP3   OH2 4229   3.509   2.096   4.855  0.0794  0.1860 -0.0021
 1422TIP3    H1 4230   3.514   2.040   4.778  1.4803  0.6222 -0.2387
 1422TIP3    H2 4231   3.591   2.145   4.856 -0.8542  1.8419  0.5189
 1423TIP3   OH2 4232   4.846   4.626   3.637 -0.5482  0.4806  0.1611
 1423TIP3    H1 4233   4.828   4.627   3.543  2.4323  0.3122 -0.5291
 1423TIP3    H2 4234   4.762   4.645   3.678 -2.7968 -2.8107 -2.3409
 1424TIP3   OH2 4235   5.283   2.544   1.861  0.3188 -0.2744 -0.2236
 1424TIP3    H1 4236   5.275   2.451   1.839 -0.6360  0.3402 -2.8228
 1424TIP3    H2 4237   5.208   2.585   1.818  1.0593  1.7912  0.3527
 1425TIP3   OH2 4238   4.974   1.606   1.896  0.4600  0.5366 -0.4314
 1425TIP3    H1 4239   5.002   1.530   1.846 -0.2980  0.5294 -0.8637
 1425TIP3    H2 4240   4.881   1.591   1.914  0.6194  0.7317  0.6397
 1426TIP3   OH2 4241   7.007   1.626   0.994  0.2741  0.4800 -0.3530
 1426TIP3    H1 4242   6.984   1.719   0.989 -0.9289  0.1241 -2.2315
 1426TIP3    H2 4243   7.101   1.626   1.007  0.1815  1.9583  0.6155
 1427TIP3   OH2 4244   5.867   0.882   4.956  0.4300  0.3522 -0.0484
 1427TIP3    H1 4245   5.961   0.896   4.944  0.6411 -1.3665 -0.6521
 1427TIP3    H2 4246   5.862   0.805   5.013 -0.5918 -0.1930 -0.8481
 1428TIP3   OH2 4247   4.123   1.255   1.328 -0.5432 -0.1668 -0.0886
 1428TIP3    H1 4248   4.184   1.183   1.345 -1.0851 -0.4285  0.8222
 1428TIP3    H2 4249   4.153   1.325   1.386 -1.7249 -0.6677  1.1848
 1429TIP3   OH2 4250   5.750   4.494   0.772  0.1542  0.2904  0.3352
 1429TIP3    H1 4251   5.690   4.555   0.816 -0.5483 -1.1383  1.4478
 1429TIP3    H2 4252   5.692   4.432   0.727  0.8355 -0.1428  0.0441
 1430TIP3   OH2 4253   3.492   1.095   5.850 -1.2205 -0.5284 -0.4856
 1430TIP3    H1 4254   3.462   1.010   5.884  0.3994 -1.2214 -0.7271
 1430TIP3    H2 4255   3.474   1.157   5.922 -0.0500 -1.5425  0.7220
 1431TIP3   OH2 4256   2.152   0.344   5.792 -0.5306 -0.7969 -0.7242
 1431TIP3    H1 4257   2.174   0.359   5.884 -1.3365 -0.3322 -0.5983
 1431TIP3    H2 4258   2.194   0.417   5.745  0.3043 -1.3120 -0.7934
 1432TIP3   OH2 4259   2.415   2.476   5.062  0.0202  0.0040  0.1451
 1432TIP3    H1 4260   2.401   2.405   5.125  0.5835 -1.5185 -1.3809
 1432TIP3    H2 4261   2.389   2.439   4.978 -0.8123  2.0267 -0.5422
 1433TIP3   OH2 4262   0.137   4.817   1.302 -0.6482 -0.2375 -0.3713
 1433TIP3    H1 4263   0.056   4.781   1.338 -0.7810 -1.8654 -2.2023
 1433TIP3    H2 4264   0.195   4.742   1.292  0.3266  0.5863 -1.0804
 1434TIP3   OH2 4265   3.304   0.621   1.229  0.2089 -0.3060 -0.4158
 1434TIP3    H1 4266   3.307   0.676   1.308  0.3308  0.7193 -1.1182
 1434TIP3    H2 4267   3.337   0.536   1.258  0.5070  0.1325  0.5764
 1435TIP3   OH2 4268   1.217   5.231   1.320 -0.1961 -0.3990  0.1890
 1435TIP3    H1 4269   1.149   5.164   1.310 -0.6627  0.3011 -1.7903
 1435TIP3    H2 4270   1.171   5.314   1.304  0.6014  0.3379  1.5097
 1436TIP3   OH2 4271   7.037   6.326   1.824 -0.2336  0.3855 -0.3978
 1436TIP3    H1 4272   6.953   6.295   1.789 -0.0549  0.6002 -1.0284
 1436TIP3    H2 4273   7.021   6.338   1.918 -0.6746 -0.3486 -0.3728
 1437TIP3   OH2 4274   6.264   1.614   5.178 -0.2070 -0.1685 -0.3165
 1437TIP3    H1 4275   6.358   1.596   5.179 -0.2959 -0.6130 -0.0344
 1437TIP3    H2 4276   6.250   1.675   5.251 -0.0690  0.2484 -0.6357
 1438TIP3   OH2 4277   4.899   6.071   5.843  0.4382 -0.1062  0.4453
 1438TIP3    H1 4278   4.906   6.142   5.907 -0.2096 -0.8918  1.4192
 1438TIP3    H2 4279   4.983   6.027   5.846  0.4557 -0.0595  0.6649
 1439TIP3   OH2 4280   6.427   6.270   2.667  0.0457  0.0992  0.1698
 1439TIP3    H1 4281   6.421   6.352   2.619  1.5034  0.5975  0.7591
 1439TIP3    H2 4282   6.471   6.210   2.607 -0.0978  0.0588  0.1050
 1440TIP3   OH2 4283   0.763   0.979   0.791 -0.1477 -0.2996 -0.0119
 1440TIP3    H1 4284   0.714   0.917   0.737  0.3470 -0.8777  0.1871
 1440TIP3    H2 4285   0.803   0.925   0.859 -0.0763  0.3033  0.4343
 1441TIP3   OH2 4286   4.932   5.998   5.125  0.3986 -0.3923 -0.0898
 1441TIP3    H1 4287   4.896   5.981   5.211  0.2185 -1.5773 -0.3802
 1441TIP3    H2 4288   4.986   6.076   5.136 -1.3682  0.7988  0.5848
 1442TIP3   OH2 4289   3.791   4.133   1.390  0.0182 -0.1223 -0.2284
 1442TIP3    H1 4290   3.725   4.079   1.346 -2.5973  1.4435  1.5028
 1442TIP3    H2 4291   3.869   4.123   1.336 -1.3334 -2.7903 -1.9321
 1443TIP3   OH2 4292   0.775   6.611   3.017  0.0587  0.1912 -0.4348
 1443TIP3    H1 4293   0.740   6.699   3.031 -2.0454 -0.8044  1.0076
 1443TIP3    H2 4294   0.842   6.623   2.949 -0.6152  2.7789 -0.7638
 1444TIP3   OH2 4295   3.022   5.123   2.913  0.4847 -0.1955  0.1872
 1444TIP3    H1 4296   3.072   5.047   2.885  1.4671  0.9859 -1.3963
 1444TIP3    H2 4297   2.965   5.143   2.839  0.1699  0.5756  0.6262
 1445TIP3   OH2 4298   6.398   3.848   0.526  0.2472 -0.4373  0.0400
 1445TIP3    H1 4299   6.358   3.836   0.612  0.5911 -0.1552  0.2428
 1445TIP3    H2 4300   6.335   3.900   0.476 -0.1668 -1.0070 -0.0410
 1446TIP3   OH2 4301   6.028   4.568   1.181 -0.0668  0.3836 -0.0725
 1446TIP3    H1 4302   5.985   4.503   1.237 -2.1671  0.1819 -1.7832
 1446TIP3    H2 4303   6.111   4.586   1.225 -1.2381 -0.3039  2.6747
 1447TIP3   OH2 4304   5.787   0.031   0.869 -0.0997 -0.2311 -0.3582
 1447TIP3    H1 4305   5.748   0.115   0.892 -0.4070 -0.9990  2.1752
 1447TIP3    H2 4306   5.740   0.004   0.790 -1.7563  0.8406  0.2017
 1448TIP3   OH2 4307   5.581   1.075   1.749 -0.0234  0.3016 -0.3751
 1448TIP3    H1 4308   5.623   1.122   1.821  0.9535 -0.4620 -0.4146
 1448TIP3    H2 4309   5.552   0.992   1.787  0.9462 -0.3204 -0.9434
 1449TIP3   OH2 4310   3.037   4.582   2.311  0.2562 -0.2027  0.5407
 1449TIP3    H1 4311   2.995   4.668   2.308  0.2900 -0.0595  2.5252
 1449TIP3    H2 4312   3.011   4.546   2.396  0.9161 -1.8054  0.0966
 1450TIP3   OH2 4313   3.981   0.053   5.735 -0.3072 -0.3683 -0.2267
 1450TIP3    H1 4314   3.941   0.126   5.689 -1.1714 -0.6727  0.0307
 1450TIP3    H2 4315   3.933  -0.024   5.705  1.2789 -0.9805 -1.2998
 1451TIP3   OH2 4316   4.440   1.329   5.394  0.2116 -0.3345  0.1840
 1451TIP3    H1 4317   4.367   1.367   5.345  1.4010  1.0490 -0.6180
 1451TIP3    H2 4318   4.423   1.354   5.485  0.0470  0.6676 -0.1003
 1452TIP3   OH2 4319   3.824   2.522   4.538  0.1787 -0.4421 -0.1139
 1452TIP3    H1 4320   3.904   2.497   4.494  0.9870 -0.5601  1.3415
 1452TIP3    H2 4321   3.851   2.542   4.628 -0.9580  2.1991 -0.2372
 1453TIP3   OH2 4322   3.561   3.094   3.480 -0.1703  0.2911 -0.1431
 1453TIP3    H1 4323   3.517   3.173   3.511 -0.8361 -0.2789  0.3956
 1453TIP3    H2 4324   3.495   3.025   3.487 -0.0676 -0.0402 -2.0063
 1454TIP3   OH2 4325   4.070   5.692   4.999 -0.3003 -0.2469 -0.5176
 1454TIP3    H1 4326   4.155   5.726   4.970  0.3718 -1.3544  0.0618
 1454TIP3    H2 4327   4.085   5.599   5.012 -1.4079 -0.3286  0.3469
 1455TIP3   OH2 4328   4.928   4.788   4.075  0.4943 -0.2636  0.5282
 1455TIP3    H1 4329   4.847   4.838   4.083  1.4149  1.2798  0.7500
 1455TIP3    H2 4330   4.963   4.812   3.989  0.5932 -1.1236  0.3172
 1456TIP3   OH2 4331   0.084   3.147   2.745  0.2740  0.3065  0.7024
 1456TIP3    H1 4332   0.026   3.218   2.720  0.2402 -0.4845 -1.7860
 1456TIP3    H2 4333   0.162   3.158   2.689  0.4690 -1.2856  0.5946
 1457TIP3   OH2 4334   1.072   2.542   2.245 -0.1973  0.0201 -0.4091
 1457TIP3    H1 4335   1.024   2.537   2.162  1.9639  0.4453 -1.7720
 1457TIP3    H2 4336   1.106   2.631   2.247  0.6812 -0.3166  0.3810
 1458TIP3   OH2 4337   0.776   0.256   5.657  0.0445  0.0164  0.3252
 1458TIP3    H1 4338   0.760   0.291   5.744  1.5235 -0.3721  0.7940
 1458TIP3    H2 4339   0.708   0.294   5.602  0.0277  1.5244  1.3316
 1459TIP3   OH2 4340   5.020   1.384   2.814  0.2343 -0.5491  0.1790
 1459TIP3    H1 4341   5.107   1.382   2.853 -0.2223  0.9909  1.3406
 1459TIP3    H2 4342   4.968   1.439   2.872 -1.6162 -1.6501 -0.3260
 1460TIP3   OH2 4343   0.416   5.777   5.522  0.2048  0.3347 -0.0177
 1460TIP3    H1 4344   0.387   5.686   5.525 -0.5093  0.5457 -0.2463
 1460TIP3    H2 4345   0.336   5.828   5.534  0.2089  0.9539 -2.2579
 1461TIP3   OH2 4346   2.129   5.047   2.228 -0.4581 -0.0573  0.1212
 1461TIP3    H1 4347   2.067   5.025   2.159 -0.9923 -0.2156  0.6392
 1461TIP3    H2 4348   2.214   5.052   2.184 -0.9323  0.8794 -0.7397
 1462TIP3   OH2 4349   2.248   0.500   2.799 -0.0079 -0.2482 -0.0800
 1462TIP3    H1 4350   2.263   0.487   2.893  0.3974  0.9144  0.0298
 1462TIP3    H2 4351   2.235   0.594   2.790 -0.0164 -0.3485 -1.1996
 1463TIP3   OH2 4352   1.742   5.591   3.465  0.0007 -0.7999 -0.1173
 1463TIP3    H1 4353   1.705   5.602   3.377 -1.0566 -0.8043  0.3003
 1463TIP3    H2 4354   1.763   5.680   3.493 -0.4606 -0.7076 -0.0524
 1464TIP3   OH2 4355   6.332   1.929   2.417 -0.4176 -0.1670 -0.0137
 1464TIP3    H1 4356   6.237   1.925   2.409 -0.3399  0.5078 -1.9601
 1464TIP3    H2 4357   6.358   1.998   2.355  1.3005 -0.0352  0.7942
 1465TIP3   OH2 4358   1.498   1.400   2.284  0.5512  0.0298 -0.3993
 1465TIP3    H1 4359   1.533   1.462   2.220 -0.3306 -0.4274 -1.3529
 1465TIP3    H2 4360   1.417   1.367   2.245 -0.4631  0.3416  1.3298
 1466TIP3   OH2 4361   1.137   1.059   0.528  0.6072  0.2877 -0.1929
 1466TIP3    H1 4362   1.128   1.048   0.623  1.4909  3.2691  0.3340
 1466TIP3    H2 4363   1.047   1.069   0.497  0.2771 -1.1602  0.2069
 1467TIP3   OH2 4364   3.758   4.794   1.271  0.1410 -0.3161 -0.2387
 1467TIP3    H1 4365   3.826   4.847   1.230 -0.4033 -0.4924 -1.4182
 1467TIP3    H2 4366   3.707   4.760   1.198 -1.0508 -0.4117  0.6040
 1468TIP3   OH2 4367   2.877   6.634   1.572 -0.3229  0.1418  0.3295
 1468TIP3    H1 4368   2.812   6.661   1.636 -1.4422 -0.1589 -0.6424
 1468TIP3    H2 4369   2.952   6.692   1.588 -1.3868  1.5308  0.5177
 1469TIP3   OH2 4370   5.282   1.346   0.536  0.2228  0.2928 -0.0783
 1469TIP3    H1 4371   5.267   1.351   0.441 -1.1098  0.9246  0.1434
 1469TIP3    H2 4372   5.251   1.430   0.570 -1.4902 -0.7742  1.1689
 1470TIP3   OH2 4373   6.529   1.058   4.392  0.7216  0.3089 -0.0853
 1470TIP3    H1 4374   6.563   1.110   4.466  0.3955  2.1727 -1.1751
 1470TIP3    H2 4375   6.439   1.088   4.381  1.2597  1.3540 -2.2630
 1471TIP3   OH2 4376   4.078   3.470   2.627 -0.1393 -0.1562 -0.0457
 1471TIP3    H1 4377   4.109   3.409   2.561 -2.2615 -2.7974  1.1827
 1471TIP3    H2 4378   3.991   3.497   2.596 -0.3403  0.0866  0.6934
 1472TIP3   OH2 4379   5.285   0.744   5.630  0.3670 -0.0422  1.0968
 1472TIP3    H1 4380   5.327   0.727   5.715 -0.6992  1.2116  1.9157
 1472TIP3    H2 4381   5.288   0.839   5.620 -0.3253 -0.1005  0.1626
 1473TIP3   OH2 4382   4.166   1.055   0.928 -0.8319 -0.2189  0.9587
 1473TIP3    H1 4383   4.078   1.023   0.950 -1.7904  1.5322 -0.0462
 1473TIP3    H2 4384   4.152   1.108   0.849  1.1011  0.3101  0.9401
 1474TIP3   OH2 4385   3.880   5.753   1.638 -0.1946 -0.6564  0.1771
 1474TIP3    H1 4386   3.808   5.768   1.576 -0.3586 -1.8344  0.0634
 1474TIP3    H2 4387   3.883   5.658   1.648  1.3951 -0.6254  0.1222
 1475TIP3   OH2 4388   4.577   0.949   3.525 -0.5200  0.1287  0.5400
 1475TIP3    H1 4389   4.503   1.008   3.541  0.0820  0.8012  0.8794
 1475TIP3    H2 4390   4.642   0.974   3.590 -0.0963 -0.6533  0.4299
 1476TIP3   OH2 4391   3.975   6.395   2.194 -0.1205 -0.5601 -0.4208
 1476TIP3    H1 4392   3.993   6.469   2.252 -0.0022 -0.6816 -0.3019
 1476TIP3    H2 4393   3.882   6.377   2.207  0.0767 -1.1091  0.3526
 1477TIP3   OH2 4394   3.869   6.635   4.174  0.0428  0.0226 -0.6037
 1477TIP3    H1 4395   3.868   6.544   4.204 -0.3194  0.0855 -0.4092
 1477TIP3    H2 4396   3.938   6.639   4.108  0.3941 -0.2792 -0.2588
 1478TIP3   OH2 4397   4.843   3.540   4.214  0.3433  0.2126 -0.6790
 1478TIP3    H1 4398   4.801   3.566   4.296  1.5024  1.8422 -0.5653
 1478TIP3    H2 4399   4.826   3.612   4.154  1.9412  0.3666 -0.9797
 1479TIP3   OH2 4400   6.323   4.217   3.929  0.4176  0.3607 -0.6517
 1479TIP3    H1 4401   6.311   4.147   3.865 -1.2816 -1.1667  1.2180
 1479TIP3    H2 4402   6.408   4.197   3.970 -0.1400 -0.7847  0.0068
 1480TIP3   OH2 4403   2.533   0.757   2.214  0.4785 -0.3265 -0.9688
 1480TIP3    H1 4404   2.464   0.742   2.150 -0.3676 -1.5234  0.1675
 1480TIP3    H2 4405   2.489   0.804   2.285  1.1033 -0.0905 -0.7337
 1481TIP3   OH2 4406   2.363   0.184   0.370 -0.1900 -0.4674  0.3330
 1481TIP3    H1 4407   2.338   0.185   0.462 -1.2865 -2.0704  0.0878
 1481TIP3    H2 4408   2.456   0.161   0.371 -0.7260 -2.9054  1.0121
 1482TIP3   OH2 4409   1.573   3.759   0.487  0.2460  0.1504  0.2367
 1482TIP3    H1 4410   1.509   3.693   0.462  1.5555 -1.5158  1.0598
 1482TIP3    H2 4411   1.523   3.840   0.493 -1.2404 -0.5545 -1.6886
 1483TIP3   OH2 4412   5.376   1.795   5.894 -0.2083  0.5071  0.1500
 1483TIP3    H1 4413   5.314   1.777   5.824 -1.4401  1.0043  1.0795
 1483TIP3    H2 4414   5.366   1.889   5.912 -0.3824  0.2608  1.4130
 1484TIP3   OH2 4415   3.176   4.689   1.969 -0.2882  0.1257 -0.1490
 1484TIP3    H1 4416   3.096   4.679   2.020 -1.0787  1.0643 -1.1579
 1484TIP3    H2 4417   3.188   4.606   1.925 -0.5896 -0.0845  0.1626
 1485TIP3   OH2 4418   1.447   5.961   1.185  0.4333  0.0765  0.1076
 1485TIP3    H1 4419   1.418   6.029   1.125  0.8645  0.3469  0.2030
 1485TIP3    H2 4420   1.518   6.001   1.235 -0.6530  0.2293  1.5891
 1486TIP3   OH2 4421   4.200   4.915   1.875 -0.1700  0.6202  0.3689
 1486TIP3    H1 4422   4.291   4.885   1.872 -0.1459  0.4349  2.1662
 1486TIP3    H2 4423   4.150   4.840   1.841  0.2080 -0.0453  1.2285
 1487TIP3   OH2 4424   0.726   3.166   4.017 -0.1327 -0.3077 -0.0141
 1487TIP3    H1 4425   0.707   3.127   4.102 -0.6390 -2.3910 -1.0113
 1487TIP3    H2 4426   0.640   3.184   3.979  0.0894  0.6634 -0.0759
 1488TIP3   OH2 4427   0.639   4.855   3.141 -0.1777  0.3037 -0.3130
 1488TIP3    H1 4428   0.594   4.784   3.188  1.8648  0.0906  1.4736
 1488TIP3    H2 4429   0.568   4.906   3.102 -1.8041 -1.6668 -0.1452
 1489TIP3   OH2 4430   3.611   0.823   4.681  0.1119  0.2334  0.0415
 1489TIP3    H1 4431   3.701   0.826   4.715  0.1940 -1.7289  0.1361
 1489TIP3    H2 4432   3.617   0.766   4.604 -1.0591  0.0585  0.0717
 1490TIP3   OH2 4433   0.040   2.879   2.715 -0.2041  0.6891 -0.2549
 1490TIP3    H1 4434   0.025   2.965   2.755  1.0176 -0.0498  1.9489
 1490TIP3    H2 4435  -0.047   2.850   2.688 -0.9364  1.7885  0.7880
 1491TIP3   OH2 4436   1.975   2.946   5.613  0.5953  0.0861 -0.5846
 1491TIP3    H1 4437   1.916   2.998   5.667  2.3713  0.9765  0.5828
 1491TIP3    H2 4438   1.917   2.905   5.547 -1.5183 -0.3200  1.3908
 1492TIP3   OH2 4439   4.087   4.978   0.790  0.0867  0.3798 -0.4473
 1492TIP3    H1 4440   4.154   4.982   0.858  1.6148  1.2630 -1.9312
 1492TIP3    H2 4441   4.061   4.885   0.788  1.1643  0.0471  0.2428
 1493TIP3   OH2 4442   0.126   1.248   3.325  0.2527  0.5153  0.0013
 1493TIP3    H1 4443   0.158   1.187   3.391 -0.5081  0.0818 -0.0274
 1493TIP3    H2 4444   0.107   1.328   3.374 -2.5319 -0.4984  0.7961
 1494TIP3   OH2 4445   6.111   3.163   5.875 -0.0420 -0.6805  0.1305
 1494TIP3    H1 4446   6.069   3.229   5.820 -1.3773 -0.6226  1.1707
 1494TIP3    H2 4447   6.203   3.188   5.876 -0.5943  1.6096  1.0566
 1495TIP3   OH2 4448   0.408   4.198   5.424 -0.0153 -0.0544  0.1891
 1495TIP3    H1 4449   0.446   4.113   5.446  1.2743  0.6408  0.7660
 1495TIP3    H2 4450   0.390   4.193   5.330  1.7035 -0.3809 -0.1619
 1496TIP3   OH2 4451   4.009   0.194   3.786  0.7177  0.0578  0.1907
 1496TIP3    H1 4452   4.065   0.256   3.739 -0.4304  0.4504 -0.7051
 1496TIP3    H2 4453   3.970   0.244   3.857  1.6789 -0.2869  0.9924
 1497TIP3   OH2 4454   2.717   6.723   2.691  0.0905 -0.1071 -0.0834
 1497TIP3    H1 4455   2.636   6.771   2.679 -0.5469 -0.6055  1.9257
 1497TIP3    H2 4456   2.691   6.631   2.692  0.4564 -0.2217  1.8621
 1498TIP3   OH2 4457   5.967   0.399   2.289  0.5044 -0.3495  0.2470
 1498TIP3    H1 4458   5.932   0.488   2.281  0.7776 -0.2952 -0.4452
 1498TIP3    H2 4459   6.011   0.383   2.205  0.3001 -1.2040  0.2911
 1499TIP3   OH2 4460   2.290   2.933   1.188 -0.3494 -0.4411 -0.0616
 1499TIP3    H1 4461   2.382   2.954   1.171 -0.9138  0.9684 -1.6817
 1499TIP3    H2 4462   2.276   2.955   1.280  0.8785 -0.4817  0.1427
 1500TIP3   OH2 4463   1.117   1.162   5.325 -0.2279 -0.0328 -0.5644
 1500TIP3    H1 4464   1.122   1.072   5.293  0.0187  0.1350 -1.0165
 1500TIP3    H2 4465   1.101   1.154   5.419 -1.7588 -0.5358 -0.8414
 1501TIP3   OH2 4466   3.884   3.970   5.739 -0.0600  0.7714 -0.1821
 1501TIP3    H1 4467   3.814   3.952   5.802 -1.4043 -1.5991 -2.1866
 1501TIP3    H2 4468   3.957   3.915   5.767 -0.2797  0.5251 -0.0917
 1502TIP3   OH2 4469   2.261   0.447   0.585 -0.1746 -0.2712  0.4954
 1502TIP3    H1 4470   2.203   0.504   0.635  2.0987  1.7107  1.1015
 1502TIP3    H2 4471   2.245   0.470   0.493 -2.4005 -1.9383  0.4013
 1503TIP3   OH2 4472   4.064   5.785   3.643  0.7625 -0.5253 -0.0411
 1503TIP3    H1 4473   4.127   5.744   3.584  0.3761  0.8917 -1.5317
 1503TIP3    H2 4474   4.037   5.865   3.596 -1.2962 -0.5368  1.0415
 1504TIP3   OH2 4475   5.093   4.810   0.996  0.2423 -0.1531 -0.1275
 1504TIP3    H1 4476   5.126   4.863   1.069  0.3840 -1.4900  0.8046
 1504TIP3    H2 4477   5.083   4.722   1.032 -1.9471 -0.3577 -1.0749
 1505TIP3   OH2 4478   5.982   0.974   1.838  0.1142  0.2157  0.3064
 1505TIP3    H1 4479   5.952   0.952   1.749 -0.3083 -0.1321  0.5316
 1505TIP3    H2 4480   5.994   1.069   1.837  1.5298  0.0553 -0.5588
 1506TIP3   OH2 4481   3.430   1.905   3.970 -0.2068  0.0964 -0.2347
 1506TIP3    H1 4482   3.349   1.942   4.004 -0.6900 -2.3413  1.5202
 1506TIP3    H2 4483   3.423   1.913   3.875 -1.1882  2.4202 -0.0348
 1507TIP3   OH2 4484   3.814   5.877   0.189 -0.2982  0.2175  0.4575
 1507TIP3    H1 4485   3.887   5.939   0.193  0.4003 -0.6221  1.0228
 1507TIP3    H2 4486   3.769   5.900   0.108  0.5941  0.7620  0.0928
 1508TIP3   OH2 4487   6.854   0.910   0.026  0.5994 -0.3726  0.7852
 1508TIP3    H1 4488   6.868   0.953   0.111 -0.2338  0.5724  0.4612
 1508TIP3    H2 4489   6.847   0.817   0.048  0.1147 -0.1150  1.7911
 1509TIP3   OH2 4490   0.994   4.121   5.388  0.4002 -0.0893  0.0646
 1509TIP3    H1 4491   0.908   4.156   5.411  0.9034  0.9604  0.4197
 1509TIP3    H2 4492   1.053   4.195   5.397  1.3013 -0.7204 -0.4827
 1510TIP3   OH2 4493   4.527   5.999   4.063  0.6052  0.2462 -0.1757
 1510TIP3    H1 4494   4.438   6.032   4.080  1.1066  1.2792  0.5913
 1510TIP3    H2 4495   4.576   6.077   4.036  1.6165 -0.0336  0.7766
 1511TIP3   OH2 4496   6.918   3.987   3.785  0.2692  0.2692  0.1671
 1511TIP3    H1 4497   6.870   4.021   3.709  0.0493  0.8412  0.5544
 1511TIP3    H2 4498   6.922   4.061   3.845  0.3980 -0.1970  0.7369
 1512TIP3   OH2 4499   2.099   0.213   3.350 -0.1060 -0.1140  0.2738
 1512TIP3    H1 4500   2.071   0.281   3.288  1.5031  0.1159 -0.2453
 1512TIP3    H2 4501   2.103   0.259   3.434  0.7351  0.4042 -0.0305
 1513TIP3   OH2 4502   5.336   4.178   1.174  0.5156  0.2577 -0.4645
 1513TIP3    H1 4503   5.429   4.186   1.195  0.5637  0.7761 -0.8572
 1513TIP3    H2 4504   5.325   4.230   1.095 -0.0823  0.0730 -0.5059
 1514TIP3   OH2 4505   3.856   4.926   2.848  0.3534 -0.1287  0.0354
 1514TIP3    H1 4506   3.852   4.954   2.757  1.0067 -0.7965 -0.2125
 1514TIP3    H2 4507   3.891   5.002   2.895 -0.2838  0.3250 -0.2096
 1515TIP3   OH2 4508   0.903   3.916   4.081  0.3525  0.2868 -0.1103
 1515TIP3    H1 4509   0.914   3.982   4.013 -2.2778  0.0128 -0.9263
 1515TIP3    H2 4510   0.877   3.965   4.159 -0.6829  0.3158 -0.4613
 1516TIP3   OH2 4511   3.320   2.763   2.999 -0.2222 -0.1655  0.3321
 1516TIP3    H1 4512   3.341   2.678   3.039  2.2257 -0.0421 -0.4881
 1516TIP3    H2 4513   3.405   2.798   2.971 -1.5089  0.6551 -3.1514
 1517TIP3   OH2 4514   4.516   3.409   5.324 -0.7694  0.2131 -0.1518
 1517TIP3    H1 4515   4.510   3.478   5.390 -1.8358 -0.4264  0.4412
 1517TIP3    H2 4516   4.586   3.438   5.266 -1.1779  1.7778  0.0941
 1518TIP3   OH2 4517   2.058   5.840   5.642  0.0435 -0.0159 -0.0630
 1518TIP3    H1 4518   1.997   5.772   5.671 -0.2078  0.4443  0.4895
 1518TIP3    H2 4519   2.004   5.901   5.592 -0.2426  1.1220  1.5680
 1519TIP3   OH2 4520   2.864   5.966   1.252 -0.1242 -0.0430  0.0743
 1519TIP3    H1 4521   2.872   5.901   1.321 -0.3529  1.0325  1.1401
 1519TIP3    H2 4522   2.853   6.049   1.298 -0.6317  0.6562 -1.2510
 1520TIP3   OH2 4523   5.908   4.245   1.990  0.0308 -0.3147 -0.0553
 1520TIP3    H1 4524   5.839   4.237   1.925  0.8115 -0.7205 -0.8495
 1520TIP3    H2 4525   5.895   4.332   2.029 -1.2574 -0.6137  0.2037
 1521TIP3   OH2 4526   3.775   3.130   1.912 -0.6116 -0.0385  0.2751
 1521TIP3    H1 4527   3.864   3.167   1.916 -0.3109 -0.7796  0.7227
 1521TIP3    H2 4528   3.784   3.054   1.854 -1.2414  0.6132 -0.7035
 1522TIP3   OH2 4529   6.059   2.964   4.641 -0.2173 -0.4813 -0.1465
 1522TIP3    H1 4530   6.136   2.912   4.663 -0.0573 -0.7309 -1.2381
 1522TIP3    H2 4531   5.988   2.925   4.692  0.2124 -0.7802  0.2276
 1523TIP3   OH2 4532   6.766   1.270   2.047 -0.5247  0.1239  0.2294
 1523TIP3    H1 4533   6.840   1.332   2.042  0.0186 -0.6275 -1.6342
 1523TIP3    H2 4534   6.807   1.184   2.055 -1.2070 -0.2633 -0.3386
 1524TIP3   OH2 4535   6.368   6.123   2.410  0.7200  0.4356  0.0616
 1524TIP3    H1 4536   6.300   6.094   2.470  2.1371 -2.4778  0.4494
 1524TIP3    H2 4537   6.323   6.179   2.346 -1.8003 -0.5872  0.8449
 1525TIP3   OH2 4538   0.273   4.010   4.838 -0.5417 -0.7568  0.2406
 1525TIP3    H1 4539   0.222   3.987   4.915 -1.1850  0.1838  0.1167
 1525TIP3    H2 4540   0.364   4.013   4.869 -0.8345  0.0496  1.0879
 1526TIP3   OH2 4541   0.700   5.038   5.192 -0.5082  0.3536  0.2763
 1526TIP3    H1 4542   0.625   5.098   5.184  0.2369  1.3896  0.7818
 1526TIP3    H2 4543   0.661   4.956   5.221 -1.5142  0.7106  0.0049
 1527TIP3   OH2 4544   3.929   3.685   4.069  0.1260  0.0070  0.0429
 1527TIP3    H1 4545   3.952   3.653   3.982  1.1118  0.6834  0.0355
 1527TIP3    H2 4546   3.926   3.606   4.123 -0.2787 -0.3939 -0.5498
 1528TIP3   OH2 4547   6.956   1.415   1.937 -0.2514 -0.0143  0.0871
 1528TIP3    H1 4548   6.945   1.496   1.888  2.0530  0.5330  0.3494
 1528TIP3    H2 4549   6.955   1.346   1.870 -1.1883  0.3134 -0.2500
 1529TIP3   OH2 4550   2.478   3.481   3.687  0.1492 -0.2019  0.0137
 1529TIP3    H1 4551   2.559   3.512   3.729 -1.0305  1.9620  0.8735
 1529TIP3    H2 4552   2.500   3.395   3.652  3.0663  0.6325 -0.4955
 1530TIP3   OH2 4553   0.259   0.575   5.133  0.4420 -0.7427  0.3422
 1530TIP3    H1 4554   0.209   0.494   5.125 -0.3855 -0.1091 -1.6917
 1530TIP3    H2 4555   0.198   0.637   5.173  0.1603 -0.4398 -0.5327
 1531TIP3   OH2 4556   0.593   4.866   2.317 -0.2991 -0.1424  0.5309
 1531TIP3    H1 4557   0.611   4.943   2.372  0.4839  0.8973 -1.0989
 1531TIP3    H2 4558   0.517   4.825   2.358  1.5440 -0.7064  3.6430
 1532TIP3   OH2 4559   5.271   4.489   4.220  0.3991 -0.3344  0.4452
 1532TIP3    H1 4560   5.345   4.449   4.267  0.7214  0.2515  0.4447
 1532TIP3    H2 4561   5.297   4.485   4.128 -0.1121 -1.2287  0.3245
 1533TIP3   OH2 4562   0.437   2.698   0.566 -0.1351  0.0529  0.0056
 1533TIP3    H1 4563   0.488   2.684   0.646 -2.2159  0.4579  1.4986
 1533TIP3    H2 4564   0.371   2.629   0.567  0.6837 -0.8470 -2.2015
 1534TIP3   OH2 4565   0.780   0.922   0.166  0.6447 -0.3940  0.1596
 1534TIP3    H1 4566   0.703   0.884   0.207  0.9059 -1.2801 -0.1442
 1534TIP3    H2 4567   0.746   0.980   0.098  0.1962  1.3786  1.8205
 1535TIP3   OH2 4568   0.281   4.451   0.460  0.2476 -0.3486  0.0228
 1535TIP3    H1 4569   0.216   4.381   0.456 -1.7027  1.1536  2.5275
 1535TIP3    H2 4570   0.231   4.531   0.441  1.7761  0.7029  0.2104
 1536TIP3   OH2 4571   5.531   3.222   5.571  0.2372 -0.2221  0.0146
 1536TIP3    H1 4572   5.486   3.219   5.486  0.5125 -0.4442 -0.1245
 1536TIP3    H2 4573   5.462   3.201   5.634 -0.2700  1.2538 -0.0221
 1537TIP3   OH2 4574   0.353   2.665   4.890  0.3182 -0.1704  0.0205
 1537TIP3    H1 4575   0.421   2.644   4.954 -0.2597  0.8574  1.0193
 1537TIP3    H2 4576   0.275   2.621   4.924  0.2718 -0.6209 -0.6515
 1538TIP3   OH2 4577   1.816   1.351   1.247  0.1856  0.1197  0.4058
 1538TIP3    H1 4578   1.877   1.369   1.175 -2.2288  1.3346 -1.4968
 1538TIP3    H2 4579   1.777   1.267   1.225  0.2037 -0.0169  0.8831
 1539TIP3   OH2 4580   0.627   3.905   4.406 -0.5779 -0.1061 -0.1674
 1539TIP3    H1 4581   0.713   3.948   4.404 -1.8221  2.6991  0.9922
 1539TIP3    H2 4582   0.578   3.947   4.335 -1.4458 -0.5853  0.1323
 1540TIP3   OH2 4583   4.631   3.500   0.368  0.3330 -0.4859 -1.0451
 1540TIP3    H1 4584   4.582   3.423   0.396  0.0206  0.6956  2.0184
 1540TIP3    H2 4585   4.710   3.499   0.422 -0.8699  2.5963  1.0386
 1541TIP3   OH2 4586   4.082   2.782   3.577  0.2124 -0.1098 -0.1719
 1541TIP3    H1 4587   4.172   2.777   3.610 -0.0033 -1.7029  0.2450
 1541TIP3    H2 4588   4.047   2.863   3.616  1.0935 -0.0924  0.6274
 1542TIP3   OH2 4589   4.649   2.812   2.874 -0.1449 -0.1406  0.7818
 1542TIP3    H1 4590   4.707   2.880   2.838 -2.2530  0.1902 -2.3919
 1542TIP3    H2 4591   4.691   2.730   2.850 -0.5253  0.0937 -0.7912
 1543TIP3   OH2 4592   1.342   2.022   0.147  0.2167  0.1235  0.0376
 1543TIP3    H1 4593   1.268   2.077   0.121 -0.7575 -0.7958  0.7795
 1543TIP3    H2 4594   1.307   1.933   0.148  1.3160 -0.3224  0.4827
 1544TIP3   OH2 4595   0.396   6.303   5.678  0.1331  0.2705  0.1453
 1544TIP3    H1 4596   0.391   6.210   5.699  1.9924 -0.2720 -1.4713
 1544TIP3    H2 4597   0.427   6.306   5.588  2.6909  2.4282  0.9379
 1545TIP3   OH2 4598   6.329   5.284   0.726  0.4840  0.0500  0.3735
 1545TIP3    H1 4599   6.359   5.204   0.770 -0.2172 -0.9030 -0.8551
 1545TIP3    H2 4600   6.243   5.263   0.692  0.7675  0.9540 -0.9753
 1546TIP3   OH2 4601   4.462   1.769   0.457  0.3844  0.1261  0.1906
 1546TIP3    H1 4602   4.527   1.769   0.387  1.4053  1.5599  1.0703
 1546TIP3    H2 4603   4.379   1.785   0.413  1.0325  1.2156 -0.7015
 1547TIP3   OH2 4604   3.337   1.555   2.407  0.2530 -0.0678 -0.0935
 1547TIP3    H1 4605   3.381   1.536   2.490  0.9887  0.2753 -0.3974
 1547TIP3    H2 4606   3.302   1.471   2.378 -0.6832 -0.0485  0.9396
 1548TIP3   OH2 4607   2.219   4.391   3.084  0.3506 -0.5750  0.6827
 1548TIP3    H1 4608   2.285   4.452   3.116 -0.4956  0.9445 -0.3538
 1548TIP3    H2 4609   2.257   4.352   3.006 -0.4619  1.3865 -0.7658
 1549TIP3   OH2 4610   1.732   2.854   4.206 -0.6436  0.1824  0.6528
 1549TIP3    H1 4611   1.751   2.801   4.129  2.1230  2.3311 -0.3034
 1549TIP3    H2 4612   1.642   2.883   4.194 -0.2214  0.6247 -1.9099
 1550TIP3   OH2 4613   4.757   6.796   2.468 -0.3638  0.2048  0.2167
 1550TIP3    H1 4614   4.835   6.756   2.506 -0.0302  0.0871 -0.5866
 1550TIP3    H2 4615   4.725   6.732   2.404  0.2274  1.2217 -1.1475
 1551TIP3   OH2 4616   0.456   0.090   3.700  0.1854  0.1736  0.3279
 1551TIP3    H1 4617   0.365   0.111   3.684  0.1882 -1.0611 -1.5787
 1551TIP3    H2 4618   0.506   0.157   3.655  0.1844 -0.8662 -1.2911
 1552TIP3   OH2 4619   0.613   6.483   4.899 -0.1246  0.2970  0.0290
 1552TIP3    H1 4620   0.627   6.414   4.833  0.9719  1.4456 -1.0030
 1552TIP3    H2 4621   0.540   6.451   4.952 -1.0165 -0.7118 -1.7090
 1553TIP3   OH2 4622   6.477   3.806   3.619  0.6927 -0.3652 -0.3704
 1553TIP3    H1 4623   6.524   3.886   3.597  0.6863  0.3223  1.8067
 1553TIP3    H2 4624   6.416   3.793   3.547  1.4428  0.9745 -1.2969
 1554TIP3   OH2 4625   2.744   1.888   4.150  0.2429  0.4118 -0.0513
 1554TIP3    H1 4626   2.832   1.858   4.127  0.8110  1.9015  0.0343
 1554TIP3    H2 4627   2.691   1.868   4.073  0.8646  0.2824 -0.4591
 1555TIP3   OH2 4628   2.249   6.311   0.537 -0.0274  0.1538  0.1384
 1555TIP3    H1 4629   2.215   6.239   0.590  0.9098 -1.2541 -1.0838
 1555TIP3    H2 4630   2.339   6.285   0.518  0.2783  1.5998 -0.4666
 1556TIP3   OH2 4631   3.278   6.502   2.202  0.0063  0.3206 -0.2020
 1556TIP3    H1 4632   3.278   6.435   2.270  1.0210 -0.5918 -1.0655
 1556TIP3    H2 4633   3.367   6.535   2.200 -0.4163  1.5390  0.0296
 1557TIP3   OH2 4634   4.052   6.692   1.621 -0.4442 -0.2409 -0.1388
 1557TIP3    H1 4635   4.105   6.661   1.548  0.4418 -0.4292  0.5565
 1557TIP3    H2 4636   4.003   6.766   1.586  1.2251  0.7558 -0.5224
 1558TIP3   OH2 4637   1.323   5.700   5.344 -0.1426  0.1246 -0.1998
 1558TIP3    H1 4638   1.325   5.795   5.332 -0.1416 -0.1036 -2.4718
 1558TIP3    H2 4639   1.402   5.680   5.394  0.2105  1.2582 -0.2873
 1559TIP3   OH2 4640   3.995   5.260   5.399 -0.4463  0.3029  0.1001
 1559TIP3    H1 4641   3.952   5.198   5.340  0.4149 -1.1641  0.9347
 1559TIP3    H2 4642   3.939   5.263   5.476 -0.6476  0.8229 -0.0627
 1560TIP3   OH2 4643   0.290   1.377   1.792  0.9853  0.3084 -0.2368
 1560TIP3    H1 4644   0.216   1.391   1.851  1.4481  0.3205  0.3441
 1560TIP3    H2 4645   0.318   1.288   1.809  1.9205  0.7210  0.4881
 1561TIP3   OH2 4646   2.189   4.484   2.347 -0.2247  0.3514  0.3476
 1561TIP3    H1 4647   2.146   4.399   2.356  1.3686 -0.4176  1.1556
 1561TIP3    H2 4648   2.210   4.509   2.437  1.6596  0.3186 -0.0517
 1562TIP3   OH2 4649   6.054   0.105   3.845  0.2587 -0.1049 -0.1371
 1562TIP3    H1 4650   5.997   0.028   3.837  1.4135 -0.9660 -0.4124
 1562TIP3    H2 4651   6.066   0.117   3.939  0.8766 -0.9039 -0.0985
 1563TIP3   OH2 4652   4.963   5.441   0.640  0.1585 -0.5430 -0.3203
 1563TIP3    H1 4653   5.041   5.388   0.619  0.0894 -0.5637 -0.5281
 1563TIP3    H2 4654   4.962   5.509   0.572 -0.5283 -1.0972 -0.8740
 1564TIP3   OH2 4655   4.977   2.265   2.518  0.4910 -0.2438  0.1435
 1564TIP3    H1 4656   4.933   2.203   2.576  0.6837 -0.5368 -0.0241
 1564TIP3    H2 4657   4.920   2.270   2.441  0.4258 -0.1357  0.1975
 1565TIP3   OH2 4658   4.922   4.176   0.031 -0.0112 -0.1000 -0.2984
 1565TIP3    H1 4659   4.944   4.086   0.055  0.0731  0.1251  0.4719
 1565TIP3    H2 4660   4.949   4.183  -0.061  0.0783 -0.8252 -0.3322
 1566TIP3   OH2 4661   6.470   5.697   3.481 -0.0474  0.6559  0.3424
 1566TIP3    H1 4662   6.531   5.711   3.408 -0.8846 -1.8161 -0.9435
 1566TIP3    H2 4663   6.501   5.757   3.549  4.3769 -0.9637  0.1091
 1567TIP3   OH2 4664   3.973   3.556   1.120 -0.0793 -0.6908  0.3537
 1567TIP3    H1 4665   3.980   3.488   1.053 -1.0206 -0.8765  0.4355
 1567TIP3    H2 4666   3.886   3.545   1.157 -0.9721  1.6860 -0.8500
 1568TIP3   OH2 4667   3.032   2.409   3.433 -0.1809 -0.3940 -0.0387
 1568TIP3    H1 4668   2.963   2.470   3.407 -0.6329 -1.1318 -0.6387
 1568TIP3    H2 4669   3.094   2.462   3.482 -1.4371  0.1948  0.9668
 1569TIP3   OH2 4670   5.478   3.702   0.142 -0.0689  0.1719 -0.2822
 1569TIP3    H1 4671   5.449   3.787   0.109 -0.9569 -0.2064 -0.5236
 1569TIP3    H2 4672   5.534   3.667   0.073 -0.7498  0.0130 -0.7706
 1570TIP3   OH2 4673   4.450   3.584   4.329 -0.3271  0.2249  0.4747
 1570TIP3    H1 4674   4.356   3.603   4.328 -0.7477 -1.6369 -0.5547
 1570TIP3    H2 4675   4.466   3.536   4.247  1.8263  1.6888 -0.0735
 1571TIP3   OH2 4676   1.565   2.613   3.540  0.0365 -0.5550  0.1964
 1571TIP3    H1 4677   1.558   2.518   3.528  2.3555 -1.4705  4.2102
 1571TIP3    H2 4678   1.528   2.628   3.627  2.9434  1.5938  1.1851
 1572TIP3   OH2 4679   1.242   2.004   5.823 -0.3745  0.3787  0.5803
 1572TIP3    H1 4680   1.242   2.099   5.809  1.6962  0.1539 -1.7702
 1572TIP3    H2 4681   1.169   1.973   5.770  0.6252  0.5068 -0.9551
 1573TIP3   OH2 4682   3.277   5.076   2.482  0.4766  0.3719 -0.2343
 1573TIP3    H1 4683   3.340   5.130   2.529  0.0204  0.7228 -0.0147
 1573TIP3    H2 4684   3.293   5.095   2.389  1.0261  0.0764 -0.2041
 1574TIP3   OH2 4685   2.296   3.350   1.142  0.1952 -0.1051  0.2005
 1574TIP3    H1 4686   2.301   3.286   1.213  0.2107 -0.6326 -0.2791
 1574TIP3    H2 4687   2.297   3.435   1.187 -0.5832 -0.4407  0.8847
 1575TIP3   OH2 4688   0.705   6.587   4.506 -0.3102 -0.1198  0.2073
 1575TIP3    H1 4689   0.781   6.644   4.512 -1.0992  1.0466 -0.3711
 1575TIP3    H2 4690   0.684   6.584   4.413 -0.3646 -1.2644  0.2449
 1576TIP3   OH2 4691   2.877   0.852   5.504  0.2093 -0.1096 -0.4934
 1576TIP3    H1 4692   2.920   0.827   5.421  0.9610 -3.4412  0.7241
 1576TIP3    H2 4693   2.948   0.886   5.558  0.2953 -0.5589 -0.3139
 1577TIP3   OH2 4694   1.587   3.420   1.977  0.2814  0.5667  0.7412
 1577TIP3    H1 4695   1.548   3.481   1.915  0.1353 -0.0741  0.1998
 1577TIP3    H2 4696   1.544   3.336   1.960  3.3139 -0.7803 -1.3981
 1578TIP3   OH2 4697   0.338   0.877   2.224  0.1781  0.6224 -0.3291
 1578TIP3    H1 4698   0.369   0.801   2.273 -0.4307  0.0722 -0.7848
 1578TIP3    H2 4699   0.378   0.952   2.269  0.1916  0.0882  0.5814
 1579TIP3   OH2 4700   1.955   4.617   4.560  0.6819 -0.0126 -0.2084
 1579TIP3    H1 4701   1.866   4.597   4.529  0.7280  1.5460 -1.4459
 1579TIP3    H2 4702   1.942   4.662   4.643  0.4590 -1.9105  0.8596
 1580TIP3   OH2 4703   0.546   0.304   1.997  0.1787 -0.3811  0.4323
 1580TIP3    H1 4704   0.556   0.235   2.063 -1.0520  0.2057  1.2664
 1580TIP3    H2 4705   0.492   0.370   2.039  0.1929  0.4730 -0.8364
 1581TIP3   OH2 4706   4.174   0.067   0.159  0.1567 -0.5887  0.2192
 1581TIP3    H1 4707   4.185   0.050   0.065  1.0914 -0.0336  0.2186
 1581TIP3    H2 4708   4.191  -0.018   0.200 -1.9676 -1.2668 -0.1993
 1582TIP3   OH2 4709   1.651   6.336   1.663  0.3948  0.4724 -0.8495
 1582TIP3    H1 4710   1.676   6.257   1.614  0.2491  0.1349 -0.3782
 1582TIP3    H2 4711   1.696   6.328   1.747 -0.6810  0.2379 -0.2811
 1583TIP3   OH2 4712   4.515   0.325   2.920  0.2024  0.4693  0.0921
 1583TIP3    H1 4713   4.552   0.347   3.005  0.3776 -2.0022  0.7444
 1583TIP3    H2 4714   4.503   0.409   2.875  1.3151  1.7195  2.0380
 1584TIP3   OH2 4715   4.267   6.472   4.938 -0.0153 -0.2395 -0.1782
 1584TIP3    H1 4716   4.359   6.462   4.962 -0.2031 -1.0398  0.2448
 1584TIP3    H2 4717   4.238   6.550   4.987  0.5591  0.3344 -0.7249
 1585TIP3   OH2 4718   1.593   1.557   2.090  0.5836  0.2248 -0.3217
 1585TIP3    H1 4719   1.645   1.581   2.013  0.0035 -0.9124 -1.0943
 1585TIP3    H2 4720   1.539   1.634   2.108 -2.0659 -0.7042 -3.4196
 1586TIP3   OH2 4721   4.617   5.607   2.514  0.0630 -0.6038  0.4148
 1586TIP3    H1 4722   4.656   5.694   2.506 -1.3466 -0.0394 -0.5756
 1586TIP3    H2 4723   4.599   5.597   2.607 -0.7480  0.6096  0.3998
 1587TIP3   OH2 4724   2.080   0.978   2.613 -0.3913 -0.8387 -0.0435
 1587TIP3    H1 4725   2.028   1.007   2.538 -0.0288 -0.6724 -0.2320
 1587TIP3    H2 4726   2.093   1.057   2.666 -1.3406 -1.1122  0.6248
 1588TIP3   OH2 4727   1.492   1.978   0.384 -0.2013 -0.1921 -0.3416
 1588TIP3    H1 4728   1.578   1.943   0.360 -1.0743 -3.0159  0.1987
 1588TIP3    H2 4729   1.457   2.013   0.302  0.1532 -2.1090 -1.3785
 1589TIP3   OH2 4730   1.810   0.634   3.657 -0.1135 -0.2608 -0.1686
 1589TIP3    H1 4731   1.891   0.660   3.701 -0.0041 -0.0937 -0.4672
 1589TIP3    H2 4732   1.741   0.660   3.718  0.0926 -1.3292  0.5513
 1590TIP3   OH2 4733   5.943   5.115   1.432  0.1597 -0.3659 -0.1202
 1590TIP3    H1 4734   5.952   5.173   1.357  0.2636  0.8019  0.7737
 1590TIP3    H2 4735   5.849   5.111   1.448  0.2052  0.1730  0.2876
 1591TIP3   OH2 4736   0.839   5.006   4.499  0.0125  0.1963 -0.5783
 1591TIP3    H1 4737   0.801   5.042   4.579  1.2061 -0.2287  0.2023
 1591TIP3    H2 4738   0.764   4.973   4.449 -0.8235  1.2225 -0.0366
 1592TIP3   OH2 4739   0.395   4.612   3.994  0.1133  0.0944  0.3830
 1592TIP3    H1 4740   0.401   4.692   4.047 -0.2071  0.7983 -0.6124
 1592TIP3    H2 4741   0.376   4.543   4.057  0.7330  0.7440  1.3078
 1593TIP3   OH2 4742   4.714   6.406   3.191 -0.7999  0.4379  0.2089
 1593TIP3    H1 4743   4.772   6.430   3.118  0.5580 -2.8529  0.0671
 1593TIP3    H2 4744   4.630   6.386   3.148 -0.8112  1.1194 -0.1013
 1594TIP3   OH2 4745   1.009   2.182   5.776  0.1038 -0.5077 -0.1382
 1594TIP3    H1 4746   0.996   2.204   5.684  1.9055 -1.6085 -0.7229
 1594TIP3    H2 4747   0.926   2.146   5.805 -0.9204  1.1352 -0.9139
 1595TIP3   OH2 4748   2.579   2.318   2.852 -0.0251  0.2012  0.7233
 1595TIP3    H1 4749   2.672   2.331   2.836 -0.1257  0.4625  0.3415
 1595TIP3    H2 4750   2.556   2.242   2.799 -0.0234  0.1065  0.8554
 1596TIP3   OH2 4751   0.475   1.115   0.357  0.1241 -0.5089  0.2533
 1596TIP3    H1 4752   0.486   1.020   0.359 -0.6765 -0.6342 -0.9091
 1596TIP3    H2 4753   0.449   1.135   0.268  1.9399  1.0125  0.0044
 1597TIP3   OH2 4754   1.119   1.810   0.386 -0.4454 -0.1145  0.6303
 1597TIP3    H1 4755   1.180   1.738   0.374 -1.1007 -0.3499 -1.7062
 1597TIP3    H2 4756   1.038   1.768   0.414 -0.9157 -0.3662 -1.0242
 1598TIP3   OH2 4757   0.223   6.217   4.210 -0.7801 -0.5177 -0.1072
 1598TIP3    H1 4758   0.169   6.253   4.139 -1.3433 -0.7889  0.1810
 1598TIP3    H2 4759   0.180   6.247   4.290  0.6560  1.0230  0.1514
 1599TIP3   OH2 4760   5.135   0.358   0.871  0.3158 -0.1729  0.2778
 1599TIP3    H1 4761   5.071   0.289   0.851 -0.9885  0.5011  1.8942
 1599TIP3    H2 4762   5.082   0.437   0.882  1.7397  1.0576 -1.1690
 1600TIP3   OH2 4763   6.314   5.115   2.718  0.2175  0.2380 -0.4538
 1600TIP3    H1 4764   6.315   5.023   2.746 -0.6123  0.1894 -0.5474
 1600TIP3    H2 4765   6.347   5.163   2.793 -0.9910  0.0110  0.2638
 1601TIP3   OH2 4766   5.514   0.226   4.022  0.2666  0.6513  0.2751
 1601TIP3    H1 4767   5.448   0.192   3.961 -0.0331 -0.1282  1.0208
 1601TIP3    H2 4768   5.598   0.204   3.981  0.0822 -1.1884  0.8246
 1602TIP3   OH2 4769   2.568   5.346   3.931  0.1625  0.0425 -0.0622
 1602TIP3    H1 4770   2.563   5.270   3.873  1.4568 -1.7714  2.0145
 1602TIP3    H2 4771   2.648   5.392   3.906  1.5190 -1.5562  1.1029
 1603TIP3   OH2 4772   0.127   1.582   2.660 -0.4854  0.0703 -0.2548
 1603TIP3    H1 4773   0.156   1.529   2.585 -1.8013 -0.9311 -0.0871
 1603TIP3    H2 4774   0.177   1.663   2.652  1.3662 -1.0598 -0.6935
 1604TIP3   OH2 4775   3.311   2.698   2.262  0.0672 -0.4697  0.2759
 1604TIP3    H1 4776   3.219   2.716   2.240  0.4117  1.5002  0.3064
 1604TIP3    H2 4777   3.349   2.664   2.181 -0.7268 -1.5861  0.3426
 1605TIP3   OH2 4778   6.065   6.370   1.717  0.2513 -0.5979  0.7598
 1605TIP3    H1 4779   5.998   6.413   1.770  1.4042  0.7901  1.1703
 1605TIP3    H2 4780   6.143   6.425   1.728  0.7680 -0.6986 -1.7046
 1606TIP3   OH2 4781   6.245   4.842   1.633  0.3225 -0.4481  0.2507
 1606TIP3    H1 4782   6.156   4.832   1.599 -0.1823 -1.8936  1.8463
 1606TIP3    H2 4783   6.240   4.920   1.688  0.7332  0.9482 -1.6028
 1607TIP3   OH2 4784   1.528   3.483   4.434  0.9543  0.1578 -0.3444
 1607TIP3    H1 4785   1.443   3.457   4.470  1.0419  0.8534  0.4144
 1607TIP3    H2 4786   1.508   3.557   4.377  0.8126 -0.9714 -1.7908
 1608TIP3   OH2 4787   5.276   3.292   2.427 -0.1009  0.1755  0.3540
 1608TIP3    H1 4788   5.288   3.387   2.422 -1.3232  0.4282  1.6425
 1608TIP3    H2 4789   5.216   3.271   2.355 -0.0322  0.4185  0.2268
 1609TIP3   OH2 4790   5.906   1.900   4.680 -0.4460  0.1433  0.1215
 1609TIP3    H1 4791   5.936   1.890   4.771 -0.2624  2.2478  0.3490
 1609TIP3    H2 4792   5.965   1.966   4.643 -0.3398 -0.9074 -1.6343
 1610TIP3   OH2 4793   4.480   3.931   3.983 -0.0204  0.0024  0.2018
 1610TIP3    H1 4794   4.513   4.015   4.014  0.8509 -0.0698 -0.4790
 1610TIP3    H2 4795   4.492   3.872   4.057  0.3812  0.2306  0.3242
 1611TIP3   OH2 4796   5.199   4.919   3.659 -0.3902  0.5634  0.3519
 1611TIP3    H1 4797   5.278   4.868   3.644 -0.4432  0.5695  0.0443
 1611TIP3    H2 4798   5.166   4.939   3.571 -0.5658  0.8193  0.4739
 1612TIP3   OH2 4799   6.623   1.641   2.331  0.3299  0.4260 -1.5747
 1612TIP3    H1 4800   6.580   1.557   2.316 -0.2571  0.6790 -1.3476
 1612TIP3    H2 4801   6.562   1.689   2.387  0.7492  0.9287 -1.5439
 1613TIP3   OH2 4802   1.049   1.037   1.151 -0.1874 -0.3471 -0.3266
 1613TIP3    H1 4803   1.071   1.000   1.237  0.7617  0.1251 -0.3534
 1613TIP3    H2 4804   1.052   1.132   1.164  0.7264 -0.2658 -1.0606
 1614TIP3   OH2 4805   5.878   5.842   2.748  0.3539  0.1586 -0.0563
 1614TIP3    H1 4806   5.878   5.837   2.844  0.7501  0.8412 -0.0180
 1614TIP3    H2 4807   5.957   5.796   2.722  0.4201  0.2627 -0.0392
 1615TIP3   OH2 4808   1.260   3.758   2.689  0.2245 -0.1403  0.5247
 1615TIP3    H1 4809   1.256   3.824   2.758  2.4678  1.2904 -0.6159
 1615TIP3    H2 4810   1.353   3.752   2.666 -0.1409 -2.3795 -0.7044
 1616TIP3   OH2 4811   2.518   6.369   1.639  0.0663  0.3920  0.0949
 1616TIP3    H1 4812   2.514   6.425   1.717  0.2484 -0.9178  1.0744
 1616TIP3    H2 4813   2.612   6.354   1.626 -0.0088 -0.2773  0.2903
 1617TIP3   OH2 4814   3.773   5.067   4.346 -0.4547 -0.4733  0.0002
 1617TIP3    H1 4815   3.742   4.977   4.337 -0.7552 -0.3402 -0.3274
 1617TIP3    H2 4816   3.724   5.102   4.421 -0.0141 -0.7164  0.4047
 1618TIP3   OH2 4817   3.724   2.279   4.841  0.2847  0.1882  0.1410
 1618TIP3    H1 4818   3.745   2.322   4.924  1.1084  0.2144 -0.0699
 1618TIP3    H2 4819   3.660   2.336   4.799 -2.0943 -1.0522  1.8356
 1619TIP3   OH2 4820   0.921   4.105   3.831 -0.4036  0.7687  0.1597
 1619TIP3    H1 4821   0.906   4.084   3.739 -1.8824 -0.1493  0.5717
 1619TIP3    H2 4822   1.005   4.151   3.832 -1.5503  3.1580 -1.9628
 1620TIP3   OH2 4823   2.549   5.150   3.446  0.3731 -0.1191 -0.4773
 1620TIP3    H1 4824   2.557   5.067   3.399  0.4331 -0.3689 -0.0343
 1620TIP3    H2 4825   2.582   5.215   3.385  1.9334 -0.6231 -0.2115
 1621TIP3   OH2 4826   6.397   6.485   3.705  0.6585  0.0892 -0.0404
 1621TIP3    H1 4827   6.370   6.530   3.625 -0.6079 -1.0825 -0.3043
 1621TIP3    H2 4828   6.340   6.522   3.773  1.0715  0.3855  0.1496
 1622TIP3   OH2 4829   6.177   3.554   0.289  0.6721  0.0126  0.0949
 1622TIP3    H1 4830   6.144   3.470   0.259  0.3697  0.4994 -0.9697
 1622TIP3    H2 4831   6.112   3.584   0.352 -0.5824  0.6145 -1.4256
 1623TIP3   OH2 4832   0.564   5.620   3.847 -0.0977  0.1654  0.6698
 1623TIP3    H1 4833   0.556   5.715   3.858 -1.0504  0.0041  1.4739
 1623TIP3    H2 4834   0.651   5.608   3.807  0.1680  1.3476  0.8527
 1624TIP3   OH2 4835   0.674   1.048   4.896  0.2754  0.3961 -0.1199
 1624TIP3    H1 4836   0.626   1.117   4.942 -0.7742  0.0489 -0.6731
 1624TIP3    H2 4837   0.737   1.094   4.841 -1.8062  1.0559 -2.0735
 1625TIP3   OH2 4838   2.577   5.416   3.186 -0.9027 -0.2906  0.1930
 1625TIP3    H1 4839   2.605   5.415   3.095 -2.2891 -1.0414 -0.2474
 1625TIP3    H2 4840   2.659   5.419   3.236 -0.0430 -1.9737 -1.0244
 1626TIP3   OH2 4841   1.609   3.544   4.157 -0.0544  0.2641 -0.0669
 1626TIP3    H1 4842   1.607   3.451   4.180 -0.2434 -0.7725 -3.6580
 1626TIP3    H2 4843   1.523   3.561   4.119 -0.3421  2.2335  1.3127
 1627TIP3   OH2 4844   3.345   2.887   2.556 -0.1467  0.2952  0.0139
 1627TIP3    H1 4845   3.325   2.801   2.520 -2.0611  1.4604 -1.9917
 1627TIP3    H2 4846   3.433   2.878   2.593 -0.9046 -2.8872  1.3594
 1628TIP3   OH2 4847   0.711   6.129   0.803  0.5615 -0.2132 -0.5173
 1628TIP3    H1 4848   0.662   6.172   0.732 -0.2921 -1.5572 -0.7817
 1628TIP3    H2 4849   0.650   6.063   0.837  1.7989 -1.1632 -0.0858
 1629TIP3   OH2 4850   4.990   3.741   3.268  0.2702 -0.0460  0.1620
 1629TIP3    H1 4851   4.936   3.808   3.228  0.3459  1.3811  2.3027
 1629TIP3    H2 4852   4.928   3.686   3.316  0.0266 -2.4655 -2.6136
 1630TIP3   OH2 4853   3.714   1.639   5.103  0.6236  0.2111  0.6699
 1630TIP3    H1 4854   3.718   1.565   5.042 -0.1301  1.0046 -0.3828
 1630TIP3    H2 4855   3.621   1.646   5.125  0.6751  0.8893  0.6877
 1631TIP3   OH2 4856   4.051   6.142   0.584 -0.9147 -0.0108 -0.0218
 1631TIP3    H1 4857   4.027   6.181   0.668  0.8908 -2.2599  1.6605
 1631TIP3    H2 4858   4.089   6.214   0.534 -0.6680  1.0905  1.6692
 1632TIP3   OH2 4859   4.581   1.266   2.563  0.2186 -0.0159  0.2182
 1632TIP3    H1 4860   4.565   1.224   2.478  0.8327 -0.5936  0.3804
 1632TIP3    H2 4861   4.493   1.283   2.598 -0.0745 -1.5976  0.3441
 1633TIP3   OH2 4862   2.021   2.220   0.300 -0.2496 -0.2103 -0.3441
 1633TIP3    H1 4863   1.980   2.302   0.272  2.4098  0.6316 -2.2142
 1633TIP3    H2 4864   2.002   2.158   0.230 -0.5877 -0.6132  0.0993
 1634TIP3   OH2 4865   6.575   3.987   2.164  0.1770  0.0035 -0.2384
 1634TIP3    H1 4866   6.613   3.908   2.124 -0.3440  0.2868 -1.3308
 1634TIP3    H2 4867   6.544   3.957   2.250 -0.8026 -1.2242 -0.9724
 1635TIP3   OH2 4868   6.013   1.547   4.902  0.1149 -0.9524  0.2160
 1635TIP3    H1 4869   6.034   1.540   4.995  0.0186  0.8616  0.4091
 1635TIP3    H2 4870   5.920   1.526   4.897 -1.0983  3.1332  1.2956
 1636TIP3   OH2 4871   4.959   1.313   0.435 -0.2941  0.4795  0.0032
 1636TIP3    H1 4872   5.013   1.353   0.367  0.7392  0.6027  0.8609
 1636TIP3    H2 4873   4.991   1.223   0.440 -1.5182 -0.0249 -0.8137
 1637TIP3   OH2 4874   2.305   2.092   4.732 -0.2099 -0.4215  0.3396
 1637TIP3    H1 4875   2.400   2.084   4.724 -0.3966 -2.5818 -0.5443
 1637TIP3    H2 4876   2.286   2.064   4.821 -0.0581 -0.5973  0.3180
 1638TIP3   OH2 4877   6.788   1.855   2.860 -1.0813  0.8697 -0.0103
 1638TIP3    H1 4878   6.762   1.933   2.909  0.5721  1.8760 -0.6402
 1638TIP3    H2 4879   6.884   1.855   2.865 -1.0495 -1.6272  0.7137
 1639TIP3   OH2 4880   4.139   2.887   0.493 -0.4939 -0.3346  0.0135
 1639TIP3    H1 4881   4.123   2.975   0.526 -0.2903  0.4523 -1.8872
 1639TIP3    H2 4882   4.078   2.877   0.420 -0.5052 -1.7818  0.1840
 1640TIP3   OH2 4883   2.232   4.537   2.608 -0.2716 -0.0519  0.0435
 1640TIP3    H1 4884   2.302   4.564   2.668  1.3914 -0.8043 -1.4698
 1640TIP3    H2 4885   2.155   4.527   2.664  0.8292  0.7437  1.7884
 1641TIP3   OH2 4886   1.281   5.898   3.058  0.4135 -0.0732  0.0494
 1641TIP3    H1 4887   1.298   5.987   3.088  0.6396  0.3386 -1.2552
 1641TIP3    H2 4888   1.192   5.879   3.088 -0.3008  1.2441 -1.1394
 1642TIP3   OH2 4889   0.607   2.275   2.810 -0.0867  0.4180 -0.2560
 1642TIP3    H1 4890   0.675   2.222   2.850  1.0463  1.9533 -0.0648
 1642TIP3    H2 4891   0.532   2.268   2.870 -0.4656 -1.9667 -0.8987
 1643TIP3   OH2 4892   7.129   6.318   3.266  0.4046 -0.3328  0.4193
 1643TIP3    H1 4893   7.114   6.400   3.314  0.9065 -0.3368  0.5878
 1643TIP3    H2 4894   7.043   6.296   3.231  0.4947  0.9203 -0.6736
 1644TIP3   OH2 4895   6.755   6.178   3.878  0.1922  0.0133  0.4149
 1644TIP3    H1 4896   6.694   6.192   3.951  0.2300 -0.3876  0.5239
 1644TIP3    H2 4897   6.718   6.229   3.806  0.0234  0.2177  0.6418
 1645TIP3   OH2 4898   6.806   2.047   5.469  0.3975  0.0670 -0.0198
 1645TIP3    H1 4899   6.894   2.020   5.444  1.1862  1.6194  0.9630
 1645TIP3    H2 4900   6.816   2.137   5.499 -1.9063  1.1569 -2.1170
 1646TIP3   OH2 4901   1.618   1.950   5.840  0.5025  0.6066  0.3038
 1646TIP3    H1 4902   1.602   1.870   5.790 -1.4112  1.9155 -1.3561
 1646TIP3    H2 4903   1.584   1.931   5.927  1.3183 -0.8011  0.3461
 1647TIP3   OH2 4904   2.194   2.862   3.826  0.2192 -0.3009 -0.7839
 1647TIP3    H1 4905   2.099   2.868   3.826  0.2273 -0.1538 -0.6385
 1647TIP3    H2 4906   2.219   2.868   3.734 -0.0201 -2.1549 -1.0264
 1648TIP3   OH2 4907   5.112   2.940   2.492 -0.1947 -0.5207  0.2171
 1648TIP3    H1 4908   5.204   2.957   2.473  0.1186 -2.2983  0.0179
 1648TIP3    H2 4909   5.072   3.028   2.498  1.3245  0.2522 -0.5140
 1649TIP3   OH2 4910   1.390   4.482   3.652 -0.1474  0.0784  0.3537
 1649TIP3    H1 4911   1.426   4.419   3.590  0.8688  0.5386  0.4445
 1649TIP3    H2 4912   1.370   4.559   3.598  2.2716  1.0973  0.7601
 1650TIP3   OH2 4913   1.045   6.321   3.387  0.1779  0.0835 -0.4426
 1650TIP3    H1 4914   1.051   6.356   3.298 -0.0269  1.5747  0.0864
 1650TIP3    H2 4915   0.957   6.282   3.392  0.3574 -0.3939 -1.0183
 1651TIP3   OH2 4916   2.186   6.263   4.804  0.1846 -0.1742 -0.2585
 1651TIP3    H1 4917   2.257   6.326   4.814 -0.4219  0.3037  1.2942
 1651TIP3    H2 4918   2.197   6.201   4.877 -0.7561 -0.3131 -0.2169
 1652TIP3   OH2 4919   3.395   1.310   2.979  0.1942  0.4839  0.9054
 1652TIP3    H1 4920   3.431   1.396   2.956  0.6518  0.3931  1.2595
 1652TIP3    H2 4921   3.419   1.253   2.906 -0.0133  0.6314  0.7223
 1653TIP3   OH2 4922   3.212   6.622   4.069  0.1566 -0.3837  0.2844
 1653TIP3    H1 4923   3.155   6.563   4.119 -2.6189  2.1372  0.3628
 1653TIP3    H2 4924   3.166   6.634   3.985  1.6604  0.1509 -0.4936
 1654TIP3   OH2 4925   3.372   1.152   1.661 -0.1178  0.4088  0.1217
 1654TIP3    H1 4926   3.382   1.231   1.608 -0.5464 -0.4858 -1.3322
 1654TIP3    H2 4927   3.278   1.144   1.675  0.0395  1.2942  2.1278
 1655TIP3   OH2 4928   3.176   2.277   2.039 -0.3923 -0.1530  0.0773
 1655TIP3    H1 4929   3.170   2.211   2.108 -0.2042  0.6513  0.8821
 1655TIP3    H2 4930   3.093   2.324   2.044 -0.2077  0.1807  0.0329
 1656TIP3   OH2 4931   2.235   5.638   3.784  0.3282 -0.1050 -0.2519
 1656TIP3    H1 4932   2.217   5.568   3.720 -0.3253 -0.2512  0.0852
 1656TIP3    H2 4933   2.203   5.718   3.743  0.4109 -0.1129 -0.3327
 1657TIP3   OH2 4934   5.326   5.999   0.370 -0.1910  0.5594  0.1236
 1657TIP3    H1 4935   5.379   5.946   0.430 -0.4440 -1.3353 -1.2494
 1657TIP3    H2 4936   5.245   5.950   0.361 -0.7017  1.5284 -0.7052
 1658TIP3   OH2 4937   0.305   3.611   4.165 -0.1421  0.2947 -0.0275
 1658TIP3    H1 4938   0.224   3.599   4.216 -0.4896 -0.2051 -0.6866
 1658TIP3    H2 4939   0.298   3.548   4.094  0.2499  1.1213 -0.8124
 1659TIP3   OH2 4940   2.912   2.508   4.127 -0.0093 -0.5027 -0.4315
 1659TIP3    H1 4941   2.960   2.440   4.176  0.4359 -0.4399 -0.7697
 1659TIP3    H2 4942   2.837   2.529   4.183  0.7735 -0.0515  0.4882
 1660TIP3   OH2 4943   0.155   1.490   1.999  0.1093 -0.4363 -0.1749
 1660TIP3    H1 4944   0.119   1.525   1.917 -0.3585 -3.4834 -1.4168
 1660TIP3    H2 4945   0.158   1.565   2.058 -1.0630  1.5540 -2.4663
 1661TIP3   OH2 4946   4.867   3.493   3.278  0.2759  0.3269  0.2017
 1661TIP3    H1 4947   4.801   3.440   3.322  0.7696  0.1937  0.8008
 1661TIP3    H2 4948   4.925   3.522   3.348  0.4417  1.0409 -0.2203
 1662TIP3   OH2 4949   0.215   3.194   5.497 -0.0357 -0.0423 -0.4352
 1662TIP3    H1 4950   0.169   3.278   5.489 -1.4088 -0.8327 -1.2119
 1662TIP3    H2 4951   0.211   3.156   5.409  1.6542 -0.4084 -0.3886
 1663TIP3   OH2 4952   7.051   2.052   5.379  0.7749 -0.6245 -0.2929
 1663TIP3    H1 4953   7.055   2.039   5.284  0.2200 -2.4971 -0.1102
 1663TIP3    H2 4954   7.120   1.994   5.413  0.0686 -1.0229  0.4963
 1664TIP3   OH2 4955   6.686   5.193   5.497 -0.5337  0.2534  0.2697
 1664TIP3    H1 4956   6.726   5.167   5.580  0.0388 -0.9962 -0.3727
 1664TIP3    H2 4957   6.734   5.271   5.471  1.0807 -0.8062 -0.1311
 1665TIP3   OH2 4958   6.101   1.937   1.252  0.7866  0.0571 -0.2260
 1665TIP3    H1 4959   6.184   1.924   1.297  0.2450 -1.1485  0.4878
 1665TIP3    H2 4960   6.090   2.032   1.248  2.7506  0.2625 -1.4218
 1666TIP3   OH2 4961   2.379   0.576   4.685 -0.3477  0.2215 -0.5848
 1666TIP3    H1 4962   2.371   0.525   4.766  1.0755 -0.4926 -0.8479
 1666TIP3    H2 4963   2.292   0.573   4.646 -0.9141  0.0798  0.6292
 1667TIP3   OH2 4964   3.762   6.543   4.957 -0.2630 -0.3467 -0.0002
 1667TIP3    H1 4965   3.734   6.564   4.868  0.2697  0.4098  0.0027
 1667TIP3    H2 4966   3.852   6.510   4.947  0.5296  1.5398  0.4152
 1668TIP3   OH2 4967   5.268   1.394   4.059 -0.3035 -0.5995 -0.1621
 1668TIP3    H1 4968   5.299   1.399   4.149 -1.9647 -1.3358  0.4874
 1668TIP3    H2 4969   5.285   1.304   4.032  2.6054  0.2548 -1.5692
 1669TIP3   OH2 4970   6.207   5.831   1.001  0.3167  0.0573  0.0571
 1669TIP3    H1 4971   6.207   5.794   0.912  0.7237  2.9323 -1.2543
 1669TIP3    H2 4972   6.116   5.825   1.029  0.2532 -1.2895 -0.3380
 1670TIP3   OH2 4973   4.699   0.636   4.826 -0.8757  0.4722  0.4451
 1670TIP3    H1 4974   4.751   0.712   4.800  0.3354 -0.3859  0.2154
 1670TIP3    H2 4975   4.667   0.657   4.914 -1.2280  1.5602  0.0652
 1671TIP3   OH2 4976   6.272   2.842   4.143 -0.6008  0.6255  0.5098
 1671TIP3    H1 4977   6.184   2.829   4.108 -1.3690 -1.2000  2.8734
 1671TIP3    H2 4978   6.330   2.811   4.074 -1.7906  1.2297 -0.8288
 1672TIP3   OH2 4979   5.591   2.037   2.048  0.2427  0.4821  0.2944
 1672TIP3    H1 4980   5.536   1.959   2.058  0.8552 -0.0338 -0.3149
 1672TIP3    H2 4981   5.673   2.005   2.011  0.6393  1.3674  0.3759
 1673TIP3   OH2 4982   4.419   0.450   2.096  0.0981  0.1233  0.2104
 1673TIP3    H1 4983   4.468   0.372   2.069 -0.6932 -0.8076  1.3674
 1673TIP3    H2 4984   4.333   0.439   2.055 -1.2522 -1.4922  3.1423
 1674TIP3   OH2 4985   1.870   6.143   3.097  0.1347  0.7015 -0.4109
 1674TIP3    H1 4986   1.805   6.092   3.048 -0.5681  1.4666 -0.2967
 1674TIP3    H2 4987   1.943   6.082   3.110 -1.2422 -0.7738  0.9657
 1675TIP3   OH2 4988   1.258   4.476   2.077 -0.0549  0.6512 -0.0366
 1675TIP3    H1 4989   1.292   4.469   2.166 -2.1455  2.0863  0.9388
 1675TIP3    H2 4990   1.217   4.562   2.073  0.2915  0.7799 -2.5319
 1676TIP3   OH2 4991   4.554   3.285   5.571 -0.5561  0.7358  0.1649
 1676TIP3    H1 4992   4.527   3.315   5.484 -0.6461  1.5313  0.4606
 1676TIP3    H2 4993   4.487   3.319   5.630  0.5438  1.8954  0.7808
 1677TIP3   OH2 4994   2.922   2.791   4.920  0.3867 -0.2043  0.3828
 1677TIP3    H1 4995   2.902   2.867   4.976  3.0721 -0.9558  2.5622
 1677TIP3    H2 4996   2.948   2.829   4.836 -0.6337  1.1172  0.6222
 1678TIP3   OH2 4997   2.918   4.373   3.709  0.0971 -0.3893  0.2468
 1678TIP3    H1 4998   2.953   4.368   3.798  0.2442 -1.1264  0.1548
 1678TIP3    H2 4999   2.961   4.450   3.671  0.3399 -0.3047  0.6836
 1679TIP3   OH2 5000   2.080   2.479   0.601  0.5403  0.2732 -0.2036
 1679TIP3    H1 5001   2.014   2.491   0.532 -0.0452  0.8795  0.4471
 1679TIP3    H2 5002   2.030   2.450   0.677  1.1829 -0.3881 -0.0250
 1680TIP3   OH2 5003   0.579   3.891   1.845 -0.1673  0.8085  0.3118
 1680TIP3    H1 5004   0.644   3.952   1.879 -1.4582  1.8153  1.0733
 1680TIP3    H2 5005   0.607   3.872   1.756  1.0988  1.3010  0.5884
 1681TIP3   OH2 5006   4.814   5.909   1.751  0.5657  0.2011 -0.4260
 1681TIP3    H1 5007   4.827   5.818   1.724  0.1421  0.2435 -0.7907
 1681TIP3    H2 5008   4.729   5.933   1.713  0.7706  0.8116 -0.5119
 1682TIP3   OH2 5009   2.383   3.667   2.800 -0.7171 -0.3311 -0.0388
 1682TIP3    H1 5010   2.366   3.757   2.774 -0.8824 -1.0116 -2.5619
 1682TIP3    H2 5011   2.305   3.641   2.850 -0.5635  0.9415  0.9147
 1683TIP3   OH2 5012   2.615   1.658   0.056  0.4727  0.0970 -0.1323
 1683TIP3    H1 5013   2.694   1.705   0.028 -0.0302  0.7417 -0.4728
 1683TIP3    H2 5014   2.571   1.718   0.116 -0.5548  0.3708 -1.1361
 1684TIP3   OH2 5015  -0.001   1.826   1.914  0.6683  0.2876  0.0813
 1684TIP3    H1 5016   0.060   1.801   1.983  2.2959  1.9219 -0.7060
 1684TIP3    H2 5017   0.015   1.762   1.844 -0.2722 -0.7464  0.7685
 1685TIP3   OH2 5018   5.970   5.552   5.447 -0.2083 -0.2407 -0.0866
 1685TIP3    H1 5019   5.942   5.516   5.531  0.0253  0.1374  0.1580
 1685TIP3    H2 5020   5.923   5.500   5.382  0.9055 -1.6942  0.2104
 1686TIP3   OH2 5021   6.281   3.232   3.299  0.2619 -0.5282  0.0103
 1686TIP3    H1 5022   6.225   3.177   3.355 -0.1156  0.2776  0.4485
 1686TIP3    H2 5023   6.357   3.177   3.279 -0.5641 -1.5528 -0.3817
 1687TIP3   OH2 5024   0.577   2.130   4.662 -0.6666 -0.3868 -0.3252
 1687TIP3    H1 5025   0.636   2.097   4.729 -1.1050 -0.6088 -0.0463
 1687TIP3    H2 5026   0.507   2.173   4.710  0.2173  1.5580 -0.6855
 1688TIP3   OH2 5027   1.524   0.881   4.190 -0.1053  1.0469  0.1088
 1688TIP3    H1 5028   1.468   0.806   4.169 -0.0689 -0.1649  3.6755
 1688TIP3    H2 5029   1.586   0.885   4.118 -1.7055 -0.6937 -1.4909
 1689TIP3   OH2 5030   3.661   0.675   1.326 -0.3241 -0.3808  0.2320
 1689TIP3    H1 5031   3.576   0.678   1.280  0.7698 -0.5449 -1.9125
 1689TIP3    H2 5032   3.663   0.757   1.375 -1.7547 -0.4182  0.4250
 1690TIP3   OH2 5033   4.852   0.250   4.860  0.2169  0.0542 -0.2788
 1690TIP3    H1 5034   4.856   0.157   4.879  0.2125  0.2497  0.7216
 1690TIP3    H2 5035   4.774   0.281   4.906  0.2306  0.5548 -0.5868
 1691TIP3   OH2 5036   2.785   6.532   3.279 -0.4002  0.1637 -0.1374
 1691TIP3    H1 5037   2.763   6.492   3.363  0.2643  2.1295  1.0380
 1691TIP3    H2 5038   2.853   6.475   3.243 -0.9481 -0.9036  0.4618
 1692TIP3   OH2 5039   0.873   5.235   2.467  0.0548 -0.3459  0.1155
 1692TIP3    H1 5040   0.962   5.269   2.455 -1.1698  2.3479 -2.6034
 1692TIP3    H2 5041   0.839   5.285   2.541 -0.2973  1.4470 -1.1659
 1693TIP3   OH2 5042   2.337   2.479   2.786 -0.1377 -0.2601 -0.1831
 1693TIP3    H1 5043   2.311   2.387   2.781 -0.8653 -0.1433  1.1471
 1693TIP3    H2 5044   2.371   2.490   2.875  0.4975  0.6315 -0.5220
 1694TIP3   OH2 5045   4.217   0.540   0.280 -0.1291  0.6323  0.5366
 1694TIP3    H1 5046   4.225   0.634   0.296  0.8692  0.3292  1.9947
 1694TIP3    H2 5047   4.187   0.504   0.364  0.8370 -0.5034  0.4180
 1695TIP3   OH2 5048   0.655   2.485   2.105  0.0884  0.3878  0.1113
 1695TIP3    H1 5049   0.602   2.521   2.177 -0.3231 -0.7868  0.4290
 1695TIP3    H2 5050   0.591   2.443   2.048  0.7370 -3.9300  2.1328
 1696TIP3   OH2 5051   1.878   4.803   1.895 -0.3358  0.1201  0.0562
 1696TIP3    H1 5052   1.876   4.898   1.905 -0.5708 -0.0142  1.5033
 1696TIP3    H2 5053   1.888   4.770   1.984 -0.4916 -1.2250 -0.4061
 1697TIP3   OH2 5054   3.919   6.015   2.152 -0.4999  0.0866  0.4832
 1697TIP3    H1 5055   3.986   6.073   2.189 -0.6971 -0.0201  1.0242
 1697TIP3    H2 5056   3.952   5.927   2.170 -0.4793  0.0301  0.1747
 1698TIP3   OH2 5057   5.539   2.988   3.639  0.2541 -0.3858  0.0276
 1698TIP3    H1 5058   5.615   2.974   3.582  0.2724 -0.8893  0.1697
 1698TIP3    H2 5059   5.510   2.900   3.662  0.2896 -0.1905  0.8518
 1699TIP3   OH2 5060   6.120   1.993   0.261 -0.1649  0.5196 -0.3685
 1699TIP3    H1 5061   6.116   1.967   0.170  0.7478 -0.7661 -0.0704
 1699TIP3    H2 5062   6.102   1.913   0.311 -0.6469  1.1926  0.5853
 1700TIP3   OH2 5063   3.616   2.458   2.705 -0.5811  0.5987 -0.3704
 1700TIP3    H1 5064   3.574   2.490   2.785 -1.1919  0.9719 -0.8310
 1700TIP3    H2 5065   3.619   2.363   2.717  0.4589  0.7346  0.6285
 1701TIP3   OH2 5066   6.163   0.828   1.178  0.2230 -0.1201  0.2217
 1701TIP3    H1 5067   6.209   0.901   1.138 -0.8013  0.4589  0.0603
 1701TIP3    H2 5068   6.145   0.768   1.106  0.0348  0.0312  0.1411
 1702TIP3   OH2 5069   3.409   2.970   1.239  0.4109  0.1450  0.4112
 1702TIP3    H1 5070   3.480   2.921   1.198 -0.5281 -0.6215 -0.3605
 1702TIP3    H2 5071   3.348   2.903   1.270 -1.3095  0.7475 -1.4060
 1703TIP3   OH2 5072   1.812   3.260   2.030  0.1635 -0.5579  0.7793
 1703TIP3    H1 5073   1.895   3.286   1.992 -0.0154  0.4388  1.0376
 1703TIP3    H2 5074   1.750   3.328   2.002 -1.1655 -2.5192 -1.4542
 1704TIP3   OH2 5075   2.449   3.965   0.275 -0.5491 -0.0092  0.2417
 1704TIP3    H1 5076   2.437   3.882   0.321 -0.4736 -0.0922  0.1147
 1704TIP3    H2 5077   2.404   4.030   0.328 -0.4035 -0.0927  0.4654
 1705TIP3   OH2 5078   7.060   6.662   1.469  0.1217  0.1694  0.2835
 1705TIP3    H1 5079   7.041   6.624   1.555  0.1520 -3.2894 -1.1020
 1705TIP3    H2 5080   6.974   6.679   1.431  0.0439 -1.1787 -0.1595
 1706TIP3   OH2 5081   1.106   4.665  -0.030 -0.0724  0.1519  0.5284
 1706TIP3    H1 5082   1.088   4.691   0.060 -2.3812 -2.3174  0.9230
 1706TIP3    H2 5083   1.163   4.589  -0.022  0.2510  0.3192 -0.1324
 1707TIP3   OH2 5084   4.279   0.726   3.597  0.7304  0.7219 -0.8116
 1707TIP3    H1 5085   4.296   0.632   3.594  0.2664  0.5695  0.7370
 1707TIP3    H2 5086   4.346   0.764   3.540  0.5697 -0.5686 -1.9275
 1708TIP3   OH2 5087   3.792   2.401   5.102  0.2162 -0.3909 -0.2719
 1708TIP3    H1 5088   3.824   2.475   5.153  1.6936 -1.0743 -0.1628
 1708TIP3    H2 5089   3.859   2.333   5.112 -0.7852 -1.5175 -0.8972
 1709TIP3   OH2 5090   0.616   0.340   3.864 -0.4562 -0.2137  0.5449
 1709TIP3    H1 5091   0.601   0.389   3.945 -0.1571  0.9657 -0.0935
 1709TIP3    H2 5092   0.547   0.370   3.805 -1.0701 -1.5375  0.5419
 1710TIP3   OH2 5093   3.493   3.863   1.943  0.0728  0.7122 -0.5509
 1710TIP3    H1 5094   3.552   3.793   1.974  0.3013  1.4934  0.8928
 1710TIP3    H2 5095   3.436   3.820   1.881  0.2386 -0.7751  0.2693
 1711TIP3   OH2 5096   3.559   5.921   3.119  0.0174  0.1693  0.9486
 1711TIP3    H1 5097   3.498   5.992   3.140  0.4815  0.4992  1.2158
 1711TIP3    H2 5098   3.505   5.854   3.077 -0.3700  0.8119  0.4002
 1712TIP3   OH2 5099   5.236   1.506   1.122 -0.8622  0.3365 -0.2383
 1712TIP3    H1 5100   5.291   1.455   1.181 -0.2498  0.7094 -0.4793
 1712TIP3    H2 5101   5.209   1.445   1.054  2.2383  0.9210 -2.1750
 1713TIP3   OH2 5102   1.834   0.423   5.839  0.0949 -0.7215  0.2107
 1713TIP3    H1 5103   1.823   0.467   5.755  1.6026 -1.2583 -0.2996
 1713TIP3    H2 5104   1.927   0.401   5.842  0.0103 -0.9602  1.9032
 1714TIP3   OH2 5105   1.313   1.793   1.611 -0.0958 -0.5947  0.2688
 1714TIP3    H1 5106   1.227   1.780   1.571  0.2215 -0.9874 -0.3067
 1714TIP3    H2 5107   1.297   1.793   1.705 -0.7311 -0.5880  0.1638
 1715TIP3   OH2 5108   4.127   4.796   4.171 -0.1628 -0.1340 -0.2932
 1715TIP3    H1 5109   4.222   4.791   4.163 -0.3465 -1.9566 -2.4726
 1715TIP3    H2 5110   4.110   4.881   4.210  2.2341  1.8769 -3.1883
 1716TIP3   OH2 5111   6.554   3.783   4.675  0.3539  0.3698  0.2372
 1716TIP3    H1 5112   6.593   3.826   4.751  0.7100 -0.2549  0.4120
 1716TIP3    H2 5113   6.460   3.791   4.690  0.4095 -0.3628  1.1160
 1717TIP3   OH2 5114   1.378   1.443   1.555 -0.5401 -0.5418 -0.4576
 1717TIP3    H1 5115   1.285   1.458   1.542 -0.9066 -1.5403  0.8332
 1717TIP3    H2 5116   1.394   1.467   1.646  0.9873  1.9296 -1.2667
 1718TIP3   OH2 5117   0.327   1.160   1.061 -0.5278  0.3226 -0.3513
 1718TIP3    H1 5118   0.378   1.191   1.137 -0.1348 -1.3467  0.1225
 1718TIP3    H2 5119   0.393   1.141   0.994 -0.7586  0.5563 -0.6461
 1719TIP3   OH2 5120   2.912   2.393   2.085 -0.1334  0.3687  0.0616
 1719TIP3    H1 5121   2.820   2.422   2.085 -0.7090 -1.2838 -0.6408
 1719TIP3    H2 5122   2.915   2.324   2.151  0.1662 -0.7102 -1.0254
 1720TIP3   OH2 5123  -0.016   4.297   1.041 -0.0112 -0.0595  0.3208
 1720TIP3    H1 5124  -0.021   4.237   0.966  0.8015 -0.5803  0.6685
 1720TIP3    H2 5125   0.077   4.299   1.064  0.0817  1.7872 -0.0253
 1721TIP3   OH2 5126   4.806   5.777   3.493 -0.3732  0.7451  1.0110
 1721TIP3    H1 5127   4.728   5.810   3.539 -0.6266 -0.1708  1.2650
 1721TIP3    H2 5128   4.879   5.807   3.546 -0.6634 -0.3260  2.0736
 1722TIP3   OH2 5129   5.748   5.043   5.683  1.1776 -0.2707 -0.1410
 1722TIP3    H1 5130   5.673   4.990   5.653  1.4710 -0.7927  0.0360
 1722TIP3    H2 5131   5.809   5.040   5.609  0.6527  0.9181 -0.6539
 1723TIP3   OH2 5132   5.994   2.906   2.617  0.5396  0.1583  0.9643
 1723TIP3    H1 5133   5.909   2.864   2.604 -0.0929  1.7956 -0.6699
 1723TIP3    H2 5134   5.973   2.989   2.660  1.3914  0.2804  1.1580
 1724TIP3   OH2 5135   3.780   4.427   3.368  0.4874  0.0787 -0.3036
 1724TIP3    H1 5136   3.789   4.522   3.376  1.7668  0.1932 -2.4314
 1724TIP3    H2 5137   3.866   4.393   3.394 -0.5892 -0.7685  2.6474
 1725TIP3   OH2 5138   4.953   0.458   3.625 -0.6101  0.1738  0.4219
 1725TIP3    H1 5139   5.003   0.433   3.702  0.4745 -0.0841 -0.3403
 1725TIP3    H2 5140   4.904   0.536   3.651  1.6254  1.5690  0.6660
 1726TIP3   OH2 5141   4.492   3.609   5.511 -0.5147  0.1245  0.3622
 1726TIP3    H1 5142   4.536   3.677   5.459  0.6918 -1.0106 -0.1539
 1726TIP3    H2 5143   4.490   3.645   5.600  0.3100  0.7573  0.1392
 1727TIP3   OH2 5144   0.070   0.717   5.298  0.2616  0.2906  0.4192
 1727TIP3    H1 5145   0.134   0.784   5.324  0.0749  0.1935  1.1487
 1727TIP3    H2 5146  -0.012   0.764   5.289  0.2318  0.2443  0.4498
 1728TIP3   OH2 5147   1.489   3.165   2.973 -0.1351  0.2126 -0.4419
 1728TIP3    H1 5148   1.429   3.131   3.040  1.0843  1.7038  1.5247
 1728TIP3    H2 5149   1.453   3.251   2.951  0.7379  0.7242  0.0729
 1729TIP3   OH2 5150   3.307   3.433   4.489 -0.1886  0.0942  0.0969
 1729TIP3    H1 5151   3.275   3.462   4.404 -0.3091  1.8757  0.7238
 1729TIP3    H2 5152   3.229   3.400   4.534 -1.0548  3.2423  1.1360
 1730TIP3   OH2 5153   5.730   6.112   4.249 -0.1508  0.1888  0.1759
 1730TIP3    H1 5154   5.716   6.068   4.333 -1.6454 -1.0034 -0.6237
 1730TIP3    H2 5155   5.794   6.057   4.204 -2.0190 -1.2896 -0.8234
 1731TIP3   OH2 5156   2.055   1.881   0.438 -0.1508  0.6784 -0.0768
 1731TIP3    H1 5157   2.087   1.792   0.424 -0.0499  0.3971  1.7537
 1731TIP3    H2 5158   2.080   1.928   0.358  0.6577 -0.6779 -0.6555
 1732TIP3   OH2 5159   6.329   5.450   1.645  0.1523  0.7175  0.3299
 1732TIP3    H1 5160   6.245   5.409   1.621  0.0415 -0.4989  2.5311
 1732TIP3    H2 5161   6.304   5.534   1.683  0.2739  2.2289 -2.6458
 1733TIP3   OH2 5162   4.441   2.218   5.729 -0.1504 -0.3355  0.3501
 1733TIP3    H1 5163   4.375   2.153   5.755  0.9553 -1.2438  0.9870
 1733TIP3    H2 5164   4.442   2.213   5.633 -0.2361 -1.1219  0.3789
 1734TIP3   OH2 5165   6.956   0.274   4.461 -0.0004  0.1402  0.2236
 1734TIP3    H1 5166   6.947   0.229   4.377  1.1102  0.6616 -0.1920
 1734TIP3    H2 5167   6.961   0.203   4.525 -2.8690 -0.2620  0.1233
 1735TIP3   OH2 5168   0.332   2.935   0.710 -0.3998  0.2695 -0.6037
 1735TIP3    H1 5169   0.303   2.858   0.759  2.1030 -1.5506 -1.7711
 1735TIP3    H2 5170   0.272   3.005   0.737 -2.8519 -2.0714  0.4260
 1736TIP3   OH2 5171   1.719   3.945   4.751 -0.0660 -0.2919  0.6106
 1736TIP3    H1 5172   1.811   3.969   4.737  0.4133 -2.3477 -0.0498
 1736TIP3    H2 5173   1.687   4.012   4.811  0.4324  3.4656 -2.8454
 1737TIP3   OH2 5174   0.320   1.047   0.094  0.3447  0.3671  0.2676
 1737TIP3    H1 5175   0.254   1.106   0.131  1.7217  1.8476  0.4586
 1737TIP3    H2 5176   0.274   1.001   0.024 -0.1639  3.6767 -1.8115
 1738TIP3   OH2 5177   3.797   6.347   5.305 -0.1737 -0.3663 -0.4595
 1738TIP3    H1 5178   3.833   6.346   5.216  0.8897  0.4531 -0.0623
 1738TIP3    H2 5179   3.708   6.313   5.295 -0.4584  0.6946 -2.0183
 1739TIP3   OH2 5180   4.134   3.473   3.587  0.0162  0.0397 -0.4077
 1739TIP3    H1 5181   4.063   3.430   3.539 -0.5648  0.1536  0.3300
 1739TIP3    H2 5182   4.182   3.521   3.520 -2.0400  1.9479 -0.6509
 1740TIP3   OH2 5183   0.885   1.397   4.465 -0.0562 -0.3138  0.0472
 1740TIP3    H1 5184   0.879   1.449   4.546  0.5325  1.2866 -0.8995
 1740TIP3    H2 5185   0.978   1.398   4.443 -0.2863 -0.2504 -0.9565
 1741TIP3   OH2 5186   2.961   6.640   0.627 -0.1691 -0.1478 -0.6764
 1741TIP3    H1 5187   2.982   6.562   0.678 -0.1350 -0.0381 -0.5228
 1741TIP3    H2 5188   2.916   6.698   0.688  2.0830  1.0434 -0.0514
 1742TIP3   OH2 5189   5.768   3.893   1.595  0.0264 -0.3624  0.0914
 1742TIP3    H1 5190   5.851   3.883   1.548 -0.6455 -1.6162 -0.9135
 1742TIP3    H2 5191   5.792   3.886   1.687  1.2070  0.7649 -0.0916
 1743TIP3   OH2 5192   4.679   6.382   0.652 -0.2761  0.0820  0.1999
 1743TIP3    H1 5193   4.652   6.432   0.575  1.0659 -0.7567 -0.8649
 1743TIP3    H2 5194   4.608   6.321   0.668 -0.6316  0.3664 -0.2798
 1744TIP3   OH2 5195   6.055   1.924   2.410  0.3112  1.0589 -0.4646
 1744TIP3    H1 5196   5.974   1.923   2.460  0.5360 -0.8107 -0.0444
 1744TIP3    H2 5197   6.041   1.989   2.341 -2.0049 -0.0259 -1.1098
 1745TIP3   OH2 5198   2.418   2.487   1.755  0.1390  0.6874 -0.2524
 1745TIP3    H1 5199   2.361   2.429   1.805 -0.8781  1.2774 -0.7060
 1745TIP3    H2 5200   2.505   2.472   1.792  0.0752 -1.7140 -0.8696
 1746TIP3   OH2 5201   2.942   3.407   1.713 -0.2876  0.1749  0.0610
 1746TIP3    H1 5202   2.954   3.401   1.619 -3.5471 -0.9452 -0.3988
 1746TIP3    H2 5203   2.947   3.501   1.733  1.9368  0.3120 -0.9098
 1747TIP3   OH2 5204   6.643   3.904   4.170 -0.5032  0.2246 -0.2224
 1747TIP3    H1 5205   6.590   3.922   4.247  0.4848 -0.8806  0.7610
 1747TIP3    H2 5206   6.714   3.968   4.173  0.3702 -0.7283  0.6647
 1748TIP3   OH2 5207   5.229   5.274   2.267  0.6743 -0.1506  0.0476
 1748TIP3    H1 5208   5.155   5.260   2.208  0.2878 -0.0564  0.5026
 1748TIP3    H2 5209   5.267   5.188   2.280 -0.7960 -0.6105  1.6751
 1749TIP3   OH2 5210   6.613   6.386   2.125 -0.4452 -0.2595 -0.3895
 1749TIP3    H1 5211   6.617   6.480   2.110 -0.4514 -0.5159 -2.3078
 1749TIP3    H2 5212   6.520   6.366   2.130 -0.4320 -0.0484  1.0824
 1750TIP3   OH2 5213   5.030   4.938   0.109 -0.5234 -0.3133 -0.3227
 1750TIP3    H1 5214   5.016   4.850   0.146  0.7773  0.2844  1.7984
 1750TIP3    H2 5215   5.051   4.992   0.185  0.8288  1.3758 -1.8209
 1751TIP3   OH2 5216   0.815   2.901   3.648  0.0322  0.2574 -0.5822
 1751TIP3    H1 5217   0.825   2.842   3.574 -0.4984 -1.7024  0.8488
 1751TIP3    H2 5218   0.721   2.919   3.653 -0.0193 -0.1357 -0.0197
 1752TIP3   OH2 5219   2.072   0.950   3.595 -0.1316 -0.0637 -0.5081
 1752TIP3    H1 5220   2.104   1.030   3.635  0.2695  0.3533 -1.6283
 1752TIP3    H2 5221   1.980   0.968   3.576 -0.4614 -0.4447  0.6446
 1753TIP3   OH2 5222   7.059   6.368   2.098 -0.2700  0.3297 -0.4744
 1753TIP3    H1 5223   7.128   6.315   2.137 -0.7720 -0.2942 -0.4080
 1753TIP3    H2 5224   6.992   6.374   2.166 -0.3775  0.7516 -0.6123
 1754TIP3   OH2 5225   0.450   1.185   5.070  0.2177  0.1126 -0.0040
 1754TIP3    H1 5226   0.374   1.177   5.127  0.6640 -2.2837  0.3359
 1754TIP3    H2 5227   0.504   1.252   5.112 -1.8631  2.2457 -0.5292
 1755TIP3   OH2 5228   5.672   4.830   0.522  0.1876  0.4247 -0.2354
 1755TIP3    H1 5229   5.615   4.900   0.491 -0.7007  0.3457  1.1387
 1755TIP3    H2 5230   5.627   4.794   0.599  0.5270 -1.7637 -0.9792
 1756TIP3   OH2 5231   1.712   3.918   2.866 -0.1219 -0.2871 -0.3115
 1756TIP3    H1 5232   1.644   3.852   2.879 -0.9862  0.5003 -0.6741
 1756TIP3    H2 5233   1.717   3.963   2.951 -0.0477 -0.3556 -0.2800
 1757TIP3   OH2 5234   0.294   0.922   0.748 -0.3972 -0.5132  0.0851
 1757TIP3    H1 5235   0.355   0.985   0.709 -0.4491  0.5996  1.7150
 1757TIP3    H2 5236   0.239   0.894   0.674 -0.5193  1.5369 -0.6700
 1758TIP3   OH2 5237   4.587   2.885   1.947  0.1516 -0.4845  0.3720
 1758TIP3    H1 5238   4.611   2.796   1.923  1.4252  0.1883 -1.0115
 1758TIP3    H2 5239   4.668   2.923   1.981 -0.4790  0.0359  1.3519
 1759TIP3   OH2 5240   4.049   0.352   1.277  0.1732  0.2512 -0.1817
 1759TIP3    H1 5241   3.967   0.398   1.297  0.1749  0.5012 -0.7383
 1759TIP3    H2 5242   4.050   0.345   1.182  0.0790 -1.0897 -0.1099
 1760TIP3   OH2 5243   1.736   4.525   5.397 -0.4162  0.0813 -0.3862
 1760TIP3    H1 5244   1.796   4.456   5.426  0.1406  0.5446 -0.4329
 1760TIP3    H2 5245   1.792   4.593   5.361 -0.8885  0.9971  0.5547
 1761TIP3   OH2 5246   2.074   1.354   2.476  0.0056 -0.4074  0.3155
 1761TIP3    H1 5247   2.121   1.381   2.397  0.4467  1.7411  1.2358
 1761TIP3    H2 5248   2.143   1.333   2.539 -0.2408  0.8820  1.0608
 1762TIP3   OH2 5249   1.666   4.241   3.258  0.3359 -0.2509  0.0816
 1762TIP3    H1 5250   1.711   4.284   3.185  0.4955  0.8328  0.7955
 1762TIP3    H2 5251   1.581   4.215   3.223  1.2568 -1.8281 -1.1309
 1763TIP3   OH2 5252   4.038   5.337   2.156  0.1139 -0.6664  0.1797
 1763TIP3    H1 5253   4.065   5.328   2.247 -1.2114 -0.5972  0.5915
 1763TIP3    H2 5254   4.058   5.251   2.117 -0.3495 -1.0706  0.8177
 1764TIP3   OH2 5255   5.168   2.530   3.154 -0.3038  0.3994  0.0587
 1764TIP3    H1 5256   5.103   2.460   3.144 -0.6925  0.6921  0.4863
 1764TIP3    H2 5257   5.178   2.566   3.066 -0.8214  0.4372  0.0138
 1765TIP3   OH2 5258   4.239   4.163   4.903 -0.0656 -0.3691 -0.2557
 1765TIP3    H1 5259   4.239   4.093   4.968 -3.5391 -0.6712 -0.3616
 1765TIP3    H2 5260   4.223   4.118   4.820 -2.5365  0.4279 -0.2981
 1766TIP3   OH2 5261   5.839   1.939   1.935 -0.2185  0.1734 -0.0195
 1766TIP3    H1 5262   5.876   2.008   1.880 -0.0062 -0.9589 -1.3399
 1766TIP3    H2 5263   5.915   1.892   1.969 -0.3630 -0.7773 -0.9459
 1767TIP3   OH2 5264   3.888   1.330   4.513  0.2384  0.2832 -0.5545
 1767TIP3    H1 5265   3.798   1.357   4.492  0.1306 -0.1545 -0.6787
 1767TIP3    H2 5266   3.881   1.235   4.527  0.8487  0.0917 -1.4963
 1768TIP3   OH2 5267   4.363   3.924   3.053 -0.4966 -0.2358  0.1141
 1768TIP3    H1 5268   4.377   3.862   3.124 -0.9966  0.4257  0.8128
 1768TIP3    H2 5269   4.320   3.874   2.984 -0.3873 -0.7856  0.4458
 1769TIP3   OH2 5270   6.756   1.633   3.661 -0.3173  0.1688 -0.5094
 1769TIP3    H1 5271   6.838   1.626   3.613 -0.2165 -0.2165 -0.2881
 1769TIP3    H2 5272   6.725   1.722   3.644 -0.5267 -0.1101 -1.6850
 1770TIP3   OH2 5273   5.370   2.960   2.367 -0.6200  0.3661 -0.0476
 1770TIP3    H1 5274   5.448   2.965   2.422 -1.2560 -1.2404  1.0642
 1770TIP3    H2 5275   5.400   2.983   2.280  0.9951  0.2478  0.4553
 1771TIP3   OH2 5276   6.338   0.291   4.054 -0.8045  0.1210 -0.2861
 1771TIP3    H1 5277   6.282   0.213   4.049 -0.7079 -0.1711  2.0244
 1771TIP3    H2 5278   6.276   0.364   4.064 -0.8938 -0.2410  2.6771
 1772TIP3   OH2 5279   7.069   4.217   3.498  0.1941 -0.1847 -0.1164
 1772TIP3    H1 5280   7.149   4.254   3.533  0.1419 -0.2391  0.0633
 1772TIP3    H2 5281   7.093   4.129   3.470 -0.2420 -0.9548  1.7853
 1773TIP3   OH2 5282   4.908   3.782   1.853 -0.0492  0.0393  0.3289
 1773TIP3    H1 5283   4.976   3.732   1.808 -1.6836 -1.6694 -0.3373
 1773TIP3    H2 5284   4.935   3.780   1.945  1.6263  0.8187 -0.0977
 1774TIP3   OH2 5285   3.326   2.250   3.064  0.4531 -0.4089 -0.0054
 1774TIP3    H1 5286   3.329   2.288   2.976  0.2706 -0.8250 -0.1928
 1774TIP3    H2 5287   3.234   2.260   3.091  1.0100  2.1534  1.2282
 1775TIP3   OH2 5288   2.180   3.497   5.533 -0.0599 -0.6228 -0.6835
 1775TIP3    H1 5289   2.097   3.479   5.489  0.2935  2.0856 -2.7170
 1775TIP3    H2 5290   2.242   3.435   5.495 -0.0097  0.9468 -3.4604
 1776TIP3   OH2 5291   2.574   5.805   0.373  0.6114  0.4091  0.9520
 1776TIP3    H1 5292   2.604   5.779   0.460 -0.5941  1.0743  1.6041
 1776TIP3    H2 5293   2.511   5.876   0.390 -0.0412  0.1976 -0.4275
 1777TIP3   OH2 5294   3.182   3.147   2.252  0.2863 -0.1709  0.2587
 1777TIP3    H1 5295   3.142   3.121   2.335  0.8449 -0.1926  0.5204
 1777TIP3    H2 5296   3.275   3.155   2.271  0.5509 -1.0626 -0.5888
 1778TIP3   OH2 5297   0.876   2.590   0.537  0.1550 -0.4337 -0.5859
 1778TIP3    H1 5298   0.876   2.498   0.512  0.2995 -0.3933 -0.7402
 1778TIP3    H2 5299   0.877   2.590   0.632 -1.9243 -0.6046 -0.5261
 1779TIP3   OH2 5300   0.807   4.410   2.961  0.3153  0.0936 -0.5697
 1779TIP3    H1 5301   0.715   4.383   2.955  0.4712 -1.3035  1.8683
 1779TIP3    H2 5302   0.832   4.431   2.871 -2.3279  0.3776 -1.3231
 1780TIP3   OH2 5303   4.243   0.649   4.693  0.3299 -0.3625  0.2049
 1780TIP3    H1 5304   4.267   0.708   4.764 -0.0685  0.6455 -0.4743
 1780TIP3    H2 5305   4.204   0.706   4.626 -1.4700 -1.5575  0.1526
 1781TIP3   OH2 5306   4.445   4.487   5.742 -0.5081  0.2999 -0.1263
 1781TIP3    H1 5307   4.493   4.411   5.775 -0.0220  1.0912  1.0988
 1781TIP3    H2 5308   4.506   4.560   5.756 -2.1538  1.4052  1.8400
 1782TIP3   OH2 5309   3.004   1.570   2.203  0.0109 -0.2390 -0.9973
 1782TIP3    H1 5310   2.978   1.656   2.171 -0.6356 -0.3725 -0.8317
 1782TIP3    H2 5311   3.092   1.558   2.167  0.4099  0.8020 -0.4062
 1783TIP3   OH2 5312   3.987   2.090   3.706  0.2589  0.4891  0.2050
 1783TIP3    H1 5313   3.922   2.159   3.716 -1.3941 -1.0116  0.1360
 1783TIP3    H2 5314   3.939   2.008   3.718  2.5922 -0.6792  2.8962
 1784TIP3   OH2 5315   5.468   1.579   2.987 -0.6041 -0.0565 -0.1678
 1784TIP3    H1 5316   5.456   1.604   2.895 -0.9459  0.8415  0.1151
 1784TIP3    H2 5317   5.503   1.657   3.029  1.7562 -1.1375  0.0344
 1785TIP3   OH2 5318   6.901   0.386   0.135  0.2773  0.1475  0.0523
 1785TIP3    H1 5319   6.900   0.378   0.230  0.6724 -1.7254 -0.0679
 1785TIP3    H2 5320   6.987   0.421   0.114  0.6484 -0.5951  0.3221
 1786TIP3   OH2 5321   2.572   5.380   1.387  0.3578 -0.3631 -0.3702
 1786TIP3    H1 5322   2.616   5.299   1.413  1.6801  0.7289  1.0322
 1786TIP3    H2 5323   2.535   5.361   1.301 -0.1427 -2.7050  0.2942
 1787TIP3   OH2 5324   4.118   0.101   0.808 -0.8659 -0.4829 -0.1636
 1787TIP3    H1 5325   4.056   0.124   0.877  0.4544 -1.2137  1.3594
 1787TIP3    H2 5326   4.066   0.095   0.728 -2.2866  1.4330  0.5516
 1788TIP3   OH2 5327   6.871   6.729   2.576 -0.0682  0.2618  0.0190
 1788TIP3    H1 5328   6.910   6.742   2.663  1.3238  1.1382 -0.6865
 1788TIP3    H2 5329   6.947   6.725   2.517 -0.7880 -2.9284 -0.9187
 1789TIP3   OH2 5330   5.797   0.177   5.657 -0.0754 -0.4147 -0.4059
 1789TIP3    H1 5331   5.846   0.255   5.679  1.4927 -1.7332  1.0571
 1789TIP3    H2 5332   5.763   0.145   5.741  1.6817 -2.7509 -0.4582
 1790TIP3   OH2 5333   5.325   4.291   5.841 -0.2140 -0.3442  0.2305
 1790TIP3    H1 5334   5.318   4.209   5.793  2.6102 -0.3573 -0.3063
 1790TIP3    H2 5335   5.332   4.358   5.774 -0.1655  0.0900  0.6605
 1791TIP3   OH2 5336   3.884   4.530   5.086 -0.3054  0.1757 -0.0148
 1791TIP3    H1 5337   3.952   4.466   5.105 -0.7903 -0.0452  1.0005
 1791TIP3    H2 5338   3.802   4.485   5.106 -0.7437  0.5663 -0.8625
 1792TIP3   OH2 5339   5.070   2.757   1.377 -0.1726 -0.2863 -0.3990
 1792TIP3    H1 5340   5.063   2.702   1.299  1.7474 -1.7997  0.4093
 1792TIP3    H2 5341   5.132   2.826   1.353 -0.6261  0.0548 -0.6112
 1793TIP3   OH2 5342   0.083   4.029   2.063 -0.3228  0.3284  0.2087
 1793TIP3    H1 5343   0.069   3.957   2.001 -2.3264  0.2982  0.6107
 1793TIP3    H2 5344   0.054   3.994   2.147 -1.9784  1.7328  0.2956
 1794TIP3   OH2 5345   4.889   5.201   1.040 -0.3525  0.4123 -0.3030
 1794TIP3    H1 5346   4.881   5.162   1.126  1.8110  1.3912  0.3948
 1794TIP3    H2 5347   4.801   5.237   1.022 -0.5607  1.1928  1.9981
 1795TIP3   OH2 5348   2.191   6.122   3.899  0.4560  0.0350  0.5018
 1795TIP3    H1 5349   2.231   6.193   3.849 -0.7935  0.6801  0.3759
 1795TIP3    H2 5350   2.210   6.043   3.848  2.1489  0.1989  0.8152
 1796TIP3   OH2 5351   0.170   5.201   3.946  0.2695 -0.2070  0.2941
 1796TIP3    H1 5352   0.262   5.188   3.925  0.1376 -0.0817 -0.3686
 1796TIP3    H2 5353   0.152   5.293   3.925 -0.5030 -0.7345 -1.5082
 1797TIP3   OH2 5354   5.631   4.041   0.124  0.9015 -0.2215 -0.3821
 1797TIP3    H1 5355   5.555   4.010   0.074  1.0394  0.5881 -1.1228
 1797TIP3    H2 5356   5.601   4.042   0.214 -0.0897  0.4025 -0.7025
 1798TIP3   OH2 5357   3.624   4.079   0.558  0.0375 -0.4633  0.1511
 1798TIP3    H1 5358   3.605   4.058   0.650  0.9695  1.5886  0.8560
 1798TIP3    H2 5359   3.545   4.051   0.511 -0.5639 -1.3325  1.5907
 1799TIP3   OH2 5360   5.466   5.119   3.153 -0.4499  0.3334  0.6155
 1799TIP3    H1 5361   5.441   5.210   3.134 -1.0428 -0.1248 -0.9579
 1799TIP3    H2 5362   5.512   5.090   3.074 -3.8473 -1.9915 -0.7683
 1800TIP3   OH2 5363   0.185   2.514   0.526  0.4490 -0.9533  0.1651
 1800TIP3    H1 5364   0.142   2.575   0.585  0.7697 -1.1336  0.5855
 1800TIP3    H2 5365   0.216   2.444   0.582  0.5931 -1.2186 -0.2417
 1801TIP3   OH2 5366   3.268   1.286   3.874 -0.0064  0.8728  0.1637
 1801TIP3    H1 5367   3.188   1.272   3.824 -0.4873  3.4680  0.0729
 1801TIP3    H2 5368   3.331   1.320   3.811  0.8894 -0.2358  0.4300
 1802TIP3   OH2 5369   3.362   5.936   5.509 -0.0264  0.4246 -0.3505
 1802TIP3    H1 5370   3.271   5.954   5.535  0.0524 -0.6404  0.7245
 1802TIP3    H2 5371   3.354   5.888   5.427 -0.5355 -1.1542  0.5780
 1803TIP3   OH2 5372   0.303   1.500   5.156 -0.4128  0.2901  0.5029
 1803TIP3    H1 5373   0.319   1.594   5.152  0.3136  0.2406  1.6198
 1803TIP3    H2 5374   0.209   1.491   5.140 -0.6963  1.3075  1.4257
 1804TIP3   OH2 5375   6.317   4.182   5.129 -0.3300 -0.1537 -0.3786
 1804TIP3    H1 5376   6.334   4.249   5.063  0.1608 -0.9141 -1.0467
 1804TIP3    H2 5377   6.263   4.226   5.194 -1.8543  0.3150 -1.8633
 1805TIP3   OH2 5378   6.386   3.363   3.070  0.3327 -0.3967  0.4102
 1805TIP3    H1 5379   6.363   3.324   3.154  1.6055 -1.1563  0.4398
 1805TIP3    H2 5380   6.482   3.359   3.067  0.4713  2.0477  0.0444
 1806TIP3   OH2 5381   5.314   0.122   0.848  0.0729 -0.0098 -0.3943
 1806TIP3    H1 5382   5.266   0.039   0.845  0.2322 -0.0752 -2.6672
 1806TIP3    H2 5383   5.250   0.187   0.819  0.5088  0.3672 -0.5138
 1807TIP3   OH2 5384   6.658   3.542   0.846  0.5017 -0.8253  0.4019
 1807TIP3    H1 5385   6.582   3.580   0.889  1.3542 -0.6882  1.8832
 1807TIP3    H2 5386   6.635   3.538   0.754 -1.0701 -0.2687  0.7449
 1808TIP3   OH2 5387   4.258   0.489   1.692 -0.7700 -0.0712 -0.1936
 1808TIP3    H1 5388   4.275   0.394   1.698  0.4514 -0.0048 -1.7033
 1808TIP3    H2 5389   4.217   0.512   1.775 -1.4510 -1.9999  0.0495
 1809TIP3   OH2 5390   1.830   2.662   5.271 -0.3539 -0.3508 -0.6848
 1809TIP3    H1 5391   1.777   2.614   5.335 -0.5742 -0.2735 -0.8065
 1809TIP3    H2 5392   1.920   2.647   5.298 -0.4678  0.1336 -0.0339
 1810TIP3   OH2 5393   1.328   4.378   5.301  0.1903  0.0335 -0.2338
 1810TIP3    H1 5394   1.325   4.292   5.260  0.5874 -0.2164  0.2508
 1810TIP3    H2 5395   1.395   4.370   5.369 -0.0536  0.6076  0.0813
 1811TIP3   OH2 5396   0.638   1.440   2.529  0.3607 -0.8180  0.2147
 1811TIP3    H1 5397   0.586   1.470   2.604  0.4956  0.1486 -0.0603
 1811TIP3    H2 5398   0.576   1.392   2.475 -0.4633  0.9183 -0.4651
 1812TIP3   OH2 5399   4.918   4.218   5.061 -0.3881  0.0099 -0.0961
 1812TIP3    H1 5400   4.915   4.203   5.155  0.2909 -0.4948 -0.1492
 1812TIP3    H2 5401   4.973   4.147   5.027 -1.1526 -0.2040 -0.9486
 1813TIP3   OH2 5402   2.940   5.479   0.842  0.8335 -0.2057  0.0921
 1813TIP3    H1 5403   2.946   5.425   0.921  0.6018  0.6908  0.7320
 1813TIP3    H2 5404   2.880   5.431   0.784  0.5396 -0.5795  0.7002
 1814TIP3   OH2 5405   4.529   4.572   2.424 -0.1066  0.2005 -0.0220
 1814TIP3    H1 5406   4.593   4.590   2.493 -0.0652 -0.4319  0.1109
 1814TIP3    H2 5407   4.465   4.642   2.432 -0.0829  0.1472  0.6385
 1815TIP3   OH2 5408   0.306   2.567   3.800  0.4586  0.1172  0.5697
 1815TIP3    H1 5409   0.313   2.494   3.862 -1.6088 -1.4178 -0.8938
 1815TIP3    H2 5410   0.226   2.613   3.826  1.9917  2.3346  1.8103
 1816TIP3   OH2 5411   6.717   1.007   1.834 -0.5935  0.2795 -0.2200
 1816TIP3    H1 5412   6.707   1.021   1.928  0.5453  2.4608 -0.3600
 1816TIP3    H2 5413   6.708   0.913   1.822  2.7526 -0.5482  2.5718
 1817TIP3   OH2 5414   2.380   4.868   0.809 -0.5829  0.2199  0.1550
 1817TIP3    H1 5415   2.327   4.834   0.737  1.5385 -0.5501 -1.1544
 1817TIP3    H2 5416   2.363   4.808   0.881 -0.7328 -0.6308 -0.5668
 1818TIP3   OH2 5417   0.627   4.322   0.155  0.8528  0.4800 -0.2084
 1818TIP3    H1 5418   0.566   4.395   0.155  0.3768  0.0902  0.5428
 1818TIP3    H2 5419   0.707   4.358   0.116  0.1697  1.0033 -1.1660
 1819TIP3   OH2 5420   6.077   3.195   4.416  0.1512 -0.1860 -0.2647
 1819TIP3    H1 5421   6.117   3.207   4.330 -0.5919 -3.1221 -1.1081
 1819TIP3    H2 5422   6.128   3.126   4.458 -0.0084  0.6348  1.3670
 1820TIP3   OH2 5423   6.083   1.437   4.348 -0.6587 -0.3355 -0.4026
 1820TIP3    H1 5424   6.071   1.478   4.434  1.1568 -2.1811  0.8387
 1820TIP3    H2 5425   6.128   1.504   4.296 -1.4953  0.6974  0.1719
 1821TIP3   OH2 5426   5.084   0.967   2.709 -0.2282 -0.0883  0.0443
 1821TIP3    H1 5427   5.079   0.926   2.623  0.4158 -0.0406 -0.0225
 1821TIP3    H2 5428   5.139   0.907   2.761 -1.3926 -0.6123  0.7201
 1822TIP3   OH2 5429   0.107   5.046   4.836  0.3221 -0.3494  0.2164
 1822TIP3    H1 5430   0.134   4.955   4.849  1.2223 -0.2797 -0.9770
 1822TIP3    H2 5431   0.018   5.050   4.869 -0.1484 -1.9594 -0.7380
 1823TIP3   OH2 5432   1.789   6.561   4.356  0.2137 -0.6172  0.2655
 1823TIP3    H1 5433   1.726   6.543   4.426  2.6176 -2.0742  2.2098
 1823TIP3    H2 5434   1.851   6.622   4.395  0.9536 -0.5215 -1.0085
 1824TIP3   OH2 5435   3.889   0.274   3.026 -0.4268 -0.3858 -0.3374
 1824TIP3    H1 5436   3.937   0.340   2.975  1.4621 -0.1119  1.6503
 1824TIP3    H2 5437   3.949   0.199   3.028 -1.7513 -1.5014 -0.9620
 1825TIP3   OH2 5438   3.634   4.807   1.904 -0.1135  0.3790  0.2430
 1825TIP3    H1 5439   3.552   4.832   1.860 -0.7669 -0.7914  0.7565
 1825TIP3    H2 5440   3.614   4.724   1.946  0.6601  1.1423  2.2527
 1826TIP3   OH2 5441   5.622   6.016   1.573  0.3584 -0.3532 -0.4102
 1826TIP3    H1 5442   5.596   6.108   1.582  1.9395  0.0497  0.3193
 1826TIP3    H2 5443   5.599   5.994   1.482 -0.9003  0.4512 -0.3218
 1827TIP3   OH2 5444   5.692   5.723   4.409 -0.1830 -0.3016  0.0589
 1827TIP3    H1 5445   5.612   5.723   4.358 -0.5507 -0.9481  0.6085
 1827TIP3    H2 5446   5.694   5.809   4.452 -1.2532 -0.7484  1.0421
 1828TIP3   OH2 5447   1.149   2.913   4.631  0.8359 -0.1486  0.4963
 1828TIP3    H1 5448   1.212   2.962   4.577  0.0203  2.3266  1.6221
 1828TIP3    H2 5449   1.183   2.922   4.720  0.3649 -1.2237  0.7899
 1829TIP3   OH2 5450   2.530   5.729   2.578 -0.6055 -0.2334 -0.0351
 1829TIP3    H1 5451   2.448   5.747   2.532 -0.1870 -0.3156 -0.8421
 1829TIP3    H2 5452   2.518   5.643   2.617 -1.6408  0.5944  1.5969
 1830TIP3   OH2 5453   3.365   3.450   2.922  0.0037 -0.1740  0.3306
 1830TIP3    H1 5454   3.454   3.426   2.896  0.0349  0.6632 -0.3758
 1830TIP3    H2 5455   3.329   3.369   2.959  0.4058 -1.0880 -1.1480
 1831TIP3   OH2 5456   1.716   1.747   2.720  0.2140 -0.3940  0.0925
 1831TIP3    H1 5457   1.718   1.701   2.636  1.3435  0.3012 -0.2879
 1831TIP3    H2 5458   1.806   1.739   2.754  0.4665  1.5088 -0.0052
 1832TIP3   OH2 5459   3.994   5.626   0.765 -0.4196 -0.3828  0.6332
 1832TIP3    H1 5460   3.916   5.571   0.768 -0.6560 -0.0226  1.3886
 1832TIP3    H2 5461   3.966   5.709   0.803  0.3503 -0.2788  1.0053
 1833TIP3   OH2 5462   3.289   1.801   0.712 -0.5614  0.1503  0.2129
 1833TIP3    H1 5463   3.255   1.890   0.707 -1.1113 -0.0116  0.9895
 1833TIP3    H2 5464   3.322   1.783   0.623 -0.2424  1.1954  0.1035
 1834TIP3   OH2 5465   5.464   2.249   4.354  0.1919 -0.3993  0.3312
 1834TIP3    H1 5466   5.496   2.337   4.374  1.0098 -0.9428  1.5260
 1834TIP3    H2 5467   5.461   2.245   4.258 -1.5961  1.5243  0.2560
 1835TIP3   OH2 5468   6.298   0.949   0.669 -0.1615 -0.3185  0.3139
 1835TIP3    H1 5469   6.346   0.934   0.750  1.3042 -3.1758 -0.9290
 1835TIP3    H2 5470   6.367   0.956   0.602 -1.3321  1.7897 -0.7668
 1836TIP3   OH2 5471   0.290   4.967   0.499 -0.2249 -0.1991  0.5126
 1836TIP3    H1 5472   0.350   4.894   0.516 -1.7585 -2.0808 -1.4861
 1836TIP3    H2 5473   0.346   5.035   0.462  0.8956 -1.3813 -0.0787
 1837TIP3   OH2 5474   2.667   6.799   0.114 -0.2785 -0.3120 -0.2012
 1837TIP3    H1 5475   2.753   6.810   0.074 -0.8898 -1.3178 -1.8980
 1837TIP3    H2 5476   2.686   6.778   0.206  1.2258  0.6458 -0.2575
 1838TIP3   OH2 5477   1.589   1.383   4.252  0.0218 -0.4478 -0.3611
 1838TIP3    H1 5478   1.573   1.289   4.261 -0.7472 -0.2509  0.6267
 1838TIP3    H2 5479   1.674   1.397   4.293 -1.1438 -0.3433  2.2762
 1839TIP3   OH2 5480   4.802   3.495   1.227  0.1490 -0.2107 -0.4271
 1839TIP3    H1 5481   4.802   3.554   1.151 -0.4471  0.3690  0.0026
 1839TIP3    H2 5482   4.752   3.419   1.199 -2.3867  1.1153  0.1592
 1840TIP3   OH2 5483   5.841   5.027   1.840 -0.3325  0.2848 -0.0096
 1840TIP3    H1 5484   5.781   4.960   1.872 -1.0155  0.4727 -0.8546
 1840TIP3    H2 5485   5.789   5.108   1.839 -0.1374  0.4131 -0.9275
 1841TIP3   OH2 5486   1.019   0.817   5.387  0.1811 -0.2280 -0.8861
 1841TIP3    H1 5487   0.925   0.827   5.405 -0.0318 -0.8781 -1.6244
 1841TIP3    H2 5488   1.027   0.832   5.293  0.9485  0.6493 -0.7010
 1842TIP3   OH2 5489   4.740   3.149   0.244 -0.1804  0.3023  0.0360
 1842TIP3    H1 5490   4.669   3.214   0.248  0.3034  0.8295  0.1818
 1842TIP3    H2 5491   4.703   3.076   0.194 -1.3786 -0.1291  1.4910
 1843TIP3   OH2 5492   0.539   2.478   1.150  1.0051  0.4810 -0.1187
 1843TIP3    H1 5493   0.449   2.511   1.152  1.1199  0.8530 -0.7530
 1843TIP3    H2 5494   0.530   2.384   1.163  0.4693  0.4413 -0.7268
 1844TIP3   OH2 5495   5.987   4.623   0.632  0.0898  0.8408 -0.0100
 1844TIP3    H1 5496   6.026   4.536   0.639 -0.4427  0.5436 -0.7129
 1844TIP3    H2 5497   5.909   4.618   0.688 -1.3097  0.0698 -1.9140
 1845TIP3   OH2 5498   1.079   1.927   5.611 -0.9512  0.1312  0.4344
 1845TIP3    H1 5499   1.013   1.859   5.604 -1.3143  0.5568 -0.5423
 1845TIP3    H2 5500   1.094   1.955   5.520 -0.5143  1.0575  0.7744
 1846TIP3   OH2 5501   2.062   4.544   0.914 -1.0404 -0.5017  0.3502
 1846TIP3    H1 5502   2.032   4.506   0.831 -1.5097 -1.9317  1.1342
 1846TIP3    H2 5503   2.019   4.629   0.919 -0.0602  0.1302 -1.4161
 1847TIP3   OH2 5504   4.708   1.590   3.794  0.4733 -0.0855  0.3731
 1847TIP3    H1 5505   4.743   1.543   3.870  1.8727 -0.3951 -0.4345
 1847TIP3    H2 5506   4.784   1.603   3.737  0.0136  2.5273  0.2312
 1848TIP3   OH2 5507   0.888   0.761   2.097 -0.1331 -0.1882 -0.0413
 1848TIP3    H1 5508   0.799   0.770   2.129  0.3548  0.2302  1.2670
 1848TIP3    H2 5509   0.931   0.843   2.123  1.0166 -0.9842  0.6481
 1849TIP3   OH2 5510   4.858   3.841   1.254 -0.1182 -0.3355 -0.3457
 1849TIP3    H1 5511   4.837   3.835   1.348 -1.6329 -0.9889 -0.6987
 1849TIP3    H2 5512   4.907   3.922   1.246 -1.0415  0.3775  0.8464
 1850TIP3   OH2 5513   3.115   1.170   4.202  0.1845  0.1412 -0.2726
 1850TIP3    H1 5514   3.142   1.258   4.225 -0.7438  0.4733 -0.4089
 1850TIP3    H2 5515   3.180   1.113   4.243 -0.3418  0.7983  1.5727
 1851TIP3   OH2 5516   5.936   4.575   2.834 -0.5110 -0.2460 -0.3373
 1851TIP3    H1 5517   5.927   4.545   2.744 -1.1381  0.1644 -0.4172
 1851TIP3    H2 5518   5.927   4.670   2.828  0.7304 -0.0929  0.0003
 1852TIP3   OH2 5519   3.540   0.945   5.271 -0.0720  0.1265 -0.4921
 1852TIP3    H1 5520   3.532   0.876   5.204  0.6250 -1.5681  1.0987
 1852TIP3    H2 5521   3.453   0.984   5.274 -0.9842 -1.7903 -0.3230
 1853TIP3   OH2 5522   3.565   5.707   1.115 -0.2757  0.6426 -0.1535
 1853TIP3    H1 5523   3.598   5.751   1.193 -2.3414  1.8971  0.1114
 1853TIP3    H2 5524   3.546   5.778   1.054 -1.7458 -0.0089 -0.5108
 1854TIP3   OH2 5525   1.345   0.062   0.154 -0.4609 -0.0130  0.2248
 1854TIP3    H1 5526   1.344  -0.031   0.132 -1.2665 -0.0635  0.4585
 1854TIP3    H2 5527   1.367   0.064   0.247 -1.1735 -0.0165  0.4004
 1855TIP3   OH2 5528   0.251   1.770   3.849  0.2973  0.1682 -0.0710
 1855TIP3    H1 5529   0.158   1.771   3.871 -0.1128  0.5824 -1.6774
 1855TIP3    H2 5530   0.281   1.682   3.871  0.1732  0.7393  2.7809
 1856TIP3   OH2 5531   2.228   1.166   1.020  0.1818  0.2131  0.1605
 1856TIP3    H1 5532   2.288   1.234   1.050  1.4330 -0.5780 -0.4523
 1856TIP3    H2 5533   2.262   1.139   0.935  0.6841 -2.2149  1.0284
 1857TIP3   OH2 5534   6.424   4.542   1.799 -0.3002  0.4160 -0.4430
 1857TIP3    H1 5535   6.338   4.541   1.757 -0.9143 -0.1646  0.7899
 1857TIP3    H2 5536   6.481   4.586   1.736 -1.6182  1.3326 -1.0314
 1858TIP3   OH2 5537   1.337   3.613   5.218 -0.0884  0.0486  0.2540
 1858TIP3    H1 5538   1.353   3.577   5.305 -1.9232 -0.5989  0.3690
 1858TIP3    H2 5539   1.288   3.544   5.172 -0.0396  0.7845 -0.9477
 1859TIP3   OH2 5540   2.626   1.810   4.395  0.3819  0.0901 -0.1492
 1859TIP3    H1 5541   2.674   1.827   4.314 -0.5526 -1.4134 -1.0593
 1859TIP3    H2 5542   2.552   1.871   4.393  0.5758  0.3267 -0.2098
 1860TIP3   OH2 5543   0.224   2.563   0.041  0.4119  0.4440 -0.6177
 1860TIP3    H1 5544   0.266   2.543   0.124 -0.3327  3.5558  0.6527
 1860TIP3    H2 5545   0.283   2.527  -0.026  2.7846  0.7692  1.1865
 1861TIP3   OH2 5546   0.908   4.632   1.567 -0.0118  0.1435 -0.2793
 1861TIP3    H1 5547   0.855   4.553   1.554 -0.0617  0.3126 -1.1376
 1861TIP3    H2 5548   0.967   4.609   1.639 -0.4285 -0.4662 -0.1214
 1862TIP3   OH2 5549   0.033   1.604   4.178  0.0178 -0.6857  0.1481
 1862TIP3    H1 5550  -0.036   1.633   4.237  0.4588 -1.0309  0.8612
 1862TIP3    H2 5551   0.042   1.510   4.197 -0.6683 -1.0943 -1.3525
 1863TIP3   OH2 5552   5.802   2.154   5.192 -0.1794  0.0794  0.6246
 1863TIP3    H1 5553   5.736   2.220   5.173 -0.0511 -0.0274 -0.2300
 1863TIP3    H2 5554   5.875   2.175   5.135  0.0014 -0.5939  0.5943
 1864TIP3   OH2 5555   1.593   5.737   2.966  0.0836  0.3829 -0.3398
 1864TIP3    H1 5556   1.595   5.643   2.982  0.8271  0.4386 -0.1043
 1864TIP3    H2 5557   1.528   5.747   2.896 -1.0814 -0.1476  0.6207
 1865TIP3   OH2 5558   6.487   2.943   4.755 -0.2290 -0.2066  0.1554
 1865TIP3    H1 5559   6.496   3.007   4.684  0.6718 -0.8128 -0.3063
 1865TIP3    H2 5560   6.494   2.995   4.835  4.1941  0.0160 -0.1196
 1866TIP3   OH2 5561   4.969   2.868   0.856 -0.2193  0.2534 -0.0309
 1866TIP3    H1 5562   4.888   2.909   0.828 -0.0379 -0.5874 -1.9184
 1866TIP3    H2 5563   5.029   2.878   0.782  0.7741 -0.8218  0.5850
 1867TIP3   OH2 5564   3.538   6.443   3.995  0.6231  0.1867 -0.0398
 1867TIP3    H1 5565   3.597   6.367   3.998 -0.8141 -0.9826 -0.0762
 1867TIP3    H2 5566   3.520   6.462   4.087 -0.5112 -0.7772 -0.0323
 1868TIP3   OH2 5567   4.233   0.258   0.493  0.4542 -0.0887  0.0182
 1868TIP3    H1 5568   4.252   0.203   0.418 -1.5029  0.1263 -0.6971
 1868TIP3    H2 5569   4.154   0.219   0.532  0.2430  0.9930  0.7233
 1869TIP3   OH2 5570   0.256   2.107   1.888  0.1427  0.2279  0.0930
 1869TIP3    H1 5571   0.307   2.026   1.891  0.6885  0.5849  0.7133
 1869TIP3    H2 5572   0.271   2.148   1.973 -0.3413  0.8543 -0.1168
 1870TIP3   OH2 5573   5.951   5.912   5.682  0.3636 -0.3050  0.3529
 1870TIP3    H1 5574   5.974   5.884   5.594  0.9513  0.2356  0.3345
 1870TIP3    H2 5575   5.987   5.844   5.739 -1.4169 -1.5299  0.1116
 1871TIP3   OH2 5576   5.584   4.010   2.195 -0.7807  0.4231  0.2991
 1871TIP3    H1 5577   5.679   4.005   2.210 -0.4120 -0.3067 -1.9299
 1871TIP3    H2 5578   5.570   4.101   2.167 -0.5384  0.2293 -0.4732
 1872TIP3   OH2 5579   0.525   0.252   4.778 -0.1473 -0.0028  0.3307
 1872TIP3    H1 5580   0.559   0.318   4.838  0.0216 -0.1144  0.3586
 1872TIP3    H2 5581   0.485   0.302   4.707  0.2009  0.1333  0.2278
 1873TIP3   OH2 5582   3.521   1.748   2.794  0.2261  0.5205  0.8567
 1873TIP3    H1 5583   3.497   1.790   2.711 -0.3974  0.5756  1.0614
 1873TIP3    H2 5584   3.597   1.797   2.824  0.4011  0.5588  0.3612
 1874TIP3   OH2 5585   4.643   5.092   0.536  0.4556 -0.6034 -0.3746
 1874TIP3    H1 5586   4.664   5.156   0.604 -0.5182 -0.7548  0.0888
 1874TIP3    H2 5587   4.711   5.025   0.543  2.0519  0.8135 -1.4898
 1875TIP3   OH2 5588   3.243   6.817   1.375  0.3901 -0.4752  0.4168
 1875TIP3    H1 5589   3.175   6.771   1.327 -1.2694 -1.1835  3.2286
 1875TIP3    H2 5590   3.325   6.787   1.336 -0.8191 -1.3412 -1.5791
 1876TIP3   OH2 5591   6.680   4.821   4.319 -0.3708 -0.2994 -0.0828
 1876TIP3    H1 5592   6.602   4.776   4.286 -1.9309  1.0706  1.4760
 1876TIP3    H2 5593   6.673   4.910   4.285  0.5056 -0.1579  0.0870
 1877TIP3   OH2 5594   6.436   0.163   5.415  0.6245  0.2330  0.1454
 1877TIP3    H1 5595   6.476   0.168   5.502 -1.2837  0.9978  1.0229
 1877TIP3    H2 5596   6.368   0.096   5.424 -0.1992  0.9683 -0.4867
 1878TIP3   OH2 5597   2.474   2.371   3.721 -0.4795 -0.6094  0.6483
 1878TIP3    H1 5598   2.561   2.379   3.680 -0.5051 -0.2909  0.6539
 1878TIP3    H2 5599   2.492   2.352   3.813 -0.4140 -0.4177  0.6753
 1879TIP3   OH2 5600   2.243   2.870   1.459 -0.1876  0.1579  0.6460
 1879TIP3    H1 5601   2.304   2.914   1.518 -0.1320 -0.4874  1.0878
 1879TIP3    H2 5602   2.281   2.783   1.446  0.3412  0.6016 -1.1780
 1880TIP3   OH2 5603   5.426   2.790   0.908  0.1548  1.2214  0.0520
 1880TIP3    H1 5604   5.421   2.868   0.852 -0.4592  2.1309  1.3304
 1880TIP3    H2 5605   5.334   2.766   0.923  0.3395  0.3411 -0.1850
 1881TIP3   OH2 5606   4.208   3.671   2.987 -0.4896 -0.1399  0.2444
 1881TIP3    H1 5607   4.170   3.689   3.073  1.8669 -1.2393  1.6178
 1881TIP3    H2 5608   4.183   3.581   2.967  0.3614 -0.4622  0.5973
 1882TIP3   OH2 5609   5.852   2.850   4.821  0.0552 -0.3558 -0.3998
 1882TIP3    H1 5610   5.925   2.806   4.865 -0.4430  0.2189  1.0553
 1882TIP3    H2 5611   5.806   2.896   4.891  0.3762  2.2677 -1.7975
 1883TIP3   OH2 5612   0.102   2.570   4.968  0.2078  0.5352 -0.3724
 1883TIP3    H1 5613   0.104   2.647   5.025  0.2114 -0.2079  0.6689
 1883TIP3    H2 5614   0.036   2.513   5.008  0.5900 -0.2339 -0.8150
 1884TIP3   OH2 5615   2.032   3.582   1.227  0.0150 -0.0952  0.2789
 1884TIP3    H1 5616   2.099   3.627   1.175  0.9204 -1.0200  0.6295
 1884TIP3    H2 5617   1.950   3.603   1.182  0.6712 -0.0158 -0.9169
 1885TIP3   OH2 5618   7.039   1.049   5.022 -0.0341  0.0499  0.1198
 1885TIP3    H1 5619   7.093   1.108   4.970 -2.3313  1.0571 -1.2526
 1885TIP3    H2 5620   6.999   1.105   5.088 -0.0042 -0.5444  0.6551
 1886TIP3   OH2 5621   4.555   1.929   2.064 -0.0955  0.2801  0.8284
 1886TIP3    H1 5622   4.466   1.916   2.033  0.3473  0.1127 -0.4247
 1886TIP3    H2 5623   4.593   1.841   2.066  0.8875  0.5971 -1.3845
 1887TIP3   OH2 5624   5.469   6.686   1.181 -0.1750 -0.2148 -0.0541
 1887TIP3    H1 5625   5.500   6.742   1.110 -0.0644  2.1446  1.7223
 1887TIP3    H2 5626   5.548   6.653   1.223 -0.2327 -1.1845 -0.6868
 1888TIP3   OH2 5627   5.091   6.213   5.107 -0.3769  0.0711  0.1988
 1888TIP3    H1 5628   5.134   6.229   5.191 -1.1491  1.1594  0.4107
 1888TIP3    H2 5629   5.141   6.265   5.045  0.4559 -1.0677 -0.1157
 1889TIP3   OH2 5630   6.722   2.458   2.653 -0.4483 -0.1079 -0.0410
 1889TIP3    H1 5631   6.737   2.512   2.575 -0.6709  0.4769  0.3155
 1889TIP3    H2 5632   6.659   2.392   2.625 -0.9635  0.4440 -0.2122
 1890TIP3   OH2 5633   4.118   1.391   3.615  0.0594  0.2941 -0.3288
 1890TIP3    H1 5634   4.161   1.477   3.615  0.8530  0.1847  4.9318
 1890TIP3    H2 5635   4.024   1.411   3.620  0.2461  0.9285  1.0214
 1891TIP3   OH2 5636   0.221   3.782   2.836  0.0841 -0.1078 -0.2068
 1891TIP3    H1 5637   0.203   3.854   2.775  1.7613  0.6752  0.1805
 1891TIP3    H2 5638   0.272   3.822   2.906  1.7109 -1.7982 -0.3608
 1892TIP3   OH2 5639   2.597   0.679   1.644 -0.1355  0.3148  0.5029
 1892TIP3    H1 5640   2.621   0.770   1.661  0.6823  0.3033 -0.5436
 1892TIP3    H2 5641   2.503   0.676   1.662  0.2810  0.7017  3.2123
 1893TIP3   OH2 5642   1.919   0.860   2.399  0.5469 -0.6745 -0.1358
 1893TIP3    H1 5643   1.831   0.867   2.361  0.7799  1.8755 -0.3730
 1893TIP3    H2 5644   1.903   0.837   2.491 -0.3165 -0.8197 -0.3087
 1894TIP3   OH2 5645   0.987   3.206   4.242  0.9151 -0.0377 -0.6605
 1894TIP3    H1 5646   0.930   3.250   4.306  0.6500 -0.1975 -0.7814
 1894TIP3    H2 5647   0.963   3.114   4.250  4.0535 -0.7788  2.2790
 1895TIP3   OH2 5648   7.151   1.745   3.102 -0.7110  0.0370  0.0601
 1895TIP3    H1 5649   7.079   1.791   3.146 -0.5208 -0.5448  1.0244
 1895TIP3    H2 5650   7.112   1.709   3.022 -1.2139  0.6601  0.0213
 1896TIP3   OH2 5651   3.029   0.774   4.620  0.0165  0.0282  0.2632
 1896TIP3    H1 5652   3.013   0.813   4.706 -0.1807  0.7760 -0.0934
 1896TIP3    H2 5653   2.943   0.778   4.577  0.3927  0.9019 -0.4398
 1897TIP3   OH2 5654   6.176   5.813   4.246 -0.9198  0.2915 -0.1053
 1897TIP3    H1 5655   6.271   5.814   4.248 -0.9236  0.5388 -0.0519
 1897TIP3    H2 5656   6.154   5.767   4.164 -0.7607 -1.2663  0.6747
 1898TIP3   OH2 5657   5.501   5.617   1.224 -0.2997 -0.0484  0.1787
 1898TIP3    H1 5658   5.408   5.628   1.207 -0.3460 -1.2033 -0.4416
 1898TIP3    H2 5659   5.507   5.599   1.318 -0.6044  0.8764  0.3856
 1899TIP3   OH2 5660   3.574   3.591   5.662 -0.7029  0.0294  0.3641
 1899TIP3    H1 5661   3.496   3.617   5.613 -0.2173  0.9576  0.0366
 1899TIP3    H2 5662   3.563   3.498   5.680 -1.2128 -0.1802 -0.9321
 1900TIP3   OH2 5663   0.045   0.639   4.354  0.4373  0.3918  0.2509
 1900TIP3    H1 5664  -0.046   0.661   4.335  0.6512  0.6531 -0.5491
 1900TIP3    H2 5665   0.050   0.633   4.449 -0.2827  0.9652  0.3290
 1901TIP3   OH2 5666   3.160   3.327   3.752 -0.5543 -0.1376  0.0975
 1901TIP3    H1 5667   3.160   3.233   3.768  0.6552 -0.5653 -2.0126
 1901TIP3    H2 5668   3.069   3.349   3.735 -0.6231 -1.3501 -1.2978
 1902TIP3   OH2 5669   6.069   5.320   0.045 -0.2555 -0.2879  0.3729
 1902TIP3    H1 5670   6.006   5.257   0.011 -1.2505  1.0114 -0.2830
 1902TIP3    H2 5671   6.029   5.352   0.126 -0.4268  0.4892 -0.0077
 1903TIP3   OH2 5672   2.181   3.487   0.842 -0.2223 -0.3569 -0.2729
 1903TIP3    H1 5673   2.260   3.477   0.788 -0.4199 -0.5881 -0.5201
 1903TIP3    H2 5674   2.155   3.398   0.864 -0.9901 -0.3378 -1.0326
 1904TIP3   OH2 5675   0.588   3.983   3.402 -0.1229 -0.1266  0.4560
 1904TIP3    H1 5676   0.532   4.046   3.357 -1.1147 -0.2791  1.4161
 1904TIP3    H2 5677   0.605   3.915   3.337  1.0579  1.1507 -0.6342
 1905TIP3   OH2 5678   4.661   5.961   0.174  0.2638 -0.2349  0.4657
 1905TIP3    H1 5679   4.672   6.055   0.161 -0.7627 -0.4137 -2.5072
 1905TIP3    H2 5680   4.579   5.940   0.129  0.1722 -2.4914  1.5246
 1906TIP3   OH2 5681   2.706   5.024   3.093  0.1430  0.3566 -0.0763
 1906TIP3    H1 5682   2.747   4.943   3.062 -1.2598 -0.0570 -0.9372
 1906TIP3    H2 5683   2.759   5.050   3.169  0.1365 -1.8119  0.7358
 1907TIP3   OH2 5684   4.660   1.684   5.132  0.0551 -0.1898 -0.1794
 1907TIP3    H1 5685   4.719   1.752   5.165 -0.3484  0.4038 -0.6453
 1907TIP3    H2 5686   4.573   1.710   5.162 -0.4238  0.7255 -2.1629
 1908TIP3   OH2 5687   3.855   1.019   4.535  0.3702  0.4610 -0.1736
 1908TIP3    H1 5688   3.760   1.022   4.551  0.4492  0.0325  0.3591
 1908TIP3    H2 5689   3.865   0.959   4.461  0.3362 -0.5172  0.6061
 1909TIP3   OH2 5690   3.889   2.060   0.562  0.2397 -0.3120  0.0316
 1909TIP3    H1 5691   3.926   1.975   0.536  1.2248 -0.6756  2.3027
 1909TIP3    H2 5692   3.965   2.109   0.594 -0.4337  1.1976 -0.6030
 1910TIP3   OH2 5693   4.371   0.130   4.508 -0.1181 -0.2710  0.1793
 1910TIP3    H1 5694   4.461   0.153   4.530 -0.4563  0.8617  0.4543
 1910TIP3    H2 5695   4.320   0.208   4.531 -0.6390  0.8559 -3.9773
 1911TIP3   OH2 5696   5.290   3.968   4.268  0.0708 -0.0249 -0.0604
 1911TIP3    H1 5697   5.269   3.992   4.178 -1.1296  1.0464  0.4735
 1911TIP3    H2 5698   5.219   3.910   4.296  1.1601 -1.4884 -0.2179
 1912TIP3   OH2 5699   1.462   2.693   5.318  0.1811  0.3495 -0.2822
 1912TIP3    H1 5700   1.524   2.760   5.348 -1.4423  1.8103 -0.0636
 1912TIP3    H2 5701   1.444   2.641   5.396 -0.2911  1.0925  0.1127
 1913TIP3   OH2 5702   1.996   5.108   5.801 -0.0073  0.4618 -0.2820
 1913TIP3    H1 5703   2.054   5.089   5.726  0.0357  1.1062 -0.4220
 1913TIP3    H2 5704   1.999   5.203   5.809 -2.6335  0.7524 -1.5816
 1914TIP3   OH2 5705   3.502   3.724   1.517  0.6247 -0.1833 -0.5672
 1914TIP3    H1 5706   3.419   3.688   1.550  0.1511 -0.3599 -1.8968
 1914TIP3    H2 5707   3.492   3.819   1.528  0.9810 -0.2884  0.8955
 1915TIP3   OH2 5708   5.304   3.396   3.678 -0.3835  0.8395  0.3351
 1915TIP3    H1 5709   5.339   3.482   3.651  3.5010 -0.8401 -0.6747
 1915TIP3    H2 5710   5.360   3.333   3.633 -2.2260 -2.2778  2.1168
 1916TIP3   OH2 5711   6.800   1.521   3.190  0.1904 -0.3655  0.2820
 1916TIP3    H1 5712   6.857   1.472   3.249  0.3747  0.3722  0.7244
 1916TIP3    H2 5713   6.853   1.535   3.111  1.1002  1.3518  1.1314
 1917TIP3   OH2 5714   1.056   0.422   2.977  0.3577 -0.6836  0.6003
 1917TIP3    H1 5715   1.012   0.424   3.062  0.4434  0.8432  0.6350
 1917TIP3    H2 5716   0.985   0.420   2.913  0.2091  0.9253  0.6759
 1918TIP3   OH2 5717   6.904   5.579   2.454  0.2377  0.5827  0.3067
 1918TIP3    H1 5718   6.877   5.657   2.503  0.1030  1.2956 -0.8439
 1918TIP3    H2 5719   6.826   5.555   2.404  0.1437 -0.5738  0.9896
 1919TIP3   OH2 5720   3.764   3.141   1.389  0.0784  0.4721 -0.4442
 1919TIP3    H1 5721   3.697   3.173   1.329  1.6246  1.5616 -1.6884
 1919TIP3    H2 5722   3.721   3.136   1.474 -1.9770 -0.3855 -1.4636
 1920TIP3   OH2 5723   7.070   4.017   4.073 -0.7083 -0.1047  0.2962
 1920TIP3    H1 5724   7.083   4.059   4.158 -0.7777  0.1526  0.1815
 1920TIP3    H2 5725   7.159   4.005   4.039 -0.7134  0.9131 -0.1289
 1921TIP3   OH2 5726   2.025   0.712   0.501 -0.9200  0.0570 -0.3955
 1921TIP3    H1 5727   1.962   0.641   0.514 -0.5193 -0.2184  0.0879
 1921TIP3    H2 5728   1.993   0.783   0.556  0.6706 -1.0415  2.1442
 1922TIP3   OH2 5729   2.365   3.062   3.925  0.5000  0.1852  0.2981
 1922TIP3    H1 5730   2.438   3.050   3.865 -0.3834  1.8350 -1.1793
 1922TIP3    H2 5731   2.306   2.989   3.905  1.5230 -0.9615  1.2670
 1923TIP3   OH2 5732   3.869   5.501   1.760  0.7099 -0.7485 -0.2038
 1923TIP3    H1 5733   3.847   5.509   1.853 -1.0619 -0.5146 -0.5979
 1923TIP3    H2 5734   3.911   5.415   1.752 -1.4109 -1.9091  0.4400
 1924TIP3   OH2 5735   6.214   0.093   2.371  0.6940 -0.0771 -0.0888
 1924TIP3    H1 5736   6.289   0.124   2.321  1.1453 -0.0995  0.5574
 1924TIP3    H2 5737   6.167   0.036   2.311  0.8298  0.4521 -0.7132
 1925TIP3   OH2 5738   2.270   2.604   1.562 -0.0844  0.1945 -0.0401
 1925TIP3    H1 5739   2.334   2.566   1.623  1.2545  0.6463 -1.1055
 1925TIP3    H2 5740   2.230   2.528   1.519 -1.2785 -0.1423  1.5757
 1926TIP3   OH2 5741   3.379   1.942   3.705  0.1564 -0.2177 -0.1547
 1926TIP3    H1 5742   3.401   1.875   3.640  0.6370  1.2641 -1.5795
 1926TIP3    H2 5743   3.286   1.959   3.692  0.0140 -0.6625  0.2681
 1927TIP3   OH2 5744   5.258   1.785   0.620  0.0885  0.4604  0.0730
 1927TIP3    H1 5745   5.292   1.870   0.592 -1.1145  0.8247 -0.2984
 1927TIP3    H2 5746   5.164   1.789   0.603 -0.1465 -0.5686  0.9948
 1928TIP3   OH2 5747   0.704   6.415   1.316 -0.1688  0.7610  0.0250
 1928TIP3    H1 5748   0.747   6.340   1.357 -0.0958  1.0407  0.4554
 1928TIP3    H2 5749   0.613   6.387   1.304 -0.3558  0.9272  1.0046
 1929TIP3   OH2 5750   1.439   0.412   2.540 -0.3253  0.1627  0.2463
 1929TIP3    H1 5751   1.350   0.377   2.545 -0.2758  0.0337  0.2227
 1929TIP3    H2 5752   1.460   0.410   2.447 -0.5062  0.7176  0.1905
 1930TIP3   OH2 5753   7.156   1.186   5.812  0.2986 -0.6388 -0.5973
 1930TIP3    H1 5754   7.109   1.257   5.770 -0.2965  0.9182  2.3996
 1930TIP3    H2 5755   7.091   1.116   5.820 -1.3771  1.0568  2.4147
 1931TIP3   OH2 5756   3.605   6.018   2.561  0.6831  0.1307  0.0921
 1931TIP3    H1 5757   3.598   6.088   2.627 -0.6129  1.5660 -1.4634
 1931TIP3    H2 5758   3.684   6.039   2.512  0.6612  0.1123  0.0493
 1932TIP3   OH2 5759   6.463   2.261   3.255  0.0674 -0.1292  0.4589
 1932TIP3    H1 5760   6.493   2.347   3.223 -0.0235 -0.0948  0.4658
 1932TIP3    H2 5761   6.532   2.234   3.315 -1.0056  1.0406  2.3238
 1933TIP3   OH2 5762   3.676   2.203   1.691  0.3969 -0.0372 -0.3518
 1933TIP3    H1 5763   3.684   2.108   1.702 -0.1597 -0.4167 -2.7552
 1933TIP3    H2 5764   3.748   2.226   1.632 -0.3240  0.7812 -0.9304
 1934TIP3   OH2 5765   6.924   2.437   3.392  0.1570 -0.4162 -0.3071
 1934TIP3    H1 5766   6.911   2.525   3.428  0.2794 -0.2218 -0.7334
 1934TIP3    H2 5767   6.880   2.439   3.307 -0.5950 -1.0410  0.0590
 1935TIP3   OH2 5768   0.235   0.404   4.176  0.0141 -0.0671  0.0819
 1935TIP3    H1 5769   0.306   0.460   4.207 -1.7138  2.1851  0.2837
 1935TIP3    H2 5770   0.161   0.464   4.164 -1.4033 -2.0260 -1.6739
 1936TIP3   OH2 5771   3.050   3.350   4.588  0.2135 -0.0270 -0.1817
 1936TIP3    H1 5772   2.980   3.413   4.569  1.2149  1.1569 -0.0335
 1936TIP3    H2 5773   3.004   3.268   4.602 -1.2429  0.9006  0.7460
 1937TIP3   OH2 5774   0.550   3.812   0.130  0.2524 -0.2389 -0.0133
 1937TIP3    H1 5775   0.564   3.722   0.159  2.9788 -0.3412 -1.3275
 1937TIP3    H2 5776   0.501   3.802   0.048 -1.1118 -0.3564  0.7797
 1938TIP3   OH2 5777   6.968   3.801   0.690 -0.0932 -0.0645  0.4448
 1938TIP3    H1 5778   6.958   3.849   0.772  1.0764  2.4353 -0.7371
 1938TIP3    H2 5779   6.900   3.837   0.633  0.4374 -0.2211 -0.3071
 1939TIP3   OH2 5780   5.318   5.789   2.089  0.5032 -0.3850 -0.0722
 1939TIP3    H1 5781   5.235   5.770   2.133  0.4471 -0.8341 -0.3669
 1939TIP3    H2 5782   5.334   5.712   2.034  0.0652  0.5853 -1.6047
 1940TIP3   OH2 5783   5.964   6.069   0.817 -0.4557 -0.9340  0.3610
 1940TIP3    H1 5784   6.005   6.108   0.895  0.2226 -0.6609 -0.1231
 1940TIP3    H2 5785   5.894   6.014   0.852 -0.1780 -0.7934  1.1640
 1941TIP3   OH2 5786   2.103   2.204   3.342 -0.0717 -0.0619  0.9314
 1941TIP3    H1 5787   2.044   2.173   3.410  1.3654 -2.7509  1.0693
 1941TIP3    H2 5788   2.184   2.225   3.388  0.4097 -0.3709  0.2346
 1942TIP3   OH2 5789   2.898   0.755   5.784 -0.2714  0.0160 -0.3814
 1942TIP3    H1 5790   2.819   0.809   5.789 -0.1663  0.4012 -2.1533
 1942TIP3    H2 5791   2.967   0.816   5.757  0.8860 -0.1117  2.0745
 1943TIP3   OH2 5792   0.359   3.052   4.169 -0.5103 -0.1711 -0.0990
 1943TIP3    H1 5793   0.375   3.140   4.204  1.7835 -1.0806  1.3761
 1943TIP3    H2 5794   0.381   3.059   4.076 -2.1239  1.1822 -0.4389
 1944TIP3   OH2 5795   3.640   3.763   1.286 -0.4772  0.4659  0.1616
 1944TIP3    H1 5796   3.666   3.680   1.247 -1.9476  0.2665 -0.4707
 1944TIP3    H2 5797   3.593   3.738   1.366 -1.1909  0.6573 -0.1901
 1945TIP3   OH2 5798   6.466   0.556   1.885  0.1283  0.0411  0.4557
 1945TIP3    H1 5799   6.513   0.480   1.921 -1.7366 -0.8429  1.1465
 1945TIP3    H2 5800   6.400   0.518   1.827 -0.1596  1.2116 -0.0131
 1946TIP3   OH2 5801   4.191   3.126   3.904 -0.1308  0.4324  0.6273
 1946TIP3    H1 5802   4.113   3.168   3.867 -0.3533  0.4943  1.1588
 1946TIP3    H2 5803   4.253   3.122   3.831 -0.5537  0.5769  0.2567
 1947TIP3   OH2 5804   0.770   3.491   2.100 -0.4032 -0.1513 -0.2931
 1947TIP3    H1 5805   0.752   3.435   2.025 -1.6950  1.2562 -1.1096
 1947TIP3    H2 5806   0.783   3.578   2.061 -2.1725  0.8182  1.1530
 1948TIP3   OH2 5807   4.119   5.128   3.340 -0.0351 -0.5395  0.1355
 1948TIP3    H1 5808   4.149   5.211   3.303 -0.4670  0.0953  1.1570
 1948TIP3    H2 5809   4.199   5.083   3.368  0.1601 -0.1779  0.1577
 1949TIP3   OH2 5810   1.782   2.682   4.877 -0.3748  0.6186  0.1712
 1949TIP3    H1 5811   1.848   2.720   4.935  0.4350 -0.7548  0.1927
 1949TIP3    H2 5812   1.736   2.618   4.931 -0.0164 -0.2382 -0.5184
 1950TIP3   OH2 5813   1.836   3.229   5.669 -0.1424  0.4219  0.7720
 1950TIP3    H1 5814   1.828   3.213   5.575  2.1651  0.4622  0.5226
 1950TIP3    H2 5815   1.858   3.322   5.676  0.4144  0.2604  1.2837
 1951TIP3   OH2 5816   2.264   0.950   3.295  0.2953  0.3414 -0.0154
 1951TIP3    H1 5817   2.303   0.983   3.375 -0.3688 -1.7372  1.2467
 1951TIP3    H2 5818   2.336   0.908   3.248  0.5442  0.9366 -0.1673
 1952TIP3   OH2 5819   4.759   1.681   3.538 -0.4959 -0.0044  0.7971
 1952TIP3    H1 5820   4.771   1.767   3.498 -1.2917 -0.2714 -0.0676
 1952TIP3    H2 5821   4.682   1.645   3.493 -0.6210 -0.8588  1.6718
 1953TIP3   OH2 5822   5.817   6.157   3.338 -0.0484  0.2789 -0.5662
 1953TIP3    H1 5823   5.832   6.069   3.373 -1.4123 -0.2465 -1.2115
 1953TIP3    H2 5824   5.903   6.184   3.304  0.5483 -0.5050  0.2820
 1954TIP3   OH2 5825   6.681   4.909   0.044  0.7538  0.0510 -0.1451
 1954TIP3    H1 5826   6.688   4.814   0.050  0.0735  0.0674  1.3059
 1954TIP3    H2 5827   6.762   4.942   0.082 -0.1962  0.0437  2.0548
 1955TIP3   OH2 5828   0.062   4.422   3.557 -0.3202  0.1422 -0.2668
 1955TIP3    H1 5829   0.080   4.443   3.649  0.6170  0.4957 -0.5216
 1955TIP3    H2 5830   0.148   4.405   3.519 -0.6475  0.5680 -1.2219
 1956TIP3   OH2 5831   1.472   3.799   1.934 -0.0058  0.4217 -0.2752
 1956TIP3    H1 5832   1.520   3.770   2.012  1.4722  0.5835 -1.0919
 1956TIP3    H2 5833   1.469   3.722   1.878 -1.2439  0.2497  0.0088
 1957TIP3   OH2 5834   1.323   4.598   1.360 -0.2511  0.3926  0.2739
 1957TIP3    H1 5835   1.273   4.520   1.384  1.0162 -0.3768  0.5340
 1957TIP3    H2 5836   1.388   4.565   1.297  0.4998  1.1703  0.6268
 1958TIP3   OH2 5837   0.118   5.932   3.557  0.6600  0.0870  0.5153
 1958TIP3    H1 5838   0.127   5.863   3.491 -2.1290  0.0662  0.0388
 1958TIP3    H2 5839   0.208   5.949   3.586  2.0880  0.1243 -3.2717
 1959TIP3   OH2 5840   3.625   6.165   4.334 -0.6524  0.3587 -0.1409
 1959TIP3    H1 5841   3.548   6.223   4.332 -1.3071 -0.4891 -0.2140
 1959TIP3    H2 5842   3.608   6.107   4.409  0.7052  1.1960  0.8591
 1960TIP3   OH2 5843   1.619   4.287   0.448  0.1124 -0.0273  0.5221
 1960TIP3    H1 5844   1.594   4.256   0.535 -0.4985  0.2430  0.4470
 1960TIP3    H2 5845   1.593   4.379   0.447 -2.0503 -0.6057 -0.7480
 1961TIP3   OH2 5846   0.318   4.352   0.731  0.2653  0.4815 -0.3806
 1961TIP3    H1 5847   0.265   4.397   0.665  0.9567  0.8480 -0.6889
 1961TIP3    H2 5848   0.361   4.281   0.684 -1.7252 -1.3183  0.3261
 1962TIP3   OH2 5849   0.376   4.830   4.156 -0.0789 -0.3081  0.1926
 1962TIP3    H1 5850   0.368   4.907   4.212 -0.2811 -0.4870  0.4089
 1962TIP3    H2 5851   0.402   4.865   4.071 -1.6301  0.1550 -0.1258
 1963TIP3   OH2 5852   3.807   5.782   5.648 -0.1263 -0.1612  0.1790
 1963TIP3    H1 5853   3.843   5.871   5.640  1.5369 -0.7942  0.1606
 1963TIP3    H2 5854   3.717   5.790   5.618  0.2600  1.3535 -0.7205
 1964TIP3   OH2 5855   0.720   4.105   3.017 -0.0654 -0.0482 -0.3278
 1964TIP3    H1 5856   0.717   4.113   3.112 -0.3991  1.2754 -0.4186
 1964TIP3    H2 5857   0.644   4.155   2.987 -0.9284 -1.8474 -1.2352
 1965TIP3   OH2 5858   6.386   3.206   0.442  0.1598 -0.2818  0.4537
 1965TIP3    H1 5859   6.349   3.202   0.354  2.3682 -1.7248 -0.5061
 1965TIP3    H2 5860   6.408   3.298   0.455 -0.6197  0.0189 -0.3019
 1966TIP3   OH2 5861   2.615   0.189   0.745 -0.1616  0.7429 -0.0259
 1966TIP3    H1 5862   2.590   0.103   0.710 -0.6614  0.3767  1.1615
 1966TIP3    H2 5863   2.558   0.201   0.822  0.7340  1.6032  0.5276
 1967TIP3   OH2 5864   4.392   0.948   3.966  1.0678  0.7413 -0.5023
 1967TIP3    H1 5865   4.298   0.955   3.949  0.8799 -0.6683 -0.1403
 1967TIP3    H2 5866   4.402   0.976   4.058  1.2891  2.6830 -1.0670
 1968TIP3   OH2 5867   7.081   5.039   5.419 -0.7479  0.1480 -0.0687
 1968TIP3    H1 5868   7.103   4.959   5.372 -0.3254  0.1373  0.1404
 1968TIP3    H2 5869   6.988   5.053   5.402 -0.9564 -0.6900  0.3608
 1969TIP3   OH2 5870   4.028   4.124   1.523 -0.2271  0.1987 -0.0303
 1969TIP3    H1 5871   4.064   4.123   1.434 -0.3610 -2.3810 -0.1143
 1969TIP3    H2 5872   3.933   4.129   1.510 -0.2312  0.1658 -0.0101
 1970TIP3   OH2 5873   6.531   1.704  -0.013 -0.3107  0.1838  0.3156
 1970TIP3    H1 5874   6.621   1.735  -0.023  0.3606 -1.8938 -0.6188
 1970TIP3    H2 5875   6.518   1.698   0.082  0.3279  1.0720  0.4652
 1971TIP3   OH2 5876   6.101   5.030   3.573  0.1393  0.1047  0.3038
 1971TIP3    H1 5877   6.122   5.042   3.481 -1.2449 -0.0092 -0.0529
 1971TIP3    H2 5878   6.087   5.119   3.606  1.8707  0.2461  0.7483
 1972TIP3   OH2 5879   5.471   4.994   0.394  0.0676 -0.2153 -0.3038
 1972TIP3    H1 5880   5.458   5.088   0.389 -0.7637 -0.2840  0.3791
 1972TIP3    H2 5881   5.391   4.960   0.433  1.2952 -0.9357  1.7897
 1973TIP3   OH2 5882   5.340   0.120   3.842 -0.1733  0.3218 -0.4270
 1973TIP3    H1 5883   5.257   0.168   3.838  0.0225  0.7407  0.4638
 1973TIP3    H2 5884   5.324   0.041   3.790 -0.6074  1.1768 -1.6286
 1974TIP3   OH2 5885   5.931   0.483   1.082  0.6717  0.3135  0.5475
 1974TIP3    H1 5886   6.003   0.534   1.119  1.5623  0.7395 -1.5938
 1974TIP3    H2 5887   5.912   0.526   0.999 -1.3400 -0.4587  0.5664
 1975TIP3   OH2 5888   2.182   0.246   4.741 -0.5261 -0.0966  0.3821
 1975TIP3    H1 5889   2.165   0.228   4.649 -0.0697 -0.3856  0.3546
 1975TIP3    H2 5890   2.277   0.255   4.747 -0.4891 -0.8194  0.9525
 1976TIP3   OH2 5891   6.750   0.301   1.029  0.3916 -0.2721  0.1565
 1976TIP3    H1 5892   6.807   0.298   1.106  0.2603  0.2885  0.2787
 1976TIP3    H2 5893   6.733   0.394   1.016 -1.7904 -0.4942  1.0678
 1977TIP3   OH2 5894   3.806   6.481   5.661 -0.3550 -0.2158  0.2426
 1977TIP3    H1 5895   3.715   6.455   5.645 -0.7003  1.0262  0.0735
 1977TIP3    H2 5896   3.838   6.507   5.574  0.2989 -1.0415  0.2296
 1978TIP3   OH2 5897   1.415   6.804   3.146 -0.5237 -0.3130  0.3242
 1978TIP3    H1 5898   1.474   6.738   3.111  0.8310  0.7297  0.5401
 1978TIP3    H2 5899   1.388   6.855   3.070  0.9883  0.8345  0.5103
 1979TIP3   OH2 5900   6.564   6.565   3.071  0.4583 -0.2301  0.2354
 1979TIP3    H1 5901   6.629   6.605   3.012 -0.4853 -0.5071 -1.0424
 1979TIP3    H2 5902   6.529   6.639   3.120  1.3791 -0.0112  0.5983
 1980TIP3   OH2 5903   4.320   4.099   3.787 -0.1552 -0.6436 -0.1116
 1980TIP3    H1 5904   4.256   4.084   3.718 -1.5573  1.4619  0.6270
 1980TIP3    H2 5905   4.326   4.015   3.833 -3.5779 -0.5928  0.7156
 1981TIP3   OH2 5906   6.860   1.464   4.350 -0.3557 -0.2115 -0.0494
 1981TIP3    H1 5907   6.892   1.382   4.313  1.8190  0.9866 -1.0441
 1981TIP3    H2 5908   6.773   1.476   4.311  0.0273 -1.1761 -1.2651
 1982TIP3   OH2 5909   4.286   3.840   2.144  0.1455  0.6880 -0.6424
 1982TIP3    H1 5910   4.191   3.836   2.127  0.2580 -0.6784 -1.0965
 1982TIP3    H2 5911   4.320   3.896   2.075 -0.0206 -0.9801 -2.1435
 1983TIP3   OH2 5912   6.928   1.038   2.968  0.0599  0.0583 -0.1582
 1983TIP3    H1 5913   6.990   0.976   2.931  0.0862 -1.5944  2.4593
 1983TIP3    H2 5914   6.925   1.110   2.904  0.7519 -2.1418 -2.8242
 1984TIP3   OH2 5915   3.075   4.826   3.150  0.1104  0.0739 -0.0077
 1984TIP3    H1 5916   3.076   4.867   3.237  0.2781 -0.3913  0.2146
 1984TIP3    H2 5917   2.984   4.801   3.137 -0.2442  1.6463 -0.6919
 1985TIP3   OH2 5918   7.108   5.446   3.730  0.3971  0.1835  0.7576
 1985TIP3    H1 5919   7.062   5.515   3.682  0.8470  1.1636  1.6750
 1985TIP3    H2 5920   7.072   5.450   3.818 -0.8881 -2.0258  0.4007
 1986TIP3   OH2 5921   6.967   0.249   2.788 -0.1112 -0.1006  0.1349
 1986TIP3    H1 5922   6.898   0.313   2.807 -0.8430 -0.9045  0.2514
 1986TIP3    H2 5923   7.003   0.226   2.873 -0.3505 -0.3774  0.1654
 1987TIP3   OH2 5924   5.123   0.915   4.237 -0.4748  0.1311 -0.2825
 1987TIP3    H1 5925   5.213   0.946   4.248 -0.9052  1.0864  0.7745
 1987TIP3    H2 5926   5.132   0.831   4.193  1.0232 -0.4629  1.0450
 1988TIP3   OH2 5927   4.217   2.054   5.770  0.6312 -0.4720  0.4138
 1988TIP3    H1 5928   4.252   1.972   5.735 -1.7533 -0.7682 -1.4984
 1988TIP3    H2 5929   4.168   2.027   5.848 -0.8855 -1.0681 -0.6963
 1989TIP3   OH2 5930   7.019   5.403   4.102 -0.8350 -0.0692  0.3172
 1989TIP3    H1 5931   7.079   5.477   4.097 -2.7835  1.6575  1.0381
 1989TIP3    H2 5932   6.988   5.403   4.193  0.3475 -2.8449  0.8038
 1990TIP3   OH2 5933   5.282   2.244   0.750 -0.4730 -0.3488 -0.0996
 1990TIP3    H1 5934   5.217   2.312   0.767 -1.1375 -1.0977  0.4210
 1990TIP3    H2 5935   5.367   2.287   0.762 -0.8908  0.2831  0.6077
 1991TIP3   OH2 5936   5.244   5.433   5.601  0.1391 -0.6555 -0.3435
 1991TIP3    H1 5937   5.225   5.480   5.520 -0.7149 -1.1582 -0.4416
 1991TIP3    H2 5938   5.317   5.375   5.578 -1.7460 -2.6941 -1.5180
 1992TIP3   OH2 5939   0.040   0.262   0.118  0.5220  0.3775 -0.0408
 1992TIP3    H1 5940  -0.040   0.236   0.072  1.1195 -0.2487 -0.7564
 1992TIP3    H2 5941   0.108   0.204   0.082  1.0862  0.1547  1.3526
 1993TIP3   OH2 5942   1.710   2.612   2.920  0.4480  0.0893 -0.0965
 1993TIP3    H1 5943   1.658   2.624   2.999  0.4458 -1.0267  0.0820
 1993TIP3    H2 5944   1.724   2.701   2.887  0.5573  0.5877  1.2215
 1994TIP3   OH2 5945   1.206   1.853   1.326  0.9978 -0.6776  0.2838
 1994TIP3    H1 5946   1.137   1.898   1.276  1.3043 -0.2662  0.2304
 1994TIP3    H2 5947   1.276   1.917   1.334  1.8013 -1.4337 -0.5425
 1995TIP3   OH2 5948   3.794   1.077   0.768  0.3845 -0.1248  0.1567
 1995TIP3    H1 5949   3.770   1.168   0.748  1.7470  0.0859 -0.6418
 1995TIP3    H2 5950   3.749   1.058   0.850 -1.0271  0.8037 -0.3629
 1996TIP3   OH2 5951   4.273   5.783   4.835  0.1314 -0.1102  0.0688
 1996TIP3    H1 5952   4.307   5.869   4.814 -1.4920  0.5365 -0.0445
 1996TIP3    H2 5953   4.337   5.722   4.798  0.8516  1.0348 -0.6237
 1997TIP3   OH2 5954   6.538   5.853   0.568  0.6455 -0.0840 -0.3042
 1997TIP3    H1 5955   6.454   5.827   0.531  0.5989 -1.0716  0.4597
 1997TIP3    H2 5956   6.533   5.948   0.575 -0.2967 -0.1075 -0.5323
 1998TIP3   OH2 5957   1.171   0.471   2.729 -0.0186 -0.6587 -0.0676
 1998TIP3    H1 5958   1.172   0.408   2.658 -0.3613 -0.0089 -0.6655
 1998TIP3    H2 5959   1.168   0.418   2.809 -0.2046 -1.3876 -0.5493
 1999TIP3   OH2 5960   0.334   0.188   5.465 -0.1686  0.2680  0.2136
 1999TIP3    H1 5961   0.353   0.214   5.375 -0.2883  2.0712  0.6769
 1999TIP3    H2 5962   0.260   0.128   5.458 -0.5284  0.8110 -0.8507
 2000TIP3   OH2 5963   1.433   3.817   3.937 -0.2982 -0.3526 -0.2021
 2000TIP3    H1 5964   1.399   3.867   3.863 -2.1494  1.4679  1.7205
 2000TIP3    H2 5965   1.356   3.795   3.989  0.9739 -1.0443  1.4861
 2001TIP3   OH2 5966   0.586   2.697   0.108 -0.4107 -0.2928  0.4745
 2001TIP3    H1 5967   0.655   2.707   0.042 -0.1024 -0.8392  0.7051
 2001TIP3    H2 5968   0.633   2.688   0.191 -0.7851  0.0134  0.7243
 2002TIP3   OH2 5969   7.201   3.559   4.777  0.0815  0.3051 -0.1758
 2002TIP3    H1 5970   7.157   3.626   4.829 -0.5432 -0.5701  0.4582
 2002TIP3    H2 5971   7.143   3.545   4.702 -0.3361 -0.2542  0.2343
 2003TIP3   OH2 5972   6.991   6.164   5.532 -0.0345 -0.2130  0.2633
 2003TIP3    H1 5973   7.000   6.166   5.437  0.2776  0.5972  0.2996
 2003TIP3    H2 5974   6.912   6.113   5.548 -0.6794  0.5321 -0.4853
 2004TIP3   OH2 5975   3.492   5.515   1.859 -0.3313 -0.3302  0.0117
 2004TIP3    H1 5976   3.492   5.586   1.795  0.4163 -1.7870 -1.6985
 2004TIP3    H2 5977   3.557   5.453   1.826  1.3307 -0.4093  3.1160
 2005TIP3   OH2 5978   0.126   1.520   1.482 -0.4006  0.3822 -0.0472
 2005TIP3    H1 5979   0.092   1.432   1.466 -0.4170  0.5368 -0.8893
 2005TIP3    H2 5980   0.209   1.506   1.527 -0.0024 -0.0920 -0.9156
 2006TIP3   OH2 5981   5.182   2.690   4.657  0.2028  0.9261 -0.7582
 2006TIP3    H1 5982   5.232   2.610   4.677  0.3866  0.7633 -1.8020
 2006TIP3    H2 5983   5.153   2.722   4.742 -0.6806 -0.7776 -0.3558
 2007TIP3   OH2 5984   7.167   0.474   0.477  0.1072 -0.4799 -0.0439
 2007TIP3    H1 5985   7.178   0.391   0.523 -1.2154 -1.2797 -1.0973
 2007TIP3    H2 5986   7.217   0.537   0.529  0.8701 -1.8537  0.9631
 2008TIP3   OH2 5987   6.184   4.048   1.260  0.2148  1.0314  0.0415
 2008TIP3    H1 5988   6.212   4.038   1.351  2.1170 -3.3775 -0.7710
 2008TIP3    H2 5989   6.260   4.084   1.214  0.2159  0.7411 -0.1924
 2009TIP3   OH2 5990   4.150   4.783   5.877  0.2331  0.0736  0.2124
 2009TIP3    H1 5991   4.161   4.830   5.794  0.6258 -0.5946 -0.1192
 2009TIP3    H2 5992   4.213   4.825   5.936  0.8971 -0.3190 -0.2089
 2010TIP3   OH2 5993   1.326   5.238   2.564 -0.0568 -0.3367 -0.7478
 2010TIP3    H1 5994   1.288   5.322   2.541  1.1387  0.2267 -0.7250
 2010TIP3    H2 5995   1.396   5.224   2.499  1.5872  0.0192  0.8581
 2011TIP3   OH2 5996   1.804   3.747   5.862 -0.0310 -0.6314  0.4326
 2011TIP3    H1 5997   1.724   3.799   5.859 -0.0171 -0.6254  0.2020
 2011TIP3    H2 5998   1.774   3.657   5.878 -0.2244 -0.9723 -1.6291
 2012TIP3   OH2 5999   4.742   2.662   1.880  0.0028  0.1852 -0.7007
 2012TIP3    H1 6000   4.699   2.578   1.894 -0.0827  0.2583 -0.5272
 2012TIP3    H2 6001   4.827   2.639   1.841  0.7130 -0.0962  0.9110
 2013TIP3   OH2 6002   2.024   1.989   5.430 -0.2379  0.4917 -0.9481
 2013TIP3    H1 6003   2.029   1.899   5.398  1.1515  1.2521 -3.0921
 2013TIP3    H2 6004   2.115   2.018   5.435 -0.6234  1.6046  0.3160
 2014TIP3   OH2 6005   0.396   3.400   3.719  0.8590 -0.0757  0.4867
 2014TIP3    H1 6006   0.379   3.311   3.688 -0.8496  0.4126 -0.1420
 2014TIP3    H2 6007   0.389   3.454   3.640 -1.2222  0.9332  1.2883
 2015TIP3   OH2 6008   3.324   5.906   3.470 -0.6548  0.0097 -0.1823
 2015TIP3    H1 6009   3.370   5.972   3.418 -0.8201  0.4257  0.1981
 2015TIP3    H2 6010   3.394   5.851   3.506 -0.4021  0.9298  0.7908
 2016TIP3   OH2 6011   0.429   3.473   1.674 -0.0140 -0.8553  0.3030
 2016TIP3    H1 6012   0.420   3.408   1.604 -0.8173 -1.4317  0.9123
 2016TIP3    H2 6013   0.339   3.503   1.689  0.4104  0.7969 -0.3137
 2017TIP3   OH2 6014   2.498   4.502   4.781  0.1901  0.1515 -0.0588
 2017TIP3    H1 6015   2.407   4.472   4.770 -0.1596 -0.2112  3.0214
 2017TIP3    H2 6016   2.543   4.427   4.820  0.9656  1.4183  1.5657
 2018TIP3   OH2 6017   2.648   2.872   4.736  0.5802  0.2594  0.0453
 2018TIP3    H1 6018   2.635   2.891   4.829 -0.5054 -1.4020  0.2733
 2018TIP3    H2 6019   2.643   2.957   4.693  2.5877  1.2796  1.6208
 2019TIP3   OH2 6020   6.587   2.389   2.223 -0.3468 -0.2528 -0.8670
 2019TIP3    H1 6021   6.605   2.476   2.188 -0.6551 -0.6468 -2.0827
 2019TIP3    H2 6022   6.526   2.350   2.160  0.2329 -1.5533 -0.6658
 2020TIP3   OH2 6023   6.343   0.662   5.251 -0.1776  0.2161  0.4517
 2020TIP3    H1 6024   6.395   0.606   5.309  0.5102  0.2296 -0.1468
 2020TIP3    H2 6025   6.256   0.621   5.251 -0.3770  0.5622  1.9643
 2021TIP3   OH2 6026   1.659   5.303   5.500  0.3587 -0.1272  0.4838
 2021TIP3    H1 6027   1.565   5.317   5.495  0.0978 -0.9915  2.2773
 2021TIP3    H2 6028   1.669   5.219   5.543  1.9709 -0.2398 -0.0251
 2022TIP3   OH2 6029   0.683   1.607   5.753  0.4386  0.1352  0.3296
 2022TIP3    H1 6030   0.746   1.676   5.732  0.8575  0.3617  2.1860
 2022TIP3    H2 6031   0.705   1.581   5.842 -0.3879 -1.6804  0.0481
 2023TIP3   OH2 6032   4.858   3.086   1.964 -0.1305  0.4158 -0.1995
 2023TIP3    H1 6033   4.903   3.055   2.043 -0.3788 -0.1174 -0.2637
 2023TIP3    H2 6034   4.788   3.143   1.996  0.6106  1.3022 -0.0991
 2024TIP3   OH2 6035   1.220   5.887   0.767 -0.1858 -0.5279 -0.9455
 2024TIP3    H1 6036   1.234   5.981   0.777  0.9904 -0.4855 -2.4796
 2024TIP3    H2 6037   1.179   5.879   0.680 -2.1119 -1.3195 -0.0139
 2025TIP3   OH2 6038   4.904   6.029   2.535 -0.3817  0.1675  0.1855
 2025TIP3    H1 6039   4.969   6.067   2.595  0.4117  0.3426 -0.7492
 2025TIP3    H2 6040   4.870   6.104   2.486 -1.2040  0.0569  0.5844
 2026TIP3   OH2 6041   4.606   5.391   1.201 -0.0860 -0.7313 -0.4122
 2026TIP3    H1 6042   4.599   5.346   1.116 -0.3527  0.2531 -0.9238
 2026TIP3    H2 6043   4.521   5.434   1.212  0.4346  0.2769 -0.2957
 2027TIP3   OH2 6044   3.968   4.875   4.456  0.2282 -0.0909  0.4708
 2027TIP3    H1 6045   3.902   4.856   4.523  0.2600 -0.0625  0.5107
 2027TIP3    H2 6046   3.966   4.970   4.446  0.9175  0.0093  1.1560
 2028TIP3   OH2 6047   1.114   6.240   5.560  0.2239  0.4704 -0.3065
 2028TIP3    H1 6048   1.034   6.276   5.600  0.6561  0.7325  0.3335
 2028TIP3    H2 6049   1.083   6.195   5.481 -0.4859  1.1056 -0.4025
 2029TIP3   OH2 6050   7.065   5.633   2.022  0.1055  0.3713  0.2580
 2029TIP3    H1 6051   7.038   5.542   2.033 -0.4727  0.4871 -0.1541
 2029TIP3    H2 6052   7.079   5.643   1.928  1.4651  0.3535  0.4448
 2030TIP3   OH2 6053   6.788   5.675   5.152 -0.2974 -0.4107  0.4088
 2030TIP3    H1 6054   6.803   5.589   5.190 -1.2129 -1.2264 -1.0019
 2030TIP3    H2 6055   6.760   5.658   5.062  1.2337  1.4159 -0.5019
 2031TIP3   OH2 6056   1.273   4.863   5.323  0.2733  0.5281  0.2669
 2031TIP3    H1 6057   1.269   4.786   5.267 -0.2736  0.1609  0.7899
 2031TIP3    H2 6058   1.189   4.863   5.370  1.0831  0.2831  1.7836
 2032TIP3   OH2 6059   4.419   6.277   1.918  0.3557  0.9726 -0.3927
 2032TIP3    H1 6060   4.485   6.209   1.907 -0.1978  0.3509  0.0109
 2032TIP3    H2 6061   4.401   6.309   1.830 -2.4909 -2.4159 -1.2534
 2033TIP3   OH2 6062   7.090   5.281   5.906 -0.2737 -0.3819  0.1444
 2033TIP3    H1 6063   7.052   5.250   5.823  0.8804 -0.7290 -0.2805
 2033TIP3    H2 6064   7.179   5.245   5.906 -0.1151 -0.0222  1.3403
 2034TIP3   OH2 6065   5.968   5.126   0.269  0.3982 -0.1656 -0.6044
 2034TIP3    H1 6066   5.971   5.219   0.291 -0.8922  0.0573 -1.2768
 2034TIP3    H2 6067   5.875   5.108   0.255  0.8409 -0.9743 -2.8769
 2035TIP3   OH2 6068   5.188   3.923   5.477 -0.0122  0.1349  0.3319
 2035TIP3    H1 6069   5.097   3.916   5.447  0.4584  0.7483 -1.3633
 2035TIP3    H2 6070   5.213   3.832   5.496 -0.9547 -0.0460  0.7908
 2036TIP3   OH2 6071   3.851   2.053   5.388  0.1456  0.1305 -0.3837
 2036TIP3    H1 6072   3.943   2.029   5.401  0.3251  1.0310  0.0689
 2036TIP3    H2 6073   3.821   1.995   5.318  0.3637 -1.8865  1.1004
 2037TIP3   OH2 6074   1.794   2.780   1.690 -0.3578 -0.0272  1.3286
 2037TIP3    H1 6075   1.815   2.845   1.757  0.0834  0.1447  1.0200
 2037TIP3    H2 6076   1.878   2.744   1.663 -0.6552 -2.3347  3.0704
 2038TIP3   OH2 6077   4.525   5.725   1.304 -0.1524  0.0015 -0.2596
 2038TIP3    H1 6078   4.436   5.753   1.283 -0.5497 -0.5324  0.6659
 2038TIP3    H2 6079   4.560   5.692   1.221 -1.4691 -1.5149 -0.2575
 2039TIP3   OH2 6080   3.226   5.713   2.536 -0.1232  0.4367  0.4608
 2039TIP3    H1 6081   3.156   5.734   2.475  0.1750 -0.9982 -0.4123
 2039TIP3    H2 6082   3.222   5.618   2.547  0.8452  0.4796  1.4377
 2040TIP3   OH2 6083   5.421   5.991   1.857  0.5752  0.1552 -0.2080
 2040TIP3    H1 6084   5.339   5.942   1.847  0.6529  0.1929 -1.1377
 2040TIP3    H2 6085   5.473   5.967   1.780  2.2709 -1.4169  1.3178
 2041TIP3   OH2 6086   2.821   3.050   0.238 -0.4530 -0.5600 -0.3876
 2041TIP3    H1 6087   2.760   3.123   0.220 -2.4151 -1.7551  0.9736
 2041TIP3    H2 6088   2.862   3.032   0.154  2.4919  4.0447 -0.2450
 2042TIP3   OH2 6089   2.595   1.433   5.492  0.2513  0.0338  0.2666
 2042TIP3    H1 6090   2.606   1.397   5.581 -0.9021  0.1913  0.4830
 2042TIP3    H2 6091   2.611   1.527   5.503  0.0065  0.0682  0.3239
 2043TIP3   OH2 6092   0.012   3.730   2.163 -0.2759 -0.0646 -0.4898
 2043TIP3    H1 6093   0.097   3.712   2.123 -0.4528  0.5600 -1.1532
 2043TIP3    H2 6094   0.015   3.683   2.247  1.1360  0.8008 -0.0197
 2044TIP3   OH2 6095   6.847   5.684   3.800 -0.2424 -0.2680  0.3907
 2044TIP3    H1 6096   6.776   5.737   3.837 -1.4048 -2.7012  1.9094
 2044TIP3    H2 6097   6.919   5.694   3.862 -0.8606 -1.2944  1.3148
 2045TIP3   OH2 6098   3.397   4.202   2.622 -0.2603  0.1348  0.2717
 2045TIP3    H1 6099   3.407   4.286   2.666 -0.9577 -0.1383  0.9746
 2045TIP3    H2 6100   3.309   4.204   2.586 -0.8510 -0.8749  1.5870
 2046TIP3   OH2 6101   5.952   1.911   4.941 -0.1158 -0.2518 -0.1926
 2046TIP3    H1 6102   5.879   1.970   4.960  0.2106 -0.1906  0.9339
 2046TIP3    H2 6103   5.954   1.851   5.015  1.2409  0.0097  0.0043
 2047TIP3   OH2 6104   2.844   5.789   5.527 -0.3208 -0.4983  0.5132
 2047TIP3    H1 6105   2.766   5.735   5.544  1.2695 -3.0679  0.2139
 2047TIP3    H2 6106   2.865   5.828   5.612 -1.4403 -0.4329  0.7767
 2048TIP3   OH2 6107   6.474   2.820   2.470  0.1993 -0.5571  0.4438
 2048TIP3    H1 6108   6.440   2.909   2.466  0.2038 -0.5781 -0.0273
 2048TIP3    H2 6109   6.549   2.826   2.530 -0.0097 -0.3167  0.6873
 2049TIP3   OH2 6110   4.096   0.470   3.611  0.3401  0.2688  0.2637
 2049TIP3    H1 6111   4.179   0.436   3.576  0.4897 -1.0291  1.7409
 2049TIP3    H2 6112   4.062   0.526   3.542  1.9031 -0.0591 -0.8369
 2050TIP3   OH2 6113   0.207   4.127   2.877 -0.6230 -0.1386  0.0870
 2050TIP3    H1 6114   0.119   4.100   2.848 -1.0930  1.3641  0.0365
 2050TIP3    H2 6115   0.266   4.086   2.814 -1.3304 -0.6738 -0.2468
 2051TIP3   OH2 6116   3.542   0.920   3.473  0.2467  0.3307 -0.1351
 2051TIP3    H1 6117   3.590   0.961   3.401  1.4014  0.7027  0.8013
 2051TIP3    H2 6118   3.497   0.846   3.433  1.1449  0.3167 -1.1665
 2052TIP3   OH2 6119   1.908   4.419   3.835  0.3971  0.3575  0.3413
 2052TIP3    H1 6120   1.996   4.412   3.872  0.2417  0.5829  0.7540
 2052TIP3    H2 6121   1.851   4.432   3.910  0.1600  1.4893 -0.0194
 2053TIP3   OH2 6122   6.874   6.464   4.485  0.0768 -0.1704 -0.0877
 2053TIP3    H1 6123   6.882   6.552   4.446  1.7174 -0.2326  0.0408
 2053TIP3    H2 6124   6.927   6.408   4.429 -1.1370 -1.1527 -0.2931
 2054TIP3   OH2 6125   1.431   3.372   3.859 -0.0971  0.1243 -0.0999
 2054TIP3    H1 6126   1.459   3.283   3.840 -0.7316 -0.4202  1.3894
 2054TIP3    H2 6127   1.401   3.407   3.775 -2.1509 -1.9190 -0.3148
 2055TIP3   OH2 6128   1.201   5.141   5.382 -0.2903  0.1123  0.2249
 2055TIP3    H1 6129   1.116   5.100   5.365 -0.4853  0.5166  0.2262
 2055TIP3    H2 6130   1.215   5.200   5.308  1.2420 -1.9208 -1.2341
 2056TIP3   OH2 6131   1.347   2.109   1.254 -0.2896  0.0594 -0.1671
 2056TIP3    H1 6132   1.384   2.190   1.290 -0.3721  0.5341 -1.1240
 2056TIP3    H2 6133   1.280   2.139   1.192 -0.9980 -0.7595  0.1864
 2057TIP3   OH2 6134   6.536   5.698   2.385  0.2957 -0.1473 -0.6635
 2057TIP3    H1 6135   6.504   5.612   2.412  0.4091  0.3307  1.1022
 2057TIP3    H2 6136   6.605   5.679   2.321  0.9208 -1.4174  0.3483
 2058TIP3   OH2 6137   2.370   1.477   5.659  0.0155 -0.0833  0.5096
 2058TIP3    H1 6138   2.416   1.475   5.575  0.4913  1.4735  0.6949
 2058TIP3    H2 6139   2.374   1.387   5.691 -0.9376 -0.8996 -1.5236
 2059TIP3   OH2 6140   5.078   5.709   2.237 -0.0192 -0.2454  0.3055
 2059TIP3    H1 6141   5.086   5.627   2.286 -1.2057 -0.1407  0.7160
 2059TIP3    H2 6142   4.992   5.702   2.194  0.7367 -0.0802 -1.3024
 2060TIP3   OH2 6143   0.078   2.267   1.241  0.2180 -0.3315 -0.4671
 2060TIP3    H1 6144   0.158   2.269   1.294 -0.3358 -1.8648  0.5156
 2060TIP3    H2 6145   0.101   2.215   1.164 -0.4851 -3.3009  1.1626
 2061TIP3   OH2 6146   3.623   4.083   2.232 -0.3144  0.2408  0.0885
 2061TIP3    H1 6147   3.693   4.148   2.223 -1.2539  1.0176 -2.1394
 2061TIP3    H2 6148   3.669   3.999   2.232  0.8690  0.7756  2.3857
 2062TIP3   OH2 6149   6.752   3.244   1.986  0.2357  0.3360 -0.3169
 2062TIP3    H1 6150   6.729   3.184   2.057 -1.2872  1.3271  0.0601
 2062TIP3    H2 6151   6.842   3.219   1.963  0.4528 -0.6064  1.3422
 2063TIP3   OH2 6152   2.884   2.576   3.858  0.3919 -0.5900  0.2226
 2063TIP3    H1 6153   2.900   2.570   3.952  1.1622  2.1470  0.3513
 2063TIP3    H2 6154   2.793   2.603   3.851  0.5599 -0.0140  0.2292
 2064TIP3   OH2 6155   4.900   2.338   2.095 -0.0187  0.2228  0.0670
 2064TIP3    H1 6156   4.969   2.389   2.138  1.5148 -1.6140 -0.1105
 2064TIP3    H2 6157   4.847   2.304   2.167  1.4934 -1.3856  0.4843
 2065TIP3   OH2 6158   4.888   3.190   5.370  0.4723 -0.2720 -0.1034
 2065TIP3    H1 6159   4.894   3.269   5.425 -0.0053 -0.0824 -0.3234
 2065TIP3    H2 6160   4.898   3.223   5.281  1.6030 -0.6175 -0.1304
 2066TIP3   OH2 6161   0.088   3.977   5.056 -0.6928 -0.4173 -0.0585
 2066TIP3    H1 6162   0.048   4.047   5.108  0.9714  0.5415  0.0132
 2066TIP3    H2 6163   0.115   3.911   5.121 -1.5160 -0.7491 -0.0451
 2067TIP3   OH2 6164   0.324   3.415   0.082 -0.1827  0.6884 -0.3469
 2067TIP3    H1 6165   0.338   3.370   0.165 -0.1787  0.5230 -0.4348
 2067TIP3    H2 6166   0.410   3.452   0.060  0.2488 -0.6815 -1.0902
 2068TIP3   OH2 6167   1.049   3.958   5.878  0.5429  0.5461 -0.5343
 2068TIP3    H1 6168   0.992   3.888   5.850  0.9505  0.0084 -0.0495
 2068TIP3    H2 6169   0.990   4.024   5.915  0.1488  0.5406 -1.1335
 2069TIP3   OH2 6170   6.291   0.758   5.894  0.1956  0.4205 -0.3922
 2069TIP3    H1 6171   6.255   0.784   5.810 -0.5327  2.3506  0.4580
 2069TIP3    H2 6172   6.214   0.750   5.951  0.3702 -3.4239 -0.4501
 2070TIP3   OH2 6173   7.072   0.805   0.631  0.4861  0.1468  0.5607
 2070TIP3    H1 6174   7.143   0.851   0.587 -0.9268  1.7946 -0.1209
 2070TIP3    H2 6175   7.040   0.742   0.566  0.4526  0.3593  0.3698
 2071TIP3   OH2 6176   2.387   0.791   1.036 -0.4198  0.0802  0.5618
 2071TIP3    H1 6177   2.451   0.805   0.966 -1.8423  0.4653 -0.7133
 2071TIP3    H2 6178   2.421   0.842   1.110  0.6634  0.3790 -0.1135
 2072TIP3   OH2 6179   1.039   5.250   0.681  0.2553  0.0110  1.3349
 2072TIP3    H1 6180   1.133   5.266   0.669  0.4563  1.9574  4.3015
 2072TIP3    H2 6181   1.035   5.177   0.743 -0.2673 -1.0301  0.1044
 2073TIP3   OH2 6182   6.505   5.563   5.774  0.1756 -0.7028 -0.4587
 2073TIP3    H1 6183   6.464   5.606   5.848  0.0048  1.6120 -1.8101
 2073TIP3    H2 6184   6.436   5.507   5.738 -0.5764  0.1628 -0.4004
 2074TIP3   OH2 6185   3.094   1.056   1.701 -0.2613 -0.1304  0.3979
 2074TIP3    H1 6186   3.052   1.127   1.652  0.1117  0.2281  0.5976
 2074TIP3    H2 6187   3.030   0.984   1.697 -1.8614  1.0557  2.4279
 2075TIP3   OH2 6188   6.281   1.703   2.716 -0.2895 -0.2288 -0.4214
 2075TIP3    H1 6189   6.194   1.673   2.689 -0.4331  0.3825 -0.6468
 2075TIP3    H2 6190   6.265   1.784   2.765 -0.0651 -1.4260  1.7740
 2076TIP3   OH2 6191   5.553   2.816   1.192  0.0012 -0.4773 -0.2569
 2076TIP3    H1 6192   5.516   2.791   1.107  0.5944 -1.2462 -0.2952
 2076TIP3    H2 6193   5.476   2.843   1.243 -0.6864 -2.2039 -0.2826
 2077TIP3   OH2 6194   4.758   0.641   2.223 -0.1449  0.1063 -0.3131
 2077TIP3    H1 6195   4.797   0.715   2.176 -0.4761  0.9908  0.7511
 2077TIP3    H2 6196   4.795   0.648   2.311  0.5675 -1.5922 -0.4441
 2078TIP3   OH2 6197   3.742   2.853   1.115 -0.0147 -0.0315  0.0263
 2078TIP3    H1 6198   3.769   2.824   1.027  0.5038 -1.4964  0.6287
 2078TIP3    H2 6199   3.668   2.797   1.136 -0.0404  0.2142  0.5865
 2079TIP3   OH2 6200   1.585   2.903   5.425  0.9633  0.5379  0.1044
 2079TIP3    H1 6201   1.582   2.966   5.353 -2.9410 -0.9927 -1.3617
 2079TIP3    H2 6202   1.569   2.956   5.504  1.0225  1.7634 -0.6819
 2080TIP3   OH2 6203   1.334   1.130   3.967 -0.0653  0.1819 -0.1959
 2080TIP3    H1 6204   1.272   1.061   3.987  1.2798 -0.8601  0.5264
 2080TIP3    H2 6205   1.385   1.096   3.893  1.2123 -0.0238  0.7505
 2081TIP3   OH2 6206   6.674   5.668   1.129 -0.4797  0.2450 -0.2194
 2081TIP3    H1 6207   6.702   5.609   1.059  0.1389 -1.0006  1.0137
 2081TIP3    H2 6208   6.590   5.634   1.158 -0.7020  0.7113 -0.3095
 2082TIP3   OH2 6209   2.669   0.551   1.397  0.0661 -0.2356 -0.0918
 2082TIP3    H1 6210   2.588   0.502   1.387  0.8224 -1.8455  1.2192
 2082TIP3    H2 6211   2.657   0.600   1.479 -0.6747  1.8481 -1.3738
 2083TIP3   OH2 6212   3.881   5.266   5.064 -0.0988  0.3497  0.4408
 2083TIP3    H1 6213   3.957   5.234   5.016 -0.9145  0.9331 -1.3064
 2083TIP3    H2 6214   3.807   5.252   5.005 -1.3113  0.1735  1.9291
 2084TIP3   OH2 6215   2.592   6.479   5.778  0.0964 -0.2818  0.0333
 2084TIP3    H1 6216   2.506   6.438   5.765 -0.3537  0.6713 -0.0787
 2084TIP3    H2 6217   2.654   6.406   5.771 -0.5604 -0.7308 -1.6985
 2085TIP3   OH2 6218   5.877   0.010   5.455  0.2755 -0.3001  0.1672
 2085TIP3    H1 6219   5.944   0.078   5.460 -0.0039 -0.0334  0.2900
 2085TIP3    H2 6220   5.830   0.016   5.538  0.3006 -0.6968  0.2120
 2086TIP3   OH2 6221   3.974   5.048   5.759 -0.3087  0.3233  0.5016
 2086TIP3    H1 6222   3.979   5.104   5.836  3.1367 -0.7608  1.2492
 2086TIP3    H2 6223   3.945   4.963   5.793 -2.3588  0.7315 -0.0952
 2087TIP3   OH2 6224   1.786   5.098   2.226  0.5597  0.4440 -0.3649
 2087TIP3    H1 6225   1.846   5.075   2.155 -0.0810 -0.6757 -0.5614
 2087TIP3    H2 6226   1.794   5.193   2.234  2.2088  0.3410 -0.5199
 2088TIP3   OH2 6227   6.194   2.396   4.960 -0.2389  0.2033  0.0639
 2088TIP3    H1 6228   6.118   2.440   4.924 -0.2161  1.9252  1.9232
 2088TIP3    H2 6229   6.268   2.451   4.936  0.0667  0.0158  0.5468
 2089TIP3   OH2 6230   6.672   1.046   4.982 -0.6363 -0.2861  0.7103
 2089TIP3    H1 6231   6.700   0.955   4.986  0.2507 -0.1246 -1.0120
 2089TIP3    H2 6232   6.715   1.088   5.056 -0.3222 -1.0761  0.9847
 2090TIP3   OH2 6233   5.543   6.272   4.851 -0.1003 -0.4770  0.2413
 2090TIP3    H1 6234   5.609   6.212   4.885  0.2677 -0.2854 -0.1439
 2090TIP3    H2 6235   5.586   6.319   4.781 -0.5048 -0.0227  0.2933
 2091TIP3   OH2 6236   1.748   2.610   4.345  0.2717 -0.3883 -0.4625
 2091TIP3    H1 6237   1.727   2.618   4.438  2.4454 -0.4782  0.0921
 2091TIP3    H2 6238   1.734   2.698   4.310 -0.4559 -0.3275 -0.0264
 2092TIP3   OH2 6239   3.150   2.224   0.106 -0.3018 -0.0808 -0.2005
 2092TIP3    H1 6240   3.195   2.286   0.163 -2.7552  2.1948 -0.5264
 2092TIP3    H2 6241   3.095   2.279   0.050 -1.2508 -2.4854 -1.7933
 2093TIP3   OH2 6242   4.035   1.059   0.155 -0.6343 -0.2626 -0.2697
 2093TIP3    H1 6243   4.021   0.995   0.084  0.0661  0.7291 -1.3340
 2093TIP3    H2 6244   3.948   1.097   0.170 -0.7056 -0.1518 -0.9251
 2094TIP3   OH2 6245   0.052   5.890   0.473 -0.5929 -0.2462  0.0372
 2094TIP3    H1 6246  -0.035   5.890   0.511  0.2210 -0.2126  2.0424
 2094TIP3    H2 6247   0.109   5.923   0.543  0.8788  0.8991 -1.5871
 2095TIP3   OH2 6248   2.963   0.649   3.159 -0.2395 -0.5898  0.2954
 2095TIP3    H1 6249   3.056   0.654   3.181  0.1854 -2.0092 -0.9936
 2095TIP3    H2 6250   2.955   0.698   3.077 -0.7697  0.0537  0.7174
 2096TIP3   OH2 6251   6.164   6.278   2.794 -0.0049 -0.6029 -0.7425
 2096TIP3    H1 6252   6.135   6.297   2.883 -0.0577  0.3494 -0.9488
 2096TIP3    H2 6253   6.259   6.291   2.796 -0.1721  0.9689 -1.1615
 2097TIP3   OH2 6254   4.718   2.368   0.612 -0.3350  0.7162  0.2338
 2097TIP3    H1 6255   4.728   2.358   0.707  0.1350  2.4750  0.4038
 2097TIP3    H2 6256   4.807   2.376   0.579 -0.5047  0.2333 -0.3485
 2098TIP3   OH2 6257   4.108   4.366   5.009  0.3322  0.1424 -0.1172
 2098TIP3    H1 6258   4.075   4.393   4.924  0.7103 -0.2885 -0.4055
 2098TIP3    H2 6259   4.140   4.277   4.996 -1.2512 -0.6313  0.9029
 2099TIP3   OH2 6260   2.351   3.821   1.279 -0.1013 -0.2652 -0.1139
 2099TIP3    H1 6261   2.385   3.889   1.222 -1.8913 -0.4921 -1.5378
 2099TIP3    H2 6262   2.326   3.749   1.221  1.7687 -2.2404  1.3371
 2100TIP3   OH2 6263   6.267   2.792   4.685  0.0219  0.1839 -0.7141
 2100TIP3    H1 6264   6.342   2.849   4.705 -0.4602  0.9019 -0.9308
 2100TIP3    H2 6265   6.292   2.748   4.604  1.0431 -1.0785  0.2419
 2101TIP3   OH2 6266   5.324   2.002   4.414  0.3223 -0.1274 -0.1297
 2101TIP3    H1 6267   5.402   1.948   4.404  0.4052 -0.7399  2.9628
 2101TIP3    H2 6268   5.358   2.092   4.416  1.0701 -0.4054  1.5768
 2102TIP3   OH2 6269   2.416   1.436   4.836 -0.0937  0.2121 -0.0863
 2102TIP3    H1 6270   2.385   1.492   4.764  2.4244 -0.0389 -1.5024
 2102TIP3    H2 6271   2.346   1.372   4.849 -0.6145  0.2102 -2.4341
 2103TIP3   OH2 6272   5.920   3.480   0.565  0.5916  0.2887  0.2644
 2103TIP3    H1 6273   5.894   3.425   0.491  0.6020 -1.1054  1.2524
 2103TIP3    H2 6274   5.871   3.561   0.553  0.9563  0.2830 -1.5147
 2104TIP3   OH2 6275   3.419   6.107   5.155  0.3662 -0.6144 -0.4348
 2104TIP3    H1 6276   3.369   6.058   5.090 -0.2171 -0.3521 -0.1904
 2104TIP3    H2 6277   3.353   6.151   5.209  0.8860  0.6925 -0.8292
 2105TIP3   OH2 6278   4.834   4.967   1.899 -0.3377  0.0347  0.3342
 2105TIP3    H1 6279   4.745   4.985   1.929 -0.6685  1.1802 -1.1894
 2105TIP3    H2 6280   4.858   5.043   1.846  1.8027  0.0371  1.1826
 2106TIP3   OH2 6281   3.756   4.725   4.597 -0.3869  0.8763  0.4430
 2106TIP3    H1 6282   3.669   4.687   4.601 -0.0996  0.1556  0.0390
 2106TIP3    H2 6283   3.806   4.679   4.664  0.9427 -2.1075 -2.3699
 2107TIP3   OH2 6284   0.732   4.993   2.524 -0.0979 -0.1923  0.2376
 2107TIP3    H1 6285   0.700   5.020   2.610 -2.4572  2.0768 -1.1835
 2107TIP3    H2 6286   0.796   5.060   2.500  0.9969 -1.1454  0.4253
 2108TIP3   OH2 6287   3.859   2.623   3.606  0.8978 -0.4180  0.0628
 2108TIP3    H1 6288   3.922   2.686   3.571  1.1717 -0.8760 -0.2691
 2108TIP3    H2 6289   3.816   2.586   3.529  1.3604 -1.2824  0.2098
 2109TIP3   OH2 6290   4.779   2.533   1.172 -0.5639 -0.2717 -0.2687
 2109TIP3    H1 6291   4.738   2.453   1.138 -1.1025 -1.4098  2.7298
 2109TIP3    H2 6292   4.733   2.551   1.253  0.8240  2.0530  0.0991
 2110TIP3   OH2 6293   0.791   2.119   2.944 -0.3052  0.1315  0.3399
 2110TIP3    H1 6294   0.824   2.070   3.019 -0.8753  3.0257  2.6668
 2110TIP3    H2 6295   0.850   2.194   2.936 -0.9734  0.5296 -1.3641
 2111TIP3   OH2 6296   4.217   4.679   5.482 -0.3405 -0.0874  0.0010
 2111TIP3    H1 6297   4.136   4.703   5.437  0.0088 -0.0839 -0.6359
 2111TIP3    H2 6298   4.214   4.727   5.565 -0.5385  0.6702 -0.4349
 2112TIP3   OH2 6299   4.123   6.460   3.543  0.6243 -0.3448 -0.1279
 2112TIP3    H1 6300   4.213   6.482   3.519  0.7380 -1.0743 -0.3954
 2112TIP3    H2 6301   4.131   6.391   3.608  0.2501 -0.9318 -0.6960
 2113TIP3   OH2 6302   4.572   6.612   0.523 -0.2634  0.2571  0.1285
 2113TIP3    H1 6303   4.567   6.685   0.585  2.2264  0.8861 -0.3339
 2113TIP3    H2 6304   4.504   6.632   0.458  0.4613  2.2883 -0.0815
 2114TIP3   OH2 6305   6.285   5.969   3.843  0.4639 -0.4615  0.0933
 2114TIP3    H1 6306   6.312   6.051   3.801  0.4913 -0.6351 -0.2268
 2114TIP3    H2 6307   6.316   5.978   3.933 -0.2679  0.2420  0.2949
 2115TIP3   OH2 6308   4.307   5.493   4.123 -0.4544 -0.4214 -0.7587
 2115TIP3    H1 6309   4.260   5.575   4.141  0.0754 -0.4546  0.9783
 2115TIP3    H2 6310   4.259   5.454   4.050 -1.6157  0.7436 -0.6666
 2116TIP3   OH2 6311   6.703   0.512   1.570  0.5693 -0.4387 -0.5705
 2116TIP3    H1 6312   6.630   0.552   1.521  0.6212 -0.1945 -0.4480
 2116TIP3    H2 6313   6.781   0.552   1.533  0.6532 -0.8130 -0.8066
 2117TIP3   OH2 6314   5.965   2.144   2.274 -0.7104 -0.0047 -0.7042
 2117TIP3    H1 6315   5.961   2.212   2.342  0.6473  0.6133 -1.2098
 2117TIP3    H2 6316   5.874   2.130   2.250 -1.4107 -1.3669  2.3022
 2118TIP3   OH2 6317   3.652   6.797   3.327 -0.3200  0.4615  0.7048
 2118TIP3    H1 6318   3.705   6.867   3.367 -2.6740  2.2360  0.9639
 2118TIP3    H2 6319   3.699   6.716   3.349  3.4899  1.9302 -1.0494
 2119TIP3   OH2 6320   0.769   3.325   1.371 -0.4420 -0.0449 -0.0896
 2119TIP3    H1 6321   0.798   3.332   1.462 -0.4874  1.8587 -0.1819
 2119TIP3    H2 6322   0.831   3.264   1.331  0.1043 -0.2373  1.0072
 2120TIP3   OH2 6323   1.128   2.743   5.590 -0.2348 -0.3590 -0.1994
 2120TIP3    H1 6324   1.102   2.771   5.678 -0.3407 -0.9542 -0.0345
 2120TIP3    H2 6325   1.222   2.725   5.597  0.3633  2.1069 -0.8772
 2121TIP3   OH2 6326   6.661   4.747   4.692 -0.1095  0.0982 -0.1205
 2121TIP3    H1 6327   6.682   4.662   4.655 -1.2511  0.9581 -3.0177
 2121TIP3    H2 6328   6.566   4.752   4.690 -0.1316  0.9622  1.2662
 2122TIP3   OH2 6329   0.709   6.745   4.861 -0.1696  0.2705 -0.0208
 2122TIP3    H1 6330   0.803   6.734   4.853 -0.3444 -1.1454 -0.5155
 2122TIP3    H2 6331   0.679   6.663   4.901 -1.0477  1.2371  1.3874
 2123TIP3   OH2 6332   2.432   2.761   0.922 -0.0342  0.1368 -0.2146
 2123TIP3    H1 6333   2.405   2.843   0.881 -1.4547 -0.1365  0.1283
 2123TIP3    H2 6334   2.522   2.748   0.892  0.1707  1.7304 -0.4008
 2124TIP3   OH2 6335   1.116   5.467   5.753 -0.1974 -0.1654  0.7066
 2124TIP3    H1 6336   1.097   5.521   5.676  1.4585  0.2450  0.5295
 2124TIP3    H2 6337   1.085   5.380   5.729 -0.1203  0.0578 -0.2614
 2125TIP3   OH2 6338   2.356   5.425   5.573 -0.2742 -0.3102 -0.1948
 2125TIP3    H1 6339   2.301   5.420   5.651  0.9530 -0.7210  0.6850
 2125TIP3    H2 6340   2.411   5.502   5.588 -1.1388  0.5705 -1.4330
 2126TIP3   OH2 6341   0.360   4.903   3.062 -0.4581  0.3793  0.0357
 2126TIP3    H1 6342   0.330   4.889   2.972  2.2092  0.6600 -0.9669
 2126TIP3    H2 6343   0.341   4.996   3.078 -0.5465  0.4370 -0.3793
 2127TIP3   OH2 6344   3.590   4.520   4.438  0.3797  0.5363 -0.1041
 2127TIP3    H1 6345   3.563   4.610   4.456  1.7890  1.0690 -0.5280
 2127TIP3    H2 6346   3.511   4.477   4.407 -0.2897  1.6627 -0.0144
 2128TIP3   OH2 6347   6.158   2.319   4.176 -0.1824 -0.0697 -0.2203
 2128TIP3    H1 6348   6.139   2.316   4.082  1.4986  0.8208 -0.6281
 2128TIP3    H2 6349   6.097   2.384   4.211 -1.1680 -0.7832 -0.5858
 2129TIP3   OH2 6350   2.343   5.230   3.036 -0.1381  0.0346 -0.3855
 2129TIP3    H1 6351   2.380   5.310   3.073  1.1245  0.1273 -1.7418
 2129TIP3    H2 6352   2.310   5.257   2.950  1.5660 -1.1243 -1.4748
 2130TIP3   OH2 6353   0.183   6.674   0.940 -0.1941 -0.7635 -0.2601
 2130TIP3    H1 6354   0.215   6.709   0.858 -0.4604 -0.1927 -0.1242
 2130TIP3    H2 6355   0.093   6.647   0.921 -0.9310  1.1314  0.3061
 2131TIP3   OH2 6356   2.084   4.378   4.983 -0.9469 -0.0434  0.3433
 2131TIP3    H1 6357   2.113   4.301   4.934 -2.6696 -1.8554  1.9441
 2131TIP3    H2 6358   2.003   4.405   4.939 -0.7983  0.3188  0.2919
 2132TIP3   OH2 6359   2.294   5.532   4.474  0.1489 -0.4356  0.0367
 2132TIP3    H1 6360   2.208   5.544   4.512  0.4151  1.2520  0.1709
 2132TIP3    H2 6361   2.321   5.445   4.502 -0.9912 -0.4920  1.0090
 2133TIP3   OH2 6362   2.530   4.582   4.039 -0.1202  0.6493 -0.1797
 2133TIP3    H1 6363   2.590   4.650   4.009 -1.4856  1.4904 -1.0490
 2133TIP3    H2 6364   2.445   4.624   4.045 -0.4347 -0.1419  2.4463
 2134TIP3   OH2 6365   2.693   0.934   1.601 -0.3296 -0.5075  0.2090
 2134TIP3    H1 6366   2.709   1.012   1.654 -0.0359 -0.1532 -0.3801
 2134TIP3    H2 6367   2.664   0.969   1.517 -3.2984 -1.0824  0.8905
 2135TIP3   OH2 6368   4.527   2.602   3.324  0.1685 -0.6760 -0.0165
 2135TIP3    H1 6369   4.444   2.581   3.280 -0.1689 -1.8039  1.0837
 2135TIP3    H2 6370   4.590   2.540   3.287  0.4859  0.0135 -0.6673
 2136TIP3   OH2 6371   1.890   5.278   4.590 -0.4094 -0.1807 -0.8166
 2136TIP3    H1 6372   1.875   5.228   4.670 -1.5697  0.9801 -0.2615
 2136TIP3    H2 6373   1.979   5.256   4.563  1.0652  1.3534  2.2496
 2137TIP3   OH2 6374   0.038   4.878   3.115  0.4682 -0.4599  0.2224
 2137TIP3    H1 6375  -0.026   4.905   3.180  1.1089  0.7939  0.3543
 2137TIP3    H2 6376   0.104   4.831   3.166  1.7435  1.8042  0.7849
 2138TIP3   OH2 6377   1.507   2.332   5.308 -0.2391  0.3731 -0.7677
 2138TIP3    H1 6378   1.569   2.275   5.354  0.4348  1.6695 -0.0129
 2138TIP3    H2 6379   1.503   2.297   5.219  3.1661  1.4142 -1.4613
 2139TIP3   OH2 6380   1.091   0.940   0.190  0.6369  0.0444 -0.1809
 2139TIP3    H1 6381   1.085   1.034   0.210 -0.6375 -0.1324  0.3308
 2139TIP3    H2 6382   1.002   0.914   0.170  0.7458 -1.3637  1.0442
 2140TIP3   OH2 6383   6.506   0.731   3.689  0.4709 -0.3381 -0.3658
 2140TIP3    H1 6384   6.438   0.668   3.665  0.5127 -0.1445 -0.9968
 2140TIP3    H2 6385   6.505   0.731   3.785 -1.1565  0.4402 -0.3400
 2141TIP3   OH2 6386   2.845   4.337   5.100 -0.1144 -0.2174 -0.1592
 2141TIP3    H1 6387   2.827   4.395   5.174 -0.6382 -1.9336  1.1246
 2141TIP3    H2 6388   2.881   4.258   5.139 -2.4790 -2.0949 -1.4519
 2142TIP3   OH2 6389   1.853   0.224   0.650  0.2409 -0.2636  0.8740
 2142TIP3    H1 6390   1.900   0.149   0.611  1.8741  0.9704  0.3423
 2142TIP3    H2 6391   1.914   0.258   0.715  0.0047  1.2588  0.3267
 2143TIP3   OH2 6392   3.280   0.754   1.481  0.2901 -0.3862  0.4373
 2143TIP3    H1 6393   3.208   0.711   1.527  0.7768 -0.8719  0.7597
 2143TIP3    H2 6394   3.353   0.750   1.543  0.8138 -0.6054 -0.1862
 2144TIP3   OH2 6395   0.109   2.762   2.446 -0.1677 -0.5143  0.1498
 2144TIP3    H1 6396   0.087   2.843   2.491 -0.0756  0.0147 -0.7207
 2144TIP3    H2 6397   0.154   2.791   2.366 -0.5457 -1.4051 -0.3991
 2145TIP3   OH2 6398   0.475   3.289   5.386 -0.0931  1.0584  0.3813
 2145TIP3    H1 6399   0.419   3.284   5.309 -0.3086  1.3124  0.5173
 2145TIP3    H2 6400   0.489   3.198   5.412  0.9188  0.9160 -0.6179
 2146TIP3   OH2 6401   3.195   0.926   4.385  0.1214 -0.4504  0.4459
 2146TIP3    H1 6402   3.222   0.959   4.471  0.9048 -0.4824  0.2181
 2146TIP3    H2 6403   3.275   0.894   4.345 -0.2858 -0.7000 -0.1894
 2147TIP3   OH2 6404   2.769   0.633   3.953  0.1645  0.4831  0.6014
 2147TIP3    H1 6405   2.790   0.713   4.000 -1.7974  1.1002  0.5032
 2147TIP3    H2 6406   2.769   0.565   4.020 -0.1102  0.9106  1.0397
 2148TIP3   OH2 6407   4.056   3.706   3.244 -0.5854  0.3813 -0.1108
 2148TIP3    H1 6408   4.039   3.731   3.335 -0.9973 -0.3534  0.0258
 2148TIP3    H2 6409   3.975   3.662   3.216  0.0960 -0.7871 -0.3184
 2149TIP3   OH2 6410   5.366   3.674   3.628  0.0255 -0.3000  0.0362
 2149TIP3    H1 6411   5.356   3.740   3.560 -1.0828 -0.5881 -0.0942
 2149TIP3    H2 6412   5.404   3.721   3.702 -1.6686  0.7263  0.2958
 2150TIP3   OH2 6413   4.466   5.747   5.149  0.7003 -0.4169 -0.1652
 2150TIP3    H1 6414   4.424   5.663   5.132 -0.4507  0.0569  0.2360
 2150TIP3    H2 6415   4.486   5.781   5.062 -0.4345 -0.3338 -0.4184
 2151TIP3   OH2 6416   5.245   5.667   1.176 -0.6574 -0.1413  0.2951
 2151TIP3    H1 6417   5.210   5.735   1.232 -0.1652  1.9627 -1.7876
 2151TIP3    H2 6418   5.170   5.637   1.125 -0.7427 -0.7134  0.7449
 2152TIP3   OH2 6419   0.255   1.429   0.185  0.2945 -0.0960  0.3988
 2152TIP3    H1 6420   0.209   1.506   0.151 -1.9949 -1.6399 -0.2514
 2152TIP3    H2 6421   0.338   1.464   0.219 -0.1396  2.4578 -0.8884
 2153TIP3   OH2 6422   2.579   1.414   1.259  0.3840  0.0699 -0.3677
 2153TIP3    H1 6423   2.671   1.436   1.245  0.9614 -1.4206  0.7580
 2153TIP3    H2 6424   2.544   1.401   1.171  1.5412 -0.3835 -0.7913
 2154TIP3   OH2 6425   1.974   2.567   5.899  0.6414 -0.2844  0.0600
 2154TIP3    H1 6426   1.970   2.569   5.804  0.7055  0.6281  0.0707
 2154TIP3    H2 6427   1.976   2.473   5.921 -2.0300 -0.5965 -0.7187
 2155TIP3   OH2 6428   3.124   4.152   4.449 -0.1225 -0.2556  0.2781
 2155TIP3    H1 6429   3.129   4.235   4.496  2.5254  0.1254 -0.5605
 2155TIP3    H2 6430   3.126   4.085   4.517  1.0150  0.3306  0.8309
 2156TIP3   OH2 6431   2.228   0.400   2.032  0.0454  0.5164  0.4356
 2156TIP3    H1 6432   2.184   0.323   1.998  1.4622 -0.4064  0.6159
 2156TIP3    H2 6433   2.260   0.446   1.955  0.9199 -0.1448  0.3932
 2157TIP3   OH2 6434   5.236   2.288   1.777  0.2068 -0.0661 -0.5077
 2157TIP3    H1 6435   5.148   2.260   1.802  0.5313 -0.2060  0.5168
 2157TIP3    H2 6436   5.248   2.255   1.688 -0.8755  0.1924 -0.7583
 2158TIP3   OH2 6437   5.180   1.817   2.312  0.2758  0.1506  0.6561
 2158TIP3    H1 6438   5.200   1.904   2.349  0.4470  0.8556 -1.0219
 2158TIP3    H2 6439   5.168   1.833   2.219  0.9878 -1.7546  0.1982
 2159TIP3   OH2 6440   1.150   6.075   1.853 -0.1985  0.2545 -0.1350
 2159TIP3    H1 6441   1.228   6.023   1.832 -0.9075 -0.1964 -1.8513
 2159TIP3    H2 6442   1.173   6.124   1.931  0.8237 -1.9980  1.0494
 2160TIP3   OH2 6443   3.884   6.252   3.519  0.7487 -0.0990 -0.0540
 2160TIP3    H1 6444   3.926   6.269   3.434 -1.6416 -0.7653 -1.4800
 2160TIP3    H2 6445   3.840   6.334   3.540  1.3645  0.0754  0.6019
 2161TIP3   OH2 6446   4.702   0.671   4.039  0.3020 -0.4488 -0.0717
 2161TIP3    H1 6447   4.655   0.754   4.035 -0.6677 -1.0246 -1.5122
 2161TIP3    H2 6448   4.690   0.633   3.952  1.3083 -1.7876  0.3462
 2162TIP3   OH2 6449   0.208   1.638   4.802  0.3877 -0.5163 -0.0692
 2162TIP3    H1 6450   0.291   1.668   4.766 -0.5474  3.6765  0.7763
 2162TIP3    H2 6451   0.148   1.637   4.727  0.5095 -0.7716 -0.1665
 2163TIP3   OH2 6452   3.949   5.373   4.385  0.2200 -0.1712  0.0234
 2163TIP3    H1 6453   3.979   5.423   4.309 -0.2080 -0.1472 -0.1318
 2163TIP3    H2 6454   3.858   5.400   4.398  0.4063  0.1228  0.7924
 2164TIP3   OH2 6455   5.203   5.549   0.336  0.2006 -0.2526  0.2492
 2164TIP3    H1 6456   5.125   5.539   0.282  0.1964  2.4861 -0.4006
 2164TIP3    H2 6457   5.182   5.504   0.417 -0.7378 -2.3698 -1.0836
 2165TIP3   OH2 6458   2.418   6.714   0.310 -0.1935 -0.0108  0.2898
 2165TIP3    H1 6459   2.503   6.674   0.327 -1.2614 -1.5026  2.5609
 2165TIP3    H2 6460   2.434   6.808   0.320  0.9403 -0.3418  2.0578
 2166TIP3   OH2 6461   5.822   5.045   1.062 -0.5889 -0.2137  0.5699
 2166TIP3    H1 6462   5.827   4.960   1.106  1.0556 -1.3468 -1.5973
 2166TIP3    H2 6463   5.888   5.099   1.105 -0.9095 -0.3759  1.2729
 2167TIP3   OH2 6464   3.117   3.583   2.808 -0.0760 -0.1318  0.3581
 2167TIP3    H1 6465   3.134   3.519   2.739 -2.2708 -1.2889  0.7968
 2167TIP3    H2 6466   3.166   3.549   2.884 -2.1327 -2.0443  0.9262
 2168TIP3   OH2 6467   2.722   5.170   1.436 -0.0365  0.2236 -0.0044
 2168TIP3    H1 6468   2.687   5.082   1.422 -1.2701  0.6204  0.4716
 2168TIP3    H2 6469   2.771   5.163   1.518 -3.0313  0.7109  2.0154
 2169TIP3   OH2 6470   5.231   0.420   5.780 -0.4680  0.6914  0.4153
 2169TIP3    H1 6471   5.205   0.348   5.722 -2.4502  1.5534  0.1398
 2169TIP3    H2 6472   5.306   0.461   5.736 -0.7392  0.1611 -0.5600
 2170TIP3   OH2 6473   5.870   4.427   1.731  0.1295  0.0326 -0.1611
 2170TIP3    H1 6474   5.836   4.343   1.698 -0.5627  0.1354  0.2724
 2170TIP3    H2 6475   5.957   4.405   1.765  0.5292 -0.2346 -1.2851
 2171TIP3   OH2 6476   2.951   2.855   3.971  0.3921 -0.5377 -0.3976
 2171TIP3    H1 6477   3.021   2.796   4.000 -0.6331 -1.4804  0.2351
 2171TIP3    H2 6478   2.879   2.839   4.031 -0.2088  0.7935 -0.7195
 2172TIP3   OH2 6479   3.731   6.446   3.208 -0.0265  0.0243  0.2996
 2172TIP3    H1 6480   3.638   6.465   3.218  0.0301  0.2389  0.4520
 2172TIP3    H2 6481   3.735   6.353   3.187 -0.3223  0.2021 -0.5602
 2173TIP3   OH2 6482   6.202   2.167   3.285  0.3445 -0.2041 -0.6403
 2173TIP3    H1 6483   6.149   2.215   3.222  1.3438  1.5829 -0.1733
 2173TIP3    H2 6484   6.293   2.183   3.258  0.7566 -0.3748  0.5681
 2174TIP3   OH2 6485   7.133   0.937   4.048  0.4050  0.1804 -0.2210
 2174TIP3    H1 6486   7.157   0.957   4.139 -1.4930  0.1522  0.3230
 2174TIP3    H2 6487   7.071   1.006   4.023  0.5729 -0.0558 -1.3599
 2175TIP3   OH2 6488   2.351   0.038   4.551  0.2474 -0.6782 -0.4317
 2175TIP3    H1 6489   2.370   0.126   4.583  0.5371 -0.5638 -0.8979
 2175TIP3    H2 6490   2.416   0.024   4.482  1.0107 -1.7373  0.4660
 2176TIP3   OH2 6491   5.675   1.172   5.173  0.8342 -0.3043 -0.0548
 2176TIP3    H1 6492   5.652   1.129   5.091  0.8805  0.0949 -0.2766
 2176TIP3    H2 6493   5.620   1.251   5.175 -1.0400 -1.5397  1.4663
 2177TIP3   OH2 6494   1.591   5.426   1.670 -0.0031  0.4056  0.5394
 2177TIP3    H1 6495   1.498   5.405   1.676 -0.1681  1.2501  1.0479
 2177TIP3    H2 6496   1.613   5.463   1.755  0.4361  1.6323 -0.0786
 2178TIP3   OH2 6497   0.141   5.315   0.164 -0.2096 -0.0330 -0.5402
 2178TIP3    H1 6498   0.081   5.298   0.236 -0.1797 -2.2171 -0.9351
 2178TIP3    H2 6499   0.138   5.235   0.111  1.9074  0.3662 -1.3954
 2179TIP3   OH2 6500   0.791   2.319   0.781 -0.1613 -0.0503  0.7766
 2179TIP3    H1 6501   0.796   2.225   0.797 -0.2181 -0.3183 -0.6186
 2179TIP3    H2 6502   0.821   2.329   0.691 -0.8322  1.1934  0.6727
 2180TIP3   OH2 6503   2.580   0.740   4.311 -0.1072 -0.4550  0.3439
 2180TIP3    H1 6504   2.598   0.646   4.310 -0.4308 -0.5173  0.2516
 2180TIP3    H2 6505   2.490   0.747   4.343 -0.4518 -0.2430 -0.6315
 2181TIP3   OH2 6506   4.573   6.410   2.115 -0.0060 -0.2383 -0.3271
 2181TIP3    H1 6507   4.517   6.369   2.049 -0.2865 -0.8076  0.2475
 2181TIP3    H2 6508   4.515   6.425   2.189  0.4811 -0.3384  0.0767
 2182TIP3   OH2 6509   2.424   3.435   3.071  0.2614  0.0850  0.3123
 2182TIP3    H1 6510   2.357   3.471   3.013 -0.3282  0.5051  1.2335
 2182TIP3    H2 6511   2.488   3.395   3.012 -0.3727  0.4133 -0.6164
 2183TIP3   OH2 6512   6.228   0.151   3.470 -0.1901 -0.2605 -0.0971
 2183TIP3    H1 6513   6.317   0.172   3.440 -0.2665 -0.6769 -0.6286
 2183TIP3    H2 6514   6.179   0.232   3.459 -0.4945 -0.6668 -2.1788
 2184TIP3   OH2 6515   4.704   1.636   4.872 -0.1233  0.0561 -0.2382
 2184TIP3    H1 6516   4.683   1.631   4.965  0.5179 -1.0064 -0.1409
 2184TIP3    H2 6517   4.702   1.730   4.853  3.1029  0.6707  1.6669
 2185TIP3   OH2 6518   3.662   4.192   3.353 -0.0102 -0.1476  0.0143
 2185TIP3    H1 6519   3.735   4.254   3.360  2.0486 -2.5554  1.5724
 2185TIP3    H2 6520   3.623   4.191   3.441 -1.0634  0.0620 -0.4324
 2186TIP3   OH2 6521   3.828   3.501   1.388 -0.5478 -0.0877 -0.9130
 2186TIP3    H1 6522   3.887   3.428   1.368 -0.0299  0.1055 -0.1279
 2186TIP3    H2 6523   3.873   3.578   1.351 -1.1545 -0.1698 -1.8568
 2187TIP3   OH2 6524   6.470   5.727   5.533 -0.8702 -0.0700  0.6481
 2187TIP3    H1 6525   6.511   5.645   5.560 -0.1363 -0.3512 -1.1729
 2187TIP3    H2 6526   6.388   5.701   5.493 -1.0528  0.1712  0.8606
 2188TIP3   OH2 6527   0.593   5.331   5.466 -0.7110  0.1522  0.4932
 2188TIP3    H1 6528   0.651   5.257   5.481  0.1787  0.8219  0.4571
 2188TIP3    H2 6529   0.595   5.381   5.548  0.0929  1.0534 -0.0416
 2189TIP3   OH2 6530   3.448   3.127   3.795 -0.9320  0.0344  0.6842
 2189TIP3    H1 6531   3.354   3.111   3.797 -0.7545 -1.0342  1.6169
 2189TIP3    H2 6532   3.487   3.041   3.780 -0.0809  0.3778  0.8476
 2190TIP3   OH2 6533   2.541   6.419   3.675 -0.3501  0.6389  0.0871
 2190TIP3    H1 6534   2.470   6.414   3.738 -0.7555  1.3200 -0.3082
 2190TIP3    H2 6535   2.500   6.447   3.593  0.3895  1.1560 -0.1212
 2191TIP3   OH2 6536   5.380   6.243   3.192 -0.3936  0.2124  0.2057
 2191TIP3    H1 6537   5.470   6.277   3.196  0.3782 -1.7381  0.7145
 2191TIP3    H2 6538   5.352   6.239   3.283 -0.8531  0.3965  0.0770
 2192TIP3   OH2 6539   4.715   2.073   4.555  0.5722  0.3632  0.2859
 2192TIP3    H1 6540   4.644   2.110   4.503 -0.1473 -0.2010  0.8479
 2192TIP3    H2 6541   4.795   2.106   4.514 -0.0217  1.6418  0.1117
 2193TIP3   OH2 6542   0.808   2.209   1.314  0.3670  0.1648  0.5320
 2193TIP3    H1 6543   0.828   2.294   1.275  0.6673  0.0421  0.4088
 2193TIP3    H2 6544   0.726   2.222   1.361  1.0537  0.8570  1.5679
 2194TIP3   OH2 6545   6.036   4.966   0.810  0.0536  0.5064 -0.0198
 2194TIP3    H1 6546   6.040   5.050   0.855  0.4422  0.3851  0.1790
 2194TIP3    H2 6547   6.004   4.905   0.876 -1.1944  0.6707 -0.4342
 2195TIP3   OH2 6548   5.727   4.255   5.897 -0.1192 -0.3748 -0.3804
 2195TIP3    H1 6549   5.708   4.326   5.836  0.1591 -0.2926 -0.3736
 2195TIP3    H2 6550   5.668   4.184   5.870 -0.4873 -0.1001 -0.3056
 2196TIP3   OH2 6551   0.412   1.925   5.226 -0.0066 -0.3322  0.4459
 2196TIP3    H1 6552   0.426   2.019   5.214  1.8977 -0.4131  1.6564
 2196TIP3    H2 6553   0.406   1.914   5.321 -3.0836 -1.1238  0.2464
 2197TIP3   OH2 6554   3.517   2.975   4.189 -0.2735  0.0483  0.0668
 2197TIP3    H1 6555   3.554   3.053   4.148  2.3913 -0.3158  1.5651
 2197TIP3    H2 6556   3.566   2.902   4.150  0.3411 -0.5080  1.8167
 2198TIP3   OH2 6557   3.660   1.087   2.428 -0.3195  0.4294 -0.5090
 2198TIP3    H1 6558   3.623   1.021   2.369 -1.6238 -0.3113  1.0515
 2198TIP3    H2 6559   3.586   1.144   2.448  0.1854  0.8554  0.1652
 2199TIP3   OH2 6560   5.142   4.390   2.995  0.2985  0.1293  0.7696
 2199TIP3    H1 6561   5.145   4.303   3.034 -0.6161 -1.3623 -2.1680
 2199TIP3    H2 6562   5.234   4.416   2.986  0.6825 -1.3666  0.0992
 2200TIP3   OH2 6563   5.814   4.072   3.688  0.1666 -0.2209 -0.2811
 2200TIP3    H1 6564   5.812   4.167   3.701 -0.6076 -0.3471  0.5850
 2200TIP3    H2 6565   5.854   4.038   3.768  0.3131 -0.6473 -0.5307
 2201TIP3   OH2 6566   1.226   2.392   1.834  0.2145  0.1942  0.3516
 2201TIP3    H1 6567   1.169   2.316   1.829  1.1162 -0.4824 -0.0225
 2201TIP3    H2 6568   1.225   2.418   1.926  0.3344 -0.6171  0.5829
 2202TIP3   OH2 6569   6.867   6.728   5.604  0.2624  0.1271  0.3905
 2202TIP3    H1 6570   6.883   6.822   5.606  1.9455 -0.1320  0.2568
 2202TIP3    H2 6571   6.954   6.689   5.600 -0.3926 -1.4614  1.0660
 2203TIP3   OH2 6572   1.177   2.227   1.083 -0.7156 -0.1120  0.2315
 2203TIP3    H1 6573   1.210   2.314   1.061  1.3472 -1.1041 -0.7482
 2203TIP3    H2 6574   1.126   2.201   1.007 -1.7955  0.4014  0.7431
 2204TIP3   OH2 6575   1.560   2.617   0.153 -0.1779  0.1886 -0.8575
 2204TIP3    H1 6576   1.514   2.541   0.189  1.1730 -0.2931 -0.0641
 2204TIP3    H2 6577   1.621   2.643   0.222  1.2271  0.3649 -2.1016
 2205TIP3   OH2 6578   6.395   0.048   0.531 -0.1371 -0.0947 -0.3332
 2205TIP3    H1 6579   6.349  -0.020   0.482  1.2405 -0.5534 -1.0289
 2205TIP3    H2 6580   6.466   0.002   0.575 -0.3690  0.5868  0.7826
 2206TIP3   OH2 6581   0.565   0.946   3.409  0.1086  0.2713  0.2294
 2206TIP3    H1 6582   0.480   0.902   3.398 -0.2528  1.2757 -1.2854
 2206TIP3    H2 6583   0.625   0.897   3.352 -0.1338  1.2485 -0.9080
 2207TIP3   OH2 6584   1.254   2.795   0.773  0.4376 -0.2184  0.2861
 2207TIP3    H1 6585   1.270   2.821   0.682 -0.4931 -0.2087  0.1169
 2207TIP3    H2 6586   1.335   2.751   0.799  0.9388  0.2886 -0.3521
 2208TIP3   OH2 6587   3.929   5.118   4.645 -0.0156 -0.1392 -0.1099
 2208TIP3    H1 6588   3.843   5.079   4.661 -0.6792  0.0651 -2.7225
 2208TIP3    H2 6589   3.911   5.210   4.627  0.5218 -0.3161 -1.8183
 2209TIP3   OH2 6590   0.131   5.412   3.136 -0.1838 -0.4118  0.0400
 2209TIP3    H1 6591   0.134   5.472   3.210 -2.5168  0.8594 -0.7764
 2209TIP3    H2 6592   0.186   5.453   3.069 -0.5351  0.0424  0.0245
 2210TIP3   OH2 6593   4.380   5.316   0.811 -0.0537 -0.1162  0.1724
 2210TIP3    H1 6594   4.333   5.267   0.743  0.3291  0.4920 -0.5555
 2210TIP3    H2 6595   4.312   5.361   0.860 -0.2310  1.8034 -1.6885
 2211TIP3   OH2 6596   1.639   4.475   5.103  0.1956 -0.2657  0.3135
 2211TIP3    H1 6597   1.578   4.543   5.074  0.2462 -0.9398 -1.4749
 2211TIP3    H2 6598   1.663   4.501   5.192 -1.5117  0.8276  0.4940
 2212TIP3   OH2 6599   5.422   0.056   4.504 -0.0465  0.2994  0.1788
 2212TIP3    H1 6600   5.511   0.026   4.482 -0.7026 -1.8133  0.1768
 2212TIP3    H2 6601   5.425   0.074   4.598  0.9119  2.3917 -0.1991
 2213TIP3   OH2 6602   0.085   2.156   0.143  0.5037 -0.0672  0.2383
 2213TIP3    H1 6603   0.038   2.077   0.170  0.9890 -0.1425  0.9032
 2213TIP3    H2 6604   0.129   2.186   0.223  0.2215  0.9516  0.0290
 2214TIP3   OH2 6605   4.404   4.462   2.062  0.0751  0.1499 -0.7953
 2214TIP3    H1 6606   4.310   4.480   2.056  0.0142  0.0627 -0.0984
 2214TIP3    H2 6607   4.442   4.545   2.092 -0.3188 -0.9976  3.4535
 2215TIP3   OH2 6608   6.781   2.434   3.151 -0.9825  0.0305  0.0896
 2215TIP3    H1 6609   6.720   2.373   3.109 -0.2970 -0.9814  0.5164
 2215TIP3    H2 6610   6.755   2.520   3.118 -1.6628 -0.5303 -0.9102
 2216TIP3   OH2 6611   2.576   2.429   2.602 -0.0260  0.1654 -0.2585
 2216TIP3    H1 6612   2.551   2.422   2.694 -2.4975  0.1523 -0.8674
 2216TIP3    H2 6613   2.513   2.491   2.565  1.5449  0.9354 -1.7507
 2217TIP3   OH2 6614   5.337   0.267   1.260  0.3715  0.4530 -0.2911
 2217TIP3    H1 6615   5.280   0.198   1.227  1.3596 -0.3301 -0.3857
 2217TIP3    H2 6616   5.312   0.344   1.208 -0.1724 -0.0285 -0.7626
 2218TIP3   OH2 6617   6.116   4.859   2.150 -0.4921  0.2834 -0.3346
 2218TIP3    H1 6618   6.139   4.819   2.066 -0.3371  0.4475 -0.3718
 2218TIP3    H2 6619   6.092   4.949   2.127 -0.3771  0.3503 -0.1925
 2219TIP3   OH2 6620   0.457   6.225   4.799 -0.4356 -0.3866 -0.4867
 2219TIP3    H1 6621   0.480   6.263   4.714  1.5433 -1.6592 -0.5817
 2219TIP3    H2 6622   0.540   6.196   4.836 -1.3331 -0.4419  1.6343
 2220TIP3   OH2 6623   7.077   2.308   5.091 -0.1279 -0.0904 -0.0611
 2220TIP3    H1 6624   7.046   2.397   5.104 -0.9740 -0.5773  1.5794
 2220TIP3    H2 6625   7.150   2.299   5.153 -0.3075 -0.6584  0.0721
 2221TIP3   OH2 6626   4.094   5.119   4.894  0.3590 -0.1832 -0.1685
 2221TIP3    H1 6627   4.038   5.099   4.819 -1.0278 -3.0823  1.4735
 2221TIP3    H2 6628   4.183   5.119   4.858 -0.2488 -1.5470 -1.8066
 2222TIP3   OH2 6629   5.212   2.770   4.238 -0.0469 -0.0334  0.2614
 2222TIP3    H1 6630   5.210   2.716   4.159 -2.2801  2.4017 -1.5063
 2222TIP3    H2 6631   5.302   2.803   4.242 -0.1465  0.6746 -1.9774
 2223TIP3   OH2 6632   4.854   5.248   0.193 -0.0448 -0.3483 -0.3109
 2223TIP3    H1 6633   4.900   5.172   0.229 -0.4304 -0.4787 -0.0896
 2223TIP3    H2 6634   4.803   5.283   0.266 -2.5465 -1.8994 -1.1916
 2224TIP3   OH2 6635   2.161   2.210   2.610 -0.5310 -0.5528 -0.7680
 2224TIP3    H1 6636   2.217   2.135   2.625  0.7673  0.4758 -0.3348
 2224TIP3    H2 6637   2.076   2.185   2.646  0.3783 -1.1337  1.0499
 2225TIP3   OH2 6638   1.403   1.752   2.062  0.2778 -0.4460 -0.3786
 2225TIP3    H1 6639   1.432   1.797   1.982 -1.1348  0.6281 -0.3221
 2225TIP3    H2 6640   1.368   1.822   2.117  3.1903 -0.8016  2.1917
 2226TIP3   OH2 6641   1.611   6.678   2.996 -0.6652  0.1774 -0.0797
 2226TIP3    H1 6642   1.633   6.736   2.923 -1.2286 -0.9283 -1.1696
 2226TIP3    H2 6643   1.681   6.613   2.997 -0.9735 -0.1587 -0.0209
 2227TIP3   OH2 6644   6.026   3.768   1.086  0.9051  0.6471  0.3194
 2227TIP3    H1 6645   5.998   3.856   1.064  0.5354  0.6312  0.7136
 2227TIP3    H2 6646   6.006   3.716   1.008  1.0113  0.8869  0.1321
 2228TIP3   OH2 6647   3.119   6.749   1.597  0.2097 -0.0192 -0.5956
 2228TIP3    H1 6648   3.180   6.752   1.523 -0.2957 -0.2545 -1.0324
 2228TIP3    H2 6649   3.167   6.788   1.669  0.0482  1.9733 -1.5099
 2229TIP3   OH2 6650   4.554   0.506   0.884  0.9153 -0.3435  0.3443
 2229TIP3    H1 6651   4.472   0.522   0.838  0.0767  0.7603  2.0883
 2229TIP3    H2 6652   4.623   0.522   0.819 -0.2171 -0.2477 -0.8635
 2230TIP3   OH2 6653   1.496   5.613   4.790  0.0745  0.7651 -0.1913
 2230TIP3    H1 6654   1.425   5.550   4.786 -0.6614  1.4424  1.2948
 2230TIP3    H2 6655   1.575   5.560   4.799 -0.4196  0.0322 -0.0937
 2231TIP3   OH2 6656   1.155   1.466   0.320 -0.0819 -0.1738 -0.0457
 2231TIP3    H1 6657   1.191   1.387   0.279  0.0388 -0.1792  0.0702
 2231TIP3    H2 6658   1.082   1.491   0.263 -0.5489 -0.7474  0.2816
 2232TIP3   OH2 6659   1.856   1.389   3.797  0.2789 -0.3618  0.1707
 2232TIP3    H1 6660   1.928   1.451   3.786 -0.6288  0.4389 -2.0684
 2232TIP3    H2 6661   1.800   1.405   3.720 -0.6890 -3.0535  0.2258
 2233TIP3   OH2 6662   4.490   5.128   5.323  0.2297 -0.0182  0.3126
 2233TIP3    H1 6663   4.511   5.205   5.270  1.2660 -0.1077  0.5620
 2233TIP3    H2 6664   4.511   5.155   5.413 -0.1751 -0.3271  0.5020
 2234TIP3   OH2 6665   4.628   1.258   0.205 -0.4962  0.0160 -0.4467
 2234TIP3    H1 6666   4.605   1.347   0.179  3.2024  1.0908 -0.5476
 2234TIP3    H2 6667   4.642   1.264   0.300  0.6704 -0.1741 -0.5888
 2235TIP3   OH2 6668   2.306   2.497   5.410 -0.3584 -0.3944  0.2265
 2235TIP3    H1 6669   2.368   2.561   5.442 -0.0204  0.0611 -1.2333
 2235TIP3    H2 6670   2.360   2.423   5.380 -0.5681 -0.3785 -0.2115
 2236TIP3   OH2 6671   2.191   3.145   0.578  0.0945  1.2835 -0.3548
 2236TIP3    H1 6672   2.122   3.098   0.625 -0.3501  0.5539 -1.7026
 2236TIP3    H2 6673   2.226   3.207   0.643 -0.9377  0.7667  0.7297
 2237TIP3   OH2 6674   1.026   1.542   0.993  0.1645 -0.2909 -0.0706
 2237TIP3    H1 6675   1.081   1.480   0.946 -0.8627 -2.2859  1.1891
 2237TIP3    H2 6676   1.073   1.560   1.075  0.2120  0.1793 -0.1980
 2238TIP3   OH2 6677   3.305   2.603   0.444  0.4774  0.5490 -0.1479
 2238TIP3    H1 6678   3.313   2.521   0.396 -1.9015 -0.5754  1.1432
 2238TIP3    H2 6679   3.214   2.630   0.430  0.6617  1.9113  1.0428
 2239TIP3   OH2 6680   7.027   1.467   4.595 -0.1855  0.3457  0.1182
 2239TIP3    H1 6681   6.966   1.475   4.521  0.3331  0.9154 -0.2521
 2239TIP3    H2 6682   7.113   1.483   4.556  0.6382 -3.5143 -0.0445
 2240TIP3   OH2 6683   3.548   5.431   3.718  0.4999  0.0016 -0.5124
 2240TIP3    H1 6684   3.465   5.394   3.690  1.5823 -0.7104 -3.1298
 2240TIP3    H2 6685   3.531   5.525   3.724 -0.3158 -0.0220 -1.9274
 2241TIP3   OH2 6686   3.573   5.777   4.188 -0.2673 -0.2836  0.2861
 2241TIP3    H1 6687   3.503   5.744   4.132  0.1457 -2.3575  0.9319
 2241TIP3    H2 6688   3.528   5.813   4.264 -0.7095  0.4576 -0.3086
 2242TIP3   OH2 6689   6.844   6.731   1.324 -0.1165  0.1962 -0.2578
 2242TIP3    H1 6690   6.775   6.766   1.380 -0.5549  0.8993 -1.2147
 2242TIP3    H2 6691   6.811   6.743   1.235  0.6530 -0.7164 -0.6801
 2243TIP3   OH2 6692   0.468   4.102   1.627 -0.0541  0.0146  0.1805
 2243TIP3    H1 6693   0.485   4.168   1.694 -1.0829 -0.1964  0.6821
 2243TIP3    H2 6694   0.394   4.138   1.577 -0.7208 -0.8076  0.5524
 2244TIP3   OH2 6695   5.887   3.908   0.062 -0.1834 -0.7866  1.0855
 2244TIP3    H1 6696   5.817   3.963   0.096  1.2950  1.4220  0.7582
 2244TIP3    H2 6697   5.856   3.881  -0.025 -0.5581  0.3280  0.8593
 2245TIP3   OH2 6698   5.791   4.574   3.513  0.3623 -0.1486 -0.0690
 2245TIP3    H1 6699   5.863   4.631   3.539  0.8258 -0.7093 -0.1125
 2245TIP3    H2 6700   5.773   4.597   3.422  1.8529 -1.3987 -0.7238
 2246TIP3   OH2 6701   2.264   2.482   2.049 -0.1841  0.1151 -0.0258
 2246TIP3    H1 6702   2.313   2.429   2.111  0.3727 -2.1463 -2.2574
 2246TIP3    H2 6703   2.227   2.420   1.987  1.6584  2.2917 -3.6544
 2247TIP3   OH2 6704   0.161   5.895   5.581  0.1873  0.2819  0.1960
 2247TIP3    H1 6705   0.166   5.876   5.487 -0.8030 -2.2328  0.5762
 2247TIP3    H2 6706   0.122   5.983   5.586  1.0019  0.7939 -1.7312
 2248TIP3   OH2 6707   4.962   1.118   4.371 -0.0861 -0.2297 -0.3297
 2248TIP3    H1 6708   4.888   1.058   4.357  0.1313 -0.5785  0.0157
 2248TIP3    H2 6709   4.995   1.136   4.283 -0.7634  0.1566 -0.5113
 2249TIP3   OH2 6710   0.959   6.671   4.481  0.1142  0.3832  0.0220
 2249TIP3    H1 6711   0.990   6.718   4.403 -0.5064 -0.0274 -0.4818
 2249TIP3    H2 6712   1.021   6.695   4.549  3.0562 -2.2899 -1.4683
 2250TIP3   OH2 6713   2.728   3.951   3.978  0.2197  0.0575 -0.3905
 2250TIP3    H1 6714   2.809   4.001   3.971 -0.2221  0.7641 -0.5828
 2250TIP3    H2 6715   2.675   4.001   4.040  0.2143 -0.7996  0.3198
 2251TIP3   OH2 6716   6.284   5.263   0.399  0.5256  0.0213  0.3107
 2251TIP3    H1 6717   6.320   5.343   0.438 -0.1525  1.5900 -2.0870
 2251TIP3    H2 6718   6.209   5.241   0.453 -0.6058  2.3272 -0.2060
 2252TIP3   OH2 6719   5.001   4.490   3.805 -0.4629 -0.0368 -0.0482
 2252TIP3    H1 6720   4.931   4.526   3.751  1.0539  1.4486 -1.1051
 2252TIP3    H2 6721   5.071   4.555   3.802  0.1291 -0.3871  2.8750
 2253TIP3   OH2 6722   2.338   6.064   2.976  0.1545  0.1794  0.3562
 2253TIP3    H1 6723   2.431   6.081   2.962  0.3674  0.3772  1.8379
 2253TIP3    H2 6724   2.294   6.130   2.923  0.7524 -1.3552 -2.2454
 2254TIP3   OH2 6725   5.125   3.266   2.233 -0.0283  0.3495  0.0647
 2254TIP3    H1 6726   5.052   3.283   2.174  0.1723 -0.7196 -0.5172
 2254TIP3    H2 6727   5.185   3.211   2.182  0.2722 -0.3836  1.1775
 2255TIP3   OH2 6728   1.074   0.052   4.790 -0.2596 -0.3290 -0.2514
 2255TIP3    H1 6729   1.128   0.128   4.811  0.7976 -0.7155 -1.4549
 2255TIP3    H2 6730   1.116  -0.020   4.837 -0.7993 -0.3252  0.2508
 2256TIP3   OH2 6731   6.608   0.237   2.635 -0.3062 -0.4368  0.1311
 2256TIP3    H1 6732   6.618   0.203   2.546 -3.4948  2.2858 -1.4856
 2256TIP3    H2 6733   6.514   0.250   2.646  0.2116  2.7463  2.4361
 2257TIP3   OH2 6734   6.964   4.762   0.225  0.0724 -0.3340  0.5603
 2257TIP3    H1 6735   6.997   4.692   0.280  0.5979  0.1170  0.8229
 2257TIP3    H2 6736   6.928   4.826   0.286  1.3257  0.5149  0.4352
 2258TIP3   OH2 6737   1.600   3.595   1.397 -0.1218 -0.4141 -0.4510
 2258TIP3    H1 6738   1.629   3.532   1.463  0.3343  1.0140  0.7787
 2258TIP3    H2 6739   1.505   3.596   1.406 -0.0989 -0.5973 -0.1534
 2259TIP3   OH2 6740   1.627   6.032   3.035 -0.1983 -0.3978 -0.6885
 2259TIP3    H1 6741   1.610   5.937   3.040  0.0700 -0.4056  0.4910
 2259TIP3    H2 6742   1.583   6.068   3.112  1.2944  0.1746 -0.0680
 2260TIP3   OH2 6743   5.987   4.763   3.552 -0.3454 -0.3637 -0.3010
 2260TIP3    H1 6744   6.034   4.844   3.532 -0.5261 -0.4423 -1.0834
 2260TIP3    H2 6745   5.981   4.762   3.647 -1.9787  1.4850 -0.3282
 2261TIP3   OH2 6746   3.439   2.833   3.535  0.1676  0.3346  0.3958
 2261TIP3    H1 6747   3.360   2.779   3.541 -0.9987  1.8851 -0.2404
 2261TIP3    H2 6748   3.471   2.838   3.625  1.8962 -3.5174  0.1967
 2262TIP3   OH2 6749   2.202   1.476   2.257 -0.2562 -0.1300  1.0561
 2262TIP3    H1 6750   2.207   1.393   2.210  0.0837  0.1594  0.5792
 2262TIP3    H2 6751   2.130   1.523   2.216  1.6997  1.2462 -1.0341
 2263TIP3   OH2 6752   2.847   1.892   0.801 -0.1590 -1.1969  0.0345
 2263TIP3    H1 6753   2.774   1.830   0.806 -0.2188 -1.0304  1.6005
 2263TIP3    H2 6754   2.900   1.873   0.878 -0.0534  0.5528  0.4323
 2264TIP3   OH2 6755   2.470   0.824   3.156  1.0738  0.8753 -0.1961
 2264TIP3    H1 6756   2.542   0.840   3.096  0.5639 -0.2973 -1.1542
 2264TIP3    H2 6757   2.447   0.732   3.143 -0.7944  1.2875 -0.1692
 2265TIP3   OH2 6758   5.003   4.691   3.259 -0.0970 -0.6794 -0.0323
 2265TIP3    H1 6759   4.976   4.722   3.172  0.3770 -0.8392 -0.2408
 2265TIP3    H2 6760   4.923   4.653   3.296 -0.1041 -1.4245 -0.7652
 2266TIP3   OH2 6761   1.642   1.392   5.111 -0.0242  0.2272 -0.2214
 2266TIP3    H1 6762   1.737   1.395   5.121  0.1700 -0.4105 -1.5715
 2266TIP3    H2 6763   1.611   1.341   5.185  0.9078 -1.2431 -0.8048
 2267TIP3   OH2 6764   0.561   1.667   0.703  0.2034 -0.3155 -0.4419
 2267TIP3    H1 6765   0.621   1.656   0.777 -0.1635 -1.8263 -0.3401
 2267TIP3    H2 6766   0.597   1.611   0.635 -0.3914 -0.2335 -0.8274
 2268TIP3   OH2 6767   2.940   3.759   0.477 -0.3238 -0.0853  0.0261
 2268TIP3    H1 6768   2.976   3.842   0.508 -0.8783  0.3375 -0.4514
 2268TIP3    H2 6769   2.964   3.756   0.385 -1.2732  0.0715 -0.2268
 2269TIP3   OH2 6770   3.652   4.786   3.911  0.2884 -0.0635 -0.1667
 2269TIP3    H1 6771   3.624   4.704   3.871 -2.2823 -0.3004  1.8657
 2269TIP3    H2 6772   3.614   4.784   3.999  0.2956  3.2076  0.0283
 2270TIP3   OH2 6773   5.883   3.809   4.907  0.1977 -0.2571  0.4082
 2270TIP3    H1 6774   5.875   3.887   4.853  2.2545 -0.2963 -0.0300
 2270TIP3    H2 6775   5.899   3.738   4.845  2.8238 -0.2636  0.9687
 2271TIP3   OH2 6776   0.756   0.041   1.538  0.3885 -0.3584 -0.0686
 2271TIP3    H1 6777   0.669   0.075   1.521 -0.3837 -2.1370  0.0398
 2271TIP3    H2 6778   0.816   0.105   1.500 -1.0136  0.2139 -1.3729
 2272TIP3   OH2 6779   4.570   6.430   5.025 -0.1451 -0.0249 -0.1978
 2272TIP3    H1 6780   4.663   6.426   5.001 -0.4772 -1.3100 -1.3843
 2272TIP3    H2 6781   4.555   6.350   5.074 -0.6340  0.1880  0.0042
 2273TIP3   OH2 6782   6.044   5.287   2.994  0.1850 -0.4974 -0.1668
 2273TIP3    H1 6783   6.128   5.241   3.002 -1.5859 -3.7142  1.8034
 2273TIP3    H2 6784   5.993   5.233   2.934 -0.8721  0.8084 -0.4742
 2274TIP3   OH2 6785   3.185   5.609   5.485  0.7348 -0.0893  0.1862
 2274TIP3    H1 6786   3.249   5.665   5.441 -1.2775  0.7628 -1.9114
 2274TIP3    H2 6787   3.173   5.648   5.571  1.8363  0.6714  0.0163
 2275TIP3   OH2 6788   2.656   1.966   5.497  0.0128 -0.5904  0.2985
 2275TIP3    H1 6789   2.633   2.013   5.417  2.2535  0.1399 -0.0101
 2275TIP3    H2 6790   2.581   1.976   5.554 -1.0477  0.1642 -1.1604
 2276TIP3   OH2 6791   4.940   2.491   2.703  0.4315 -0.1758  0.8212
 2276TIP3    H1 6792   4.906   2.540   2.628 -0.7022  0.6023  1.8062
 2276TIP3    H2 6793   4.956   2.403   2.669 -0.0647  0.1648 -0.3304
 2277TIP3   OH2 6794   1.390   0.534   0.151  0.1671  0.4451  0.2511
 2277TIP3    H1 6795   1.429   0.620   0.167 -0.1279  0.4011  1.2751
 2277TIP3    H2 6796   1.324   0.525   0.219 -0.1220 -0.4039 -0.1339
 2278TIP3   OH2 6797   3.214   1.767   5.246  0.2978 -0.3333  0.0055
 2278TIP3    H1 6798   3.176   1.838   5.195  0.9654 -0.0299 -0.0874
 2278TIP3    H2 6799   3.154   1.755   5.319  0.7192  1.0590  0.6159
 2279TIP3   OH2 6800   6.185   2.838   1.147  0.5926 -0.0822 -0.3012
 2279TIP3    H1 6801   6.110   2.818   1.091 -0.4086 -1.0707  1.3170
 2279TIP3    H2 6802   6.241   2.894   1.092 -1.2641  0.6362 -1.5955
 2280TIP3   OH2 6803   1.391   2.810   5.068 -0.1997  0.5118  0.4630
 2280TIP3    H1 6804   1.410   2.770   5.153 -2.1711  0.1356  0.7597
 2280TIP3    H2 6805   1.472   2.854   5.044  0.2941  0.9105  2.6903
 2281TIP3   OH2 6806   0.456   3.914   5.747  0.3735  0.6544  0.0835
 2281TIP3    H1 6807   0.436   3.931   5.655 -0.1020  1.0084  0.2503
 2281TIP3    H2 6808   0.543   3.953   5.760  0.0426  1.4419  0.0145
 2282TIP3   OH2 6809   0.277   1.704   2.900  0.2272 -0.7774 -0.4113
 2282TIP3    H1 6810   0.205   1.641   2.912  0.4986 -1.0975 -0.4663
 2282TIP3    H2 6811   0.242   1.767   2.836  1.0657 -2.6370 -2.8810
 2283TIP3   OH2 6812   0.323   5.724   2.776  0.0076 -0.2119  0.6425
 2283TIP3    H1 6813   0.358   5.736   2.687  1.9679 -1.1057  1.2183
 2283TIP3    H2 6814   0.229   5.713   2.764  0.3983 -1.9511 -1.5349
 2284TIP3   OH2 6815   6.340   3.902   5.125  0.4238 -0.9086 -0.4972
 2284TIP3    H1 6816   6.395   3.876   5.199 -0.4935 -1.4200  0.0122
 2284TIP3    H2 6817   6.333   3.997   5.133 -1.7165 -1.1507  1.5838
 2285TIP3   OH2 6818   6.619   3.486   0.279  0.3050  0.3430  0.2531
 2285TIP3    H1 6819   6.540   3.461   0.326  0.5307  0.4215  0.6842
 2285TIP3    H2 6820   6.690   3.461   0.337  0.7060 -1.4573 -0.9116
 2286TIP3   OH2 6821   0.220   4.687   5.828 -0.2335 -0.0842 -0.0449
 2286TIP3    H1 6822   0.187   4.759   5.881  1.6178 -0.0092  1.0519
 2286TIP3    H2 6823   0.195   4.608   5.877  1.5824 -0.0114  1.0600
 2287TIP3   OH2 6824   6.483   4.270   1.765 -0.2384 -0.2786 -0.0543
 2287TIP3    H1 6825   6.456   4.361   1.784  0.7501 -0.1318  0.7190
 2287TIP3    H2 6826   6.565   4.279   1.718 -0.7959 -0.7621 -1.1456
 2288TIP3   OH2 6827   0.376   5.611   1.993  0.0105  0.8634 -0.0165
 2288TIP3    H1 6828   0.324   5.687   1.967 -0.6296  0.2975 -0.4141
 2288TIP3    H2 6829   0.318   5.560   2.048  0.0483  0.0884 -0.6823
 2289TIP3   OH2 6830   1.775   4.684   1.170  1.0803 -0.8070  0.0128
 2289TIP3    H1 6831   1.868   4.686   1.190  1.3215 -0.1524 -1.0668
 2289TIP3    H2 6832   1.770   4.716   1.079 -0.6382  4.5159  1.6170
 2290TIP3   OH2 6833   6.235   6.141   0.280  0.0045 -0.3166 -0.4233
 2290TIP3    H1 6834   6.260   6.183   0.362  0.9818  1.2227 -1.4781
 2290TIP3    H2 6835   6.305   6.163   0.218  0.7360 -3.6949 -1.0218
 2291TIP3   OH2 6836   2.531   5.920   0.876  0.3263  0.5210 -0.5084
 2291TIP3    H1 6837   2.598   5.870   0.922 -1.6600 -1.6456  0.1823
 2291TIP3    H2 6838   2.493   5.976   0.944 -0.0336  0.1373 -0.3927
 2292TIP3   OH2 6839   2.052   4.210   2.046  0.0438  0.4181 -0.5136
 2292TIP3    H1 6840   2.002   4.189   1.968 -0.3646  2.5348 -0.8845
 2292TIP3    H2 6841   2.143   4.211   2.017  0.2443 -2.1561 -0.1343
 2293TIP3   OH2 6842   3.873   3.813   1.675  0.2931  0.1745  0.0828
 2293TIP3    H1 6843   3.817   3.751   1.722  1.2088  1.1933  2.6986
 2293TIP3    H2 6844   3.814   3.883   1.648 -0.1471 -0.0630  0.4204
 2294TIP3   OH2 6845   6.567   1.583   0.698  0.0247 -0.3260  0.1543
 2294TIP3    H1 6846   6.650   1.537   0.705  0.4776  0.2845 -0.9084
 2294TIP3    H2 6847   6.508   1.518   0.658  0.6430 -0.0584 -1.2825
 2295TIP3   OH2 6848   0.155   3.521   1.609  0.2106 -0.1490 -0.1785
 2295TIP3    H1 6849   0.084   3.533   1.672  0.8945 -0.4686  0.6791
 2295TIP3    H2 6850   0.122   3.456   1.547 -0.0041 -0.8032  0.6068
 2296TIP3   OH2 6851   0.051   5.057   3.724  0.3622 -0.1824 -0.4399
 2296TIP3    H1 6852   0.101   5.084   3.646  0.6120  1.4451  0.2338
 2296TIP3    H2 6853   0.092   5.106   3.796  0.6100 -2.1975  0.8539
 2297TIP3   OH2 6854   6.121   5.851   1.377 -0.1226  0.1981  0.1167
 2297TIP3    H1 6855   6.163   5.883   1.297 -0.9244 -0.7470 -0.7056
 2297TIP3    H2 6856   6.046   5.909   1.390 -1.3828 -1.0451 -1.1889
 2298TIP3   OH2 6857   4.667   4.891   4.295  0.7195 -0.0031 -0.2406
 2298TIP3    H1 6858   4.699   4.936   4.373 -0.3175  0.9181 -0.3170
 2298TIP3    H2 6859   4.718   4.929   4.223 -0.5008  1.4754 -0.3669
 2299TIP3   OH2 6860   2.074   4.139   1.474 -0.0338  0.5223 -0.0469
 2299TIP3    H1 6861   2.039   4.227   1.490 -0.2906  0.3334  0.4516
 2299TIP3    H2 6862   2.015   4.102   1.409 -0.9052  0.1360  0.9315
 2300TIP3   OH2 6863   1.535   4.527   0.899 -0.0631 -1.1443 -0.3455
 2300TIP3    H1 6864   1.558   4.533   0.991 -0.9619 -0.7381 -0.1353
 2300TIP3    H2 6865   1.441   4.506   0.899 -0.0852 -1.0776 -1.1640
 2301TIP3   OH2 6866   0.142   0.073   3.012  0.1592  0.1482 -0.2664
 2301TIP3    H1 6867   0.202   0.122   3.068 -1.3824  0.5919  1.0704
 2301TIP3    H2 6868   0.153  -0.019   3.038  3.4529 -0.4828 -3.1496
 2302TIP3   OH2 6869   2.656   5.666   2.890  0.0475 -0.6719  0.0008
 2302TIP3    H1 6870   2.578   5.612   2.900 -0.5916  0.5893  3.0338
 2302TIP3    H2 6871   2.629   5.736   2.830 -1.1309 -0.3335  0.8932
 2303TIP3   OH2 6872   2.250   5.324   0.742 -0.0917 -0.1077 -0.3649
 2303TIP3    H1 6873   2.230   5.342   0.834 -2.5795 -0.0080 -0.8553
 2303TIP3    H2 6874   2.325   5.265   0.745  1.2468  1.5639  1.6153
 2304TIP3   OH2 6875   0.129   2.874   3.073 -0.2609  0.3682 -0.2213
 2304TIP3    H1 6876   0.093   2.790   3.102  0.5512 -0.0967 -0.5281
 2304TIP3    H2 6877   0.222   2.868   3.092 -0.1819  1.1676 -0.3386
 2305TIP3   OH2 6878   6.546   5.310   5.132 -0.2449 -0.3972 -0.0908
 2305TIP3    H1 6879   6.632   5.328   5.170 -0.2286  1.8085 -1.0367
 2305TIP3    H2 6880   6.488   5.375   5.173 -1.2522 -1.1457 -0.2806
 2306TIP3   OH2 6881   4.058   0.565   2.060 -0.3639  0.0878 -0.1452
 2306TIP3    H1 6882   4.018   0.540   1.977 -1.1987  3.3202 -0.8480
 2306TIP3    H2 6883   4.148   0.587   2.038 -0.1636 -0.4537  0.1125
 2307TIP3   OH2 6884   3.939   4.314   5.856  0.4757 -0.1510 -0.3812
 2307TIP3    H1 6885   4.015   4.275   5.812  1.8347  1.0857  0.7343
 2307TIP3    H2 6886   3.959   4.408   5.857 -2.3135  0.5835 -2.3389
 2308TIP3   OH2 6887   4.840   4.665   5.033 -0.3270  0.0803  0.7698
 2308TIP3    H1 6888   4.900   4.614   4.978  0.0947  0.8893  0.4696
 2308TIP3    H2 6889   4.753   4.630   5.012 -0.2167  0.5871 -0.6734
 2309TIP3   OH2 6890   3.499   2.828   0.417  0.1599  0.2371  0.1896
 2309TIP3    H1 6891   3.581   2.823   0.467 -0.1731  0.4591  0.7638
 2309TIP3    H2 6892   3.467   2.738   0.413  0.6561  0.0763 -0.4300
 2310TIP3   OH2 6893   6.486   0.947   3.181  0.3216 -0.2560  0.0159
 2310TIP3    H1 6894   6.457   0.948   3.272  0.3824 -1.4394  0.0561
 2310TIP3    H2 6895   6.473   1.038   3.152 -0.4054 -0.0298  0.9662
 2311TIP3   OH2 6896   4.661   3.086   3.884  0.2131  0.0866 -0.2189
 2311TIP3    H1 6897   4.754   3.062   3.879  0.4078  0.7073  0.3526
 2311TIP3    H2 6898   4.631   3.082   3.793  0.5408 -1.0996 -0.2939
 2312TIP3   OH2 6899   1.355   4.874   0.233  0.4216 -0.3969  0.3285
 2312TIP3    H1 6900   1.393   4.882   0.321  0.7576 -0.0898  0.1515
 2312TIP3    H2 6901   1.427   4.844   0.178  1.0647  2.4537 -0.5054
 2313TIP3   OH2 6902   2.727   3.782   4.414  0.0401 -0.3366 -0.2962
 2313TIP3    H1 6903   2.656   3.791   4.351  0.2237  1.0302 -0.3386
 2313TIP3    H2 6904   2.688   3.738   4.490 -0.2590 -1.7106 -1.2004
 2314TIP3   OH2 6905   3.564   6.610   2.182  0.2183  0.0788  0.0186
 2314TIP3    H1 6906   3.537   6.648   2.265  0.5446 -0.2534  0.2767
 2314TIP3    H2 6907   3.625   6.674   2.145  1.0646 -0.3586  0.6301
 2315TIP3   OH2 6908   2.336   1.707   2.054 -0.7843 -0.4797  0.3237
 2315TIP3    H1 6909   2.420   1.717   2.099 -1.5533 -0.3103  1.7761
 2315TIP3    H2 6910   2.337   1.617   2.021 -0.0778 -0.5135  0.4220
 2316TIP3   OH2 6911   1.686   5.605   2.513  0.2496  0.4683  0.2246
 2316TIP3    H1 6912   1.717   5.530   2.563  0.5369  1.1573  1.1069
 2316TIP3    H2 6913   1.609   5.573   2.466  1.2384 -0.7797 -0.5933
 2317TIP3   OH2 6914   0.281   2.273   2.466 -0.1479 -0.0381 -0.3508
 2317TIP3    H1 6915   0.259   2.189   2.508  0.3445  0.0965  0.1957
 2317TIP3    H2 6916   0.369   2.292   2.497 -0.3379  0.7872 -0.3091
 2318TIP3   OH2 6917   0.464   0.974   3.125  0.1510 -0.2311  0.2299
 2318TIP3    H1 6918   0.417   0.935   3.198 -0.9105  0.2234 -0.1794
 2318TIP3    H2 6919   0.446   1.068   3.133 -0.1940 -0.1995 -0.7386
 2319TIP3   OH2 6920   4.068   4.063   5.565  0.1856 -0.1800  0.4617
 2319TIP3    H1 6921   4.046   4.155   5.584 -0.9379 -0.2581 -0.3713
 2319TIP3    H2 6922   4.014   4.013   5.625  0.1412 -0.3232  0.3004
 2320TIP3   OH2 6923   5.528   4.900   1.347  0.4696  0.1739 -0.3026
 2320TIP3    H1 6924   5.523   4.828   1.410 -0.0961  0.0797 -0.4571
 2320TIP3    H2 6925   5.517   4.858   1.262 -0.0217  0.4674 -0.3813
 2321TIP3   OH2 6926   0.346   5.857   4.758  0.0699 -0.5718  0.2880
 2321TIP3    H1 6927   0.251   5.850   4.761 -0.2680  2.8081  1.2088
 2321TIP3    H2 6928   0.366   5.883   4.668  0.1382 -1.0939  0.1467
 2322TIP3   OH2 6929   4.064   1.744   2.661 -0.8473  0.5753  0.0998
 2322TIP3    H1 6930   4.057   1.837   2.684  0.7271  1.0510 -1.1337
 2322TIP3    H2 6931   3.981   1.706   2.688 -0.7620  1.9073  2.5826
 2323TIP3   OH2 6932   6.592   3.668   0.596  0.2647 -0.1428 -0.2127
 2323TIP3    H1 6933   6.672   3.682   0.544 -0.5830  0.0962 -1.5153
 2323TIP3    H2 6934   6.531   3.734   0.563 -0.4821 -0.3459  0.7366
 2324TIP3   OH2 6935   5.501   5.199   0.761 -0.9335  0.3998 -0.8213
 2324TIP3    H1 6936   5.477   5.252   0.838  1.1905  0.9530 -0.4717
 2324TIP3    H2 6937   5.430   5.215   0.698 -2.4813  0.3049  0.8304
 2325TIP3   OH2 6938   4.736   5.257   2.669  0.1607  0.5561 -0.3749
 2325TIP3    H1 6939   4.767   5.322   2.606  2.3382 -1.1512 -1.2431
 2325TIP3    H2 6940   4.807   5.250   2.733 -1.5132  1.4092  1.6880
 2326TIP3   OH2 6941   3.491   1.991   3.076  0.3813  0.1800  0.1214
 2326TIP3    H1 6942   3.446   2.071   3.047 -0.4800 -0.1484  0.5266
 2326TIP3    H2 6943   3.571   2.023   3.118  0.0476  0.8351  0.2761
 2327TIP3   OH2 6944   7.073   5.394   2.576 -0.1922  0.4470  0.2345
 2327TIP3    H1 6945   7.014   5.433   2.512  0.4012 -2.1764 -2.1632
 2327TIP3    H2 6946   7.149   5.451   2.577 -0.1466  0.4828 -1.6228
 2328TIP3   OH2 6947   0.523   6.815   5.314  0.1697 -0.0788 -0.0592
 2328TIP3    H1 6948   0.457   6.767   5.363  0.4880 -0.1808  0.2748
 2328TIP3    H2 6949   0.587   6.749   5.288  0.2876  0.0653 -0.1378
 2329TIP3   OH2 6950   2.108   6.737   5.332  0.2505 -0.0519  0.3517
 2329TIP3    H1 6951   2.162   6.815   5.340 -1.6065  1.3583 -0.2707
 2329TIP3    H2 6952   2.149   6.674   5.392  2.0832  1.1879  0.4919
 2330TIP3   OH2 6953   4.482   0.750   5.029  0.4427 -0.0277  0.0789
 2330TIP3    H1 6954   4.497   0.835   4.987 -0.6234 -0.0789 -0.4494
 2330TIP3    H2 6955   4.492   0.767   5.122 -0.2084  0.7929  0.0167
 2331TIP3   OH2 6956   1.063   1.661   0.002 -0.5467  0.0924 -0.2892
 2331TIP3    H1 6957   0.991   1.612   0.042 -0.1794 -1.2864 -1.2553
 2331TIP3    H2 6958   1.132   1.660   0.069 -0.9595  0.3157  0.1478
 2332TIP3   OH2 6959   3.826   2.754   5.712 -0.1118 -0.5509  0.6480
 2332TIP3    H1 6960   3.860   2.822   5.653 -1.0149  0.2117  0.9806
 2332TIP3    H2 6961   3.856   2.781   5.799  1.0686 -1.5804  0.6005
 2333TIP3   OH2 6962   2.259   0.406   3.831  0.0005  0.7326  0.1677
 2333TIP3    H1 6963   2.196   0.450   3.888  1.6856  0.2608  2.5550
 2333TIP3    H2 6964   2.325   0.473   3.812 -0.2178  0.7052 -0.7187
 2334TIP3   OH2 6965   3.722   1.899   3.678 -0.3724 -0.6746 -0.1571
 2334TIP3    H1 6966   3.652   1.915   3.615  0.1214 -0.8740 -0.7624
 2334TIP3    H2 6967   3.786   1.846   3.630  0.3503 -0.2167  0.2870
 2335TIP3   OH2 6968   1.589   2.072   1.447  0.4694 -0.2561  0.2218
 2335TIP3    H1 6969   1.603   1.992   1.497  2.5344  0.2843  0.6051
 2335TIP3    H2 6970   1.523   2.049   1.382  0.9765 -2.2324  0.3525
 2336TIP3   OH2 6971   1.403   5.499   4.398  0.1841  0.3800 -0.0907
 2336TIP3    H1 6972   1.323   5.493   4.451  1.3062 -1.7861  1.5271
 2336TIP3    H2 6973   1.407   5.415   4.351  0.9360  0.9346 -1.0720
 2337TIP3   OH2 6974   4.164   4.647   3.287 -0.1087  0.0766  0.0845
 2337TIP3    H1 6975   4.144   4.663   3.380  0.5203  0.7065  0.1224
 2337TIP3    H2 6976   4.208   4.727   3.258  0.2704 -0.3658 -0.5922
 2338TIP3   OH2 6977   3.484   3.952   5.388  0.3549 -0.4529 -0.1916
 2338TIP3    H1 6978   3.508   4.001   5.309  0.1257  0.1040  0.0739
 2338TIP3    H2 6979   3.556   3.967   5.448  0.8001 -1.3450 -0.4846
 2339TIP3   OH2 6980   5.352   2.105   3.732  0.2091 -0.3326  0.1770
 2339TIP3    H1 6981   5.375   2.184   3.779  0.8677 -0.9083  0.8515
 2339TIP3    H2 6982   5.432   2.080   3.686  0.0522 -0.6797  0.0811
 2340TIP3   OH2 6983   4.170   2.142   4.539  0.1712 -0.2481  0.0032
 2340TIP3    H1 6984   4.203   2.230   4.520 -3.5956  0.9639 -2.0356
 2340TIP3    H2 6985   4.095   2.157   4.597 -0.9556 -2.0100 -0.9030
 2341TIP3   OH2 6986   6.099   5.002   5.288 -0.4574  0.0398  0.1863
 2341TIP3    H1 6987   6.149   4.924   5.312  1.3322  1.2645  0.7332
 2341TIP3    H2 6988   6.045   5.021   5.365 -1.2127 -0.8572 -0.1068
 2342TIP3   OH2 6989   5.924   5.953   4.140 -0.0535  0.2579  0.0901
 2342TIP3    H1 6990   5.962   5.990   4.060  0.5890  0.2718  0.3928
 2342TIP3    H2 6991   5.998   5.910   4.183 -0.1448  1.1935  1.2264
 2343TIP3   OH2 6992   0.936   3.499   2.613 -0.1850 -0.0982 -0.2438
 2343TIP3    H1 6993   0.926   3.413   2.655 -0.2040  1.0141  2.2166
 2343TIP3    H2 6994   1.022   3.496   2.573 -0.0443 -1.1479  0.0853
 2344TIP3   OH2 6995   3.362   4.188   2.302  0.2238  0.1597 -0.3446
 2344TIP3    H1 6996   3.441   4.146   2.335 -0.6969 -0.7719  0.7519
 2344TIP3    H2 6997   3.375   4.281   2.320  1.1965  0.0562 -0.4661
 2345TIP3   OH2 6998   0.963   4.992   5.706  0.2304 -0.0756  0.8220
 2345TIP3    H1 6999   1.053   4.969   5.687  0.9231  2.2760  0.9135
 2345TIP3    H2 7000   0.916   4.909   5.704  2.1735 -1.2287 -0.3342
 2346TIP3   OH2 7001   6.151   5.534   3.057  0.2139 -0.7369  0.0875
 2346TIP3    H1 7002   6.120   5.443   3.053  1.8831 -1.3162 -0.7456
 2346TIP3    H2 7003   6.197   5.539   3.141 -0.4270 -0.4533  0.4290
 2347TIP3   OH2 7004   1.140   5.811   4.056  0.1631  0.0965 -0.1190
 2347TIP3    H1 7005   1.143   5.809   4.152  1.0518 -1.9457 -0.1361
 2347TIP3    H2 7006   1.058   5.767   4.034 -0.1298  0.7301 -0.3011
 2348TIP3   OH2 7007   4.133   5.835   1.949 -0.3052 -0.4919 -0.2893
 2348TIP3    H1 7008   4.162   5.763   2.005  1.1159  0.8674  0.8177
 2348TIP3    H2 7009   4.189   5.908   1.973 -2.7530  1.4981 -0.1548
 2349TIP3   OH2 7010   0.406   4.380   3.247  0.3613  0.0821 -0.1377
 2349TIP3    H1 7011   0.323   4.396   3.291  1.8039  0.0644  2.8708
 2349TIP3    H2 7012   0.407   4.285   3.230 -0.6342  0.2450 -1.2018
 2350TIP3   OH2 7013   4.675   4.709   0.147  0.0312  0.0662  0.3702
 2350TIP3    H1 7014   4.625   4.631   0.171  0.7129  0.1410  2.1721
 2350TIP3    H2 7015   4.665   4.715   0.052 -0.9982 -1.5354  0.3306
 2351TIP3   OH2 7016   2.620   6.677   4.079 -0.3823  0.2117  0.0964
 2351TIP3    H1 7017   2.577   6.705   3.998  0.4302 -3.8458 -2.0029
 2351TIP3    H2 7018   2.696   6.735   4.087 -1.0049  1.3152 -1.4758
 2352TIP3   OH2 7019   3.508   0.593   2.467 -0.1555 -0.4779  0.4914
 2352TIP3    H1 7020   3.549   0.662   2.518 -2.6200  0.9869  0.5990
 2352TIP3    H2 7021   3.554   0.513   2.494  0.8819  0.7052  2.4290
 2353TIP3   OH2 7022   4.975   4.895   0.565  0.3586  0.4293 -0.5095
 2353TIP3    H1 7023   4.889   4.903   0.523  0.6938 -0.2143 -1.3333
 2353TIP3    H2 7024   4.971   4.958   0.637 -0.0740  1.8871 -1.7404
 2354TIP3   OH2 7025   3.672   1.755   0.032  0.5700  0.3271  0.0161
 2354TIP3    H1 7026   3.582   1.785   0.038  0.4011  0.2355 -1.5968
 2354TIP3    H2 7027   3.674   1.673   0.081  0.3071  1.3580  1.8430
 2355TIP3   OH2 7028   0.893   6.607   5.499 -0.1381  0.8001  0.3111
 2355TIP3    H1 7029   0.807   6.566   5.501 -0.6203  1.7889  1.4406
 2355TIP3    H2 7030   0.921   6.601   5.408 -0.8644 -0.6107  0.1643
 2356TIP3   OH2 7031   6.381   4.491   5.316  0.4932  0.4133 -0.5819
 2356TIP3    H1 7032   6.420   4.566   5.272  0.2797  1.3593  0.7536
 2356TIP3    H2 7033   6.422   4.414   5.277  0.5413  1.2083 -2.1508
 2357TIP3   OH2 7034   0.788   5.140   1.468  0.5645  0.1866  0.0156
 2357TIP3    H1 7035   0.701   5.136   1.509 -0.7296  1.4207 -2.3773
 2357TIP3    H2 7036   0.837   5.069   1.510 -1.0797  0.3801  2.5113
 2358TIP3   OH2 7037   4.359   3.186   1.162  0.3404  0.4297  0.3092
 2358TIP3    H1 7038   4.420   3.126   1.119  0.9758  1.0382  0.3594
 2358TIP3    H2 7039   4.387   3.187   1.253 -0.0905  0.2884  0.4457
 2359TIP3   OH2 7040   4.684   5.164   4.887  0.1607  0.3755 -0.4019
 2359TIP3    H1 7041   4.719   5.075   4.887  1.3982  0.7463 -3.5869
 2359TIP3    H2 7042   4.731   5.208   4.957  2.3661 -0.5124 -1.2544
 2360TIP3   OH2 7043   4.680   0.573   5.247  0.0980  0.5663 -0.1264
 2360TIP3    H1 7044   4.631   0.635   5.301  0.5183  0.2513  0.6305
 2360TIP3    H2 7045   4.622   0.555   5.173 -1.2726 -0.3761  1.1238
 2361TIP3   OH2 7046   2.470   2.283   3.328  0.3802 -0.1856  0.3173
 2361TIP3    H1 7047   2.488   2.190   3.312 -1.3674 -0.4898 -0.0697
 2361TIP3    H2 7048   2.405   2.283   3.398 -1.0052  0.6475 -0.9184
 2362TIP3   OH2 7049   5.054   0.141   4.295  0.7351  0.1568  0.1484
 2362TIP3    H1 7050   5.011   0.125   4.379  1.1576 -2.2959 -0.0367
 2362TIP3    H2 7051   4.982   0.157   4.234  0.4258  1.9405  0.9223
 2363TIP3   OH2 7052   3.151   6.172   3.451 -0.9272 -0.1973  0.1140
 2363TIP3    H1 7053   3.080   6.210   3.502 -2.2826 -0.8360 -1.2275
 2363TIP3    H2 7054   3.124   6.082   3.434  0.6959 -0.7859  0.4418
 2364TIP3   OH2 7055   1.712   4.610   4.226 -0.1816 -0.1293  0.0362
 2364TIP3    H1 7056   1.619   4.626   4.210 -0.9644 -3.3251  0.6907
 2364TIP3    H2 7057   1.739   4.680   4.286 -2.5430  0.0526  0.9784
 2365TIP3   OH2 7058   5.726   1.441   2.580  0.3704  0.3078 -0.0155
 2365TIP3    H1 7059   5.784   1.410   2.649 -0.2285  1.0600  0.8495
 2365TIP3    H2 7060   5.725   1.537   2.590  2.8727  0.8514 -3.1520
 2366TIP3   OH2 7061   6.474   4.606   2.165  0.0197 -0.2058 -0.5192
 2366TIP3    H1 7062   6.402   4.616   2.228  1.1507  1.3284  0.6084
 2366TIP3    H2 7063   6.473   4.688   2.115  2.2733  0.8361  0.9936
 2367TIP3   OH2 7064   1.972   3.345   0.037  0.8324 -0.2122  0.7614
 2367TIP3    H1 7065   2.054   3.297   0.022  1.1511 -0.2289  2.3141
 2367TIP3    H2 7066   2.000   3.433   0.063  0.2825  0.4215 -0.7229
 2368TIP3   OH2 7067   2.727   1.390   0.264 -0.2013 -0.2436  0.2244
 2368TIP3    H1 7068   2.720   1.307   0.216  1.2191 -1.4418  1.9491
 2368TIP3    H2 7069   2.789   1.442   0.214 -0.2760 -0.6439 -0.2949
 2369TIP3   OH2 7070   4.127   6.579   4.587 -0.5180  0.5264  0.2308
 2369TIP3    H1 7071   4.074   6.649   4.550 -1.1948 -0.4260 -0.6734
 2369TIP3    H2 7072   4.201   6.570   4.527  0.5636  1.6733  1.3463
 2370TIP3   OH2 7073   1.476   0.192   1.664 -0.2254 -0.0404  0.3560
 2370TIP3    H1 7074   1.456   0.133   1.736 -0.8041 -1.3842 -0.8618
 2370TIP3    H2 7075   1.568   0.175   1.644  0.4093  1.4781  1.7535
 2371TIP3   OH2 7076   1.280   4.046   3.786  0.4028 -0.0612 -0.7459
 2371TIP3    H1 7077   1.222   4.117   3.816  0.9987 -0.5263  1.7561
 2371TIP3    H2 7078   1.368   4.079   3.803  0.6784 -1.7339  1.5299
 2372TIP3   OH2 7079   7.085   1.286   1.190  0.0055  0.0833  0.1705
 2372TIP3    H1 7080   7.091   1.253   1.280 -0.6313 -1.0938 -0.1852
 2372TIP3    H2 7081   7.046   1.213   1.142  0.9442  0.4611 -1.1955
 2373TIP3   OH2 7082   5.931   2.957   5.791  0.5804  0.3636 -0.5586
 2373TIP3    H1 7083   5.998   3.023   5.810 -0.0722  1.1920 -1.0361
 2373TIP3    H2 7084   5.877   2.998   5.723 -0.7232 -0.0634  0.1966
 2374TIP3   OH2 7085   6.630   3.709   2.023  0.0005 -0.3201 -0.4713
 2374TIP3    H1 7086   6.686   3.677   2.095 -0.2584  0.5023  0.1035
 2374TIP3    H2 7087   6.543   3.714   2.061 -0.0800  0.4369 -0.7399
 2375TIP3   OH2 7088   3.841   3.367   5.694 -0.2413  0.0747 -0.2116
 2375TIP3    H1 7089   3.870   3.289   5.647  1.2999 -0.6186  1.7386
 2375TIP3    H2 7090   3.752   3.383   5.662 -0.1388 -1.7146 -1.5605
 2376TIP3   OH2 7091   6.704   3.394   1.316  0.2497  0.3586  0.1175
 2376TIP3    H1 7092   6.707   3.368   1.408 -0.4998 -2.1186 -0.4911
 2376TIP3    H2 7093   6.656   3.477   1.316 -1.3698 -0.5097  1.7903
 2377TIP3   OH2 7094   5.670   3.928   3.938  0.3502 -0.3990 -0.3587
 2377TIP3    H1 7095   5.616   4.007   3.948 -1.6456 -1.7019 -0.0971
 2377TIP3    H2 7096   5.711   3.916   4.024 -2.2491 -1.5583  0.8329
 2378TIP3   OH2 7097   5.065   6.103   3.119  0.5558  0.3628 -0.4770
 2378TIP3    H1 7098   5.091   6.062   3.202 -0.0138 -0.4135 -0.6751
 2378TIP3    H2 7099   5.129   6.173   3.107  0.0385  1.1667  1.1326
 2379TIP3   OH2 7100   1.502   5.952   5.685 -0.6093  1.1035 -0.8554
 2379TIP3    H1 7101   1.596   5.968   5.680 -0.5304  1.0681  0.2343
 2379TIP3    H2 7102   1.467   6.030   5.728 -1.2546  1.6479 -2.3081
 2380TIP3   OH2 7103   5.245   1.282   3.390 -0.4013  0.5145  0.1693
 2380TIP3    H1 7104   5.217   1.193   3.368  0.3035  0.5229 -0.8627
 2380TIP3    H2 7105   5.172   1.337   3.362 -0.9091  0.2597  0.9625
 2381TIP3   OH2 7106   6.262   5.488   2.679  0.0040  0.5011  0.6408
 2381TIP3    H1 7107   6.318   5.565   2.672  0.0528  0.3503 -1.0153
 2381TIP3    H2 7108   6.313   5.426   2.732  0.8910  0.8006  0.1572
 2382TIP3   OH2 7109   2.714   5.551   5.582 -0.5673 -0.4482 -0.3954
 2382TIP3    H1 7110   2.692   5.462   5.554 -0.0276 -0.2589 -1.4822
 2382TIP3    H2 7111   2.636   5.581   5.630 -1.7931 -0.6168 -2.1637
 2383TIP3   OH2 7112   4.920   5.094   3.127 -0.1172 -0.4515 -0.1224
 2383TIP3    H1 7113   4.832   5.057   3.135  0.1983 -1.0034  1.0718
 2383TIP3    H2 7114   4.911   5.183   3.162  0.1110 -1.0600  1.6103
 2384TIP3   OH2 7115   6.321   4.317   1.217 -0.0801  0.1160 -0.3480
 2384TIP3    H1 7116   6.322   4.382   1.147  3.3749  1.2114  0.5439
 2384TIP3    H2 7117   6.248   4.344   1.273  0.2129  2.2175 -0.8971
 2385TIP3   OH2 7118   3.110   5.465   1.312 -0.0819 -0.2623  0.4714
 2385TIP3    H1 7119   3.136   5.548   1.272 -0.2517 -0.5079 -0.1579
 2385TIP3    H2 7120   3.145   5.470   1.401  1.4434 -0.2516 -0.0943
 2386TIP3   OH2 7121   5.472   5.893   0.585 -0.1889 -0.4155  0.0140
 2386TIP3    H1 7122   5.564   5.894   0.560 -0.0432 -0.1477  0.5471
 2386TIP3    H2 7123   5.447   5.800   0.581 -0.1026 -0.4080 -0.8496
 2387TIP3   OH2 7124   3.300   5.937   1.166 -0.2013 -0.2486  0.1807
 2387TIP3    H1 7125   3.328   5.949   1.257  0.4490  0.1230 -0.0579
 2387TIP3    H2 7126   3.379   5.954   1.115 -1.2025  2.5097 -0.6371
 2388TIP3   OH2 7127   0.425   5.281   1.361  0.0346  0.0858 -0.3577
 2388TIP3    H1 7128   0.437   5.330   1.442 -0.3057  2.3107 -1.5906
 2388TIP3    H2 7129   0.358   5.216   1.382  0.5258  0.0742  1.3253
 2389TIP3   OH2 7130   6.283   4.641   5.650  0.0094 -0.1034 -0.6336
 2389TIP3    H1 7131   6.195   4.673   5.631  0.1350  0.3218 -0.5078
 2389TIP3    H2 7132   6.270   4.555   5.689 -0.2377 -1.3045 -3.1789
 2390TIP3   OH2 7133   6.299   0.426   5.416  0.0234 -0.0109 -0.0041
 2390TIP3    H1 7134   6.297   0.439   5.511 -1.2759 -0.3725  0.0451
 2390TIP3    H2 7135   6.295   0.331   5.405 -1.4251  0.0665 -0.4082
 2391TIP3   OH2 7136   7.162   4.010   5.317  0.3974 -0.0758 -0.0794
 2391TIP3    H1 7137   7.073   4.019   5.283  0.3119  0.4023  0.2741
 2391TIP3    H2 7138   7.168   4.074   5.387  0.2574 -1.6854  1.4926
 2392TIP3   OH2 7139   5.690   2.192   2.791  0.0775  0.2638 -0.0177
 2392TIP3    H1 7140   5.604   2.220   2.761 -0.0883  1.3868  1.3753
 2392TIP3    H2 7141   5.684   2.097   2.797 -0.2688  0.0911 -2.1888
 2393TIP3   OH2 7142   5.306   2.709   5.690 -0.3965  0.2630  0.3144
 2393TIP3    H1 7143   5.397   2.686   5.709 -1.2105 -1.7816  2.1584
 2393TIP3    H2 7144   5.279   2.765   5.762 -1.1453 -0.8111  0.9001
 2394TIP3   OH2 7145   0.130   5.575   0.034  0.0779 -0.3968  0.3815
 2394TIP3    H1 7146   0.216   5.615   0.039  0.0140 -0.2052 -0.0985
 2394TIP3    H2 7147   0.135   5.501   0.095  1.1756 -1.4977 -0.9991
 2395TIP3   OH2 7148   6.388   1.006   2.165  0.3140  0.1203 -0.5514
 2395TIP3    H1 7149   6.317   0.990   2.103  1.0957  1.8655 -1.9693
 2395TIP3    H2 7150   6.467   0.985   2.116  0.9194  0.8014  0.1221
 2396TIP3   OH2 7151   4.715   3.299   2.041  0.1356 -0.3223 -0.3418
 2396TIP3    H1 7152   4.764   3.318   2.121  1.8231 -2.3004 -0.7918
 2396TIP3    H2 7153   4.702   3.384   2.000  1.6104  0.4704  0.7272
 2397TIP3   OH2 7154   1.292   2.582   4.571  0.3841 -0.1293  0.6218
 2397TIP3    H1 7155   1.242   2.601   4.650 -0.4853  0.3057 -0.0198
 2397TIP3    H2 7156   1.362   2.647   4.570 -1.4532  1.9610 -0.5710
 2398TIP3   OH2 7157   3.448   1.398   4.218  0.1094 -0.6845 -0.7941
 2398TIP3    H1 7158   3.438   1.346   4.297 -0.0829  1.0391  0.3675
 2398TIP3    H2 7159   3.368   1.451   4.213 -0.4119 -1.5801 -2.8009
 2399TIP3   OH2 7160   0.232   2.435   1.020 -0.1145  0.4568  0.1484
 2399TIP3    H1 7161   0.155   2.445   0.963 -0.7116 -0.2020  0.8165
 2399TIP3    H2 7162   0.259   2.344   1.007  0.6907  0.7424 -0.2385
 2400TIP3   OH2 7163   4.619   3.748   1.795  0.3024  0.0672  0.1308
 2400TIP3    H1 7164   4.688   3.814   1.789 -1.0739  1.8354  2.2994
 2400TIP3    H2 7165   4.539   3.798   1.812 -1.1281 -2.0703  0.1464
 2401TIP3   OH2 7166   3.447   6.688   1.225 -0.5405  0.6113  0.2752
 2401TIP3    H1 7167   3.465   6.613   1.282  1.2858  0.1906 -0.7629
 2401TIP3    H2 7168   3.414   6.649   1.144  1.0202  0.8422 -0.5021
 2402TIP3   OH2 7169   6.160   0.593   2.984 -0.1834 -0.4793  0.1303
 2402TIP3    H1 7170   6.162   0.579   2.890 -1.5348 -0.6574  0.1186
 2402TIP3    H2 7171   6.195   0.681   2.996  2.0472 -1.2379 -0.3372
 2403TIP3   OH2 7172   6.879   6.453   0.953 -0.5246 -0.6036  0.5621
 2403TIP3    H1 7173   6.806   6.425   1.008 -0.3891 -1.3299  0.3765
 2403TIP3    H2 7174   6.844   6.529   0.905 -0.5018  0.3333  1.9571
 2404TIP3   OH2 7175   6.745   5.596   2.204  0.1828 -0.1002 -0.0854
 2404TIP3    H1 7176   6.730   5.625   2.114  2.0095 -0.6292 -0.6010
 2404TIP3    H2 7177   6.795   5.515   2.195  0.3361 -0.2065  1.4264
 2405TIP3   OH2 7178   0.161   4.781   5.459 -0.0238  0.6447 -0.1986
 2405TIP3    H1 7179   0.120   4.864   5.484 -0.5097  0.0253  1.1901
 2405TIP3    H2 7180   0.254   4.801   5.452 -0.3501  1.7416 -1.9274
 2406TIP3   OH2 7181   5.007   2.685   5.617  0.4849 -0.0313  0.5275
 2406TIP3    H1 7182   5.087   2.695   5.668  2.0166  0.9709 -1.8816
 2406TIP3    H2 7183   4.958   2.765   5.632  0.0247 -0.5191  1.7737
 2407TIP3   OH2 7184   0.878   0.820   3.357  0.1326  0.0239 -0.1723
 2407TIP3    H1 7185   0.966   0.842   3.327  1.1681 -1.2156  1.7527
 2407TIP3    H2 7186   0.886   0.814   3.452 -1.8428 -0.9604 -0.0160
 2408TIP3   OH2 7187   0.303   0.883   3.332  0.1496  0.0168 -0.1860
 2408TIP3    H1 7188   0.217   0.923   3.348 -0.0309  0.1122 -1.2886
 2408TIP3    H2 7189   0.282   0.795   3.298  0.4806  0.0330 -0.4344
 2409TIP3   OH2 7190   3.486   3.116   1.889 -0.5479  0.2093 -0.3883
 2409TIP3    H1 7191   3.443   3.031   1.903 -1.7707  1.1549  2.1322
 2409TIP3    H2 7192   3.567   3.111   1.940  1.1314 -0.5487 -2.9150
 2410TIP3   OH2 7193   5.416   4.464   2.278 -0.6730  0.4044 -0.2918
 2410TIP3    H1 7194   5.321   4.464   2.283 -0.6590 -0.0211  0.0426
 2410TIP3    H2 7195   5.436   4.498   2.190 -1.1449 -0.0377 -0.5751
 2411TIP3   OH2 7196   3.511   5.285   4.275 -0.5469 -0.3845  0.3126
 2411TIP3    H1 7197   3.524   5.312   4.184  1.1636 -1.4247  0.2060
 2411TIP3    H2 7198   3.426   5.322   4.299 -0.8503  0.2515 -1.5716
 2412TIP3   OH2 7199   0.586   1.115   3.889  0.7615  0.2452 -0.6875
 2412TIP3    H1 7200   0.500   1.150   3.866  0.7598  0.5995 -0.1547
 2412TIP3    H2 7201   0.596   1.134   3.982  1.1480 -0.3655 -0.5961
 2413TIP3   OH2 7202   3.580   1.908   1.316 -0.0985  0.0896  0.4319
 2413TIP3    H1 7203   3.542   1.883   1.401 -1.0675  0.6865  0.1919
 2413TIP3    H2 7204   3.510   1.890   1.253  0.0017  1.2595 -0.0232
 2414TIP3   OH2 7205   3.748   5.771   3.301  0.3317 -0.4462  0.2066
 2414TIP3    H1 7206   3.728   5.799   3.390 -0.8771 -0.0616 -0.1699
 2414TIP3    H2 7207   3.709   5.838   3.245 -0.3020 -1.4875 -0.6460
 2415TIP3   OH2 7208   0.449   1.607   0.273  0.2418 -0.1113  0.8150
 2415TIP3    H1 7209   0.453   1.653   0.189 -0.7250 -0.1571  0.7338
 2415TIP3    H2 7210   0.445   1.677   0.338 -5.1664  0.2080  0.5630
 2416TIP3   OH2 7211   6.644   4.564   1.306 -0.6562  0.1722  0.0675
 2416TIP3    H1 7212   6.563   4.611   1.288  0.1548  1.6810  0.2096
 2416TIP3    H2 7213   6.713   4.627   1.287  0.4714 -0.9192  0.4340
 2417TIP3   OH2 7214   5.336   3.550   0.561  0.9673  0.3773  0.5376
 2417TIP3    H1 7215   5.380   3.609   0.499 -0.4945  0.4294 -0.5021
 2417TIP3    H2 7216   5.270   3.604   0.603  0.4789 -0.1950  0.5221
 2418TIP3   OH2 7217   5.108   6.667   3.885  0.0109 -0.0642 -0.0339
 2418TIP3    H1 7218   5.033   6.693   3.938  0.7733  0.8851  0.6022
 2418TIP3    H2 7219   5.156   6.748   3.869  1.3813 -0.7723  0.3167
 2419TIP3   OH2 7220   2.936   6.630   3.908  1.0119  0.3655 -0.2054
 2419TIP3    H1 7221   2.873   6.561   3.887  1.3077 -0.0219  0.1496
 2419TIP3    H2 7222   2.948   6.677   3.826 -2.1220  2.4823  0.3927
 2420TIP3   OH2 7223   6.493   1.734   2.556  0.4896  0.2027 -0.8156
 2420TIP3    H1 7224   6.422   1.718   2.618  1.3740 -1.5176 -0.1836
 2420TIP3    H2 7225   6.471   1.818   2.515 -1.2321  0.3185  0.2621
 2421TIP3   OH2 7226   6.544   1.287   4.106  0.0031 -0.1945  0.3906
 2421TIP3    H1 7227   6.617   1.346   4.086 -0.2229 -0.1362 -0.2914
 2421TIP3    H2 7228   6.585   1.202   4.121  0.1119 -0.5863 -1.7497
 2422TIP3   OH2 7229   4.621   4.118   3.719 -0.2480  0.4768  0.1654
 2422TIP3    H1 7230   4.534   4.135   3.754 -0.0062 -1.1871  1.7814
 2422TIP3    H2 7231   4.667   4.073   3.791  1.5041  0.1565 -1.0889
 2423TIP3   OH2 7232   6.609   3.359   4.487  0.0441 -0.6010  0.2855
 2423TIP3    H1 7233   6.651   3.445   4.486  0.1342 -0.6396  0.5432
 2423TIP3    H2 7234   6.640   3.316   4.408 -1.0338  0.0855 -0.5349
 2424TIP3   OH2 7235   6.588   5.399   2.658 -0.4048 -0.1852  0.0019
 2424TIP3    H1 7236   6.557   5.432   2.574  0.7007  0.7541 -0.0633
 2424TIP3    H2 7237   6.517   5.343   2.690 -1.7535  1.1371 -0.5477
 2425TIP3   OH2 7238   1.285   1.428   0.902  0.3163  0.8263 -0.5422
 2425TIP3    H1 7239   1.333   1.504   0.937  0.7366  0.4987 -0.3969
 2425TIP3    H2 7240   1.327   1.353   0.943 -1.2796  0.5909  0.7556
 2426TIP3   OH2 7241   0.409   1.994   3.948 -0.2837  0.3448  0.3698
 2426TIP3    H1 7242   0.340   1.930   3.936  0.9578 -0.8220 -0.9459
 2426TIP3    H2 7243   0.383   2.068   3.893 -0.0977 -0.4370 -0.8039
 2427TIP3   OH2 7244   4.329   6.625   3.008  0.2890 -0.0912  0.1135
 2427TIP3    H1 7245   4.301   6.671   2.929  0.7824 -2.6377 -1.6563
 2427TIP3    H2 7246   4.250   6.579   3.038  0.3251  0.1758  0.6427
 2428TIP3   OH2 7247   4.550   0.889   4.584  0.5123 -0.0678  0.1970
 2428TIP3    H1 7248   4.514   0.911   4.670 -3.4239  0.5841 -1.4053
 2428TIP3    H2 7249   4.481   0.913   4.522  2.6976 -1.5483 -3.1072
 2429TIP3   OH2 7250   2.037   5.842   0.660  0.0446 -0.1147 -0.0158
 2429TIP3    H1 7251   2.078   5.800   0.584  1.1044  0.1666  0.3879
 2429TIP3    H2 7252   1.953   5.875   0.627 -0.3192 -1.5526 -0.6174
 2430TIP3   OH2 7253   2.532   6.464   1.968 -0.2387 -0.4489  0.4916
 2430TIP3    H1 7254   2.589   6.523   2.017 -0.3765 -0.1026  0.2359
 2430TIP3    H2 7255   2.458   6.518   1.943  0.3592 -0.3150 -1.0790
 2431TIP3   OH2 7256   0.732   0.193   2.484  0.8757 -0.2700  0.1947
 2431TIP3    H1 7257   0.681   0.115   2.504  0.1943  0.0941 -0.0713
 2431TIP3    H2 7258   0.810   0.186   2.540  0.0551 -0.3413  1.3841
 2432TIP3   OH2 7259   6.318   1.214   3.332  0.3545 -0.0392  0.8442
 2432TIP3    H1 7260   6.355   1.134   3.371 -0.0127 -0.5447  0.1638
 2432TIP3    H2 7261   6.393   1.257   3.291  0.3569 -0.5921  0.2629
 2433TIP3   OH2 7262   0.390   2.318   5.851  0.0583 -0.3555 -0.2587
 2433TIP3    H1 7263   0.409   2.316   5.945 -2.6126  1.6635  0.4473
 2433TIP3    H2 7264   0.354   2.232   5.831 -1.9633  0.0700  1.2775
 2434TIP3   OH2 7265   2.999   3.146   3.973  0.2129 -0.0807  0.2176
 2434TIP3    H1 7266   2.965   3.061   4.003  1.7892 -1.0772 -0.6807
 2434TIP3    H2 7267   3.091   3.146   4.000  1.1670 -0.1428 -2.6805
 2435TIP3   OH2 7268   5.097   1.765   4.058  0.1486  0.0290  0.3418
 2435TIP3    H1 7269   5.065   1.837   4.112  1.1427  0.2781  0.6218
 2435TIP3    H2 7270   5.180   1.797   4.023  1.5615 -1.6702  2.0013
 2436TIP3   OH2 7271   5.416   4.840   3.255  0.1791 -0.0044 -0.1755
 2436TIP3    H1 7272   5.386   4.921   3.214 -0.5010  0.3639  1.0181
 2436TIP3    H2 7273   5.387   4.771   3.195 -0.9709  0.5020 -0.2154
 2437TIP3   OH2 7274   1.860   5.086   3.120  0.1591  0.0516 -0.2082
 2437TIP3    H1 7275   1.954   5.106   3.118  0.0015  0.7961 -0.4185
 2437TIP3    H2 7276   1.856   4.991   3.110  0.9300 -0.1095  0.8490
 2438TIP3   OH2 7277   6.393   5.377   2.889  0.1480  0.0514 -0.4231
 2438TIP3    H1 7278   6.435   5.448   2.938  0.0450  0.7831 -1.3682
 2438TIP3    H2 7279   6.386   5.306   2.953 -1.2682  1.4330  1.0882
 2439TIP3   OH2 7280   6.278   1.667   3.957  0.2002 -0.4769 -0.0059
 2439TIP3    H1 7281   6.238   1.670   3.870 -0.5328  0.2341  0.3411
 2439TIP3    H2 7282   6.371   1.686   3.942 -0.2039  1.2579 -0.4780
 2440TIP3   OH2 7283   3.812   4.389   4.558 -0.1396  0.5238  0.4767
 2440TIP3    H1 7284   3.756   4.440   4.500  1.4095  0.8751 -0.7698
 2440TIP3    H2 7285   3.814   4.302   4.518  1.3708  0.9135 -0.3556
 2441TIP3   OH2 7286   5.485   4.338   4.284 -0.0026  0.2702  0.1357
 2441TIP3    H1 7287   5.574   4.311   4.305  0.7112  2.9212  0.9016
 2441TIP3    H2 7288   5.431   4.263   4.309  1.9459 -1.2409  0.0659
 2442TIP3   OH2 7289   0.344   5.721   0.000 -0.4814 -0.7177 -0.2056
 2442TIP3    H1 7290   0.431   5.695  -0.029 -0.1409 -0.0595  0.2013
 2442TIP3    H2 7291   0.359   5.763   0.085 -1.3373 -1.7477  0.4902
 2443TIP3   OH2 7292   2.696   0.047   1.242  0.3363  0.2656  0.2802
 2443TIP3    H1 7293   2.747   0.123   1.216  2.3694 -1.0818  0.1185
 2443TIP3    H2 7294   2.624   0.044   1.180  0.7660  1.4978 -0.3092
 2444TIP3   OH2 7295   1.975   2.872   0.332 -0.0320  0.5786  0.4599
 2444TIP3    H1 7296   1.961   2.964   0.310 -0.4955  0.3172 -0.3532
 2444TIP3    H2 7297   2.013   2.834   0.254  0.2842  0.1005  0.8409
 2445TIP3   OH2 7298   1.383   2.389   5.655 -0.3532 -0.4018  0.1909
 2445TIP3    H1 7299   1.378   2.295   5.638  1.4049 -0.6126  0.7174
 2445TIP3    H2 7300   1.469   2.403   5.693 -0.6191  1.4218  0.2334
 2446TIP3   OH2 7301   6.524   5.151   0.448  0.0913 -0.6538 -0.3665
 2446TIP3    H1 7302   6.584   5.199   0.391  0.3677  0.3395  0.7155
 2446TIP3    H2 7303   6.437   5.181   0.423  0.2969  0.9194  0.7125
 2447TIP3   OH2 7304   6.092   4.004   0.869 -0.0278 -0.1441 -0.5796
 2447TIP3    H1 7305   6.172   4.035   0.911  1.0273 -1.3243 -1.5974
 2447TIP3    H2 7306   6.065   4.076   0.812 -0.3347  0.6843  0.5919
 2448TIP3   OH2 7307   1.976   4.666   2.388  0.6443  0.1386  0.0301
 2448TIP3    H1 7308   2.066   4.635   2.383  0.5206 -0.0871 -1.0813
 2448TIP3    H2 7309   1.983   4.755   2.423  1.2269 -0.1512  0.6668
 2449TIP3   OH2 7310   3.428   3.792   5.064  0.1060 -0.2241  0.4532
 2449TIP3    H1 7311   3.423   3.880   5.029 -1.1382 -0.6939 -0.6536
 2449TIP3    H2 7312   3.371   3.793   5.141  0.4438  0.0396  0.7012
 2450TIP3   OH2 7313   2.249   2.972   5.621 -0.0569 -0.0869 -0.2104
 2450TIP3    H1 7314   2.158   2.947   5.610  0.3249 -1.2097 -1.0807
 2450TIP3    H2 7315   2.256   3.001   5.712 -1.1465 -0.5134  0.0195
 2451TIP3   OH2 7316   5.490   4.567   0.132  0.1932  0.4213 -0.5631
 2451TIP3    H1 7317   5.417   4.578   0.193 -1.0196  0.3106 -1.9322
 2451TIP3    H2 7318   5.539   4.492   0.167  0.0733  0.9446  0.7703
 2452TIP3   OH2 7319   3.669   4.092   5.210 -0.4405 -0.0794  0.0731
 2452TIP3    H1 7320   3.713   4.151   5.271  0.2054  1.2076 -1.5669
 2452TIP3    H2 7321   3.739   4.038   5.174 -0.7850 -0.6912  0.3036
 2453TIP3   OH2 7322   0.262   3.463   2.454 -0.0877  0.2887  0.4511
 2453TIP3    H1 7323   0.337   3.516   2.481 -0.8426  1.6644 -0.0274
 2453TIP3    H2 7324   0.210   3.522   2.399 -1.0794 -0.9025  0.0698
 2454TIP3   OH2 7325   5.585   3.666   5.371  0.5206 -0.4383 -0.2520
 2454TIP3    H1 7326   5.557   3.581   5.336 -0.1472  0.0031 -0.8059
 2454TIP3    H2 7327   5.526   3.681   5.446  0.2871 -0.2218 -0.4779
 2455TIP3   OH2 7328   6.868   3.874   0.452 -0.0838 -0.5734 -0.0866
 2455TIP3    H1 7329   6.942   3.879   0.391 -0.0765  1.1569  0.0224
 2455TIP3    H2 7330   6.794   3.851   0.396 -0.1466  1.3248 -0.8744
 2456TIP3   OH2 7331   1.933   5.429   3.590 -0.1231 -0.3016 -0.6008
 2456TIP3    H1 7332   1.875   5.479   3.533  0.0274  0.4700 -0.0954
 2456TIP3    H2 7333   2.013   5.482   3.595 -0.7802  0.6019  1.7396
 2457TIP3   OH2 7334   0.857   0.651   2.494  0.2712 -0.5479 -0.0930
 2457TIP3    H1 7335   0.847   0.665   2.588 -0.7688  2.3253 -0.5397
 2457TIP3    H2 7336   0.796   0.580   2.474  0.9568 -1.6286  1.4484
 2458TIP3   OH2 7337   5.669   0.271   0.769  0.0038 -0.0494 -0.0925
 2458TIP3    H1 7338   5.610   0.258   0.843 -1.1146 -0.4805 -1.0188
 2458TIP3    H2 7339   5.651   0.360   0.739 -0.8267 -0.4630 -0.8891
 2459TIP3   OH2 7340   5.520   6.325   0.609 -0.1407  0.2020 -0.3386
 2459TIP3    H1 7341   5.604   6.313   0.653  0.1082 -0.6714 -1.0277
 2459TIP3    H2 7342   5.457   6.280   0.666  0.1021 -0.4854 -0.6039
 2460TIP3   OH2 7343   2.424   4.111   3.775 -0.3904  0.2352  0.1476
 2460TIP3    H1 7344   2.483   4.170   3.824 -0.2429 -0.6005  1.0061
 2460TIP3    H2 7345   2.476   4.032   3.761 -1.0760 -0.2443  0.2914
 2461TIP3   OH2 7346   6.377   5.334   4.902  0.1612  0.6791 -0.2851
 2461TIP3    H1 7347   6.417   5.337   4.989  1.0709 -0.5115 -0.6329
 2461TIP3    H2 7348   6.282   5.339   4.919  0.3352  0.7327  0.7454
 2462TIP3   OH2 7349   4.310   2.445   1.921 -0.0235  0.5085  0.5608
 2462TIP3    H1 7350   4.392   2.470   1.964 -0.0360  0.9290  0.3497
 2462TIP3    H2 7351   4.275   2.375   1.975  0.5941  0.1638  0.5226
 2463TIP3   OH2 7352   5.190   3.653   2.860 -0.2507  0.3855  0.9478
 2463TIP3    H1 7353   5.131   3.728   2.865  1.6967  1.9610  1.3620
 2463TIP3    H2 7354   5.133   3.577   2.873 -2.5640  1.6178 -1.1133
 2464TIP3   OH2 7355   0.483   5.462   4.855  0.0145  0.0263 -0.4156
 2464TIP3    H1 7356   0.464   5.507   4.772  0.0838 -0.2530 -0.5859
 2464TIP3    H2 7357   0.462   5.526   4.923 -0.5563  0.0716 -0.6339
 2465TIP3   OH2 7358   5.659   5.408   0.403  0.2564  0.0255  1.0416
 2465TIP3    H1 7359   5.595   5.343   0.374  0.7959  0.0857 -0.3748
 2465TIP3    H2 7360   5.672   5.389   0.496 -0.2509 -1.3253  0.8625
 2466TIP3   OH2 7361   2.788   1.354   2.958 -0.5072  0.2963 -0.8878
 2466TIP3    H1 7362   2.857   1.298   2.922  1.1291  1.9553 -0.4718
 2466TIP3    H2 7363   2.790   1.433   2.904 -0.8552  1.1049  0.2308
 2467TIP3   OH2 7364   6.404   3.666   3.396 -0.3297 -0.2773 -0.0739
 2467TIP3    H1 7365   6.498   3.648   3.399 -0.0856  0.9882  0.4011
 2467TIP3    H2 7366   6.364   3.581   3.376  0.8424 -1.0363  0.6667
 2468TIP3   OH2 7367   0.410   2.064   2.593  0.0978 -0.1933  0.2226
 2468TIP3    H1 7368   0.475   2.084   2.525 -0.4704 -1.8082 -0.8559
 2468TIP3    H2 7369   0.462   2.048   2.672  0.8996  0.0061 -0.2508
 2469TIP3   OH2 7370   5.504   0.258   2.867 -0.9078 -0.0266 -0.0266
 2469TIP3    H1 7371   5.588   0.299   2.846 -0.8129 -0.7125 -1.0540
 2469TIP3    H2 7372   5.439   0.327   2.851 -0.6282  0.2069 -0.1691
 2470TIP3   OH2 7373   5.266   6.279   2.648 -0.0173 -0.1002 -0.0243
 2470TIP3    H1 7374   5.251   6.372   2.665 -1.1738 -0.3345  0.3314
 2470TIP3    H2 7375   5.210   6.258   2.573  1.1067 -0.2647 -0.8405
 2471TIP3   OH2 7376   6.076   4.878   0.219 -0.1589  0.1611 -0.6608
 2471TIP3    H1 7377   6.039   4.967   0.215 -1.1426 -0.2499 -0.9801
 2471TIP3    H2 7378   6.091   4.864   0.313 -1.7808 -0.0248 -0.3971
 2472TIP3   OH2 7379   6.564   0.418   3.890 -0.1080  0.1142 -0.4739
 2472TIP3    H1 7380   6.504   0.424   3.965 -1.0333 -0.4283 -1.1424
 2472TIP3    H2 7381   6.521   0.356   3.831  0.6123  0.5249 -1.4488
 2473TIP3   OH2 7382   1.918   1.462   0.238 -0.5821 -0.1718 -0.7328
 2473TIP3    H1 7383   1.932   1.545   0.192 -1.4279 -0.3228 -1.2773
 2473TIP3    H2 7384   1.970   1.470   0.318 -1.9483  1.5659  0.0496
 2474TIP3   OH2 7385   3.276   2.941   5.331 -0.0524  0.5355 -0.3206
 2474TIP3    H1 7386   3.342   2.879   5.363 -1.0427  0.2688  1.3151
 2474TIP3    H2 7387   3.314   2.976   5.251  1.1945 -1.0769 -0.4918
 2475TIP3   OH2 7388   4.658   3.005   4.941  0.3116  0.0016 -0.5122
 2475TIP3    H1 7389   4.619   3.088   4.914 -0.2700 -0.3030 -0.6192
 2475TIP3    H2 7390   4.612   2.982   5.021 -0.1056 -0.6295 -0.9286
 2476TIP3   OH2 7391   1.739   1.927   3.973 -0.2659 -0.0234  0.5958
 2476TIP3    H1 7392   1.753   2.022   3.965 -0.0873  0.0386  1.4967
 2476TIP3    H2 7393   1.654   1.920   4.017 -1.0152 -0.3199 -0.8585
 2477TIP3   OH2 7394   3.990   4.364   2.540  0.2423  0.4140 -0.3171
 2477TIP3    H1 7395   4.028   4.433   2.594 -1.1454  0.6202  0.4333
 2477TIP3    H2 7396   3.902   4.351   2.575 -0.2667 -0.3037 -1.7647
 2478TIP3   OH2 7397   2.997   0.800   2.931 -0.7932  0.1621  0.1662
 2478TIP3    H1 7398   3.067   0.865   2.921 -2.0560  1.5852  0.1857
 2478TIP3    H2 7399   2.941   0.812   2.855 -1.0949 -0.8732  0.2065
 2479TIP3   OH2 7400   4.747   6.214   0.175 -0.5250  0.9006 -0.3190
 2479TIP3    H1 7401   4.692   6.290   0.194  0.6190  1.6512  0.1223
 2479TIP3    H2 7402   4.791   6.236   0.093 -0.2522  0.6743 -0.2337
 2480TIP3   OH2 7403   1.500   5.012   4.936 -0.2655 -0.5390 -0.0364
 2480TIP3    H1 7404   1.501   5.106   4.950 -1.2490 -0.7001  1.2380
 2480TIP3    H2 7405   1.408   4.988   4.932 -0.0508 -1.2417 -2.0202
 2481TIP3   OH2 7406   0.024   4.966   4.176 -0.2575  0.5015 -0.2704
 2481TIP3    H1 7407   0.099   5.020   4.201  0.6107  0.5185 -2.6202
 2481TIP3    H2 7408  -0.027   5.021   4.118 -1.5838  0.1289  0.5056
 2482TIP3   OH2 7409   3.018   5.917   5.379 -0.4346 -0.4531 -0.0847
 2482TIP3    H1 7410   2.948   5.892   5.440 -0.9182 -0.0846 -0.4792
 2482TIP3    H2 7411   3.030   5.840   5.324 -1.3132 -0.1488 -0.7311
 2483TIP3   OH2 7412   3.145   6.172   4.943 -0.6402  0.7374 -0.2090
 2483TIP3    H1 7413   3.079   6.145   4.880  0.7634  0.2593 -1.5385
 2483TIP3    H2 7414   3.105   6.157   5.029 -2.0187 -0.0808 -0.9709
 2484TIP3   OH2 7415   0.536   0.393   5.516 -0.0997 -0.4490 -0.0583
 2484TIP3    H1 7416   0.487   0.428   5.591  0.1907  0.3156 -0.2134
 2484TIP3    H2 7417   0.485   0.318   5.486  0.1073 -1.1562  1.3006
 2485TIP3   OH2 7418   7.059   6.062   4.007 -0.2033  0.1633  0.1010
 2485TIP3    H1 7419   7.123   6.104   3.950  0.0723 -0.5026 -0.0912
 2485TIP3    H2 7420   6.986   6.040   3.949 -1.0123  1.6935  0.4729
 2486TIP3   OH2 7421   0.216   1.753   2.088 -0.1022 -0.1214  0.4031
 2486TIP3    H1 7422   0.185   1.812   2.157 -0.1433 -0.9388  1.0941
 2486TIP3    H2 7423   0.287   1.802   2.046  0.8894 -0.1445  1.9405
 2487TIP3   OH2 7424   6.909   4.389   4.524  0.1880  0.1614 -0.0669
 2487TIP3    H1 7425   6.867   4.311   4.487  0.0025  0.1393  0.1867
 2487TIP3    H2 7426   6.983   4.406   4.466  0.6651 -0.6343  0.3024
 2488TIP3   OH2 7427   3.421   0.918   2.679 -0.2651  0.3961 -0.0402
 2488TIP3    H1 7428   3.511   0.884   2.679 -0.1134  0.7068 -2.1725
 2488TIP3    H2 7429   3.387   0.895   2.593 -0.9307  3.6005 -0.7302
 2489TIP3   OH2 7430   3.542   1.268   0.160  0.1575 -0.0699 -0.1147
 2489TIP3    H1 7431   3.551   1.288   0.067  0.3257 -1.0641 -0.3232
 2489TIP3    H2 7432   3.448   1.257   0.174  0.1989 -0.6995 -0.3356
 2490TIP3   OH2 7433   6.161   3.477   5.066  0.1563  0.0113 -0.3455
 2490TIP3    H1 7434   6.206   3.557   5.040 -0.2612  0.3425 -0.0601
 2490TIP3    H2 7435   6.179   3.415   4.996 -0.8807  0.8488 -1.3751
 2491TIP3   OH2 7436   2.450   0.278   4.654 -0.6471  0.9632  0.5292
 2491TIP3    H1 7437   2.437   0.307   4.564 -0.1447 -1.6432 -0.4647
 2491TIP3    H2 7438   2.536   0.313   4.678  0.7531 -0.9639 -1.2607
 2492TIP3   OH2 7439   0.486   3.323   0.920  0.4418 -0.8411 -0.2554
 2492TIP3    H1 7440   0.408   3.271   0.901 -1.6489  1.4375  1.4840
 2492TIP3    H2 7441   0.502   3.309   1.013  2.0531 -1.1623 -0.5611
 2493TIP3   OH2 7442   2.657   3.096   4.570  0.2943  0.3570  0.1432
 2493TIP3    H1 7443   2.683   3.115   4.480 -1.7005  1.8797 -0.1864
 2493TIP3    H2 7444   2.561   3.101   4.569  0.2131  0.2065  2.3173
 2494TIP3   OH2 7445   6.685   1.150   1.141  0.6200  0.1118 -0.8575
 2494TIP3    H1 7446   6.596   1.115   1.147  0.0283  1.8326  1.3687
 2494TIP3    H2 7447   6.677   1.227   1.085  0.0748  1.8568  1.4718
 2495TIP3   OH2 7448   2.392   3.334   0.716 -0.2201  0.1474  0.0473
 2495TIP3    H1 7449   2.452   3.290   0.776 -0.2295 -1.0072 -0.7623
 2495TIP3    H2 7450   2.448   3.397   0.669  0.7670 -1.9242 -1.7455
 2496TIP3   OH2 7451   7.116   5.805   5.150 -0.2192  0.7439  0.0320
 2496TIP3    H1 7452   7.080   5.729   5.195 -0.8965  1.5009  0.7957
 2496TIP3    H2 7453   7.039   5.856   5.123  0.2305  2.0352  1.0780
 2497TIP3   OH2 7454   0.452   6.619   3.445 -0.5436  0.6113 -0.6178
 2497TIP3    H1 7455   0.419   6.707   3.428 -2.0544 -0.3054 -3.0052
 2497TIP3    H2 7456   0.409   6.593   3.526 -2.8440  0.8770 -1.6640
 2498TIP3   OH2 7457   3.122   6.450   0.125  0.4166 -0.3720  0.0515
 2498TIP3    H1 7458   3.161   6.369   0.160  0.4108 -0.6726 -0.6197
 2498TIP3    H2 7459   3.070   6.485   0.197 -1.4844 -2.1955 -0.3334
 2499TIP3   OH2 7460   1.298   6.423   5.499  0.3670  0.4140 -0.0755
 2499TIP3    H1 7461   1.251   6.340   5.497 -0.7257  1.0315 -0.6238
 2499TIP3    H2 7462   1.376   6.404   5.552 -0.4209 -0.6561  0.7588
 2500TIP3   OH2 7463   3.534   1.749   5.288  0.7792  0.1080  0.1322
 2500TIP3    H1 7464   3.488   1.809   5.228  1.3280  0.0663 -0.3356
 2500TIP3    H2 7465   3.573   1.806   5.354 -0.1690  0.1258  0.7058
 2501TIP3   OH2 7466   5.547   1.044   3.460 -0.2779  0.7215 -0.2077
 2501TIP3    H1 7467   5.532   1.130   3.500 -0.8058  0.5721 -0.0813
 2501TIP3    H2 7468   5.460   1.012   3.438 -0.0235  0.6162 -1.1075
 2502TIP3   OH2 7469   1.699   4.812   4.010 -0.4004  0.2323  0.1471
 2502TIP3    H1 7470   1.754   4.805   4.088 -1.1869  0.4752  0.7363
 2502TIP3    H2 7471   1.748   4.767   3.942  0.0788 -0.4134  0.9024
 2503TIP3   OH2 7472   1.371   4.870   3.215  0.1554  0.0212 -0.2077
 2503TIP3    H1 7473   1.328   4.956   3.214 -2.3563 -1.1616 -1.9219
 2503TIP3    H2 7474   1.416   4.868   3.300  0.1030  2.9144 -0.0114
 2504TIP3   OH2 7475   2.875   6.088   3.077  0.9233  0.5047 -0.0063
 2504TIP3    H1 7476   2.861   5.994   3.069 -0.8104  0.9033 -3.4203
 2504TIP3    H2 7477   2.852   6.108   3.168 -0.9063 -2.0556  0.2111
 2505TIP3   OH2 7478   5.032   1.649   4.416 -0.5065 -0.1901 -0.4716
 2505TIP3    H1 7479   5.070   1.682   4.497  0.7503 -1.4391 -0.5126
 2505TIP3    H2 7480   5.047   1.554   4.420  0.8305 -0.1303 -2.7853
 2506TIP3   OH2 7481   3.819   0.779   1.879 -0.2961  0.0145  0.0867
 2506TIP3    H1 7482   3.803   0.861   1.925 -1.4596  0.0803 -0.4050
 2506TIP3    H2 7483   3.873   0.728   1.939 -0.9894  0.4633  1.1146
 2507TIP3   OH2 7484   3.186   4.817   4.483 -0.4680 -0.0508 -0.6177
 2507TIP3    H1 7485   3.137   4.809   4.401 -0.1733  1.2685 -0.9345
 2507TIP3    H2 7486   3.144   4.889   4.530  1.0188  0.9990 -0.8199
 2508TIP3   OH2 7487   2.017   5.738   1.728 -0.3275 -0.7134 -0.2469
 2508TIP3    H1 7488   1.948   5.673   1.724 -0.7995 -0.2292  0.0028
 2508TIP3    H2 7489   1.973   5.822   1.713  0.3445 -0.4944 -1.0774
 2509TIP3   OH2 7490   1.560   2.713   1.562 -0.2262 -0.1711  0.2508
 2509TIP3    H1 7491   1.475   2.732   1.601  0.0944  0.9504  0.4552
 2509TIP3    H2 7492   1.623   2.740   1.628  0.2995 -1.9969  0.5363
 2510TIP3   OH2 7493   5.867   3.207   4.659  0.1480  0.2726 -0.1098
 2510TIP3    H1 7494   5.795   3.144   4.662 -0.4718  0.6020 -3.5739
 2510TIP3    H2 7495   5.943   3.155   4.633  0.3164  0.4779 -0.0298
 2511TIP3   OH2 7496   3.993   5.865   0.520  0.4574  0.5674 -0.4826
 2511TIP3    H1 7497   4.070   5.811   0.502 -0.8697 -1.8183  0.5839
 2511TIP3    H2 7498   4.025   5.935   0.577  1.7073 -0.9012  0.6946
 2512TIP3   OH2 7499   0.340   0.331   5.727  0.6303 -0.3369  0.3601
 2512TIP3    H1 7500   0.374   0.246   5.753  1.1007 -0.4114 -0.4541
 2512TIP3    H2 7501   0.262   0.310   5.675  0.1544 -0.2205  1.0096
 2513TIP3   OH2 7502   0.405   5.175   3.832 -0.6596 -0.0725  0.7146
 2513TIP3    H1 7503   0.418   5.180   3.737  1.2155 -1.3717  0.8442
 2513TIP3    H2 7504   0.390   5.083   3.850 -1.2626  0.1968  1.6647
 2514TIP3   OH2 7505   0.191   2.308   4.382  0.0027  0.3640 -0.4121
 2514TIP3    H1 7506   0.126   2.261   4.331 -0.4960  0.1249  0.4300
 2514TIP3    H2 7507   0.262   2.245   4.394 -1.0009 -0.5058  1.3931
 2515TIP3   OH2 7508   4.374   4.415   4.816  0.3921  0.0220  0.2852
 2515TIP3    H1 7509   4.319   4.339   4.837 -1.3376 -0.3739 -4.4248
 2515TIP3    H2 7510   4.318   4.490   4.838 -2.1172 -0.3722 -3.7567
 2516TIP3   OH2 7511   6.727   3.732   3.728 -0.0559 -0.1921  0.3641
 2516TIP3    H1 7512   6.760   3.819   3.752 -0.7678  0.0743  0.4081
 2516TIP3    H2 7513   6.640   3.728   3.767 -0.0682 -0.8908  0.2735
 2517TIP3   OH2 7514   4.727   3.243   1.539 -0.6174 -0.0630  0.6779
 2517TIP3    H1 7515   4.734   3.175   1.606  0.4102  0.2823  0.9410
 2517TIP3    H2 7516   4.743   3.325   1.587 -2.5775  0.4631  0.5187
 2518TIP3   OH2 7517   5.096   4.904   1.994  0.1211  0.1485 -0.3398
 2518TIP3    H1 7518   5.069   4.823   1.952  0.3828  1.1758 -2.6710
 2518TIP3    H2 7519   5.024   4.965   1.975  0.8874  1.0224 -0.5165
 2519TIP3   OH2 7520   6.664   4.089   2.692  0.3394 -0.0813  0.0409
 2519TIP3    H1 7521   6.630   4.141   2.619  1.2128  1.6514  0.8298
 2519TIP3    H2 7522   6.586   4.062   2.741 -0.2100 -0.7281 -1.1482
 2520TIP3   OH2 7523   0.275   0.707   0.151 -0.1517 -0.1933  0.7147
 2520TIP3    H1 7524   0.239   0.630   0.106  0.0635 -1.4769  2.6420
 2520TIP3    H2 7525   0.208   0.774   0.141 -0.7060 -0.8707 -0.3116
 2521TIP3   OH2 7526   2.544   3.654   4.624  0.2299 -0.3134 -0.6221
 2521TIP3    H1 7527   2.529   3.567   4.587  3.8417 -1.0432 -0.7351
 2521TIP3    H2 7528   2.559   3.638   4.717  0.1509  0.3301 -0.4967
 2522TIP3   OH2 7529   2.758   6.551   4.292 -0.3675  0.2358  0.0997
 2522TIP3    H1 7530   2.699   6.571   4.365  0.7302  2.2764  0.4965
 2522TIP3    H2 7531   2.717   6.593   4.217 -1.2813 -1.5148 -0.4369
 2523TIP3   OH2 7532   4.074   1.163   5.266 -0.2652  0.6143 -0.4682
 2523TIP3    H1 7533   4.010   1.125   5.206 -0.0506  1.3716 -1.1981
 2523TIP3    H2 7534   4.032   1.242   5.299 -0.5684 -0.0479  0.7586
 2524TIP3   OH2 7535   7.019   0.361   5.456 -0.1073  0.0806  0.7414
 2524TIP3    H1 7536   7.066   0.425   5.509  0.8165 -0.5089  0.6687
 2524TIP3    H2 7537   7.058   0.367   5.369 -0.3039 -0.2775  0.6218
 2525TIP3   OH2 7538   4.536   4.119   1.710 -0.2850  0.0523  0.4283
 2525TIP3    H1 7539   4.477   4.059   1.755 -0.6080  0.2080  0.2166
 2525TIP3    H2 7540   4.488   4.145   1.631  0.2183 -0.1151  0.0606
 2526TIP3   OH2 7541   2.918   1.227   4.429 -0.8296  0.5535 -0.2603
 2526TIP3    H1 7542   2.980   1.192   4.365 -0.3295  0.0511  0.4715
 2526TIP3    H2 7543   2.883   1.306   4.388 -1.6642 -0.5549 -1.7828
 2527TIP3   OH2 7544   2.945   2.088   3.078 -0.2574  0.8035 -0.2267
 2527TIP3    H1 7545   2.971   2.100   2.987  2.0810  1.5861  0.4600
 2527TIP3    H2 7546   2.901   2.170   3.101  0.9092  1.4412 -0.1554
 2528TIP3   OH2 7547   0.840   0.255   4.883  0.7535 -0.5572  0.2721
 2528TIP3    H1 7548   0.861   0.325   4.821 -1.0742 -0.9914 -0.9287
 2528TIP3    H2 7549   0.902   0.185   4.862  0.4605 -0.5166 -0.7776
 2529TIP3   OH2 7550   3.248   4.179   0.379 -0.3301 -0.4973 -0.0960
 2529TIP3    H1 7551   3.243   4.264   0.422 -1.2012 -0.0041 -1.1389
 2529TIP3    H2 7552   3.331   4.182   0.331 -0.3469 -0.2432 -0.1131
 2530TIP3   OH2 7553   5.518   3.914   2.542  0.2342  0.4051  0.3009
 2530TIP3    H1 7554   5.452   3.879   2.482  0.7457  0.9182 -0.5964
 2530TIP3    H2 7555   5.505   3.866   2.623 -1.4969  0.7617  0.2802
 2531TIP3   OH2 7556   6.633   5.281   2.274  0.5070  0.3183  0.0748
 2531TIP3    H1 7557   6.726   5.290   2.250  1.4590 -1.7600  2.5055
 2531TIP3    H2 7558   6.622   5.188   2.292 -2.6077  0.1523 -1.8442
 2532TIP3   OH2 7559   0.097   0.776   1.709 -0.5848  0.4626  0.3136
 2532TIP3    H1 7560   0.032   0.755   1.775 -0.5960  1.7430  0.7378
 2532TIP3    H2 7561   0.171   0.812   1.759  0.6221 -1.2759 -0.1175
 2533TIP3   OH2 7562   2.840   3.056   4.926 -0.6320 -0.2787 -0.3767
 2533TIP3    H1 7563   2.778   3.125   4.952 -0.5120  0.5448 -2.0780
 2533TIP3    H2 7564   2.921   3.078   4.971 -0.4992  0.9398 -1.1397
 2534TIP3   OH2 7565   5.056   6.753   4.240  0.0511 -0.1504  0.1805
 2534TIP3    H1 7566   5.124   6.735   4.305 -0.4610 -0.1056  0.7418
 2534TIP3    H2 7567   5.102   6.795   4.167  0.6046 -0.0285  0.5940
 2535TIP3   OH2 7568   2.162   0.751   2.748  0.1391 -0.1438  0.3044
 2535TIP3    H1 7569   2.158   0.805   2.826  0.0787  1.5676 -0.8377
 2535TIP3    H2 7570   2.119   0.803   2.680  0.7881 -1.2882 -1.0454
 2536TIP3   OH2 7571   4.676   3.796   0.159  0.0578  0.3203 -0.2739
 2536TIP3    H1 7572   4.636   3.830   0.239  0.6516  1.2604 -0.3514
 2536TIP3    H2 7573   4.766   3.776   0.185 -0.3021 -1.3637 -0.2026
 2537TIP3   OH2 7574   1.047   4.458   5.082  0.2210  0.4369 -0.6456
 2537TIP3    H1 7575   1.070   4.365   5.090  1.0647  0.5255 -1.7427
 2537TIP3    H2 7576   0.986   4.461   5.009  1.4545  0.9211 -1.6798
 2538TIP3   OH2 7577   0.417   2.900   3.096  0.3542  0.3685 -0.5161
 2538TIP3    H1 7578   0.478   2.968   3.123  0.2760 -0.0539  0.7902
 2538TIP3    H2 7579   0.451   2.820   3.135 -0.4149 -0.0620 -0.7014
 2539TIP3   OH2 7580   3.287   1.369   1.517  0.3896  0.2518  0.2804
 2539TIP3    H1 7581   3.209   1.315   1.518  0.9675 -0.5953  0.8048
 2539TIP3    H2 7582   3.254   1.459   1.509 -0.5670 -0.1847 -0.9139
 2540TIP3   OH2 7583   5.761   4.975   4.632  0.0573  0.0110 -0.4419
 2540TIP3    H1 7584   5.704   4.962   4.555 -0.0889 -0.1545 -0.3087
 2540TIP3    H2 7585   5.839   5.017   4.597  0.5380 -1.2026 -0.9062
 2541TIP3   OH2 7586   3.976   2.805   0.277  0.2549  0.5413  0.1942
 2541TIP3    H1 7587   4.013   2.728   0.235  1.4127  0.6491  0.9799
 2541TIP3    H2 7588   3.945   2.859   0.204  1.4979  0.3681 -0.4815
 2542TIP3   OH2 7589   1.566   3.822   5.569  0.0683 -0.2241  0.2191
 2542TIP3    H1 7590   1.544   3.741   5.614  2.9570 -0.9779  0.5137
 2542TIP3    H2 7591   1.611   3.792   5.489 -0.0502  1.0954 -0.3555
 2543TIP3   OH2 7592   0.775   2.916   5.718 -0.2739  0.1361 -0.0169
 2543TIP3    H1 7593   0.753   2.930   5.810  0.2290  1.4285 -0.0680
 2543TIP3    H2 7594   0.758   2.823   5.703 -2.7177  0.4139  0.7100
 2544TIP3   OH2 7595   0.313   2.962   1.069  0.0730 -0.3519  0.6279
 2544TIP3    H1 7596   0.293   2.889   1.010 -0.4826  0.2469  0.0611
 2544TIP3    H2 7597   0.294   3.040   1.018  2.9273  0.2766  0.3943
 2545TIP3   OH2 7598   4.259   3.914   3.353  0.2345  0.1862  0.3114
 2545TIP3    H1 7599   4.250   3.818   3.349  0.0881  0.2396 -1.8287
 2545TIP3    H2 7600   4.352   3.928   3.370  0.2468 -0.3238  0.7207
 2546TIP3   OH2 7601   2.379   6.135   2.307  0.0755 -0.0483  0.0767
 2546TIP3    H1 7602   2.316   6.159   2.239  0.1764 -1.0391 -0.3764
 2546TIP3    H2 7603   2.361   6.196   2.379 -0.2018  0.8447 -0.7272
 2547TIP3   OH2 7604   4.479   1.669   2.378 -0.4799 -0.3220  0.3119
 2547TIP3    H1 7605   4.573   1.679   2.394 -1.1522  1.2162  4.2517
 2547TIP3    H2 7606   4.442   1.755   2.395 -2.6577 -0.8320 -1.4152
 2548TIP3   OH2 7607   0.718   5.607   0.901 -0.0394 -1.0499 -0.2994
 2548TIP3    H1 7608   0.755   5.579   0.817  2.0378 -0.8849  0.5108
 2548TIP3    H2 7609   0.791   5.647   0.948 -1.5159  0.2674  1.0035
 2549TIP3   OH2 7610   5.229   1.206   3.751  0.1954 -0.4629  0.2132
 2549TIP3    H1 7611   5.158   1.146   3.730  1.1832 -0.8299 -2.6144
 2549TIP3    H2 7612   5.188   1.293   3.749 -0.4856 -0.7800  0.2069
 2550TIP3   OH2 7613   2.671   1.837   3.425 -0.4038 -0.0596  0.1493
 2550TIP3    H1 7614   2.607   1.825   3.495 -0.2421  0.4523  0.3877
 2550TIP3    H2 7615   2.646   1.919   3.383  0.4860  0.5024  0.6756
 2551TIP3   OH2 7616   4.829   6.271   1.693  0.3453 -0.0375 -0.0583
 2551TIP3    H1 7617   4.751   6.216   1.687 -0.8036  1.3576  1.0548
 2551TIP3    H2 7618   4.803   6.342   1.753  1.8630  1.4715 -1.0860
 2552TIP3   OH2 7619   5.043   4.391   5.639  0.1204 -0.0293 -0.7258
 2552TIP3    H1 7620   5.014   4.315   5.689  0.2791 -1.8513 -3.1845
 2552TIP3    H2 7621   5.138   4.382   5.635  0.1908  0.6272 -0.5691
 2553TIP3   OH2 7622   5.036   0.952   5.731  0.2514 -0.5444  0.1808
 2553TIP3    H1 7623   5.130   0.957   5.747  0.0771 -0.8676  1.3821
 2553TIP3    H2 7624   4.995   0.970   5.816 -0.8599  2.4463 -0.8583
 2554TIP3   OH2 7625   3.287   5.409   4.397 -0.4117 -0.4721  0.4663
 2554TIP3    H1 7626   3.245   5.359   4.467 -1.6088  0.3339  0.3585
 2554TIP3    H2 7627   3.253   5.371   4.316 -0.0697 -0.5370  0.3521
 2555TIP3   OH2 7628   4.601   4.661   2.169  0.0836 -0.1963  0.0158
 2555TIP3    H1 7629   4.596   4.609   2.250 -0.1521 -1.1041 -0.5712
 2555TIP3    H2 7630   4.589   4.751   2.199 -0.9245 -0.5987  0.9001
 2556TIP3   OH2 7631   1.643   0.148   4.164  0.5785  0.4720  0.0729
 2556TIP3    H1 7632   1.568   0.118   4.112  1.1526  0.8878 -1.0267
 2556TIP3    H2 7633   1.651   0.084   4.234  0.4890 -0.7727 -1.0236
 2557TIP3   OH2 7634   5.643   1.374   4.909 -0.3651  0.2319  0.5576
 2557TIP3    H1 7635   5.602   1.334   4.985 -2.7152  0.4395 -0.4943
 2557TIP3    H2 7636   5.646   1.468   4.929 -0.7173  0.2518  0.5283
 2558TIP3   OH2 7637   2.239   5.095   0.959 -0.3695  0.0509 -0.0474
 2558TIP3    H1 7638   2.262   5.013   0.914  1.6411 -0.3264  1.5191
 2558TIP3    H2 7639   2.203   5.067   1.043  0.0097  0.7600  0.3565
 2559TIP3   OH2 7640   3.245   6.342   2.433  0.1529  0.1802 -0.2914
 2559TIP3    H1 7641   3.157   6.380   2.442  0.7087  1.6687 -0.8341
 2559TIP3    H2 7642   3.243   6.264   2.489 -1.9968 -0.7341 -1.5324
 2560TIP3   OH2 7643   0.043   5.969   2.834 -0.7351 -0.2503  1.1202
 2560TIP3    H1 7644  -0.029   6.030   2.850 -0.9327  0.5267 -2.0495
 2560TIP3    H2 7645   0.120   6.011   2.874 -0.5484  3.0612 -2.1682
 2561TIP3   OH2 7646  -0.007   6.274   1.492 -0.1371  0.5263  0.3073
 2561TIP3    H1 7647   0.082   6.239   1.484 -0.1339  0.7135 -0.7095
 2561TIP3    H2 7648   0.000   6.363   1.457 -0.6061  0.7403  0.7530
 2562TIP3   OH2 7649   4.551   2.224   3.441 -0.4163 -0.4928 -0.8133
 2562TIP3    H1 7650   4.641   2.251   3.460 -1.1926  1.4551  0.4769
 2562TIP3    H2 7651   4.509   2.304   3.410 -2.1396 -0.8878  0.3488
 2563TIP3   OH2 7652   3.191   2.282   4.740 -0.0402  0.5206 -0.2632
 2563TIP3    H1 7653   3.238   2.257   4.660  0.8374 -0.6948  0.5901
 2563TIP3    H2 7654   3.230   2.365   4.766  0.8092  0.1205 -0.2247
 2564TIP3   OH2 7655   1.018   0.318   3.484 -0.3338 -0.0304  0.5160
 2564TIP3    H1 7656   0.942   0.326   3.542 -1.0785  1.4845 -0.6010
 2564TIP3    H2 7657   1.078   0.386   3.514  0.4561 -0.9810  1.1580
 2565TIP3   OH2 7658   6.560   2.254   5.699 -0.4824  0.6214  0.2237
 2565TIP3    H1 7659   6.598   2.319   5.758  3.3205 -1.7190  0.6664
 2565TIP3    H2 7660   6.579   2.170   5.740  0.5240 -1.0471 -3.2872
 2566TIP3   OH2 7661   6.571   1.796   1.831  0.4713  0.2774 -0.1021
 2566TIP3    H1 7662   6.610   1.837   1.754 -0.0022  0.6497 -0.1385
 2566TIP3    H2 7663   6.640   1.736   1.862  0.2283 -0.8143 -1.5302
 2567TIP3   OH2 7664   0.546   3.840   5.215  0.3851  0.2262  0.2018
 2567TIP3    H1 7665   0.618   3.826   5.153  2.0764 -1.4037  2.3554
 2567TIP3    H2 7666   0.511   3.752   5.231 -0.0946  0.6207  1.4342
 2568TIP3   OH2 7667   2.423   4.620   5.471  0.3598 -0.2188 -0.7232
 2568TIP3    H1 7668   2.335   4.657   5.471  0.3224 -0.2928 -1.2486
 2568TIP3    H2 7669   2.478   4.686   5.513  0.1939  0.1794 -1.1234
 2569TIP3   OH2 7670   4.935   2.962   3.880 -0.5199 -0.5747  0.0858
 2569TIP3    H1 7671   5.013   2.983   3.829  0.5517  0.1087  1.9156
 2569TIP3    H2 7672   4.904   2.879   3.844  0.9581 -0.7701 -0.7893
 2570TIP3   OH2 7673   0.506   0.350   2.753  0.0616 -0.2464 -0.2314
 2570TIP3    H1 7674   0.473   0.426   2.705  0.2514 -0.2915 -0.4324
 2570TIP3    H2 7675   0.433   0.287   2.752 -0.6366  0.4881  1.1913
 2571TIP3   OH2 7676   4.422   1.241   4.469  0.3258 -0.1414  0.5541
 2571TIP3    H1 7677   4.381   1.166   4.427  2.4911 -1.3909  0.5617
 2571TIP3    H2 7678   4.429   1.306   4.400  1.6865 -1.3003 -0.4435
 2572TIP3   OH2 7679   1.942   5.486   0.773  0.4070  0.0144  0.1478
 2572TIP3    H1 7680   1.994   5.431   0.831  0.3072  1.0215  1.2156
 2572TIP3    H2 7681   1.854   5.448   0.775  0.1561  0.5876  1.4592
 2573TIP3   OH2 7682   6.853   4.141   4.256  0.1097 -0.0083  0.4423
 2573TIP3    H1 7683   6.855   4.229   4.218 -1.0801  0.1637  0.7090
 2573TIP3    H2 7684   6.939   4.130   4.295  1.0246  0.1899 -1.4234
 2574TIP3   OH2 7685   1.833   0.764   2.624 -0.0052  0.2441 -0.0543
 2574TIP3    H1 7686   1.854   0.761   2.717  0.8403  2.5629 -0.0982
 2574TIP3    H2 7687   1.763   0.700   2.612 -1.7995  1.5266  2.6366
 2575TIP3   OH2 7688   6.254   3.678   1.775 -0.6260 -0.1458 -0.1223
 2575TIP3    H1 7689   6.256   3.710   1.685  0.7323  1.9493  0.5650
 2575TIP3    H2 7690   6.339   3.637   1.788  0.0836  1.4940  0.7727
 2576TIP3   OH2 7691   6.437   2.025   3.145  0.2237  0.7153 -0.3951
 2576TIP3    H1 7692   6.427   2.117   3.169 -0.3094  0.9787 -1.5838
 2576TIP3    H2 7693   6.351   1.986   3.162  0.3828  0.4856 -0.1103
 2577TIP3   OH2 7694   1.201   4.208   0.000 -0.1872  0.1751  0.4380
 2577TIP3    H1 7695   1.116   4.219   0.041 -0.2754  0.6507  0.1341
 2577TIP3    H2 7696   1.232   4.297  -0.015 -0.4172  0.0204 -1.0631
 2578TIP3   OH2 7697   2.843   6.609   4.587  0.0734  0.3458 -0.0104
 2578TIP3    H1 7698   2.871   6.701   4.589  0.2587  0.2796  0.5720
 2578TIP3    H2 7699   2.922   6.560   4.608  0.2809 -0.0303 -1.5361
 2579TIP3   OH2 7700   5.857   3.625   0.128  0.2706  0.1034 -0.4581
 2579TIP3    H1 7701   5.906   3.704   0.103  0.4661  0.0843 -0.1369
 2579TIP3    H2 7702   5.823   3.591   0.045 -1.1717  1.4162 -0.4646
 2580TIP3   OH2 7703   2.655   5.421   4.480 -0.0299 -0.0969  0.0413
 2580TIP3    H1 7704   2.612   5.480   4.419 -1.7075 -1.7269 -0.4481
 2580TIP3    H2 7705   2.684   5.347   4.426  0.7213 -0.4071  0.8380
 2581TIP3   OH2 7706   4.557   4.559   3.954  0.7168  0.2027  0.3935
 2581TIP3    H1 7707   4.507   4.478   3.942  1.3193 -0.1415  0.1474
 2581TIP3    H2 7708   4.504   4.611   4.014  0.3781 -0.4301  0.6582
 2582TIP3   OH2 7709   1.186   4.832   2.808 -0.4831 -0.4174  0.0770
 2582TIP3    H1 7710   1.254   4.776   2.846 -0.7080 -2.1444 -1.9117
 2582TIP3    H2 7711   1.234   4.908   2.774  0.2278 -0.8167  0.1719
 2583TIP3   OH2 7712   0.792   2.664   5.191  0.2786  0.1508  0.0617
 2583TIP3    H1 7713   0.859   2.603   5.160  2.5297  2.0202  0.9414
 2583TIP3    H2 7714   0.835   2.712   5.263 -2.5730  0.3545  1.7743
 2584TIP3   OH2 7715   1.290   5.767   2.064  0.2562  0.0549 -0.6659
 2584TIP3    H1 7716   1.376   5.772   2.107 -0.3701 -1.3990  0.8685
 2584TIP3    H2 7717   1.228   5.756   2.136 -1.3662  2.0400 -1.6758
 2585TIP3   OH2 7718   1.382   1.150   5.522  0.0490  0.3693 -0.4890
 2585TIP3    H1 7719   1.398   1.075   5.579  1.0979  0.1356 -1.0556
 2585TIP3    H2 7720   1.289   1.169   5.532 -0.4423 -1.5540 -0.9623
 2586TIP3   OH2 7721   3.770   6.119   1.326 -0.8717 -0.5139  0.3475
 2586TIP3    H1 7722   3.678   6.129   1.301 -0.4733 -1.4212 -1.7290
 2586TIP3    H2 7723   3.785   6.025   1.326 -0.1366 -0.4256  1.5658
 2587TIP3   OH2 7724   4.877   6.389   5.395  0.1215  0.3371  0.0731
 2587TIP3    H1 7725   4.914   6.325   5.456  1.0968  1.2839  0.5121
 2587TIP3    H2 7726   4.953   6.442   5.368 -0.7666  1.6984  0.1990
 2588TIP3   OH2 7727   3.351   4.269   4.924  0.1050  0.0299 -0.7852
 2588TIP3    H1 7728   3.388   4.356   4.938 -0.8247  0.3338 -0.1132
 2588TIP3    H2 7729   3.337   4.265   4.829  0.8385  0.3168 -0.9160
 2589TIP3   OH2 7730   3.861   6.742   1.396  0.0522  0.5680  0.2304
 2589TIP3    H1 7731   3.939   6.713   1.349 -0.1501 -0.3910  0.4536
 2589TIP3    H2 7732   3.798   6.763   1.328  0.7436  2.0884  0.0315
 2590TIP3   OH2 7733   5.181   3.778   0.901 -0.7760  0.2888 -0.0102
 2590TIP3    H1 7734   5.206   3.824   0.981  2.1952 -0.6195 -0.3022
 2590TIP3    H2 7735   5.122   3.838   0.855  0.0018  2.1644  1.3669
 2591TIP3   OH2 7736   6.400   5.601   1.142 -0.1072  0.0635  0.3119
 2591TIP3    H1 7737   6.383   5.511   1.113 -0.2521  0.0374  0.4766
 2591TIP3    H2 7738   6.353   5.608   1.225 -1.2667  0.7433 -0.3882
 2592TIP3   OH2 7739   5.739   1.502   2.168  0.3776  0.0545 -0.0993
 2592TIP3    H1 7740   5.771   1.567   2.232  0.8993 -0.3767  0.0812
 2592TIP3    H2 7741   5.644   1.501   2.182  0.5427 -0.5299  1.1658
 2593TIP3   OH2 7742   5.468   4.433   5.219 -0.0064  0.5495  0.3505
 2593TIP3    H1 7743   5.387   4.448   5.172 -0.0807 -0.7516  0.0114
 2593TIP3    H2 7744   5.513   4.365   5.169  0.9258  0.6824  0.9705
 2594TIP3   OH2 7745   2.907   1.751   0.325  0.5524  0.6980  0.5391
 2594TIP3    H1 7746   2.873   1.745   0.236  1.1347  0.1024  0.3491
 2594TIP3    H2 7747   2.832   1.779   0.378 -0.0011  0.2585 -0.0047
 2595TIP3   OH2 7748   6.055   0.754   5.412 -0.4426  0.1234  0.0468
 2595TIP3    H1 7749   5.987   0.780   5.474 -0.7660  2.6865 -1.2400
 2595TIP3    H2 7750   6.028   0.794   5.329  1.6397 -0.4405 -0.9748
 2596TIP3   OH2 7751   3.757   3.454   2.946 -0.4208  0.2232  0.1579
 2596TIP3    H1 7752   3.693   3.511   2.903 -0.8158 -0.2997  0.0494
 2596TIP3    H2 7753   3.720   3.366   2.939  1.0100 -0.3079 -1.2078
 2597TIP3   OH2 7754   6.058   6.180   1.139 -0.2270 -0.0253 -0.2636
 2597TIP3    H1 7755   6.141   6.137   1.159 -0.9523 -1.6882 -0.6548
 2597TIP3    H2 7756   6.007   6.172   1.220 -0.2291  0.4856 -0.2080
 2598TIP3   OH2 7757   1.735   1.825   2.173  0.0801  0.5751  0.6688
 2598TIP3    H1 7758   1.715   1.875   2.094 -1.5794 -0.7028  0.2178
 2598TIP3    H2 7759   1.827   1.802   2.164 -0.1963 -0.0017 -1.1948
 2599TIP3   OH2 7760   6.217   1.425   0.663  0.0501  0.3741 -0.2344
 2599TIP3    H1 7761   6.140   1.481   0.667  1.0107  1.6621  1.2636
 2599TIP3    H2 7762   6.261   1.438   0.747  1.5201 -0.8905 -0.7543
 2600TIP3   OH2 7763   5.425   2.653   2.469 -0.0248  0.2054  0.1816
 2600TIP3    H1 7764   5.448   2.594   2.397 -2.1934  0.5110 -0.8679
 2600TIP3    H2 7765   5.386   2.729   2.425  1.0262  1.6128  1.5903
 2601TIP3   OH2 7766   6.082   5.763   5.131 -0.2434  0.1621  0.4391
 2601TIP3    H1 7767   6.154   5.702   5.152  0.7362  1.0190 -0.3208
 2601TIP3    H2 7768   6.021   5.710   5.079  0.7657 -0.1047 -0.5173
 2602TIP3   OH2 7769   2.139   2.372   1.822 -0.1041 -0.2068 -0.3039
 2602TIP3    H1 7770   2.095   2.413   1.747 -0.2123  0.4115  0.0920
 2602TIP3    H2 7771   2.090   2.290   1.837 -1.3806  0.6427  0.3663
 2603TIP3   OH2 7772   6.700   1.892   5.655  0.6054 -0.0920  0.4535
 2603TIP3    H1 7773   6.718   1.944   5.733  2.4821  0.4440 -0.2952
 2603TIP3    H2 7774   6.721   1.949   5.582 -0.3936 -0.8410 -0.4473
 2604TIP3   OH2 7775   6.500   0.655   3.346  0.3588 -0.5291  0.0057
 2604TIP3    H1 7776   6.524   0.656   3.253 -1.6882  0.9442 -0.5880
 2604TIP3    H2 7777   6.563   0.713   3.388  1.6652 -1.6655 -0.3350
 2605TIP3   OH2 7778   1.066   5.472   0.930 -0.0438  0.6798 -0.0823
 2605TIP3    H1 7779   1.053   5.560   0.896  0.9965  0.5308 -0.9267
 2605TIP3    H2 7780   0.985   5.425   0.907 -0.0316  1.0357 -0.8823
 2606TIP3   OH2 7781   6.360   0.156   1.573  0.2210  0.3140 -1.0941
 2606TIP3    H1 7782   6.297   0.165   1.501 -0.6852  0.4462 -0.3186
 2606TIP3    H2 7783   6.305   0.134   1.649  1.2304 -0.5119 -0.5883
 2607TIP3   OH2 7784   7.082   4.335   1.513  0.4561  0.2430 -0.1887
 2607TIP3    H1 7785   7.093   4.298   1.600  1.8339 -0.6588 -0.7014
 2607TIP3    H2 7786   7.166   4.317   1.469 -0.6514 -0.4994 -2.1089
 2608TIP3   OH2 7787   7.075   3.487   4.533 -0.0530 -0.7229  0.2080
 2608TIP3    H1 7788   7.020   3.527   4.466 -0.6605  0.2874  1.2753
 2608TIP3    H2 7789   7.048   3.395   4.536 -2.1894 -0.1134  1.1725
 2609TIP3   OH2 7790   4.315   2.406   4.814  0.1521 -0.2137 -0.8579
 2609TIP3    H1 7791   4.313   2.403   4.718 -0.2531  0.6192 -0.8872
 2609TIP3    H2 7792   4.236   2.359   4.841 -1.0664  1.6102 -1.0266
 2610TIP3   OH2 7793   3.384   1.350   1.885  0.0688  0.0446  0.3507
 2610TIP3    H1 7794   3.349   1.429   1.842  0.2111  0.7268  1.4355
 2610TIP3    H2 7795   3.307   1.296   1.903 -0.0740  0.1057 -0.0750
 2611TIP3   OH2 7796   2.642   6.669   1.700 -0.8443 -0.0804  0.4422
 2611TIP3    H1 7797   2.610   6.749   1.743  0.1940  0.4757  0.2160
 2611TIP3    H2 7798   2.584   6.658   1.625 -0.4681  0.9837 -0.0299
 2612TIP3   OH2 7799   3.813   5.347   0.168  0.0379  0.5685  0.3775
 2612TIP3    H1 7800   3.762   5.353   0.087  0.8947 -0.0110 -0.2127
 2612TIP3    H2 7801   3.790   5.426   0.216 -1.5707  0.2257  0.2193
 2613TIP3   OH2 7802   0.068   6.543   1.363 -0.0264  0.0380  0.6377
 2613TIP3    H1 7803   0.000   6.605   1.390 -0.6236  0.2299 -1.1481
 2613TIP3    H2 7804   0.051   6.528   1.270  1.0092 -1.6800  0.6755
 2614TIP3   OH2 7805   1.437   2.109   5.632  0.0962 -0.0493  0.2327
 2614TIP3    H1 7806   1.455   2.064   5.549  0.0503 -0.7146  0.5788
 2614TIP3    H2 7807   1.430   2.038   5.697 -2.3521  0.2374  0.3782
 2615TIP3   OH2 7808   2.336   1.549   0.323 -0.1625  0.5887  0.0120
 2615TIP3    H1 7809   2.403   1.596   0.372  1.3406  0.8521 -2.1147
 2615TIP3    H2 7810   2.363   1.457   0.327  0.2080  0.6608 -0.6073
 2616TIP3   OH2 7811   5.080   5.750   5.542 -0.2901  0.6794 -0.1387
 2616TIP3    H1 7812   5.161   5.701   5.535  0.3024  1.3230  1.6340
 2616TIP3    H2 7813   5.016   5.699   5.492  0.3918 -1.6780  1.2509
 2617TIP3   OH2 7814   5.987   0.897   3.343  0.8457  0.2045  0.1307
 2617TIP3    H1 7815   5.904   0.857   3.372  0.3719  1.1363  0.1011
 2617TIP3    H2 7816   6.039   0.823   3.311 -0.6266 -0.2286 -1.4266
 2618TIP3   OH2 7817   5.564   0.487   0.934 -0.2935  0.3210 -0.0283
 2618TIP3    H1 7818   5.585   0.434   1.010  0.7995  0.3441 -0.2889
 2618TIP3    H2 7819   5.489   0.540   0.961 -2.4472 -2.4190 -0.2684
 2619TIP3   OH2 7820   3.890   3.943   0.411  0.1849  0.6150  0.0136
 2619TIP3    H1 7821   3.837   3.868   0.438  1.3636  0.4778  2.1241
 2619TIP3    H2 7822   3.829   3.999   0.362 -1.5012 -0.2566  1.0186
 2620TIP3   OH2 7823   7.049   2.728   4.725  0.6436  0.2213  0.8378
 2620TIP3    H1 7824   7.119   2.682   4.677 -0.6198  0.3670 -1.2720
 2620TIP3    H2 7825   7.073   2.821   4.717 -0.1728  0.3431 -0.6690
 2621TIP3   OH2 7826   6.972   2.917   4.157  0.2715 -0.1214 -0.4026
 2621TIP3    H1 7827   7.023   2.970   4.095 -1.7683  0.9653 -1.2691
 2621TIP3    H2 7828   6.943   2.842   4.105 -0.7075  0.3405 -0.5503
 2622TIP3   OH2 7829   5.706   0.019   5.193 -0.1271  0.3321 -0.0075
 2622TIP3    H1 7830   5.738   0.059   5.273  0.3313  0.6042 -0.3202
 2622TIP3    H2 7831   5.648  -0.051   5.222  0.6288 -0.0702  0.5765
 2623TIP3   OH2 7832   2.707   1.345   4.924  0.4090  0.0557  0.0311
 2623TIP3    H1 7833   2.754   1.278   4.874 -0.8790 -0.8053 -0.0614
 2623TIP3    H2 7834   2.615   1.330   4.904  0.0471  1.3544  0.6468
 2624TIP3   OH2 7835   3.007   4.183   0.230 -0.3611 -0.1285 -0.0211
 2624TIP3    H1 7836   2.950   4.255   0.257  0.6625  1.1258 -1.1058
 2624TIP3    H2 7837   3.063   4.167   0.306 -1.1000 -0.3184  0.4956
 2625TIP3   OH2 7838   5.311   4.801   2.927  0.1556  0.1411  0.1009
 2625TIP3    H1 7839   5.280   4.874   2.981 -2.5905 -1.4494  0.8364
 2625TIP3    H2 7840   5.268   4.813   2.843  0.7591  0.0544 -0.2317
 2626TIP3   OH2 7841   1.496   6.251   5.054  0.7787  0.5647  0.3882
 2626TIP3    H1 7842   1.477   6.178   4.994 -0.4051  1.2977 -0.1457
 2626TIP3    H2 7843   1.534   6.318   4.997 -0.0522  1.1402  0.4994
 2627TIP3   OH2 7844   6.064   5.514   2.469  0.0117  0.4700  0.4475
 2627TIP3    H1 7845   6.069   5.434   2.417 -1.1112  1.2527 -0.9204
 2627TIP3    H2 7846   6.111   5.492   2.550  0.1932 -1.3841 -0.1011
 2628TIP3   OH2 7847   6.605   4.958   3.430  0.1172 -0.2664  0.3100
 2628TIP3    H1 7848   6.696   4.985   3.415  0.1211 -0.7471 -0.5577
 2628TIP3    H2 7849   6.560   5.039   3.455  0.5136  0.2201 -0.5219
 2629TIP3   OH2 7850   0.658   1.945   0.511 -0.0647  0.2090 -0.0328
 2629TIP3    H1 7851   0.688   2.011   0.448 -0.5991  1.7297  1.2567
 2629TIP3    H2 7852   0.738   1.898   0.535  0.3680  0.5233 -0.7971
 2630TIP3   OH2 7853   5.021   4.172   5.782 -0.1500 -0.7753 -0.1577
 2630TIP3    H1 7854   5.087   4.103   5.769  0.8226  0.3679 -1.5888
 2630TIP3    H2 7855   4.988   4.156   5.871  0.1539 -2.9664 -0.3665
 2631TIP3   OH2 7856   0.793   4.872   0.554  0.2505 -0.0792 -0.3574
 2631TIP3    H1 7857   0.744   4.803   0.599  0.3897  0.7060  1.0363
 2631TIP3    H2 7858   0.736   4.899   0.482 -0.1994 -1.0042 -0.3661
 2632TIP3   OH2 7859   1.905   2.322   4.752  0.0975  0.0894  0.0413
 2632TIP3    H1 7860   1.954   2.246   4.722  1.3032  1.2606 -1.0712
 2632TIP3    H2 7861   1.955   2.355   4.827  1.4689  1.6613 -1.4846
 2633TIP3   OH2 7862   5.737   5.915   3.503  0.0962  0.0822  0.4907
 2633TIP3    H1 7863   5.762   5.871   3.585  1.3117 -1.3598 -0.5900
 2633TIP3    H2 7864   5.776   5.861   3.434  0.3645  2.0762 -0.9970
 2634TIP3   OH2 7865   6.866   0.594   0.618 -0.0513  0.5337  0.6708
 2634TIP3    H1 7866   6.927   0.531   0.656 -0.2413 -0.1456 -0.1442
 2634TIP3    H2 7867   6.815   0.626   0.693 -0.0408 -0.3687  1.0676
 2635TIP3   OH2 7868   0.327   5.467   5.769  0.0503 -0.2313 -0.8943
 2635TIP3    H1 7869   0.300   5.471   5.678  1.5653  1.6721 -1.3311
 2635TIP3    H2 7870   0.421   5.486   5.768  0.0221  0.3338  1.0824
 2636TIP3   OH2 7871   6.912   1.202   0.148 -0.0148  0.4199  0.1916
 2636TIP3    H1 7872   6.861   1.156   0.215 -0.1369  0.1233 -0.1057
 2636TIP3    H2 7873   6.864   1.284   0.133  0.1815  0.6305  0.6916
 2637TIP3   OH2 7874   2.737   4.682   3.859 -0.2300 -0.2382 -0.4200
 2637TIP3    H1 7875   2.822   4.667   3.817  0.0005 -0.1510  0.0097
 2637TIP3    H2 7876   2.673   4.648   3.797  0.1978 -1.6532 -0.1126
 2638TIP3   OH2 7877   0.034   3.327   2.304  0.0822  0.4898 -0.2198
 2638TIP3    H1 7878   0.033   3.413   2.347 -0.3678  0.1508  0.4868
 2638TIP3    H2 7879  -0.030   3.335   2.233  0.0874  0.7577 -0.1954
 2639TIP3   OH2 7880   5.796   3.135   5.600 -0.3067 -0.3069  0.8613
 2639TIP3    H1 7881   5.817   3.228   5.611  1.5089 -0.3321 -1.3978
 2639TIP3    H2 7882   5.702   3.133   5.584 -0.0282  1.5209 -1.5833
 2640TIP3   OH2 7883   6.702   0.746   1.824 -0.1560  0.5562 -0.2243
 2640TIP3    H1 7884   6.744   0.731   1.739 -1.1749  0.7010 -0.7638
 2640TIP3    H2 7885   6.616   0.704   1.816 -0.1155  0.2340  0.8735
 2641TIP3   OH2 7886   5.043   5.530   1.006 -0.2205 -0.3439 -0.5677
 2641TIP3    H1 7887   4.970   5.570   0.960  0.3814  0.1647 -1.1073
 2641TIP3    H2 7888   5.085   5.474   0.941 -0.4178 -1.0222 -0.1213
 2642TIP3   OH2 7889   3.532   2.070   2.096  0.3935 -0.2673 -0.6349
 2642TIP3    H1 7890   3.553   2.159   2.123  0.5939 -0.6518  0.5268
 2642TIP3    H2 7891   3.617   2.027   2.086  0.3411 -0.0804 -2.1643
 2643TIP3   OH2 7892   0.957   5.733   1.633 -0.0842 -0.5424 -0.4155
 2643TIP3    H1 7893   1.023   5.739   1.702 -1.2318  0.2450  0.6668
 2643TIP3    H2 7894   0.967   5.645   1.598  1.0995 -0.6619  0.1522
 2644TIP3   OH2 7895   2.649   3.281   4.991 -0.1966 -0.3182 -0.0735
 2644TIP3    H1 7896   2.575   3.336   4.964  0.0248 -0.2078 -0.4557
 2644TIP3    H2 7897   2.618   3.238   5.071 -0.5129  0.0630  0.0139
 2645TIP3   OH2 7898   5.710   2.227   2.205 -0.1710  0.1269  0.2251
 2645TIP3    H1 7899   5.658   2.148   2.190  0.5336 -0.3172  0.0616
 2645TIP3    H2 7900   5.681   2.288   2.137 -0.6865 -0.0015  0.3241
 2646TIP3   OH2 7901   3.265   6.398   0.790  0.0765  0.1285 -0.5178
 2646TIP3    H1 7902   3.232   6.376   0.703 -1.5446 -0.0421  0.0854
 2646TIP3    H2 7903   3.207   6.350   0.850  0.2388  1.3531  0.6839
 2647TIP3   OH2 7904   1.439   6.508   2.185  0.1086 -0.3870 -0.3352
 2647TIP3    H1 7905   1.454   6.591   2.139 -0.7382  0.2564  0.5336
 2647TIP3    H2 7906   1.527   6.473   2.199  0.5859  1.1450  0.7102
 2648TIP3   OH2 7907   4.745   2.207   5.497  0.1257 -0.5920 -0.2380
 2648TIP3    H1 7908   4.710   2.277   5.442 -0.1443 -1.6387 -1.4215
 2648TIP3    H2 7909   4.839   2.226   5.502  0.1511 -0.4768 -1.0538
 2649TIP3   OH2 7910   2.170   3.037   2.213  0.1629  0.0762 -0.5122
 2649TIP3    H1 7911   2.186   3.026   2.119  2.8134  1.4252 -0.3211
 2649TIP3    H2 7912   2.239   2.985   2.255  1.0065  1.9625  0.5716
 2650TIP3   OH2 7913   5.122   1.408   1.753  0.5743 -0.2257 -0.1620
 2650TIP3    H1 7914   5.110   1.381   1.661  0.6528  2.6139 -1.1068
 2650TIP3    H2 7915   5.207   1.371   1.777 -0.0199 -2.1123 -0.7533
 2651TIP3   OH2 7916   6.874   4.081   5.656  0.0446  0.6005  0.1010
 2651TIP3    H1 7917   6.796   4.085   5.712 -0.4298 -0.7298 -0.4441
 2651TIP3    H2 7918   6.841   4.061   5.569  1.0337 -0.6868 -0.0073
 2652TIP3   OH2 7919   7.177   3.331   5.427  0.0848  0.0122 -0.1832
 2652TIP3    H1 7920   7.144   3.369   5.346  0.3933 -1.4183 -1.0091
 2652TIP3    H2 7921   7.151   3.393   5.495  0.1713  1.4318 -1.4099
 2653TIP3   OH2 7922   2.058   5.221   4.192 -0.4719  0.0066 -0.5485
 2653TIP3    H1 7923   2.044   5.302   4.242 -2.0003 -0.2732 -0.4774
 2653TIP3    H2 7924   2.147   5.229   4.158 -0.2357  1.2553  0.3028
 2654TIP3   OH2 7925   2.899   3.408   3.697  0.0238  0.3476 -0.4700
 2654TIP3    H1 7926   2.835   3.398   3.768 -0.7288 -2.7992 -1.4578
 2654TIP3    H2 7927   2.853   3.378   3.619  2.3324 -0.9310 -1.4244
 2655TIP3   OH2 7928   5.141   5.168   2.531  0.1978  0.0537  0.0321
 2655TIP3    H1 7929   5.153   5.251   2.486  4.1246 -0.2036  0.2440
 2655TIP3    H2 7930   5.150   5.189   2.624  2.1855 -0.6143  0.0444
 2656TIP3   OH2 7931   7.080   0.172   0.401 -0.3970 -0.1916 -0.1891
 2656TIP3    H1 7932   7.066   0.257   0.359 -0.5079  0.1147  0.4504
 2656TIP3    H2 7933   7.024   0.175   0.479 -0.5986 -0.9555 -0.2979
 2657TIP3   OH2 7934   0.100   3.397   3.579 -0.5533  0.8611 -0.3405
 2657TIP3    H1 7935   0.138   3.484   3.579  0.0086  0.6168 -0.8297
 2657TIP3    H2 7936   0.169   3.340   3.612 -0.8019  0.5484 -0.3468
 2658TIP3   OH2 7937   0.209   6.686   2.356  0.2252 -0.1061 -0.1956
 2658TIP3    H1 7938   0.287   6.633   2.372 -0.3484 -2.1006 -3.2171
 2658TIP3    H2 7939   0.141   6.645   2.410  0.1733 -1.5258 -1.2804
 2659TIP3   OH2 7940   0.947   3.358   5.774 -0.0063  0.2364 -0.1881
 2659TIP3    H1 7941   0.918   3.427   5.714  2.6633  1.7127  0.0783
 2659TIP3    H2 7942   0.962   3.282   5.718 -0.4945  0.6563 -0.8999
 2660TIP3   OH2 7943   0.872   4.419   0.633  0.5813 -0.7037 -0.1878
 2660TIP3    H1 7944   0.822   4.356   0.583  0.9124 -1.7151  0.7066
 2660TIP3    H2 7945   0.887   4.376   0.718 -0.6765  1.2570  1.1153
 2661TIP3   OH2 7946   4.476   3.569   3.621 -0.2100  0.6729  0.3122
 2661TIP3    H1 7947   4.459   3.570   3.526 -0.3211  0.2268  0.3255
 2661TIP3    H2 7948   4.569   3.547   3.628 -0.3206  0.1900  0.3168
 2662TIP3   OH2 7949   6.142   1.197   1.742  0.4997 -0.8868  0.1320
 2662TIP3    H1 7950   6.224   1.208   1.695  0.7937 -1.6446  0.4489
 2662TIP3    H2 7951   6.128   1.282   1.786  1.6175 -1.0587  0.8600
 2663TIP3   OH2 7952   2.924   5.674   1.947  0.3583  0.0018  0.3063
 2663TIP3    H1 7953   2.970   5.617   1.884 -0.0492 -0.1906  0.1822
 2663TIP3    H2 7954   2.935   5.762   1.912 -0.2840 -0.1529 -0.3008
 2664TIP3   OH2 7955   2.136   3.526   2.941 -0.1098 -0.4764 -1.1764
 2664TIP3    H1 7956   2.077   3.591   2.903  0.2978  0.6228  0.0192
 2664TIP3    H2 7957   2.079   3.468   2.992 -0.1816  0.6953  0.1344
 2665TIP3   OH2 7958   2.772   3.256   0.673  0.1192  0.3310 -0.3204
 2665TIP3    H1 7959   2.849   3.228   0.624 -0.1590  0.2908 -0.7338
 2665TIP3    H2 7960   2.704   3.268   0.607  0.2137  1.9393 -0.1678
 2666TIP3   OH2 7961   5.141   2.608   2.867  0.3893  0.2855 -0.3020
 2666TIP3    H1 7962   5.168   2.694   2.835  1.4082 -0.1908 -0.7794
 2666TIP3    H2 7963   5.070   2.581   2.809 -0.0680  0.8807 -0.0269
 2667TIP3   OH2 7964   5.727   0.788   0.065 -0.7537  0.0506  0.2000
 2667TIP3    H1 7965   5.734   0.726   0.137  1.2938  1.0475  0.9605
 2667TIP3    H2 7966   5.714   0.873   0.108  1.9662  0.8833 -0.3980
 2668TIP3   OH2 7967   5.967   4.441   4.513 -0.6793 -0.0595  0.4739
 2668TIP3    H1 7968   5.878   4.468   4.493 -1.1243 -2.5877 -1.3980
 2668TIP3    H2 7969   5.967   4.346   4.500  2.3409 -0.1122  0.1627
 2669TIP3   OH2 7970   2.830   2.937   4.198 -0.2535  0.2404 -0.5349
 2669TIP3    H1 7971   2.854   2.903   4.284 -0.1905  0.5718 -0.4173
 2669TIP3    H2 7972   2.762   3.002   4.216 -0.1719  0.3798 -0.7251
 2670TIP3   OH2 7973   6.723   4.889   2.955  0.2127 -0.1168 -0.4387
 2670TIP3    H1 7974   6.801   4.889   2.899  1.3620  2.7048  0.9642
 2670TIP3    H2 7975   6.673   4.966   2.928 -2.5129 -2.1307 -1.6647
 2671TIP3   OH2 7976   1.428   0.743   4.910 -0.1898 -0.0411 -0.0896
 2671TIP3    H1 7977   1.385   0.730   4.825  0.3947 -1.9630 -0.1517
 2671TIP3    H2 7978   1.504   0.685   4.906 -0.3461 -0.4286  1.8846
 2672TIP3   OH2 7979   0.987   4.518   1.131  0.1527  0.0748  0.1731
 2672TIP3    H1 7980   1.061   4.463   1.158  1.0245  1.4711  0.7232
 2672TIP3    H2 7981   0.999   4.600   1.179 -0.2856  1.2978 -1.7165
 2673TIP3   OH2 7982   6.153   2.773   3.021 -0.0979  0.7613 -0.3467
 2673TIP3    H1 7983   6.136   2.746   2.931  2.0638  2.7254 -1.4545
 2673TIP3    H2 7984   6.238   2.734   3.042 -0.7346  0.0374  1.0234
 2674TIP3   OH2 7985   0.193   5.575   4.995 -0.0270 -0.4204  0.2509
 2674TIP3    H1 7986   0.135   5.505   5.024  0.5789 -0.9133  0.3018
 2674TIP3    H2 7987   0.220   5.619   5.076  0.8465 -1.1442  0.3744
 2675TIP3   OH2 7988   3.119   5.780   5.104  0.1592  0.1196  0.0018
 2675TIP3    H1 7989   3.043   5.835   5.084 -0.2051 -0.9694 -1.8111
 2675TIP3    H2 7990   3.098   5.695   5.067  1.0384 -1.0751  2.0778
 2676TIP3   OH2 7991   0.872   0.666   5.699  0.0506 -0.2766  0.2044
 2676TIP3    H1 7992   0.824   0.656   5.782 -0.3914  3.5112  0.5927
 2676TIP3    H2 7993   0.803   0.669   5.632  0.3220 -1.7900 -0.1974
 2677TIP3   OH2 7994   6.308   6.043   1.178 -0.2942  0.8511 -0.1070
 2677TIP3    H1 7995   6.282   5.972   1.120 -1.5087  0.3266  1.0240
 2677TIP3    H2 7996   6.390   6.076   1.141  0.9536 -1.8950 -0.0156
 2678TIP3   OH2 7997   1.798   3.339   3.576 -0.6764  0.7179 -0.1720
 2678TIP3    H1 7998   1.822   3.357   3.485 -0.1543  0.3559 -0.1117
 2678TIP3    H2 7999   1.750   3.256   3.572 -1.4284  1.1436 -0.2187
 2679TIP3   OH2 8000   0.720   3.971   2.304 -0.1051 -0.3935  0.1455
 2679TIP3    H1 8001   0.750   3.960   2.214 -0.0767 -1.1155  0.2392
 2679TIP3    H2 8002   0.684   3.885   2.328 -0.8331  0.0172  0.5525
 2680TIP3   OH2 8003   6.559   1.807   3.482 -0.0190 -0.2076 -0.2282
 2680TIP3    H1 8004   6.525   1.894   3.465  1.1208  0.2215 -0.3548
 2680TIP3    H2 8005   6.569   1.767   3.396 -1.6605 -0.9315 -0.1286
 2681TIP3   OH2 8006   3.548   5.170   1.912 -0.4064 -0.0586  0.0662
 2681TIP3    H1 8007   3.582   5.208   1.831  2.8601  2.0783  2.1918
 2681TIP3    H2 8008   3.616   5.109   1.941 -0.7162  0.3868  1.8916
 2682TIP3   OH2 8009   5.186   3.379   5.054 -0.2617 -0.0403 -0.0486
 2682TIP3    H1 8010   5.205   3.446   5.120  0.1178  0.1561 -0.3524
 2682TIP3    H2 8011   5.269   3.333   5.041 -0.0989  0.4712 -0.9905
 2683TIP3   OH2 8012   5.559   3.505   4.181  0.8456  0.7222  0.0672
 2683TIP3    H1 8013   5.558   3.601   4.181  1.0509  0.7266 -0.0556
 2683TIP3    H2 8014   5.532   3.481   4.093 -2.3831  0.5947  0.9886
 2684TIP3   OH2 8015   5.981   4.255   1.056  0.1457 -0.7175 -0.0300
 2684TIP3    H1 8016   6.058   4.310   1.040 -1.1040  1.9162  2.1458
 2684TIP3    H2 8017   5.951   4.231   0.968  0.6270  2.4520 -1.2128
 2685TIP3   OH2 8018   1.302   5.492   0.110  0.1906 -0.4230 -0.4446
 2685TIP3    H1 8019   1.356   5.415   0.094 -0.4440 -1.2796  1.2014
 2685TIP3    H2 8020   1.339   5.532   0.189 -1.1180 -0.6368  0.3178
 2686TIP3   OH2 8021   4.822   1.400   5.391 -0.0036 -0.0968  0.0306
 2686TIP3    H1 8022   4.810   1.472   5.453 -1.4506 -0.2503 -0.0390
 2686TIP3    H2 8023   4.903   1.422   5.344 -1.7310  2.9071 -1.8563
 2687TIP3   OH2 8024   3.396   5.727   2.076 -0.3010 -0.3629 -0.2317
 2687TIP3    H1 8025   3.360   5.650   2.120  1.6230 -2.7206 -2.4553
 2687TIP3    H2 8026   3.481   5.742   2.118 -0.4397  0.2694 -0.1582
 2688TIP3   OH2 8027   2.072   3.734   0.486  0.4600  0.0070 -0.1107
 2688TIP3    H1 8028   2.095   3.800   0.552 -0.7027  0.5684 -0.2510
 2688TIP3    H2 8029   1.980   3.714   0.503 -0.2350  1.0728 -2.2946
 2689TIP3   OH2 8030   4.821   2.770   5.864  0.4066 -0.1315  0.4504
 2689TIP3    H1 8031   4.825   2.679   5.892 -0.0643  0.2376  1.7928
 2689TIP3    H2 8032   4.727   2.788   5.856  0.5101 -0.3763 -1.9936
 2690TIP3   OH2 8033   1.490   3.379   1.501  0.3901  0.0725  0.0093
 2690TIP3    H1 8034   1.501   3.329   1.419 -0.7922 -2.0254  1.0320
 2690TIP3    H2 8035   1.395   3.381   1.514  0.5170  1.1531  0.9135
 2691TIP3   OH2 8036   0.314   0.338   3.931  0.2916 -0.1054  0.3044
 2691TIP3    H1 8037   0.289   0.390   3.854  2.0350  0.3034 -0.0313
 2691TIP3    H2 8038   0.272   0.383   4.004  0.2499  0.6935 -0.1900
 2692TIP3   OH2 8039   2.310   1.426   5.318  0.3269 -0.2652  0.6811
 2692TIP3    H1 8040   2.286   1.406   5.228  1.3307 -0.0759  0.3603
 2692TIP3    H2 8041   2.232   1.403   5.369 -0.2747 -0.3180 -0.2313
 2693TIP3   OH2 8042   5.888   4.670   0.193 -0.3477 -0.0592 -0.3363
 2693TIP3    H1 8043   5.805   4.717   0.196 -1.3303 -1.6854 -0.9676
 2693TIP3    H2 8044   5.954   4.738   0.207 -1.7911  1.1594  0.8952
 2694TIP3   OH2 8045   2.196   2.719   0.215 -0.0793  0.3237  0.0051
 2694TIP3    H1 8046   2.163   2.636   0.181  0.8674  0.0790 -0.3424
 2694TIP3    H2 8047   2.271   2.694   0.269 -1.6448  0.6673  2.5039
 2695TIP3   OH2 8048   6.335   2.121   5.207  0.0759  0.0340  0.2391
 2695TIP3    H1 8049   6.399   2.172   5.257 -1.5348  2.4324  0.0067
 2695TIP3    H2 8050   6.275   2.086   5.273  1.2381 -1.7940  0.4096
 2696TIP3   OH2 8051   1.352   3.009   0.281 -0.5167  0.3682 -0.3512
 2696TIP3    H1 8052   1.319   3.040   0.197 -1.7418 -0.5434 -0.2277
 2696TIP3    H2 8053   1.290   3.042   0.345  0.1395  0.6355  0.1645
 2697TIP3   OH2 8054   1.890   2.196   2.947  0.7681 -0.0040 -0.0648
 2697TIP3    H1 8055   1.841   2.231   2.873  0.3352 -1.8628 -0.7184
 2697TIP3    H2 8056   1.824   2.178   3.013  1.1286  1.4495  0.7311
 2698TIP3   OH2 8057   2.318   4.835   2.553 -0.2374 -0.0854  0.0674
 2698TIP3    H1 8058   2.363   4.752   2.538  0.6280 -0.1724  2.6214
 2698TIP3    H2 8059   2.381   4.901   2.526  0.3809 -0.2474  1.0701
 2699TIP3   OH2 8060   2.660   2.173   2.206 -0.2267  0.5593  0.0400
 2699TIP3    H1 8061   2.637   2.153   2.296  1.7746 -0.0418  0.4653
 2699TIP3    H2 8062   2.747   2.214   2.211  0.7166 -1.0473 -1.6999
 2700TIP3   OH2 8063   7.090   5.007   1.048  0.2486  0.0796 -0.0471
 2700TIP3    H1 8064   7.182   5.001   1.075  0.2753  0.0498 -0.1437
 2700TIP3    H2 8065   7.042   5.023   1.129  0.3805  0.5035 -0.0486
 2701TIP3   OH2 8066   0.116   0.519   3.859  0.3354 -0.2828  0.7608
 2701TIP3    H1 8067   0.059   0.576   3.807 -3.3955 -3.5141  0.7760
 2701TIP3    H2 8068   0.103   0.548   3.949 -0.9298 -0.5954  0.7027
 2702TIP3   OH2 8069   1.812   4.531   1.865 -0.1264 -0.1590  0.3776
 2702TIP3    H1 8070   1.824   4.626   1.861  1.4847 -0.3467  0.1335
 2702TIP3    H2 8071   1.746   4.512   1.799 -0.6693  0.8137  0.6200
 2703TIP3   OH2 8072   4.816   5.341   3.122  0.1265  0.0045 -0.3695
 2703TIP3    H1 8073   4.727   5.307   3.108 -0.2067  1.0905 -1.0313
 2703TIP3    H2 8074   4.811   5.382   3.209 -0.2461  0.7047 -0.7089
 2704TIP3   OH2 8075   2.999   0.847   4.192 -0.3839 -0.1400 -0.5079
 2704TIP3    H1 8076   3.060   0.889   4.251  0.8510 -0.6314 -1.3897
 2704TIP3    H2 8077   3.010   0.753   4.208  0.5866 -0.3347 -2.0334
 2705TIP3   OH2 8078   0.347   2.473   4.527 -0.2429  0.4675 -0.1969
 2705TIP3    H1 8079   0.290   2.419   4.471  0.3035  0.1427 -0.4469
 2705TIP3    H2 8080   0.312   2.460   4.615 -0.6831  0.4311 -0.3712
 2706TIP3   OH2 8081   3.296   6.044   1.416  0.0504  0.0529  0.7301
 2706TIP3    H1 8082   3.226   6.073   1.474 -0.8041  0.1495 -0.3364
 2706TIP3    H2 8083   3.376   6.055   1.468 -0.5846  1.1441  1.5181
 2707TIP3   OH2 8084   3.013   4.787   1.025 -0.1277 -0.6503 -0.2271
 2707TIP3    H1 8085   3.005   4.691   1.026 -0.6516 -0.6296  2.1128
 2707TIP3    H2 8086   2.978   4.815   1.109  1.5762  1.4791 -0.1360
 2708TIP3   OH2 8087   2.899   1.497   4.738 -0.2306 -0.6461 -0.1719
 2708TIP3    H1 8088   2.906   1.567   4.673 -0.8046 -0.6144 -0.2101
 2708TIP3    H2 8089   2.851   1.427   4.692 -1.7254 -0.1600  0.5646
 2709TIP3   OH2 8090   4.908   0.094   1.808  0.4352 -0.0013  0.6763
 2709TIP3    H1 8091   4.970   0.161   1.836 -0.1825  0.7753  0.2334
 2709TIP3    H2 8092   4.848   0.085   1.882  1.0413 -0.7189  1.0862
 2710TIP3   OH2 8093   2.064   2.659   2.202 -0.1281 -0.0111  0.2055
 2710TIP3    H1 8094   2.152   2.624   2.187  0.4599 -0.1860  3.2777
 2710TIP3    H2 8095   2.007   2.611   2.142  1.6311 -1.1384 -0.6346
 2711TIP3   OH2 8096   2.284   6.731   2.569  0.3532  0.4545  0.0206
 2711TIP3    H1 8097   2.235   6.806   2.602  0.4066 -0.1017  1.4521
 2711TIP3    H2 8098   2.339   6.704   2.643  1.6690  0.1021 -1.0394
 2712TIP3   OH2 8099   3.935   6.646   1.863 -0.4162 -0.2965  0.0842
 2712TIP3    H1 8100   3.954   6.663   1.771  2.6758 -0.0615  0.6556
 2712TIP3    H2 8101   3.965   6.557   1.878  0.1343  0.0437  1.0926
 2713TIP3   OH2 8102   5.345   5.609   1.888 -0.0091  0.3414 -0.8295
 2713TIP3    H1 8103   5.378   5.553   1.959  2.7349  0.5911 -1.7649
 2713TIP3    H2 8104   5.324   5.549   1.817 -0.6286  0.2570 -0.5814
 2714TIP3   OH2 8105   4.274   6.060   0.271 -0.1899  0.0047 -0.2820
 2714TIP3    H1 8106   4.339   6.121   0.305 -0.3742  0.0883 -0.0801
 2714TIP3    H2 8107   4.315   6.023   0.192  1.2244 -1.8950  1.2404
 2715TIP3   OH2 8108   1.722   5.559   1.408  0.4965 -0.7988  0.1091
 2715TIP3    H1 8109   1.761   5.496   1.348  1.3898 -1.2961  1.1646
 2715TIP3    H2 8110   1.635   5.523   1.427  0.1766 -0.5978 -0.9061
 2716TIP3   OH2 8111   4.514   4.189   4.084 -0.4180 -0.0104  0.1334
 2716TIP3    H1 8112   4.449   4.232   4.028  0.0144 -0.9941 -1.1658
 2716TIP3    H2 8113   4.597   4.232   4.062  0.1212 -1.8094 -1.5991
 2717TIP3   OH2 8114   5.552   5.407   2.462 -0.3537 -0.2513  0.1821
 2717TIP3    H1 8115   5.527   5.327   2.507  1.1843 -1.6105 -1.2054
 2717TIP3    H2 8116   5.490   5.473   2.492  0.3347 -1.1186  3.9196
 2718TIP3   OH2 8117   3.187   5.243   3.820 -0.1227  0.0002 -0.3151
 2718TIP3    H1 8118   3.276   5.229   3.788  0.3584  2.1533 -0.0732
 2718TIP3    H2 8119   3.182   5.193   3.901  0.7973 -0.3415 -0.4564
 2719TIP3   OH2 8120   0.521   3.279   4.487 -0.1147 -0.2572  0.1488
 2719TIP3    H1 8121   0.480   3.286   4.401  1.0022 -0.4388 -0.4159
 2719TIP3    H2 8122   0.502   3.363   4.529  0.1650  0.2167 -0.6537
 2720TIP3   OH2 8123   4.508   2.506   2.119 -0.0915 -0.0018 -0.4928
 2720TIP3    H1 8124   4.580   2.458   2.080 -0.8256 -1.4280 -0.1939
 2720TIP3    H2 8125   4.457   2.439   2.165 -2.0683  0.8002 -1.3937
 2721TIP3   OH2 8126   2.226   0.302   4.469 -0.5540  0.2454 -0.0204
 2721TIP3    H1 8127   2.186   0.375   4.516  1.3565  1.5278 -0.2557
 2721TIP3    H2 8128   2.159   0.273   4.406 -1.4856  1.5175  0.3552
 2722TIP3   OH2 8129   1.662   5.062   1.789  0.5802  0.6232 -0.3458
 2722TIP3    H1 8130   1.648   5.089   1.698 -1.1692  1.5246  0.1291
 2722TIP3    H2 8131   1.574   5.066   1.828  1.0352 -1.3157  0.9797
 2723TIP3   OH2 8132   6.291   0.851   3.002  0.3994 -0.1070 -0.1285
 2723TIP3    H1 8133   6.297   0.927   2.943 -0.3736  0.3780  0.3923
 2723TIP3    H2 8134   6.350   0.871   3.074 -0.3762  0.3722  0.3907
 2724TIP3   OH2 8135   7.194   2.983   3.969 -0.1356  0.0076  0.0256
 2724TIP3    H1 8136   7.122   3.008   3.911 -0.7791 -0.5787  0.5570
 2724TIP3    H2 8137   7.208   3.060   4.024  0.2908  0.4660 -0.6930
 2725TIP3   OH2 8138   0.203   1.948   2.302 -0.0831  0.3657 -0.1661
 2725TIP3    H1 8139   0.219   1.911   2.389 -1.9476  0.4488  0.2528
 2725TIP3    H2 8140   0.109   1.968   2.301  0.0391  1.0468 -1.9437
 2726TIP3   OH2 8141   1.984   0.194   2.497  0.9758 -0.3618  0.6246
 2726TIP3    H1 8142   1.985   0.270   2.556 -2.4803  0.3155  0.0361
 2726TIP3    H2 8143   2.005   0.120   2.553  1.5231  0.6800  1.8514
 2727TIP3   OH2 8144   0.490   5.671   5.054 -0.2124  0.2595  0.3118
 2727TIP3    H1 8145   0.449   5.751   5.086 -0.4750  0.2415  0.0367
 2727TIP3    H2 8146   0.547   5.642   5.125 -1.2643 -0.1291  1.0357
 2728TIP3   OH2 8147   3.744   4.387   1.502  0.0638  0.1108 -0.5685
 2728TIP3    H1 8148   3.811   4.441   1.460 -0.3963 -0.8444 -2.6040
 2728TIP3    H2 8149   3.763   4.298   1.473 -0.1363 -0.6607  1.4861
 2729TIP3   OH2 8150   5.796   0.848   1.556  0.0142 -0.0964  0.2606
 2729TIP3    H1 8151   5.768   0.939   1.546  0.4329  0.1402  1.1262
 2729TIP3    H2 8152   5.721   0.803   1.595 -0.1461 -0.0883 -0.0428
 2730TIP3   OH2 8153   7.154   3.879   0.042  0.1420 -0.1613  0.3337
 2730TIP3    H1 8154   7.141   3.973   0.031  0.3885  0.2960  3.1247
 2730TIP3    H2 8155   7.208   3.853  -0.033  0.3635  1.9696 -0.3222
 2731TIP3   OH2 8156   2.224   5.392   5.812  0.2750 -0.7123 -0.4504
 2731TIP3    H1 8157   2.142   5.427   5.844  0.1435  0.2686 -1.7658
 2731TIP3    H2 8158   2.259   5.340   5.885 -1.4413 -1.0695  0.1588
 2732TIP3   OH2 8159   5.989   5.480   1.065  0.6465  0.6865  0.1678
 2732TIP3    H1 8160   6.041   5.477   0.985 -0.6714  1.7504 -0.7760
 2732TIP3    H2 8161   5.939   5.561   1.059 -0.7816 -0.0578  1.2358
 2733TIP3   OH2 8162   3.586   6.706   2.991  0.1619 -0.0113 -0.4812
 2733TIP3    H1 8163   3.553   6.670   3.073  0.8448  1.1297  0.3294
 2733TIP3    H2 8164   3.509   6.712   2.934 -0.0712 -2.1521 -0.4617
 2734TIP3   OH2 8165   1.574   4.404   4.544 -0.1763 -0.0834 -0.1606
 2734TIP3    H1 8166   1.623   4.343   4.489  0.7506 -0.5619  1.1554
 2734TIP3    H2 8167   1.483   4.373   4.537 -0.1911  0.2177 -1.8391
 2735TIP3   OH2 8168   0.111   6.293   0.989 -0.1166  0.0981 -1.2717
 2735TIP3    H1 8169   0.034   6.254   1.029  1.1498 -1.3788 -0.1331
 2735TIP3    H2 8170   0.177   6.293   1.059  0.4739  2.8531 -1.6794
 2736TIP3   OH2 8171   6.923   1.052   2.047  0.4839 -1.0079  0.2342
 2736TIP3    H1 8172   6.854   0.994   2.081 -0.8671  1.0760  1.2944
 2736TIP3    H2 8173   7.001   1.028   2.097 -0.3232 -1.1550  1.4783
 2737TIP3   OH2 8174   5.777   6.641   3.210  0.2482 -0.6872 -0.1074
 2737TIP3    H1 8175   5.744   6.731   3.215 -1.3527 -1.2475 -0.0570
 2737TIP3    H2 8176   5.812   6.624   3.297  0.6477 -0.0931 -0.1430
 2738TIP3   OH2 8177   6.247   0.539   0.519 -0.2898 -0.1169  0.1289
 2738TIP3    H1 8178   6.289   0.547   0.433  0.4279 -0.4103  0.4436
 2738TIP3    H2 8179   6.239   0.445   0.533 -1.1124 -0.0633  0.0532
 2739TIP3   OH2 8180   0.378   6.032   5.751 -0.1036 -0.7845  0.0151
 2739TIP3    H1 8181   0.306   5.993   5.703 -0.9751 -0.2546  0.8644
 2739TIP3    H2 8182   0.387   5.978   5.829 -0.6706  0.0951  0.7124
 2740TIP3   OH2 8183   5.765   2.853   5.351 -0.3726 -0.1912  0.3907
 2740TIP3    H1 8184   5.785   2.896   5.267  1.4100 -0.9644  0.3547
 2740TIP3    H2 8185   5.849   2.851   5.397 -0.5735 -2.6812  0.8135
 2741TIP3   OH2 8186   5.032   5.434   3.564 -0.5569 -0.2344 -0.4141
 2741TIP3    H1 8187   5.028   5.479   3.648 -1.7536 -1.2679  0.1105
 2741TIP3    H2 8188   5.042   5.342   3.586  1.2719 -0.3585 -1.4586
 2742TIP3   OH2 8189   6.796   0.404   3.682 -0.9055 -0.1293 -0.1421
 2742TIP3    H1 8190   6.705   0.432   3.682 -0.7547  0.4075  0.2871
 2742TIP3    H2 8191   6.842   0.475   3.728 -0.2504 -0.3076 -0.5109
 2743TIP3   OH2 8192   4.302   4.520   1.267  0.0924  0.0886 -0.0461
 2743TIP3    H1 8193   4.241   4.504   1.195 -0.1134 -0.1516  0.1796
 2743TIP3    H2 8194   4.388   4.502   1.230  0.0273  0.4123 -0.3605
 2744TIP3   OH2 8195   2.108   0.477   1.259 -0.9538 -0.2419 -0.1676
 2744TIP3    H1 8196   2.100   0.383   1.272 -0.7018 -0.2058  0.2612
 2744TIP3    H2 8197   2.042   0.515   1.317 -0.1789 -0.1030  0.6560
 2745TIP3   OH2 8198   5.177   6.198   0.515 -0.8542  0.4961 -0.1399
 2745TIP3    H1 8199   5.235   6.138   0.468  1.0873  0.8075  1.7030
 2745TIP3    H2 8200   5.097   6.199   0.463  0.9981  0.6415 -3.2663
 2746TIP3   OH2 8201   1.409   0.682   1.117  0.4087 -0.0828 -0.1456
 2746TIP3    H1 8202   1.406   0.602   1.064 -1.8644  0.2854 -0.6764
 2746TIP3    H2 8203   1.371   0.656   1.201  1.4139  0.0057  0.3458
 2747TIP3   OH2 8204   4.259   3.438   0.297 -0.1610  0.7426  0.1805
 2747TIP3    H1 8205   4.178   3.489   0.291  0.8899  2.5519  0.5494
 2747TIP3    H2 8206   4.296   3.440   0.209  0.3553  1.4844  0.4012
 2748TIP3   OH2 8207   4.708   0.973   4.070 -0.4041  0.4136 -0.5894
 2748TIP3    H1 8208   4.762   0.918   4.127 -0.8504 -1.3367 -1.7768
 2748TIP3    H2 8209   4.755   1.056   4.065  0.5557  0.0014  0.8602
 2749TIP3   OH2 8210   4.352   2.780   2.469 -0.0971 -0.1973 -0.0662
 2749TIP3    H1 8211   4.260   2.754   2.479  0.1854 -1.3158 -0.2507
 2749TIP3    H2 8212   4.364   2.786   2.374  0.5022 -1.9849 -0.1534
 2750TIP3   OH2 8213   1.434   4.940   0.980 -0.2313  0.2323 -0.5860
 2750TIP3    H1 8214   1.453   4.951   1.073  2.0508 -3.1107 -0.4826
 2750TIP3    H2 8215   1.351   4.894   0.977  0.0884 -0.3738 -0.1541
 2751TIP3   OH2 8216   4.765   2.334   0.189 -0.6478 -0.4874 -0.1212
 2751TIP3    H1 8217   4.806   2.276   0.124 -0.8460  0.6590 -1.3109
 2751TIP3    H2 8218   4.737   2.275   0.259  1.4080 -1.5358 -0.0877
 2752TIP3   OH2 8219   6.289   1.130   2.874 -0.8225  0.7767 -0.1505
 2752TIP3    H1 8220   6.248   1.216   2.867  0.4942  1.4060 -0.3744
 2752TIP3    H2 8221   6.357   1.141   2.940 -1.6750 -0.5281  1.0010
 2753TIP3   OH2 8222   0.241   5.194   2.706 -0.2042  0.0345  0.6128
 2753TIP3    H1 8223   0.241   5.176   2.612 -0.5540 -1.1399  0.8270
 2753TIP3    H2 8224   0.273   5.284   2.713  0.5928 -0.1392 -0.5724
 2754TIP3   OH2 8225   3.336   3.677   3.078 -0.4780 -0.2620 -0.2365
 2754TIP3    H1 8226   3.344   3.594   3.032 -0.5057 -0.3590 -0.0674
 2754TIP3    H2 8227   3.425   3.698   3.105 -0.2452  0.4744 -1.5082
 2755TIP3   OH2 8228   2.960   6.466   2.751  0.4005  0.1763 -0.7401
 2755TIP3    H1 8229   2.876   6.429   2.779 -0.5878  1.5231 -1.7512
 2755TIP3    H2 8230   2.965   6.550   2.796  0.5146  0.7323 -1.7483
 2756TIP3   OH2 8231   3.422   1.262   3.253  0.1526 -0.4995 -0.0854
 2756TIP3    H1 8232   3.433   1.167   3.261  0.1432 -0.5028 -0.1135
 2756TIP3    H2 8233   3.442   1.281   3.162  1.3656 -0.3007  0.2140
 2757TIP3   OH2 8234   1.926   1.051   3.901  0.0874  0.3158  0.1285
 2757TIP3    H1 8235   1.977   0.999   3.964 -0.5618 -0.0210  0.3875
 2757TIP3    H2 8236   1.991   1.102   3.853  0.7593 -0.8528 -0.2337
 2758TIP3   OH2 8237   4.824   0.719   1.326 -0.1272  0.8038 -0.3545
 2758TIP3    H1 8238   4.795   0.757   1.409 -0.2166  0.0805 -0.0479
 2758TIP3    H2 8239   4.917   0.700   1.339  0.0072  1.2589 -0.6364
 2759TIP3   OH2 8240   0.444   3.562   5.183  0.4082 -0.1713  0.2502
 2759TIP3    H1 8241   0.398   3.519   5.256  0.5225 -0.5904  0.0790
 2759TIP3    H2 8242   0.455   3.493   5.118 -2.0914  0.7943 -1.3454
 2760TIP3   OH2 8243   2.963   1.532   4.072  0.2909  0.8078 -0.3392
 2760TIP3    H1 8244   2.896   1.513   4.006  0.6278  0.0097 -0.4653
 2760TIP3    H2 8245   2.959   1.627   4.084 -0.5711  0.8156 -0.6520
 2761TIP3   OH2 8246   5.591   4.303   0.639  0.0194  0.1351 -0.1673
 2761TIP3    H1 8247   5.531   4.235   0.669 -0.9773  0.8522 -0.4613
 2761TIP3    H2 8248   5.546   4.343   0.564  0.4575  1.2824  0.1538
 2762TIP3   OH2 8249   4.286   4.631   0.227 -0.0830  0.4274  0.2566
 2762TIP3    H1 8250   4.343   4.674   0.290  0.1847 -0.0905  0.3767
 2762TIP3    H2 8251   4.197   4.645   0.262  0.1014 -0.4013  1.1063
 2763TIP3   OH2 8252   3.932   4.478   0.476  0.7577 -0.5253 -0.0580
 2763TIP3    H1 8253   3.945   4.388   0.506  0.6419 -0.4674  0.1724
 2763TIP3    H2 8254   3.975   4.482   0.391 -0.0059 -1.0551 -0.4871
 2764TIP3   OH2 8255   4.814   3.222   4.397  0.3452 -0.2381 -0.3290
 2764TIP3    H1 8256   4.724   3.242   4.420  0.6540 -0.0508  0.7743
 2764TIP3    H2 8257   4.820   3.127   4.408 -0.2996 -0.5995 -2.6082
 2765TIP3   OH2 8258   4.547   3.219   1.816 -0.2664 -0.5765 -0.0806
 2765TIP3    H1 8259   4.611   3.180   1.757  0.8017  0.4130  0.3842
 2765TIP3    H2 8260   4.599   3.247   1.892 -1.4914 -1.1913  1.0367
 2766TIP3   OH2 8261   3.513   3.427   0.078 -0.6657 -0.4088  0.1975
 2766TIP3    H1 8262   3.454   3.352   0.082 -0.1571 -0.9190 -1.0574
 2766TIP3    H2 8263   3.526   3.441  -0.016  0.1220  0.5528  0.4348
 2767TIP3   OH2 8264   1.730   2.175   1.863  0.2476  0.3910 -0.0356
 2767TIP3    H1 8265   1.645   2.140   1.889  0.0613  0.3127 -0.7326
 2767TIP3    H2 8266   1.754   2.236   1.934 -0.5369  0.6642 -0.0019
 2768TIP3   OH2 8267   1.112   5.376   2.434 -0.4644 -0.4609 -0.2589
 2768TIP3    H1 8268   1.121   5.389   2.340 -2.8732  0.4141 -0.4303
 2768TIP3    H2 8269   1.138   5.460   2.473 -0.0372 -0.6260 -0.1894
 2769TIP3   OH2 8270   3.220   3.961   4.632  0.2461 -0.9155  0.0470
 2769TIP3    H1 8271   3.313   3.957   4.658  0.3907 -0.5175 -0.3993
 2769TIP3    H2 8272   3.172   3.953   4.715  0.6971 -0.0132  0.4123
 2770TIP3   OH2 8273   5.997   1.730   0.387 -0.4891 -0.2201 -0.6090
 2770TIP3    H1 8274   5.986   1.672   0.462 -0.9361 -0.5768 -0.9357
 2770TIP3    H2 8275   5.985   1.672   0.311 -2.9039  0.6188 -0.9489
 2771TIP3   OH2 8276   3.044   4.424   4.529 -0.6267 -0.1683 -0.3571
 2771TIP3    H1 8277   2.962   4.474   4.534 -1.0768 -1.0340  1.7489
 2771TIP3    H2 8278   3.065   4.402   4.619  1.8386 -0.1895 -0.8611
 2772TIP3   OH2 8279   6.456   1.841   3.813  0.0010  0.2258  0.7947
 2772TIP3    H1 8280   6.425   1.789   3.739 -0.8950 -1.0453  1.9847
 2772TIP3    H2 8281   6.404   1.921   3.810  1.4275  1.1399 -1.0985
 2773TIP3   OH2 8282   5.350   4.868   3.974 -0.4035  0.2885  0.0920
 2773TIP3    H1 8283   5.295   4.901   4.045  0.6726  2.2656  0.0723
 2773TIP3    H2 8284   5.378   4.946   3.927  3.3107 -0.4384  0.7698
 2774TIP3   OH2 8285   1.546   5.441   1.132 -0.4127 -0.1994 -0.4208
 2774TIP3    H1 8286   1.560   5.535   1.116 -1.9023  0.4545  1.6811
 2774TIP3    H2 8287   1.504   5.410   1.052 -0.2978  1.0213 -0.9849
 2775TIP3   OH2 8288   2.295   6.597   4.832  0.2475  0.2868 -0.1292
 2775TIP3    H1 8289   2.274   6.679   4.876  0.5267 -0.2272  0.9832
 2775TIP3    H2 8290   2.359   6.555   4.889 -1.1036 -1.4501  0.1775
 2776TIP3   OH2 8291   0.796   5.392   1.110  0.3828 -0.3918 -0.4755
 2776TIP3    H1 8292   0.740   5.410   1.035 -0.9923  0.7662  0.7711
 2776TIP3    H2 8293   0.763   5.310   1.145 -0.1553 -0.0156 -0.0934
 2777TIP3   OH2 8294   3.825   5.877   4.181  0.5289  0.2530 -0.1441
 2777TIP3    H1 8295   3.735   5.851   4.198  0.2252  1.2521 -0.1692
 2777TIP3    H2 8296   3.867   5.877   4.267  0.2233  0.7900  0.0113
 2778TIP3   OH2 8297   0.777   1.702   0.281 -0.1694  0.0617 -0.1088
 2778TIP3    H1 8298   0.737   1.745   0.205 -1.3638  0.5719  0.7744
 2778TIP3    H2 8299   0.800   1.774   0.340  1.6277 -0.2551 -0.3499
 2779TIP3   OH2 8300   3.586   2.202   3.408  0.2341  0.3985 -0.1409
 2779TIP3    H1 8301   3.518   2.244   3.460  1.5513  0.8221  1.3232
 2779TIP3    H2 8302   3.595   2.114   3.447  0.7337  0.4608 -0.1122
 2780TIP3   OH2 8303   4.449   3.043   2.576 -0.6553 -0.2328  0.1982
 2780TIP3    H1 8304   4.431   2.949   2.576 -0.4187 -0.3086  1.7465
 2780TIP3    H2 8305   4.367   3.084   2.606 -0.3301 -0.0701  0.8922
 2781TIP3   OH2 8306   4.759   4.600   3.387 -0.0407  0.3161  0.3907
 2781TIP3    H1 8307   4.794   4.512   3.399  0.8042 -0.1323 -3.8533
 2781TIP3    H2 8308   4.666   4.587   3.368 -0.1605  0.4616  0.8661
 2782TIP3   OH2 8309   2.067   2.663   5.393 -0.4639 -0.1198  0.7970
 2782TIP3    H1 8310   2.117   2.744   5.398 -1.2974  0.6501 -1.6424
 2782TIP3    H2 8311   2.132   2.594   5.386  0.2508  0.4480  1.6782
 2783TIP3   OH2 8312   5.012   3.644   2.451  0.2235 -0.2333 -0.1193
 2783TIP3    H1 8313   4.925   3.605   2.442  1.1276 -2.4299  0.0018
 2783TIP3    H2 8314   5.047   3.609   2.533  1.5009  0.0093 -0.5295
 2784TIP3   OH2 8315   6.999   3.478   2.617  0.1371  0.4991 -0.6822
 2784TIP3    H1 8316   7.094   3.468   2.622 -0.0370 -1.8763 -1.2443
 2784TIP3    H2 8317   6.980   3.494   2.525 -0.0476  0.4508 -0.6543
 2785TIP3   OH2 8318   3.284   0.552   2.671  0.3402  0.0931 -0.1044
 2785TIP3    H1 8319   3.349   0.601   2.621  1.8389 -1.3907  0.2937
 2785TIP3    H2 8320   3.322   0.465   2.682 -2.5279 -1.5108 -1.5108
 2786TIP3   OH2 8321   3.188   2.832   0.177  0.6945  0.0650  0.8053
 2786TIP3    H1 8322   3.214   2.740   0.172 -0.3278 -0.2154  0.3848
 2786TIP3    H2 8323   3.220   2.871   0.095 -0.3597 -0.3319  0.1810
 2787TIP3   OH2 8324   5.490   0.229   1.485 -0.0832 -0.3843  0.0043
 2787TIP3    H1 8325   5.420   0.239   1.419  0.8306 -0.9845 -1.1030
 2787TIP3    H2 8326   5.541   0.154   1.453  0.0014 -1.1170  1.7832
 2788TIP3   OH2 8327   6.634   2.859   3.181  0.4943 -0.3488 -0.4182
 2788TIP3    H1 8328   6.694   2.785   3.185  1.0164  0.0210 -1.0815
 2788TIP3    H2 8329   6.622   2.875   3.087  0.5002  0.4897 -0.2877
 2789TIP3   OH2 8330   4.131   0.064   1.953 -0.2322 -0.1777 -0.2129
 2789TIP3    H1 8331   4.050   0.015   1.971 -0.1603  0.0483  0.8237
 2789TIP3    H2 8332   4.199  -0.003   1.949 -0.3319 -0.2876 -0.1016
 2790TIP3   OH2 8333   5.346   0.843   3.600 -1.0186 -0.0481  0.1765
 2790TIP3    H1 8334   5.265   0.850   3.651 -0.9523  1.2395  0.1330
 2790TIP3    H2 8335   5.325   0.884   3.516  0.1004  1.7094  0.7138
 2791TIP3   OH2 8336   1.831   2.052   3.356  0.5371 -0.0070 -0.0065
 2791TIP3    H1 8337   1.740   2.036   3.335  0.4827  0.5890 -0.2541
 2791TIP3    H2 8338   1.835   2.146   3.375  1.3354  0.2508 -1.3191
 2792TIP3   OH2 8339   1.743   5.027   4.544  0.1015  0.0529  0.4510
 2792TIP3    H1 8340   1.737   5.106   4.490  1.3048  0.2218  0.5482
 2792TIP3    H2 8341   1.652   5.005   4.563 -0.2457  2.2117  1.6003
 2793TIP3   OH2 8342   3.127   4.625   0.605  0.4696 -0.4125  0.1022
 2793TIP3    H1 8343   3.128   4.678   0.525 -0.8044 -0.1755  0.2085
 2793TIP3    H2 8344   3.100   4.687   0.674  0.1710 -0.9234  0.4503
 2794TIP3   OH2 8345   5.431   5.821   4.338  0.1653  0.4558  0.1169
 2794TIP3    H1 8346   5.390   5.889   4.392  0.6412  2.1461 -1.5220
 2794TIP3    H2 8347   5.358   5.785   4.286 -0.1490 -0.5906  1.2376
 2795TIP3   OH2 8348   3.931   0.287   5.573  0.2540 -0.2176  0.2892
 2795TIP3    H1 8349   3.902   0.339   5.648 -0.1154  2.1671 -1.3961
 2795TIP3    H2 8350   4.016   0.324   5.550  0.5779 -1.2348 -0.1822
 2796TIP3   OH2 8351   4.274   3.151   2.820  0.0272  0.1486  0.6656
 2796TIP3    H1 8352   4.216   3.101   2.763 -0.3560 -1.2632  2.2209
 2796TIP3    H2 8353   4.336   3.087   2.854 -1.1879  0.3784  3.6322
 2797TIP3   OH2 8354   4.102   2.677   3.283  0.5351  0.6515 -0.5499
 2797TIP3    H1 8355   4.103   2.672   3.378 -2.4395 -0.0147 -0.4467
 2797TIP3    H2 8356   4.067   2.764   3.263 -0.3790  0.2233 -0.9315
 2798TIP3   OH2 8357   2.718   6.267   4.005 -0.0489  0.5336  0.3550
 2798TIP3    H1 8358   2.628   6.244   4.029  0.7157 -0.6832  2.2605
 2798TIP3    H2 8359   2.773   6.221   4.069  1.9993  0.2889 -1.4555
 2799TIP3   OH2 8360   4.388   6.236   2.769  0.0159  0.1994  0.0579
 2799TIP3    H1 8361   4.429   6.187   2.698 -0.9895 -1.7821  0.7402
 2799TIP3    H2 8362   4.335   6.302   2.725  2.5946  1.7812 -0.8606
 2800TIP3   OH2 8363   5.415   3.574   1.279  0.4785  0.2463 -0.1772
 2800TIP3    H1 8364   5.441   3.509   1.345 -1.0459  0.0122  0.2315
 2800TIP3    H2 8365   5.430   3.530   1.195  0.2443 -0.3215  0.0721
 2801TIP3   OH2 8366   1.914   4.811   3.119 -0.2141 -0.4599  0.4037
 2801TIP3    H1 8367   1.897   4.821   3.026 -0.9574  1.3815  0.6909
 2801TIP3    H2 8368   2.009   4.802   3.125 -0.1775 -0.7679 -0.5388
 2802TIP3   OH2 8369   3.425   0.728   0.754 -0.0489 -0.4685  0.4086
 2802TIP3    H1 8370   3.470   0.696   0.676  1.6414  1.1852  0.6335
 2802TIP3    H2 8371   3.488   0.716   0.825  0.4872  2.6490  0.5977
 2803TIP3   OH2 8372   0.675   5.330   3.655  0.1474  0.5805 -0.3582
 2803TIP3    H1 8373   0.580   5.340   3.657 -0.1037 -1.2218 -1.4260
 2803TIP3    H2 8374   0.692   5.250   3.704  0.7325 -1.0438 -3.0151
 2804TIP3   OH2 8375   5.590   3.172   2.446  0.3290 -0.5146  0.0211
 2804TIP3    H1 8376   5.671   3.222   2.441  0.1622 -0.2147  0.3239
 2804TIP3    H2 8377   5.531   3.216   2.385 -0.4464  0.8269  1.6741
 2805TIP3   OH2 8378   6.123   0.935   3.842  0.5818 -0.0719  0.0957
 2805TIP3    H1 8379   6.138   1.027   3.862  1.2035 -0.2101  0.2735
 2805TIP3    H2 8380   6.141   0.928   3.748  0.2015  0.0521  0.0111
 2806TIP3   OH2 8381   3.905   4.993   0.197  0.0489  0.0964  0.1745
 2806TIP3    H1 8382   3.926   5.076   0.238 -1.3836 -0.5372  2.3767
 2806TIP3    H2 8383   3.971   4.932   0.230 -0.0035 -0.0316  0.0440
 2807TIP3   OH2 8384   3.997   3.270   1.350 -0.7216  0.0354 -0.0458
 2807TIP3    H1 8385   3.915   3.221   1.340 -0.5675 -0.5076  1.2197
 2807TIP3    H2 8386   4.065   3.203   1.349 -0.1168  0.5779 -2.4365
 2808TIP3   OH2 8387   0.109   1.351   1.014  0.4318 -0.2705 -0.0254
 2808TIP3    H1 8388   0.079   1.268   1.049  2.0299 -0.6121  0.6445
 2808TIP3    H2 8389   0.048   1.372   0.944 -0.4712 -1.5910  0.3362
 2809TIP3   OH2 8390   0.471   0.901   4.215  0.3501  0.7679  0.4444
 2809TIP3    H1 8391   0.502   0.882   4.303 -0.3248 -1.4937  0.2662
 2809TIP3    H2 8392   0.528   0.971   4.184 -0.7761  3.2231  3.4138
 2810TIP3   OH2 8393   0.136   6.308   5.824 -0.3707  0.1582 -0.1084
 2810TIP3    H1 8394   0.228   6.308   5.798 -1.1777  0.9309 -3.4130
 2810TIP3    H2 8395   0.111   6.400   5.821 -1.2281 -0.0376  0.8902
 2811TIP3   OH2 8396   2.148   1.494   1.335  0.3798  0.2717 -0.7398
 2811TIP3    H1 8397   2.120   1.442   1.259 -0.5984 -0.2422 -0.0358
 2811TIP3    H2 8398   2.187   1.572   1.296  0.0663 -0.0686 -1.7856
 2812TIP3   OH2 8399   5.195   3.650   2.259  0.0930  0.2692  0.0596
 2812TIP3    H1 8400   5.271   3.680   2.310  0.3083 -0.8685  0.4516
 2812TIP3    H2 8401   5.124   3.644   2.323  0.1090 -0.2335  0.0359
 2813TIP3   OH2 8402   5.844   0.653   2.276  0.5242 -0.8332 -0.6434
 2813TIP3    H1 8403   5.789   0.714   2.325  0.2812 -1.5259 -0.0266
 2813TIP3    H2 8404   5.885   0.706   2.208 -0.4675 -0.1949 -0.7510
 2814TIP3   OH2 8405   3.024   0.412   4.838 -0.1775  0.3979  0.1531
 2814TIP3    H1 8406   3.031   0.328   4.883  2.1377  0.6093  0.3193
 2814TIP3    H2 8407   3.064   0.397   4.752 -3.1442  0.4027 -1.3366
 2815TIP3   OH2 8408   3.591   0.547   2.876 -0.1789  0.0574  0.1123
 2815TIP3    H1 8409   3.601   0.643   2.872  0.8958 -0.0332  0.5838
 2815TIP3    H2 8410   3.676   0.513   2.850 -0.7244 -0.7957 -0.6102
 2816TIP3   OH2 8411   0.154   1.926   2.768  0.1496 -0.1879  0.2463
 2816TIP3    H1 8412   0.167   1.904   2.676 -1.0211  1.0218 -0.2465
 2816TIP3    H2 8413   0.190   2.015   2.776 -0.6721  0.1128  0.7029
 2817TIP3   OH2 8414   5.257   4.968   0.550  0.5991 -0.2155 -0.1318
 2817TIP3    H1 8415   5.258   5.063   0.564 -2.4151 -0.3614  2.1223
 2817TIP3    H2 8416   5.242   4.931   0.637 -2.7696 -2.4395 -1.4336
 2818TIP3   OH2 8417   4.342   5.943   5.500 -0.3279 -0.0945  0.0956
 2818TIP3    H1 8418   4.302   6.029   5.515 -2.6819 -1.1012  0.1280
 2818TIP3    H2 8419   4.333   5.929   5.406  1.9667  0.5064 -0.2668
 2819TIP3   OH2 8420   2.388   5.295   2.348 -0.4293 -0.2404 -0.0475
 2819TIP3    H1 8421   2.438   5.377   2.346  1.0230 -1.0987 -0.3613
 2819TIP3    H2 8422   2.418   5.247   2.272 -0.5454 -1.4773  0.6599
 2820TIP3   OH2 8423   5.539   1.331   1.930 -0.0717 -0.0486 -0.3228
 2820TIP3    H1 8424   5.516   1.338   2.023  0.4658  1.4630 -0.2763
 2820TIP3    H2 8425   5.577   1.416   1.908 -0.2976 -0.3363 -1.9670
 2821TIP3   OH2 8426   2.184   2.963   0.031 -0.2623 -0.4322  0.0292
 2821TIP3    H1 8427   2.182   2.877   0.073 -0.1238 -0.0638  0.8070
 2821TIP3    H2 8428   2.207   3.024   0.102 -0.6916  0.2888 -0.4374
 2822TIP3   OH2 8429   2.354   3.087   3.033 -0.0947 -0.0987 -0.1821
 2822TIP3    H1 8430   2.446   3.100   3.011 -0.6456  0.3953 -2.4010
 2822TIP3    H2 8431   2.356   3.020   3.102  1.9984  1.4615  1.4143
 2823TIP3   OH2 8432   4.991   5.431   5.722  0.0992 -0.1249  0.2002
 2823TIP3    H1 8433   4.973   5.352   5.671  0.2950  0.0256 -0.1013
 2823TIP3    H2 8434   5.083   5.452   5.704  0.5222 -0.7279  1.5126
 2824TIP3   OH2 8435   2.362   5.921   4.056  0.2115  0.1112  0.0780
 2824TIP3    H1 8436   2.274   5.897   4.085  0.6393 -0.5369  0.8657
 2824TIP3    H2 8437   2.407   5.837   4.043  0.3483  0.4003 -1.5285
 2825TIP3   OH2 8438   6.979   3.146   5.428  0.0950  0.6237  0.3887
 2825TIP3    H1 8439   7.051   3.209   5.433  1.1296 -0.4589 -0.3988
 2825TIP3    H2 8440   6.933   3.169   5.347  0.4490  0.3965  0.1205
 2826TIP3   OH2 8441   6.022   0.637   0.292  0.1806  0.1718 -0.1421
 2826TIP3    H1 8442   5.934   0.671   0.307  1.2062  1.7749  3.1689
 2826TIP3    H2 8443   6.015   0.543   0.311 -0.6934  0.4022  0.7477
 2827TIP3   OH2 8444   5.629   6.379   3.240  0.4874 -0.1340  0.4025
 2827TIP3    H1 8445   5.691   6.316   3.277  1.2376  0.7301  0.6281
 2827TIP3    H2 8446   5.678   6.460   3.233 -0.4463  0.4099  0.0161
 2828TIP3   OH2 8447   2.561   5.560   0.795 -0.4958 -0.5084  0.0516
 2828TIP3    H1 8448   2.601   5.522   0.873  1.1439  1.9511  0.5107
 2828TIP3    H2 8449   2.488   5.612   0.828 -0.9413 -0.9008 -0.2851
 2829TIP3   OH2 8450   5.181   4.936   1.232 -0.3112  0.0550 -0.1508
 2829TIP3    H1 8451   5.209   4.912   1.321 -0.3466  0.2062 -0.0993
 2829TIP3    H2 8452   5.263   4.952   1.185 -0.2048 -1.4973 -0.5704
 2830TIP3   OH2 8453   5.443   3.191   1.285 -0.1418 -0.0108 -0.5849
 2830TIP3    H1 8454   5.368   3.241   1.317 -1.0965 -1.3438 -0.6367
 2830TIP3    H2 8455   5.414   3.100   1.288  2.4855 -0.9367  2.3130
 2831TIP3   OH2 8456   6.716   1.062   0.298  0.0087 -0.6605  0.3538
 2831TIP3    H1 8457   6.649   1.123   0.269  0.6419  1.0853  2.2846
 2831TIP3    H2 8458   6.668   0.994   0.346 -0.4892  0.0202  0.8388
 2832TIP3   OH2 8459   5.863   4.359   5.259 -0.1470  0.1864 -0.1693
 2832TIP3    H1 8460   5.861   4.265   5.271  0.0088  0.0038 -1.4457
 2832TIP3    H2 8461   5.825   4.395   5.339 -1.9680 -1.0339 -0.4376
 2833TIP3   OH2 8462   3.425   4.597   5.771 -0.4944  0.3311 -0.1674
 2833TIP3    H1 8463   3.346   4.599   5.718 -1.2544  0.3127  0.9365
 2833TIP3    H2 8464   3.470   4.517   5.743  0.4542  1.6319 -2.6071
 2834TIP3   OH2 8465   2.502   1.832   0.221 -0.6714  0.2564 -0.2883
 2834TIP3    H1 8466   2.534   1.915   0.183 -2.6633  1.2328  0.0589
 2834TIP3    H2 8467   2.490   1.852   0.314  0.6641 -1.0356  0.1930
 2835TIP3   OH2 8468   4.068   5.058   4.256  0.2753  0.2655  0.0130
 2835TIP3    H1 8469   3.976   5.036   4.274  0.4003 -1.4209 -1.2251
 2835TIP3    H2 8470   4.063   5.130   4.193 -0.1595  1.3216  1.2023
 2836TIP3   OH2 8471   6.233   6.748   2.743  0.1042 -0.3192 -0.1893
 2836TIP3    H1 8472   6.228   6.667   2.794 -1.9510  0.1348  0.3984
 2836TIP3    H2 8473   6.292   6.804   2.793 -0.5501 -0.4990  0.8041
 2837TIP3   OH2 8474   3.398   6.573   0.971  0.1167 -0.1344  0.1079
 2837TIP3    H1 8475   3.341   6.519   0.917  2.2434 -2.4064 -0.0611
 2837TIP3    H2 8476   3.399   6.659   0.928 -0.6059 -0.9907 -1.7032
 2838TIP3   OH2 8477   3.303   2.147   2.678  0.1039  0.1532 -0.6024
 2838TIP3    H1 8478   3.225   2.105   2.714  0.5884  0.9548  1.4890
 2838TIP3    H2 8479   3.308   2.232   2.722  2.5836 -0.2048 -0.0384
 2839TIP3   OH2 8480   0.080   2.271   2.752  0.1387  0.0379 -0.0679
 2839TIP3    H1 8481   0.158   2.236   2.796  0.2994  0.4616 -0.0185
 2839TIP3    H2 8482   0.105   2.359   2.724 -1.1584  1.2091  2.2454
 2840TIP3   OH2 8483   0.080   5.536   5.345 -0.0977  0.3995 -0.8390
 2840TIP3    H1 8484   0.083   5.442   5.332 -1.5062  0.0115  1.1346
 2840TIP3    H2 8485  -0.013   5.558   5.341  0.1336  1.5440 -0.3763
 2841TIP3   OH2 8486   6.050   5.710   0.052 -0.5032 -0.2565  0.8141
 2841TIP3    H1 8487   6.126   5.762   0.075  1.4611 -1.5885 -2.0675
 2841TIP3    H2 8488   6.045   5.643   0.120  0.3632  0.3527  1.4984
 2842TIP3   OH2 8489   2.218   3.565   0.321 -0.3457 -0.0801 -0.0752
 2842TIP3    H1 8490   2.174   3.618   0.387 -1.2720 -2.0190  0.9521
 2842TIP3    H2 8491   2.306   3.602   0.315 -1.3147  2.3421 -0.3916
 2843TIP3   OH2 8492   4.694   6.308   4.578  0.4996  0.2202 -0.0301
 2843TIP3    H1 8493   4.680   6.214   4.570  1.8054  0.1553 -2.5129
 2843TIP3    H2 8494   4.617   6.340   4.624 -0.1649 -2.0028  0.5135
 2844TIP3   OH2 8495   0.810   3.786   3.606 -0.1289  0.0508  0.8905
 2844TIP3    H1 8496   0.757   3.743   3.539  1.3796 -0.9788  0.3003
 2844TIP3    H2 8497   0.818   3.721   3.676  0.6933  0.0261  0.7826
 2845TIP3   OH2 8498   3.953   4.016   2.706  0.6623 -0.3566 -0.0404
 2845TIP3    H1 8499   3.935   3.926   2.678 -0.0103 -0.4342  0.6154
 2845TIP3    H2 8500   4.049   4.022   2.704  0.7777 -1.4467  0.9929
 2846TIP3   OH2 8501   5.431   1.623   5.207 -0.1814  0.1074  0.0160
 2846TIP3    H1 8502   5.439   1.685   5.279  1.0211  0.5918 -0.5179
 2846TIP3    H2 8503   5.360   1.658   5.153 -0.0690  0.5658  0.1656
 2847TIP3   OH2 8504   3.668   3.658   2.050  0.6464 -0.2650  0.0791
 2847TIP3    H1 8505   3.650   3.582   2.105  0.1216  0.2030  0.5672
 2847TIP3    H2 8506   3.675   3.622   1.961 -0.9559 -0.7250  0.1069
 2848TIP3   OH2 8507   0.202   4.901   2.526 -0.6847  0.1104  0.4842
 2848TIP3    H1 8508   0.115   4.871   2.499 -0.2050 -0.6617 -0.2589
 2848TIP3    H2 8509   0.222   4.973   2.467 -0.2628 -0.6008 -0.2584
 2849TIP3   OH2 8510   7.216   4.792   3.879  0.4803 -0.1572 -0.6676
 2849TIP3    H1 8511   7.240   4.859   3.814  0.6176  0.7308  0.2709
 2849TIP3    H2 8512   7.127   4.816   3.905 -1.5663 -3.2129 -3.8769
 2850TIP3   OH2 8513   0.540   4.946   5.705  0.3614 -0.4243  0.4503
 2850TIP3    H1 8514   0.490   5.020   5.669 -1.3866 -1.0637  1.4183
 2850TIP3    H2 8515   0.496   4.869   5.669  1.5216 -1.0235  0.2755
 2851TIP3   OH2 8516   4.243   3.525   3.346 -0.7936 -0.0578  0.2660
 2851TIP3    H1 8517   4.189   3.551   3.272 -0.7251  1.8519  0.8255
 2851TIP3    H2 8518   4.309   3.467   3.309 -1.5380 -0.1719 -0.9230
 2852TIP3   OH2 8519   3.223   0.154   1.306 -0.4765  0.2229  0.1386
 2852TIP3    H1 8520   3.214   0.220   1.237  0.0214  0.5653  0.3934
 2852TIP3    H2 8521   3.223   0.070   1.259 -0.9777  0.4031 -0.1993
 2853TIP3   OH2 8522   6.349   1.488   2.882 -0.5115 -0.2883 -0.4081
 2853TIP3    H1 8523   6.262   1.448   2.878 -0.3890 -0.6951  0.6239
 2853TIP3    H2 8524   6.344   1.562   2.823 -1.8863  0.2790  0.3674
 2854TIP3   OH2 8525   1.774   2.871   2.850  0.5510 -0.3193  0.1611
 2854TIP3    H1 8526   1.853   2.885   2.798  1.3846  1.2676  1.7414
 2854TIP3    H2 8527   1.711   2.936   2.817  1.2740  1.0834  1.4214
 2855TIP3   OH2 8528   3.785   5.939   5.295 -0.4606 -0.2229  0.8514
 2855TIP3    H1 8529   3.780   5.955   5.389 -1.8942  1.3445  0.5627
 2855TIP3    H2 8530   3.866   5.983   5.267 -0.1099 -0.5671  1.3107
 2856TIP3   OH2 8531   4.665   0.428   3.312 -0.6989 -0.0464  0.0473
 2856TIP3    H1 8532   4.691   0.412   3.221 -0.3953 -0.0698  0.1345
 2856TIP3    H2 8533   4.729   0.493   3.343 -0.3920 -0.5282  0.4411
 2857TIP3   OH2 8534   6.815   1.243   1.559  0.1550 -0.3424  0.4879
 2857TIP3    H1 8535   6.806   1.338   1.564 -2.1524 -0.5560  2.0331
 2857TIP3    H2 8536   6.874   1.220   1.631  2.2115  0.0024 -1.0146
 2858TIP3   OH2 8537   5.776   2.458   2.838 -0.3555 -0.4040  0.3906
 2858TIP3    H1 8538   5.757   2.370   2.805 -0.8393 -0.1715  0.0177
 2858TIP3    H2 8539   5.709   2.513   2.797  0.4918  0.2884 -0.1079
 2859TIP3   OH2 8540   1.939   3.906   2.386  0.2089  0.1300 -0.1610
 2859TIP3    H1 8541   1.992   3.920   2.307  0.7634  0.8449  0.3267
 2859TIP3    H2 8542   2.000   3.869   2.450 -0.0210  0.3752  0.2053
 2860TIP3   OH2 8543   0.675   6.425   5.533  0.2914  0.1655 -0.1866
 2860TIP3    H1 8544   0.661   6.333   5.514 -1.0072  0.1780  0.6160
 2860TIP3    H2 8545   0.615   6.471   5.474  0.5824  0.4952 -0.2355
 2861TIP3   OH2 8546   4.525  -0.011   5.767  0.1421 -0.1156 -0.0431
 2861TIP3    H1 8547   4.560   0.026   5.686 -4.2868  1.7268 -1.4292
 2861TIP3    H2 8548   4.570   0.037   5.837  1.2819  1.1199 -1.5664
 2862TIP3   OH2 8549   3.152   3.323   2.658  0.3212  0.3478  0.1237
 2862TIP3    H1 8550   3.201   3.350   2.580  1.2386 -2.0537 -0.2045
 2862TIP3    H2 8551   3.114   3.239   2.635 -0.3111  0.0988  1.9217
 2863TIP3   OH2 8552   7.079   0.016   2.165  0.0625  0.2669  0.2867
 2863TIP3    H1 8553   7.047   0.057   2.085  0.0536 -1.5906 -0.6896
 2863TIP3    H2 8554   7.020   0.048   2.234  0.8652  2.9545 -0.1323
 2864TIP3   OH2 8555   3.997   0.543   3.330 -0.2597 -0.1877  1.0664
 2864TIP3    H1 8556   3.953   0.563   3.248  2.5748  2.0252 -0.0628
 2864TIP3    H2 8557   4.027   0.452   3.320  0.9496  0.3738 -0.8596
 2865TIP3   OH2 8558   2.391   2.507   4.587  0.2368 -0.3762 -0.4042
 2865TIP3    H1 8559   2.346   2.441   4.534 -1.8761  1.2316 -0.7700
 2865TIP3    H2 8560   2.418   2.574   4.525  2.1861 -0.7351 -0.0171
 2866TIP3   OH2 8561   6.656   0.252   1.903  0.4402 -0.3733 -0.2904
 2866TIP3    H1 8562   6.736   0.298   1.928 -0.8850  2.0958 -0.2781
 2866TIP3    H2 8563   6.648   0.268   1.809 -1.1592  1.4573  0.0828
 2867TIP3   OH2 8564   4.805   0.680   3.735 -0.0618  0.2359 -0.0093
 2867TIP3    H1 8565   4.724   0.632   3.754 -1.0640  0.3504 -3.3007
 2867TIP3    H2 8566   4.784   0.771   3.754  0.0257  0.0356  1.1079
 2868TIP3   OH2 8567   2.860   0.478   0.566  0.0329 -0.1025 -0.8534
 2868TIP3    H1 8568   2.776   0.522   0.573  0.5686  0.7025  1.4963
 2868TIP3    H2 8569   2.839   0.388   0.540 -1.6740 -0.2182  0.7565
 2869TIP3   OH2 8570   3.340   5.769   3.961  0.0762  0.4443 -0.3175
 2869TIP3    H1 8571   3.296   5.684   3.967  3.0335 -1.1452  1.4461
 2869TIP3    H2 8572   3.401   5.759   3.888  2.7457 -0.2998  1.8513
 2870TIP3   OH2 8573   1.646   0.096   2.842  0.0197  0.3817  0.5807
 2870TIP3    H1 8574   1.609   0.181   2.817 -0.6171  0.1352  0.6664
 2870TIP3    H2 8575   1.741   0.110   2.843 -0.0076  0.7458 -0.6784
 2871TIP3   OH2 8576   2.123   0.601   5.051  0.3898  0.1720  0.0238
 2871TIP3    H1 8577   2.084   0.648   5.124 -0.6253  0.5751 -0.7496
 2871TIP3    H2 8578   2.059   0.533   5.029  0.5010  0.2913 -0.7138
 2872TIP3   OH2 8579   2.515   4.878   3.980  0.1599 -0.0216  0.4135
 2872TIP3    H1 8580   2.604   4.911   3.990 -0.1446  0.8046  0.4109
 2872TIP3    H2 8581   2.513   4.842   3.892  0.6545 -0.5667  0.6144
 2873TIP3   OH2 8582   2.976   2.409   0.883 -0.6715 -0.2452 -0.2001
 2873TIP3    H1 8583   2.908   2.441   0.942 -1.4929  0.9807 -1.7468
 2873TIP3    H2 8584   3.057   2.413   0.935 -1.4482  0.2182  1.0152
 2874TIP3   OH2 8585   6.253   1.167   4.381 -0.2432  0.0413 -0.0520
 2874TIP3    H1 8586   6.254   1.257   4.412  0.7178 -0.3706  1.2072
 2874TIP3    H2 8587   6.175   1.128   4.421 -0.6611  0.2976 -0.6006
 2875TIP3   OH2 8588   3.077   1.497   0.443  0.3111  0.5021  0.0282
 2875TIP3    H1 8589   3.168   1.480   0.468  0.6845 -0.6039 -1.8633
 2875TIP3    H2 8590   3.046   1.562   0.506  2.2850  0.6057  0.9552
 2876TIP3   OH2 8591   5.946   5.942   1.958  0.1540 -0.0378 -0.2091
 2876TIP3    H1 8592   5.883   5.978   2.021  0.5194  0.3300 -0.0503
 2876TIP3    H2 8593   5.972   5.858   1.995 -0.2273 -0.1848 -0.2656
 2877TIP3   OH2 8594   4.128   0.377   2.870  0.2731 -0.1399  0.4701
 2877TIP3    H1 8595   4.146   0.311   2.803 -0.1139 -0.3624  0.5778
 2877TIP3    H2 8596   4.136   0.461   2.824 -0.5410 -0.3058 -0.0026
 2878TIP3   OH2 8597   6.751   0.689   0.182  0.2728  0.0968 -0.8955
 2878TIP3    H1 8598   6.807   0.629   0.133 -1.1879 -0.7872 -1.5369
 2878TIP3    H2 8599   6.687   0.633   0.225 -1.5840  1.2109 -2.0984
 2879TIP3   OH2 8600   0.122   3.418   3.288 -0.2985  0.2694  0.1209
 2879TIP3    H1 8601   0.043   3.446   3.241 -0.5153 -1.3085 -0.5370
 2879TIP3    H2 8602   0.097   3.419   3.380 -1.6554 -1.7032 -0.1610
 2880TIP3   OH2 8603   7.128   3.960   3.337  0.1543  0.1195  0.1191
 2880TIP3    H1 8604   7.155   4.029   3.276 -0.2713  1.8401  1.7922
 2880TIP3    H2 8605   7.047   3.926   3.299  0.2728  0.6613 -0.6454
 2881TIP3   OH2 8606   0.236   4.724   0.760  0.0334  0.1784  0.2505
 2881TIP3    H1 8607   0.220   4.818   0.750 -0.1688  0.2240  0.9564
 2881TIP3    H2 8608   0.155   4.683   0.729  0.4993  0.1750 -1.0415
 2882TIP3   OH2 8609   2.377   4.218   3.265  0.1817  0.1672 -0.1185
 2882TIP3    H1 8610   2.351   4.259   3.348 -0.3489 -1.9564  0.8341
 2882TIP3    H2 8611   2.301   4.229   3.208 -0.4111 -0.5124  0.5292
 2883TIP3   OH2 8612   2.186   6.066   5.811 -0.2852  0.1488  0.1741
 2883TIP3    H1 8613   2.214   6.102   5.727 -1.1516  0.1871 -0.1029
 2883TIP3    H2 8614   2.249   5.997   5.830 -0.0157  0.2179 -0.4514
 2884TIP3   OH2 8615   4.156   4.220   0.187  0.1872 -0.9336 -0.0453
 2884TIP3    H1 8616   4.148   4.209   0.092  0.3507 -1.8298  0.0346
 2884TIP3    H2 8617   4.163   4.131   0.220 -0.2392 -0.6427  0.8444
 2885TIP3   OH2 8618   6.696   1.603   1.951  0.6937 -0.2766 -0.4923
 2885TIP3    H1 8619   6.774   1.558   1.917  0.5984 -1.0015  0.2150
 2885TIP3    H2 8620   6.688   1.572   2.041 -0.0035  0.3493 -0.3326
 2886TIP3   OH2 8621   3.676   5.040   4.641  0.1169  0.2002  0.2337
 2886TIP3    H1 8622   3.667   4.994   4.725  0.9611 -1.0093 -0.3239
 2886TIP3    H2 8623   3.622   4.991   4.580 -1.0056  1.4490  0.1798
 2887TIP3   OH2 8624   3.349   3.637   4.843 -0.4405  0.4850  0.1517
 2887TIP3    H1 8625   3.392   3.673   4.921  0.4810  0.3952 -0.2969
 2887TIP3    H2 8626   3.333   3.713   4.787  2.2574  0.1937 -1.1585
 2888TIP3   OH2 8627   1.324   4.284   4.536 -0.4039 -0.0490  0.1923
 2888TIP3    H1 8628   1.305   4.229   4.612 -1.1981  0.0024  0.0337
 2888TIP3    H2 8629   1.259   4.354   4.539 -0.1762  0.1923 -0.3008
 2889TIP3   OH2 8630   6.981   6.001   3.717  0.0055 -0.2664  0.1248
 2889TIP3    H1 8631   6.897   6.046   3.712 -1.0003 -2.0598 -0.1035
 2889TIP3    H2 8632   7.014   6.000   3.627 -0.3399 -0.6403  0.0003
 2890TIP3   OH2 8633   4.406   5.549   1.993  0.2438  0.8119  0.6083
 2890TIP3    H1 8634   4.404   5.579   1.902 -1.3080  0.6164  0.5464
 2890TIP3    H2 8635   4.320   5.573   2.028 -1.4341 -3.7992  0.4075
 2891TIP3   OH2 8636   0.614   5.009   3.385 -0.1573 -0.2230  0.3567
 2891TIP3    H1 8637   0.566   4.976   3.309  0.0626  0.4975 -0.0969
 2891TIP3    H2 8638   0.589   5.101   3.392 -1.3209 -0.6042  2.0379
 2892TIP3   OH2 8639   7.007   4.588   1.408 -0.0616  0.1735 -0.1091
 2892TIP3    H1 8640   7.045   4.649   1.471  0.1777 -0.5076  0.4126
 2892TIP3    H2 8641   7.023   4.501   1.444 -0.5690 -0.2043 -0.7467
 2893TIP3   OH2 8642   0.480   0.676   1.887 -0.2880  0.1286 -0.1239
 2893TIP3    H1 8643   0.558   0.643   1.841 -0.2170  2.0740 -1.5246
 2893TIP3    H2 8644   0.451   0.602   1.940  0.7725 -1.6417 -1.8588
 2894TIP3   OH2 8645   6.417   5.146   3.515  0.2421 -0.2256 -0.3321
 2894TIP3    H1 8646   6.351   5.160   3.583  0.6666 -0.2239  0.0838
 2894TIP3    H2 8647   6.395   5.209   3.446 -1.7306 -1.9141 -1.3766
 2895TIP3   OH2 8648   3.689   4.564   2.437 -0.3057  0.0620 -0.3075
 2895TIP3    H1 8649   3.737   4.647   2.445 -1.8743  0.9351  0.6081
 2895TIP3    H2 8650   3.708   4.517   2.519 -1.5640  0.7492  0.4072
 2896TIP3   OH2 8651   6.669   3.776   5.082 -0.4210 -0.4922  0.3232
 2896TIP3    H1 8652   6.762   3.753   5.077 -0.2301  0.2546  0.2856
 2896TIP3    H2 8653   6.644   3.793   4.991 -0.5891 -0.6560  0.3376
 2897TIP3   OH2 8654   5.666   6.317   2.080 -0.0174 -0.3784 -0.1563
 2897TIP3    H1 8655   5.659   6.250   2.148  0.7043  0.0290  0.3309
 2897TIP3    H2 8656   5.575   6.334   2.053 -0.1485 -2.7668 -1.5236
 2898TIP3   OH2 8657   6.609   3.351   2.609  0.4420  0.1296  0.8174
 2898TIP3    H1 8658   6.630   3.402   2.530 -0.7786 -1.2342 -0.4529
 2898TIP3    H2 8659   6.682   3.290   2.618 -0.5313 -1.3465 -0.7439
 2899TIP3   OH2 8660   2.021   4.985   4.601  0.2282  0.2671  0.0669
 2899TIP3    H1 8661   2.061   5.054   4.548 -0.2626  0.0425 -0.6107
 2899TIP3    H2 8662   1.933   4.975   4.565  0.4357 -1.0208 -0.1487
 2900TIP3   OH2 8663   3.888   6.187   4.398  0.2465 -0.1069  0.6202
 2900TIP3    H1 8664   3.798   6.178   4.365  0.5432 -0.7948 -0.0207
 2900TIP3    H2 8665   3.897   6.119   4.464 -0.0389  0.6598  1.4732
 2901TIP3   OH2 8666   3.820   2.527   5.895  0.0117  0.7703  0.6755
 2901TIP3    H1 8667   3.843   2.458   5.832 -0.0074 -0.5163  2.0094
 2901TIP3    H2 8668   3.904   2.566   5.919 -0.0159  1.5378 -0.4043
 2902TIP3   OH2 8669   3.918   3.609   2.337  0.4228  0.8959  0.3010
 2902TIP3    H1 8670   3.977   3.665   2.387  1.5914 -0.8693  0.9992
 2902TIP3    H2 8671   3.972   3.578   2.263  0.6838 -1.2813  1.3158
 2903TIP3   OH2 8672   4.612   5.935   3.637 -0.7510  0.3412 -0.2815
 2903TIP3    H1 8673   4.614   5.932   3.733  1.1419 -2.1207 -0.2771
 2903TIP3    H2 8674   4.645   6.022   3.614  0.1560  0.4501  1.3178
 2904TIP3   OH2 8675   1.199   2.961   1.448 -0.1927 -0.2561  0.0169
 2904TIP3    H1 8676   1.167   3.039   1.493 -1.8372 -1.6630  1.4285
 2904TIP3    H2 8677   1.258   2.918   1.510 -2.5173 -2.2401  1.0274
 2905TIP3   OH2 8678   6.782   1.519   1.587  0.1636  0.0558 -0.7516
 2905TIP3    H1 8679   6.776   1.559   1.500 -1.6230  0.2719 -0.5652
 2905TIP3    H2 8680   6.693   1.523   1.621  0.5244 -1.4303  0.4664
 2906TIP3   OH2 8681   3.699   4.012   1.613 -0.2575  0.0391 -0.1849
 2906TIP3    H1 8682   3.629   4.057   1.661 -1.6728 -0.7855 -1.3784
 2906TIP3    H2 8683   3.728   4.076   1.548  0.1199  0.3901  0.3221
 2907TIP3   OH2 8684   5.564   4.825   5.001 -0.2408  0.1162 -0.4118
 2907TIP3    H1 8685   5.469   4.819   5.006 -0.3748  1.8568 -0.1818
 2907TIP3    H2 8686   5.591   4.745   4.957 -1.8068 -0.4139 -0.4706
 2908TIP3   OH2 8687   5.799   3.772   5.598 -0.4178 -0.0342 -0.2623
 2908TIP3    H1 8688   5.780   3.778   5.692 -0.5979  0.1617 -0.3114
 2908TIP3    H2 8689   5.875   3.828   5.585  0.0846 -0.6606 -0.1001
 2909TIP3   OH2 8690   3.658   0.552   3.370  0.3423  0.3553 -0.5875
 2909TIP3    H1 8691   3.615   0.538   3.455 -0.1743  0.0636 -0.8951
 2909TIP3    H2 8692   3.647   0.469   3.324 -0.2621  0.8388 -1.3319
 2910TIP3   OH2 8693   2.934   3.103   3.401 -0.0757 -0.4417 -0.5176
 2910TIP3    H1 8694   3.023   3.103   3.437  0.5023 -0.8438 -1.8809
 2910TIP3    H2 8695   2.927   3.187   3.356 -0.0925 -0.7513 -1.0966
 2911TIP3   OH2 8696   5.228   3.935   1.854  0.4784  0.2578  0.7668
 2911TIP3    H1 8697   5.174   3.882   1.795  1.7703  1.1296 -1.3260
 2911TIP3    H2 8698   5.282   3.871   1.900  0.5616 -0.3844 -0.1839
 2912TIP3   OH2 8699   2.323   1.994   2.612  0.3903  0.1895 -0.3994
 2912TIP3    H1 8700   2.296   1.911   2.652  0.3404 -0.3114 -1.4430
 2912TIP3    H2 8701   2.414   1.980   2.587  0.9329  1.0628  0.9670
 2913TIP3   OH2 8702   5.486   3.437   5.270  0.5801 -0.9775  0.7217
 2913TIP3    H1 8703   5.400   3.405   5.298  1.2585 -2.0681  1.6508
 2913TIP3    H2 8704   5.493   3.409   5.179 -1.6335  2.5590 -0.7211
 2914TIP3   OH2 8705   1.610   4.666   4.543  0.0966  0.2574  0.0690
 2914TIP3    H1 8706   1.621   4.688   4.636  1.2711 -1.4557  0.3924
 2914TIP3    H2 8707   1.593   4.571   4.543  0.9657  0.0632 -1.4860
 2915TIP3   OH2 8708   1.087   1.217   3.041  0.6742 -0.2270  0.1756
 2915TIP3    H1 8709   1.033   1.212   2.962  1.7435 -0.1357 -0.5921
 2915TIP3    H2 8710   1.025   1.222   3.113 -0.4400 -3.5426 -0.3881
 2916TIP3   OH2 8711   3.174   2.020   1.418 -0.1091 -0.3145  0.3546
 2916TIP3    H1 8712   3.242   1.992   1.479 -1.5043 -0.9397  1.7111
 2916TIP3    H2 8713   3.108   2.062   1.473 -1.3981 -0.8595 -0.7080
 2917TIP3   OH2 8714   2.617   1.258   0.756  0.6963 -0.5971 -0.5088
 2917TIP3    H1 8715   2.526   1.230   0.771  1.2326 -1.5682  1.1560
 2917TIP3    H2 8716   2.608   1.342   0.711 -1.0637 -0.0016  0.8134
 2918TIP3   OH2 8717   1.243   3.395   4.546 -0.7116 -0.2014 -0.2837
 2918TIP3    H1 8718   1.159   3.438   4.562  0.4231  1.5959  1.1164
 2918TIP3    H2 8719   1.254   3.336   4.621  0.2722  1.2368  0.7417
 2919TIP3   OH2 8720   1.633   2.467   3.238 -0.1786 -0.1704  0.1344
 2919TIP3    H1 8721   1.669   2.434   3.321  0.1642 -1.2734 -0.4381
 2919TIP3    H2 8722   1.639   2.393   3.178 -1.1194  0.3895 -0.6782
 2920TIP3   OH2 8723   1.553   1.950   5.419  0.5002 -0.5811  0.1744
 2920TIP3    H1 8724   1.594   1.864   5.428  0.8382 -0.4920 -0.4702
 2920TIP3    H2 8725   1.604   1.994   5.351  1.3712  0.7360  1.6102
 2921TIP3   OH2 8726   4.222   4.368   3.360  0.1921  0.3943 -0.1706
 2921TIP3    H1 8727   4.206   4.454   3.322 -2.3954 -0.4515 -1.2005
 2921TIP3    H2 8728   4.253   4.315   3.287 -0.0414 -0.0174  0.0271
 2922TIP3   OH2 8729   3.958   6.313   2.513 -0.3522  0.6059  0.1099
 2922TIP3    H1 8730   3.910   6.254   2.455 -0.0583  0.2724  0.2041
 2922TIP3    H2 8731   3.948   6.399   2.473 -1.8923  0.7241  0.6696
 2923TIP3   OH2 8732   0.516   0.014   2.803  0.4062 -0.4782  0.7397
 2923TIP3    H1 8733   0.603   0.007   2.765  0.3717  0.7741  0.3798
 2923TIP3    H2 8734   0.530   0.048   2.891  0.2071  1.9908 -0.0968
 2924TIP3   OH2 8735   3.670   2.666   3.157 -0.2803  1.1391  0.1347
 2924TIP3    H1 8736   3.607   2.726   3.198 -0.1139  2.7617 -1.8045
 2924TIP3    H2 8737   3.741   2.723   3.129  0.4658 -0.1721 -0.7223
 2925TIP3   OH2 8738   7.125   1.277   3.665  0.4781  0.0720 -0.0041
 2925TIP3    H1 8739   7.205   1.230   3.645  0.6934  0.3748  0.1283
 2925TIP3    H2 8740   7.154   1.366   3.687  0.0608  0.3425 -0.5107
 2926TIP3   OH2 8741   1.478   5.579   3.714  0.0220  0.1212 -0.4546
 2926TIP3    H1 8742   1.461   5.499   3.763  0.0796 -0.6505 -1.6701
 2926TIP3    H2 8743   1.567   5.604   3.739  0.5989 -1.0694 -1.2206
 2927TIP3   OH2 8744   6.862   4.566   5.440  0.4479 -0.1422  0.0232
 2927TIP3    H1 8745   6.946   4.523   5.458  0.3534 -0.5043 -0.3639
 2927TIP3    H2 8746   6.800   4.522   5.499  0.8292  1.3201  1.5891
 2928TIP3   OH2 8747   4.064   5.450   5.113  0.5383  0.3018  0.1144
 2928TIP3    H1 8748   4.051   5.474   5.204  1.0983  0.1844  0.2280
 2928TIP3    H2 8749   3.990   5.392   5.092 -0.4463  1.5500  0.0354
 2929TIP3   OH2 8750   5.003   0.969   5.445 -0.5261 -0.3551 -0.2599
 2929TIP3    H1 8751   5.021   0.939   5.534  0.3214 -0.0001 -0.3046
 2929TIP3    H2 8752   4.908   0.986   5.444 -0.5709 -0.5203  0.5214
 2930TIP3   OH2 8753   0.863   1.289   3.214 -0.5190 -0.1803  0.5136
 2930TIP3    H1 8754   0.896   1.370   3.253  1.3071 -0.8454  0.4350
 2930TIP3    H2 8755   0.828   1.239   3.287  0.6211 -0.3631  0.9443
 2931TIP3   OH2 8756   6.216   1.418   2.568  0.0825  0.3929  0.0285
 2931TIP3    H1 8757   6.269   1.340   2.550  0.0341 -0.4989  3.1775
 2931TIP3    H2 8758   6.240   1.479   2.499  2.9952 -1.0554 -0.4062
 2932TIP3   OH2 8759   0.830   5.930   3.236 -0.4249  0.0672 -0.1842
 2932TIP3    H1 8760   0.753   5.946   3.181 -0.0743 -0.5642 -0.8830
 2932TIP3    H2 8761   0.884   6.008   3.223 -0.5481  0.1228 -0.3839
 2933TIP3   OH2 8762   7.227   3.265   0.096  0.0009  0.1649  0.1098
 2933TIP3    H1 8763   7.143   3.308   0.111  0.5865  3.3680 -4.0404
 2933TIP3    H2 8764   7.210   3.203   0.024  0.6979 -1.3533  1.1892
 2934TIP3   OH2 8765   0.494   2.214   1.208  0.0414 -0.5899 -0.0865
 2934TIP3    H1 8766   0.530   2.216   1.119 -0.0348  0.1133 -0.1123
 2934TIP3    H2 8767   0.449   2.131   1.215  2.5658 -2.0333  0.3014
 2935TIP3   OH2 8768   5.517   3.255   3.596  0.2273 -0.1655  0.4363
 2935TIP3    H1 8769   5.514   3.166   3.630  0.4104 -0.1146  0.5862
 2935TIP3    H2 8770   5.599   3.291   3.629  0.9336 -0.4593 -0.9386
 2936TIP3   OH2 8771   1.188   4.846   1.408 -0.4464 -0.3607 -0.0059
 2936TIP3    H1 8772   1.253   4.894   1.458  0.2219  1.9089 -2.7751
 2936TIP3    H2 8773   1.239   4.780   1.360 -0.6414 -0.5723  0.0754
 2937TIP3   OH2 8774   2.150   6.401   0.950 -0.4824  0.5476  0.0553
 2937TIP3    H1 8775   2.220   6.346   0.984  0.8638  1.4768 -1.1120
 2937TIP3    H2 8776   2.070   6.366   0.989  0.6671 -0.2917  1.7302
 2938TIP3   OH2 8777   0.805   0.977   1.867  0.0466  0.0598 -0.5953
 2938TIP3    H1 8778   0.828   0.894   1.910 -0.7607 -0.1233 -0.4879
 2938TIP3    H2 8779   0.815   0.960   1.774  0.4844  0.0356 -0.5455
 2939TIP3   OH2 8780   4.405   2.687   1.102 -0.1879 -0.0287  0.4842
 2939TIP3    H1 8781   4.329   2.733   1.136  0.5952 -0.4980  3.1313
 2939TIP3    H2 8782   4.391   2.596   1.127  1.9984  0.1458  2.7346
 2940TIP3   OH2 8783   3.180   2.331   5.535 -0.4226  0.9629 -0.3657
 2940TIP3    H1 8784   3.097   2.338   5.488 -0.1343 -0.5214 -1.1709
 2940TIP3    H2 8785   3.188   2.238   5.557  0.1882  1.3752  1.3054
 2941TIP3   OH2 8786   4.185   1.753   5.780 -0.2090  0.2963 -0.1466
 2941TIP3    H1 8787   4.222   1.680   5.829 -0.4638  0.3363  0.1084
 2941TIP3    H2 8788   4.155   1.713   5.698  0.3383  0.2559 -0.3284
 2942TIP3   OH2 8789   7.068   2.983   3.007  0.0475  0.3441  0.0210
 2942TIP3    H1 8790   7.013   2.919   2.961  0.2218  0.7305 -0.7336
 2942TIP3    H2 8791   7.157   2.949   2.997 -0.0506 -0.4448  1.5034
 2943TIP3   OH2 8792   1.816   3.724   5.431  0.0531  0.0696 -0.0802
 2943TIP3    H1 8793   1.833   3.664   5.358  0.3717 -0.3774  0.3574
 2943TIP3    H2 8794   1.878   3.697   5.499  0.7352  1.3861 -0.1512
 2944TIP3   OH2 8795   3.871   2.692   0.847 -0.4480  0.0973 -0.2292
 2944TIP3    H1 8796   3.948   2.657   0.891  0.4800  1.5928 -0.5668
 2944TIP3    H2 8797   3.843   2.623   0.787 -1.3927 -1.7649  2.2001
 2945TIP3   OH2 8798   4.504   4.481   0.143  0.2929 -0.1719  0.3157
 2945TIP3    H1 8799   4.485   4.393   0.173 -0.9523  0.1281  0.4610
 2945TIP3    H2 8800   4.428   4.532   0.168  0.9585  0.9370  0.1596
 2946TIP3   OH2 8801   6.742   1.908   2.540  0.2659 -0.3256 -0.4080
 2946TIP3    H1 8802   6.748   1.912   2.635 -0.1886 -1.0201 -0.3425
 2946TIP3    H2 8803   6.662   1.858   2.523  1.4470 -2.0859 -1.1322
 2947TIP3   OH2 8804   0.986   0.270   0.073 -0.0189  0.3246  0.5335
 2947TIP3    H1 8805   1.075   0.269   0.037  0.6294 -0.8927  2.0672
 2947TIP3    H2 8806   0.953   0.181   0.058  0.4310 -0.3775  3.1667
 2948TIP3   OH2 8807   1.923   5.984   4.193 -0.1915  0.2004  0.2120
 2948TIP3    H1 8808   1.839   6.009   4.154  0.2305  0.5877 -0.4747
 2948TIP3    H2 8809   1.951   5.907   4.142 -0.0878  0.1312  0.3752
 2949TIP3   OH2 8810   4.294   0.656   3.181  0.1083 -0.0566 -0.3367
 2949TIP3    H1 8811   4.333   0.680   3.097  1.8013 -1.3122  0.0386
 2949TIP3    H2 8812   4.226   0.722   3.195  0.3146  0.6551 -2.2945
 2950TIP3   OH2 8813   3.296   3.551   0.276 -0.0859  0.1310 -0.0675
 2950TIP3    H1 8814   3.345   3.522   0.199 -0.9482  0.5088 -0.7719
 2950TIP3    H2 8815   3.340   3.509   0.349 -0.6798 -2.1716 -0.9429
 2951TIP3   OH2 8816   5.448   2.287   5.582  0.3719 -0.3387 -0.3091
 2951TIP3    H1 8817   5.376   2.304   5.522 -0.4530  0.3431  0.8249
 2951TIP3    H2 8818   5.527   2.313   5.533 -0.3405  0.8936 -0.8581
 2952TIP3   OH2 8819   2.847   0.945   5.223  0.6363  0.0928  0.0346
 2952TIP3    H1 8820   2.791   0.890   5.170  1.5306 -0.7511 -0.0773
 2952TIP3    H2 8821   2.933   0.940   5.181  0.6966  1.7919 -0.1217
 2953TIP3   OH2 8822   0.015   3.412   2.979 -0.0297  0.1342 -0.0040
 2953TIP3    H1 8823   0.047   3.324   2.999 -1.3860 -0.1222  1.2203
 2953TIP3    H2 8824   0.082   3.450   2.924  0.8169 -1.5022 -0.1538
 2954TIP3   OH2 8825   5.825   2.746   3.025  0.1174  0.6218  0.6907
 2954TIP3    H1 8826   5.739   2.706   3.038 -0.9059  1.9859 -1.2764
 2954TIP3    H2 8827   5.878   2.676   2.986 -0.1631 -0.1369  1.6178
 2955TIP3   OH2 8828   0.489   5.847   0.586 -0.0121  0.3213  0.0569
 2955TIP3    H1 8829   0.487   5.929   0.536  3.2326 -0.0043 -0.8137
 2955TIP3    H2 8830   0.501   5.875   0.677 -0.4905  0.8207 -0.0256
 2956TIP3   OH2 8831   0.999   6.743   5.116 -0.7520  0.1954  0.6224
 2956TIP3    H1 8832   1.043   6.659   5.127 -0.9171  0.2516  1.8244
 2956TIP3    H2 8833   1.021   6.770   5.027 -0.2446 -0.8531  0.4146
 2957TIP3   OH2 8834   1.371   5.320   5.506 -0.8962 -0.6823  0.1750
 2957TIP3    H1 8835   1.381   5.412   5.481  1.1488 -0.6033  1.1104
 2957TIP3    H2 8836   1.304   5.286   5.446 -1.1597  1.2083 -0.6755
 2958TIP3   OH2 8837   2.177   4.560   5.763  0.5361 -0.4648 -0.3194
 2958TIP3    H1 8838   2.142   4.555   5.852  4.8492 -1.3005  1.6000
 2958TIP3    H2 8839   2.185   4.468   5.735  0.3532 -0.2544 -1.0992
 2959TIP3   OH2 8840   6.678   5.966   2.812  0.2005 -0.0175  0.2073
 2959TIP3    H1 8841   6.630   5.954   2.730  2.0065 -0.0457 -0.9073
 2959TIP3    H2 8842   6.674   6.061   2.828  2.9703  0.6153 -2.0405
 2960TIP3   OH2 8843   2.052   4.256   2.399 -0.1985 -0.1727  0.0492
 2960TIP3    H1 8844   1.965   4.280   2.366 -0.5111 -2.2105 -0.7757
 2960TIP3    H2 8845   2.055   4.161   2.391  2.3773 -0.1172 -0.5435
 2961TIP3   OH2 8846   6.735   2.402   3.635 -0.0831 -0.6339  0.0899
 2961TIP3    H1 8847   6.672   2.456   3.588  0.9101  1.0479  0.5838
 2961TIP3    H2 8848   6.760   2.334   3.572 -0.5877  0.1155 -0.9492
 2962TIP3   OH2 8849   4.439   0.232   0.662  0.4719  0.0383  0.3399
 2962TIP3    H1 8850   4.361   0.252   0.610  1.1199 -2.3874 -1.7471
 2962TIP3    H2 8851   4.512   0.239   0.599  1.3320 -2.6863  0.9231
 2963TIP3   OH2 8852   5.755   3.739   2.832  0.2439 -0.8586  0.5461
 2963TIP3    H1 8853   5.693   3.670   2.857 -0.3928 -0.5591 -0.1873
 2963TIP3    H2 8854   5.820   3.739   2.903 -1.3058 -0.2914  2.0491
 2964TIP3   OH2 8855   4.516   4.930   5.763  0.3761 -0.1929  0.3725
 2964TIP3    H1 8856   4.532   4.840   5.735  0.7417  0.0673 -0.2697
 2964TIP3    H2 8857   4.562   4.984   5.699 -1.3222  0.5200 -0.2916
 2965TIP3   OH2 8858   1.493   2.778   4.517  0.2365  0.6707 -0.0448
 2965TIP3    H1 8859   1.447   2.857   4.490  1.0734  1.2109  0.0984
 2965TIP3    H2 8860   1.581   2.807   4.540  0.0630 -0.0210  1.6347
 2966TIP3   OH2 8861   2.943   3.856   5.880 -0.5854 -0.2565 -0.7658
 2966TIP3    H1 8862   3.003   3.929   5.863  0.4888 -0.9897 -0.2547
 2966TIP3    H2 8863   2.994   3.778   5.860 -0.7652 -0.9807  1.3387
 2967TIP3   OH2 8864   6.348   1.367   0.930  0.3444 -0.1861 -0.3079
 2967TIP3    H1 8865   6.402   1.303   0.885  0.0252 -0.8638  0.2549
 2967TIP3    H2 8866   6.326   1.326   1.014  0.2585  0.7169  0.1308
 2968TIP3   OH2 8867   1.546   4.275   3.519 -0.2880 -0.0828  0.3777
 2968TIP3    H1 8868   1.576   4.264   3.429 -0.2342 -1.9505  0.5788
 2968TIP3    H2 8869   1.577   4.196   3.564 -1.1034  0.3786  1.8140
 2969TIP3   OH2 8870   0.390   3.204   1.910  0.7389  0.3608 -0.6490
 2969TIP3    H1 8871   0.426   3.116   1.923 -2.3304 -1.1714 -1.6047
 2969TIP3    H2 8872   0.362   3.232   1.997  0.1640 -0.3801 -0.5878
 2970TIP3   OH2 8873   3.667   5.707   2.031 -0.5727 -0.5016 -0.1308
 2970TIP3    H1 8874   3.678   5.620   1.992  1.8788 -0.4199  0.2544
 2970TIP3    H2 8875   3.743   5.757   2.001 -0.4150  0.6141  1.9547
 2971TIP3   OH2 8876   4.900   6.334   3.973  0.2367 -0.6134  0.1242
 2971TIP3    H1 8877   4.930   6.373   3.891 -1.4928  0.2996 -0.1395
 2971TIP3    H2 8878   4.935   6.391   4.041 -1.0315  0.6206 -0.1896
 2972TIP3   OH2 8879   2.651   2.708   1.930 -0.2579  0.4766  0.2632
 2972TIP3    H1 8880   2.663   2.786   1.875 -1.3517  0.8601  0.5401
 2972TIP3    H2 8881   2.559   2.711   1.956  0.1799  0.1962  1.9606
 2973TIP3   OH2 8882   0.696   4.698   2.819  0.0527 -0.1795  0.6800
 2973TIP3    H1 8883   0.775   4.727   2.864  0.8563  0.0250 -0.7877
 2973TIP3    H2 8884   0.723   4.619   2.772 -0.7888 -0.4585  0.6461
 2974TIP3   OH2 8885   2.727   5.706   3.899  0.2657  0.0128 -0.4041
 2974TIP3    H1 8886   2.673   5.685   3.822  0.6056  0.3936 -0.7524
 2974TIP3    H2 8887   2.702   5.795   3.922 -2.5543 -1.2975  2.2341
 2975TIP3   OH2 8888   3.803   6.062   5.561 -0.2139  0.3738 -0.5591
 2975TIP3    H1 8889   3.726   6.111   5.532 -0.8320 -0.4538 -0.3658
 2975TIP3    H2 8890   3.862   6.128   5.596 -1.4367  0.8793  0.6244
 2976TIP3   OH2 8891   4.373   4.433   3.673  0.4031  0.3865 -0.0948
 2976TIP3    H1 8892   4.366   4.375   3.749 -1.1224  0.9969  0.2477
 2976TIP3    H2 8893   4.306   4.401   3.612 -0.1581  1.5097 -0.0826
 2977TIP3   OH2 8894   6.198   4.514   3.476  0.1218  0.1391  0.1220
 2977TIP3    H1 8895   6.211   4.548   3.387 -0.3769 -0.5433 -0.2311
 2977TIP3    H2 8896   6.183   4.591   3.530 -0.3006  0.5198 -0.5272
 2978TIP3   OH2 8897   2.568   1.643   1.681 -0.2677 -0.2359  0.4716
 2978TIP3    H1 8898   2.587   1.735   1.699 -0.1444 -0.3628  1.0123
 2978TIP3    H2 8899   2.521   1.644   1.598  0.0944  0.2797  0.2662
 2979TIP3   OH2 8900   5.249   4.423   0.601  0.4517  0.1167  0.5186
 2979TIP3    H1 8901   5.296   4.422   0.685  1.1137 -0.0890  0.1466
 2979TIP3    H2 8902   5.197   4.504   0.604 -0.4900 -0.4962  1.6440
 2980TIP3   OH2 8903   3.972   1.772   4.437 -0.4488  0.4378  0.2724
 2980TIP3    H1 8904   3.923   1.802   4.513  0.5910  0.5577  0.9147
 2980TIP3    H2 8905   3.909   1.723   4.385 -1.3294  0.8981  0.8925
 2981TIP3   OH2 8906   3.901   0.906   3.695  0.2714  0.6410 -0.8702
 2981TIP3    H1 8907   3.864   0.847   3.630  0.5298 -1.4523  0.7789
 2981TIP3    H2 8908   3.829   0.924   3.755  1.4401 -2.8142  1.9069
 2982TIP3   OH2 8909   5.143   1.753   1.273  0.0158  0.4607 -0.1442
 2982TIP3    H1 8910   5.094   1.811   1.215 -0.0587  0.2738 -0.2690
 2982TIP3    H2 8911   5.190   1.694   1.214 -1.7091 -1.1285 -0.0304
 2983TIP3   OH2 8912   0.875   6.258   0.348  0.5485 -0.2617 -0.5850
 2983TIP3    H1 8913   0.838   6.175   0.378 -0.4388 -0.1629 -1.4651
 2983TIP3    H2 8914   0.887   6.309   0.429 -1.6175 -0.1687 -0.2639
 2984TIP3   OH2 8915   0.653   3.571   2.710 -0.1443 -0.2463  0.5916
 2984TIP3    H1 8916   0.744   3.582   2.739  0.3210 -2.9632  0.3975
 2984TIP3    H2 8917   0.606   3.548   2.790 -0.7602  1.4090  0.7377
 2985TIP3   OH2 8918   6.989   3.071   1.008  0.6055 -0.3009  0.0509
 2985TIP3    H1 8919   6.919   3.098   1.068  1.4253  0.5611  0.6377
 2985TIP3    H2 8920   7.016   3.152   0.965 -0.1967 -0.9491 -1.7752
 2986TIP3   OH2 8921   1.585   6.596   0.501  0.0916  0.0531 -0.5234
 2986TIP3    H1 8922   1.500   6.563   0.533  0.3479  0.9227  1.1510
 2986TIP3    H2 8923   1.648   6.532   0.533  0.0148 -1.1516 -2.6449
 2987TIP3   OH2 8924   3.468   1.525   3.343  0.6049  0.2632 -0.0116
 2987TIP3    H1 8925   3.404   1.558   3.279  0.5209  1.3972  0.6312
 2987TIP3    H2 8926   3.473   1.431   3.325 -0.5372  0.3083 -0.6975
 2988TIP3   OH2 8927   6.644   1.386   0.920 -0.2549  0.8016 -0.4293
 2988TIP3    H1 8928   6.694   1.430   0.988 -1.0084  0.2586  0.5047
 2988TIP3    H2 8929   6.553   1.409   0.939 -0.5239  0.1270 -0.8701
 2989TIP3   OH2 8930   4.243   5.854   5.808 -0.3127  0.6474  0.4969
 2989TIP3    H1 8931   4.158   5.896   5.796 -0.6853  0.1423  1.2620
 2989TIP3    H2 8932   4.296   5.885   5.735 -0.9755  1.4271  0.3326
 2990TIP3   OH2 8933   0.094   2.511   2.652  0.1871 -0.4932  0.2431
 2990TIP3    H1 8934   0.073   2.540   2.741 -2.3945 -0.4007 -0.3181
 2990TIP3    H2 8935   0.109   2.592   2.604  1.2375 -0.5288  0.4881
 2991TIP3   OH2 8936   1.700   2.778   2.088  0.2056 -0.0785  0.1435
 2991TIP3    H1 8937   1.763   2.711   2.063 -1.1696 -1.4034  0.0839
 2991TIP3    H2 8938   1.715   2.849   2.025  0.8131 -0.8620 -0.6258
 2992TIP3   OH2 8939   3.390   1.591   5.472 -0.3201  0.4277 -0.2021
 2992TIP3    H1 8940   3.438   1.640   5.405 -0.2370  0.6880  0.0454
 2992TIP3    H2 8941   3.298   1.613   5.456 -0.5102 -1.1259 -1.5332
 2993TIP3   OH2 8942   5.673   5.471   5.568 -0.4534  0.0340  0.2575
 2993TIP3    H1 8943   5.650   5.424   5.488 -0.5131  0.2920  0.1249
 2993TIP3    H2 8944   5.592   5.516   5.593  0.1279  1.6860 -0.7047
 2994TIP3   OH2 8945   1.835   5.847   0.010 -0.2650  0.4635  0.5565
 2994TIP3    H1 8946   1.839   5.930  -0.038  0.5388  0.8310  1.2315
 2994TIP3    H2 8947   1.915   5.846   0.063 -1.2153  0.1628  2.0447
 2995TIP3   OH2 8948   2.838   6.226   1.333  0.3649  0.5609 -0.1354
 2995TIP3    H1 8949   2.898   6.290   1.293  1.8178 -0.4862  0.2888
 2995TIP3    H2 8950   2.811   6.267   1.415  0.2127  1.1836 -0.4849
 2996TIP3   OH2 8951   3.147   5.665   0.904 -0.2583 -1.0306 -0.1468
 2996TIP3    H1 8952   3.210   5.658   0.832 -1.5431  1.1214 -1.6127
 2996TIP3    H2 8953   3.077   5.604   0.881 -1.0796  0.2689 -1.2666
 2997TIP3   OH2 8954   2.562   4.101   4.188 -0.5188 -0.1215 -0.3210
 2997TIP3    H1 8955   2.620   4.166   4.229 -0.2167 -0.7647  0.2872
 2997TIP3    H2 8956   2.476   4.144   4.187 -0.2088  0.5068 -0.4437
 2998TIP3   OH2 8957   5.055   6.577   4.595  0.5140  0.0147  0.1224
 2998TIP3    H1 8958   4.986   6.641   4.578  0.4597  0.3520  1.4270
 2998TIP3    H2 8959   5.010   6.493   4.602  0.4279  0.0138 -0.4498
 2999TIP3   OH2 8960   7.138   5.872   2.074 -0.0099 -0.2467 -0.2907
 2999TIP3    H1 8961   7.104   5.782   2.081 -0.9023  0.1501  0.8775
 2999TIP3    H2 8962   7.086   5.911   2.004  0.1457 -0.5336 -0.5720
 3000TIP3   OH2 8963   2.637   6.580   0.622 -0.1995 -0.1148 -0.3448
 3000TIP3    H1 8964   2.600   6.507   0.672 -1.2633  0.4544 -0.2703
 3000TIP3    H2 8965   2.617   6.558   0.530 -1.3866  0.5136 -0.2645
 3001TIP3   OH2 8966   5.001   2.027   0.302  0.5004 -0.1037  0.2862
 3001TIP3    H1 8967   5.010   1.975   0.382 -0.8399  0.8565  1.1089
 3001TIP3    H2 8968   5.063   2.099   0.313  1.7811 -1.0428 -0.4944
 3002TIP3   OH2 8969   0.161   4.046   1.593 -0.6772  0.1431  0.0361
 3002TIP3    H1 8970   0.120   3.964   1.568 -0.2417 -0.0755  0.0193
 3002TIP3    H2 8971   0.139   4.057   1.686  0.4077 -0.7042  0.4164
 3003TIP3   OH2 8972   2.563   4.090   0.070 -0.4772 -0.1633  0.0667
 3003TIP3    H1 8973   2.542   4.027   0.139 -1.2036  0.8726  0.8233
 3003TIP3    H2 8974   2.479   4.109   0.028 -0.3569  0.6137  0.1479
 3004TIP3   OH2 8975   4.452   0.874   2.706 -0.4208  0.2226 -0.6078
 3004TIP3    H1 8976   4.510   0.840   2.638 -0.9015 -2.4730  0.2219
 3004TIP3    H2 8977   4.501   0.946   2.746  0.0041  1.7461 -3.5197
 3005TIP3   OH2 8978   4.984   2.418   4.690  0.2089 -0.4795 -0.0710
 3005TIP3    H1 8979   5.049   2.361   4.648  1.0259  0.1148  0.3490
 3005TIP3    H2 8980   4.945   2.364   4.758  0.6038 -0.7106 -0.0238
 3006TIP3   OH2 8981   1.002   2.667   4.059  0.3432  0.1549  0.0046
 3006TIP3    H1 8982   0.996   2.658   4.154 -1.6024 -1.4662 -0.2150
 3006TIP3    H2 8983   0.987   2.761   4.043 -0.6396  0.2321  1.2112
 3007TIP3   OH2 8984   5.115   3.011   1.165 -0.4691  0.9760  0.0462
 3007TIP3    H1 8985   5.109   3.093   1.117  0.2732  0.3481 -1.1774
 3007TIP3    H2 8986   5.051   2.954   1.122 -0.1656  0.5653  0.1319
 3008TIP3   OH2 8987   0.104   2.789   5.494  0.1473 -0.0384 -0.4006
 3008TIP3    H1 8988   0.068   2.792   5.583  1.1361  3.3222  0.0507
 3008TIP3    H2 8989   0.032   2.817   5.438  0.2840  0.5701 -0.2803
 3009TIP3   OH2 8990   2.017   3.329   1.870  0.1692 -0.3266 -0.0598
 3009TIP3    H1 8991   2.045   3.418   1.847 -1.2884  0.0232 -0.5379
 3009TIP3    H2 8992   1.944   3.311   1.812  1.4587 -2.5020 -1.1469
 3010TIP3   OH2 8993   5.853   2.122   3.681  0.4005 -0.1976 -0.1275
 3010TIP3    H1 8994   5.888   2.156   3.763  0.1538  0.4368 -0.2756
 3010TIP3    H2 8995   5.779   2.179   3.661  0.8726  0.0987 -1.1456
 3011TIP3   OH2 8996   1.808   5.971   0.536 -0.5510  0.3742  0.3794
 3011TIP3    H1 8997   1.753   5.897   0.510 -1.1147  1.4421 -1.6187
 3011TIP3    H2 8998   1.747   6.044   0.545  0.1736  0.9121  1.0052
 3012TIP3   OH2 8999   0.100   3.735   1.303 -0.1737 -0.2981  0.6041
 3012TIP3    H1 9000   0.116   3.654   1.254  0.7895 -0.4497  1.1368
 3012TIP3    H2 9001   0.005   3.742   1.308 -0.2659 -1.3892  0.5275
 3013TIP3   OH2 9002   4.789   0.882   4.362 -0.1344  0.8486  0.0510
 3013TIP3    H1 9003   4.840   0.808   4.395 -0.8372  0.2013 -0.2858
 3013TIP3    H2 9004   4.703   0.871   4.402 -1.4172 -0.6543 -2.8146
 3014TIP3   OH2 9005   5.725   1.456   2.887  0.1403 -0.4075  0.2909
 3014TIP3    H1 9006   5.779   1.377   2.896 -0.3238 -0.9590 -1.4137
 3014TIP3    H2 9007   5.647   1.426   2.840 -0.8056  0.7542  1.0574
 3015TIP3   OH2 9008   1.544   5.619   5.496 -0.1001 -0.0812  0.3574
 3015TIP3    H1 9009   1.639   5.628   5.487 -0.0199 -2.0206 -1.3719
 3015TIP3    H2 9010   1.530   5.608   5.590  1.4686 -0.5836  0.5657
 3016TIP3   OH2 9011   6.511   3.621   1.316 -0.1902 -0.1869  0.1758
 3016TIP3    H1 9012   6.434   3.610   1.259  1.0998  0.9340 -1.8835
 3016TIP3    H2 9013   6.482   3.682   1.384 -1.2270 -0.0693 -0.3545
 3017TIP3   OH2 9014   2.226   0.904   5.282 -0.0148 -0.2295 -0.0993
 3017TIP3    H1 9015   2.316   0.934   5.298 -0.3933  0.7305  0.3598
 3017TIP3    H2 9016   2.173   0.982   5.297 -0.6365  0.4392 -4.5028
 3018TIP3   OH2 9017   4.887   4.727   2.149  0.5812 -0.1041 -0.1581
 3018TIP3    H1 9018   4.907   4.729   2.056  1.6600 -1.0847  0.0270
 3018TIP3    H2 9019   4.792   4.738   2.154  0.2977 -1.6603 -1.4633
 3019TIP3   OH2 9020   3.819   3.063   0.547 -0.0023  0.6648  0.3564
 3019TIP3    H1 9021   3.807   3.158   0.546  0.2671  0.7353 -1.6913
 3019TIP3    H2 9022   3.787   3.035   0.633 -0.8785  2.5009  0.6775
 3020TIP3   OH2 9023   5.715   5.264   1.851  0.0848  0.2050 -0.5459
 3020TIP3    H1 9024   5.626   5.271   1.816  0.2742 -0.0806 -1.0970
 3020TIP3    H2 9025   5.745   5.355   1.858 -0.3054  0.3138 -0.1936
 3021TIP3   OH2 9026   2.088   5.103   0.662  0.5522  0.1299 -0.1624
 3021TIP3    H1 9027   2.092   5.092   0.567 -0.5136 -0.2937 -0.1769
 3021TIP3    H2 9028   2.136   5.184   0.679 -1.1857  1.4946 -1.3252
 3022TIP3   OH2 9029   5.804   2.419   0.121 -0.2106 -0.8570  0.0922
 3022TIP3    H1 9030   5.851   2.337   0.134 -2.1918 -1.8088  2.0503
 3022TIP3    H2 9031   5.811   2.465   0.205  1.1278  1.2094 -1.0507
 3023TIP3   OH2 9032   0.333   1.305   2.723 -0.6484 -0.3327  0.0431
 3023TIP3    H1 9033   0.248   1.271   2.754 -0.7518  0.6349  0.8802
 3023TIP3    H2 9034   0.398   1.248   2.766 -0.8419 -0.0812  0.6836
 3024TIP3   OH2 9035   1.773   1.846   5.234 -0.2352  0.5361 -0.7729
 3024TIP3    H1 9036   1.794   1.894   5.155  0.0538  2.1348  0.2367
 3024TIP3    H2 9037   1.850   1.789   5.249  1.0874  2.4055 -0.0557
 3025TIP3   OH2 9038   6.204   5.273   5.245  0.5295 -0.1307  0.0411
 3025TIP3    H1 9039   6.153   5.194   5.228  0.1563 -0.0634  0.8147
 3025TIP3    H2 9040   6.198   5.286   5.340  1.5131  0.1996  0.0747
 3026TIP3   OH2 9041   6.098   5.480   3.410  0.1523 -0.1704  0.6893
 3026TIP3    H1 9042   6.192   5.472   3.397 -0.0937  0.0342 -1.7818
 3026TIP3    H2 9043   6.062   5.398   3.375 -0.5766 -0.5735  2.2855
 3027TIP3   OH2 9044   4.203   3.046   2.344  0.3386 -0.2166 -0.0703
 3027TIP3    H1 9045   4.185   3.031   2.437  0.4063  4.2552  0.9003
 3027TIP3    H2 9046   4.279   2.991   2.325  0.1422 -1.5049  2.4162
 3028TIP3   OH2 9047   3.558   3.280   4.427 -0.1282  0.4251 -0.4578
 3028TIP3    H1 9048   3.577   3.200   4.475  0.7200  0.2689 -1.0287
 3028TIP3    H2 9049   3.470   3.305   4.455 -0.5374 -0.8841 -0.5178
 3029TIP3   OH2 9050   4.453   4.776   3.049 -0.2051  0.4834 -0.8393
 3029TIP3    H1 9051   4.437   4.811   2.961 -0.3645  0.3334 -0.8708
 3029TIP3    H2 9052   4.539   4.735   3.044 -1.5174 -2.4624 -1.8698
 3030TIP3   OH2 9053   1.590   1.746   0.143  0.0315  0.2207 -0.0490
 3030TIP3    H1 9054   1.646   1.811   0.187  0.4098  0.5935 -1.0403
 3030TIP3    H2 9055   1.625   1.662   0.170  2.2524  0.4157 -1.9682
 3031TIP3   OH2 9056   4.430   1.309   4.216  0.3078 -0.7729  0.6747
 3031TIP3    H1 9057   4.340   1.300   4.186  0.6997 -1.0193 -0.4611
 3031TIP3    H2 9058   4.470   1.224   4.198  0.7041 -0.7449  1.3998
 3032TIP3   OH2 9059   1.441   0.948   2.228  0.1955 -0.1980 -0.6627
 3032TIP3    H1 9060   1.358   0.977   2.266  0.7517  0.1682  0.3059
 3032TIP3    H2 9061   1.499   0.936   2.303  1.9506  2.4317 -1.4575
 3033TIP3   OH2 9062   3.620   2.814   2.346  0.0768 -0.3766 -0.0804
 3033TIP3    H1 9063   3.622   2.719   2.350 -0.1068 -0.4197 -0.9579
 3033TIP3    H2 9064   3.706   2.842   2.376 -0.0418 -0.7924  0.6742
 3034TIP3   OH2 9065   2.549   3.999   1.747  0.0383  0.0009 -0.1314
 3034TIP3    H1 9066   2.579   3.987   1.657 -0.5770  1.0648 -0.5050
 3034TIP3    H2 9067   2.534   3.911   1.780  2.0086 -0.5041 -0.4406
 3035TIP3   OH2 9068   2.459   3.445   4.858 -0.1723  0.1491  0.7696
 3035TIP3    H1 9069   2.367   3.466   4.877  0.1558  0.9699  1.5389
 3035TIP3    H2 9070   2.458   3.415   4.768 -1.0914  0.9353  0.4922
 3036TIP3   OH2 9071   4.459   4.123   0.205 -0.1627  0.1711  0.1728
 3036TIP3    H1 9072   4.378   4.081   0.178 -1.7128  3.6969 -1.2421
 3036TIP3    H2 9073   4.450   4.135   0.300 -2.0646  1.8291 -0.1575
 3037TIP3   OH2 9074   3.138   5.797   3.144  0.6669 -0.0305  0.0935
 3037TIP3    H1 9075   3.223   5.754   3.158  0.4801 -0.1774  0.7938
 3037TIP3    H2 9076   3.104   5.756   3.064  0.5597 -1.0977  0.6721
 3038TIP3   OH2 9077   1.093   4.185   5.097  0.6392 -0.1738  0.0101
 3038TIP3    H1 9078   1.120   4.093   5.098  0.2037 -0.3848 -2.2480
 3038TIP3    H2 9079   1.004   4.185   5.132 -0.6049 -1.1573 -2.8563
 3039TIP3   OH2 9080   0.351   5.331   0.678 -0.4402 -0.5494  0.9385
 3039TIP3    H1 9081   0.359   5.359   0.770  0.5265 -0.0707  0.7246
 3039TIP3    H2 9082   0.326   5.411   0.631 -0.2404 -0.6338  0.6873
 3040TIP3   OH2 9083   0.020   5.248   1.345 -0.8161 -0.2384 -0.2545
 3040TIP3    H1 9084   0.100   5.214   1.384 -0.2545  0.4948 -0.7454
 3040TIP3    H2 9085   0.045   5.273   1.256 -1.5028  0.3203 -0.2971
 3041TIP3   OH2 9086   6.796   0.308   5.180  0.0556  0.2499  0.0815
 3041TIP3    H1 9087   6.779   0.218   5.208  1.2818  0.6243  2.3242
 3041TIP3    H2 9088   6.718   0.357   5.208  1.4694  0.7144  3.7667
 3042TIP3   OH2 9089   6.003   1.044   2.508  0.4078 -0.1040 -0.4235
 3042TIP3    H1 9090   6.079   1.009   2.461  1.4357  0.7104  0.5485
 3042TIP3    H2 9091   5.987   1.129   2.468 -2.4058 -1.7089 -3.1254
 3043TIP3   OH2 9092   2.219   1.716   4.862 -0.9917 -0.3174  0.0802
 3043TIP3    H1 9093   2.222   1.691   4.770 -1.1138 -2.1824  0.5565
 3043TIP3    H2 9094   2.131   1.751   4.874 -1.3193 -1.0123 -0.2763
 3044TIP3   OH2 9095   7.025   1.829   4.544  0.3415 -0.9105  0.0621
 3044TIP3    H1 9096   7.056   1.757   4.490  1.3897 -0.0481 -0.5469
 3044TIP3    H2 9097   7.088   1.899   4.528  0.2660 -0.3781  1.8417
 3045TIP3   OH2 9098   2.816   6.735   1.303  0.3383 -0.3929  0.6954
 3045TIP3    H1 9099   2.824   6.660   1.363  1.1150 -2.0162 -1.3157
 3045TIP3    H2 9100   2.890   6.726   1.244 -1.1753  0.2655 -1.4235
 3046TIP3   OH2 9101   4.398   6.529   3.340  0.5943 -0.2220 -0.5610
 3046TIP3    H1 9102   4.370   6.621   3.340  0.4436 -0.2669 -0.4405
 3046TIP3    H2 9103   4.490   6.532   3.315  0.7398  0.0122 -0.0230
 3047TIP3   OH2 9104   4.894   3.875   0.650 -0.2274  0.3235  0.5484
 3047TIP3    H1 9105   4.886   3.950   0.591  0.6940  1.2194  1.5029
 3047TIP3    H2 9106   4.989   3.861   0.657 -0.3866 -0.8410  0.5131
 3048TIP3   OH2 9107   4.864   2.116   3.611  0.6757 -0.5691  0.3499
 3048TIP3    H1 9108   4.859   2.041   3.553  0.3256 -0.8744  0.7610
 3048TIP3    H2 9109   4.874   2.078   3.699 -0.7746 -0.1831  0.7047
 3049TIP3   OH2 9110   0.599   5.495   0.287 -0.5678 -0.6031 -0.6070
 3049TIP3    H1 9111   0.667   5.562   0.279 -2.0161  0.9584 -0.3700
 3049TIP3    H2 9112   0.629   5.439   0.359 -0.7867  1.6875  1.4082
 3050TIP3   OH2 9113   3.119   4.600   3.635  0.0015  0.0264 -0.3356
 3050TIP3    H1 9114   3.114   4.643   3.720 -0.9316  0.9723 -0.8451
 3050TIP3    H2 9115   3.192   4.540   3.643 -0.1326  0.0226  1.1686
 3051TIP3   OH2 9116   3.146   0.773   2.181 -0.0352 -0.0730 -0.1897
 3051TIP3    H1 9117   3.160   0.867   2.170  1.9826 -0.5591 -2.6569
 3051TIP3    H2 9118   3.061   0.756   2.142  0.7325  0.4356 -2.2277
 3052TIP3   OH2 9119   1.240   2.542   3.977 -0.3741  0.3727 -0.4429
 3052TIP3    H1 9120   1.163   2.589   4.009 -2.4991 -2.9284 -0.2189
 3052TIP3    H2 9121   1.205   2.483   3.909  2.1028 -0.6787 -0.8961
 3053TIP3   OH2 9122   4.518   3.355   4.176  0.5942  0.0417 -0.1302
 3053TIP3    H1 9123   4.590   3.328   4.118  0.2589 -2.5083  0.4857
 3053TIP3    H2 9124   4.534   3.307   4.257 -0.8519  0.8123  0.6518
 3054TIP3   OH2 9125   2.568   3.050   3.727 -0.3303 -0.5939  0.0733
 3054TIP3    H1 9126   2.658   3.045   3.694 -0.2412  1.0283 -0.0012
 3054TIP3    H2 9127   2.536   3.135   3.697 -2.1013 -1.3900 -0.3851
 3055TIP3   OH2 9128   0.933   0.420   3.216  0.9953 -0.3251 -0.5500
 3055TIP3    H1 9129   0.961   0.363   3.288 -0.4527 -2.6328 -1.6727
 3055TIP3    H2 9130   0.864   0.474   3.254  1.3353 -0.3895  0.1793
 3056TIP3   OH2 9131   4.758   5.675   5.074 -0.5947  0.8029  0.1911
 3056TIP3    H1 9132   4.707   5.753   5.053 -0.7256  0.7282  0.2309
 3056TIP3    H2 9133   4.776   5.635   4.988 -2.4279 -0.3246  0.2680
 3057TIP3   OH2 9134   3.358   2.553   5.231 -0.0523  0.3159  0.0352
 3057TIP3    H1 9135   3.372   2.538   5.324  0.8926  0.6350 -0.0403
 3057TIP3    H2 9136   3.395   2.475   5.189  2.4127  1.4994 -0.2119
 3058TIP3   OH2 9137   2.134   5.474   4.801 -0.3324  0.1068 -0.2134
 3058TIP3    H1 9138   2.225   5.445   4.799  0.7742  3.1238 -3.3251
 3058TIP3    H2 9139   2.083   5.394   4.807  2.4675 -1.7966 -0.0479
 3059TIP3   OH2 9140   5.839   1.376   4.230  0.3278 -0.4340  0.4638
 3059TIP3    H1 9141   5.823   1.421   4.147 -1.0345 -0.2003  0.8231
 3059TIP3    H2 9142   5.929   1.398   4.253  0.5293 -0.0279 -0.6575
 3060TIP3   OH2 9143   7.135   5.274   5.315 -0.2506 -0.3513  0.1011
 3060TIP3    H1 9144   7.124   5.188   5.355  1.0518 -1.1262 -1.0985
 3060TIP3    H2 9145   7.046   5.300   5.289 -0.4426 -2.4377 -1.6283
 3061TIP3   OH2 9146   0.335   0.109   2.626 -0.2419  0.1241 -0.1168
 3061TIP3    H1 9147   0.252   0.130   2.668  1.1458  1.5155  2.1722
 3061TIP3    H2 9148   0.390   0.075   2.697  0.7969 -1.9077 -1.8054
 3062TIP3   OH2 9149   1.827   1.782   1.859  0.7041  1.0199 -0.0005
 3062TIP3    H1 9150   1.909   1.732   1.857  0.1047  0.0092 -1.9351
 3062TIP3    H2 9151   1.852   1.871   1.834  1.1776  0.5871 -1.1468
 3063TIP3   OH2 9152   0.827   1.765   4.615  0.0856  0.3401 -0.2056
 3063TIP3    H1 9153   0.840   1.681   4.657  0.9197 -0.2462 -1.5761
 3063TIP3    H2 9154   0.769   1.747   4.541 -2.2571  1.5376  1.1996
 3064TIP3   OH2 9155   6.128   6.448   2.056  0.1116  0.2522 -0.1944
 3064TIP3    H1 9156   6.055   6.452   2.117 -0.5807  1.2305 -1.0568
 3064TIP3    H2 9157   6.121   6.362   2.016  1.1259 -0.7934  1.7222
 3065TIP3   OH2 9158   2.237   1.650   3.822 -0.5788 -0.0519  0.0432
 3065TIP3    H1 9159   2.157   1.647   3.771  0.3139 -0.0495 -1.4263
 3065TIP3    H2 9160   2.244   1.742   3.851  0.1874  0.6137 -2.0609
 3066TIP3   OH2 9161   0.799   4.797   5.687 -0.3851 -0.4714 -0.2669
 3066TIP3    H1 9162   0.723   4.855   5.684 -0.0100  0.0835  0.7148
 3066TIP3    H2 9163   0.772   4.726   5.745 -1.4189 -2.1792 -2.6519
 3067TIP3   OH2 9164   5.740   1.165   2.435  0.3089 -0.3794 -0.4879
 3067TIP3    H1 9165   5.788   1.247   2.419  0.1686 -0.2847 -0.4317
 3067TIP3    H2 9166   5.694   1.180   2.518  0.0361 -0.3988 -0.6333
 3068TIP3   OH2 9167   0.466   1.757   4.112 -0.1659  0.1897  0.3667
 3068TIP3    H1 9168   0.486   1.814   4.038  2.1836  1.7345  2.0056
 3068TIP3    H2 9169   0.524   1.681   4.100 -0.4545  0.0034  0.1546
 3069TIP3   OH2 9170   7.007   6.192   1.345  0.2670 -0.2750  0.6492
 3069TIP3    H1 9171   7.038   6.102   1.335  1.3557  0.2329 -1.0830
 3069TIP3    H2 9172   7.070   6.232   1.405  1.5341  0.0424 -0.8110
 3070TIP3   OH2 9173   0.753   4.084   1.520  0.6215 -0.4387  0.2531
 3070TIP3    H1 9174   0.761   4.093   1.425 -0.9498 -2.3837 -0.1415
 3070TIP3    H2 9175   0.673   4.132   1.542 -0.0289 -1.4957  0.2718
 3071TIP3   OH2 9176   1.114   5.447   4.512 -0.1831 -0.4638  0.0549
 3071TIP3    H1 9177   1.058   5.387   4.462 -1.2834 -0.4299  1.2024
 3071TIP3    H2 9178   1.163   5.390   4.571 -0.2735 -0.3430  0.2452
 3072TIP3   OH2 9179   1.450   6.674   2.723  0.1784 -0.4396  0.0999
 3072TIP3    H1 9180   1.539   6.665   2.758  1.0732  2.8465 -0.9714
 3072TIP3    H2 9181   1.411   6.745   2.774 -1.8210 -1.6647  0.3967
 3073TIP3   OH2 9182   4.580   4.585   0.955  0.7010 -0.8914  0.2825
 3073TIP3    H1 9183   4.576   4.614   1.046  1.4962  0.0055  0.0460
 3073TIP3    H2 9184   4.532   4.502   0.954 -0.9292 -0.0240  1.1600
 3074TIP3   OH2 9185   4.282   6.272   0.988  0.3073  0.0174 -0.0479
 3074TIP3    H1 9186   4.341   6.325   1.042  0.1525  0.8300 -0.6572
 3074TIP3    H2 9187   4.331   6.192   0.971  0.8417  0.2648  0.2872
 3075TIP3   OH2 9188   4.318   1.624   2.583 -0.8473 -0.4146  0.0045
 3075TIP3    H1 9189   4.237   1.668   2.610 -0.5933 -0.5187  0.9755
 3075TIP3    H2 9190   4.344   1.669   2.503 -1.0457  0.6500  0.5204
 3076TIP3   OH2 9191   6.264   2.458   5.247  0.1449 -0.3542  0.2283
 3076TIP3    H1 9192   6.354   2.483   5.223  1.3013 -2.4054  2.1066
 3076TIP3    H2 9193   6.242   2.387   5.187 -0.7412  0.9183 -1.0114
 3077TIP3   OH2 9194   6.068   6.605   4.042  0.4764  0.2248 -0.0542
 3077TIP3    H1 9195   6.131   6.533   4.049  0.5752  0.4133  1.2202
 3077TIP3    H2 9196   6.081   6.656   4.122 -0.2779  1.1038 -0.4733
 3078TIP3   OH2 9197   1.744   5.497   0.349  0.3698 -0.4084  0.0712
 3078TIP3    H1 9198   1.662   5.448   0.350  0.9252 -1.3634  0.4050
 3078TIP3    H2 9199   1.740   5.548   0.268  0.2607 -1.8986 -0.9122
 3079TIP3   OH2 9200   1.963   0.448   5.539 -0.3757  0.1962 -0.7533
 3079TIP3    H1 9201   1.896   0.472   5.475  0.9717  2.6428 -1.3981
 3079TIP3    H2 9202   2.023   0.391   5.490 -0.8833 -0.3091 -0.7896
 3080TIP3   OH2 9203   3.283   4.104   4.200 -0.2195  0.0153 -0.1437
 3080TIP3    H1 9204   3.341   4.175   4.172  0.2873 -0.2494  0.2136
 3080TIP3    H2 9205   3.243   4.136   4.281  0.5705 -0.3807  0.4240
 3081TIP3   OH2 9206   4.060   5.081   2.028  0.4384  0.0300 -0.4558
 3081TIP3    H1 9207   3.986   5.021   2.028 -0.1521  0.6830  1.2774
 3081TIP3    H2 9208   4.128   5.037   1.976 -1.0734 -0.6571 -1.9377
 3082TIP3   OH2 9209   2.560   0.704   0.163  0.3394 -0.7081 -0.3801
 3082TIP3    H1 9210   2.647   0.732   0.190  0.3297  0.1040 -1.1570
 3082TIP3    H2 9211   2.541   0.628   0.218  0.8196  0.1487  1.0100
 3083TIP3   OH2 9212   7.225   2.670   2.161 -0.4620  0.0568  0.1825
 3083TIP3    H1 9213   7.168   2.708   2.228 -1.0128  1.0383 -0.7999
 3083TIP3    H2 9214   7.241   2.580   2.190 -1.4470  0.1776  1.1410
 3084TIP3   OH2 9215   3.001   1.719   0.578 -0.1010 -0.3615  0.3382
 3084TIP3    H1 9216   2.963   1.746   0.494  0.7274  1.7355  0.5877
 3084TIP3    H2 9217   3.036   1.799   0.616 -0.4592 -1.2706  2.7291
 3085TIP3   OH2 9218   3.441   3.337   3.626 -0.1835 -0.0920 -0.0822
 3085TIP3    H1 9219   3.373   3.393   3.665 -0.7776 -0.6821 -0.2491
 3085TIP3    H2 9220   3.457   3.269   3.691  1.1947  0.7682  0.5069
 3086TIP3   OH2 9221   3.043   0.517   2.836 -0.0262 -0.2364  0.1212
 3086TIP3    H1 9222   3.113   0.526   2.771 -0.7306 -0.0413 -0.6275
 3086TIP3    H2 9223   2.987   0.593   2.821 -1.9427 -1.7984 -1.2226
 3087TIP3   OH2 9224   7.146   0.494   0.208 -0.9369  0.0741  0.7087
 3087TIP3    H1 9225   7.194   0.425   0.162 -0.5555  0.0419  1.1365
 3087TIP3    H2 9226   7.171   0.482   0.300 -0.9713  0.6972  0.8030
 3088TIP3   OH2 9227   5.376   6.125   0.722  0.3631 -0.1002 -0.6027
 3088TIP3    H1 9228   5.296   6.128   0.670  0.5073 -0.7885 -0.8724
 3088TIP3    H2 9229   5.427   6.054   0.684  0.3630 -0.7866  0.6400
 3089TIP3   OH2 9230   1.962   5.465   2.480  0.1885  0.2234 -0.3393
 3089TIP3    H1 9231   2.036   5.508   2.435  0.2472  1.4849  0.8997
 3089TIP3    H2 9232   1.982   5.372   2.474  1.5297  0.4984 -0.6393
 3090TIP3   OH2 9233   5.706   3.073   0.719  0.2656 -0.0877 -0.3807
 3090TIP3    H1 9234   5.728   2.989   0.758  0.9459 -0.4231 -1.4377
 3090TIP3    H2 9235   5.782   3.129   0.737 -0.6259  0.6613  1.2494
 3091TIP3   OH2 9236   4.594   1.435   4.695 -0.6125 -0.9244  0.2186
 3091TIP3    H1 9237   4.627   1.345   4.696  1.7978 -0.1073 -0.5495
 3091TIP3    H2 9238   4.639   1.478   4.768 -2.0687 -0.3975  0.8562
 3092TIP3   OH2 9239   4.771   3.579   4.527 -0.0461 -0.1478  0.7396
 3092TIP3    H1 9240   4.694   3.572   4.583  0.8303 -1.0773  1.8758
 3092TIP3    H2 9241   4.826   3.505   4.551  0.3019 -0.7100 -1.4968
 3093TIP3   OH2 9242   0.559   5.810   1.956  0.2793  0.2584 -0.2684
 3093TIP3    H1 9243   0.610   5.779   1.882 -0.7151  1.1867 -1.3966
 3093TIP3    H2 9244   0.515   5.732   1.991 -1.6825  0.1971 -2.6326
 3094TIP3   OH2 9245   3.068   2.332   4.248 -0.0831 -0.1636  0.0370
 3094TIP3    H1 9246   3.002   2.275   4.288  0.1940 -0.5528 -0.0692
 3094TIP3    H2 9247   3.144   2.277   4.235  0.6356  0.5263  1.1022
 3095TIP3   OH2 9248   2.520   4.654   2.439 -0.3224  0.1667 -0.1028
 3095TIP3    H1 9249   2.480   4.575   2.403 -0.3923  0.4192 -0.5892
 3095TIP3    H2 9250   2.596   4.623   2.488 -0.6074 -0.2399  0.0895
 3096TIP3   OH2 9251   6.412   6.549   3.999  0.4671 -0.4566  0.0314
 3096TIP3    H1 9252   6.503   6.524   4.012 -0.1186 -2.3769  0.7525
 3096TIP3    H2 9253   6.398   6.620   4.061  1.1013 -1.1100  0.9473
 3097TIP3   OH2 9254   0.651   5.335   2.929 -0.3797 -0.1234 -0.0904
 3097TIP3    H1 9255   0.689   5.274   2.866 -0.6869 -0.8417  0.4007
 3097TIP3    H2 9256   0.604   5.279   2.991 -0.3938  0.5913  0.5633
 3098TIP3   OH2 9257   6.187   2.822   2.083  0.3653  0.1511  0.6790
 3098TIP3    H1 9258   6.162   2.866   2.001  0.2935  1.1583  1.2306
 3098TIP3    H2 9259   6.135   2.742   2.085  2.4224 -1.4246 -1.6863
 3099TIP3   OH2 9260   3.778   5.777   4.460 -0.5608  0.6071  0.0156
 3099TIP3    H1 9261   3.849   5.726   4.497 -2.6808 -1.0164  2.1570
 3099TIP3    H2 9262   3.718   5.712   4.423 -1.0498  1.9067 -1.6011
 3100TIP3   OH2 9263   3.632   0.913   0.556  0.0863 -0.1212 -0.4031
 3100TIP3    H1 9264   3.581   0.974   0.503 -1.2283  0.0688  0.9962
 3100TIP3    H2 9265   3.648   0.959   0.638 -0.5123 -1.4195  0.4974
 3101TIP3   OH2 9266   6.134   0.732   0.040  0.0843  0.2175 -0.2599
 3101TIP3    H1 9267   6.091   0.727  -0.045 -0.9655 -1.4145  0.3075
 3101TIP3    H2 9268   6.066   0.707   0.103  1.2043  0.0285  0.9197
 3102TIP3   OH2 9269   0.370   1.229   3.170  0.8044 -0.2766 -0.1382
 3102TIP3    H1 9270   0.433   1.281   3.220  0.8837  0.4006 -0.9258
 3102TIP3    H2 9271   0.289   1.234   3.221  0.9891  0.0886  0.1238
 3103TIP3   OH2 9272   4.616   2.742   1.454  0.6260  0.1210 -0.1095
 3103TIP3    H1 9273   4.547   2.708   1.397  0.4753 -1.7496  1.0853
 3103TIP3    H2 9274   4.575   2.817   1.498 -0.3695 -0.4477 -0.0325
 3104TIP3   OH2 9275   3.113   3.130   1.450  0.3868  0.2340 -0.2411
 3104TIP3    H1 9276   3.194   3.131   1.501  0.1296 -0.4444  0.1991
 3104TIP3    H2 9277   3.095   3.222   1.431  0.0895  0.5915  1.5732
 3105TIP3   OH2 9278   0.381   1.939   1.178 -0.1747  0.1588  0.0421
 3105TIP3    H1 9279   0.334   1.926   1.096 -0.4891 -0.3261  0.2961
 3105TIP3    H2 9280   0.429   1.857   1.191  0.3945  0.4804  0.0123
 3106TIP3   OH2 9281   1.281   5.436   4.815  0.2251 -0.6790 -0.1995
 3106TIP3    H1 9282   1.211   5.495   4.844 -0.6359 -1.2505 -1.0608
 3106TIP3    H2 9283   1.235   5.355   4.792  1.2217 -1.1848 -0.4293
 3107TIP3   OH2 9284   4.958   4.792   2.996 -0.2566 -0.2349 -0.3531
 3107TIP3    H1 9285   4.967   4.730   2.924 -0.6436 -0.1294 -0.4935
 3107TIP3    H2 9286   4.973   4.878   2.956 -0.4678 -0.1764 -0.3049
 3108TIP3   OH2 9287   3.338   3.107   2.776 -0.5805 -0.0139 -0.4269
 3108TIP3    H1 9288   3.295   3.188   2.749  1.5610  1.3278 -0.1352
 3108TIP3    H2 9289   3.335   3.051   2.699 -1.7682  0.4961 -0.7647
 3109TIP3   OH2 9290   1.431   1.128   4.789 -0.5100  0.4594  0.0655
 3109TIP3    H1 9291   1.416   1.122   4.883  0.0333  0.8662  0.1827
 3109TIP3    H2 9292   1.369   1.194   4.759 -0.7039  0.3079  0.1377
 3110TIP3   OH2 9293   4.317   1.017   5.118  0.5599 -0.3633  0.7207
 3110TIP3    H1 9294   4.405   1.054   5.107  0.3923  0.2384  1.3477
 3110TIP3    H2 9295   4.263   1.091   5.145 -0.0878 -0.7854  0.6085
 3111TIP3   OH2 9296   1.409   0.546   2.850 -0.2557 -0.1809  0.7277
 3111TIP3    H1 9297   1.416   0.641   2.864 -0.8461  0.0443 -0.4129
 3111TIP3    H2 9298   1.319   0.533   2.820  0.3410 -0.8595 -0.8658
 3112TIP3   OH2 9299   5.665   0.918   2.031 -0.1659  0.0809 -0.7831
 3112TIP3    H1 9300   5.576   0.945   2.055 -0.6385 -0.8253 -1.4734
 3112TIP3    H2 9301   5.722   0.969   2.089 -1.1603  0.1571  0.1487
 3113TIP3   OH2 9302   6.193   6.049   3.218  0.1568 -0.0456 -0.2464
 3113TIP3    H1 9303   6.146   6.012   3.293  1.8571 -0.7363  0.5479
 3113TIP3    H2 9304   6.168   5.994   3.144  0.7854 -1.3139  0.4470
 3114TIP3   OH2 9305   0.089   4.794   4.936  0.3418  0.4547 -0.5808
 3114TIP3    H1 9306   0.127   4.847   5.007  1.0284  0.4904 -0.9697
 3114TIP3    H2 9307   0.077   4.707   4.975  0.2100  0.6145 -0.2610
 3115TIP3   OH2 9308   0.985   0.996   2.186  0.0741  0.0635 -0.7363
 3115TIP3    H1 9309   0.932   1.075   2.199  1.2974  0.8984 -0.6457
 3115TIP3    H2 9310   1.074   1.029   2.176  0.5731 -1.3039 -0.9596
 3116TIP3   OH2 9311   4.940   1.945   1.201  0.0330  0.1919 -0.3697
 3116TIP3    H1 9312   4.851   1.912   1.187 -0.3980  0.8166  0.7014
 3116TIP3    H2 9313   4.944   2.025   1.149 -0.4491  0.7847  0.4789
 3117TIP3   OH2 9314   0.650   0.700   2.738  0.1676  0.2213 -0.4258
 3117TIP3    H1 9315   0.635   0.784   2.696 -1.2188  0.5639  0.6922
 3117TIP3    H2 9316   0.664   0.721   2.830  2.3133 -0.5843 -0.5127
 3118TIP3   OH2 9317   3.247   0.755   5.060  0.4958 -0.8560 -0.4542
 3118TIP3    H1 9318   3.202   0.671   5.062  1.5550 -1.4580 -1.1163
 3118TIP3    H2 9319   3.282   0.762   4.971 -0.0972  0.5799 -0.6049
 3119TIP3   OH2 9320   3.279   5.507   1.527  0.5656  0.0229  0.3101
 3119TIP3    H1 9321   3.292   5.597   1.497  0.1610 -0.1461 -0.4075
 3119TIP3    H2 9322   3.246   5.515   1.616  3.7081  0.5167  1.5408
 3120TIP3   OH2 9323   6.669   3.306   4.174 -0.8538 -0.0083  0.5401
 3120TIP3    H1 9324   6.754   3.345   4.193 -1.5802  1.8096  0.2795
 3120TIP3    H2 9325   6.685   3.211   4.173  1.6469  0.3313 -1.8896
 3121TIP3   OH2 9326   5.208   1.671   5.065  0.1175  0.3885  0.3559
 3121TIP3    H1 9327   5.118   1.686   5.035  0.1653 -0.7497 -0.4347
 3121TIP3    H2 9328   5.234   1.589   5.022  1.6687  0.8892  0.2717
 3122TIP3   OH2 9329   0.436   0.126   4.099 -0.1447 -0.0590  0.2412
 3122TIP3    H1 9330   0.388   0.192   4.050 -1.2183 -0.9640  0.0503
 3122TIP3    H2 9331   0.483   0.075   4.033  0.4807  0.3413  0.3684
 3123TIP3   OH2 9332   4.225   1.296   3.356 -0.1411 -0.1710  0.2603
 3123TIP3    H1 9333   4.140   1.312   3.396 -0.2180  2.0788 -0.6633
 3123TIP3    H2 9334   4.206   1.235   3.284 -1.4581  1.9848 -1.3539
 3124TIP3   OH2 9335   5.879   0.289   2.985  0.2749 -0.4673 -0.7099
 3124TIP3    H1 9336   5.842   0.219   3.040  0.9860 -0.0981  0.2497
 3124TIP3    H2 9337   5.830   0.367   3.009  0.7039 -0.2688 -0.4838
 3125TIP3   OH2 9338   3.036   2.728   2.170  0.2987  0.5192 -0.3814
 3125TIP3    H1 9339   2.980   2.711   2.095 -0.2963 -0.6122  0.2795
 3125TIP3    H2 9340   2.978   2.768   2.235  0.3131 -0.3277  0.1772
 3126TIP3   OH2 9341   0.885   1.587   1.797 -0.0856 -0.2773 -0.1371
 3126TIP3    H1 9342   0.947   1.563   1.728  0.2842  1.3104 -0.3987
 3126TIP3    H2 9343   0.893   1.516   1.862  1.0783 -0.7499 -0.7552
 3127TIP3   OH2 9344   3.789   6.432   1.633 -0.4954 -0.4134  0.2187
 3127TIP3    H1 9345   3.862   6.434   1.571 -1.3207  0.5720 -0.7817
 3127TIP3    H2 9346   3.805   6.356   1.687  0.4220 -1.1574 -1.0393
 3128TIP3   OH2 9347   0.525   1.416   3.347 -0.2622 -0.0747  0.1913
 3128TIP3    H1 9348   0.493   1.482   3.286 -1.2174 -0.6161  0.0806
 3128TIP3    H2 9349   0.551   1.465   3.425 -0.5899  0.4692 -0.0366
 3129TIP3   OH2 9350   1.578   3.880   1.295  0.1550  0.0279  0.2926
 3129TIP3    H1 9351   1.575   3.794   1.336 -0.1690 -1.3503 -2.3532
 3129TIP3    H2 9352   1.486   3.903   1.281  0.2238 -0.5754 -1.4830
 3130TIP3   OH2 9353   4.086   0.553   0.562 -0.0432 -0.4462  0.4068
 3130TIP3    H1 9354   4.018   0.620   0.571  0.0109 -0.3252 -0.0456
 3130TIP3    H2 9355   4.051   0.493   0.496  0.3817 -0.2669  0.0158
 3131TIP3   OH2 9356   4.254   4.144   4.290  0.0629  0.0609 -0.2179
 3131TIP3    H1 9357   4.321   4.118   4.353  0.0875  1.9967  0.6361
 3131TIP3    H2 9358   4.221   4.062   4.254  3.7542 -0.9623 -1.6614
 3132TIP3   OH2 9359   2.692   1.141   0.163  0.4841  0.2968  0.4680
 3132TIP3    H1 9360   2.675   1.058   0.207  0.3673  0.6262  1.0570
 3132TIP3    H2 9361   2.781   1.132   0.129  0.0940 -0.4648 -0.4045
 3133TIP3   OH2 9362   2.766   5.281   2.500 -0.3597  0.4533  0.2857
 3133TIP3    H1 9363   2.762   5.232   2.418  0.4538  1.3943 -0.3352
 3133TIP3    H2 9364   2.721   5.363   2.481  0.2622  0.8816  0.6244
 3134TIP3   OH2 9365   4.892   4.542   0.423 -0.5211  0.3889 -0.6974
 3134TIP3    H1 9366   4.903   4.614   0.361 -1.3547 -0.0313 -1.3571
 3134TIP3    H2 9367   4.811   4.563   0.470 -0.9978 -0.3272 -1.1934
 3135TIP3   OH2 9368   4.555   1.215   1.844 -0.0418 -0.4320 -0.1423
 3135TIP3    H1 9369   4.549   1.226   1.749 -1.1255 -1.3368 -0.2035
 3135TIP3    H2 9370   4.578   1.123   1.856 -0.1519 -0.3824  0.4703
 3136TIP3   OH2 9371   2.584   1.908   1.623 -0.5403 -0.1425  0.2218
 3136TIP3    H1 9372   2.500   1.954   1.632 -0.6983 -0.4597  0.3956
 3136TIP3    H2 9373   2.621   1.942   1.542 -1.6842 -1.3393 -0.8449
 3137TIP3   OH2 9374   7.185   2.505   0.907 -0.0784 -0.2057 -0.5498
 3137TIP3    H1 9375   7.181   2.558   0.987  0.3438 -0.3167 -0.4554
 3137TIP3    H2 9376   7.097   2.512   0.870  0.6319  2.7379 -1.9679
 3138TIP3   OH2 9377   4.437   3.671   5.795  0.4173 -0.1602  0.2206
 3138TIP3    H1 9378   4.512   3.617   5.821 -0.2144 -2.0204 -1.5301
 3138TIP3    H2 9379   4.364   3.637   5.847  0.5955  1.2238  1.4536
 3139TIP3   OH2 9380   1.200   0.521   0.677 -0.1370  1.1662 -0.3098
 3139TIP3    H1 9381   1.171   0.612   0.683  0.2820  1.3248 -0.6256
 3139TIP3    H2 9382   1.176   0.483   0.761 -1.6380  1.1623 -0.7091
 3140TIP3   OH2 9383   0.816   4.232   5.140  0.0044 -0.5061 -0.0709
 3140TIP3    H1 9384   0.723   4.207   5.143 -0.3797  0.8844  0.1909
 3140TIP3    H2 9385   0.818   4.320   5.176  1.4397 -0.5155 -0.1003
 3141TIP3   OH2 9386   1.406   0.363   3.796  0.2075 -0.2059  0.0553
 3141TIP3    H1 9387   1.378   0.453   3.814  0.9893  0.2321 -0.8536
 3141TIP3    H2 9388   1.330   0.310   3.819 -0.4477  0.7330  0.1192
 3142TIP3   OH2 9389   5.375   1.592   2.728 -0.0495  0.1751 -0.2478
 3142TIP3    H1 9390   5.319   1.514   2.728  0.6651 -0.3733  1.0185
 3142TIP3    H2 9391   5.391   1.609   2.635  0.5906 -1.8313 -0.5649
 3143TIP3   OH2 9392   6.615   2.338   0.473 -0.6282 -0.2554 -0.5789
 3143TIP3    H1 9393   6.700   2.305   0.443  0.0350 -0.1777  1.1377
 3143TIP3    H2 9394   6.587   2.276   0.540  0.7575  2.5947  2.9224
 3144TIP3   OH2 9395   5.647   5.961   4.523 -0.3216  0.6036 -0.2590
 3144TIP3    H1 9396   5.569   6.010   4.499  0.0835  1.8721  0.8670
 3144TIP3    H2 9397   5.629   5.930   4.612  0.0646  0.0696 -0.3615
 3145TIP3   OH2 9398   3.091   3.330   0.293  0.3740  0.5131 -0.4991
 3145TIP3    H1 9399   3.073   3.316   0.200 -0.3216 -1.0170 -0.1829
 3145TIP3    H2 9400   3.162   3.394   0.295  0.8001  0.1399 -2.0984
 3146TIP3   OH2 9401   6.796   4.156   3.099 -0.5100  0.0939  0.1283
 3146TIP3    H1 9402   6.817   4.217   3.028  0.9923 -1.5470 -0.9035
 3146TIP3    H2 9403   6.782   4.213   3.175  1.2598  1.7281 -0.6712
 3147TIP3   OH2 9404   5.273   4.312   2.601 -0.0778  0.5006 -0.1166
 3147TIP3    H1 9405   5.182   4.332   2.579 -0.3044 -1.4326 -1.1191
 3147TIP3    H2 9406   5.306   4.392   2.643 -2.2151  1.2419  0.2556
 3148TIP3   OH2 9407   3.681   1.803   3.928 -0.1141 -0.2869 -0.4462
 3148TIP3    H1 9408   3.607   1.854   3.962 -0.7907 -1.3030 -0.3220
 3148TIP3    H2 9409   3.708   1.849   3.849 -1.0206 -0.0014 -0.6042
 3149TIP3   OH2 9410   0.134   5.808   4.605 -0.4007 -0.2063  0.6462
 3149TIP3    H1 9411   0.115   5.891   4.560  1.5729  0.4529  0.9344
 3149TIP3    H2 9412   0.091   5.742   4.551  0.7321  0.6943 -1.5206
 3150TIP3   OH2 9413   3.966   1.003   0.555 -0.1603  0.5057  0.3910
 3150TIP3    H1 9414   3.904   1.015   0.483  0.4265 -0.2689 -0.2644
 3150TIP3    H2 9415   3.913   1.012   0.634 -1.5318 -1.9044 -0.1402
 3151TIP3   OH2 9416   1.624   4.229   4.800 -0.4234 -0.2831  0.2993
 3151TIP3    H1 9417   1.593   4.297   4.740  0.1187  0.0403  0.3698
 3151TIP3    H2 9418   1.559   4.227   4.870  0.4961  1.5395  1.2958
 3152TIP3   OH2 9419   1.077   1.688   0.728 -0.1698 -0.5503  0.1212
 3152TIP3    H1 9420   1.155   1.643   0.759 -0.4004 -0.7766  0.3888
 3152TIP3    H2 9421   1.054   1.644   0.646  0.0040 -0.4595  0.0247
 3153TIP3   OH2 9422   1.110   5.402   2.941 -0.4745 -0.0739  0.0019
 3153TIP3    H1 9423   1.115   5.469   2.873 -1.4946 -0.3362 -0.3486
 3153TIP3    H2 9424   1.196   5.403   2.982 -0.8426  2.4013  0.9170
 3154TIP3   OH2 9425   5.676   5.212   2.833  0.0310  0.9573  0.3624
 3154TIP3    H1 9426   5.623   5.145   2.878  1.7428 -2.1055 -1.8345
 3154TIP3    H2 9427   5.708   5.168   2.754  2.2950  4.0608 -0.6164
 3155TIP3   OH2 9428   0.686   5.709   0.470  0.2223  0.4850 -0.4065
 3155TIP3    H1 9429   0.641   5.773   0.524  0.0083 -0.9260  1.1514
 3155TIP3    H2 9430   0.778   5.736   0.473  0.0285  1.1923 -0.4979
 3156TIP3   OH2 9431   3.892   5.517   2.507 -0.3791  0.3859 -0.7448
 3156TIP3    H1 9432   3.845   5.584   2.556 -0.1316  0.4811 -0.6335
 3156TIP3    H2 9433   3.828   5.480   2.447 -0.0264  2.0556 -2.2041
 3157TIP3   OH2 9434   0.291   2.742   1.818 -0.1179 -0.1432 -0.5071
 3157TIP3    H1 9435   0.255   2.723   1.732  0.5761  1.7000 -1.2620
 3157TIP3    H2 9436   0.216   2.737   1.878 -1.0458  0.7034 -1.5698
 3158TIP3   OH2 9437   4.042   1.939   4.895  0.1688 -0.0441  0.6270
 3158TIP3    H1 9438   4.082   1.980   4.971 -1.0705  0.5391  0.9799
 3158TIP3    H2 9439   4.111   1.940   4.829  0.7248  0.9973  1.1969
 3159TIP3   OH2 9440   0.021   3.215   4.096 -0.0833  0.3961 -0.0126
 3159TIP3    H1 9441   0.100   3.216   4.150  2.1679 -0.9596 -2.9880
 3159TIP3    H2 9442   0.024   3.297   4.047  1.1812 -0.8520 -2.1903
 3160TIP3   OH2 9443   5.488   4.586   2.023 -0.8751  0.7784 -0.1016
 3160TIP3    H1 9444   5.433   4.650   1.978 -1.3344 -0.4247 -1.3030
 3160TIP3    H2 9445   5.514   4.524   1.955  0.8109  0.5205  0.7383
 3161TIP3   OH2 9446   5.190   6.238   4.616 -0.0057  0.2647 -0.3553
 3161TIP3    H1 9447   5.169   6.169   4.679 -0.5635 -0.4685 -1.3121
 3161TIP3    H2 9448   5.136   6.312   4.641  0.2046  0.1761  0.3695
 3162TIP3   OH2 9449   2.919   3.447   2.566  0.3033 -0.0260  0.1677
 3162TIP3    H1 9450   3.011   3.427   2.585  0.0737 -0.7669  0.5076
 3162TIP3    H2 9451   2.874   3.437   2.650 -0.0617  0.5411  0.0477
 3163TIP3   OH2 9452   1.142   3.720   3.825 -0.0712  0.4070  0.3364
 3163TIP3    H1 9453   1.154   3.680   3.911  0.8710  1.4658  0.7168
 3163TIP3    H2 9454   1.128   3.813   3.843  0.2560  0.6656 -0.6606
 3164TIP3   OH2 9455   3.518   6.569   4.509 -0.4880 -0.2652 -0.0986
 3164TIP3    H1 9456   3.561   6.615   4.581  0.4422  0.4727 -1.0941
 3164TIP3    H2 9457   3.511   6.478   4.539  1.2908 -0.2926  0.3215
 3165TIP3   OH2 9458   4.914   2.109   4.289 -0.1784 -1.0454 -0.2465
 3165TIP3    H1 9459   4.984   2.046   4.305 -1.1739 -1.8534  1.1956
 3165TIP3    H2 9460   4.834   2.056   4.289 -0.8879 -0.0139 -0.8455
 3166TIP3   OH2 9461   4.897   2.916   2.186  0.0423 -0.6011 -0.0619
 3166TIP3    H1 9462   4.977   2.865   2.184 -0.7824 -1.9929  0.8449
 3166TIP3    H2 9463   4.828   2.852   2.202 -1.1537  0.6616  0.0123
 3167TIP3   OH2 9464   2.948   2.168   2.258  0.3377 -0.1887  0.0687
 3167TIP3    H1 9465   2.990   2.168   2.344 -2.5854 -1.0653  1.6149
 3167TIP3    H2 9466   2.980   2.089   2.215 -0.0551 -1.0890  1.3904
 3168TIP3   OH2 9467   2.862   5.066   4.800  0.0915  0.9000 -0.1298
 3168TIP3    H1 9468   2.879   5.073   4.706 -0.2948  0.2495 -0.2534
 3168TIP3    H2 9469   2.859   4.972   4.817 -1.0875  0.9990  0.2991
 3169TIP3   OH2 9470   1.877   0.466   1.478  0.2807  0.3444  0.5645
 3169TIP3    H1 9471   1.914   0.421   1.554  1.8500  0.4707 -0.0965
 3169TIP3    H2 9472   1.868   0.398   1.411  0.7521  0.6089  0.2279
 3170TIP3   OH2 9473   0.975   0.075   1.935 -0.2667 -0.2450 -0.7903
 3170TIP3    H1 9474   1.053   0.057   1.883  0.4300  0.7626 -0.1212
 3170TIP3    H2 9475   0.932   0.148   1.890  1.4920  2.1394  1.1133
 3171TIP3   OH2 9476   5.190   4.186   5.216 -0.3708 -1.0360  0.1172
 3171TIP3    H1 9477   5.242   4.166   5.294 -0.7306 -0.1010  0.6201
 3171TIP3    H2 9478   5.136   4.108   5.203  0.5711 -1.6935  0.0605
 3172TIP3   OH2 9479   2.445   5.653   3.988  0.8921 -0.1398  0.3838
 3172TIP3    H1 9480   2.517   5.638   3.927  0.0864  0.5668 -0.8045
 3172TIP3    H2 9481   2.366   5.632   3.937  0.2596 -1.5918  1.8686
 3173TIP3   OH2 9482   0.035   6.172   3.827 -0.3653  0.1201  0.0737
 3173TIP3    H1 9483   0.073   6.088   3.851 -1.2122 -0.1810  0.4133
 3173TIP3    H2 9484   0.067   6.189   3.738  2.1148  0.8229  1.0077
 3174TIP3   OH2 9485   5.122   2.470   2.209  0.0193 -0.0772  0.2112
 3174TIP3    H1 9486   5.131   2.481   2.304 -0.1049 -0.4102  0.2611
 3174TIP3    H2 9487   5.126   2.559   2.175  0.2026  0.0352  0.5184
 3175TIP3   OH2 9488   3.166   5.593   3.494 -0.3448 -0.0519  0.3085
 3175TIP3    H1 9489   3.105   5.623   3.561 -0.6853  0.4187 -0.2051
 3175TIP3    H2 9490   3.110   5.564   3.422 -0.0596  4.0333 -1.8128
 3176TIP3   OH2 9491   4.681   5.986   1.363 -0.8280  0.0193  0.2126
 3176TIP3    H1 9492   4.750   5.994   1.297 -1.3267  0.9759 -0.2034
 3176TIP3    H2 9493   4.599   5.995   1.313 -1.2642 -1.0603  0.7041
 3177TIP3   OH2 9494   1.089   3.619   4.302 -0.2448  0.0555  0.3140
 3177TIP3    H1 9495   1.135   3.589   4.380  0.2433  0.0737  0.0345
 3177TIP3    H2 9496   0.997   3.625   4.329 -0.5385 -2.5120  0.1696
 3178TIP3   OH2 9497   1.650   4.807   0.243 -0.5207  0.0881  0.1128
 3178TIP3    H1 9498   1.635   4.759   0.324 -0.0098 -0.1925  0.0438
 3178TIP3    H2 9499   1.671   4.739   0.179 -0.7024  0.3274 -0.2035
 3179TIP3   OH2 9500   7.012   5.659   5.612  0.0339  0.2466 -0.4319
 3179TIP3    H1 9501   6.967   5.742   5.629 -0.7563 -0.3020  0.2327
 3179TIP3    H2 9502   7.099   5.671   5.649  0.1754  1.0314 -0.9941
 3180TIP3   OH2 9503   5.950   3.769   0.413 -0.3690  0.2097 -0.2601
 3180TIP3    H1 9504   5.882   3.705   0.390 -0.4517  0.1864  0.0454
 3180TIP3    H2 9505   5.911   3.822   0.482 -0.1465  0.3208 -0.2180
 3181TIP3   OH2 9506   2.503   2.956   5.503 -0.0647  0.3698 -0.4983
 3181TIP3    H1 9507   2.414   2.984   5.521  1.0268  4.2203 -0.3118
 3181TIP3    H2 9508   2.534   2.921   5.587 -0.9117  0.3823 -0.1709
 3182TIP3   OH2 9509   0.632   0.254   3.539 -0.6166  0.4843 -0.2737
 3182TIP3    H1 9510   0.632   0.301   3.455  0.6011  0.1176 -0.5010
 3182TIP3    H2 9511   0.710   0.198   3.535 -2.3100 -2.0361 -0.2697
 3183TIP3   OH2 9512   4.098   3.637   4.616 -0.1283  0.0354  0.2330
 3183TIP3    H1 9513   4.067   3.711   4.564  0.4646  0.3078  0.2588
 3183TIP3    H2 9514   4.072   3.559   4.565  2.4066  0.2953 -1.7017
 3184TIP3   OH2 9515   3.281   1.826   2.348  0.0706 -0.0980 -0.7228
 3184TIP3    H1 9516   3.308   1.740   2.380  1.1128 -0.5457 -2.6679
 3184TIP3    H2 9517   3.185   1.826   2.357  0.2296  0.8910  4.7571
 3185TIP3   OH2 9518   6.792   3.089   2.803  0.7482 -0.2742 -0.1027
 3185TIP3    H1 9519   6.808   3.151   2.732  0.5501 -1.0827 -0.8639
 3185TIP3    H2 9520   6.851   3.118   2.873  1.4582  0.1274 -0.8414
 3186TIP3   OH2 9521   3.659   3.194   2.167  0.5990 -0.0213  0.2519
 3186TIP3    H1 9522   3.608   3.114   2.159  1.0161 -0.4519  1.6528
 3186TIP3    H2 9523   3.715   3.194   2.090 -0.2906 -0.4139 -0.4172
 3187TIP3   OH2 9524   6.502   0.248   0.943  0.2080  0.4473  0.4925
 3187TIP3    H1 9525   6.453   0.207   1.014  0.6565  0.0218  0.5608
 3187TIP3    H2 9526   6.586   0.271   0.982  0.9662 -0.9826 -0.2162
 3188TIP3   OH2 9527   6.193   2.343   2.396  0.2463  0.5770  0.0920
 3188TIP3    H1 9528   6.173   2.436   2.400  1.8698  0.9186  1.5233
 3188TIP3    H2 9529   6.164   2.308   2.481  0.3908 -0.0517 -0.1092
 3189TIP3   OH2 9530   2.248   3.904   2.986  0.5604 -0.4584  0.6631
 3189TIP3    H1 9531   2.225   3.904   2.894  1.3479 -2.6894  0.3995
 3189TIP3    H2 9532   2.340   3.928   2.988  0.9218 -1.7387  0.6873
 3190TIP3   OH2 9533   5.126   4.564   2.213 -0.6588  0.8694 -0.0346
 3190TIP3    H1 9534   5.055   4.499   2.210  0.2855 -0.1578 -1.2896
 3190TIP3    H2 9535   5.095   4.636   2.157 -1.9831  1.8583  1.8664
 3191TIP3   OH2 9536   1.152   5.123   3.740 -0.3410 -0.6270  0.5572
 3191TIP3    H1 9537   1.221   5.128   3.806 -0.1105  1.0745  0.2391
 3191TIP3    H2 9538   1.147   5.030   3.717  2.5382 -0.7055 -0.1275
 3192TIP3   OH2 9539   6.732   3.652   5.566  0.0709  0.7008  0.7021
 3192TIP3    H1 9540   6.690   3.590   5.506  1.7267 -0.2663  0.4806
 3192TIP3    H2 9541   6.664   3.718   5.584 -0.7890  0.5043 -1.4721
 3193TIP3   OH2 9542   4.685   5.445   3.618  0.1849 -0.5674 -0.8104
 3193TIP3    H1 9543   4.617   5.508   3.592  0.8884  0.5329 -0.0506
 3193TIP3    H2 9544   4.716   5.477   3.703  0.4198 -2.0741 -0.3004
 3194TIP3   OH2 9545   0.074   5.727   3.350 -0.1093 -0.4364 -0.4087
 3194TIP3    H1 9546   0.074   5.760   3.260 -1.4866 -0.1360 -0.3221
 3194TIP3    H2 9547   0.013   5.654   3.349 -1.8223  0.8942  0.6956
 3195TIP3   OH2 9548   4.512   4.888   4.739 -0.7121  0.4605  0.4616
 3195TIP3    H1 9549   4.519   4.800   4.702 -1.7068  0.9487 -0.9872
 3195TIP3    H2 9550   4.593   4.899   4.790 -0.1725 -0.9623 -0.0264
 3196TIP3   OH2 9551   5.193   0.880   2.038 -0.1603 -0.0490 -0.2386
 3196TIP3    H1 9552   5.129   0.923   1.982 -0.5756 -1.7625 -1.1422
 3196TIP3    H2 9553   5.199   0.791   2.004  2.3694 -0.0732  0.1254
 3197TIP3   OH2 9554   6.042   5.622   3.639 -0.0228 -0.1153  0.2423
 3197TIP3    H1 9555   6.066   5.575   3.559 -2.1445  0.2434 -0.7034
 3197TIP3    H2 9556   6.071   5.566   3.710  0.2563 -1.3810 -0.8181
 3198TIP3   OH2 9557   5.390   0.727   1.070  0.1103 -0.1052  0.0131
 3198TIP3    H1 9558   5.382   0.818   1.041  1.1197 -0.6321 -2.1534
 3198TIP3    H2 9559   5.483   0.716   1.090 -0.2236 -0.3444  1.5075
 3199TIP3   OH2 9560   1.015   1.374   3.657  0.0095  0.0508 -0.1441
 3199TIP3    H1 9561   0.991   1.421   3.577 -0.7790 -0.4503 -0.2087
 3199TIP3    H2 9562   1.053   1.292   3.626 -1.0496 -0.5101 -0.0149
 3200TIP3   OH2 9563   3.529   2.849   3.795  0.0548 -0.4362  0.6426
 3200TIP3    H1 9564   3.586   2.772   3.804 -1.5456 -1.6946  0.5687
 3200TIP3    H2 9565   3.472   2.845   3.871 -1.7185 -0.8165 -0.6402
 3201TIP3   OH2 9566   4.589   4.998   0.852  0.1410 -0.0877 -0.2002
 3201TIP3    H1 9567   4.669   4.969   0.895  1.1549  1.7023 -0.7651
 3201TIP3    H2 9568   4.611   5.084   0.817 -1.9738  0.3409 -0.5894
 3202TIP3   OH2 9569   3.226   0.270   5.244 -0.7367 -0.5469  0.0534
 3202TIP3    H1 9570   3.171   0.230   5.312 -0.2077 -0.7134  0.3929
 3202TIP3    H2 9571   3.293   0.204   5.226 -0.9866 -0.5763 -0.7755
 3203TIP3   OH2 9572   0.710   1.730   1.576 -0.0466 -0.0450  0.3440
 3203TIP3    H1 9573   0.788   1.785   1.573  0.5635 -0.7814  1.6768
 3203TIP3    H2 9574   0.742   1.643   1.552 -0.8773  0.0290 -1.1260
 3204TIP3   OH2 9575   6.396   0.287   2.201 -0.2845  0.2807 -0.0732
 3204TIP3    H1 9576   6.368   0.286   2.110 -2.7514 -0.9199  0.6110
 3204TIP3    H2 9577   6.412   0.379   2.221 -0.1192  0.5898 -1.5694
 3205TIP3   OH2 9578   2.520   3.538   5.334 -0.5073 -0.1790  0.6339
 3205TIP3    H1 9579   2.477   3.623   5.348  1.1530  0.4852  2.0366
 3205TIP3    H2 9580   2.590   3.557   5.271 -1.5579 -1.0439 -0.8610
 3206TIP3   OH2 9581   0.542   6.604   0.175 -0.3008  0.0391  0.0626
 3206TIP3    H1 9582   0.523   6.659   0.251 -3.8931 -1.8708  0.7548
 3206TIP3    H2 9583   0.637   6.591   0.179  0.0146  2.1292  2.6770
 3207TIP3   OH2 9584   4.577   4.354   0.556  0.0707  0.0758  0.4784
 3207TIP3    H1 9585   4.516   4.353   0.483 -1.0392  0.8029  1.3638
 3207TIP3    H2 9586   4.596   4.262   0.574 -0.4719 -0.1401 -0.0426
 3208TIP3   OH2 9587   2.511   3.146   2.385 -0.1096  0.0043 -0.9420
 3208TIP3    H1 9588   2.496   3.085   2.457 -0.4521  1.0748 -0.0949
 3208TIP3    H2 9589   2.423   3.178   2.361  0.0040 -0.2847 -1.7953
 3209TIP3   OH2 9590   4.866   0.031   2.778  0.5603 -0.2344 -0.1755
 3209TIP3    H1 9591   4.898   0.049   2.867 -0.7207  1.4289  0.0026
 3209TIP3    H2 9592   4.864   0.117   2.736  0.1700 -0.8621 -1.5018
 3210TIP3   OH2 9593   0.301   6.670   5.443 -0.5736 -0.1508  0.2850
 3210TIP3    H1 9594   0.258   6.754   5.429  0.6019  0.5821  0.9782
 3210TIP3    H2 9595   0.243   6.606   5.400 -3.2972  0.5458  2.5855
 3211TIP3   OH2 9596   4.627   1.432   0.985 -0.6252  0.3227 -0.1830
 3211TIP3    H1 9597   4.640   1.337   0.989  3.3184  0.6963  2.7424
 3211TIP3    H2 9598   4.594   1.455   1.072 -3.5129  1.5562 -1.4995
 3212TIP3   OH2 9599   6.911   3.097   4.955 -0.2991 -0.0199  0.6242
 3212TIP3    H1 9600   6.863   3.125   4.877  0.1479  0.8217  0.6485
 3212TIP3    H2 9601   7.002   3.090   4.927 -0.1465  0.2073  1.0500
 3213TIP3   OH2 9602   4.590   1.388   1.285  0.5588 -0.2570  0.3753
 3213TIP3    H1 9603   4.679   1.365   1.258  0.2390 -0.1429 -0.8326
 3213TIP3    H2 9604   4.603   1.447   1.359  1.4692 -0.8637  0.7167
 3214TIP3   OH2 9605   6.399   1.180   0.377  0.4718  0.1036 -0.3728
 3214TIP3    H1 9606   6.318   1.202   0.330  0.6755  0.3339 -0.6187
 3214TIP3    H2 9607   6.406   1.085   0.370  1.3338  0.2587 -2.2094
 3215TIP3   OH2 9608   2.689   4.754   2.093  0.0926 -0.0487 -0.5083
 3215TIP3    H1 9609   2.601   4.759   2.130  0.6717 -0.6942  1.0537
 3215TIP3    H2 9610   2.721   4.844   2.094 -0.0463 -0.0005  0.2472
 3216TIP3   OH2 9611   3.409   3.960   1.709  0.5199 -0.3956  0.0558
 3216TIP3    H1 9612   3.431   4.048   1.678 -0.5902  0.0537  0.5105
 3216TIP3    H2 9613   3.407   3.968   1.804  1.2058 -1.1208  0.1453
 3217TIP3   OH2 9614   0.894   0.571   1.889  0.2174 -0.1117 -0.3120
 3217TIP3    H1 9615   0.918   0.625   1.964  3.1919  0.4459 -1.5415
 3217TIP3    H2 9616   0.878   0.633   1.818  0.2962 -0.7283 -0.8791
 3218TIP3   OH2 9617   6.235   3.379   0.685 -0.0515  0.3168  0.1055
 3218TIP3    H1 9618   6.255   3.469   0.661 -1.6609  0.6684 -0.0286
 3218TIP3    H2 9619   6.160   3.355   0.630  0.1824 -1.0158  0.3265
 3219TIP3   OH2 9620   5.709   3.731   0.644 -0.6851 -0.2575  0.5930
 3219TIP3    H1 9621   5.658   3.751   0.723 -1.6289 -0.2433 -0.0068
 3219TIP3    H2 9622   5.701   3.636   0.634  0.8881 -0.5204  1.4725
 3220TIP3   OH2 9623   0.547   2.385   0.421 -0.1442  0.2782 -0.0703
 3220TIP3    H1 9624   0.560   2.353   0.510 -3.8025 -1.3558  0.0696
 3220TIP3    H2 9625   0.571   2.310   0.365 -2.9771 -0.8083 -0.0343
 3221TIP3   OH2 9626   7.079   6.562   1.723 -0.1215 -0.4002  0.1819
 3221TIP3    H1 9627   7.144   6.616   1.767  1.1287 -0.7270 -1.1698
 3221TIP3    H2 9628   7.086   6.476   1.765 -0.4975 -0.1214  0.8123
 3222TIP3   OH2 9629   1.971   4.096   1.815 -0.0277 -0.2762  0.1510
 3222TIP3    H1 9630   1.887   4.051   1.810  0.0296 -0.3102 -0.7235
 3222TIP3    H2 9631   2.034   4.034   1.777  0.4175 -0.3054  0.9190
 3223TIP3   OH2 9632   5.986   1.361   3.660 -0.6204 -0.2571 -0.6645
 3223TIP3    H1 9633   5.952   1.301   3.594 -1.9507 -0.6451  0.3099
 3223TIP3    H2 9634   5.907   1.392   3.706  0.3121 -0.9543  1.5162
 3224TIP3   OH2 9635   4.799   2.642   0.863 -0.4469  0.1320  0.1752
 3224TIP3    H1 9636   4.808   2.660   0.769  0.5531 -1.3319 -0.0457
 3224TIP3    H2 9637   4.821   2.725   0.905  3.3059 -0.1725 -0.7949
 3225TIP3   OH2 9638   4.584   0.608   0.387  0.5483  0.3441 -0.1583
 3225TIP3    H1 9639   4.593   0.625   0.481  0.3302 -4.3044  0.9579
 3225TIP3    H2 9640   4.492   0.585   0.375  0.5231  1.0530 -1.6141
 3226TIP3   OH2 9641   0.394   2.939   5.563  0.7656  0.8664  0.1178
 3226TIP3    H1 9642   0.402   2.960   5.656  0.7003 -0.8178  0.5387
 3226TIP3    H2 9643   0.311   2.978   5.536  1.3359  2.3578  0.4583
 3227TIP3   OH2 9644   4.563   4.391   4.621 -0.1669  0.5564 -0.1818
 3227TIP3    H1 9645   4.479   4.383   4.667 -1.0018 -0.2013 -1.7714
 3227TIP3    H2 9646   4.543   4.368   4.530  1.3482  2.3393 -1.0332
 3228TIP3   OH2 9647   3.114   0.272   4.590  0.3795  0.6098  0.2134
 3228TIP3    H1 9648   3.082   0.182   4.599  1.7584  0.1547  0.9779
 3228TIP3    H2 9649   3.197   0.263   4.542  0.7782  1.3991  0.7243
 3229TIP3   OH2 9650   2.185   4.286   3.866 -0.2613 -0.2996  0.2631
 3229TIP3    H1 9651   2.263   4.243   3.900  1.0150  2.4419  1.0523
 3229TIP3    H2 9652   2.216   4.367   3.826 -2.6775  1.0588  0.8910
 3230TIP3   OH2 9653   1.670   3.775   3.243 -0.9505  0.3610 -0.4899
 3230TIP3    H1 9654   1.724   3.696   3.253 -1.7057 -0.0043  0.9813
 3230TIP3    H2 9655   1.580   3.742   3.245 -1.3522  1.4005  2.1333
 3231TIP3   OH2 9656   0.761   2.742   2.609 -0.1910  0.2180 -0.0860
 3231TIP3    H1 9657   0.725   2.733   2.521 -1.5223  0.1622  0.4294
 3231TIP3    H2 9658   0.741   2.658   2.652  0.0047  0.4237  0.4183
 3232TIP3   OH2 9659   3.133   3.861   3.072  0.1562  0.0365  0.0179
 3232TIP3    H1 9660   3.205   3.802   3.093  0.5173  1.0335  1.7325
 3232TIP3    H2 9661   3.175   3.939   3.035 -0.2334 -0.2846 -1.1483
 3233TIP3   OH2 9662   6.957   0.789   1.220  0.0885  0.0489 -0.7785
 3233TIP3    H1 9663   7.037   0.751   1.184  2.1452  2.4582  0.8753
 3233TIP3    H2 9664   6.964   0.883   1.202 -1.8658  0.4849  0.3418
 3234TIP3   OH2 9665   2.097   1.127   5.402  0.2478 -0.4575  0.0230
 3234TIP3    H1 9666   2.016   1.124   5.351  0.3560 -3.1614 -0.1079
 3234TIP3    H2 9667   2.089   1.207   5.454 -1.4284  0.5561 -1.6611
 3235TIP3   OH2 9668   2.105   6.706   0.057  0.2345  0.4051  0.0649
 3235TIP3    H1 9669   2.027   6.695   0.111  1.0534 -0.7811  1.0580
 3235TIP3    H2 9670   2.082   6.775  -0.005 -1.3694  0.5188  0.7484
 3236TIP3   OH2 9671   5.914   6.060   1.436 -0.8902 -0.4097  0.5670
 3236TIP3    H1 9672   5.828   6.073   1.396 -2.1620 -2.4848  2.3927
 3236TIP3    H2 9673   5.895   6.033   1.526  1.7521  1.0017  1.6780
 3237TIP3   OH2 9674   1.810   0.893   5.101 -0.2077  0.2665  0.3269
 3237TIP3    H1 9675   1.740   0.919   5.161 -0.4076  1.2167 -0.3011
 3237TIP3    H2 9676   1.772   0.905   5.013 -0.7689 -3.3191 -0.0874
 3238TIP3   OH2 9677   3.526   5.939   0.993  0.4081 -0.0844 -0.1111
 3238TIP3    H1 9678   3.525   5.916   0.900  0.0521 -0.3606 -0.0423
 3238TIP3    H2 9679   3.515   6.034   0.995 -3.7124 -0.3685 -0.2776
 3239TIP3   OH2 9680   6.510   4.139   1.093 -0.7114  0.2318 -0.1444
 3239TIP3    H1 9681   6.575   4.098   1.150 -1.3835 -0.6522  0.0182
 3239TIP3    H2 9682   6.477   4.213   1.143  0.5393  1.0095 -0.4469
 3240TIP3   OH2 9683   3.371   1.035   4.599  0.4060  0.0117  0.0441
 3240TIP3    H1 9684   3.443   0.974   4.614  0.8809  0.7585  0.8650
 3240TIP3    H2 9685   3.310   1.019   4.672  0.3354  0.2319  0.0345
 3241TIP3   OH2 9686   6.716   1.877   4.221 -0.4945 -0.8497  0.3228
 3241TIP3    H1 9687   6.766   1.835   4.151  1.6380  1.2284  0.4870
 3241TIP3    H2 9688   6.723   1.971   4.203 -1.1031 -0.3229  2.5423
 3242TIP3   OH2 9689   5.772   6.468   5.233  0.1009 -0.4288  0.2001
 3242TIP3    H1 9690   5.713   6.449   5.160 -0.5521  0.2615  0.5311
 3242TIP3    H2 9691   5.779   6.564   5.234  1.1761 -0.4917  0.2160
 3243TIP3   OH2 9692   4.984   4.086   1.305 -0.6842 -0.3969  0.2748
 3243TIP3    H1 9693   5.035   4.104   1.383 -0.9560  0.4850  0.2623
 3243TIP3    H2 9694   4.960   4.172   1.271 -1.5257 -0.7805 -0.1485
 3244TIP3   OH2 9695   4.188   5.534   1.495 -0.1411 -0.6041  0.5350
 3244TIP3    H1 9696   4.114   5.582   1.457 -0.8323 -2.0315  0.0065
 3244TIP3    H2 9697   4.165   5.524   1.588  0.1251  0.2742  0.7027
 3245TIP3   OH2 9698   6.992   5.237   4.894 -0.0008  0.2869  1.0986
 3245TIP3    H1 9699   6.901   5.268   4.899  0.0249  0.3299  1.3170
 3245TIP3    H2 9700   6.996   5.166   4.958 -0.0662 -0.1862  0.5803
 3246TIP3   OH2 9701   6.367   3.657   2.463  0.4652 -0.5336  0.7030
 3246TIP3    H1 9702   6.281   3.616   2.473  0.5728 -1.1232 -0.6426
 3246TIP3    H2 9703   6.372   3.719   2.536 -0.9621 -0.7115  0.9852
 3247TIP3   OH2 9704   2.011   3.169   3.593  0.3648 -0.1253  0.2653
 3247TIP3    H1 9705   1.924   3.156   3.557  0.8561  1.0290 -1.5063
 3247TIP3    H2 9706   2.061   3.093   3.563  0.0844 -0.5836  0.9396
 3248TIP3   OH2 9707   6.229   0.523   5.680  0.1165  0.4238 -0.1874
 3248TIP3    H1 9708   6.260   0.614   5.678 -0.9153  0.7949 -0.0980
 3248TIP3    H2 9709   6.282   0.481   5.747  0.1262  1.1553  0.2791
 3249TIP3   OH2 9710   6.079   2.748   1.362 -0.5648 -0.2834 -0.3128
 3249TIP3    H1 9711   6.125   2.794   1.291 -0.6978 -1.5428 -1.2444
 3249TIP3    H2 9712   6.013   2.811   1.392 -0.4075  0.3268 -1.2099
 3250TIP3   OH2 9713   1.856   0.605   0.793  0.8398  0.5686 -0.4100
 3250TIP3    H1 9714   1.779   0.661   0.798 -0.3152 -1.0710  1.4494
 3250TIP3    H2 9715   1.833   0.537   0.730  2.0425  1.7642 -2.2612
 3251TIP3   OH2 9716   0.427   2.727   5.392  0.1714  0.3075 -0.1426
 3251TIP3    H1 9717   0.477   2.748   5.470 -0.8373  3.7987 -0.2887
 3251TIP3    H2 9718   0.341   2.765   5.407 -1.4703 -2.5794 -1.3041
 3252TIP3   OH2 9719   3.222   6.709   0.676  0.1842 -1.2167  0.0898
 3252TIP3    H1 9720   3.279   6.694   0.601 -0.6476  1.7294 -1.2583
 3252TIP3    H2 9721   3.135   6.684   0.646 -0.1049 -0.3255  0.1688
 3253TIP3   OH2 9722   4.210   1.138   3.134 -0.2868 -0.1624  0.3345
 3253TIP3    H1 9723   4.283   1.165   3.079 -0.9487  0.5411 -0.2134
 3253TIP3    H2 9724   4.240   1.057   3.176  0.1902 -0.7667 -1.1249
 3254TIP3   OH2 9725   5.672   2.476   1.612  0.3912 -1.1257  1.4241
 3254TIP3    H1 9726   5.726   2.503   1.538  0.1973 -0.6406  1.4605
 3254TIP3    H2 9727   5.590   2.523   1.601  0.7612 -0.1547  2.5608
 3255TIP3   OH2 9728   1.387   1.907   1.062 -0.4811  0.5441 -0.5590
 3255TIP3    H1 9729   1.301   1.867   1.074 -0.2272 -0.1291 -0.9124
 3255TIP3    H2 9730   1.390   1.978   1.126 -2.1219  1.9771 -1.9502
 3256TIP3   OH2 9731   5.905   6.753   3.422  0.1321 -0.2492  0.2542
 3256TIP3    H1 9732   5.979   6.721   3.370 -0.5466 -1.5172  0.0202
 3256TIP3    H2 9733   5.944   6.811   3.487  0.8891  2.4709 -2.4364
 3257TIP3   OH2 9734   0.224   4.507   4.685  0.5753  0.5037  0.3622
 3257TIP3    H1 9735   0.209   4.437   4.748  0.9192 -0.8858 -1.0292
 3257TIP3    H2 9736   0.312   4.538   4.705  0.0108  1.3136  1.6811
 3258TIP3   OH2 9737   2.989   5.703   3.722 -0.3770  0.4090 -0.2397
 3258TIP3    H1 9738   2.925   5.716   3.791 -0.3578 -0.9682  0.0545
 3258TIP3    H2 9739   3.054   5.773   3.736 -0.4577  0.2450  1.0324
 3259TIP3   OH2 9740   4.576   4.455   2.771  0.2788  0.1174  0.2291
 3259TIP3    H1 9741   4.612   4.538   2.741 -0.9879 -0.1789 -2.3390
 3259TIP3    H2 9742   4.484   4.473   2.789 -0.4181 -0.9860 -1.8967
 3260TIP3   OH2 9743   0.887   4.839   2.348  0.1092  0.2342 -0.2314
 3260TIP3    H1 9744   0.863   4.761   2.297 -0.0980 -0.1699  0.4776
 3260TIP3    H2 9745   0.811   4.857   2.402  0.0725  1.0754 -0.5493
 3261TIP3   OH2 9746   2.364   4.992   5.030 -0.4761  0.5662  0.2496
 3261TIP3    H1 9747   2.270   4.972   5.031 -0.5377  0.8594  0.8780
 3261TIP3    H2 9748   2.406   4.906   5.041 -0.6427  0.3291 -0.8904
 3262TIP3   OH2 9749   3.465   0.356   0.358 -0.1442 -0.5580  0.0934
 3262TIP3    H1 9750   3.510   0.355   0.273  2.1097  1.7235  1.1024
 3262TIP3    H2 9751   3.380   0.397   0.340  0.7719  0.9858 -0.9466
 3263TIP3   OH2 9752   1.073   0.421   0.924  0.2809 -0.2863  0.2206
 3263TIP3    H1 9753   1.045   0.352   0.983  1.6060 -0.3750  0.7637
 3263TIP3    H2 9754   0.994   0.474   0.910 -0.4698 -1.2583  0.6663
 3264TIP3   OH2 9755   7.226   6.134   1.923 -0.1780 -0.5946  1.0002
 3264TIP3    H1 9756   7.220   6.078   1.846  1.7223 -1.1720  1.2318
 3264TIP3    H2 9757   7.169   6.208   1.903  0.1716 -0.7952 -0.9009
 3265TIP3   OH2 9758   1.290   6.197   3.088  0.3864 -0.2916 -0.3219
 3265TIP3    H1 9759   1.287   6.293   3.091 -0.4910 -0.2734 -1.3057
 3265TIP3    H2 9760   1.203   6.169   3.117  0.4791 -0.7832 -0.5090
 3266TIP3   OH2 9761   1.336   6.438   3.470 -0.0239 -0.2187 -0.1178
 3266TIP3    H1 9762   1.300   6.473   3.552  1.3429 -0.6262  0.6875
 3266TIP3    H2 9763   1.305   6.348   3.468 -1.0481  0.1272 -0.6764
 3267TIP3   OH2 9764   3.559   4.197   3.583  0.3242 -0.4880  0.0977
 3267TIP3    H1 9765   3.625   4.229   3.645 -0.1741  0.6549  0.0752
 3267TIP3    H2 9766   3.497   4.148   3.638 -1.3160  2.3245  0.9913
 3268TIP3   OH2 9767   5.490   6.644   4.276 -0.1601  0.3190 -0.6571
 3268TIP3    H1 9768   5.415   6.642   4.336 -0.2832 -2.4884 -0.7582
 3268TIP3    H2 9769   5.453   6.622   4.191  0.6433 -0.4639 -0.8204
 3269TIP3   OH2 9770   1.344   5.177   3.919  0.4622 -0.1199 -0.2526
 3269TIP3    H1 9771   1.420   5.123   3.942  1.1702  1.2741  0.8524
 3269TIP3    H2 9772   1.378   5.266   3.918 -0.8903  0.4162 -1.0758
 3270TIP3   OH2 9773   4.516   1.504   0.097  0.4837  0.7372 -0.6777
 3270TIP3    H1 9774   4.559   1.539   0.019 -0.4901  4.2187  0.1961
 3270TIP3    H2 9775   4.423   1.504   0.075  0.1683  2.0329  0.4900
 3271TIP3   OH2 9776   4.731   1.957   0.877  0.4456  0.3131  0.0485
 3271TIP3    H1 9777   4.754   1.869   0.848 -0.4488  0.3510 -0.8172
 3271TIP3    H2 9778   4.816   2.001   0.888  0.8750 -0.4467 -0.1525
 3272TIP3   OH2 9779   2.674   0.530   5.332 -0.1574 -0.4282 -0.0193
 3272TIP3    H1 9780   2.652   0.462   5.396  1.3049 -2.5119 -1.5891
 3272TIP3    H2 9781   2.764   0.554   5.353  0.7584 -1.9757 -1.8774
 3273TIP3   OH2 9782   1.106   3.081   0.425 -0.7198 -0.0006 -0.6719
 3273TIP3    H1 9783   1.055   3.071   0.345 -3.4830  1.5102  0.7361
 3273TIP3    H2 9784   1.047   3.053   0.495  0.5503  1.4144  1.0708
 3274TIP3   OH2 9785   4.027   4.760   2.214  0.3534  0.1391  0.0519
 3274TIP3    H1 9786   4.016   4.760   2.119  1.4464  1.7273 -0.1098
 3274TIP3    H2 9787   4.007   4.671   2.241 -1.8948  0.1303 -1.4213
 3275TIP3   OH2 9788   6.444   0.755   5.014 -0.2281  0.0376 -0.3628
 3275TIP3    H1 9789   6.529   0.799   5.014  0.8536 -1.9359  0.2867
 3275TIP3    H2 9790   6.425   0.738   5.106 -1.3635  0.4914 -0.5012
 3276TIP3   OH2 9791   0.349   0.365   1.336 -1.0040 -0.1282 -0.0998
 3276TIP3    H1 9792   0.296   0.299   1.292 -0.1922 -1.8990  1.4146
 3276TIP3    H2 9793   0.286   0.428   1.370 -2.2987 -2.3780  1.9866
 3277TIP3   OH2 9794   4.509   0.324   3.971 -0.4569 -0.2559  0.0048
 3277TIP3    H1 9795   4.584   0.269   3.994 -1.6230 -1.8674  0.1539
 3277TIP3    H2 9796   4.464   0.339   4.054 -1.1383 -0.6140 -0.2919
 3278TIP3   OH2 9797   4.396   5.574   5.779 -0.8678 -0.2891 -0.4606
 3278TIP3    H1 9798   4.416   5.666   5.794  0.2143 -0.5586 -0.1543
 3278TIP3    H2 9799   4.373   5.569   5.687  1.4601 -0.0876 -1.1006
 3279TIP3   OH2 9800   6.391   6.082   0.778  0.1870  0.6710 -0.2138
 3279TIP3    H1 9801   6.443   6.089   0.858  1.3489 -1.7323 -0.6481
 3279TIP3    H2 9802   6.456   6.085   0.707 -0.4742 -0.1853 -0.8873
 3280TIP3   OH2 9803   2.071   6.683   4.452 -0.7368 -0.2863  0.4114
 3280TIP3    H1 9804   2.011   6.743   4.498  1.1862  1.5506  0.6802
 3280TIP3    H2 9805   2.152   6.686   4.503  0.9785  0.6134 -2.1759
 3281TIP3   OH2 9806   7.094   4.250   1.769 -1.0980 -0.0461  0.0950
 3281TIP3    H1 9807   7.180   4.222   1.802 -0.8703 -1.3261 -1.4793
 3281TIP3    H2 9808   7.069   4.321   1.828  1.3277  0.8040  0.2328
 3282TIP3   OH2 9809   6.869   4.517   0.412  0.2249 -0.1558 -0.2151
 3282TIP3    H1 9810   6.793   4.572   0.429 -0.3562 -1.5795  2.2926
 3282TIP3    H2 9811   6.943   4.568   0.445  0.0749  0.3060 -0.5836
 3283TIP3   OH2 9812   1.317   4.395   1.069  0.2324 -0.0445 -0.1060
 3283TIP3    H1 9813   1.265   4.379   1.147 -0.4199  0.3499 -0.4468
 3283TIP3    H2 9814   1.408   4.394   1.099  0.0528 -1.0602  0.4425
 3284TIP3   OH2 9815   1.539   4.310   4.133  0.3814 -0.0717  0.6158
 3284TIP3    H1 9816   1.525   4.249   4.061  0.2543  1.2179 -0.4744
 3284TIP3    H2 9817   1.462   4.367   4.131  0.1651 -0.2750  2.0501
 3285TIP3   OH2 9818   1.696   3.695   4.846 -0.0514 -0.4818  0.5292
 3285TIP3    H1 9819   1.703   3.789   4.829  1.8419 -0.7066 -0.1565
 3285TIP3    H2 9820   1.602   3.677   4.844 -0.3784  1.1484 -0.7578
 3286TIP3   OH2 9821   6.013   4.728   4.401  0.6137 -0.5924  0.2396
 3286TIP3    H1 9822   6.096   4.774   4.392  0.6749 -0.7954 -0.2542
 3286TIP3    H2 9823   6.038   4.636   4.410  0.5155 -0.5189  1.5766
 3287TIP3   OH2 9824   5.331   1.346   1.337  0.4408 -0.2653 -0.1995
 3287TIP3    H1 9825   5.241   1.329   1.365  0.3710  0.3917 -0.0079
 3287TIP3    H2 9826   5.385   1.303   1.403  0.2875  1.8800  1.4104
 3288TIP3   OH2 9827   6.760   1.731   3.947  0.3835 -0.2568  0.1573
 3288TIP3    H1 9828   6.789   1.733   3.856 -0.2655 -0.8026 -0.0689
 3288TIP3    H2 9829   6.676   1.777   3.946  1.0796  1.0882  0.7600
 3289TIP3   OH2 9830   4.595   5.650   3.290  0.1245 -0.3436  0.6479
 3289TIP3    H1 9831   4.520   5.633   3.233  0.7299 -2.0605  0.3257
 3289TIP3    H2 9832   4.558   5.649   3.379 -0.3467 -0.4208  0.4568
 3290TIP3   OH2 9833   5.731   2.997   2.911  0.2247  0.3541  0.0294
 3290TIP3    H1 9834   5.753   2.909   2.943 -0.3272 -0.0755 -0.7306
 3290TIP3    H2 9835   5.729   3.051   2.990  1.1144 -0.1968  0.4439
 3291TIP3   OH2 9836   0.189   4.687   3.518  0.4320 -1.0283  0.0600
 3291TIP3    H1 9837   0.205   4.593   3.521 -0.3939 -1.3705 -2.9226
 3291TIP3    H2 9838   0.096   4.695   3.496  0.3418  0.5349  0.8110
 3292TIP3   OH2 9839   0.671   6.480   0.448  0.1207  0.6062 -0.2394
 3292TIP3    H1 9840   0.599   6.542   0.444  0.4926  1.0022 -1.1195
 3292TIP3    H2 9841   0.733   6.510   0.381  1.0418  0.2028  0.3991
 3293TIP3   OH2 9842   1.565   6.007   4.916 -0.4635  0.0291  0.0619
 3293TIP3    H1 9843   1.599   5.947   4.850  0.2433 -0.1375  0.5565
 3293TIP3    H2 9844   1.471   6.010   4.900 -0.3506 -0.2967 -0.7091
 3294TIP3   OH2 9845   0.920   1.207   0.751 -0.1143  0.8249  0.1881
 3294TIP3    H1 9846   0.878   1.288   0.781 -0.5375  0.1549  1.5066
 3294TIP3    H2 9847   0.848   1.151   0.726  0.0992  0.3981  0.5175
 3295TIP3   OH2 9848   2.467   6.170   5.829 -0.0740 -0.1662 -0.1608
 3295TIP3    H1 9849   2.508   6.090   5.864 -0.5928 -0.9454 -1.2635
 3295TIP3    H2 9850   2.423   6.141   5.749 -0.0473  1.2910 -0.7319
 3296TIP3   OH2 9851   3.210   0.631   3.533  0.9905 -0.6411 -0.0429
 3296TIP3    H1 9852   3.166   0.706   3.491 -1.5487 -1.3404  1.1546
 3296TIP3    H2 9853   3.189   0.641   3.626 -0.0777 -3.1769  0.0752
 3297TIP3   OH2 9854   1.078   1.917   3.639  0.5922  0.3997  0.0951
 3297TIP3    H1 9855   1.025   1.954   3.569  0.0707 -1.2097 -0.4034
 3297TIP3    H2 9856   1.028   1.932   3.719  0.4492  0.8527 -0.0797
 3298TIP3   OH2 9857   0.826   5.108   4.785  0.1514  0.9574  0.1396
 3298TIP3    H1 9858   0.891   5.056   4.832  0.0853 -0.2508 -1.0497
 3298TIP3    H2 9859   0.764   5.136   4.853  0.2592 -0.4251  0.8392
 3299TIP3   OH2 9860   5.372   3.969   0.081 -0.4166 -0.3256 -0.5234
 3299TIP3    H1 9861   5.329   4.029   0.021  0.8211 -1.7443 -2.9762
 3299TIP3    H2 9862   5.303   3.941   0.141 -1.6642  1.2964 -1.1343
 3300TIP3   OH2 9863   3.775   2.251   3.733  0.2745  0.2105 -0.1558
 3300TIP3    H1 9864   3.741   2.328   3.687 -0.0052 -1.2553 -2.5678
 3300TIP3    H2 9865   3.697   2.209   3.769  0.1467 -0.1701 -0.8611
 3301TIP3   OH2 9866   6.113   5.450   4.548 -0.1499 -0.0335 -0.2211
 3301TIP3    H1 9867   6.166   5.416   4.476  0.9766  2.0292 -0.4604
 3301TIP3    H2 9868   6.086   5.537   4.518 -1.8452 -0.1644  0.8248
 3302TIP3   OH2 9869   6.445   3.089   2.158  0.0677  0.3980  0.2710
 3302TIP3    H1 9870   6.414   3.044   2.237  0.8627 -0.2557  0.2190
 3302TIP3    H2 9871   6.503   3.026   2.115 -1.5199  0.1549 -1.6556
 3303TIP3   OH2 9872   3.962   3.814   5.281  0.0738 -0.3113 -0.2107
 3303TIP3    H1 9873   4.026   3.743   5.278 -0.4032 -0.7233 -1.3987
 3303TIP3    H2 9874   3.903   3.791   5.353  0.7670 -0.3613  0.3438
 3304TIP3   OH2 9875   3.845   4.227   4.986 -0.0338  0.4435  0.0053
 3304TIP3    H1 9876   3.867   4.141   5.022  0.6377  1.2491  1.6414
 3304TIP3    H2 9877   3.765   4.212   4.936  0.2482 -1.1827 -0.0162
 3305TIP3   OH2 9878   6.701   1.391   0.256  0.2780  0.3077  0.3452
 3305TIP3    H1 9879   6.715   1.420   0.166  2.9457 -0.7907  0.3023
 3305TIP3    H2 9880   6.661   1.304   0.247  0.7656  0.0938  0.1842
 3306TIP3   OH2 9881   5.211   3.567   5.303  0.2477 -0.0214 -0.0102
 3306TIP3    H1 9882   5.228   3.619   5.381  0.0032  1.6400 -1.0269
 3306TIP3    H2 9883   5.260   3.610   5.233 -0.8891 -0.4563 -1.1279
 3307TIP3   OH2 9884   0.773   0.993   4.332  0.3983 -0.0879  0.1084
 3307TIP3    H1 9885   0.807   0.924   4.389  0.1963 -2.4359 -2.4209
 3307TIP3    H2 9886   0.823   1.071   4.356 -0.0778 -0.7248  3.8143
 3308TIP3   OH2 9887   3.729   4.865   3.654 -0.2716 -0.5786 -0.4747
 3308TIP3    H1 9888   3.677   4.816   3.590 -0.6906  0.5577 -1.0217
 3308TIP3    H2 9889   3.703   4.829   3.739 -1.3188 -0.6053 -0.8037
 3309TIP3   OH2 9890   4.563   1.017   0.397 -0.0973 -0.1229 -0.0931
 3309TIP3    H1 9891   4.615   1.079   0.346  0.5574 -1.2969 -0.8836
 3309TIP3    H2 9892   4.587   0.931   0.362 -0.7089 -0.8540  1.2342
 3310TIP3   OH2 9893   2.494   1.283   0.348 -0.2496 -0.8221  0.8003
 3310TIP3    H1 9894   2.582   1.320   0.337 -0.0895 -1.3919  0.1218
 3310TIP3    H2 9895   2.492   1.208   0.290 -1.3050 -0.6204  0.5551
 3311TIP3   OH2 9896   4.484   5.439   2.740  0.0531 -0.5493  0.3072
 3311TIP3    H1 9897   4.500   5.348   2.765 -0.4016 -1.2656 -1.8242
 3311TIP3    H2 9898   4.388   5.446   2.738  0.0830 -0.3245 -0.4991
 3312TIP3   OH2 9899   5.038   4.355   0.300  0.6079  1.0763 -0.4142
 3312TIP3    H1 9900   4.973   4.409   0.344  0.8223 -0.1729  1.5874
 3312TIP3    H2 9901   4.989   4.313   0.229 -0.2837  1.6722 -0.1765
 3313TIP3   OH2 9902   0.290   3.328   2.130  0.0927  0.3829 -0.6167
 3313TIP3    H1 9903   0.220   3.302   2.192  0.8851 -1.6090 -0.4635
 3313TIP3    H2 9904   0.245   3.380   2.064 -1.2395  0.5331  0.3562
 3314TIP3   OH2 9905   4.919   1.115   0.107 -0.6035  0.3122  0.0918
 3314TIP3    H1 9906   4.844   1.107   0.165 -0.8028 -0.1481 -0.2275
 3314TIP3    H2 9907   4.995   1.102   0.165 -0.6995  1.7222  0.6007
 3315TIP3   OH2 9908   7.124   4.358   5.219 -0.1738 -0.0509  0.1971
 3315TIP3    H1 9909   7.117   4.301   5.296  1.7488 -1.0105 -0.2961
 3315TIP3    H2 9910   7.174   4.434   5.250 -1.1565  0.5408  0.3820
 3316TIP3   OH2 9911   1.967   5.822   4.439  0.2212  0.1212 -0.0618
 3316TIP3    H1 9912   1.888   5.800   4.488 -0.3057 -2.4675 -1.8873
 3316TIP3    H2 9913   1.936   5.878   4.368  0.0774 -0.4505 -0.4605
 3317TIP3   OH2 9914   6.313   5.635   4.780 -0.6506 -0.3058  0.4929
 3317TIP3    H1 9915   6.276   5.585   4.852 -0.2258 -0.2400  0.7577
 3317TIP3    H2 9916   6.356   5.709   4.821  4.0553 -2.8190  0.7292
 3318TIP3   OH2 9917   6.549   5.051   1.802 -0.2257 -0.1229 -0.4746
 3318TIP3    H1 9918   6.472   5.030   1.853  0.2565  0.2493  0.4343
 3318TIP3    H2 9919   6.518   5.058   1.712 -1.5120  1.3393  0.0454
 3319TIP3   OH2 9920   1.260   4.672   4.356  0.1306  0.1320 -0.0397
 3319TIP3    H1 9921   1.254   4.678   4.451  1.7343 -0.8657  0.1628
 3319TIP3    H2 9922   1.346   4.709   4.335 -0.5518  1.1155 -1.2033
 3320TIP3   OH2 9923   0.422   6.575   3.072 -0.2711 -0.2659  0.2395
 3320TIP3    H1 9924   0.366   6.581   2.995 -0.4158  3.4119  0.4925
 3320TIP3    H2 9925   0.363   6.589   3.146  0.4471  0.0594  0.7598
 3321TIP3   OH2 9926   2.857   6.383   1.980  0.5940 -0.0086  0.6061
 3321TIP3    H1 9927   2.919   6.322   2.020 -0.9396 -2.1211 -0.0943
 3321TIP3    H2 9928   2.773   6.337   1.981 -0.2327  1.2953 -1.7624
 3322TIP3   OH2 9929   2.931   0.614   1.264 -0.9814 -0.3209  0.1053
 3322TIP3    H1 9930   2.838   0.626   1.281 -0.6861  1.1554  0.8040
 3322TIP3    H2 9931   2.962   0.700   1.237  0.6324 -0.2052  2.1420
 3323TIP3   OH2 9932   6.721   5.252   4.817 -0.2634  0.1768 -0.0118
 3323TIP3    H1 9933   6.633   5.215   4.828  0.0851 -0.4496  0.8166
 3323TIP3    H2 9934   6.766   5.188   4.761 -0.6814  1.1079 -1.4611
 3324TIP3   OH2 9935   0.134   4.519   5.390  0.7661 -0.3100 -0.7313
 3324TIP3    H1 9936   0.222   4.483   5.404  0.3317 -1.6207 -1.2263
 3324TIP3    H2 9937   0.147   4.614   5.387  2.1351 -0.4787 -0.6138
 3325TIP3   OH2 9938   1.922   6.496   3.601 -0.5219  0.0689  0.0544
 3325TIP3    H1 9939   1.859   6.437   3.561 -0.6516 -0.2011  0.6545
 3325TIP3    H2 9940   1.872   6.543   3.668  0.0461 -0.5865  0.9564
 3326TIP3   OH2 9941   1.222   3.946   2.009 -0.1914 -0.3676  0.0977
 3326TIP3    H1 9942   1.274   4.023   1.987 -0.2004 -0.6487 -0.9560
 3326TIP3    H2 9943   1.281   3.872   1.995  0.2158 -0.5274  2.2863
 3327TIP3   OH2 9944   6.455   6.778   5.164  0.2004  0.5090  0.5145
 3327TIP3    H1 9945   6.432   6.692   5.129 -1.7893  1.8057 -1.6061
 3327TIP3    H2 9946   6.528   6.808   5.109  0.5441  0.4262  0.9155
 3328TIP3   OH2 9947   6.947   2.903   0.039 -0.4956  0.4824  0.4017
 3328TIP3    H1 9948   6.978   2.901   0.130 -2.8843 -0.6730  1.2761
 3328TIP3    H2 9949   6.961   2.814   0.007 -1.6288  0.2891  0.3979
 3329TIP3   OH2 9950   3.225   3.089   4.088 -0.1167 -0.1262 -0.0510
 3329TIP3    H1 9951   3.293   3.156   4.094 -0.8662  0.5228  2.9314
 3329TIP3    H2 9952   3.269   3.013   4.049  1.1438  1.5504 -2.0796
 3330TIP3   OH2 9953   0.827   6.189   5.314  0.1863  0.0972 -0.0444
 3330TIP3    H1 9954   0.757   6.131   5.282  2.7041 -1.6959 -2.8326
 3330TIP3    H2 9955   0.889   6.130   5.357  0.8062  1.3946  0.9031
 3331TIP3   OH2 9956   1.216   5.361   5.229 -0.4528 -0.0840  0.1264
 3331TIP3    H1 9957   1.293   5.416   5.249 -1.7648  0.9658  2.6821
 3331TIP3    H2 9958   1.149   5.424   5.200 -0.9355 -0.7729 -0.2718
 3332TIP3   OH2 9959   6.752   4.118   1.688  0.8413  0.0659 -0.9728
 3332TIP3    H1 9960   6.809   4.119   1.765  0.5695  0.2882 -0.7764
 3332TIP3    H2 9961   6.684   4.054   1.710  1.1115 -0.3384 -1.2823
 3333TIP3   OH2 9962   0.286   6.716   0.128 -0.3137  0.3670  0.0216
 3333TIP3    H1 9963   0.337   6.639   0.152  0.5005  1.3791  1.6696
 3333TIP3    H2 9964   0.280   6.712   0.033 -0.4887 -1.8389  0.0819
 3334TIP3   OH2 9965   5.135   1.626   5.422 -0.0962 -0.0783  0.1323
 3334TIP3    H1 9966   5.178   1.710   5.408 -0.3710  0.1221  0.5031
 3334TIP3    H2 9967   5.163   1.599   5.510 -1.9687  0.8046  1.0613
 3335TIP3   OH2 9968   5.720   2.850   2.499  0.2878  0.4301 -0.2817
 3335TIP3    H1 9969   5.688   2.765   2.467  0.2996  0.7042 -1.0443
 3335TIP3    H2 9970   5.750   2.895   2.420  0.6767  0.9803  0.1738
 3336TIP3   OH2 9971   6.927   6.484   3.202  0.3050  0.1208  0.3490
 3336TIP3    H1 9972   6.901   6.450   3.116  0.3046  0.7978  0.0708
 3336TIP3    H2 9973   6.853   6.463   3.259  0.6621 -1.0846  0.3904
 3337TIP3   OH2 9974   0.024   3.169   1.728  0.1067  0.3899  0.3366
 3337TIP3    H1 9975   0.116   3.161   1.751 -0.2151 -0.1172  1.5418
 3337TIP3    H2 9976   0.016   3.125   1.643  1.1739  1.4887 -0.3668
 3338TIP3   OH2 9977   0.499   0.708   1.396 -0.3936 -0.4519  0.3618
 3338TIP3    H1 9978   0.496   0.675   1.486 -1.5090 -1.7778 -0.1289
 3338TIP3    H2 9979   0.426   0.769   1.390 -0.0356 -0.0031  0.4683
 3339TIP3   OH2 9980   6.691   0.765   2.474  0.2915 -0.0791  0.6068
 3339TIP3    H1 9981   6.619   0.827   2.482  0.1268 -0.3216  1.0074
 3339TIP3    H2 9982   6.649   0.679   2.471  0.6119 -0.3094  1.9965
 3340TIP3   OH2 9983   3.990   6.138   1.899 -0.6893 -0.1993  0.2314
 3340TIP3    H1 9984   3.971   6.049   1.929  1.6042 -0.9892 -0.4424
 3340TIP3    H2 9985   3.973   6.135   1.805 -1.9195  0.5044  0.4115
 3341TIP3   OH2 9986   2.507   4.540   0.544  0.0185  0.6103 -0.8341
 3341TIP3    H1 9987   2.593   4.561   0.509  0.6438 -2.5788 -1.5861
 3341TIP3    H2 9988   2.524   4.492   0.625 -1.2041  2.2127  0.4371
 3342TIP3   OH2 9989   6.824   1.493   1.127 -0.6416 -0.5138 -0.4954
 3342TIP3    H1 9990   6.876   1.424   1.168  1.0650  0.9938  0.0103
 3342TIP3    H2 9991   6.888   1.546   1.079 -1.7039  1.3536  0.0410
 3343TIP3   OH2 9992   7.036   1.557   0.124 -0.8370  0.3022 -0.4387
 3343TIP3    H1 9993   7.015   1.546   0.217  2.0655  2.5024  0.6232
 3343TIP3    H2 9994   6.950   1.563   0.081 -2.3471 -3.2013  1.6041
 3344TIP3   OH2 9995   5.449   2.874   3.172 -0.3844 -0.3097 -0.2801
 3344TIP3    H1 9996   5.480   2.952   3.218 -0.8033  0.6832 -1.6403
 3344TIP3    H2 9997   5.375   2.844   3.224 -0.3272  0.3025  0.1673
 3345TIP3   OH2 9998   3.332   6.150   4.156 -0.4513 -0.2179  0.2374
 3345TIP3    H1 9999   3.366   6.214   4.219 -0.2520  0.6329 -0.6997
 3345TIP3    H210000   3.256   6.111   4.199  1.8224 -2.4534  2.5837
 3346TIP3   OH210001   4.285   0.653   1.948 -0.2523  0.2928 -0.2327
 3346TIP3    H110002   4.271   0.746   1.963 -0.5676  0.2380 -0.1855
 3346TIP3    H210003   4.380   0.644   1.939 -0.1647  0.5102  0.4665
 3347TIP3   OH210004   2.785   1.359   3.221  0.3237  0.0427  0.3888
 3347TIP3    H110005   2.749   1.448   3.229 -0.9818 -0.4695  0.3929
 3347TIP3    H210006   2.784   1.342   3.127  0.6861  0.0730  0.3792
 3348TIP3   OH210007   4.752   0.925   0.670 -0.1507  0.2131  0.1598
 3348TIP3    H110008   4.670   0.926   0.620  0.5424  0.3312 -1.0233
 3348TIP3    H210009   4.777   1.017   0.679 -1.0730  0.3249  2.1708
 3349TIP3   OH210010   6.170   4.221   4.159  0.0427  0.0395 -0.1593
 3349TIP3    H110011   6.236   4.227   4.091  0.5359 -0.0285  0.3069
 3349TIP3    H210012   6.151   4.311   4.184 -3.0210  0.4088 -3.0715
 3350TIP3   OH210013   5.076   2.195   5.368  0.0997 -0.0553 -0.2909
 3350TIP3    H110014   5.086   2.245   5.450  0.9506  0.2710 -0.5852
 3350TIP3    H210015   5.165   2.171   5.344 -0.2591 -1.3362 -0.4068
 3351TIP3   OH210016   0.669   1.242   5.746 -0.6568 -0.1776 -0.7152
 3351TIP3    H110017   0.737   1.199   5.798 -2.1668 -1.3406  0.3831
 3351TIP3    H210018   0.702   1.238   5.656  1.1100  0.0930 -0.1206
 3352TIP3   OH210019   3.638   4.849   3.034  0.3466  0.2363  0.2266
 3352TIP3    H110020   3.584   4.826   2.959  0.1031 -0.4090  0.5901
 3352TIP3    H210021   3.728   4.831   3.005  0.1554 -1.4467  0.5657
 3353TIP3   OH210022   2.192   4.729   2.129 -0.9714 -0.3690 -0.1445
 3353TIP3    H110023   2.127   4.786   2.089 -2.3818 -1.1983  0.8812
 3353TIP3    H210024   2.170   4.641   2.098 -0.7088 -0.7348  0.6729
 3354TIP3   OH210025   4.806   6.227   2.387 -0.1294  0.1910 -0.4988
 3354TIP3    H110026   4.770   6.194   2.305  1.4571 -0.5228 -0.9467
 3354TIP3    H210027   4.741   6.291   2.417 -1.4602 -0.6103 -1.5284
 3355TIP3   OH210028   0.679   3.299   5.753 -0.0117  0.5715 -0.3316
 3355TIP3    H110029   0.588   3.275   5.734  0.1192  1.1242 -1.7616
 3355TIP3    H210030   0.730   3.221   5.730  0.0122  0.7807 -1.0137
 3356TIP3   OH210031   2.420   2.822   4.240 -0.5275 -0.3302  0.3546
 3356TIP3    H110032   2.374   2.899   4.206 -1.2028 -0.1075  1.6876
 3356TIP3    H210033   2.487   2.802   4.174 -1.5970  0.2189 -0.9270
 3357TIP3   OH210034   1.246   6.112   1.545  0.4869 -0.0465 -0.2723
 3357TIP3    H110035   1.206   6.083   1.462 -1.3178  0.5322  0.3532
 3357TIP3    H210036   1.276   6.031   1.586  0.9043 -0.3966 -1.2280
 3358TIP3   OH210037   4.584   3.180   4.740  0.0509  0.6037  0.9868
 3358TIP3    H110038   4.496   3.167   4.775 -0.4091 -2.7716 -1.0316
 3358TIP3    H210039   4.570   3.204   4.649  1.2346  0.3081  0.7163
 3359TIP3   OH210040   4.696   3.944   2.503 -0.2326  0.0779  0.2971
 3359TIP3    H110041   4.616   3.977   2.461  0.3060  0.0220 -0.7774
 3359TIP3    H210042   4.684   3.967   2.595 -0.1179  2.8695 -0.3066
 3360TIP3   OH210043   2.751   4.355   1.931 -0.0608  0.0671 -0.0379
 3360TIP3    H110044   2.797   4.284   1.887  0.0729 -0.0337  0.2628
 3360TIP3    H210045   2.662   4.322   1.943  0.1408 -0.2656  0.5879
 3361TIP3   OH210046   6.650   5.012   2.351  0.2370 -0.6062 -0.6568
 3361TIP3    H110047   6.664   5.049   2.439 -0.1287  2.3430 -1.7273
 3361TIP3    H210048   6.565   4.970   2.357  0.3891 -0.8006  0.5015
 3362TIP3   OH210049   0.868   2.652   1.505 -0.1924 -0.3116 -0.3066
 3362TIP3    H110050   0.935   2.618   1.564  0.6786  0.4026 -0.8491
 3362TIP3    H210051   0.911   2.724   1.459 -1.1772 -0.1713 -1.0453
 3363TIP3   OH210052   7.027   4.553   4.758 -0.0634 -0.2392  0.5408
 3363TIP3    H110053   7.073   4.610   4.697 -0.6048 -0.5784 -0.1906
 3363TIP3    H210054   6.986   4.486   4.703  0.0420 -0.9749  1.3315
 3364TIP3   OH210055   1.512   0.286   5.865  0.2447 -0.0028 -0.1005
 3364TIP3    H110056   1.418   0.295   5.854  0.0546 -0.8816  0.7341
 3364TIP3    H210057   1.549   0.334   5.791 -0.8226  1.4005  0.2194
 3365TIP3   OH210058   3.974   1.602   3.242 -0.1409  0.2680 -0.3459
 3365TIP3    H110059   4.057   1.637   3.210 -0.1114  0.7682  0.2609
 3365TIP3    H210060   3.936   1.558   3.167  1.5497 -1.6315 -0.1698
 3366TIP3   OH210061   3.024   1.790   4.087 -0.1402  0.0371 -0.3681
 3366TIP3    H110062   3.064   1.876   4.077 -1.6323  0.9034  0.6865
 3366TIP3    H210063   3.097   1.730   4.097  1.0102  0.8673 -3.0411
 3367TIP3   OH210064   2.394   1.879   5.031  0.6543  0.1158 -0.3561
 3367TIP3    H110065   2.335   1.954   5.035 -2.3617 -2.0541 -0.7906
 3367TIP3    H210066   2.345   1.812   4.984  3.9900 -1.5141 -1.8732
 3368TIP3   OH210067   1.370   2.140   4.055 -0.0337 -0.2835  0.3122
 3368TIP3    H110068   1.326   2.219   4.084 -1.5413 -1.1651  0.5393
 3368TIP3    H210069   1.314   2.068   4.084  0.7848 -1.4078 -0.7247
 3369TIP3   OH210070   4.178   4.412   5.328 -0.5467 -0.2624 -1.2565
 3369TIP3    H110071   4.265   4.381   5.355 -0.2750 -1.7127 -3.4772
 3369TIP3    H210072   4.183   4.507   5.337  0.0773 -0.4796  1.8012
 3370TIP3   OH210073   3.997   6.100   0.330 -0.1129  0.3141 -0.3571
 3370TIP3    H110074   4.014   6.079   0.421 -0.3392 -0.6959 -0.5444
 3370TIP3    H210075   4.084   6.102   0.289 -0.1643 -2.0122 -0.6999
 3371TIP3   OH210076   3.902   5.462   3.144 -0.1913 -0.0433 -0.2278
 3371TIP3    H110077   3.976   5.423   3.097 -2.2748 -0.9810 -3.0426
 3371TIP3    H210078   3.878   5.397   3.210  0.3377 -0.5721 -0.5452
 3372TIP3   OH210079   6.214   0.281   1.338  0.0496  0.5882  0.1937
 3372TIP3    H110080   6.158   0.231   1.278  1.5181 -1.6863  0.5615
 3372TIP3    H210081   6.168   0.364   1.351 -1.8608 -0.0998 -1.5824
 3373TIP3   OH210082   0.236   3.659   3.471  0.1029  0.1866  1.4007
 3373TIP3    H110083   0.141   3.662   3.478 -0.0804 -0.0458 -0.5106
 3373TIP3    H210084   0.266   3.736   3.519 -1.2534  1.8900 -0.3371
 3374TIP3   OH210085   6.025   4.780   3.219  0.1580  0.1176 -0.1415
 3374TIP3    H110086   5.943   4.761   3.265  0.8275 -0.9767  0.6481
 3374TIP3    H210087   6.066   4.850   3.270  0.7381 -0.8579  0.7446
 3375TIP3   OH210088   4.422   5.152   0.363  0.1626 -0.2422  0.4692
 3375TIP3    H110089   4.477   5.112   0.431  0.2436 -0.6801  0.1526
 3375TIP3    H210090   4.367   5.214   0.410 -1.0437 -1.8207  1.2264
 3376TIP3   OH210091   6.677   1.248   2.327 -0.4956 -0.7175  0.3190
 3376TIP3    H110092   6.695   1.277   2.238 -0.8510  2.0238  1.0484
 3376TIP3    H210093   6.587   1.275   2.344 -1.1711 -3.0616  0.8870
 3377TIP3   OH210094   1.253   3.377   5.054  0.5862 -0.5241 -0.2939
 3377TIP3    H110095   1.308   3.302   5.080  0.6228  0.2214  1.9843
 3377TIP3    H210096   1.167   3.358   5.091  1.1946  1.6030  2.5406
 3378TIP3   OH210097   0.111   6.051   2.446 -0.0517  0.2842  0.2587
 3378TIP3    H110098   0.060   6.128   2.470  0.2220  0.1664  1.2715
 3378TIP3    H210099   0.131   6.063   2.353  0.0905  1.4880  0.4329
 3379TIP3   OH210100   3.371   0.442   2.971 -0.0516  0.0560  0.1868
 3379TIP3    H110101   3.451   0.487   2.944 -0.0652 -0.4109 -0.6687
 3379TIP3    H210102   3.324   0.427   2.889 -1.1274  0.5273  0.7071
 3380TIP3   OH210103   3.113   4.398   3.009  0.5815 -0.0840 -0.2495
 3380TIP3    H110104   3.140   4.468   2.949  0.5209  0.5682  0.4750
 3380TIP3    H210105   3.121   4.436   3.096 -0.8644 -0.4879  0.0900
 3381TIP3   OH210106   2.033   3.276   3.046 -0.0605  0.7204 -0.1826
 3381TIP3    H110107   2.042   3.192   3.090 -2.1881  1.2510  1.4622
 3381TIP3    H210108   1.957   3.265   2.988 -1.4841  1.9136  1.3426
 3382TIP3   OH210109   4.983   6.254   5.602  0.1003 -0.0542  0.6848
 3382TIP3    H110110   4.947   6.319   5.663  0.8597  0.8646  0.1844
 3382TIP3    H210111   5.073   6.241   5.632  0.1564 -0.3685  0.3828
 3383TIP3   OH210112   1.516   2.894   3.859  0.2295  0.2410  0.3154
 3383TIP3    H110113   1.458   2.939   3.797  1.6959  2.4682  0.4721
 3383TIP3    H210114   1.487   2.923   3.945 -0.8355 -1.6777  0.6568
 3384TIP3   OH210115   6.501   5.101   1.544  0.3712  0.0537 -0.0665
 3384TIP3    H110116   6.406   5.110   1.551  0.4669 -0.4071  3.4104
 3384TIP3    H210117   6.534   5.190   1.533 -0.3325  0.7637  2.8072
 3385TIP3   OH210118   4.089   1.733   1.792  0.0016 -0.6428 -0.4901
 3385TIP3    H110119   4.052   1.800   1.849  0.0849 -0.8594 -0.1792
 3385TIP3    H210120   4.040   1.654   1.813  0.4060 -0.8512 -0.3253
 3386TIP3   OH210121   3.239   2.077   4.898 -0.1692 -0.5939 -0.4088
 3386TIP3    H110122   3.333   2.092   4.894  0.0207 -1.4251  0.5071
 3386TIP3    H210123   3.200   2.156   4.858  0.8696  0.2486  0.1951
 3387TIP3   OH210124   4.141   4.539   2.681  0.0062  0.5570 -0.1398
 3387TIP3    H110125   4.220   4.547   2.735 -0.7154  1.0702  0.8778
 3387TIP3    H210126   4.074   4.587   2.730 -1.3804 -1.2774 -0.1257
 3388TIP3   OH210127   0.965   2.311   1.890  0.4737  0.5159  0.0202
 3388TIP3    H110128   0.942   2.387   1.945  1.0126  0.5106  0.2672
 3388TIP3    H210129   0.945   2.338   1.801 -1.0557  0.2818  0.2714
 3389TIP3   OH210130   6.761   0.247   5.546 -0.3890  0.8538 -0.2887
 3389TIP3    H110131   6.852   0.257   5.520 -0.1377 -0.2526  0.1233
 3389TIP3    H210132   6.737   0.333   5.582  0.7904  0.8735  0.5092
 3390TIP3   OH210133   4.863   0.443   5.686 -0.2481 -0.5081  0.2944
 3390TIP3    H110134   4.848   0.429   5.593  1.9832 -0.8233 -0.0668
 3390TIP3    H210135   4.888   0.535   5.693 -1.5960 -0.1474  0.7963
 3391TIP3   OH210136   7.187   4.003   2.408  0.1980  0.3725  0.1737
 3391TIP3    H110137   7.264   4.042   2.367 -0.2690 -0.7136 -1.8733
 3391TIP3    H210138   7.113   4.045   2.365 -0.3337 -0.2417  0.4746
 3392TIP3   OH210139   4.758   2.960   0.420  0.1018  0.4772  0.0400
 3392TIP3    H110140   4.849   2.928   0.422 -0.4388 -1.3225 -1.5287
 3392TIP3    H210141   4.758   3.029   0.354 -0.1224 -1.3043 -1.9255
 3393TIP3   OH210142   5.519   1.214   1.490  0.0038  0.0000 -0.1479
 3393TIP3    H110143   5.612   1.191   1.483  0.4987  1.4401  1.1271
 3393TIP3    H210144   5.483   1.150   1.550  1.2133  1.8994  2.8261
 3394TIP3   OH210145   5.115  -0.008   0.394  0.1700  0.6529  0.0885
 3394TIP3    H110146   5.196   0.033   0.365  0.9670 -1.3742 -0.7486
 3394TIP3    H210147   5.123  -0.014   0.489  0.9247  0.6091  0.0247
 3395TIP3   OH210148   6.773   0.799   0.437 -0.0534  0.3182 -0.3660
 3395TIP3    H110149   6.781   0.766   0.348 -2.1042 -0.6257 -0.2437
 3395TIP3    H210150   6.810   0.729   0.491  0.7801  0.6997 -0.4256
 3396TIP3   OH210151   5.691   5.062   0.239  0.9546  0.3963  0.6306
 3396TIP3    H110152   5.723   4.972   0.236  1.4552  0.5933 -1.7012
 3396TIP3    H210153   5.615   5.058   0.297 -0.0229 -1.9046 -0.6501
 3397TIP3   OH210154   2.607   3.089   4.284 -0.4507  0.1088 -0.0658
 3397TIP3    H110155   2.562   3.172   4.300 -2.4231 -1.0451  0.6597
 3397TIP3    H210156   2.537   3.026   4.269  1.0321 -1.1344 -2.3246
 3398TIP3   OH210157   5.409   1.929   0.305 -0.1380 -0.5313  0.2330
 3398TIP3    H110158   5.353   1.984   0.360 -0.9956 -1.9755  0.8675
 3398TIP3    H210159   5.488   1.981   0.291 -0.5750  0.5169  1.4861
 3399TIP3   OH210160   4.218   1.178   3.760  0.1491  0.2374 -0.5037
 3399TIP3    H110161   4.170   1.227   3.693 -0.6327 -0.6213 -0.5878
 3399TIP3    H210162   4.157   1.172   3.833  0.0923 -0.9330 -0.6396
 3400TIP3   OH210163   7.082   4.903   1.767  0.2778  0.2491 -0.4422
 3400TIP3    H110164   7.013   4.877   1.828 -0.1423  0.4167 -0.8467
 3400TIP3    H210165   7.083   4.998   1.771  0.6563  0.2410 -0.2547
 3401TIP3   OH210166   1.567   2.333   3.483 -0.2595  0.0307 -0.2085
 3401TIP3    H110167   1.476   2.310   3.465  0.3449 -1.8713 -1.0841
 3401TIP3    H210168   1.589   2.282   3.561  0.1460  0.2598 -0.1719
 3402TIP3   OH210169   1.609   5.673   5.057 -0.0608  0.6563  0.1680
 3402TIP3    H110170   1.638   5.754   5.100  0.7623  0.7919 -0.6066
 3402TIP3    H210171   1.541   5.702   4.996 -0.1916  0.6749  0.3211
 3403TIP3   OH210172   3.874   0.338   3.986 -0.1287  0.0109  0.5604
 3403TIP3    H110173   3.820   0.416   3.983 -0.1866 -0.0559 -1.7194
 3403TIP3    H210174   3.945   0.360   4.047 -1.0821  1.1534  1.3106
 3404TIP3   OH210175   3.665   2.057   4.438 -0.1617 -0.1325 -0.3884
 3404TIP3    H110176   3.732   2.033   4.373  0.2286 -0.1364  0.0083
 3404TIP3    H210177   3.654   2.151   4.427  0.2612 -0.0499 -0.1348
 3405TIP3   OH210178   4.142   5.112   3.733  0.4896  0.3480 -0.3488
 3405TIP3    H110179   4.157   5.071   3.819  1.2479  0.5252 -0.3882
 3405TIP3    H210180   4.227   5.106   3.689 -0.4749 -1.9767 -2.0802
 3406TIP3   OH210181   6.570   1.348   3.321 -0.7090 -0.6629 -0.3089
 3406TIP3    H110182   6.633   1.404   3.276 -0.6819 -1.1846 -0.9384
 3406TIP3    H210183   6.533   1.404   3.390 -0.3676 -0.0129 -0.6429
 3407TIP3   OH210184   6.040   1.055   3.025 -0.1122  0.4347 -0.2833
 3407TIP3    H110185   6.108   0.988   3.037  0.3941  0.6977 -1.5607
 3407TIP3    H210186   6.027   1.092   3.113  0.2369 -0.7223  0.2707
 3408TIP3   OH210187   3.360   5.231   1.532 -0.7480  0.4064  0.0498
 3408TIP3    H110188   3.357   5.184   1.448  0.9497  0.6727 -0.1890
 3408TIP3    H210189   3.317   5.315   1.513  0.3341  0.7922 -0.7969
 3409TIP3   OH210190   0.405   3.583   0.799 -0.0140  0.4243 -0.2120
 3409TIP3    H110191   0.431   3.530   0.874  1.2760  0.9161 -0.2889
 3409TIP3    H210192   0.470   3.563   0.731 -0.5482  0.7744 -0.8456
 3410TIP3   OH210193   5.126   1.126   1.408 -0.3318 -0.2341 -0.0737
 3410TIP3    H110194   5.139   1.079   1.326 -2.5385 -0.4105 -0.3989
 3410TIP3    H210195   5.152   1.064   1.476 -0.4222 -0.8418 -0.5879
 3411TIP3   OH210196   4.243   2.692   4.714  0.1895  0.0127 -0.3619
 3411TIP3    H110197   4.318   2.633   4.703 -0.4096 -0.9004  0.2642
 3411TIP3    H210198   4.248   2.722   4.805 -1.8823 -2.5627  0.7599
 3412TIP3   OH210199   4.686   6.522   1.007 -0.5402  0.0565 -0.1400
 3412TIP3    H110200   4.717   6.540   1.096 -1.5853 -0.5085  0.3570
 3412TIP3    H210201   4.703   6.429   0.994 -0.7924  0.0396 -0.3552
 3413TIP3   OH210202   3.372   3.614   0.794 -0.2340 -0.1121 -0.2611
 3413TIP3    H110203   3.408   3.701   0.809 -0.2893  0.1673 -1.6316
 3413TIP3    H210204   3.280   3.629   0.770  0.2848 -0.3399 -2.5975
 3414TIP3   OH210205   0.782   3.842   5.112  0.3289  0.0445 -0.5870
 3414TIP3    H110206   0.868   3.819   5.077 -0.0352 -0.3541 -1.2570
 3414TIP3    H210207   0.790   3.830   5.206  0.8282 -0.5959 -0.7038
 3415TIP3   OH210208   0.883   4.062   3.569 -0.1358  0.1379 -0.5333
 3415TIP3    H110209   0.908   4.082   3.478  1.0773 -0.1369 -0.2796
 3415TIP3    H210210   0.848   3.973   3.566  2.0353 -0.7816 -0.4108
 3416TIP3   OH210211   6.401   3.676   2.197 -0.5114 -0.6731 -0.6880
 3416TIP3    H110212   6.396   3.584   2.172 -1.4327 -0.4349 -1.4795
 3416TIP3    H210213   6.403   3.676   2.292 -0.2628 -1.5195 -0.6911
 3417TIP3   OH210214   3.755   4.967   2.060 -0.3220  0.3691  0.3649
 3417TIP3    H110215   3.739   4.893   2.001  2.8543 -0.4800  0.3980
 3417TIP3    H210216   3.716   4.941   2.143 -0.4418 -0.6472 -0.0019
 3418TIP3   OH210217   5.139   2.673   3.721 -0.2562  0.0473 -0.1340
 3418TIP3    H110218   5.123   2.579   3.717 -1.1726  0.2057 -0.4346
 3418TIP3    H210219   5.078   2.711   3.658 -0.9536  0.9652  1.0480
 3419TIP3   OH210220   2.644   6.081   2.370 -0.2407 -0.3084  0.0548
 3419TIP3    H110221   2.559   6.074   2.327 -0.9439  1.2441  1.1162
 3419TIP3    H210222   2.657   6.175   2.382  1.5231 -0.5331  0.1422
 3420TIP3   OH210223   0.357   5.399   1.665 -0.0443  0.3996  0.1076
 3420TIP3    H110224   0.336   5.307   1.682  1.1910 -0.1814 -1.3404
 3420TIP3    H210225   0.443   5.411   1.705 -0.2177  0.9588  0.3196
 3421TIP3   OH210226   0.552   5.587   3.302 -0.1008 -0.4720  0.2593
 3421TIP3    H110227   0.590   5.658   3.353 -1.6647  0.8051 -0.2649
 3421TIP3    H210228   0.461   5.581   3.332 -0.9682  0.0756 -1.9875
 3422TIP3   OH210229   3.301   6.708   0.413  0.2499  0.7467 -0.5185
 3422TIP3    H110230   3.369   6.642   0.400  0.1810  0.5010  0.3520
 3422TIP3    H210231   3.331   6.783   0.360  1.7429  1.0242  0.6513
 3423TIP3   OH210232   6.849   0.150   2.275 -0.0419 -0.3899 -0.7159
 3423TIP3    H110233   6.864   0.188   2.361 -2.8747 -1.8262  0.5308
 3423TIP3    H210234   6.852   0.225   2.215  0.8310  0.8023  0.7600
 3424TIP3   OH210235   3.025   4.903   2.321  0.1920  0.1710  0.5631
 3424TIP3    H110236   3.109   4.920   2.364  0.7725  1.0118 -0.7925
 3424TIP3    H210237   3.035   4.943   2.234 -1.4869 -0.0392  0.2361
 3425TIP3   OH210238   0.648   6.067   5.730 -0.2875 -0.8798 -0.7386
 3425TIP3    H110239   0.553   6.081   5.723 -0.2901  0.0142  0.6868
 3425TIP3    H210240   0.660   5.973   5.714 -1.6559 -1.3968  0.9081
 3426TIP3   OH210241   3.184   5.363   0.180 -0.0142  0.4606 -0.1938
 3426TIP3    H110242   3.100   5.323   0.156  0.2986 -0.2204 -0.1869
 3426TIP3    H210243   3.241   5.289   0.199  0.0915  0.9492  1.5424
 3427TIP3   OH210244   1.878   3.415   1.620  0.4963 -0.7443  0.8562
 3427TIP3    H110245   1.880   3.505   1.653  1.2042 -0.2880 -0.3722
 3427TIP3    H210246   1.785   3.400   1.599  0.0887 -0.9196  2.6064
 3428TIP3   OH210247   6.135   2.998   1.575 -0.0335  0.1893  0.1375
 3428TIP3    H110248   6.145   2.912   1.535  0.2796  1.1162 -1.9360
 3428TIP3    H210249   6.100   3.053   1.505 -1.0819  1.5612  1.6634
 3429TIP3   OH210250   2.900   5.207   0.449  0.3159 -0.5576 -0.3057
 3429TIP3    H110251   2.995   5.213   0.450  0.2640  0.3671 -0.0140
 3429TIP3    H210252   2.871   5.281   0.502 -0.5704 -0.6890 -0.5940
 3430TIP3   OH210253   3.242   4.067   2.072  0.1958 -0.2220 -0.4903
 3430TIP3    H110254   3.164   4.049   2.124 -2.1082  1.7009 -2.9904
 3430TIP3    H210255   3.288   4.135   2.121 -1.3171  0.7541 -0.3436
 3431TIP3   OH210256   3.316   5.097   2.200 -0.1401  0.4093 -0.1434
 3431TIP3    H110257   3.384   5.033   2.178  1.9973  2.1206  0.9755
 3431TIP3    H210258   3.306   5.149   2.120  0.1257  0.3273 -0.2324
 3432TIP3   OH210259   0.167   5.054   4.432  0.3723 -0.3315  0.2617
 3432TIP3    H110260   0.086   5.007   4.454  0.4312 -0.7738 -0.4217
 3432TIP3    H210261   0.195   5.094   4.514 -0.4460 -0.3220  0.5432
 3433TIP3   OH210262   5.675   0.619   3.609 -0.9194 -0.0757 -0.5297
 3433TIP3    H110263   5.644   0.534   3.637  0.3402 -0.4151 -0.0843
 3433TIP3    H210264   5.756   0.633   3.659 -1.2554  1.5120 -0.3580
 3434TIP3   OH210265   0.936   2.709   3.399  0.3692  0.4059  0.2615
 3434TIP3    H110266   0.942   2.740   3.309 -0.4235  2.6313  0.9200
 3434TIP3    H210267   1.023   2.671   3.417  1.2954  1.9369 -0.7522
 3435TIP3   OH210268   3.341   0.448   0.743 -0.0815  0.9928 -0.2493
 3435TIP3    H110269   3.388   0.531   0.734  3.4237 -0.8063 -0.0330
 3435TIP3    H210270   3.319   0.442   0.836 -2.1741  2.4756 -0.5799
 3436TIP3   OH210271   7.079   2.832   0.544  0.3810 -0.2474  0.0156
 3436TIP3    H110272   7.156   2.880   0.576  0.4427 -0.0004 -0.4922
 3436TIP3    H210273   7.005   2.889   0.566  0.2921 -0.7205  0.9627
 3437TIP3   OH210274   2.638   1.609   4.774 -0.6781  0.3812 -0.6932
 3437TIP3    H110275   2.727   1.574   4.786 -0.3054  0.8882 -1.8443
 3437TIP3    H210276   2.581   1.545   4.816  0.2701  0.3199  0.5448
 3438TIP3   OH210277   0.060   3.340   0.376 -0.7541 -0.1999  0.0962
 3438TIP3    H110278  -0.007   3.302   0.433 -0.1268 -0.1410  0.8844
 3438TIP3    H210279   0.072   3.429   0.409 -1.2536  0.2563 -0.9029
 3439TIP3   OH210280   6.415   0.069   4.561 -0.2245 -0.2638 -0.0756
 3439TIP3    H110281   6.364   0.091   4.483 -1.0501  1.3863  0.8679
 3439TIP3    H210282   6.355   0.087   4.634 -0.1634 -3.5414  0.9587
 3440TIP3   OH210283   6.680   4.048   0.875 -0.2524  0.1059 -0.2801
 3440TIP3    H110284   6.627   4.094   0.940  1.6333  1.7292  0.1906
 3440TIP3    H210285   6.639   4.070   0.791 -2.3635 -1.5433  0.2328
 3441TIP3   OH210286   2.728   5.828   2.427  0.3147 -0.4333 -0.3363
 3441TIP3    H110287   2.722   5.922   2.411  1.7051  0.0383  1.4702
 3441TIP3    H210288   2.657   5.809   2.488  0.9809 -0.1959  0.5398
 3442TIP3   OH210289   1.481   4.155   2.841 -0.4636 -0.1147 -0.3550
 3442TIP3    H110290   1.573   4.183   2.834 -1.3826  2.9344 -1.7400
 3442TIP3    H210291   1.468   4.100   2.763  0.1981 -0.7041 -0.0670
 3443TIP3   OH210292   1.226   5.063   3.345  0.3767  0.5380 -0.0394
 3443TIP3    H110293   1.297   5.023   3.396  0.3751 -1.3971 -1.4517
 3443TIP3    H210294   1.190   5.129   3.404  0.8446 -1.0587  2.2153
 3444TIP3   OH210295   3.506   4.465   3.504  0.0961  0.1758  0.1392
 3444TIP3    H110296   3.453   4.419   3.439  0.9975  0.0619 -0.5290
 3444TIP3    H210297   3.591   4.421   3.502  0.7761  1.4234 -0.0469
 3445TIP3   OH210298   7.212   1.485   3.431  0.1529 -0.0465  0.1534
 3445TIP3    H110299   7.134   1.446   3.392 -0.8281  1.5807  0.3773
 3445TIP3    H210300   7.182   1.520   3.515  1.9840 -2.5673  2.0224
 3446TIP3   OH210301   2.803   5.555   1.369  0.4084 -0.4816 -1.0029
 3446TIP3    H110302   2.884   5.504   1.361  0.2610 -0.4499 -4.5538
 3446TIP3    H210303   2.736   5.492   1.393  1.1372 -0.8828  0.0192
 3447TIP3   OH210304   3.981   2.797   4.259 -0.0357 -0.4332 -0.0328
 3447TIP3    H110305   3.913   2.730   4.261 -1.6696  1.1475  0.0193
 3447TIP3    H210306   4.041   2.773   4.330 -1.1731 -1.2227  0.6918
 3448TIP3   OH210307   5.468   2.251   3.060  0.2359  0.4423 -0.0292
 3448TIP3    H110308   5.458   2.302   2.979 -1.6333 -1.5048 -1.1298
 3448TIP3    H210309   5.382   2.212   3.074  0.9558 -0.5133  2.0943
 3449TIP3   OH210310   0.885   2.306   3.739 -0.0128 -0.3422  0.8169
 3449TIP3    H110311   0.856   2.226   3.783  0.2059 -0.2992  1.0438
 3449TIP3    H210312   0.824   2.318   3.667  1.2951 -1.9959 -0.6606
 3450TIP3   OH210313   2.417   1.765   5.293 -0.5590 -0.0024  0.3848
 3450TIP3    H110314   2.490   1.713   5.258 -1.2093 -1.0754  0.5893
 3450TIP3    H210315   2.400   1.831   5.225 -1.4860 -1.7482 -1.1644
 3451TIP3   OH210316   0.847   1.707   2.054 -0.4224  0.7698  0.7370
 3451TIP3    H110317   0.783   1.654   2.101  0.2522 -1.2723 -0.5507
 3451TIP3    H210318   0.827   1.693   1.962  1.1152  1.0853  0.3371
 3452TIP3   OH210319   1.830   3.683   0.559 -0.0227 -0.1945  0.4456
 3452TIP3    H110320   1.756   3.743   0.564  1.8903  2.3129  1.0180
 3452TIP3    H210321   1.811   3.627   0.483 -1.5744  1.6519 -0.6183
 3453TIP3   OH210322   1.076   4.385   0.370  0.1282  0.4953  0.7140
 3453TIP3    H110323   1.144   4.334   0.413 -0.0955 -0.3671  0.0782
 3453TIP3    H210324   1.031   4.430   0.441  1.3751  1.1172  1.1440
 3454TIP3   OH210325   4.601   6.697   4.889 -0.3227 -0.5238 -0.3906
 3454TIP3    H110326   4.612   6.705   4.984  1.1269  0.6158 -0.6230
 3454TIP3    H210327   4.592   6.603   4.874 -1.0418 -0.6837  0.9111
 3455TIP3   OH210328   3.560   3.229   1.199  0.1931 -0.2733  0.1463
 3455TIP3    H110329   3.579   3.236   1.106  0.4068 -0.3882  0.1796
 3455TIP3    H210330   3.494   3.160   1.205 -0.2304  0.1175  0.0308
 3456TIP3   OH210331   2.847   5.481   4.049  0.1063  0.0827 -0.7551
 3456TIP3    H110332   2.837   5.531   4.130 -1.7632 -0.6235 -0.5049
 3456TIP3    H210333   2.813   5.538   3.981 -1.5158 -0.5589 -0.5411
 3457TIP3   OH210334   5.381   4.939   0.140 -0.2534  0.6439 -0.8108
 3457TIP3    H110335   5.335   5.023   0.140  0.2889  0.9431 -1.1227
 3457TIP3    H210336   5.401   4.924   0.232 -4.4121 -1.4230 -0.0073
 3458TIP3   OH210337   0.746   0.893   2.381 -0.1619  0.0678  0.0086
 3458TIP3    H110338   0.784   0.820   2.431 -0.5220 -0.8100 -0.9636
 3458TIP3    H210339   0.811   0.913   2.315 -0.4921 -0.0506 -0.3554
 3459TIP3   OH210340   3.677   0.044   2.538  0.2669  0.3071 -1.0845
 3459TIP3    H110341   3.649   0.024   2.449 -0.3424 -0.2927 -0.7675
 3459TIP3    H210342   3.628  -0.018   2.593 -0.2774  1.4628 -0.2300
 3460TIP3   OH210343   5.774   5.814   1.677  0.8600  0.2647  0.6000
 3460TIP3    H110344   5.741   5.810   1.767 -0.2755  0.9794  0.2538
 3460TIP3    H210345   5.729   5.890   1.639  1.5138  0.1318 -0.4964
 3461TIP3   OH210346   2.099   3.677   4.011 -0.2627  0.4035  0.0976
 3461TIP3    H110347   2.056   3.602   4.052 -0.5802  0.2478 -0.5141
 3461TIP3    H210348   2.040   3.751   4.027 -0.0714  0.4761  0.4809
 3462TIP3   OH210349   3.612   1.170   5.082  0.1490  0.1790  0.1462
 3462TIP3    H110350   3.558   1.174   5.160 -0.1504  0.3522 -0.0661
 3462TIP3    H210351   3.572   1.101   5.028 -0.2541  0.7380 -0.2916
 3463TIP3   OH210352   1.706   6.321   3.596  0.1891  0.0573 -0.1047
 3463TIP3    H110353   1.657   6.358   3.523  0.4934 -1.3236 -1.0475
 3463TIP3    H210354   1.640   6.277   3.650 -0.0516  1.1767  0.5421
 3464TIP3   OH210355   4.988   3.322   4.892  0.0787 -0.2327  0.2223
 3464TIP3    H110356   4.952   3.236   4.915 -0.2050  0.1134  1.1199
 3464TIP3    H210357   5.057   3.337   4.956  2.7689 -1.4192 -2.1886
 3465TIP3   OH210358   1.774   5.840   2.692 -0.0992 -0.4565 -0.4408
 3465TIP3    H110359   1.771   5.763   2.635  0.6041 -0.9465  0.1658
 3465TIP3    H210360   1.713   5.901   2.652  0.5398 -0.6932 -1.8569
 3466TIP3   OH210361   0.460   0.563   2.593  0.6298  0.4451  0.1213
 3466TIP3    H110362   0.517   0.618   2.646  0.2461  0.6949  0.2766
 3466TIP3    H210363   0.388   0.620   2.567 -1.2243 -0.6440  2.5179
 3467TIP3   OH210364   0.877   1.778   0.560  0.0164 -0.0792 -0.8570
 3467TIP3    H110365   0.938   1.767   0.634 -1.0506 -0.6350 -0.0277
 3467TIP3    H210366   0.833   1.693   0.554 -1.9144  0.8467 -0.3051
 3468TIP3   OH210367   3.704   3.735   0.980  0.0255 -0.4280 -0.6996
 3468TIP3    H110368   3.698   3.783   1.063 -0.5773 -0.4703 -0.7162
 3468TIP3    H210369   3.737   3.800   0.918  0.3990 -0.3735 -0.4487
 3469TIP3   OH210370   3.601   2.306   2.191 -0.2107 -0.6717 -0.0493
 3469TIP3    H110371   3.556   2.321   2.274 -3.2208  2.0955 -1.9802
 3469TIP3    H210372   3.674   2.368   2.191  0.1108 -1.0389  0.6898
 3470TIP3   OH210373   0.940   2.799   3.151 -0.5243 -0.2890  0.4121
 3470TIP3    H110374   0.995   2.737   3.103 -0.8676 -0.0720 -0.2609
 3470TIP3    H210375   0.879   2.833   3.086 -0.6976  0.3505  0.9023
 3471TIP3   OH210376   2.162   1.907   0.743 -0.4822 -0.0261  0.1634
 3471TIP3    H110377   2.191   1.991   0.708  0.1352  0.2645  1.3127
 3471TIP3    H210378   2.084   1.927   0.794  0.8242  0.2408  2.1571
 3472TIP3   OH210379   4.070   2.253   0.172 -0.0455  0.2935  0.0770
 3472TIP3    H110380   4.033   2.310   0.239 -1.8627 -1.2331  0.4477
 3472TIP3    H210381   4.154   2.225   0.209  0.3168  1.7375  0.4063
 3473TIP3   OH210382   0.336   0.286   2.399 -0.4529  0.1315 -0.0403
 3473TIP3    H110383   0.384   0.242   2.329  0.6831  0.5688  0.4309
 3473TIP3    H210384   0.321   0.218   2.465  1.6547  0.4663  0.8673
 3474TIP3   OH210385   5.168   6.412   3.794 -0.5515 -0.3297 -0.0564
 3474TIP3    H110386   5.171   6.500   3.831 -0.0308  0.7639 -2.4600
 3474TIP3    H210387   5.091   6.413   3.736  1.5573 -0.0378 -3.0842
 3475TIP3   OH210388   1.511   2.097   5.061 -0.1148 -0.2845 -0.3570
 3475TIP3    H110389   1.501   2.017   5.009 -1.7182  0.7227 -1.6826
 3475TIP3    H210390   1.583   2.144   5.019 -1.1202  0.3203 -1.4732
 3476TIP3   OH210391   0.393   0.428   4.569  0.2391 -0.4865  0.7056
 3476TIP3    H110392   0.305   0.447   4.603  0.4542  3.8622 -0.5670
 3476TIP3    H210393   0.377   0.371   4.493 -1.3209 -0.7759  1.2016
 3477TIP3   OH210394   1.644   4.581   3.023  0.4170 -0.6022  0.0414
 3477TIP3    H110395   1.687   4.605   3.105  0.1016  1.2315 -0.2976
 3477TIP3    H210396   1.712   4.593   2.956 -0.5795  2.7594 -0.5599
 3478TIP3   OH210397   6.445   4.972   0.186  0.5270  0.2890 -0.6966
 3478TIP3    H110398   6.527   4.939   0.149  0.7113  0.5045 -0.4844
 3478TIP3    H210399   6.438   5.062   0.152  0.4598  0.3250 -0.5874
 3479TIP3   OH210400   3.697   2.793   4.069  0.3230 -0.0175 -0.1204
 3479TIP3    H110401   3.709   2.734   4.143  1.0967  0.7913  0.4260
 3479TIP3    H210402   3.710   2.739   3.992 -1.7645 -1.1743  0.2628
 3480TIP3   OH210403   2.341   1.006   4.214  0.1859  0.3476  0.2218
 3480TIP3    H110404   2.289   0.931   4.243  1.9503 -1.6379 -1.3663
 3480TIP3    H210405   2.384   1.038   4.293 -1.1863  0.2322  1.0572
 3481TIP3   OH210406   3.675   5.161   3.536 -0.0422  0.1360  0.2179
 3481TIP3    H110407   3.692   5.138   3.445 -2.0415 -0.3508 -0.0797
 3481TIP3    H210408   3.693   5.081   3.585 -2.1458 -0.6684 -0.2069
 3482TIP3   OH210409   2.744   5.355   0.611  0.4310 -0.2384 -0.0415
 3482TIP3    H110410   2.657   5.389   0.587  0.8586 -0.7943 -2.7093
 3482TIP3    H210411   2.726   5.296   0.685 -1.3740  0.1277 -0.1254
 3483TIP3   OH210412   6.439   4.684   1.188 -0.1288  0.7576 -0.0961
 3483TIP3    H110413   6.430   4.747   1.116 -1.5296  1.8060  0.9600
 3483TIP3    H210414   6.418   4.734   1.267 -0.8698 -0.9365  0.8216
 3484TIP3   OH210415   3.789   4.397   5.583  0.1125  0.5350  0.1736
 3484TIP3    H110416   3.716   4.405   5.644  0.2270  0.6034  0.3006
 3484TIP3    H210417   3.819   4.487   5.569 -0.4237  0.6044 -0.6032
 3485TIP3   OH210418   0.874   3.734   2.759  0.0473  0.1230 -0.1250
 3485TIP3    H110419   0.919   3.664   2.711  0.9674  0.1362  0.6974
 3485TIP3    H210420   0.931   3.810   2.751  0.0524  0.2183  0.6763
 3486TIP3   OH210421   0.451   6.258   3.044  0.1982 -0.3308 -0.1774
 3486TIP3    H110422   0.499   6.319   2.989 -1.6778  1.0912 -0.3366
 3486TIP3    H210423   0.435   6.306   3.126 -0.4849 -0.9424  0.0621
 3487TIP3   OH210424   3.309   2.257   4.491  0.0699 -0.1802 -0.5464
 3487TIP3    H110425   3.311   2.344   4.453  0.4767  0.3069  0.5669
 3487TIP3    H210426   3.311   2.198   4.416  0.7922  0.7556 -1.2759
 3488TIP3   OH210427   5.711   1.049   0.201 -0.3992  0.1590  0.0326
 3488TIP3    H110428   5.747   1.064   0.288 -0.9554 -1.3505  0.5408
 3488TIP3    H210429   5.628   1.097   0.201  0.2009  1.2434 -0.1483
 3489TIP3   OH210430   4.724   5.848   2.575 -0.0505 -0.0513 -0.3368
 3489TIP3    H110431   4.710   5.841   2.670 -0.7633 -0.7381 -0.4827
 3489TIP3    H210432   4.772   5.930   2.564  1.6903 -0.8581  0.7885
 3490TIP3   OH210433   1.288   5.878   1.661 -0.0846 -0.0262  0.2189
 3490TIP3    H110434   1.314   5.843   1.575  0.1566 -1.0840  0.7120
 3490TIP3    H210435   1.261   5.802   1.711 -0.2625  0.5886  1.0828
 3491TIP3   OH210436   5.463   1.081   4.709 -0.8297  0.1049  0.2833
 3491TIP3    H110437   5.436   1.073   4.801 -0.9714  0.6287  0.2899
 3491TIP3    H210438   5.407   1.020   4.662 -0.8747 -0.0422  0.5272
 3492TIP3   OH210439   6.050   3.023   3.774  0.0150 -0.2529  1.0198
 3492TIP3    H110440   5.982   3.053   3.834 -1.1115 -1.9836  0.6778
 3492TIP3    H210441   6.088   3.103   3.738 -0.8685  0.7708  2.2794
 3493TIP3   OH210442   1.766   2.904   0.565 -0.3079 -0.3302 -0.3383
 3493TIP3    H110443   1.692   2.958   0.594  0.4263  0.1850  0.6735
 3493TIP3    H210444   1.833   2.967   0.540  0.0206 -0.7875 -0.6279
 3494TIP3   OH210445   4.338  -0.021   0.996 -0.5882 -0.7961  0.8990
 3494TIP3    H110446   4.399  -0.035   1.068 -0.1361 -0.4208  0.5957
 3494TIP3    H210447   4.361   0.065   0.961 -1.3121 -0.6361  0.7988
 3495TIP3   OH210448   3.705   3.972   5.537 -0.2684 -0.3060  0.2068
 3495TIP3    H110449   3.764   3.979   5.612  1.8264 -1.2104 -1.2772
 3495TIP3    H210450   3.719   4.052   5.487 -1.9373  0.4721  0.8819
 3496TIP3   OH210451   0.610   1.687   1.298  0.7183  0.0835 -0.2230
 3496TIP3    H110452   0.673   1.618   1.319  0.6289  0.2866  0.7368
 3496TIP3    H210453   0.612   1.745   1.373 -3.4631 -1.9329  1.7987
 3497TIP3   OH210454   3.539   2.795   0.129 -0.6310 -0.0723  0.8426
 3497TIP3    H110455   3.576   2.876   0.095 -0.6757  0.0145  1.0001
 3497TIP3    H210456   3.511   2.817   0.218 -0.2435 -0.3743  1.0410
 3498TIP3   OH210457   1.529   6.446   4.856 -0.4624  0.1822 -0.5406
 3498TIP3    H110458   1.606   6.432   4.800  0.2293  1.0076  0.1712
 3498TIP3    H210459   1.458   6.463   4.795 -0.6018 -2.6146 -1.3380
 3499TIP3   OH210460   0.910   5.902   5.012  0.0176 -0.0077 -0.1881
 3499TIP3    H110461   0.908   5.876   5.104 -2.6832  1.1944  0.1854
 3499TIP3    H210462   0.912   5.998   5.014 -2.7003  0.1698 -1.2288
 3500TIP3   OH210463   6.029   5.329   1.712 -0.8469 -0.5212 -0.2386
 3500TIP3    H110464   5.971   5.404   1.700 -0.0742  0.2108  0.4932
 3500TIP3    H210465   5.979   5.254   1.679 -1.6019  0.3198 -1.0305
 3501TIP3   OH210466   6.316   1.307   5.595 -0.2194  0.2323 -0.7685
 3501TIP3    H110467   6.324   1.400   5.574 -0.9487  0.7395  1.0429
 3501TIP3    H210468   6.281   1.267   5.515  0.8815  1.3451 -1.8497
 3502TIP3   OH210469   3.286   4.615   0.051 -0.5152 -0.2882  0.3789
 3502TIP3    H110470   3.272   4.671   0.127 -1.5934 -1.2740  0.9301
 3502TIP3    H210471   3.373   4.640   0.018  0.8611 -1.1921  3.0559
 3503TIP3   OH210472   5.437   1.265   0.931 -0.0983  0.4201  0.0699
 3503TIP3    H110473   5.347   1.298   0.936 -0.6251 -1.0845  1.1847
 3503TIP3    H210474   5.476   1.290   1.015  0.7885  1.6667 -0.6740
 3504TIP3   OH210475   2.328   0.719   1.719 -0.0723  0.3799 -0.1204
 3504TIP3    H110476   2.275   0.797   1.701 -2.9466 -1.5076 -0.5090
 3504TIP3    H210477   2.317   0.665   1.641 -0.6023 -1.6555  1.2938
 3505TIP3   OH210478   0.676   0.296   0.901 -0.4046 -0.5024  0.0216
 3505TIP3    H110479   0.709   0.259   0.982 -1.7965  2.5944  2.2013
 3505TIP3    H210480   0.746   0.354   0.871  0.0176 -1.4756 -0.9693
 3506TIP3   OH210481   4.667   1.188   5.310  0.1325  0.7441  0.7617
 3506TIP3    H110482   4.587   1.232   5.337  1.2955  3.2133  0.4519
 3506TIP3    H210483   4.737   1.251   5.329  2.1852 -1.7164  2.1006
 3507TIP3   OH210484   1.955   2.991   2.665  0.6507  0.0258  0.0480
 3507TIP3    H110485   1.965   2.931   2.591 -0.8002 -0.0665 -0.1059
 3507TIP3    H210486   1.915   3.069   2.628 -2.7133 -1.0127  1.0436
 3508TIP3   OH210487   5.436   3.039   0.771 -0.0961 -0.2575 -0.3279
 3508TIP3    H110488   5.529   3.059   0.765 -0.4043  1.6547  0.5569
 3508TIP3    H210489   5.399   3.110   0.824 -2.2088 -0.4750 -1.3845
 3509TIP3   OH210490   3.669   6.181   4.051 -0.1913  0.2799 -0.0240
 3509TIP3    H110491   3.676   6.157   4.143 -2.5672  0.4248  0.2594
 3509TIP3    H210492   3.655   6.098   4.005 -0.2602  0.3191 -0.0749
 3510TIP3   OH210493   5.702   5.609   1.474  0.2019  0.0055  0.2352
 3510TIP3    H110494   5.777   5.568   1.432 -0.2666  1.0229 -1.7190
 3510TIP3    H210495   5.739   5.681   1.525  0.9192 -2.0778  2.8526
 3511TIP3   OH210496   6.527   2.221   5.402 -0.6313  0.0635  0.1759
 3511TIP3    H110497   6.562   2.255   5.484  1.9723 -2.1055  0.1058
 3511TIP3    H210498   6.595   2.239   5.337 -0.6532 -2.0671 -0.5345
 3512TIP3   OH210499   0.010   3.806   3.033  0.1434  0.2545 -0.2764
 3512TIP3    H110500   0.074   3.780   2.967 -1.3037 -0.3358 -1.5046
 3512TIP3    H210501  -0.024   3.890   3.001  0.1051  0.4397  0.2384
 3513TIP3   OH210502   3.264   3.720   5.642 -0.0584  0.5347 -0.1371
 3513TIP3    H110503   3.315   3.728   5.723  2.7755 -0.0815 -1.7279
 3513TIP3    H210504   3.235   3.809   5.624  2.1869  1.3385 -0.1311
 3514TIP3   OH210505   2.903   6.240   3.690 -0.0971  0.1030  0.0980
 3514TIP3    H110506   2.902   6.149   3.719 -2.0813 -0.5278 -1.6683
 3514TIP3    H210507   2.882   6.291   3.768 -2.0171 -1.2389  0.5096
 3515TIP3   OH210508   1.135   0.845   3.649  0.4281  0.4247  0.1953
 3515TIP3    H110509   1.042   0.824   3.656 -0.3711  3.9388  2.9821
 3515TIP3    H210510   1.178   0.788   3.712 -0.0980  0.0589  0.2288
 3516TIP3   OH210511   6.213   0.920   1.963 -0.7531 -0.2337  0.3452
 3516TIP3    H110512   6.122   0.947   1.956 -0.5415  0.3352 -0.3323
 3516TIP3    H210513   6.260   0.975   1.900  0.2832  0.4836  1.6837
 3517TIP3   OH210514   5.805   1.515   0.767  0.6353 -0.0237  0.3166
 3517TIP3    H110515   5.817   1.450   0.835  0.8557 -1.2748 -0.8793
 3517TIP3    H210516   5.711   1.534   0.768  0.3223 -1.4448 -0.2632
 3518TIP3   OH210517   4.200   0.035   5.403 -0.5763 -0.4919  0.2057
 3518TIP3    H110518   4.232   0.010   5.490  2.4425 -2.1849 -1.2370
 3518TIP3    H210519   4.226   0.126   5.394 -1.3363 -0.1548  1.2116
 3519TIP3   OH210520   3.431   1.489   2.717 -0.2569 -0.4710  0.4031
 3519TIP3    H110521   3.341   1.495   2.749  0.0401  2.2597  0.9696
 3519TIP3    H210522   3.458   1.580   2.704  1.8647 -1.2799 -1.4341
 3520TIP3   OH210523   3.413   1.412   3.690 -0.1756  0.0808 -0.0918
 3520TIP3    H110524   3.499   1.426   3.650  0.5156 -0.0392  1.3016
 3520TIP3    H210525   3.370   1.349   3.632  1.0338 -0.5513 -0.3382
 3521TIP3   OH210526   4.030   4.464   0.163 -0.2898  0.2777 -0.1363
 3521TIP3    H110527   4.068   4.376   0.169 -2.7122 -0.8803 -0.6149
 3521TIP3    H210528   4.074   4.504   0.088 -0.2038 -1.0977 -0.8500
 3522TIP3   OH210529   4.003   1.982   4.051 -0.7283 -0.0463 -0.4947
 3522TIP3    H110530   4.088   2.021   4.033 -1.3230  1.0499 -1.0017
 3522TIP3    H210531   3.998   1.905   3.994 -0.5401  0.5363 -1.2982
 3523TIP3   OH210532   1.689   4.354   0.760 -0.3201  0.1590  0.4513
 3523TIP3    H110533   1.655   4.265   0.766 -0.5222  0.2853  1.2174
 3523TIP3    H210534   1.624   4.408   0.805 -0.8121  0.8749 -1.0474
 3524TIP3   OH210535   1.959   2.399   2.305  0.3030  0.1105 -0.1431
 3524TIP3    H110536   1.911   2.474   2.269 -1.5917 -0.7307  0.4838
 3524TIP3    H210537   1.964   2.417   2.399 -2.2559 -1.5499  0.4021
 3525TIP3   OH210538   1.250   1.918   4.129 -0.0232  0.2304  0.1401
 3525TIP3    H110539   1.247   1.874   4.045  1.8267  1.0277 -0.3939
 3525TIP3    H210540   1.258   1.848   4.193 -0.0238 -0.3114 -0.4467
 3526TIP3   OH210541   3.150   6.161   1.629  0.5760  0.2189 -0.6065
 3526TIP3    H110542   3.068   6.206   1.646 -0.3261 -1.6457  0.2435
 3526TIP3    H210543   3.204   6.178   1.706  0.3066 -0.0016 -0.3680
 3527TIP3   OH210544   3.386   6.783   4.208  0.0054 -0.0550 -0.4378
 3527TIP3    H110545   3.469   6.735   4.210 -0.8655 -1.6015  1.2768
 3527TIP3    H210546   3.325   6.723   4.166 -0.5613  0.5656 -0.5203
 3528TIP3   OH210547   5.107   0.238   5.600 -0.0635  0.9244 -0.0670
 3528TIP3    H110548   5.105   0.308   5.534 -0.8982  0.5497 -0.4487
 3528TIP3    H210549   5.016   0.229   5.628  0.0254 -0.0777 -0.0819
 3529TIP3   OH210550   6.980   4.896   3.967  0.4153 -0.1689  0.6515
 3529TIP3    H110551   7.020   4.970   4.013 -0.3457 -0.3483  1.6510
 3529TIP3    H210552   6.908   4.935   3.917  0.8197 -0.0679  0.1372
 3530TIP3   OH210553   5.469   2.537   1.058 -0.1120  0.6457  0.0924
 3530TIP3    H110554   5.459   2.618   1.007  0.9926  0.1085 -1.0328
 3530TIP3    H210555   5.481   2.469   0.992 -1.6751 -0.5622  0.9997
 3531TIP3   OH210556   0.185   0.955   4.172 -0.5590  0.8134 -0.2285
 3531TIP3    H110557   0.172   0.974   4.265  0.5251  0.3737  0.0250
 3531TIP3    H210558   0.275   0.924   4.166 -0.2490  1.8672 -1.5896
 3532TIP3   OH210559   7.161   4.260   2.163 -0.3005 -0.1703 -0.4127
 3532TIP3    H110560   7.192   4.184   2.113 -0.0939 -0.1752 -0.2753
 3532TIP3    H210561   7.175   4.334   2.103  0.4147 -0.1070 -0.1798
 3533TIP3   OH210562   6.574   0.055   2.075  0.1671  0.9075  0.0474
 3533TIP3    H110563   6.483   0.061   2.045  0.1281 -1.2207 -0.3721
 3533TIP3    H210564   6.620   0.121   2.022 -0.8871  1.0892 -0.6956
 3534TIP3   OH210565   0.446   3.199   0.576 -0.7718 -0.5362 -0.9678
 3534TIP3    H110566   0.401   3.209   0.660 -0.0352 -1.1480 -0.4913
 3534TIP3    H210567   0.431   3.108   0.551  1.2410 -1.1239 -0.1771
 3535TIP3   OH210568   6.372   5.871   1.906  0.0073 -0.0487  0.0677
 3535TIP3    H110569   6.343   5.792   1.859  1.2651 -0.5977  0.1713
 3535TIP3    H210570   6.364   5.847   1.999  3.3354 -1.3071  0.1772
 3536TIP3   OH210571   5.713   4.720   2.544 -0.7011 -0.7390  0.4331
 3536TIP3    H110572   5.663   4.639   2.535  0.2501 -1.4653  1.3952
 3536TIP3    H210573   5.800   4.698   2.509  0.4093 -1.0240  3.1485
 3537TIP3   OH210574   6.251   2.112   0.524  0.1211 -0.7167  0.3579
 3537TIP3    H110575   6.191   2.124   0.450  0.0498  0.4182  0.5940
 3537TIP3    H210576   6.210   2.043   0.577 -0.2889 -0.8907 -0.1773
 3538TIP3   OH210577   5.440   2.116   4.105  0.2777  0.2500  0.8048
 3538TIP3    H110578   5.498   2.107   4.030  0.1938 -0.2303  0.7920
 3538TIP3    H210579   5.465   2.044   4.163 -0.9559 -0.5902  0.3501
 3539TIP3   OH210580   5.569   1.910   2.790  0.3858 -0.3196 -0.4385
 3539TIP3    H110581   5.521   1.885   2.711 -0.8716  0.4737  0.0387
 3539TIP3    H210582   5.511   1.886   2.862 -0.6485  3.1673  0.0850
 3540TIP3   OH210583   2.978   3.822   2.746  0.3609  0.4469  0.0744
 3540TIP3    H110584   3.019   3.743   2.782 -1.3898 -0.2866  0.5700
 3540TIP3    H210585   2.885   3.801   2.742  0.1945  1.3461 -2.7776
 3541TIP3   OH210586   5.104   1.963   3.395  0.0295  0.0506  0.1752
 3541TIP3    H110587   5.189   1.923   3.377  0.8402  2.8461 -3.1802
 3541TIP3    H210588   5.123   2.036   3.453 -0.0416  0.6275 -0.5094
 3542TIP3   OH210589   6.397   1.634   4.632 -0.2615 -0.3167 -0.4213
 3542TIP3    H110590   6.371   1.675   4.715 -1.7735 -0.2353 -0.8998
 3542TIP3    H210591   6.371   1.543   4.641  1.6995 -0.8830  0.0468
 3543TIP3   OH210592   2.649   2.927   1.770 -0.5705  0.4235  0.3609
 3543TIP3    H110593   2.559   2.944   1.743 -0.3994  1.9844  0.6760
 3543TIP3    H210594   2.684   3.013   1.794  1.6718  0.2293 -1.7861
 3544TIP3   OH210595   1.386   1.890   0.728 -0.3725 -0.5609 -0.1336
 3544TIP3    H110596   1.443   1.915   0.800 -0.6697  0.2650 -0.1750
 3544TIP3    H210597   1.370   1.797   0.741 -0.4408 -0.4139  0.8683
 3545TIP3   OH210598   3.506   0.997   0.273 -0.1938  0.3493 -0.2774
 3545TIP3    H110599   3.491   1.036   0.187  1.8027  1.2248 -0.2618
 3545TIP3    H210600   3.509   1.071   0.333  0.0340 -0.1346  0.3193
 3546TIP3   OH210601   6.686   4.570   2.303  0.2061 -0.4248 -0.2151
 3546TIP3    H110602   6.598   4.579   2.265  0.4037 -2.1361 -1.1741
 3546TIP3    H210603   6.707   4.658   2.335 -2.7076 -0.3984  2.0367
 3547TIP3   OH210604   5.014   1.961   0.850  0.8316  0.4230  0.1023
 3547TIP3    H110605   5.088   2.021   0.860  1.8965 -0.3487 -2.3458
 3547TIP3    H210606   5.024   1.897   0.921  0.6717  2.0828  1.6776
 3548TIP3   OH210607   6.544   4.176   2.476 -0.1493  0.2959 -0.4629
 3548TIP3    H110608   6.479   4.192   2.408 -1.3460 -1.5337  0.1656
 3548TIP3    H210609   6.578   4.088   2.457 -1.7091 -1.0028  2.1208
 3549TIP3   OH210610   5.070   4.918   3.409  0.3148  0.4123 -0.1281
 3549TIP3    H110611   4.980   4.950   3.404  0.3200  0.2896 -2.7744
 3549TIP3    H210612   5.061   4.823   3.398  0.7403  0.3987 -0.3619
 3550TIP3   OH210613   2.031   6.458   0.567 -0.0202  0.6335 -0.1644
 3550TIP3    H110614   2.038   6.538   0.619 -0.6758 -0.5312  1.8446
 3550TIP3    H210615   2.120   6.425   0.561  0.0842  0.8755  0.0545
 3551TIP3   OH210616   0.648   3.924   0.590  0.4164  0.3907 -0.2323
 3551TIP3    H110617   0.722   3.923   0.650 -0.0161 -0.3846  0.2906
 3551TIP3    H210618   0.571   3.924   0.646  0.0053  0.9726 -0.7773
 3552TIP3   OH210619   1.443   6.241   0.528 -0.1979  0.0634  0.1951
 3552TIP3    H110620   1.463   6.208   0.441 -0.1854  2.6034 -0.8576
 3552TIP3    H210621   1.520   6.218   0.581  0.9267  0.6330 -1.1264
 3553TIP3   OH210622   4.182   1.634   4.943  0.3410  0.3347 -0.5207
 3553TIP3    H110623   4.169   1.720   4.984  1.0434 -0.7738  2.2023
 3553TIP3    H210624   4.099   1.589   4.956  0.5976 -0.0595 -0.2520
 3554TIP3   OH210625   5.580   4.417   1.845  0.3216  0.4456  0.0191
 3554TIP3    H110626   5.667   4.431   1.809 -1.1175  2.7752 -3.1022
 3554TIP3    H210627   5.527   4.389   1.770 -1.5708 -1.5150  1.9141
 3555TIP3   OH210628   6.890   5.489   2.871 -0.5287  0.2498  0.1021
 3555TIP3    H110629   6.925   5.415   2.921  0.6766  0.8287  0.1686
 3555TIP3    H210630   6.968   5.530   2.833 -1.2912  0.7867 -0.8979
 3556TIP3   OH210631   1.323   2.753   2.036 -0.0978  0.0711  0.1380
 3556TIP3    H110632   1.362   2.840   2.046 -0.4542  0.2636 -0.1057
 3556TIP3    H210633   1.258   2.764   1.966  2.0196 -1.0922 -2.1728
 3557TIP3   OH210634   4.409   3.066   3.154 -0.1581  0.0263 -0.1992
 3557TIP3    H110635   4.389   3.007   3.081  0.1205 -1.5192  0.9159
 3557TIP3    H210636   4.338   3.129   3.154 -0.3678 -0.1818 -1.5631
 3558TIP3   OH210637   2.148   4.472   4.293  0.4804 -0.4347 -0.1739
 3558TIP3    H110638   2.064   4.434   4.320 -0.5932  1.0756 -1.1501
 3558TIP3    H210639   2.184   4.511   4.373 -0.3707 -0.0502  0.0397
 3559TIP3   OH210640   0.561   0.764   4.472 -0.2528  0.7619 -0.2515
 3559TIP3    H110641   0.532   0.724   4.554  1.2941  0.1949  0.0375
 3559TIP3    H210642   0.655   0.750   4.470  0.3668  4.1670 -0.2822
 3560TIP3   OH210643   3.186   6.683   2.563 -0.0828  0.3276  0.1839
 3560TIP3    H110644   3.170   6.759   2.507 -0.2172  1.3611  1.5899
 3560TIP3    H210645   3.115   6.623   2.542  0.6030  0.1008 -1.6949
 3561TIP3   OH210646   0.577   0.402   5.090  0.2497 -0.2912 -0.1684
 3561TIP3    H110647   0.520   0.476   5.112 -0.4609 -0.5956 -0.9575
 3561TIP3    H210648   0.643   0.439   5.031  1.9985  0.4680  2.0964
 3562TIP3   OH210649   1.563   0.679   3.761 -0.4202  0.3297 -0.1898
 3562TIP3    H110650   1.549   0.725   3.678 -0.5330 -0.4802 -0.6394
 3562TIP3    H210651   1.475   0.666   3.796 -0.7244 -2.3976 -1.6934
 3563TIP3   OH210652   4.530   5.599   2.991 -0.5834 -0.0722  0.4701
 3563TIP3    H110653   4.510   5.593   2.898 -1.2622  0.0351  0.6041
 3563TIP3    H210654   4.621   5.628   2.995  0.0744 -1.9008 -0.1728
 3564TIP3   OH210655   0.539   4.293   2.915 -0.1129 -0.5268 -0.2966
 3564TIP3    H110656   0.525   4.296   2.820  0.4529 -0.9026 -0.3929
 3564TIP3    H210657   0.451   4.301   2.952 -0.6233 -2.7434 -0.8925
 3565TIP3   OH210658   1.001   6.582   1.846 -0.4622 -0.0571 -0.0338
 3565TIP3    H110659   1.035   6.639   1.777  2.5450 -0.1904  1.1915
 3565TIP3    H210660   0.920   6.624   1.874 -0.1220  1.6930 -1.5090
 3566TIP3   OH210661   5.318   0.415   4.791 -0.2751  0.1718  0.1168
 3566TIP3    H110662   5.352   0.498   4.825  2.2065 -0.4759 -0.5754
 3566TIP3    H210663   5.396   0.360   4.780 -1.7750 -2.0274 -0.0923
 3567TIP3   OH210664   3.924   1.709   3.605  0.4017 -0.1199 -0.0457
 3567TIP3    H110665   4.017   1.689   3.593  0.6405  0.5040  0.6877
 3567TIP3    H210666   3.894   1.644   3.668  1.1718  1.6838  2.3196
 3568TIP3   OH210667   4.943   5.415   4.973  0.2306 -0.3923  0.3357
 3568TIP3    H110668   4.901   5.343   5.020 -0.6268 -0.1244 -0.0016
 3568TIP3    H210669   4.973   5.474   5.042 -1.4414  0.2319  0.5604
 3569TIP3   OH210670   6.825   4.101   4.571 -0.2847  0.0836 -0.3868
 3569TIP3    H110671   6.812   4.044   4.495  0.3742  0.9206 -1.1529
 3569TIP3    H210672   6.853   4.042   4.641 -0.1257 -0.6048 -1.0207
 3570TIP3   OH210673   0.706   6.196   4.957  0.0915 -0.3437  0.1756
 3570TIP3    H110674   0.661   6.211   5.041  0.2950 -1.5043  0.5095
 3570TIP3    H210675   0.798   6.209   4.977 -0.0089  1.3867 -0.3591
 3571TIP3   OH210676   2.313   2.346   4.853  0.1734  0.1294  0.4636
 3571TIP3    H110677   2.337   2.407   4.784 -1.7365 -0.8221 -1.1480
 3571TIP3    H210678   2.298   2.263   4.808 -2.2779 -0.2509  1.8075
 3572TIP3   OH210679   4.667   3.085   3.055 -0.2819 -0.7544  0.1080
 3572TIP3    H110680   4.609   3.106   3.128  0.7747 -0.1410  0.8176
 3572TIP3    H210681   4.618   3.024   3.000 -0.8555 -1.7658  1.6915
 3573TIP3   OH210682   5.584   0.386   3.171  0.6639  0.1668 -0.4205
 3573TIP3    H110683   5.625   0.442   3.105  1.9274 -1.6999 -1.2998
 3573TIP3    H210684   5.656   0.333   3.206 -0.6397 -1.8477 -0.6031
 3574TIP3   OH210685   3.123   3.142   4.368 -0.2213 -0.6382 -0.0508
 3574TIP3    H110686   3.126   3.121   4.275  2.7210 -0.6765 -0.0160
 3574TIP3    H210687   3.112   3.237   4.372  2.8052 -0.1873 -0.5809
 3575TIP3   OH210688   6.122   4.870   1.252 -0.8715  0.3923 -0.4702
 3575TIP3    H110689   6.138   4.798   1.312  2.6464  1.4596  0.0814
 3575TIP3    H210690   6.028   4.888   1.260 -0.8871 -0.6134  3.4388
 3576TIP3   OH210691   0.628   6.039   5.182 -0.0349 -0.2578  0.0903
 3576TIP3    H110692   0.585   5.984   5.247 -0.7072 -0.4233 -0.4937
 3576TIP3    H210693   0.656   5.979   5.113  1.8504 -0.2767  0.8018
 3577TIP3   OH210694   3.633   5.129   0.190 -0.2417 -0.2407 -0.0790
 3577TIP3    H110695   3.654   5.123   0.097  0.3205  1.3332 -0.0775
 3577TIP3    H210696   3.709   5.172   0.230 -0.9040  0.0282  0.9377
 3578TIP3   OH210697   0.054   0.430   3.281 -0.2859 -0.0633 -0.0587
 3578TIP3    H110698  -0.017   0.366   3.283 -0.4197  0.0804 -0.2051
 3578TIP3    H210699   0.132   0.377   3.264 -0.2880 -0.2784  0.5763
 3579TIP3   OH210700   6.175   2.787   0.505 -0.0434 -0.5144  0.2144
 3579TIP3    H110701   6.237   2.723   0.540  1.7315 -0.9682 -3.2784
 3579TIP3    H210702   6.112   2.734   0.456  0.1145  0.2261 -0.8228
 3580TIP3   OH210703   3.449   5.220   4.675 -0.1233 -0.4906 -0.5182
 3580TIP3    H110704   3.364   5.228   4.632 -1.1388 -1.0565  1.2702
 3580TIP3    H210705   3.502   5.171   4.612  0.5535  3.8714 -3.7849
 3581TIP3   OH210706   5.012   1.170   5.123 -0.0402 -0.6734  0.0538
 3581TIP3    H110707   5.078   1.236   5.102 -1.4824  0.7352 -0.1724
 3581TIP3    H210708   4.956   1.212   5.188 -0.7101 -1.8533  0.2628
 3582TIP3   OH210709   3.438   5.270   2.610 -0.5972 -0.6906 -0.0542
 3582TIP3    H110710   3.399   5.243   2.693 -0.1064  0.4677  0.5826
 3582TIP3    H210711   3.492   5.346   2.633  1.8706 -2.0908 -0.9437
 3583TIP3   OH210712   2.470   5.150   0.787 -0.0573  0.1721 -0.3472
 3583TIP3    H110713   2.425   5.121   0.866  1.5127 -0.4405  0.3579
 3583TIP3    H210714   2.475   5.071   0.732 -0.5282  0.4285 -0.7700
 3584TIP3   OH210715   1.960   4.801   0.946 -0.2082  0.3591  0.3974
 3584TIP3    H110716   1.874   4.824   0.911 -0.7181 -0.5219  1.0181
 3584TIP3    H210717   1.977   4.869   1.012 -0.7107  0.2109  0.6905
 3585TIP3   OH210718   4.576   1.377   1.606 -0.1567 -0.0767  0.1437
 3585TIP3    H110719   4.626   1.436   1.550 -1.0854  0.5903 -0.0043
 3585TIP3    H210720   4.501   1.429   1.635 -1.2524 -1.3154 -0.3758
 3586TIP3   OH210721   3.912   1.189   3.296  0.8062 -0.3088  0.0397
 3586TIP3    H110722   3.942   1.114   3.347 -0.3633 -0.2884  0.7969
 3586TIP3    H210723   3.895   1.154   3.209 -1.5726 -1.4144  0.8608
 3587TIP3   OH210724   3.216   0.104   3.062  0.1449 -0.2786  0.0729
 3587TIP3    H110725   3.195   0.190   3.097  0.5050 -0.1172 -0.1059
 3587TIP3    H210726   3.309   0.091   3.083  0.4637 -0.0366 -1.1010
 3588TIP3   OH210727   0.139   1.217   1.522 -0.1502 -0.0631  0.0992
 3588TIP3    H110728   0.217   1.171   1.553 -1.3087 -1.7126  0.6957
 3588TIP3    H210729   0.073   1.149   1.511 -1.5063  1.2704 -0.4887
 3589TIP3   OH210730   0.887   2.020   4.553 -0.1675 -0.1056 -0.7193
 3589TIP3    H110731   0.855   1.939   4.592  0.5798  0.1023  0.3910
 3589TIP3    H210732   0.814   2.054   4.503 -0.8484 -0.9045 -0.2887
 3590TIP3   OH210733   7.001   3.081   3.810 -0.2240  0.5511 -0.2276
 3590TIP3    H110734   7.032   3.106   3.722  0.0756 -0.4782 -0.4401
 3590TIP3    H210735   6.941   3.150   3.835 -0.1328  0.9893 -1.1530
 3591TIP3   OH210736   1.703   3.087  -0.009 -0.0501  0.5579 -0.5142
 3591TIP3    H110737   1.636   3.031  -0.049 -0.0099  0.8422 -0.9902
 3591TIP3    H210738   1.741   3.034   0.060 -1.9408  0.9692  0.9218
 3592TIP3   OH210739   3.082   6.437   1.763 -0.3058  0.5406  0.4157
 3592TIP3    H110740   3.146   6.502   1.791 -0.3891  0.9625 -0.3662
 3592TIP3    H210741   3.063   6.387   1.843 -0.4047  1.6110  1.0782
 3593TIP3   OH210742   6.162   4.287   5.321  0.1825  0.5908  0.2725
 3593TIP3    H110743   6.225   4.356   5.343  0.6592  0.0015  0.8245
 3593TIP3    H210744   6.092   4.297   5.384 -1.0046  2.1269 -1.2075
 3594TIP3   OH210745   2.666   4.403   1.196 -0.0768 -0.2535 -0.2256
 3594TIP3    H110746   2.726   4.342   1.153 -0.2474 -0.9164  0.4584
 3594TIP3    H210747   2.582   4.389   1.152 -0.1001 -0.4613 -0.1141
 3595TIP3   OH210748   3.684   1.360   2.178  0.1762 -0.1216  0.0769
 3595TIP3    H110749   3.695   1.363   2.083  0.9942  1.2302  0.1948
 3595TIP3    H210750   3.758   1.309   2.210  0.1208 -0.2359  0.0232
 3596TIP3   OH210751   7.051   0.963   2.275 -0.1813 -0.2938  0.4355
 3596TIP3    H110752   7.036   1.039   2.330  1.2313 -0.2353  0.7712
 3596TIP3    H210753   7.145   0.963   2.258 -0.4905 -0.5944 -1.5770
 3597TIP3   OH210754   4.102   3.819   0.721 -0.1425  0.1754  0.0336
 3597TIP3    H110755   4.068   3.735   0.692 -0.4366  0.0684  0.6674
 3597TIP3    H210756   4.180   3.834   0.667 -1.6283  0.8185 -2.0574
 3598TIP3   OH210757   6.201   0.847   5.627  0.7277  0.0850  0.1135
 3598TIP3    H110758   6.147   0.919   5.658 -0.5904 -0.5139 -0.7287
 3598TIP3    H210759   6.165   0.823   5.542  1.7254 -0.9562 -0.0560
 3599TIP3   OH210760   0.689   6.293   4.195  0.2267 -0.4615  0.4418
 3599TIP3    H110761   0.670   6.384   4.217  3.7302  1.1699 -2.1910
 3599TIP3    H210762   0.738   6.259   4.270 -0.1257  0.1611  0.9639
 3600TIP3   OH210763   6.256   5.075   1.159  0.0717  0.2058 -0.1402
 3600TIP3    H110764   6.275   5.060   1.067 -2.4352 -0.7754 -0.5658
 3600TIP3    H210765   6.224   4.991   1.191 -1.4404  1.1562  0.9666
 3601TIP3   OH210766   3.832   2.311   3.048 -0.0487  0.1058 -0.1263
 3601TIP3    H110767   3.884   2.362   3.110  1.0628  0.0816 -1.0211
 3601TIP3    H210768   3.743   2.312   3.085  0.3729  0.9877  0.9019
 3602TIP3   OH210769   6.592   4.277   3.288  0.2053  0.6165 -0.0467
 3602TIP3    H110770   6.502   4.287   3.258 -0.3650 -0.7699  1.0988
 3602TIP3    H210771   6.587   4.286   3.384  0.9797 -1.1627  0.2077
 3603TIP3   OH210772   5.516   2.734   4.087  0.6667  0.0715  0.7533
 3603TIP3    H110773   5.548   2.774   4.006  2.4066  0.1805  1.4474
 3603TIP3    H210774   5.513   2.806   4.150  1.0509 -0.3309  1.2449
 3604TIP3   OH210775   0.325   0.876   2.700 -0.1237 -0.3404  0.0888
 3604TIP3    H110776   0.332   0.820   2.777 -1.8889 -1.8244 -0.7743
 3604TIP3    H210777   0.411   0.918   2.694  0.7304 -1.7246  1.6790
 3605TIP3   OH210778   4.829   6.589   1.261  0.5348 -0.0306 -0.1632
 3605TIP3    H110779   4.824   6.641   1.341  1.5477 -0.1819  0.0131
 3605TIP3    H210780   4.883   6.641   1.201 -2.1006  1.1707 -1.6415
 3606TIP3   OH210781   2.734   3.631   0.609 -0.1581  0.2819  0.3146
 3606TIP3    H110782   2.716   3.554   0.555  2.1601 -0.9913  1.2235
 3606TIP3    H210783   2.785   3.689   0.553 -2.0733  1.3320 -0.4362
 3607TIP3   OH210784   1.772   1.425   1.822 -0.6197  0.1305 -0.0189
 3607TIP3    H110785   1.688   1.470   1.816 -0.3044  0.9501  1.2382
 3607TIP3    H210786   1.792   1.397   1.733 -1.0853  2.0086 -0.7418
 3608TIP3   OH210787   0.039   5.611   4.100  0.0419 -0.0354 -0.4172
 3608TIP3    H110788   0.114   5.617   4.041  0.2951  0.2212 -0.0670
 3608TIP3    H210789   0.071   5.563   4.176 -0.2693 -0.3144 -0.4580
 3609TIP3   OH210790   6.246   4.881   4.325  0.1415 -0.3840  0.4075
 3609TIP3    H110791   6.321   4.822   4.316  1.3695  1.1815  0.0687
 3609TIP3    H210792   6.201   4.876   4.240  1.4853  0.7623 -0.4162
 3610TIP3   OH210793   3.319   1.846   1.145 -0.3337  0.5290  0.4592
 3610TIP3    H110794   3.239   1.799   1.169  0.0061  0.2882  1.1273
 3610TIP3    H210795   3.309   1.932   1.187  0.3051  0.0734  1.5987
 3611TIP3   OH210796   2.476   3.422   1.913 -0.4363 -0.7373  0.0387
 3611TIP3    H110797   2.554   3.370   1.931 -0.3739 -0.4106  0.7500
 3611TIP3    H210798   2.461   3.472   1.993 -2.0909 -1.6858  0.3732
 3612TIP3   OH210799   1.397   4.155   1.959 -0.1156  0.3432  0.2923
 3612TIP3    H110800   1.326   4.211   1.928 -1.1640 -0.1959  1.6468
 3612TIP3    H210801   1.477   4.204   1.939 -0.9290  1.5802 -0.0048
 3613TIP3   OH210802   2.435   6.481   3.435 -0.3575 -0.1002 -0.3160
 3613TIP3    H110803   2.432   6.576   3.427 -2.3179 -0.1200 -0.2376
 3613TIP3    H210804   2.345   6.456   3.456 -0.0242 -2.0379 -1.0301
 3614TIP3   OH210805   5.256   2.233   2.077  0.6793  0.0237  0.2405
 3614TIP3    H110806   5.313   2.270   2.144  0.7794  1.4596 -0.6182
 3614TIP3    H210807   5.178   2.290   2.078  1.2692  0.9332 -1.7986
 3615TIP3   OH210808   6.830   4.539   5.177  0.2601  0.3156  0.4098
 3615TIP3    H110809   6.816   4.634   5.172 -0.9597  0.1647  0.5139
 3615TIP3    H210810   6.844   4.522   5.270  1.3640  0.4915  0.2851
 3616TIP3   OH210811   6.791   6.299   5.301  0.1651 -0.0055  0.0539
 3616TIP3    H110812   6.710   6.337   5.335  0.3592  0.5297 -0.0825
 3616TIP3    H210813   6.852   6.372   5.297  2.1389 -1.0593  4.3937
 3617TIP3   OH210814   7.048   6.707   2.280  0.0931  0.1109  0.1467
 3617TIP3    H110815   6.971   6.718   2.225 -0.6745 -0.8545  1.0020
 3617TIP3    H210816   7.121   6.703   2.218 -0.6251  0.2073 -0.7266
 3618TIP3   OH210817   6.219   2.070   2.911 -0.1566 -0.2623 -0.2280
 3618TIP3    H110818   6.299   2.018   2.901 -0.2945 -1.0611  2.1522
 3618TIP3    H210819   6.158   2.010   2.954 -1.3558  0.9553 -0.1912
 3619TIP3   OH210820   3.276   1.576   3.145 -0.2499 -0.4445 -0.3018
 3619TIP3    H110821   3.201   1.555   3.200  0.7978 -1.5195  0.7876
 3619TIP3    H210822   3.246   1.647   3.089 -1.2089  1.1494  2.0652
 3620TIP3   OH210823   7.040   0.471   2.200 -0.5949 -0.1088  0.1830
 3620TIP3    H110824   7.116   0.461   2.142 -1.6640  1.4816 -1.5792
 3620TIP3    H210825   7.076   0.459   2.288  2.0609  2.1158 -0.4613
 3621TIP3   OH210826   6.248   2.224   0.893  0.1412 -0.2538 -0.1029
 3621TIP3    H110827   6.315   2.156   0.903 -0.7987 -1.3330 -0.8747
 3621TIP3    H210828   6.288   2.289   0.835  1.6875  0.7626  1.9983
 3622TIP3   OH210829   4.440   4.695   3.599  0.1927  0.4448  0.3176
 3622TIP3    H110830   4.440   4.600   3.616 -0.3107  0.5024  0.6552
 3622TIP3    H210831   4.437   4.702   3.503 -0.5387  0.1172  0.3103
 3623TIP3   OH210832   5.992   6.442   0.084  0.0284  0.2848  0.3163
 3623TIP3    H110833   5.942   6.518   0.054  0.7134  0.8800  0.6545
 3623TIP3    H210834   5.954   6.368   0.037 -2.3025  0.4440  1.7610
 3624TIP3   OH210835   3.901   1.993   4.306  0.9308 -0.1752  0.4328
 3624TIP3    H110836   3.947   1.999   4.223 -0.3970  0.2122 -0.3172
 3624TIP3    H210837   3.929   1.910   4.344  0.8246 -0.8281 -0.8703
 3625TIP3   OH210838   6.865   2.731   3.200  0.5892  0.3658  0.8463
 3625TIP3    H110839   6.859   2.794   3.271  1.8815  2.4268 -0.7319
 3625TIP3    H210840   6.959   2.723   3.183  0.4280 -1.5802  0.5865
 3626TIP3   OH210841   5.168   1.386   0.260  0.9677  0.2036  0.5912
 3626TIP3    H110842   5.161   1.433   0.177 -2.5702  1.3105  1.2983
 3626TIP3    H210843   5.248   1.335   0.254  1.1735  0.7518 -3.2085
 3627TIP3   OH210844   1.681   6.751   4.557  0.4311  0.3846  0.0982
 3627TIP3    H110845   1.646   6.817   4.618 -0.7150 -0.3785  0.2987
 3627TIP3    H210846   1.676   6.792   4.471  0.1758  0.7266  0.2748
 3628TIP3   OH210847   6.083   5.234   0.584 -0.0707  0.4311 -0.3716
 3628TIP3    H110848   6.040   5.286   0.517 -1.7919 -0.4383  0.0048
 3628TIP3    H210849   6.028   5.156   0.594 -0.0980  0.6797  2.2923
 3629TIP3   OH210850   3.446   0.409   5.678  0.0052  0.4204  0.7712
 3629TIP3    H110851   3.408   0.345   5.617 -1.4085  1.3968  0.5560
 3629TIP3    H210852   3.507   0.459   5.624 -0.7121  0.8181  0.3069
 3630TIP3   OH210853   6.196   0.722   4.583 -0.4758  0.0477  0.1229
 3630TIP3    H110854   6.279   0.768   4.568 -0.1804 -0.3492  0.5064
 3630TIP3    H210855   6.164   0.756   4.666  0.5063 -1.5059  1.1818
 3631TIP3   OH210856   4.616   5.341   1.765 -0.1495  0.0388 -0.3154
 3631TIP3    H110857   4.532   5.299   1.783 -1.3565  2.7917  1.0510
 3631TIP3    H210858   4.617   5.351   1.669  0.2464 -2.9693 -0.7188
 3632TIP3   OH210859   0.588   0.971   2.674  0.5244 -0.4880  0.4560
 3632TIP3    H110860   0.577   1.044   2.734  2.5010 -0.8902  1.3740
 3632TIP3    H210861   0.643   1.005   2.603  1.1883 -0.9811  0.7246
 3633TIP3   OH210862   6.744   0.401   4.317 -0.3779 -0.2997  0.3546
 3633TIP3    H110863   6.820   0.368   4.365  1.8869  2.3679 -1.1368
 3633TIP3    H210864   6.740   0.347   4.238 -0.1049 -0.4917  0.4713
 3634TIP3   OH210865   6.776   1.482   4.048 -0.6565  0.0233  0.0183
 3634TIP3    H110866   6.766   1.576   4.035  0.6373  0.1938  0.0704
 3634TIP3    H210867   6.766   1.445   3.960 -0.3995  0.2910 -0.1251
 3635TIP3   OH210868   3.830   0.727   3.491 -0.2892 -0.1933  0.1823
 3635TIP3    H110869   3.861   0.647   3.449 -0.6893 -0.5946  0.6313
 3635TIP3    H210870   3.735   0.717   3.496 -0.2369 -0.2942  1.4142
 3636TIP3   OH210871   2.999   2.179   1.579  0.0359 -0.1173  0.0608
 3636TIP3    H110872   2.917   2.223   1.557  0.3228 -0.1784 -1.2082
 3636TIP3    H210873   3.057   2.250   1.609  0.1900  0.2587 -1.0706
 3637TIP3   OH210874   4.158   5.256   4.520  0.1193  0.2298  0.0062
 3637TIP3    H110875   4.086   5.298   4.473  1.7587  1.2293 -1.7040
 3637TIP3    H210876   4.132   5.164   4.525 -1.5272  0.6616 -0.0537
 3638TIP3   OH210877   1.569   1.168   5.318 -0.3167  0.3099  0.0226
 3638TIP3    H110878   1.522   1.136   5.241 -1.4206  0.1155  0.7695
 3638TIP3    H210879   1.502   1.179   5.385  0.2845  2.4817  0.3456
 3639TIP3   OH210880   6.089   5.891   3.659  0.7798  0.9929 -0.2251
 3639TIP3    H110881   6.166   5.897   3.715 -0.1554  0.6923  1.1319
 3639TIP3    H210882   6.075   5.797   3.647  0.6749  1.0491 -0.5572
 3640TIP3   OH210883   4.074   0.893   2.344  0.4123 -0.6126 -0.3008
 3640TIP3    H110884   4.020   0.935   2.411  1.9519  1.0410 -0.0010
 3640TIP3    H210885   4.153   0.866   2.392  0.9528 -0.6462 -1.1953
 3641TIP3   OH210886   3.098   1.022   0.897 -0.6330  0.0447  0.0177
 3641TIP3    H110887   3.098   1.110   0.859 -0.8651 -0.4121 -1.0865
 3641TIP3    H210888   3.029   1.024   0.963  0.0384  0.9719  0.7205
 3642TIP3   OH210889   4.323   5.501   2.435  0.0017 -0.3573  0.2318
 3642TIP3    H110890   4.325   5.406   2.444 -0.7757 -0.4720 -0.5956
 3642TIP3    H210891   4.395   5.532   2.489  0.3432 -1.4252  0.4157
 3643TIP3   OH210892   5.956   1.331   2.387 -0.1919 -0.5292  0.5586
 3643TIP3    H110893   6.036   1.365   2.347 -0.2389  0.2584  1.1210
 3643TIP3    H210894   5.938   1.390   2.459 -0.8118 -1.2071  0.9714
 3644TIP3   OH210895   6.500   1.999   0.485  0.1990  0.3465 -0.1200
 3644TIP3    H110896   6.419   2.049   0.485 -0.0840 -0.1029 -0.7070
 3644TIP3    H210897   6.502   1.956   0.400  0.7738 -0.1027  0.1129
 3645TIP3   OH210898   2.243   5.737   5.152 -0.0159 -0.4685 -0.2915
 3645TIP3    H110899   2.278   5.656   5.113  2.2197  0.1990  0.1781
 3645TIP3    H210900   2.230   5.716   5.244  0.9976 -0.2071 -0.0729
 3646TIP3   OH210901   3.433   4.772   1.522  0.1837  0.2835  0.1415
 3646TIP3    H110902   3.416   4.812   1.607  2.5790  0.4555  0.5999
 3646TIP3    H210903   3.437   4.678   1.541 -0.9050  0.1734 -0.1090
 3647TIP3   OH210904   1.895   1.033   1.934 -0.6558 -0.6106  0.1532
 3647TIP3    H110905   1.876   0.939   1.939 -0.3091 -0.6870  0.0288
 3647TIP3    H210906   1.842   1.072   2.004 -1.6072 -0.7700 -0.4570
 3648TIP3   OH210907   1.001   1.182   2.762 -0.1867  0.6434  0.5980
 3648TIP3    H110908   0.936   1.245   2.730 -0.0120  0.0193 -1.1070
 3648TIP3    H210909   0.966   1.096   2.738  0.2566  0.1608  1.6070
 3649TIP3   OH210910   1.632   4.663   2.708 -0.0214  0.0460 -0.0072
 3649TIP3    H110911   1.681   4.622   2.638 -0.9775 -1.9647  0.4340
 3649TIP3    H210912   1.549   4.616   2.711 -2.1462  3.3976 -0.8247
 3650TIP3   OH210913   0.679   2.939   5.180  0.9129  0.1895  0.1352
 3650TIP3    H110914   0.736   3.009   5.147  1.6671 -0.3821  0.1873
 3650TIP3    H210915   0.733   2.860   5.175 -0.5778 -0.7935 -1.9115
 3651TIP3   OH210916   5.991   4.857   2.750  0.2494 -0.1610  0.1170
 3651TIP3    H110917   5.942   4.926   2.706 -0.1849 -1.0761 -0.8848
 3651TIP3    H210918   6.040   4.902   2.819  0.3345  1.2044 -0.8000
 3652TIP3   OH210919   1.229   4.092   1.687 -0.4326  0.0431  0.2459
 3652TIP3    H110920   1.261   4.174   1.726 -0.8328  1.1552 -1.6039
 3652TIP3    H210921   1.175   4.121   1.613 -2.3525 -1.8641  0.8063
 3653TIP3   OH210922   4.258   4.152   1.100  0.2491  0.1253  0.4531
 3653TIP3    H110923   4.325   4.099   1.143  1.8526  2.2357  0.7074
 3653TIP3    H210924   4.303   4.232   1.075 -1.8210  0.9563 -0.8584
 3654TIP3   OH210925   1.158   3.943   5.270  0.3372  0.9098 -0.3781
 3654TIP3    H110926   1.186   3.890   5.345  0.0211  0.9229 -0.2498
 3654TIP3    H210927   1.104   4.012   5.309  1.0957  1.5888 -0.4899
 3655TIP3   OH210928   4.840   5.477   3.370 -0.0395  0.3710 -0.2478
 3655TIP3    H110929   4.911   5.465   3.432  0.6001  0.0679 -1.0208
 3655TIP3    H210930   4.762   5.488   3.424  0.3169 -1.0552  0.5895
 3656TIP3   OH210931   3.668   3.987   3.749  0.1130  0.1173 -0.2470
 3656TIP3    H110932   3.692   3.999   3.657  0.7934  0.5465 -0.0215
 3656TIP3    H210933   3.580   3.949   3.746 -0.0149  0.4574 -1.0668
 3657TIP3   OH210934   3.034   2.249   1.160 -0.4311 -0.0387 -0.1744
 3657TIP3    H110935   3.069   2.289   1.240  0.0822 -1.4785  0.3605
 3657TIP3    H210936   2.966   2.309   1.131  0.9971  1.7551 -0.0247
 3658TIP3   OH210937   5.473   4.456   1.168  0.9411 -0.3616  0.2867
 3658TIP3    H110938   5.399   4.432   1.112  1.7685  0.8560 -1.4339
 3658TIP3    H210939   5.547   4.407   1.131  1.1236 -1.1979  1.6908
 3659TIP3   OH210940   4.847   5.615   0.847 -0.0233 -0.2731 -0.2260
 3659TIP3    H110941   4.829   5.693   0.796  2.8049  0.3591 -0.4509
 3659TIP3    H210942   4.884   5.553   0.784  1.8273 -0.1391  0.6532
 3660TIP3   OH210943   2.301   2.921   3.602 -0.1484  0.3812 -0.3991
 3660TIP3    H110944   2.375   2.968   3.641 -1.3025  1.1958  0.9021
 3660TIP3    H210945   2.269   2.979   3.532  0.4571  0.0068 -0.9935
 3661TIP3   OH210946   5.734   5.485   2.084 -0.1629  0.0962  0.1780
 3661TIP3    H110947   5.716   5.541   2.159  2.5004 -0.0714  1.0625
 3661TIP3    H210948   5.709   5.397   2.112 -0.5471  0.2456  0.3060
 3662TIP3   OH210949   5.576   3.402   0.222 -0.0141  0.7077  0.1726
 3662TIP3    H110950   5.497   3.432   0.266  0.0864  1.1734  0.0335
 3662TIP3    H210951   5.567   3.306   0.220 -1.0697  0.8093 -0.7645
 3663TIP3   OH210952   6.624   2.340   4.423  0.4328  0.1573 -0.4558
 3663TIP3    H110953   6.597   2.346   4.331 -2.8199  0.6743  0.4140
 3663TIP3    H210954   6.609   2.249   4.446 -0.3804  0.3956 -0.0184
 3664TIP3   OH210955   0.229   5.513   4.735  0.5740 -0.0195 -0.1060
 3664TIP3    H110956   0.215   5.548   4.823  2.1642  0.6409 -0.0933
 3664TIP3    H210957   0.141   5.488   4.706 -0.0081 -0.1026  1.5905
 3665TIP3   OH210958   3.757   2.614   1.801 -0.0686 -0.4975  0.2536
 3665TIP3    H110959   3.686   2.552   1.782 -0.9484  0.7870 -0.9166
 3665TIP3    H210960   3.805   2.621   1.718 -0.1036  0.4890  0.2982
 3666TIP3   OH210961   6.605   6.718   5.523  0.2108  0.8341  0.1415
 3666TIP3    H110962   6.682   6.751   5.569 -0.0065  1.6072 -0.0312
 3666TIP3    H210963   6.590   6.782   5.454  0.0498  0.1157 -0.4970
 3667TIP3   OH210964   4.946   4.673   0.187 -0.1227  0.2444 -0.1048
 3667TIP3    H110965   4.853   4.693   0.171  0.1140  0.7511 -0.9042
 3667TIP3    H210966   4.964   4.597   0.131  0.0628  0.4487 -0.3257
 3668TIP3   OH210967   5.838   2.964   5.124 -0.1155 -0.3222 -0.1413
 3668TIP3    H110968   5.932   2.948   5.114 -0.3191 -0.8391 -1.4651
 3668TIP3    H210969   5.828   3.057   5.104 -0.0507 -0.5818 -1.4884
 3669TIP3   OH210970   5.488   4.133   0.357 -0.2026  0.4011  0.0655
 3669TIP3    H110971   5.491   4.100   0.447 -0.6303  0.3338  0.0600
 3669TIP3    H210972   5.394   4.135   0.336 -0.0549 -3.4387 -1.7628
 3670TIP3   OH210973   5.753   5.601   3.664  0.8557 -0.2787 -0.0080
 3670TIP3    H110974   5.686   5.584   3.597  0.0760  0.6947  0.4989
 3670TIP3    H210975   5.835   5.606   3.614  0.3235  0.1616 -0.8680
 3671TIP3   OH210976   4.645   6.144   5.037  0.8374  0.7127 -0.3168
 3671TIP3    H110977   4.607   6.056   5.034 -1.3306  1.6238 -1.5959
 3671TIP3    H210978   4.721   6.135   5.096  0.0305 -1.7377  0.4761
 3672TIP3   OH210979   1.360   1.973   3.830 -0.4728 -0.3401 -0.0005
 3672TIP3    H110980   1.285   2.030   3.815  0.8130  1.6789  0.8110
 3672TIP3    H210981   1.420   1.994   3.759  0.3545 -0.0788  0.7590
 3673TIP3   OH210982   1.158   6.307   3.997  0.0619  0.5341 -0.0702
 3673TIP3    H110983   1.081   6.359   4.017 -0.1473 -0.1770  1.0393
 3673TIP3    H210984   1.147   6.226   4.047  1.0776  0.0290 -0.6149
 3674TIP3   OH210985   2.683   1.039   2.767 -0.9099  0.5110  0.4994
 3674TIP3    H110986   2.731   0.990   2.834 -0.6155 -0.8101 -0.6135
 3674TIP3    H210987   2.739   1.113   2.746  0.4271 -0.6819 -0.3485
 3675TIP3   OH210988   4.421   5.403   3.727 -0.5015 -0.2998 -0.5172
 3675TIP3    H110989   4.383   5.318   3.702 -0.6375 -0.5806  0.5719
 3675TIP3    H210990   4.502   5.380   3.773 -1.6810 -0.0104  1.8459
 3676TIP3   OH210991   0.393   4.725   5.630  0.4342  0.0525  0.0175
 3676TIP3    H110992   0.435   4.641   5.613  0.8907  0.2661  0.0813
 3676TIP3    H210993   0.304   4.702   5.658  0.3790 -0.3862 -0.5059
 3677TIP3   OH210994   6.034   0.924   0.390 -0.0663  0.2124  0.0059
 3677TIP3    H110995   6.057   0.944   0.300  0.5842 -0.7338 -0.0496
 3677TIP3    H210996   6.045   0.829   0.398 -2.2429 -0.0563  0.4825
 3678TIP3   OH210997   5.692   0.199   4.986 -0.0600  0.0541 -0.4234
 3678TIP3    H110998   5.686   0.148   5.067  0.7771  1.1911  0.3917
 3678TIP3    H210999   5.606   0.190   4.945  0.0418 -1.9246 -0.2815
 3679TIP3   OH211000   1.456   2.229   2.076 -0.0625  0.4527  0.4304
 3679TIP3    H111001   1.436   2.144   2.117  0.0589  0.0906 -0.2564
 3679TIP3    H211002   1.370   2.269   2.063 -0.3570 -0.7473 -1.7493
 3680TIP3   OH211003   3.767   2.117   2.659  0.2493  0.2630  0.2719
 3680TIP3    H111004   3.832   2.063   2.615 -0.1856  0.0672 -0.1403
 3680TIP3    H211005   3.724   2.166   2.589  0.2482  0.7234  0.5834
 3681TIP3   OH211006   1.036   1.206   0.163  0.0041  0.7981  0.1153
 3681TIP3    H111007   1.009   1.186   0.073  0.4160 -0.2025  0.2004
 3681TIP3    H211008   0.970   1.267   0.195 -1.9607 -1.2503  0.1759
 3682TIP3   OH211009   1.445   1.193   1.649 -0.0031  0.1753 -0.0654
 3682TIP3    H111010   1.500   1.142   1.590 -1.9148 -0.7102 -1.1446
 3682TIP3    H211011   1.418   1.269   1.597  0.6548  0.9381  0.6661
 3683TIP3   OH211012   0.850   2.681   1.841  0.1774 -0.2324  0.0620
 3683TIP3    H111013   0.776   2.631   1.808 -1.1255  0.9285  1.1446
 3683TIP3    H211014   0.828   2.772   1.824  1.9122  0.1083 -0.6598
 3684TIP3   OH211015   5.899   1.318   2.037 -0.1704  0.7355 -0.4033
 3684TIP3    H111016   5.835   1.300   1.969  0.2529  0.7986 -0.8222
 3684TIP3    H211017   5.849   1.360   2.107 -1.3947 -2.5255  0.9067
 3685TIP3   OH211018   4.656   0.712   3.384  0.0326  0.1230  0.5741
 3685TIP3    H111019   4.576   0.659   3.390  0.3842 -0.6466 -1.0195
 3685TIP3    H211020   4.647   0.776   3.454 -0.6195 -1.7498  2.2883
 3686TIP3   OH211021   0.966   5.374   3.351  0.7263  0.1272  0.3048
 3686TIP3    H111022   0.935   5.380   3.261  0.8842 -0.1426  0.2324
 3686TIP3    H211023   0.989   5.464   3.375  0.4194  0.2427  0.1714
 3687TIP3   OH211024   5.780   1.688   5.477 -0.5362 -0.7586  0.2646
 3687TIP3    H111025   5.701   1.695   5.531 -0.0733 -0.7562  0.9522
 3687TIP3    H211026   5.848   1.734   5.526 -0.5491  0.9911 -1.2528
 3688TIP3   OH211027   3.437   0.753   5.454 -0.2827 -0.0568 -0.2309
 3688TIP3    H111028   3.487   0.738   5.534 -0.0548  0.6990 -0.2265
 3688TIP3    H211029   3.498   0.796   5.394 -0.9565  1.0367 -0.1633
 3689TIP3   OH211030   1.078   0.172   5.344 -0.2357 -0.4655  0.3699
 3689TIP3    H111031   1.079   0.241   5.410 -1.1726 -0.3453  0.2776
 3689TIP3    H211032   1.020   0.206   5.275  0.2870 -0.8191 -0.2550
 3690TIP3   OH211033   5.700   0.663   1.904  0.5472  0.3465 -0.2207
 3690TIP3    H111034   5.791   0.636   1.904 -0.0723 -1.8843  0.7037
 3690TIP3    H211035   5.700   0.747   1.950  2.0195 -0.0066  0.4683
 3691TIP3   OH211036   1.342   5.252   4.311 -0.3088 -0.4052 -0.4064
 3691TIP3    H111037   1.336   5.170   4.360 -1.2515  0.8325  1.6666
 3691TIP3    H211038   1.259   5.258   4.264 -0.7303 -0.1293  0.3491
 3692TIP3   OH211039   1.444   0.801   2.884  0.3711  0.2473  0.1041
 3692TIP3    H111040   1.484   0.829   2.802  1.5863 -1.8263 -0.0848
 3692TIP3    H211041   1.495   0.845   2.952  0.3051  0.8096 -0.1989
 3693TIP3   OH211042   1.365   0.106   1.920  0.0826  0.6750  0.1019
 3693TIP3    H111043   1.413   0.026   1.940 -0.8391 -0.3320 -1.4456
 3693TIP3    H211044   1.284   0.075   1.877 -2.1226  2.2613  2.8024
 3694TIP3   OH211045   3.422   3.142   0.154  0.4819 -0.7481  0.2650
 3694TIP3    H111046   3.398   3.115   0.243 -0.1481 -1.6317 -0.1538
 3694TIP3    H211047   3.339   3.168   0.114  0.6979 -0.7378 -0.1833
 3695TIP3   OH211048   1.180   4.103   4.085 -0.0693  0.3738 -0.5847
 3695TIP3    H111049   1.226   4.127   4.166  0.2617 -0.7010 -0.4329
 3695TIP3    H211050   1.201   4.172   4.023  0.9959  0.3784 -0.2293
 3696TIP3   OH211051   1.150   0.394   4.099 -0.3799 -0.6523  0.2523
 3696TIP3    H111052   1.076   0.450   4.119 -0.8091 -1.1841  0.1766
 3696TIP3    H211053   1.188   0.431   4.019  3.7545  3.9409  3.7303
 3697TIP3   OH211054   1.488   5.265   1.329 -0.2875 -0.5025  0.0271
 3697TIP3    H111055   1.507   5.342   1.275  1.2472 -0.9376 -0.1152
 3697TIP3    H211056   1.393   5.264   1.338 -0.3589  1.2346 -0.2186
 3698TIP3   OH211057   1.248   4.596   0.558 -0.1027  0.1427  0.3308
 3698TIP3    H111058   1.252   4.582   0.653 -0.9919 -0.4273  0.2930
 3698TIP3    H211059   1.156   4.613   0.540  0.3186  2.0935 -0.2008
 3699TIP3   OH211060   1.856   3.997   0.684  0.4296 -0.3147 -0.2356
 3699TIP3    H111061   1.760   3.997   0.690  0.4874 -0.0372  0.9671
 3699TIP3    H211062   1.885   4.046   0.761  1.5199  0.7367 -1.2714
 3700TIP3   OH211063   6.549   0.744   4.571 -0.4309 -0.1793  0.2037
 3700TIP3    H111064   6.545   0.815   4.635 -0.1470 -0.2003  0.2482
 3700TIP3    H211065   6.536   0.787   4.486 -2.8393 -0.3983  0.3827
 3701TIP3   OH211066   6.810   5.957   5.484 -0.1860  0.0834 -0.6367
 3701TIP3    H111067   6.807   5.934   5.391 -1.6385  1.6701 -1.0563
 3701TIP3    H211068   6.736   6.017   5.495  0.2304  0.2735  1.4581
 3702TIP3   OH211069   6.516   2.059   1.939  0.1220 -0.1203 -0.8879
 3702TIP3    H111070   6.499   1.966   1.932  0.0741 -0.1597 -0.2897
 3702TIP3    H211071   6.487   2.096   1.856  2.1460 -0.9388 -2.0249
 3703TIP3   OH211072   3.875   1.781   5.735  0.4737  0.5045 -0.4278
 3703TIP3    H111073   3.951   1.760   5.789 -0.0067  0.9493  0.4411
 3703TIP3    H211074   3.827   1.846   5.786 -1.6343 -1.3297  0.0804
 3704TIP3   OH211075   2.060   0.238   0.858  0.0031 -0.7274  0.2801
 3704TIP3    H111076   2.108   0.289   0.923 -0.8455  0.0191  0.3461
 3704TIP3    H211077   2.127   0.188   0.812  0.6422 -1.1176  1.5884
 3705TIP3   OH211078   0.888   2.988   0.573  0.3043  0.1504 -0.5850
 3705TIP3    H111079   0.830   2.949   0.507  0.7878  1.1804 -1.6579
 3705TIP3    H211080   0.830   3.045   0.623 -0.0596 -0.6082 -0.1235
 3706TIP3   OH211081   3.276   3.694   2.449 -0.8341 -0.2944 -0.3711
 3706TIP3    H111082   3.327   3.728   2.376 -1.0909 -1.1579 -0.9655
 3706TIP3    H211083   3.264   3.601   2.429 -0.3888 -0.6972  1.0660
 3707TIP3   OH211084   7.001   2.093   0.799 -0.1408 -0.0129 -0.2350
 3707TIP3    H111085   6.972   2.008   0.768 -1.7932  0.1261  0.7884
 3707TIP3    H211086   6.921   2.136   0.829  0.9184  1.0844  1.1683
 3708TIP3   OH211087   0.231   3.728   1.958  0.8484 -0.3344  0.1005
 3708TIP3    H111088   0.317   3.755   1.993  1.2051  0.7629 -1.4810
 3708TIP3    H211089   0.244   3.725   1.864 -1.0310  0.4901 -0.2261
 3709TIP3   OH211090   2.138   6.396   0.055  0.3069 -0.3946 -0.6847
 3709TIP3    H111091   2.155   6.456   0.128 -0.3315 -1.3895  0.3112
 3709TIP3    H211092   2.203   6.420  -0.011 -0.0645  1.5487 -0.4235
 3710TIP3   OH211093   1.227   2.292   4.490 -0.0184 -0.7591 -0.2213
 3710TIP3    H111094   1.232   2.387   4.497 -0.5730 -0.6745 -0.9229
 3710TIP3    H211095   1.133   2.273   4.484 -0.1777 -1.5825  2.9131
 3711TIP3   OH211096   1.771   0.494   1.042 -0.2451 -0.3759  0.0119
 3711TIP3    H111097   1.812   0.550   0.977 -0.2049 -1.1979 -0.7017
 3711TIP3    H211098   1.689   0.466   1.000 -1.3164  0.8620  1.2201
 3712TIP3   OH211099   1.058   3.629   1.515 -0.0822 -0.4464  0.1237
 3712TIP3    H111100   0.991   3.637   1.448  1.5129  0.3611 -1.4664
 3712TIP3    H211101   1.132   3.681   1.482  2.1417 -2.9763  0.6860
 3713TIP3   OH211102   1.965   0.767   4.705 -0.6918  0.3182 -0.1492
 3713TIP3    H111103   1.979   0.829   4.777 -0.0862  1.7236 -1.4249
 3713TIP3    H211104   1.870   0.756   4.701 -0.9731  2.6847 -1.1010
 3714TIP3   OH211105   4.516   5.451   0.510  0.5677 -0.3496  0.2708
 3714TIP3    H111106   4.514   5.475   0.603  1.6322 -1.3307  0.5599
 3714TIP3    H211107   4.428   5.418   0.492  0.3254 -0.0615  0.9008
 3715TIP3   OH211108   0.268   0.868   3.716  0.0228 -0.6187  0.0413
 3715TIP3    H111109   0.215   0.812   3.658 -0.4008 -0.9526  0.7398
 3715TIP3    H211110   0.358   0.843   3.696 -0.0030  0.4918 -1.7096
 3716TIP3   OH211111   0.827   3.828   5.382 -0.0175  0.4734 -0.4654
 3716TIP3    H111112   0.898   3.770   5.410  1.4581  2.8179  1.0377
 3716TIP3    H211113   0.823   3.896   5.450 -3.7156  0.5194 -0.5018
 3717TIP3   OH211114   5.271   4.794   0.788 -0.3163 -0.1723  0.2764
 3717TIP3    H111115   5.309   4.814   0.874  0.2039  4.5191 -0.7451
 3717TIP3    H211116   5.183   4.762   0.808  0.0696 -0.0214  2.5682
 3718TIP3   OH211117   1.255   2.939   4.879 -0.3130  0.6793  0.3306
 3718TIP3    H111118   1.281   2.871   4.942 -0.6816 -0.3926 -0.6334
 3718TIP3    H211119   1.337   2.981   4.854  0.4634 -1.7365 -1.6219
 3719TIP3   OH211120   0.073   0.305   5.673 -0.3683 -0.0559  0.3904
 3719TIP3    H111121   0.068   0.235   5.608  0.7812 -0.2364  0.4861
 3719TIP3    H211122   0.025   0.378   5.633 -2.1462 -1.0752  0.5609
 3720TIP3   OH211123   1.877   4.669   5.647  0.5900  0.1946 -0.4734
 3720TIP3    H111124   1.913   4.591   5.688 -2.4001 -2.3402 -2.2477
 3720TIP3    H211125   1.886   4.653   5.553 -2.1023  0.8791 -0.9177
 3721TIP3   OH211126   4.163   0.729   0.865 -0.2265 -0.1537  0.1703
 3721TIP3    H111127   4.215   0.659   0.825 -1.1079 -0.2381 -0.8665
 3721TIP3    H211128   4.229   0.794   0.893  0.4378 -0.0183 -1.5729
 3722TIP3   OH211129   6.550   0.505   0.565  0.4059  0.2936 -0.2556
 3722TIP3    H111130   6.588   0.580   0.612 -1.9670  2.0592 -0.9625
 3722TIP3    H211131   6.472   0.540   0.523 -0.4343 -2.4713 -1.2167
 3723TIP3   OH211132   6.526   5.916   2.559 -0.3511 -0.7397 -0.7859
 3723TIP3    H111133   6.486   5.990   2.514  2.7663  1.7568  0.1719
 3723TIP3    H211134   6.539   5.850   2.490 -1.8295  0.1882 -2.0068
 3724TIP3   OH211135   4.338   4.127   5.424 -0.2558 -0.2214 -0.0156
 3724TIP3    H111136   4.418   4.079   5.442  0.0275  0.1096 -0.3681
 3724TIP3    H211137   4.347   4.209   5.472  0.4352  0.5967 -1.4586
 3725TIP3   OH211138   5.634   4.786   0.241  0.1151  0.0385  0.2765
 3725TIP3    H111139   5.595   4.719   0.185  1.2026 -0.1999 -0.2194
 3725TIP3    H211140   5.651   4.741   0.324  1.9463 -0.6816 -0.4357
 3726TIP3   OH211141   3.597   3.721   3.068 -0.1667 -0.5621 -0.2241
 3726TIP3    H111142   3.623   3.766   2.988 -0.2349  2.0275  1.0907
 3726TIP3    H211143   3.679   3.692   3.108  0.1940  1.1267  0.3466
 3727TIP3   OH211144   5.033   4.757   4.809  0.3397 -0.7524  0.3473
 3727TIP3    H111145   5.059   4.826   4.871  0.3610 -1.0366  0.6544
 3727TIP3    H211146   5.039   4.676   4.859 -0.5074 -0.8896  0.2268
 3728TIP3   OH211147   0.162   5.625   0.349 -0.0034 -0.2009  0.4785
 3728TIP3    H111148   0.236   5.604   0.406  0.0901  1.0030  0.8336
 3728TIP3    H211149   0.115   5.695   0.394 -0.3627  0.2618 -0.5640
 3729TIP3   OH211150   4.474   3.415   2.516 -0.4304 -0.1913  1.2149
 3729TIP3    H111151   4.395   3.457   2.483 -0.2856 -0.5573  0.3904
 3729TIP3    H211152   4.465   3.419   2.611 -1.3780 -0.1166  1.1295
 3730TIP3   OH211153   7.043   6.364   4.701 -0.3696 -0.1065  0.3569
 3730TIP3    H111154   6.956   6.394   4.728  0.5276  1.2160  1.9956
 3730TIP3    H211155   7.085   6.442   4.665  0.8803 -0.1638  1.6314
 3731TIP3   OH211156   6.470   3.331   3.681  0.0706 -0.2876  0.5258
 3731TIP3    H111157   6.410   3.406   3.687  2.4245  1.7396  0.4944
 3731TIP3    H211158   6.494   3.312   3.772  0.5970  0.0180  0.4591
 3732TIP3   OH211159   2.612   2.654   3.902 -0.2038  0.1399  0.5458
 3732TIP3    H111160   2.603   2.748   3.919  1.9071  0.4653  0.1025
 3732TIP3    H211161   2.553   2.612   3.965 -0.9012  1.7324  0.9973
 3733TIP3   OH211162   2.268   0.510   2.270 -0.1363 -0.0469 -0.6418
 3733TIP3    H111163   2.253   0.482   2.180 -1.7274 -3.4727  0.5065
 3733TIP3    H211164   2.229   0.597   2.275 -1.2287 -0.3315 -2.9706
 3734TIP3   OH211165   2.222   3.889   5.174  0.1690 -0.1908 -0.1092
 3734TIP3    H111166   2.216   3.844   5.090  1.3464 -1.8462  0.6092
 3734TIP3    H211167   2.301   3.852   5.214  0.6232  1.8535  0.9825
 3735TIP3   OH211168   1.109   0.787   0.728  0.4857  0.2023  0.1550
 3735TIP3    H111169   1.092   0.857   0.790  0.4617  0.9170 -0.6430
 3735TIP3    H211170   1.173   0.824   0.667  0.6256 -0.5375 -0.1565
 3736TIP3   OH211171   3.728   5.447   5.247 -0.7656 -0.1542  0.1468
 3736TIP3    H111172   3.801   5.396   5.213 -1.0661 -2.4478  2.5914
 3736TIP3    H211173   3.769   5.526   5.282  0.6669 -1.4060  1.5053
 3737TIP3   OH211174   1.579   3.250   0.928  0.5678 -0.0603 -0.2802
 3737TIP3    H111175   1.488   3.224   0.944  0.3851 -0.5912 -2.0061
 3737TIP3    H211176   1.631   3.187   0.977  0.0388 -1.5107 -1.5251
 3738TIP3   OH211177   1.708   0.874   0.509  0.1915  0.1106 -0.4749
 3738TIP3    H111178   1.720   0.799   0.450  1.4276 -0.8261  0.8574
 3738TIP3    H211179   1.788   0.925   0.498  1.0561 -0.7779  1.2596
 3739TIP3   OH211180   4.420   5.146   2.932  0.7135 -0.2845  0.1167
 3739TIP3    H111181   4.446   5.067   2.885  0.1720  0.0217 -0.7327
 3739TIP3    H211182   4.324   5.145   2.927  0.6654 -0.0680  0.9335
 3740TIP3   OH211183   6.949   0.410   0.806  0.5903 -0.1827  0.1213
 3740TIP3    H111184   7.027   0.392   0.860  1.6449  3.3902  0.1105
 3740TIP3    H211185   6.884   0.441   0.869  0.3670  0.0290 -0.2131
 3741TIP3   OH211186   2.047   1.295   4.348  0.0461 -0.2383  0.0394
 3741TIP3    H111187   2.086   1.376   4.314 -0.8246 -0.3132 -1.2041
 3741TIP3    H211188   2.045   1.236   4.272  0.3273 -1.3144  0.8341
 3742TIP3   OH211189   5.191   4.085   4.695 -0.3958 -0.0659 -0.0741
 3742TIP3    H111190   5.208   3.992   4.710 -1.2326 -0.5149 -1.7171
 3742TIP3    H211191   5.096   4.091   4.689 -0.3589  0.9367  0.1960
 3743TIP3   OH211192   4.822   1.198   1.468 -0.3692 -0.6534  0.5791
 3743TIP3    H111193   4.754   1.173   1.405 -0.7820  0.8462  0.4028
 3743TIP3    H211194   4.903   1.165   1.429 -0.4797  1.0536 -1.2657
 3744TIP3   OH211195   4.315   5.197   1.371  0.2925 -0.1524 -0.0412
 3744TIP3    H111196   4.223   5.182   1.394 -0.1803 -0.1515 -1.8031
 3744TIP3    H211197   4.351   5.244   1.447 -1.2983  0.3393  0.4541
 3745TIP3   OH211198   4.315   4.366   0.402 -0.4716 -0.1799  0.3442
 3745TIP3    H111199   4.300   4.300   0.469  2.7034 -2.9957 -1.4043
 3745TIP3    H211200   4.270   4.333   0.324  2.8954 -1.7485 -1.1680
 3746TIP3   OH211201   1.838   4.301   3.040 -0.5270 -0.3488  0.1059
 3746TIP3    H111202   1.793   4.346   2.969  0.5780 -0.0851 -0.4464
 3746TIP3    H211203   1.884   4.229   2.997 -0.1533 -0.4112  0.6048
 3747TIP3   OH211204   0.114   3.726   4.393 -0.0668 -0.1869  0.2222
 3747TIP3    H111205   0.133   3.796   4.330  0.2109  0.2492  0.7825
 3747TIP3    H211206   0.063   3.769   4.462 -1.4680 -0.9315 -0.3099
 3748TIP3   OH211207   4.194   4.798   1.159 -0.3936 -0.6132 -0.4239
 3748TIP3    H111208   4.217   4.724   1.215  1.9889 -0.7320 -1.4222
 3748TIP3    H211209   4.260   4.864   1.179 -1.7589  0.7930 -0.4328
 3749TIP3   OH211210   5.161   5.244   1.876  0.1494  0.1786 -0.2577
 3749TIP3    H111211   5.142   5.328   1.834 -1.3207 -0.2794 -0.5757
 3749TIP3    H211212   5.087   5.229   1.935  0.1737 -1.0804 -0.5079
 3750TIP3   OH211213   2.023   0.377   2.696  0.5702 -0.0408  0.3011
 3750TIP3    H111214   2.077   0.456   2.697 -0.9578  1.0604 -0.9292
 3750TIP3    H211215   1.938   0.405   2.663 -0.3308 -2.0158  0.7787
 3751TIP3   OH211216   3.489   2.868   3.273 -0.1439  0.1879  0.6575
 3751TIP3    H111217   3.395   2.872   3.256  0.2267  2.9918 -1.5139
 3751TIP3    H211218   3.497   2.882   3.367 -1.9005 -2.0692  1.2252
 3752TIP3   OH211219   5.421   6.017   4.767 -0.0253  0.0509 -0.6331
 3752TIP3    H111220   5.465   6.082   4.821  0.0803  0.9505 -1.7707
 3752TIP3    H211221   5.328   6.033   4.782  0.0059 -0.6136  0.3277
 3753TIP3   OH211222   6.833   0.388   0.399  0.0808  0.1672 -0.1377
 3753TIP3    H111223   6.812   0.461   0.458 -2.0817 -0.9351  0.5433
 3753TIP3    H211224   6.870   0.321   0.457  2.6425  0.8383 -0.8444
 3754TIP3   OH211225   1.352   3.460   5.454  0.1959  0.4382 -0.3431
 3754TIP3    H111226   1.314   3.376   5.482  0.4744 -0.1080 -1.5637
 3754TIP3    H211227   1.319   3.523   5.519  1.6586 -0.9202  1.8601
 3755TIP3   OH211228   1.784   2.599   1.447  0.2464 -0.0324  0.4379
 3755TIP3    H111229   1.850   2.660   1.480 -0.2082  1.7814 -1.7403
 3755TIP3    H211230   1.704   2.625   1.493  0.6192 -1.0150  1.7069
 3756TIP3   OH211231   1.230   4.338   1.318 -0.2439 -0.0560  0.2606
 3756TIP3    H111232   1.166   4.276   1.283  0.4629 -1.3891  1.2410
 3756TIP3    H211233   1.311   4.287   1.324  0.5104  1.1463  0.5238
 3757TIP3   OH211234   0.989   6.260   2.421  0.0446  0.5506  0.2596
 3757TIP3    H111235   1.067   6.314   2.406 -0.1108  1.3885  2.1505
 3757TIP3    H211236   0.985   6.202   2.345  3.3326 -0.5130  0.7109
 3758TIP3   OH211237   2.157   1.149   3.173  0.3217  0.5057  0.1571
 3758TIP3    H111238   2.110   1.196   3.242 -1.8317 -0.3921 -0.6171
 3758TIP3    H211239   2.198   1.075   3.219 -0.9760 -0.0064  0.5576
 3759TIP3   OH211240   6.898   6.576   3.738  0.4118  0.1327  0.7337
 3759TIP3    H111241   6.970   6.635   3.714  0.4197 -0.4061 -0.6421
 3759TIP3    H211242   6.934   6.522   3.808  1.0984  0.3838  0.5840
 3760TIP3   OH211243   3.642   3.669   0.221 -0.7220 -0.4245 -0.3837
 3760TIP3    H111244   3.639   3.648   0.128  0.3254 -1.1715 -0.2605
 3760TIP3    H211245   3.669   3.588   0.264 -0.0561  0.2192  0.4505
 3761TIP3   OH211246   6.775   2.210   4.681  0.1715 -0.2899 -0.1450
 3761TIP3    H111247   6.782   2.116   4.692 -1.7114 -0.3347  0.9503
 3761TIP3    H211248   6.710   2.222   4.612 -0.5955  0.2107  0.6521
 3762TIP3   OH211249   5.714   4.517   3.936 -0.1168  0.6642  0.2857
 3762TIP3    H111250   5.629   4.549   3.968 -0.0237 -0.4506  1.7356
 3762TIP3    H211251   5.774   4.530   4.010  0.7901  0.6553 -0.4297
 3763TIP3   OH211252   3.967   0.859   1.537 -0.0825 -0.0455  0.2139
 3763TIP3    H111253   3.998   0.875   1.627 -1.3122 -0.6810  0.7681
 3763TIP3    H211254   3.975   0.944   1.494 -1.6169  0.8425  1.5935
 3764TIP3   OH211255   4.616   6.706   5.605 -0.0535  0.2733  0.1785
 3764TIP3    H111256   4.591   6.754   5.526 -1.4779 -0.2997  0.2633
 3764TIP3    H211257   4.624   6.772   5.673  0.7135  0.7096 -0.3171
 3765TIP3   OH211258   7.134   1.458   2.257  0.2350 -0.2898 -0.0631
 3765TIP3    H111259   7.099   1.406   2.185 -1.1252 -0.3380  0.6006
 3765TIP3    H211260   7.066   1.523   2.275  1.5916  1.2810 -0.3912
 3766TIP3   OH211261   3.221   6.242   5.337 -0.3735  0.3194  0.1423
 3766TIP3    H111262   3.197   6.303   5.407  0.6571 -0.6014  1.3615
 3766TIP3    H211263   3.141   6.230   5.286 -0.1346  4.4264 -1.6099
 3767TIP3   OH211264   4.803   3.696   1.021  0.7040 -0.2380  0.4670
 3767TIP3    H111265   4.715   3.727   1.002  1.5486  1.4593 -0.9663
 3767TIP3    H211266   4.834   3.755   1.091  1.4267  0.6124 -0.5322
 3768TIP3   OH211267   0.143   6.341   4.444  0.0917  0.2103  0.1709
 3768TIP3    H111268   0.090   6.412   4.479  0.7681 -0.0443  1.7854
 3768TIP3    H211269   0.233   6.365   4.464  0.6990  0.7251 -2.7089
 3769TIP3   OH211270   5.221   5.701   0.553 -0.0489 -0.0488 -0.6344
 3769TIP3    H111271   5.266   5.649   0.486 -0.3810 -0.6371 -0.3992
 3769TIP3    H211272   5.128   5.696   0.529 -0.4080 -1.7923  0.8837
 3770TIP3   OH211273   2.083   3.592   0.081  0.1990  0.1993 -0.0720
 3770TIP3    H111274   2.053   3.682   0.084 -3.4044 -0.8591 -0.2882
 3770TIP3    H211275   2.114   3.575   0.170 -0.7453  1.1567  0.4666
 3771TIP3   OH211276   0.002   1.520   3.767 -0.1856  0.0724  0.5220
 3771TIP3    H111277  -0.002   1.610   3.800 -0.6157 -0.4113  1.8351
 3771TIP3    H211278   0.093   1.495   3.777 -0.3325 -0.1080  1.4871
 3772TIP3   OH211279   1.954   3.237   4.342  0.1535 -0.1150  0.1198
 3772TIP3    H111280   1.955   3.145   4.315 -1.6123  0.3234 -1.5961
 3772TIP3    H211281   1.873   3.246   4.392 -1.1886  1.0933 -2.1326
 3773TIP3   OH211282   5.577   6.379   5.785 -0.2326 -0.3674  0.1994
 3773TIP3    H111283   5.542   6.375   5.696 -0.7325  0.4947  0.3437
 3773TIP3    H211284   5.668   6.407   5.774 -0.7154  1.2363  0.0170
 3774TIP3   OH211285   1.546   2.026   4.261  0.2267  0.2644 -0.2971
 3774TIP3    H111286   1.536   2.102   4.318  1.3955  1.0647 -1.1023
 3774TIP3    H211287   1.521   2.057   4.174  2.1236  0.2138 -0.9209
 3775TIP3   OH211288   4.748   6.664   2.792  0.0823 -0.2185  0.5462
 3775TIP3    H111289   4.669   6.624   2.829 -0.2607  0.5992  0.7155
 3775TIP3    H211290   4.726   6.682   2.701  0.3460 -0.6944  0.3850
 3776TIP3   OH211291   5.999   2.443   4.558  0.4030 -0.5359  0.1733
 3776TIP3    H111292   6.093   2.458   4.547  0.2228  0.9961  0.5203
 3776TIP3    H211293   5.983   2.459   4.651 -0.0667 -1.7003  0.3126
 3777TIP3   OH211294   5.152   3.989   0.709  0.7757  0.6457 -0.2425
 3777TIP3    H111295   5.244   3.995   0.734  1.0175 -0.2375 -0.8906
 3777TIP3    H211296   5.152   4.006   0.615  0.1968  1.1942 -0.1515
 3778TIP3   OH211297   1.218   5.855   1.094 -0.1170 -0.4276 -0.5028
 3778TIP3    H111298   1.292   5.898   1.138 -1.2996  1.4620 -0.2407
 3778TIP3    H211299   1.224   5.885   1.004 -0.4439 -0.4145 -0.5201
 3779TIP3   OH211300   2.985   0.664   0.714  0.2205  0.5946  0.1993
 3779TIP3    H111301   2.953   0.593   0.657 -1.7918  0.8300  0.9623
 3779TIP3    H211302   3.022   0.618   0.790  2.3628  0.2979 -0.9682
 3780TIP3   OH211303   2.755   4.330   2.448  0.4533  0.5249 -0.1228
 3780TIP3    H111304   2.691   4.261   2.467  0.3176  0.4192 -0.9199
 3780TIP3    H211305   2.784   4.311   2.359  1.0847  0.9785 -0.0183
 3781TIP3   OH211306   5.653   2.377   5.453  0.5019  0.4517  0.3760
 3781TIP3    H111307   5.645   2.468   5.479 -0.0028  0.4085  0.3674
 3781TIP3    H211308   5.675   2.381   5.360 -1.1490  0.5441 -0.0386
 3782TIP3   OH211309   6.398   0.136   1.184 -0.0157 -0.1648  0.3856
 3782TIP3    H111310   6.352   0.163   1.263  1.7361  1.0347  1.0380
 3782TIP3    H211311   6.438   0.052   1.207 -1.7510 -1.1996 -0.1752
 3783TIP3   OH211312   4.925   5.000   2.567  0.1800  0.2399  0.0933
 3783TIP3    H111313   4.976   5.062   2.515 -1.3621 -1.3136 -3.6256
 3783TIP3    H211314   4.908   4.927   2.507 -4.0818 -0.5256  1.8791
 3784TIP3   OH211315   1.812   5.773   2.085  0.6345  0.6130  0.1726
 3784TIP3    H111316   1.848   5.821   2.010  0.8477  0.2238  0.0196
 3784TIP3    H211317   1.854   5.813   2.161  1.7838 -0.1460 -0.0300
 3785TIP3   OH211318   2.477   1.995   3.299 -0.4894  0.0218  0.0738
 3785TIP3    H111319   2.411   1.928   3.318  1.0805 -1.4254  0.6058
 3785TIP3    H211320   2.458   2.022   3.209 -1.6960 -0.4571  0.1635
 3786TIP3   OH211321   0.378   1.119   1.429  0.3356  0.2019 -0.2159
 3786TIP3    H111322   0.458   1.150   1.473  0.4843 -0.5001  0.0158
 3786TIP3    H211323   0.359   1.188   1.365  0.4399  0.9666  0.5434
 3787TIP3   OH211324   4.606   5.046   2.527  0.7132 -0.1821  0.2343
 3787TIP3    H111325   4.556   5.004   2.597  1.9351 -0.9208  0.7025
 3787TIP3    H211326   4.661   5.110   2.573 -1.0422  1.9240 -0.4561
 3788TIP3   OH211327   4.989   6.536   2.839 -0.0075 -0.5326  0.5622
 3788TIP3    H111328   5.007   6.545   2.932  0.1196 -0.5079  0.5357
 3788TIP3    H211329   4.934   6.612   2.818  2.0382  0.8852  0.0970
 3789TIP3   OH211330   4.826   4.452   2.429  0.1535 -0.1843 -0.4446
 3789TIP3    H111331   4.877   4.458   2.348 -0.5551 -1.7639 -1.0610
 3789TIP3    H211332   4.755   4.391   2.408 -0.2563 -0.3501  1.2624
 3790TIP3   OH211333   1.566   4.221   5.746  0.1051 -0.4791 -0.7510
 3790TIP3    H111334   1.490   4.213   5.689 -0.5982  0.7025 -0.0064
 3790TIP3    H211335   1.532   4.258   5.827  1.7151  1.9263 -1.0619
 3791TIP3   OH211336   5.523   3.404   2.296  0.4528 -0.0099  0.8189
 3791TIP3    H111337   5.512   3.347   2.220  0.8217  0.0845  0.6913
 3791TIP3    H211338   5.520   3.493   2.261  0.2513  0.0423  0.9656
 3792TIP3   OH211339   5.807   1.963   2.543 -0.3671  0.0382 -0.6831
 3792TIP3    H111340   5.876   1.990   2.604 -0.3699  0.1747 -0.7401
 3792TIP3    H211341   5.760   1.894   2.590 -0.3259  0.0951 -0.5571
 3793TIP3   OH211342   6.064   6.765   2.363 -0.4641  0.5665 -0.9055
 3793TIP3    H111343   6.126   6.836   2.380 -2.0077  1.8420 -0.3985
 3793TIP3    H211344   6.117   6.686   2.368  1.5008  1.6872 -2.3365
 3794TIP3   OH211345   5.971   3.766   3.021 -0.3895  0.3426 -0.1369
 3794TIP3    H111346   5.959   3.688   3.075 -2.4085  1.8489  1.7725
 3794TIP3    H211347   6.033   3.820   3.071  0.8854  0.0983 -1.3808
 3795TIP3   OH211348   3.089   4.847   5.602  0.0721 -0.1664 -0.5996
 3795TIP3    H111349   3.153   4.909   5.638  0.6432  0.4968 -2.6181
 3795TIP3    H211350   3.009   4.863   5.651  0.7443  0.8102  0.2163
 3796TIP3   OH211351   6.022   2.738   4.388  0.4076  0.0672  0.2493
 3796TIP3    H111352   6.114   2.713   4.388  0.4296  0.0376 -1.4969
 3796TIP3    H211353   6.022   2.827   4.353 -0.0974  0.7255  1.8571
 3797TIP3   OH211354   7.181   5.832   2.529  0.5565  0.1239 -0.0641
 3797TIP3    H111355   7.226   5.790   2.603 -0.3115 -0.3412  0.2162
 3797TIP3    H211356   7.223   5.917   2.521  1.4448 -0.2717  0.2257
 3798TIP3   OH211357   3.496   2.640   0.682 -0.2705  0.0347  0.0200
 3798TIP3    H111358   3.500   2.548   0.656 -1.2569  0.2209 -0.8932
 3798TIP3    H211359   3.418   2.674   0.637 -0.8356  0.9311  1.5843
 3799TIP3   OH211360   3.579   6.309   3.579 -0.2262  0.0821  0.7836
 3799TIP3    H111361   3.528   6.383   3.613  0.5923  0.9842  0.0948
 3799TIP3    H211362   3.574   6.243   3.649  0.1856  1.3173  2.0276
 3800TIP3   OH211363   5.534   2.773   4.772  0.7362 -0.0625 -0.1948
 3800TIP3    H111364   5.604   2.779   4.837  1.3083  0.8507 -0.8634
 3800TIP3    H211365   5.455   2.757   4.823  1.4327 -1.1642  0.5719
 3801TIP3   OH211366   4.005   4.950   5.341 -0.1215 -0.1641 -0.3571
 3801TIP3    H111367   3.936   5.012   5.364  0.0805 -0.5518  1.4330
 3801TIP3    H211368   4.086   5.000   5.349  0.0866 -0.7409  1.6400
 3802TIP3   OH211369   7.058   2.272   4.601 -0.0811 -0.5188 -0.3179
 3802TIP3    H111370   7.107   2.254   4.681  0.7211  0.1200 -0.6564
 3802TIP3    H211371   6.967   2.253   4.624  0.2725 -1.4076  0.4150
 3803TIP3   OH211372   0.348   5.877   2.386  0.1831  0.0769 -0.3303
 3803TIP3    H111373   0.284   5.917   2.445  0.4437 -1.5607  1.1459
 3803TIP3    H211374   0.303   5.871   2.302 -1.5581 -0.7991  0.6012
 3804TIP3   OH211375   2.051   0.866   4.925  0.1142 -0.9012 -0.1057
 3804TIP3    H111376   2.049   0.775   4.955  0.8661 -0.5208  1.1530
 3804TIP3    H211377   2.038   0.918   5.004 -1.7088  0.0953 -1.0032
 3805TIP3   OH211378   2.131   5.303   1.329 -1.2463  0.3278  0.5754
 3805TIP3    H111379   2.040   5.324   1.349 -1.7130  1.0172 -1.8634
 3805TIP3    H211380   2.126   5.225   1.274 -0.0686 -1.5738  3.0031
 3806TIP3   OH211381   1.682   4.063   3.614  0.1361  0.5214 -0.1817
 3806TIP3    H111382   1.676   3.998   3.684 -1.3951  0.3496 -0.4434
 3806TIP3    H211383   1.753   4.121   3.642  0.1435 -0.0452  1.0730
 3807TIP3   OH211384   1.664   1.124   4.527  0.0073 -0.0234  0.6031
 3807TIP3    H111385   1.600   1.053   4.535 -0.7401  0.2083 -2.1518
 3807TIP3    H211386   1.613   1.204   4.532  0.5254  0.2691  1.3919
 3808TIP3   OH211387   4.891   3.363   0.212 -0.5253 -0.0104  0.1687
 3808TIP3    H111388   4.863   3.272   0.212  0.6764 -0.4201  1.4943
 3808TIP3    H211389   4.905   3.384   0.119 -1.7859 -0.8289 -0.2297
 3809TIP3   OH211390   2.794   0.838   2.227  0.7144 -0.0641 -0.3401
 3809TIP3    H111391   2.825   0.837   2.137 -0.0605  0.4594 -0.6266
 3809TIP3    H211392   2.713   0.788   2.225  0.0173  1.0201 -0.2092
 3810TIP3   OH211393   4.443   3.979   1.940  0.3029 -0.0956 -0.2538
 3810TIP3    H111394   4.523   3.959   1.988 -0.0890 -0.0543  0.4245
 3810TIP3    H211395   4.434   4.074   1.946  1.4653  0.2146 -2.3663
 3811TIP3   OH211396   7.043   4.496   3.956 -0.2058  0.0672 -0.1206
 3811TIP3    H111397   7.054   4.461   4.044 -2.5413 -0.4816  0.0114
 3811TIP3    H211398   7.105   4.569   3.951  2.3084 -1.8794  0.7959
 3812TIP3   OH211399   4.471   4.248   1.469  0.4138  0.2545 -0.1924
 3812TIP3    H111400   4.402   4.314   1.477  0.0129 -0.4011  3.1529
 3812TIP3    H211401   4.545   4.284   1.516 -0.2763 -2.0527  3.0516
 3813TIP3   OH211402   6.340   1.206   2.425 -0.1496 -0.2174  0.1911
 3813TIP3    H111403   6.314   1.247   2.342 -1.6151 -0.3732  0.5491
 3813TIP3    H211404   6.329   1.112   2.409  0.2273 -0.2928  0.3558
 3814TIP3   OH211405   2.701   1.701   5.779  0.0449  0.5111  0.0592
 3814TIP3    H111406   2.680   1.645   5.705  0.6130  0.9900 -0.4794
 3814TIP3    H211407   2.680   1.649   5.856  1.3216 -0.7673 -0.4143
 3815TIP3   OH211408   1.510   0.312   2.784  0.2448  0.4076  0.0253
 3815TIP3    H111409   1.505   0.316   2.688  3.7131  1.2746 -0.2321
 3815TIP3    H211410   1.477   0.397   2.813  1.2288  1.0249 -0.5931
 3816TIP3   OH211411   0.420   2.914   5.076  0.7220 -0.1955  0.0408
 3816TIP3    H111412   0.408   2.819   5.067  0.6280 -0.4657  2.4679
 3816TIP3    H211413   0.500   2.923   5.127  0.5388  1.0416  0.1200
 3817TIP3   OH211414   0.401   3.308   5.697  0.4196  0.0891  0.0493
 3817TIP3    H111415   0.353   3.388   5.716  0.5429 -0.3391  2.5995
 3817TIP3    H211416   0.352   3.265   5.627 -2.3891  0.1607  1.8226
 3818TIP3   OH211417   2.687   6.756   2.147 -0.0253 -0.4679 -0.2812
 3818TIP3    H111418   2.678   6.792   2.236 -1.5271  0.9149 -0.9452
 3818TIP3    H211419   2.744   6.818   2.102 -0.0265 -0.6599 -0.5472
 3819TIP3   OH211420   3.473   1.343   4.794 -0.1169  0.1732 -0.6503
 3819TIP3    H111421   3.424   1.414   4.754 -0.3254  0.8761  0.8228
 3819TIP3    H211422   3.409   1.298   4.850  0.7306  0.7019  0.7801
 3820TIP3   OH211423   3.899   3.981   5.081  0.2041 -0.2121 -0.7465
 3820TIP3    H111424   3.941   3.933   5.152 -0.4302  0.8719  0.4002
 3820TIP3    H211425   3.957   3.969   5.006  3.0588  1.9449  0.9465
 3821TIP3   OH211426   6.838   0.086   0.158  0.0502  0.6225 -0.3850
 3821TIP3    H111427   6.792   0.152   0.211 -0.4629 -0.6492  0.8304
 3821TIP3    H211428   6.909   0.134   0.116  0.7439  1.6554  1.7795
 3822TIP3   OH211429   6.093   0.961   5.163  0.1599  0.9044 -0.1273
 3822TIP3    H111430   6.129   0.969   5.075 -2.2476  0.4148 -1.2184
 3822TIP3    H211431   6.168   0.936   5.217  1.0485 -2.6042 -2.6624
 3823TIP3   OH211432   3.873   1.644   4.059 -0.1045  0.4513  0.1166
 3823TIP3    H111433   3.836   1.560   4.088  0.6332  0.7437  1.9952
 3823TIP3    H211434   3.796   1.694   4.030 -0.7304 -0.3043  0.4092
 3824TIP3   OH211435   6.081   1.159   1.067 -0.1004 -0.1155 -0.1149
 3824TIP3    H111436   6.080   1.239   1.118  0.3261 -0.1788 -0.0069
 3824TIP3    H211437   6.171   1.128   1.071  0.0758  0.1760 -1.3705
 3825TIP3   OH211438   5.166   6.029   4.869 -0.1434  0.2365 -0.0554
 3825TIP3    H111439   5.163   6.090   4.943  0.3820 -0.7599  0.8140
 3825TIP3    H211440   5.087   5.976   4.878  0.7226 -0.9630  0.7716
 3826TIP3   OH211441   3.740   4.414   2.672 -0.5238 -0.0467 -0.4068
 3826TIP3    H111442   3.724   4.440   2.763 -0.9012 -0.8349 -0.2410
 3826TIP3    H211443   3.728   4.320   2.671  2.5408 -0.5487 -0.6148
 3827TIP3   OH211444   6.960   1.074   1.112  0.2711 -0.1272 -0.2742
 3827TIP3    H111445   7.013   1.067   1.033 -0.1414 -0.9805 -0.4939
 3827TIP3    H211446   6.870   1.075   1.081  0.1404  0.7979  0.1224
 3828TIP3   OH211447   5.366   1.948   1.559 -0.3238  0.0145 -0.2866
 3828TIP3    H111448   5.414   1.927   1.479 -0.4067  0.0691 -0.3513
 3828TIP3    H211449   5.346   2.041   1.551 -1.3631 -0.2331 -0.7692
 3829TIP3   OH211450   2.040   0.730   3.765 -0.7139 -0.0692  0.3043
 3829TIP3    H111451   2.107   0.718   3.832 -1.0693 -2.2289  0.3662
 3829TIP3    H211452   2.059   0.815   3.726  0.0718  0.8226  2.4893
 3830TIP3   OH211453   6.003   1.443   1.493  0.3088 -0.1230  0.2495
 3830TIP3    H111454   6.062   1.396   1.434  1.5809  1.5055  0.1520
 3830TIP3    H211455   6.025   1.535   1.480 -1.2127  0.4340  1.3643
 3831TIP3   OH211456   6.890   3.291   5.624 -0.1526 -0.0948 -0.2557
 3831TIP3    H111457   6.905   3.227   5.555 -0.8209  0.2623 -0.7475
 3831TIP3    H211458   6.969   3.345   5.624  0.0013 -0.3191 -0.4944
 3832TIP3   OH211459   6.952   3.799   5.174  0.1265 -0.3800 -0.1461
 3832TIP3    H111460   6.889   3.866   5.201  0.3282 -0.1904 -0.1393
 3832TIP3    H211461   6.995   3.773   5.255 -0.2070 -0.7852 -0.0967
 3833TIP3   OH211462   5.289   3.523   2.008  0.6535 -0.1340 -0.1327
 3833TIP3    H111463   5.344   3.591   1.968 -1.1772  1.3558 -0.2838
 3833TIP3    H211464   5.266   3.559   2.094  2.5663 -2.2213  1.3560
 3834TIP3   OH211465   1.183   0.977   1.830 -0.3774  0.3437  0.0808
 3834TIP3    H111466   1.187   0.910   1.763 -1.2632 -0.4045  0.7517
 3834TIP3    H211467   1.097   1.017   1.819 -0.5508  0.1841  0.7824
 3835TIP3   OH211468   5.046   1.245   5.608  0.1430  0.6848 -0.1163
 3835TIP3    H111469   5.068   1.158   5.575  0.1084  0.8629 -0.6097
 3835TIP3    H211470   5.103   1.305   5.560 -0.3041  0.9965 -0.2675
 3836TIP3   OH211471   6.122   2.343   3.883 -0.5330  0.2169  0.5200
 3836TIP3    H111472   6.048   2.289   3.912 -1.3730  1.0709  0.0317
 3836TIP3    H211473   6.087   2.392   3.809  0.4957  0.7492  0.3808
 3837TIP3   OH211474   4.191   5.551   0.274 -0.3967 -0.5173  0.2552
 3837TIP3    H111475   4.124   5.582   0.335 -0.8130  0.0652 -0.4812
 3837TIP3    H211476   4.213   5.463   0.306 -0.0052  0.0744  1.7193
 3838TIP3   OH211477   1.788   4.853   4.327 -0.1742 -0.4099 -0.4683
 3838TIP3    H111478   1.880   4.869   4.307 -0.2067 -0.1650 -0.4356
 3838TIP3    H211479   1.767   4.916   4.397 -0.4332 -0.2850 -0.6550
 3839TIP3   OH211480   5.214   0.130   1.517  0.1801 -0.4129  0.2915
 3839TIP3    H111481   5.242   0.066   1.452 -1.4461  0.7592 -1.6697
 3839TIP3    H211482   5.262   0.106   1.597  1.0665 -2.8448 -0.8884
 3840TIP3   OH211483   5.887   4.236   0.776 -0.4366 -0.3406 -0.4720
 3840TIP3    H111484   5.825   4.301   0.809  1.6178  0.7422  1.5358
 3840TIP3    H211485   5.950   4.287   0.725  1.8794 -0.3627  2.0860
 3841TIP3   OH211486   1.062   2.818   3.777  0.0268 -0.5698  0.3414
 3841TIP3    H111487   0.993   2.836   3.713 -0.0519  0.1206  0.6049
 3841TIP3    H211488   1.015   2.809   3.860  0.2508  0.0037  0.5396
 3842TIP3   OH211489   4.601   4.664   4.425 -0.1923 -0.1454 -0.2692
 3842TIP3    H111490   4.668   4.662   4.494  0.7047 -0.3034 -1.1105
 3842TIP3    H211491   4.608   4.752   4.388  0.7913 -0.6845 -1.4896
 3843TIP3   OH211492   4.351   4.553   4.478  0.4298  0.4359 -0.5132
 3843TIP3    H111493   4.357   4.564   4.573  0.0894 -2.7259 -0.0145
 3843TIP3    H211494   4.437   4.577   4.445  0.9917  0.2952  0.7792
 3844TIP3   OH211495   2.022   2.224   0.924 -0.3793  0.1113 -0.6258
 3844TIP3    H111496   1.968   2.298   0.895 -1.8029 -1.0531 -1.0269
 3844TIP3    H211497   1.990   2.150   0.873  2.7015 -0.3532 -2.0894
 3845TIP3   OH211498   2.946   4.179   4.724 -0.4577  0.1613 -0.4479
 3845TIP3    H111499   2.971   4.261   4.767 -1.3409  1.2442 -1.9013
 3845TIP3    H211500   2.851   4.188   4.711 -0.8983 -1.8806  0.9297
 3846TIP3   OH211501   3.583   1.935   3.430  0.3648 -0.0349 -0.0851
 3846TIP3    H111502   3.512   1.902   3.374  1.8803  0.2982 -2.3679
 3846TIP3    H211503   3.661   1.889   3.398  1.0143 -1.8653  3.6153
 3847TIP3   OH211504   1.552   1.831   1.845 -0.3786 -0.4580  0.2303
 3847TIP3    H111505   1.645   1.809   1.856 -0.4794 -0.8415  0.3548
 3847TIP3    H211506   1.545   1.858   1.753  0.2919  1.8982  0.8053
 3848TIP3   OH211507   1.450   4.803   1.882 -0.4593 -0.0155  0.1004
 3848TIP3    H111508   1.520   4.763   1.830 -0.9947 -0.7106 -0.0998
 3848TIP3    H211509   1.453   4.756   1.965  0.4077  1.1063  0.7317
 3849TIP3   OH211510   6.831   6.433   2.295 -0.0915 -0.2802  0.1684
 3849TIP3    H111511   6.781   6.458   2.373 -0.8291 -1.2235  0.0219
 3849TIP3    H211512   6.764   6.407   2.232  0.4441  1.3235 -1.1226
 3850TIP3   OH211513   4.195   1.931   2.141  0.2519 -0.2035  0.0019
 3850TIP3    H111514   4.133   1.892   2.203 -0.8936  0.3400 -0.7687
 3850TIP3    H211515   4.242   1.857   2.104 -0.7484 -0.7224 -0.2491
 3851TIP3   OH211516   1.715   1.782   4.625 -0.1031 -0.0323 -0.1732
 3851TIP3    H111517   1.779   1.759   4.557 -1.5017 -0.6720 -1.3483
 3851TIP3    H211518   1.632   1.790   4.577 -0.7598  1.6325  1.1617
 3852TIP3   OH211519   2.994   4.339   5.521 -0.2339  0.3283 -0.3256
 3852TIP3    H111520   2.924   4.295   5.570 -0.4409 -0.3823 -1.2459
 3852TIP3    H211521   2.955   4.422   5.493 -0.1022  0.7660  0.7165
 3853TIP3   OH211522   1.596   3.500   0.826  0.1072 -0.2825 -0.4529
 3853TIP3    H111523   1.659   3.488   0.756 -1.6338 -0.3702 -2.0733
 3853TIP3    H211524   1.561   3.413   0.842 -0.1297 -0.1205 -0.0788
 3854TIP3   OH211525   2.531   4.680   3.190 -0.3878  0.4184  0.2688
 3854TIP3    H111526   2.621   4.712   3.198 -0.2942  0.2716 -0.1265
 3854TIP3    H211527   2.540   4.599   3.139 -0.8215  0.7965 -0.4208
 3855TIP3   OH211528   6.721   0.209   4.756 -0.1732 -0.0775 -0.3175
 3855TIP3    H111529   6.729   0.148   4.682 -0.8576  0.1599 -0.5908
 3855TIP3    H211530   6.733   0.295   4.717  0.9148 -0.0300  0.0889
 3856TIP3   OH211531   4.992   0.870   3.579  0.0179 -0.3237 -0.1011
 3856TIP3    H111532   5.042   0.911   3.508 -1.1161  0.0418 -0.6985
 3856TIP3    H211533   4.926   0.818   3.534 -0.0776 -0.8966  0.6901
 3857TIP3   OH211534   0.254   6.508   3.965 -0.1467 -0.6969 -0.2372
 3857TIP3    H111535   0.237   6.594   3.927 -0.0574 -0.8632 -0.6697
 3857TIP3    H211536   0.171   6.460   3.953  0.2070 -1.0987 -1.2079
 3858TIP3   OH211537   6.777   6.584   5.809  0.3314  0.0484 -0.2828
 3858TIP3    H111538   6.816   6.629   5.734  1.3610 -0.0428  0.1818
 3858TIP3    H211539   6.685   6.572   5.785  0.2332  1.6065 -0.7841
 3859TIP3   OH211540   2.321   0.041   2.513 -0.3102 -0.0595  0.1751
 3859TIP3    H111541   2.288   0.028   2.424 -1.7512  1.9826  0.3209
 3859TIP3    H211542   2.339   0.135   2.517  0.4365 -0.2492  1.8339
 3860TIP3   OH211543   5.257   6.168   1.987  0.5008 -0.0321  0.1125
 3860TIP3    H111544   5.251   6.221   1.907 -1.2702 -0.7549 -0.2795
 3860TIP3    H211545   5.321   6.101   1.966  0.3317  0.0108 -0.5663
 3861TIP3   OH211546   2.218   0.420   0.986  0.4470  0.0694 -0.1214
 3861TIP3    H111547   2.210   0.458   1.074  0.4702  1.1255 -0.5632
 3861TIP3    H211548   2.195   0.492   0.927  0.9304 -0.4836 -0.9962
 3862TIP3   OH211549   7.092   1.329   3.026  0.1743  0.2766  0.0829
 3862TIP3    H111550   7.036   1.292   2.957 -0.1243 -1.1752  1.0644
 3862TIP3    H211551   7.139   1.253   3.061 -1.0627  0.6384  2.7328
 3863TIP3   OH211552   0.281   5.511   3.435  0.1321  0.6473  0.1328
 3863TIP3    H111553   0.249   5.599   3.459  0.8041  0.2483  2.7917
 3863TIP3    H211554   0.347   5.491   3.501  2.4814 -0.5396 -2.3842
 3864TIP3   OH211555   0.487   0.810   0.979 -0.0024  0.0367  0.7388
 3864TIP3    H111556   0.462   0.730   1.026 -0.6293  1.3417  2.7425
 3864TIP3    H211557   0.411   0.832   0.926 -0.2430 -0.1097  1.0183
 3865TIP3   OH211558   2.672   4.427   0.226  0.0100 -0.1393 -0.0683
 3865TIP3    H111559   2.756   4.433   0.272  0.2263  0.0544 -0.4746
 3865TIP3    H211560   2.671   4.338   0.191 -1.7734 -1.6244  3.2935
 3866TIP3   OH211561   3.874   3.387   3.485  0.8987 -0.5705  0.1069
 3866TIP3    H111562   3.855   3.446   3.559  2.6241 -0.0683  0.1876
 3866TIP3    H211563   3.787   3.365   3.450 -0.0324 -1.4154  2.7055
 3867TIP3   OH211564   2.439   5.542   5.060 -0.1759  0.5133 -0.3862
 3867TIP3    H111565   2.422   5.448   5.055 -1.4112  0.6222  1.0750
 3867TIP3    H211566   2.534   5.549   5.062 -0.0560 -0.6726 -0.7737
 3868TIP3   OH211567   3.998   4.892   3.639 -0.4126 -0.6139 -0.5518
 3868TIP3    H111568   3.905   4.878   3.660 -0.1443 -1.2351  0.3127
 3868TIP3    H211569   4.021   4.971   3.687 -0.8699  0.4270 -2.0127
 3869TIP3   OH211570   0.484   2.384   4.843 -0.3697  0.0513 -0.2345
 3869TIP3    H111571   0.471   2.308   4.901 -3.4494  0.2711 -0.4865
 3869TIP3    H211572   0.399   2.399   4.804  0.9171  1.7849 -2.5999
 3870TIP3   OH211573   2.171   6.666   3.687  0.7516  0.0564  0.0302
 3870TIP3    H111574   2.104   6.735   3.691  0.5485 -0.1368  0.0172
 3870TIP3    H211575   2.173   6.640   3.595  1.1286  0.3351 -0.0417
 3871TIP3   OH211576   5.213   1.625   1.517 -0.4377  0.2842 -0.1530
 3871TIP3    H111577   5.165   1.544   1.500  1.3688 -0.9368  0.2042
 3871TIP3    H211578   5.187   1.684   1.447 -2.0681 -0.4757 -0.2214
 3872TIP3   OH211579   5.923   3.327   1.257  0.1109  0.3499 -0.3376
 3872TIP3    H111580   5.917   3.387   1.182 -0.0317  0.9960  0.1721
 3872TIP3    H211581   5.894   3.381   1.332 -1.5903 -0.8017 -0.1026
 3873TIP3   OH211582   2.691   2.146   0.846 -0.0886 -0.0775  0.2926
 3873TIP3    H111583   2.752   2.072   0.846  0.7733  0.4325 -3.2781
 3873TIP3    H211584   2.718   2.199   0.771 -0.7367  3.8747  2.6012
 3874TIP3   OH211585   4.286   5.833   1.239  0.0481 -0.3841 -0.1869
 3874TIP3    H111586   4.216   5.843   1.304  0.0310 -2.6954  0.2206
 3874TIP3    H211587   4.243   5.845   1.155 -0.3333  0.6269  0.1350
 3875TIP3   OH211588   0.695   2.926   1.787  0.1936 -0.1372  0.6495
 3875TIP3    H111589   0.651   2.932   1.702  0.0921 -2.2708  0.5003
 3875TIP3    H211590   0.634   2.876   1.842  1.7186 -1.8253  0.8887
 3876TIP3   OH211591   3.692   5.713   2.566 -0.2579  0.3656  0.7028
 3876TIP3    H111592   3.762   5.778   2.568  0.2151  0.0215 -1.7605
 3876TIP3    H211593   3.612   5.765   2.561  0.0672  0.7899 -0.3601
 3877TIP3   OH211594   5.755   1.219  -0.017 -0.1354  0.2064 -0.2411
 3877TIP3    H111595   5.701   1.284   0.028 -2.1101 -1.1751 -0.4768
 3877TIP3    H211596   5.773   1.152   0.049  0.8761  0.3831 -0.3174
 3878TIP3   OH211597   4.792   5.299   4.141  0.0777  0.0548 -0.2080
 3878TIP3    H111598   4.868   5.326   4.089  0.0931  0.8187  0.1987
 3878TIP3    H211599   4.734   5.375   4.139 -0.8040 -0.6157 -0.7403
 3879TIP3   OH211600   0.625   5.242   4.922 -0.1500 -0.0940  0.4439
 3879TIP3    H111601   0.564   5.312   4.944 -0.9806 -1.4416  2.7801
 3879TIP3    H211602   0.572   5.177   4.877 -0.2916 -0.8563  1.6566
 3880TIP3   OH211603   4.682   2.947   0.785  0.0546  0.0665  0.3577
 3880TIP3    H111604   4.600   2.897   0.783 -1.8230  2.9178 -1.7356
 3880TIP3    H211605   4.676   3.000   0.864  0.6633 -0.7872  1.0026
 3881TIP3   OH211606   0.805   6.022   0.549 -0.1643  0.7066 -0.0834
 3881TIP3    H111607   0.792   6.067   0.633 -0.3826 -0.6753  0.6451
 3881TIP3    H211608   0.898   5.999   0.547  0.0866  1.7039 -0.7412
 3882TIP3   OH211609   4.751   6.578   5.234  0.1451  0.1147  0.2965
 3882TIP3    H111610   4.793   6.541   5.311 -0.3744 -1.2985 -0.0698
 3882TIP3    H211611   4.662   6.542   5.236  0.5939 -1.2711 -1.8122
 3883TIP3   OH211612   0.382   4.979   4.654 -0.2666  0.1142 -0.3520
 3883TIP3    H111613   0.335   4.935   4.725 -0.9244 -0.6450 -1.2372
 3883TIP3    H211614   0.352   5.070   4.658 -1.9543 -0.3829 -0.9874
 3884TIP3   OH211615   6.658   3.053   1.698  0.1436 -0.4910 -0.0443
 3884TIP3    H111616   6.565   3.038   1.681 -0.0757 -0.6682  1.2047
 3884TIP3    H211617   6.680   3.131   1.648 -0.1963 -1.4848 -1.8632
 3885TIP3   OH211618   2.698   1.128   5.374 -0.1678 -0.1611 -0.0174
 3885TIP3    H111619   2.750   1.076   5.313  0.7757 -0.1146  0.7259
 3885TIP3    H211620   2.742   1.118   5.458 -1.0252  0.3700  0.5088
 3886TIP3   OH211621   5.322   3.250   4.225 -0.5244  0.6156  0.3886
 3886TIP3    H111622   5.355   3.260   4.136 -1.1813 -0.3490  0.0083
 3886TIP3    H211623   5.233   3.286   4.221 -0.5086  0.6851  0.6808
 3887TIP3   OH211624   6.331   2.082   4.362 -0.3731 -0.5294  0.2010
 3887TIP3    H111625   6.249   2.035   4.348 -0.8173  0.6546 -1.4739
 3887TIP3    H211626   6.309   2.173   4.346  0.7972  0.0924  1.9364
 3888TIP3   OH211627   2.494   0.081   2.010  0.0291 -0.4488 -0.3306
 3888TIP3    H111628   2.572   0.111   1.963  0.6469 -1.7886 -0.2184
 3888TIP3    H211629   2.499   0.124   2.096  0.2542  0.0265 -0.5782
 3889TIP3   OH211630   5.209   1.304   4.663 -0.6447  0.0019 -0.0988
 3889TIP3    H111631   5.299   1.334   4.673 -0.1621 -1.8688  1.7985
 3889TIP3    H211632   5.204   1.273   4.573  0.6129  0.0873 -0.2158
 3890TIP3   OH211633   1.000   2.194   2.205 -0.1750  0.2493 -0.3060
 3890TIP3    H111634   0.947   2.244   2.267  1.1822  0.6584  0.5952
 3890TIP3    H211635   1.035   2.121   2.257  1.8499  1.1910 -0.2377
 3891TIP3   OH211636   7.159   3.661   0.981 -0.0619  0.8170 -0.5028
 3891TIP3    H111637   7.214   3.584   0.998  0.1608  0.6885 -1.6928
 3891TIP3    H211638   7.074   3.624   0.957 -0.4236  0.9964  0.4508
 3892TIP3   OH211639   0.207   5.684   0.930  0.3771 -0.1839  0.1220
 3892TIP3    H111640   0.158   5.616   0.885  1.6302 -0.6531 -0.5923
 3892TIP3    H211641   0.293   5.645   0.947  0.5339  0.6028  1.3323
 3893TIP3   OH211642   3.706   2.664   4.319 -0.4913  0.0158  0.0309
 3893TIP3    H111643   3.674   2.739   4.368 -0.6515  0.2056 -0.3694
 3893TIP3    H211644   3.751   2.611   4.385  0.1817  0.7753  0.1983
 3894TIP3   OH211645   2.570   4.876   0.051  0.0736 -0.5432  0.6859
 3894TIP3    H111646   2.527   4.799   0.090 -1.5843  0.1819  0.3809
 3894TIP3    H211647   2.562   4.863  -0.043  0.3225 -0.2630  0.6255
 3895TIP3   OH211648   0.742   3.492   1.623  0.7720 -0.4085 -0.5311
 3895TIP3    H111649   0.664   3.491   1.679  0.5825 -0.0077 -0.7798
 3895TIP3    H211650   0.715   3.544   1.547  1.8046  1.1745  0.1263
 3896TIP3   OH211651   3.932   2.323   0.874 -0.0438  0.0702 -0.1840
 3896TIP3    H111652   3.984   2.403   0.871 -2.1159  1.4626 -1.0614
 3896TIP3    H211653   3.974   2.265   0.810  0.5442  1.0608 -0.7158
 3897TIP3   OH211654   4.604   5.207   3.472 -0.3414  0.1812 -0.6913
 3897TIP3    H111655   4.663   5.136   3.500  0.6579 -0.0442 -3.0535
 3897TIP3    H211656   4.634   5.283   3.521  0.5661 -0.3971 -0.3036
 3898TIP3   OH211657   3.458   2.840   1.534 -0.0363  0.1421  0.1739
 3898TIP3    H111658   3.398   2.910   1.560  0.5136  1.4289 -1.8123
 3898TIP3    H211659   3.500   2.872   1.454  2.5971 -1.1469  0.9354
 3899TIP3   OH211660   0.081   6.153   5.576 -0.0258  0.3136 -0.4242
 3899TIP3    H111661   0.087   6.189   5.665  0.3432 -1.3454  0.2664
 3899TIP3    H211662  -0.013   6.153   5.557 -0.1457  0.2717  0.1413
 3900TIP3   OH211663   4.713   4.303   1.818 -0.8093  0.4715  0.6692
 3900TIP3    H111664   4.800   4.270   1.798 -0.5148  0.4438  1.9339
 3900TIP3    H211665   4.653   4.239   1.778 -0.2723  0.5458 -0.2903
 3901TIP3   OH211666   1.955   5.563   2.987  0.4822 -0.3171 -0.5598
 3901TIP3    H111667   1.979   5.554   2.894 -1.7117  0.1473 -1.2375
 3901TIP3    H211668   1.913   5.649   2.992 -0.4554 -0.8299  0.6297
 3902TIP3   OH211669   3.219   1.971   0.012  0.0918 -0.2469  0.1457
 3902TIP3    H111670   3.190   2.046   0.064 -0.9408 -1.1094  0.8654
 3902TIP3    H211671   3.232   2.006  -0.076 -0.0965  0.8275  0.5353
 3903TIP3   OH211672   2.141   0.205   1.350  0.2939  0.3783  0.2531
 3903TIP3    H111673   2.074   0.140   1.373  0.1365  0.0680 -1.0106
 3903TIP3    H211674   2.209   0.154   1.305  1.2396  0.7438  1.2196
 3904TIP3   OH211675   2.384   4.340   1.041  0.0010  0.3035 -0.1011
 3904TIP3    H111676   2.348   4.401   1.106  0.0568  2.1650 -1.7104
 3904TIP3    H211677   2.354   4.374   0.957  1.5141 -0.8967 -1.1831
 3905TIP3   OH211678   1.076   6.718   1.623  0.2612 -0.4218 -0.4674
 3905TIP3    H111679   1.144   6.665   1.582  1.6218  0.0566  1.0357
 3905TIP3    H211680   1.123   6.794   1.658 -0.8476 -0.5990  1.5583
 3906TIP3   OH211681   4.376   5.830   2.773  0.7571  0.2116  0.5256
 3906TIP3    H111682   4.313   5.778   2.824  0.5501  1.2097  1.3388
 3906TIP3    H211683   4.321   5.879   2.711  0.9250 -0.3476 -0.0685
 3907TIP3   OH211684   3.962   4.706   0.748  0.5623  0.1189 -0.0407
 3907TIP3    H111685   4.019   4.639   0.709 -0.8169 -1.0237 -0.1866
 3907TIP3    H211686   3.923   4.750   0.673  0.3744  0.1085  0.0501
 3908TIP3   OH211687   5.048   5.670   4.823 -0.3446  0.9119  0.6411
 3908TIP3    H111688   4.978   5.734   4.814 -0.3734  0.5908 -2.2090
 3908TIP3    H211689   5.010   5.599   4.875 -2.4816  0.3881 -1.4702
 3909TIP3   OH211690   3.930   0.967   2.786 -0.3597 -0.3557  0.0993
 3909TIP3    H111691   4.023   0.944   2.793 -0.3082  0.0773  0.9218
 3909TIP3    H211692   3.925   1.023   2.708  0.4171  1.2008  1.1033
 3910TIP3   OH211693   3.130   0.056   2.570 -0.4954  0.1248  0.4698
 3910TIP3    H111694   3.126   0.129   2.633 -1.8698  0.2524  0.2695
 3910TIP3    H211695   3.043   0.017   2.574 -1.4111  1.4861 -2.9446
 3911TIP3   OH211696   2.130   1.188   4.080  0.0446 -0.2088  0.2161
 3911TIP3    H111697   2.213   1.146   4.103  0.0929 -1.8342 -2.4949
 3911TIP3    H211698   2.156   1.265   4.029 -0.0032 -1.7454 -2.2786
 3912TIP3   OH211699   1.037   3.235   2.083 -0.2759 -0.3708 -0.5996
 3912TIP3    H111700   0.976   3.247   2.156 -0.5855 -0.2709 -0.8686
 3912TIP3    H211701   1.009   3.301   2.019 -0.8848 -1.3580 -1.3776
 3913TIP3   OH211702   1.441   4.395   3.168 -0.0688 -0.2606  0.4861
 3913TIP3    H111703   1.475   4.437   3.247 -0.7045 -0.2387  0.7532
 3913TIP3    H211704   1.503   4.420   3.100 -0.4020  1.1092  0.6424
 3914TIP3   OH211705   3.899   4.228   0.579 -0.0099  0.2844  0.5204
 3914TIP3    H111706   3.854   4.240   0.662  0.7221  0.2527  0.9297
 3914TIP3    H211707   3.843   4.169   0.529  0.5490 -1.4332  1.8116
 3915TIP3   OH211708   3.266   1.216   0.194 -0.1300 -0.7601  0.2779
 3915TIP3    H111709   3.260   1.170   0.278 -0.2304 -3.3767 -1.0707
 3915TIP3    H211710   3.175   1.222   0.164 -0.1754  0.8674  0.6528
 3916TIP3   OH211711   4.334   5.631   0.727  0.6759 -0.5739  0.1532
 3916TIP3    H111712   4.276   5.581   0.668 -1.1867  0.2059  1.2338
 3916TIP3    H211713   4.321   5.591   0.813 -0.6361  1.4875  0.9983
 3917TIP3   OH211714   0.115   0.373   2.206  0.0898 -0.1014 -0.2241
 3917TIP3    H111715   0.144   0.378   2.297  0.0847  0.5186 -0.2510
 3917TIP3    H211716   0.115   0.280   2.186 -1.2388 -0.3685  0.8371
 3918TIP3   OH211717   0.197   5.986   0.708 -0.0067  0.3210  0.2869
 3918TIP3    H111718   0.196   6.080   0.725  0.9178  0.3505  0.1938
 3918TIP3    H211719   0.166   5.946   0.789  3.1696  0.5085  1.7208
 3919TIP3   OH211720   0.809   1.680   0.911 -0.1114 -0.2167 -0.6611
 3919TIP3    H111721   0.898   1.665   0.942  0.4084 -1.3046 -2.4979
 3919TIP3    H211722   0.771   1.740   0.974  1.7043 -0.2492  0.5342
 3920TIP3   OH211723   2.228   2.828   4.988  0.5016  0.1702 -0.1445
 3920TIP3    H111724   2.286   2.797   4.918  1.3236  2.3434 -0.5146
 3920TIP3    H211725   2.284   2.832   5.066  0.6676  1.4900 -0.3087
 3921TIP3   OH211726   1.177   6.646   4.124  0.5387  0.2671 -0.1184
 3921TIP3    H111727   1.247   6.670   4.064  0.0161  1.1719 -0.3975
 3921TIP3    H211728   1.107   6.612   4.068  0.4084  0.2236  0.0672
 3922TIP3   OH211729   1.140   2.365   3.795  0.0527 -0.1686 -0.0672
 3922TIP3    H111730   1.054   2.358   3.754 -0.3922  1.8025  0.4442
 3922TIP3    H211731   1.195   2.304   3.745 -1.4953 -1.0917 -0.7147
 3923TIP3   OH211732   2.170   6.458   3.498  0.7662  0.4996  0.6536
 3923TIP3    H111733   2.141   6.393   3.435  0.1348  1.8424 -0.5138
 3923TIP3    H211734   2.095   6.471   3.556  0.2655  1.3384 -0.1369
 3924TIP3   OH211735   5.033   4.653   0.688 -0.1536 -0.2305 -0.0541
 3924TIP3    H111736   4.968   4.635   0.756 -0.6326 -2.4358 -1.0229
 3924TIP3    H211737   5.004   4.735   0.648 -3.0306 -1.6533 -1.1465
 3925TIP3   OH211738   4.284   4.793   3.851  0.1461 -0.6523  0.6505
 3925TIP3    H111739   4.253   4.713   3.892 -0.6626 -0.5967  0.1718
 3925TIP3    H211740   4.314   4.766   3.764  0.3570 -0.5154  0.6787
 3926TIP3   OH211741   6.110   6.745   0.440 -0.1892 -0.5946 -0.1794
 3926TIP3    H111742   6.070   6.670   0.484  0.3900 -0.2518  0.9777
 3926TIP3    H211743   6.052   6.819   0.461  0.6317 -0.2298  0.9256
 3927TIP3   OH211744   3.106   4.060   2.776 -0.5112  0.3148 -0.0332
 3927TIP3    H111745   3.153   4.058   2.693 -0.4800  0.0669 -0.0094
 3927TIP3    H211746   3.061   3.975   2.781  0.5241 -0.2079  0.8054
 3928TIP3   OH211747   2.916   4.709   3.441  0.1724  0.0198  0.1733
 3928TIP3    H111748   2.963   4.652   3.380 -1.0953 -1.2569  0.3464
 3928TIP3    H211749   2.938   4.675   3.528  1.4043  1.3922  0.4455
 3929TIP3   OH211750   2.174   4.691   3.452 -0.1626  0.4285  0.4002
 3929TIP3    H111751   2.173   4.764   3.514  1.1885 -0.1629  1.1973
 3929TIP3    H211752   2.084   4.683   3.421 -0.4520  2.0182  0.7753
 3930TIP3   OH211753   2.809   6.360   1.589  0.0224 -0.5887 -0.0568
 3930TIP3    H111754   2.842   6.294   1.650  1.3130  0.6654  0.6909
 3930TIP3    H211755   2.857   6.439   1.612 -1.0427  0.4766 -1.3033
 3931TIP3   OH211756   0.597   5.463   2.423 -0.8008  0.1631 -0.4057
 3931TIP3    H111757   0.634   5.401   2.486  0.4812 -0.5260 -1.7412
 3931TIP3    H211758   0.670   5.522   2.403 -1.4016  0.8127 -0.6981
 3932TIP3   OH211759   7.156   6.030   1.622  0.6899 -0.4285  0.8153
 3932TIP3    H111760   7.135   6.123   1.615 -1.4509 -0.9087 -0.1119
 3932TIP3    H211761   7.071   5.986   1.613  1.8663 -2.5425 -0.7164
 3933TIP3   OH211762   2.243   5.598   4.209  0.2672 -0.0171  0.2665
 3933TIP3    H111763   2.319   5.642   4.172 -0.1735  0.6397  0.1130
 3933TIP3    H211764   2.276   5.553   4.286  0.9245 -0.2409 -0.1423
 3934TIP3   OH211765   1.585   3.234   5.751 -0.0333 -0.5495  0.0144
 3934TIP3    H111766   1.667   3.206   5.711 -0.2950 -0.8751 -0.2932
 3934TIP3    H211767   1.601   3.226   5.845  0.8037  0.8346  0.0237
 3935TIP3   OH211768   1.511   2.634   0.799  0.5540 -0.3310  0.2335
 3935TIP3    H111769   1.515   2.605   0.708 -1.8685 -0.5684  0.1370
 3935TIP3    H211770   1.602   2.640   0.827  1.4004  0.5558 -2.4516
 3936TIP3   OH211771   6.489   5.035   5.162  0.0585  0.2618  0.8179
 3936TIP3    H111772   6.585   5.041   5.163  0.1358 -0.4471 -0.7569
 3936TIP3    H211773   6.460   5.126   5.151  0.7345  0.1661 -3.6705
 3937TIP3   OH211774   2.868   6.569   2.185  0.3939  0.4137  0.2001
 3937TIP3    H111775   2.866   6.514   2.107 -1.7355  0.5259  0.1289
 3937TIP3    H211776   2.817   6.646   2.162 -0.2768  0.4443  1.6775
 3938TIP3   OH211777   4.734   5.375   5.442 -0.5518 -0.2006  0.3986
 3938TIP3    H111778   4.705   5.415   5.360  1.2439 -0.3589 -0.3659
 3938TIP3    H211779   4.695   5.430   5.511 -1.7402  0.1784 -0.5520
 3939TIP3   OH211780   2.396   4.774   1.599 -0.1739  0.4525 -0.1000
 3939TIP3    H111781   2.363   4.703   1.654  0.2278 -0.5730 -1.1252
 3939TIP3    H211782   2.353   4.853   1.631 -0.7573 -0.2857  0.9677
 3940TIP3   OH211783   0.957   6.183   5.061  0.5584 -0.0775  0.2086
 3940TIP3    H111784   0.983   6.166   5.152  1.8022 -0.9285 -0.2751
 3940TIP3    H211785   1.016   6.252   5.032 -0.6267  1.0554  0.3717
 3941TIP3   OH211786   6.174   2.344   2.084  0.0921 -0.7914 -0.2122
 3941TIP3    H111787   6.131   2.274   2.133  1.2698 -1.2041  0.2908
 3941TIP3    H211788   6.115   2.419   2.091 -0.6518 -1.4022  0.2245
 3942TIP3   OH211789   4.207   6.693   5.125  0.0318  0.2595  0.3858
 3942TIP3    H111790   4.229   6.769   5.180  4.4967  0.2573 -0.9798
 3942TIP3    H211791   4.203   6.620   5.187 -1.3719  1.1091  1.3619
 3943TIP3   OH211792   1.739   2.018   4.454 -0.0369 -0.0538  0.4653
 3943TIP3    H111793   1.656   2.024   4.500  0.0314  0.9263  0.4951
 3943TIP3    H211794   1.715   2.013   4.361 -0.1611  2.5121  0.2678
 3944TIP3   OH211795   0.523   2.655   5.130  0.1604 -0.1390  0.6154
 3944TIP3    H111796   0.617   2.642   5.122  0.1789 -1.7406  2.5446
 3944TIP3    H211797   0.510   2.681   5.222 -1.4306 -2.4472  1.1413
 3945TIP3   OH211798   0.086   3.377   4.955  0.5505  0.0951 -0.0336
 3945TIP3    H111799   0.105   3.308   4.891 -1.4447 -0.2906 -0.2902
 3945TIP3    H211800   0.056   3.451   4.902 -1.0619 -0.2045  0.3976
 3946TIP3   OH211801   7.005   1.022   2.666 -0.2976 -0.8600  0.4970
 3946TIP3    H111802   6.932   1.077   2.637  0.6652  0.6919  0.9153
 3946TIP3    H211803   7.081   1.057   2.618  0.3794 -1.6851  0.9513
 3947TIP3   OH211804   6.974   6.369   3.956  0.6996  0.3626  0.2946
 3947TIP3    H111805   6.927   6.294   3.919  1.4104  0.5604 -1.0736
 3947TIP3    H211806   6.928   6.388   4.038 -1.5998  0.5405 -0.9469
 3948TIP3   OH211807   3.554   6.352   5.636  0.3340 -0.3433  0.2450
 3948TIP3    H111808   3.546   6.288   5.565  2.2295  0.5332 -0.8566
 3948TIP3    H211809   3.543   6.302   5.716 -1.2010 -1.4928 -0.6495
 3949TIP3   OH211810   6.793   6.441   4.737  0.3136  0.3885 -0.0897
 3949TIP3    H111811   6.824   6.456   4.647 -0.2593  1.9590 -0.0574
 3949TIP3    H211812   6.758   6.525   4.765  0.9226  0.0651  1.8055
 3950TIP3   OH211813   4.401   5.212   1.851 -0.0183 -0.4577 -0.3024
 3950TIP3    H111814   4.322   5.184   1.804 -0.1378  0.5033 -0.6976
 3950TIP3    H211815   4.368   5.252   1.931  0.1591 -1.4969  0.3161
 3951TIP3   OH211816   0.336   2.425   1.676 -0.3294 -0.6298 -0.2153
 3951TIP3    H111817   0.283   2.436   1.755  1.0530  0.3940  0.6260
 3951TIP3    H211818   0.346   2.514   1.642 -0.2528 -0.9698 -1.0988
 3952TIP3   OH211819   2.620   2.178   3.968  0.1002  0.3611 -0.2982
 3952TIP3    H111820   2.580   2.265   3.973 -0.2653  0.1610  0.5549
 3952TIP3    H211821   2.578   2.129   4.039  0.5618 -0.4017 -0.5447
 3953TIP3   OH211822   3.972   3.403   4.429 -0.5437  0.0781 -0.3180
 3953TIP3    H111823   4.011   3.317   4.441 -0.6986  0.0257 -0.1852
 3953TIP3    H211824   3.938   3.402   4.340  0.8263  0.5526 -0.8640
 3954TIP3   OH211825   3.426   0.139   3.983  0.0103  0.0089 -0.0047
 3954TIP3    H111826   3.500   0.187   3.946  1.8477 -2.4356  0.1682
 3954TIP3    H211827   3.386   0.095   3.908  0.1209 -0.3810  0.1611
 3955TIP3   OH211828   1.748   0.675   1.604  0.2256 -0.3248 -0.0549
 3955TIP3    H111829   1.781   0.601   1.552  1.5736 -1.3003  2.0615
 3955TIP3    H211830   1.825   0.729   1.620 -0.2456  0.1663  0.5902
 3956TIP3   OH211831   6.174   3.260   4.182 -0.2670  0.3526 -0.2483
 3956TIP3    H111832   6.106   3.296   4.126  0.1256  0.7610 -0.4747
 3956TIP3    H211833   6.225   3.337   4.211 -0.2734  0.1164  0.4088
 3957TIP3   OH211834   0.057   3.422   2.629  0.3144  0.3643  0.0729
 3957TIP3    H111835   0.118   3.424   2.555 -0.7847  0.2118 -0.8582
 3957TIP3    H211836   0.109   3.454   2.703  2.0190 -1.2735 -0.3089
 3958TIP3   OH211837   6.781   2.747   0.319  0.1781  0.5479  0.6127
 3958TIP3    H111838   6.713   2.717   0.379 -2.0466  2.7044 -0.6345
 3958TIP3    H211839   6.775   2.842   0.322  1.9944  0.7666 -0.8559
 3959TIP3   OH211840   1.055   3.801   5.020  0.3747 -0.3777  0.3266
 3959TIP3    H111841   1.088   3.849   4.944  1.7606 -3.0163 -0.8409
 3959TIP3    H211842   1.113   3.827   5.092 -0.1549  1.1603  0.2416
 3960TIP3   OH211843   2.919   2.181   4.989 -0.1895  0.2211  0.4561
 3960TIP3    H111844   2.946   2.256   5.041  0.3465 -0.3554  1.0296
 3960TIP3    H211845   2.947   2.202   4.900  2.0542 -0.2608  0.9898
 3961TIP3   OH211846   1.296   4.664   3.425 -0.2548 -0.0165 -0.3474
 3961TIP3    H111847   1.253   4.740   3.463 -0.7341 -0.3855 -0.1321
 3961TIP3    H211848   1.225   4.601   3.412  0.2686 -0.7873  0.3720
 3962TIP3   OH211849   1.091   4.916   0.319  0.2316 -0.4797  0.2392
 3962TIP3    H111850   1.081   4.823   0.298  0.6627 -0.4633 -0.0482
 3962TIP3    H211851   1.181   4.937   0.296 -0.1032  0.2147 -0.4912
 3963TIP3   OH211852   3.353   2.180   0.718 -0.5733  0.3686 -0.4866
 3963TIP3    H111853   3.291   2.226   0.775  0.3937  1.4895 -0.2809
 3963TIP3    H211854   3.402   2.123   0.777 -0.0182  1.0394 -0.2820
 3964TIP3   OH211855   1.267   4.628   5.174 -0.1405  0.4881 -0.8762
 3964TIP3    H111856   1.291   4.562   5.240 -1.7092  0.9098  0.1832
 3964TIP3    H211857   1.198   4.586   5.122 -1.7666  1.5109  0.3493
 3965TIP3   OH211858   5.164   1.335   0.922 -0.1716 -0.4153  0.6310
 3965TIP3    H111859   5.124   1.372   0.843 -0.7954  2.5909  2.1845
 3965TIP3    H211860   5.105   1.265   0.948 -1.0987 -0.0624 -0.4275
 3966TIP3   OH211861   5.676   2.637   5.542  0.5326  0.2232  0.3321
 3966TIP3    H111862   5.670   2.720   5.494  1.7351  1.7029  2.5932
 3966TIP3    H211863   5.761   2.601   5.517  1.3522  1.2077  1.5743
 3967TIP3   OH211864   2.553   3.267   4.004 -0.8022  0.4377 -0.5147
 3967TIP3    H111865   2.509   3.321   4.069 -1.7057 -0.4269 -0.3724
 3967TIP3    H211866   2.482   3.219   3.961 -0.0330 -0.6785 -0.5829
 3968TIP3   OH211867   4.538   4.870   2.313 -0.5840  0.6337 -0.2381
 3968TIP3    H111868   4.579   4.924   2.381 -0.8935  1.0682 -0.3910
 3968TIP3    H211869   4.444   4.886   2.323 -0.8603 -1.3061  0.9338
 3969TIP3   OH211870   0.496   6.665   5.663  0.2959  0.5218  0.0092
 3969TIP3    H111871   0.469   6.600   5.728 -1.7940  1.6186  0.3318
 3969TIP3    H211872   0.441   6.647   5.586  0.0196  1.5705 -0.0643
 3970TIP3   OH211873   5.036   6.781   0.821 -0.1703  0.4330  0.5774
 3970TIP3    H111874   5.103   6.824   0.766  0.2600 -0.0996  0.6787
 3970TIP3    H211875   4.970   6.750   0.759  0.3691 -0.2637  0.3379
 3971TIP3   OH211876   2.946   4.297   4.308 -0.1122 -0.1483  0.4410
 3971TIP3    H111877   2.935   4.202   4.300 -0.3895 -0.1086  0.3559
 3971TIP3    H211878   2.982   4.310   4.396 -0.1247 -0.3276  0.4717
 3972TIP3   OH211879   1.997   0.964   0.627 -0.0219  0.2386 -0.2348
 3972TIP3    H111880   2.022   0.954   0.719 -2.1654 -2.6628  0.1628
 3972TIP3    H211881   1.987   1.058   0.615  0.5057  0.7141  2.4298
 3973TIP3   OH211882   2.197   0.081   1.687  0.3351 -0.0768 -0.2878
 3973TIP3    H111883   2.235   0.070   1.600 -0.9718 -0.0600 -0.8871
 3973TIP3    H211884   2.120   0.024   1.687 -0.3506  0.8047  0.4254
 3974TIP3   OH211885   5.139   6.737   2.417 -0.2899  0.2026 -0.3975
 3974TIP3    H111886   5.136   6.806   2.483 -1.0012 -1.0424  0.9454
 3974TIP3    H211887   5.084   6.667   2.453 -0.3959 -0.6804 -2.1559
 3975TIP3   OH211888   6.342   6.622   2.277  0.1147 -0.0875 -0.2823
 3975TIP3    H111889   6.253   6.595   2.295  0.3641  0.1449  1.4895
 3975TIP3    H211890   6.347   6.713   2.308  1.0012 -0.1490 -0.1968
 3976TIP3   OH211891   3.453   6.710   5.891  0.1323 -0.1117 -0.3012
 3976TIP3    H111892   3.420   6.677   5.808  2.5135  1.3544 -1.9388
 3976TIP3    H211893   3.409   6.794   5.903  0.7521  0.2956 -0.7974
 3977TIP3   OH211894   3.352   3.773   2.708 -0.4462  0.4770  0.6205
 3977TIP3    H111895   3.283   3.731   2.759 -1.0312  1.4584  0.6620
 3977TIP3    H211896   3.325   3.762   2.617  0.1986 -0.5829  0.5394
 3978TIP3   OH211897   7.063   2.566   1.294 -0.4487  0.1668  0.2526
 3978TIP3    H111898   7.016   2.498   1.342 -0.6419 -0.3255 -0.6016
 3978TIP3    H211899   6.996   2.610   1.242 -0.0083 -0.4867 -0.9166
 3979TIP3   OH211900   5.050   6.699   1.913  0.0358 -0.1171 -0.1209
 3979TIP3    H111901   5.121   6.733   1.857  0.2143 -0.3783 -0.0534
 3979TIP3    H211902   5.092   6.681   1.997 -0.0085 -0.7352 -0.2312
 3980TIP3   OH211903   1.684   1.251   0.944  0.6010  0.5448  0.0933
 3980TIP3    H111904   1.595   1.237   0.978  0.6435 -2.1448 -0.6505
 3980TIP3    H211905   1.739   1.193   0.997  1.8637  1.8493  0.2490
 3981TIP3   OH211906   2.933   2.267   0.624  0.1676  0.3038 -0.0219
 3981TIP3    H111907   2.957   2.301   0.710  1.8256  1.3547 -0.8292
 3981TIP3    H211908   3.013   2.277   0.572 -1.0327  0.5039 -1.9172
 3982TIP3   OH211909   5.505   0.470   2.458  0.4256 -0.2905 -0.8325
 3982TIP3    H111910   5.504   0.534   2.529  0.4252  0.0394 -1.1250
 3982TIP3    H211911   5.482   0.520   2.380  1.7640 -0.3658 -1.2968
 3983TIP3   OH211912   4.345   0.658   4.296  0.2665 -0.0665  0.3723
 3983TIP3    H111913   4.326   0.710   4.374  1.0027  0.1837  0.3961
 3983TIP3    H211914   4.276   0.681   4.234 -1.4747 -1.6967  1.5723
 3984TIP3   OH211915   0.499   3.537   2.236 -0.0728  0.4849  0.0309
 3984TIP3    H111916   0.438   3.479   2.190 -1.9615  2.1366  0.3076
 3984TIP3    H211917   0.585   3.516   2.200 -0.5939 -2.6719  0.3486
 3985TIP3   OH211918   0.082   3.942   2.670 -0.6526  0.0622 -0.2367
 3985TIP3    H111919   0.048   3.947   2.581 -1.8686  2.4453  0.2954
 3985TIP3    H211920   0.005   3.950   2.726  0.3106  0.9521  1.0234
 3986TIP3   OH211921   4.704   1.433   4.028  0.2976 -0.2855  0.0765
 3986TIP3    H111922   4.660   1.505   4.074  0.4403  1.1968 -1.9485
 3986TIP3    H211923   4.633   1.376   4.000  0.1413 -0.7200  1.2998
 3987TIP3   OH211924   1.660   4.844   1.367  0.3967  0.7461 -0.3418
 3987TIP3    H111925   1.743   4.889   1.380  0.0079  0.9760  1.6878
 3987TIP3    H211926   1.678   4.781   1.297  2.0711  1.2983 -0.4579
 3988TIP3   OH211927   2.411   3.230   3.615 -0.2647 -0.0178 -0.6674
 3988TIP3    H111928   2.341   3.295   3.614  1.6891  2.2416 -0.2360
 3988TIP3    H211929   2.421   3.204   3.523 -0.8889  0.5097 -0.8861
 3989TIP3   OH211930   4.660   4.767   3.763  0.3040  0.2918 -0.0312
 3989TIP3    H111931   4.629   4.716   3.838  1.2880 -0.2203  0.0450
 3989TIP3    H211932   4.583   4.775   3.706 -0.3652  0.4111  0.8760
 3990TIP3   OH211933   2.496   4.600   1.424 -0.0130  0.1411 -0.7969
 3990TIP3    H111934   2.504   4.652   1.344 -0.9103  0.4145 -0.7161
 3990TIP3    H211935   2.459   4.660   1.488 -1.8262 -0.7863 -0.9111
 3991TIP3   OH211936   4.868   1.546   0.098 -0.0451  0.2321  0.2641
 3991TIP3    H111937   4.908   1.633   0.103 -2.2157  1.3703 -0.9168
 3991TIP3    H211938   4.816   1.538   0.177  1.2505 -0.6373  1.0702
 3992TIP3   OH211939   0.875   5.396   3.095 -0.8009 -0.0110 -0.0096
 3992TIP3    H111940   0.798   5.392   3.038 -0.6432  0.9564 -0.2983
 3992TIP3    H211941   0.950   5.396   3.036 -0.6097  0.1801  0.2318
 3993TIP3   OH211942   1.951   1.110   1.664  0.0712 -0.4674 -0.2512
 3993TIP3    H111943   1.932   1.090   1.756  0.5406 -0.3665 -0.1291
 3993TIP3    H211944   1.872   1.154   1.632 -0.2316 -0.8212  0.0051
 3994TIP3   OH211945   4.578   5.853   0.931  0.8250  0.1954  0.4516
 3994TIP3    H111946   4.645   5.841   0.863  1.0119  0.8106  0.5222
 3994TIP3    H211947   4.574   5.768   0.975 -0.2629 -0.6501 -1.1912
 3995TIP3   OH211948   7.068   0.050   1.089 -0.1594  0.2749  0.6597
 3995TIP3    H111949   7.029   0.096   1.164  0.5375 -0.5264  1.5302
 3995TIP3    H211950   7.038  -0.040   1.098  0.1586  0.1146  0.1164
 3996TIP3   OH211951   3.301   5.520   2.231  0.4410 -0.0499 -0.7124
 3996TIP3    H111952   3.358   5.445   2.245  0.7611  0.5294  1.4203
 3996TIP3    H211953   3.244   5.522   2.308  1.2368  2.5371 -0.0694
 3997TIP3   OH211954   4.804   5.908   0.398 -0.3276  0.1441  0.8486
 3997TIP3    H111955   4.745   5.924   0.471 -0.3197  0.7409  0.7315
 3997TIP3    H211956   4.747   5.907   0.320 -0.0891  1.7354  0.6180
 3998TIP3   OH211957   4.236   1.869   3.037 -0.3149 -0.1318  0.0126
 3998TIP3    H111958   4.206   1.913   2.958  0.4445  0.3996  0.0102
 3998TIP3    H211959   4.296   1.931   3.078  0.1999 -0.8665  0.3984
 3999TIP3   OH211960   3.800   5.209   4.097  0.3637 -0.5876  0.0431
 3999TIP3    H111961   3.790   5.174   4.186 -0.0767  0.4911  0.4269
 3999TIP3    H211962   3.858   5.285   4.107  0.4810 -0.5797 -0.6332
 4000TIP3   OH211963   3.096   6.620   1.210  0.0821 -0.4513 -0.3077
 4000TIP3    H111964   3.065   6.531   1.223  0.2929 -0.5530 -0.4879
 4000TIP3    H211965   3.150   6.615   1.131 -0.2976 -0.0690 -0.6000
 4001TIP3   OH211966   1.572   0.188   0.554 -0.5978  0.8871  0.9142
 4001TIP3    H111967   1.523   0.271   0.557 -0.5929  0.9513 -0.1577
 4001TIP3    H211968   1.662   0.213   0.578 -1.1282  0.6882  3.3571
 4002TIP3   OH211969   0.313   1.265   5.387 -0.1157 -0.9181 -0.8070
 4002TIP3    H111970   0.311   1.339   5.326  0.1751  1.6931  2.1411
 4002TIP3    H211971   0.228   1.266   5.430  0.9520 -0.2597  1.4262
 4003TIP3   OH211972   0.694   0.805   4.771  0.1376  0.1330  0.6923
 4003TIP3    H111973   0.701   0.886   4.822 -0.7153  1.4735 -1.2077
 4003TIP3    H211974   0.600   0.793   4.758  0.3260 -0.4308 -0.1752
 4004TIP3   OH211975   0.997   5.986   5.781 -0.1597  0.6620 -0.4426
 4004TIP3    H111976   1.006   6.080   5.796  2.0842  0.4089  0.2217
 4004TIP3    H211977   1.005   5.947   5.868  1.5281 -0.2360 -0.9570
 4005TIP3   OH211978   0.965   1.800   5.261 -0.0196 -0.1475  0.8933
 4005TIP3    H111979   1.052   1.759   5.265 -0.2233 -0.5829  0.8685
 4005TIP3    H211980   0.981   1.891   5.286  0.7043  0.1883 -0.6638
 4006TIP3   OH211981   4.116   2.317   1.614  0.0178  0.3756  0.5570
 4006TIP3    H111982   4.132   2.223   1.602  0.4276  0.4736  0.3027
 4006TIP3    H211983   4.096   2.327   1.707 -2.5167 -0.3056  0.1690
 4007TIP3   OH211984   1.824   0.554   2.349  0.0037  0.0768 -0.0311
 4007TIP3    H111985   1.871   0.547   2.266 -2.8086  1.5252 -1.8928
 4007TIP3    H211986   1.818   0.648   2.365 -0.4743 -0.1571  1.2570
 4008TIP3   OH211987   5.257   4.023   5.756 -0.5465  0.6150 -0.4317
 4008TIP3    H111988   5.241   3.999   5.664 -2.8262  0.3759 -0.0350
 4008TIP3    H211989   5.269   3.939   5.800  0.5436  0.7299 -0.5029
 4009TIP3   OH211990   3.774   5.368   1.995 -0.2190 -0.6273 -0.4651
 4009TIP3    H111991   3.838   5.351   2.064  0.1628  0.5231 -0.5054
 4009TIP3    H211992   3.781   5.292   1.937  1.5948 -0.2527 -0.8134
 4010TIP3   OH211993   1.419   2.728   5.649 -0.5138 -0.1250  0.9890
 4010TIP3    H111994   1.511   2.728   5.622 -0.5020  0.6489  0.9958
 4010TIP3    H211995   1.420   2.769   5.735 -0.7193 -1.2951  1.5604
 4011TIP3   OH211996   0.641   1.107   2.068 -0.0484  0.1601  0.5576
 4011TIP3    H111997   0.694   1.062   2.002 -0.7538  0.7008 -0.3972
 4011TIP3    H211998   0.601   1.180   2.022 -1.7747 -0.3205  1.1956
 4012TIP3   OH211999   3.904   3.004   5.596 -0.1322  0.1897 -0.2195
 4012TIP3    H112000   3.988   2.983   5.555  1.7396  1.7648  2.4966
 4012TIP3    H212001   3.865   3.069   5.537  1.6470  1.1186 -0.4582
 4013TIP3   OH212002   3.938   6.245   4.730  0.7481 -0.1729  0.2771
 4013TIP3    H112003   3.937   6.339   4.717  0.6315 -0.2806 -0.4988
 4013TIP3    H212004   4.030   6.220   4.721  1.1236  0.1235  2.5123
 4014TIP3   OH212005   6.963   5.494   1.216  0.0108  0.6279 -0.0611
 4014TIP3    H112006   6.926   5.567   1.167 -1.2592 -0.2663 -0.4752
 4014TIP3    H212007   6.933   5.416   1.170 -1.8044 -0.2889  2.4324
 4015TIP3   OH212008   0.526   1.724   1.049  0.2702 -0.9257  0.0874
 4015TIP3    H112009   0.566   1.710   1.134 -1.2306  0.1241  1.0005
 4015TIP3    H212010   0.467   1.649   1.037 -2.0923  0.5759  1.5790
 4016TIP3   OH212011   0.423   3.788   2.144  0.0141  0.3116 -0.7394
 4016TIP3    H112012   0.487   3.720   2.164 -0.2986 -0.1379 -1.2473
 4016TIP3    H212013   0.385   3.811   2.229 -0.1683 -0.4335 -0.6126
 4017TIP3   OH212014   2.157   3.449   2.112  0.0191  0.1321  0.3309
 4017TIP3    H112015   2.124   3.390   2.044 -0.0470 -0.1237  0.5818
 4017TIP3    H212016   2.205   3.516   2.064  1.2279 -0.8542  0.1004
 4018TIP3   OH212017   6.518   4.766   5.635 -0.1508  0.3722 -0.0763
 4018TIP3    H112018   6.442   4.710   5.622  0.9285 -0.7275 -2.1017
 4018TIP3    H212019   6.511   4.834   5.568  1.2655 -0.5150 -1.1885
 4019TIP3   OH212020   3.115   4.787   5.329 -0.0136 -0.3442 -0.6220
 4019TIP3    H112021   3.211   4.788   5.321  0.0547 -0.9868  0.1014
 4019TIP3    H212022   3.098   4.812   5.419 -0.5476  0.0593 -0.8303
 4020TIP3   OH212023   3.823   0.705   5.238  0.0872 -0.1869 -0.2467
 4020TIP3    H112024   3.841   0.686   5.330 -1.4420  1.0865  0.3764
 4020TIP3    H212025   3.895   0.665   5.190  1.9142  0.6311  1.6479
 4021TIP3   OH212026   7.164   6.427   2.848 -0.8589 -0.4342  0.0475
 4021TIP3    H112027   7.076   6.390   2.861 -1.0029  0.9725  4.8624
 4021TIP3    H212028   7.223   6.356   2.872 -0.8219 -0.2190  0.5947
 4022TIP3   OH212029   6.990   5.300   1.442  0.6757 -0.0710 -0.3149
 4022TIP3    H112030   6.957   5.339   1.361  0.2119  0.8372  0.2934
 4022TIP3    H212031   7.079   5.272   1.420  0.7567  0.6627 -0.9968
 4023TIP3   OH212032   1.122   4.350   4.320  0.4115  0.1597 -0.4506
 4023TIP3    H112033   1.196   4.351   4.259 -0.1526 -0.7889 -1.1702
 4023TIP3    H212034   1.045   4.364   4.266  0.1186  2.5533  0.4688
 4024TIP3   OH212035   3.477   0.162   5.259  0.0711 -0.0671 -0.3271
 4024TIP3    H112036   3.552   0.156   5.318 -1.1798 -1.0182  1.2557
 4024TIP3    H212037   3.474   0.078   5.214  0.3181  0.2022 -0.8462
 4025TIP3   OH212038   2.497   4.790   4.438 -0.0664  0.6785  0.9195
 4025TIP3    H112039   2.526   4.778   4.529 -1.1401  0.3683  1.2367
 4025TIP3    H212040   2.403   4.773   4.441  0.3686 -3.1850 -0.8978
 4026TIP3   OH212041   1.851   0.660   0.044  0.6734 -0.0678  0.1871
 4026TIP3    H112042   1.860   0.740  -0.008  0.1498 -0.6902 -0.9179
 4026TIP3    H212043   1.851   0.589  -0.021  2.4962 -1.0956  1.2149
 4027TIP3   OH212044   4.784   0.584   0.191 -0.0507 -0.1027  0.8139
 4027TIP3    H112045   4.797   0.495   0.160 -0.5148  0.0403  0.1959
 4027TIP3    H212046   4.701   0.582   0.238  0.2689 -0.1436  1.3830
 4028TIP3   OH212047   5.228   0.300   4.452  0.0495  0.2837  0.2773
 4028TIP3    H112048   5.199   0.331   4.538  1.6940 -0.1279  1.0260
 4028TIP3    H212049   5.309   0.348   4.436 -0.3571  0.5250 -1.1729
 4029TIP3   OH212050   2.021   1.724   5.085  0.5288  0.3299 -0.5655
 4029TIP3    H112051   2.041   1.729   5.179  0.2571 -0.3955 -0.4616
 4029TIP3    H212052   2.018   1.630   5.067  2.4924  0.4479 -1.7171
 4030TIP3   OH212053   6.738   1.141   3.380 -0.2733  0.3330  0.0972
 4030TIP3    H112054   6.664   1.201   3.393  0.8186  1.6364  0.6043
 4030TIP3    H212055   6.739   1.086   3.458 -1.1982 -0.2589 -0.2973
 4031TIP3   OH212056   6.524   1.552   5.219  0.0598  0.5455  0.4861
 4031TIP3    H112057   6.518   1.597   5.303  1.3926  2.7423 -0.5408
 4031TIP3    H212058   6.607   1.580   5.182 -0.2771 -0.7561 -1.3757
 4032TIP3   OH212059   6.759   6.698   4.758 -1.1056 -0.2525 -0.0014
 4032TIP3    H112060   6.765   6.705   4.853 -0.8250  0.2177 -0.0529
 4032TIP3    H212061   6.724   6.782   4.730  0.4847  0.3030 -0.4587
 4033TIP3   OH212062   1.504   0.729   1.711  0.3240 -0.2049 -0.5773
 4033TIP3    H112063   1.583   0.704   1.662  0.5127  0.4618 -0.6212
 4033TIP3    H212064   1.538   0.762   1.795  0.2276  1.6408 -1.2144
 4034TIP3   OH212065   5.286   6.312   4.919 -0.0943 -0.2883 -0.2800
 4034TIP3    H112066   5.371   6.290   4.881 -0.5977 -0.2675 -1.4475
 4034TIP3    H212067   5.268   6.401   4.888 -0.5316 -0.2847 -0.0186
 4035TIP3   OH212068   1.490   4.784   0.724  0.2842  0.1049  0.1769
 4035TIP3    H112069   1.402   4.782   0.761  0.9185  0.5291  1.7713
 4035TIP3    H212070   1.547   4.801   0.798  1.5928  1.3113 -1.0359
 4036TIP3   OH212071   3.193   1.237   2.682  0.0260  0.2437  0.3119
 4036TIP3    H112072   3.211   1.200   2.595  2.7905 -1.3602  1.4297
 4036TIP3    H212073   3.206   1.331   2.671 -0.9220  0.2324 -1.2571
 4037TIP3   OH212074   2.513   0.460   2.703 -0.3726 -1.2700 -0.3144
 4037TIP3    H112075   2.546   0.394   2.764  0.3117  0.2604  1.0550
 4037TIP3    H212076   2.419   0.466   2.723 -0.1165 -0.6259  0.8048
 4038TIP3   OH212077   3.653   4.930   1.512  0.5792  0.1436 -0.8036
 4038TIP3    H112078   3.565   4.892   1.515 -0.1282  1.6791 -0.9319
 4038TIP3    H212079   3.699   4.880   1.444  0.0432 -1.1348 -0.2531
 4039TIP3   OH212080   5.702   3.784   5.849 -0.1642  0.1358 -0.3422
 4039TIP3    H112081   5.762   3.812   5.918 -0.3789 -0.8670  0.2808
 4039TIP3    H212082   5.645   3.720   5.892  0.0058 -0.8822 -1.5587
 4040TIP3   OH212083   5.558   6.650   0.272 -0.7321  0.0151  0.6420
 4040TIP3    H112084   5.630   6.589   0.257 -0.8515 -0.1896  0.8947
 4040TIP3    H212085   5.480   6.604   0.240 -0.5919  0.7303 -0.8156
 4041TIP3   OH212086   2.876   0.400   2.618 -0.6013 -0.4291 -0.2963
 4041TIP3    H112087   2.959   0.394   2.665 -1.4134 -2.0544  1.0187
 4041TIP3    H212088   2.849   0.491   2.629  1.1278  0.2354 -1.0465
 4042TIP3   OH212089   6.913   0.777   0.845  0.5263 -0.0738 -0.3324
 4042TIP3    H112090   6.986   0.800   0.789 -0.3843 -0.1283 -1.5998
 4042TIP3    H212091   6.921   0.834   0.921  1.5714  0.2805 -0.6965
 4043TIP3   OH212092   4.510   3.747   0.939  0.0886 -0.3809 -0.2154
 4043TIP3    H112093   4.449   3.678   0.965  1.1297 -0.7595  1.3604
 4043TIP3    H212094   4.486   3.822   0.993  1.6993 -0.8925  1.2985
 4044TIP3   OH212095   3.380   0.316   3.714 -0.0593  0.3567 -0.2536
 4044TIP3    H112096   3.360   0.349   3.802 -0.4891 -0.5778  0.0148
 4044TIP3    H212097   3.299   0.274   3.685  0.4692 -0.4870 -0.5576
 4045TIP3   OH212098   4.702   6.160   3.441  0.3621 -0.0951 -0.0554
 4045TIP3    H112099   4.743   6.106   3.373 -0.6470 -0.5166 -0.3497
 4045TIP3    H212100   4.663   6.233   3.393 -0.3442 -0.3879  0.0574
 4046TIP3   OH212101   0.084   0.163   2.769 -0.2558 -0.1945 -0.3512
 4046TIP3    H112102  -0.007   0.186   2.785 -0.2795 -0.7743  0.4319
 4046TIP3    H212103   0.115   0.128   2.853  0.6308 -0.1793 -0.6582
 4047TIP3   OH212104   2.431   3.765   3.552  0.1613 -0.3620 -0.1773
 4047TIP3    H112105   2.476   3.804   3.627 -0.7591 -1.0807  0.7603
 4047TIP3    H212106   2.422   3.838   3.490  1.2174  0.1618  0.2571
 4048TIP3   OH212107   2.604   6.472   1.321 -0.4763  0.2981  0.6152
 4048TIP3    H112108   2.609   6.386   1.363  0.7830 -0.4303 -0.9317
 4048TIP3    H212109   2.570   6.530   1.389 -1.8888 -1.5209  1.5238
 4049TIP3   OH212110   2.832   0.793   0.197  0.0133  0.7650  0.4059
 4049TIP3    H112111   2.898   0.743   0.246 -1.2482  0.0080  1.4160
 4049TIP3    H212112   2.880   0.828   0.122  1.2052 -1.0990  0.2011
 4050TIP3   OH212113   3.758   3.929   4.765  0.6844  0.2318 -0.3954
 4050TIP3    H112114   3.805   3.910   4.683  0.4894 -0.8035 -0.2897
 4050TIP3    H212115   3.737   4.022   4.760  3.0127  0.8323 -0.2934
 4051TIP3   OH212116   2.048   5.559   2.734 -0.1194 -0.3661  0.2870
 4051TIP3    H112117   1.981   5.549   2.667 -1.7460  0.8701  1.6675
 4051TIP3    H212118   2.087   5.472   2.741 -1.2701 -1.0139 -0.8436
 4052TIP3   OH212119   4.302   1.793   5.506 -0.0164  0.4121  0.6698
 4052TIP3    H112120   4.249   1.713   5.508  0.6834 -0.0472  2.2099
 4052TIP3    H212121   4.346   1.790   5.422 -0.9624 -0.1731  0.1686
 4053TIP3   OH212122   5.723   5.256   0.022  0.3047 -0.2241 -0.2403
 4053TIP3    H112123   5.791   5.234  -0.043 -0.7222 -0.4369 -1.2765
 4053TIP3    H212124   5.705   5.175   0.068  2.5330  0.3463  1.8539
 4054TIP3   OH212125   1.762   1.482   3.252 -0.3194 -0.2043  0.3934
 4054TIP3    H112126   1.687   1.489   3.312 -1.2938 -0.2174 -0.7960
 4054TIP3    H212127   1.781   1.388   3.250 -1.3855 -0.4202 -0.6029
 4055TIP3   OH212128   4.158   2.488   3.724 -0.1451 -0.1653 -0.4103
 4055TIP3    H112129   4.126   2.425   3.659 -1.7710  1.0711 -0.8395
 4055TIP3    H212130   4.107   2.567   3.709 -0.4634  0.2186  2.2840
 4056TIP3   OH212131   2.147   5.583   1.550 -0.5189 -0.1302  0.2863
 4056TIP3    H112132   2.083   5.608   1.484  1.0878  2.4473 -0.4467
 4056TIP3    H212133   2.124   5.634   1.627 -1.2794 -1.7363  1.1775
 4057TIP3   OH212134   6.105   4.286   4.706 -0.3988 -0.6950 -0.2372
 4057TIP3    H112135   6.063   4.362   4.665 -0.6683 -0.3035  0.7426
 4057TIP3    H212136   6.102   4.304   4.800  0.0482 -1.6601 -0.0209
 4058TIP3   OH212137   3.915   1.681   5.492 -0.3914 -0.3080  0.4311
 4058TIP3    H112138   3.830   1.641   5.477  0.0384 -1.0553 -0.0918
 4058TIP3    H212139   3.901   1.742   5.564 -1.4284 -0.2073  0.1569
 4059TIP3   OH212140   3.074   2.838   4.408 -0.1619 -0.3854  0.1266
 4059TIP3    H112141   3.083   2.928   4.375 -1.0471 -0.5060 -0.4731
 4059TIP3    H212142   3.067   2.848   4.503  0.9098  0.0835  0.1658
 4060TIP3   OH212143   6.698   1.932   1.339  0.2896 -0.5727  0.2912
 4060TIP3    H112144   6.736   1.846   1.322  0.5856 -0.6215  1.1823
 4060TIP3    H212145   6.666   1.928   1.429 -0.1155  0.0953  0.1880
 4061TIP3   OH212146   6.139   4.099   3.525  0.5921  0.1832 -0.4150
 4061TIP3    H112147   6.058   4.142   3.551  0.7356 -0.9391  2.2829
 4061TIP3    H212148   6.197   4.170   3.498 -1.1030  1.0386 -2.0219
 4062TIP3   OH212149   4.695   4.688   3.110 -0.5505 -0.6387 -0.2206
 4062TIP3    H112150   4.652   4.648   3.186 -0.4509  1.2747  0.9328
 4062TIP3    H212151   4.779   4.644   3.104 -0.0916 -0.0906  1.5205
 4063TIP3   OH212152   3.734   6.522   3.485  0.5795 -0.4042 -0.7787
 4063TIP3    H112153   3.740   6.496   3.393 -1.4774  0.1284 -1.1211
 4063TIP3    H212154   3.693   6.448   3.528  0.1717 -0.0718 -0.5906
 4064TIP3   OH212155   6.014   6.397   4.577  0.8829 -0.7633 -0.0697
 4064TIP3    H112156   6.028   6.489   4.555  3.1630 -0.5483  1.9587
 4064TIP3    H212157   6.084   6.351   4.532  0.7981 -1.3081  0.3541
 4065TIP3   OH212158   6.934   3.917   0.196 -0.7599 -0.1087 -0.2861
 4065TIP3    H112159   7.012   3.892   0.146 -0.3456  0.8180 -0.1023
 4065TIP3    H212160   6.862   3.874   0.149 -0.1234 -1.2807 -0.2435
 4066TIP3   OH212161   2.176   0.744   2.385  0.1809 -0.5326  0.5663
 4066TIP3    H112162   2.087   0.780   2.387  0.4496  0.1460  0.4450
 4066TIP3    H212163   2.179   0.686   2.461 -0.9980 -2.1271 -0.5336
 4067TIP3   OH212164   6.080   1.448   3.007 -0.2665  0.1896  0.0573
 4067TIP3    H112165   6.082   1.370   3.062 -0.0559  0.5129  0.5169
 4067TIP3    H212166   6.124   1.515   3.059 -0.3257  0.5801 -0.3870
 4068TIP3   OH212167   5.512   5.481   0.085  0.2678 -0.1593  0.3306
 4068TIP3    H112168   5.501   5.405   0.143 -0.3191 -0.7599 -0.5395
 4068TIP3    H212169   5.571   5.451   0.017  0.6410  0.4194  0.3951
 4069TIP3   OH212170   1.838   0.093   4.592  0.4811 -0.1815  0.2646
 4069TIP3    H112171   1.746   0.084   4.570  0.3229  0.8271  0.4775
 4069TIP3    H212172   1.873   0.153   4.526  0.3599  1.5852  1.7403
 4070TIP3   OH212173   2.324   4.147   1.378  0.5527 -0.3331 -0.5563
 4070TIP3    H112174   2.314   4.118   1.288 -0.3294  2.1975 -1.3341
 4070TIP3    H212175   2.235   4.162   1.409  0.9332  1.1128 -0.0895
 4071TIP3   OH212176   1.704   5.418   2.738  0.0983  0.2300 -0.0536
 4071TIP3    H112177   1.679   5.481   2.806 -0.9452  0.2638 -0.4629
 4071TIP3    H212178   1.735   5.341   2.787 -1.5853 -0.1375  0.5085
 4072TIP3   OH212179   3.042   6.644   3.038  0.1006 -0.3056 -0.0823
 4072TIP3    H112180   3.055   6.698   2.960 -2.6453  0.1082 -0.3749
 4072TIP3    H212181   3.047   6.705   3.111  0.5949 -0.3157 -0.1069
 4073TIP3   OH212182   3.369   6.082   4.786  0.0911  0.9407  1.1075
 4073TIP3    H112183   3.317   6.087   4.706  0.2663  0.3360  0.9451
 4073TIP3    H212184   3.313   6.117   4.855 -0.1232  1.3080  0.7458
 4074TIP3   OH212185   1.231   0.847   0.419 -0.0554 -0.0874 -0.8944
 4074TIP3    H112186   1.220   0.930   0.467  0.1129 -0.0289 -0.9555
 4074TIP3    H212187   1.194   0.865   0.333  1.8139  0.5893 -1.6128
 4075TIP3   OH212188   5.149   2.897   4.469 -0.0373 -0.4142  0.4415
 4075TIP3    H112189   5.178   2.838   4.538 -0.2585 -1.2682 -0.1715
 4075TIP3    H212190   5.178   2.855   4.388  0.9791  0.9990  0.0383
 4076TIP3   OH212191   5.955   1.703   5.917 -0.5641  0.0336 -0.3861
 4076TIP3    H112192   5.864   1.682   5.896 -0.6685  1.1808 -1.1951
 4076TIP3    H212193   6.005   1.667   5.844 -0.4513  0.0676 -0.3243
 4077TIP3   OH212194   3.418   2.051   4.276 -0.2348 -0.6422 -0.5383
 4077TIP3    H112195   3.377   1.964   4.274 -1.7741 -0.0551  1.6790
 4077TIP3    H212196   3.495   2.040   4.332 -1.6283 -0.2091  1.5841
 4078TIP3   OH212197   2.544   0.041   2.972  0.2616  0.0364 -0.0884
 4078TIP3    H112198   2.539  -0.053   2.992  1.8370  0.1561  1.0684
 4078TIP3    H212199   2.495   0.083   3.043  0.7177  0.1536  0.1589
 4079TIP3   OH212200   0.209   0.690   2.514 -0.3808 -0.0250 -0.4304
 4079TIP3    H112201   0.208   0.770   2.566 -4.5286  0.0440 -0.2716
 4079TIP3    H212202   0.151   0.709   2.440 -0.9670 -2.6129 -0.7373
 4080TIP3   OH212203   6.253   4.548  -0.017  0.0267 -0.0099 -0.3290
 4080TIP3    H112204   6.293   4.579   0.064 -0.6738 -0.1254  0.0718
 4080TIP3    H212205   6.179   4.494   0.012 -1.5545  1.6669 -1.0395
 4081TIP3   OH212206   5.464   4.529   4.836  0.2197 -0.1360 -0.5993
 4081TIP3    H112207   5.489   4.439   4.816 -1.6602 -0.8590  0.0436
 4081TIP3    H212208   5.443   4.567   4.750  0.2920 -0.5588 -0.8087
 4082TIP3   OH212209   3.127   4.307   0.012  0.9547 -0.0492 -0.1827
 4082TIP3    H112210   3.094   4.240   0.071 -2.6420 -0.6416 -2.5268
 4082TIP3    H212211   3.107   4.390   0.056 -0.0608 -0.4873  0.2055
 4083TIP3   OH212212   1.015   1.902   2.781  0.3157  0.0611 -0.4953
 4083TIP3    H112213   1.099   1.935   2.747  0.7861  0.2472  0.7829
 4083TIP3    H212214   0.949   1.957   2.739  0.9297  0.8487 -0.4603
 4084TIP3   OH212215   6.882   6.403   3.514  0.6621  0.2529  0.2041
 4084TIP3    H112216   6.886   6.496   3.534  0.4450  0.7424 -1.8619
 4084TIP3    H212217   6.807   6.370   3.565  1.1625  1.0290  1.4829
 4085TIP3   OH212218   2.167   1.967   3.590  0.6764  0.7003 -0.1416
 4085TIP3    H112219   2.072   1.956   3.585  0.8265 -0.5607 -0.7140
 4085TIP3    H212220   2.202   1.889   3.547  1.9669  1.6177 -0.8173
 4086TIP3   OH212221   1.615   4.676   5.589  0.5175 -0.2093  0.9178
 4086TIP3    H112222   1.653   4.653   5.504  0.6897 -0.0522  0.9501
 4086TIP3    H212223   1.691   4.693   5.645  0.4078 -0.6145  1.1888
 4087TIP3   OH212224   6.936   5.343   3.174  0.6753  0.1575  0.5725
 4087TIP3    H112225   6.969   5.293   3.249 -0.8458 -0.8065  0.6691
 4087TIP3    H212226   6.930   5.278   3.103 -1.3965  0.1199  0.7140
 4088TIP3   OH212227   5.543   3.300   2.923 -0.5319  0.0173 -0.1740
 4088TIP3    H112228   5.512   3.325   2.836 -1.5830  1.0588  0.4775
 4088TIP3    H212229   5.463   3.290   2.975  0.1197  0.4110  0.9371
 4089TIP3   OH212230   5.347   5.108   3.838  0.0522  0.0384  0.2523
 4089TIP3    H112231   5.278   5.048   3.808 -0.2999  0.3598  0.4143
 4089TIP3    H212232   5.301   5.170   3.894  0.5274  0.0809  0.5926
 4090TIP3   OH212233   6.992   1.347   5.682  0.0619  0.2700 -0.1021
 4090TIP3    H112234   6.917   1.332   5.739  2.2547 -0.0793  2.9028
 4090TIP3    H212235   7.015   1.439   5.695 -0.0481  0.5015 -1.3669
 4091TIP3   OH212236   6.142   3.488   3.989 -0.2439  0.2565  0.1938
 4091TIP3    H112237   6.181   3.553   4.047  1.5935  0.6834 -1.4156
 4091TIP3    H212238   6.170   3.514   3.901 -0.5933 -1.9070 -0.6307
 4092TIP3   OH212239   1.256   0.981   4.634 -0.1338  0.2000  0.3762
 4092TIP3    H112240   1.334   1.012   4.678 -0.9229  4.1675 -0.5835
 4092TIP3    H212241   1.192   0.969   4.704 -0.2293  2.5975  0.8128
 4093TIP3   OH212242   5.726   3.596   0.361 -0.1067 -0.1560  0.1900
 4093TIP3    H112243   5.657   3.531   0.353 -0.4998  0.4269 -1.3410
 4093TIP3    H212244   5.770   3.596   0.276 -0.8450  2.3704 -0.2738
 4094TIP3   OH212245   3.887   1.361   5.296 -0.0687  0.5340 -0.4085
 4094TIP3    H112246   3.877   1.448   5.334 -1.0937  0.2449  0.0142
 4094TIP3    H212247   3.896   1.376   5.202  1.9835  1.2258 -0.1494
 4095TIP3   OH212248   4.569   3.059   1.037 -0.0917  0.3736  0.1362
 4095TIP3    H112249   4.563   2.964   1.039  0.8888  0.2945  0.0967
 4095TIP3    H212250   4.640   3.080   1.098  1.1839  0.9163 -1.4401
 4096TIP3   OH212251   5.444   1.367   5.139 -0.6235 -0.3768  0.1084
 4096TIP3    H112252   5.435   1.461   5.156 -1.6890 -0.2488 -1.0828
 4096TIP3    H212253   5.371   1.345   5.082 -1.4936 -2.3191  1.8502
 4097TIP3   OH212254   1.954   4.064   3.750  0.6256  0.3751 -0.8504
 4097TIP3    H112255   1.993   4.147   3.780  0.1091  0.7760 -1.2678
 4097TIP3    H212256   2.014   4.033   3.683  1.6818 -0.4248  0.4120
 4098TIP3   OH212257   3.735   1.418   4.126 -0.7472 -0.1593 -0.0023
 4098TIP3    H112258   3.652   1.378   4.102 -0.0783 -0.8742 -1.2627
 4098TIP3    H212259   3.718   1.462   4.209 -1.8138 -2.1764  0.9193
 4099TIP3   OH212260   3.566   5.818   5.203  0.3031 -0.0660 -0.2858
 4099TIP3    H112261   3.548   5.864   5.121 -1.5210 -0.5136 -0.1711
 4099TIP3    H212262   3.635   5.870   5.245 -1.0232  2.0540 -0.5793
 4100TIP3   OH212263   6.050   6.770   1.188  0.3654 -0.4144 -0.0815
 4100TIP3    H112264   6.071   6.810   1.272 -0.5043 -2.2211  1.0569
 4100TIP3    H212265   6.056   6.675   1.203 -1.5808 -0.8541 -1.5326
 4101TIP3   OH212266   2.169   4.302   5.647 -0.1225  0.0098 -0.2121
 4101TIP3    H112267   2.118   4.272   5.722 -0.2136 -0.6594 -0.5356
 4101TIP3    H212268   2.237   4.235   5.636 -0.0290  0.1720 -0.6468
 4102TIP3   OH212269   6.603   2.952   5.566  0.2653  0.2280  0.1293
 4102TIP3    H112270   6.635   3.012   5.633 -1.2858  2.3296 -0.9103
 4102TIP3    H212271   6.529   2.907   5.608 -0.0892  0.8329  0.1731
 4103TIP3   OH212272   6.296   4.711   0.212  0.4220 -0.1719 -0.4303
 4103TIP3    H112273   6.337   4.769   0.148  0.1044 -0.9720 -1.3739
 4103TIP3    H212274   6.228   4.766   0.253  0.0477  0.1079 -1.3904
 4104TIP3   OH212275   2.182   5.514   1.992 -0.1409 -0.6717  0.1790
 4104TIP3    H112276   2.158   5.541   2.080 -0.9419 -0.8411  0.0251
 4104TIP3    H212277   2.235   5.586   1.958 -1.7070  0.4380  0.0017
 4105TIP3   OH212278   1.068   1.652   3.961 -0.0915  0.0604 -0.9292
 4105TIP3    H112279   1.021   1.623   4.039  1.9995  0.6016  0.6108
 4105TIP3    H212280   1.032   1.738   3.941 -0.0189  0.3153  0.0150
 4106TIP3   OH212281   7.079   5.286   4.503 -0.1598  0.0626  0.0290
 4106TIP3    H112282   7.126   5.205   4.482 -0.2673  0.4357 -1.7874
 4106TIP3    H212283   6.987   5.258   4.511 -0.1482 -0.0535 -0.2361
 4107TIP3   OH212284   2.893   0.748   2.678 -0.4219  0.0410 -0.1503
 4107TIP3    H112285   2.944   0.707   2.609  0.4032  1.6756 -0.5696
 4107TIP3    H212286   2.803   0.746   2.646 -0.3644 -1.1808 -0.2625
 4108TIP3   OH212287   2.312   6.479   1.226 -0.1373  0.3000 -0.0411
 4108TIP3    H112288   2.268   6.503   1.144  1.2651  0.6121 -0.7413
 4108TIP3    H212289   2.346   6.391   1.209  1.3709  0.9055 -0.3563
 4109TIP3   OH212290   5.722   5.385   3.076 -0.0618  0.1195  0.0324
 4109TIP3    H112291   5.723   5.363   2.983 -0.3514 -1.7613  0.4336
 4109TIP3    H212292   5.633   5.366   3.105 -0.2601  1.6642  0.4970
 4110TIP3   OH212293   1.208   0.805   5.605 -0.2260 -0.2006  0.1265
 4110TIP3    H112294   1.172   0.797   5.516 -1.2968 -1.7711  0.6505
 4110TIP3    H212295   1.135   0.837   5.657  0.7837  2.0717  0.2434
 4111TIP3   OH212296   4.296   3.179   1.708 -0.1893  0.0864  0.1517
 4111TIP3    H112297   4.268   3.091   1.734 -0.2635  0.7797  2.6545
 4111TIP3    H212298   4.377   3.194   1.756  0.6545  0.8652 -1.4274
 4112TIP3   OH212299   4.215   3.911   5.171 -0.3977 -0.7028  0.3589
 4112TIP3    H112300   4.306   3.922   5.144 -0.9617  1.3667 -0.9449
 4112TIP3    H212301   4.187   3.830   5.128 -0.0334  0.2892 -1.8720
 4113TIP3   OH212302   2.102   5.767   0.074  0.2636 -0.5821  0.1652
 4113TIP3    H112303   2.148   5.684   0.070 -1.1123 -1.4348  1.1437
 4113TIP3    H212304   2.150   5.817   0.140  1.5189 -0.2847 -0.9278
 4114TIP3   OH212305   4.141   1.201   5.799 -0.1983  0.0450 -0.0346
 4114TIP3    H112306   4.067   1.260   5.790  0.0586  0.7256  1.7909
 4114TIP3    H212307   4.101   1.116   5.820 -0.5050  0.3811  0.8266
 4115TIP3   OH212308   3.266   1.296   3.495  0.1782  0.3258 -0.2473
 4115TIP3    H112309   3.217   1.215   3.482  0.0487  0.7953 -3.4350
 4115TIP3    H212310   3.312   1.311   3.412  4.2021  0.9933  1.8334
 4116TIP3   OH212311   0.546   5.919   0.867 -0.0127 -0.2580  0.0034
 4116TIP3    H112312   0.553   5.874   0.951  1.7097  0.8805  0.5232
 4116TIP3    H212313   0.459   5.959   0.869 -0.5965 -1.4933  0.5685
 4117TIP3   OH212314   3.232   5.950   2.031  1.2340  0.3021  0.6604
 4117TIP3    H112315   3.277   5.868   2.056  0.8658  0.5711  2.3687
 4117TIP3    H212316   3.303   6.014   2.021  1.4303  0.0777  0.6033
 4118TIP3   OH212317   7.142   1.319   0.044  0.1050  0.4758 -0.5709
 4118TIP3    H112318   7.060   1.273   0.060  0.7669 -0.8700 -0.9801
 4118TIP3    H212319   7.120   1.412   0.056 -1.0272  0.0158  1.2290
 4119TIP3   OH212320   5.086   1.996   4.751  0.6718  0.1399 -0.2868
 4119TIP3    H112321   5.101   1.908   4.716 -1.9726 -1.1487  1.4157
 4119TIP3    H212322   5.131   1.996   4.836 -0.6302 -0.2133  0.4331
 4120TIP3   OH212323   5.613   3.267   4.299  0.1461  0.1957  0.3689
 4120TIP3    H112324   5.594   3.352   4.259  0.5521 -0.3600 -1.0811
 4120TIP3    H212325   5.643   3.212   4.226  0.9708 -0.8651  1.4547
 4121TIP3   OH212326   2.366   4.912   5.310  0.5462 -0.3473 -0.0885
 4121TIP3    H112327   2.306   4.841   5.284  0.3882 -0.2588  0.0341
 4121TIP3    H212328   2.444   4.897   5.257  1.0068 -1.3530  0.8404
 4122TIP3   OH212329   7.088   1.594   4.853  0.3383 -0.1145 -0.2418
 4122TIP3    H112330   7.100   1.598   4.758 -0.6740  2.9450 -0.3349
 4122TIP3    H212331   6.994   1.584   4.865  0.5653 -1.6895  0.4990
 4123TIP3   OH212332   4.652   1.924   2.639  0.2514 -0.0655  0.1880
 4123TIP3    H112333   4.609   2.008   2.657  0.5255 -0.3203  2.2702
 4123TIP3    H212334   4.630   1.906   2.547 -3.2808  0.2974  0.7862
 4124TIP3   OH212335   0.257   1.864   0.947  1.1322  0.2715 -0.3958
 4124TIP3    H112336   0.280   1.800   0.880 -0.9138  0.4610 -1.3454
 4124TIP3    H212337   0.161   1.864   0.949  1.1027  2.0699  0.7988
 4125TIP3   OH212338   6.623   6.103   1.850 -0.3068  0.6521  0.5163
 4125TIP3    H112339   6.554   6.045   1.882  1.1646 -3.2157 -2.4659
 4125TIP3    H212340   6.685   6.109   1.922 -0.9488 -0.7997  1.2290
 4126TIP3   OH212341   6.168   1.076   4.905 -0.1748  0.5120  0.1287
 4126TIP3    H112342   6.117   1.155   4.886 -1.0658  0.0176  0.3738
 4126TIP3    H212343   6.257   1.107   4.920 -0.1392  1.2900 -1.4475
 4127TIP3   OH212344   3.967   1.692   0.853  0.3413 -0.2735  0.1767
 4127TIP3    H112345   4.061   1.677   0.857  0.1991 -1.1915  0.2811
 4127TIP3    H212346   3.928   1.605   0.861 -0.4867 -0.1263 -1.6682
 4128TIP3   OH212347   2.198   5.912   4.314  0.4795  0.6780  0.6344
 4128TIP3    H112348   2.288   5.883   4.326  0.7131  0.3828 -1.3547
 4128TIP3    H212349   2.145   5.834   4.332  0.6113  0.8136  1.6637
 4129TIP3   OH212350   6.110   4.959   2.412  0.2326  0.5909 -0.0481
 4129TIP3    H112351   6.121   4.916   2.328 -0.5988  0.3076 -0.0188
 4129TIP3    H212352   6.092   4.888   2.474 -2.5031  1.0235 -0.2388
 4130TIP3   OH212353   6.660   3.112   2.404 -0.2366 -0.2527  0.0410
 4130TIP3    H112354   6.690   3.025   2.430 -0.6698 -0.8273 -1.2947
 4130TIP3    H212355   6.573   3.121   2.443 -1.1642 -1.3723 -1.6472
 4131TIP3   OH212356   2.442   2.574   2.300  0.6912  0.3124  0.3870
 4131TIP3    H112357   2.386   2.538   2.369  3.1521  0.6163  2.7140
 4131TIP3    H212358   2.441   2.507   2.232 -3.4097  0.8548 -0.3649
 4132TIP3   OH212359   6.454   1.450   2.235  0.5530  0.3120  0.0260
 4132TIP3    H112360   6.482   1.399   2.159  2.2273  0.3875  0.5489
 4132TIP3    H212361   6.359   1.437   2.239  0.7973 -2.0803 -0.3784
 4133TIP3   OH212362   5.587   1.756   3.766  0.1908  0.5470 -0.1049
 4133TIP3    H112363   5.535   1.700   3.824 -0.7014  1.9138  0.4692
 4133TIP3    H212364   5.534   1.765   3.687  0.2073  0.7629 -0.0934
 4134TIP3   OH212365   6.250   0.429   1.735 -0.4029  1.0958 -0.2142
 4134TIP3    H112366   6.238   0.483   1.656  0.0240  0.8945 -0.4237
 4134TIP3    H212367   6.211   0.345   1.713  1.9060  0.1759 -1.1905
 4135TIP3   OH212368   4.656   2.144   1.867  0.0217 -0.0215  0.4544
 4135TIP3    H112369   4.700   2.077   1.814  0.7052 -0.1782  1.1919
 4135TIP3    H212370   4.589   2.095   1.915  1.2552 -0.4225  1.8439
 4136TIP3   OH212371   5.689   5.737   1.932  0.3759 -0.2162  0.0285
 4136TIP3    H112372   5.697   5.825   1.970  1.4950  0.2483 -1.2067
 4136TIP3    H212373   5.648   5.685   2.001 -1.8743  1.6516  0.2110
 4137TIP3   OH212374   4.380   0.243   5.172  0.2078  0.6391  0.2656
 4137TIP3    H112375   4.368   0.323   5.122  1.4276  1.4256  1.1805
 4137TIP3    H212376   4.353   0.265   5.261 -1.3374 -0.5573  0.1367
 4138TIP3   OH212377   3.194   6.114   4.573  0.3036 -0.1873 -0.1458
 4138TIP3    H112378   3.113   6.156   4.604  1.3830  2.0906 -0.1460
 4138TIP3    H212379   3.185   6.111   4.478 -0.8841 -2.5185 -0.0264
 4139TIP3   OH212380   0.648   1.721   4.405 -0.3101 -0.0904 -0.4663
 4139TIP3    H112381   0.692   1.754   4.326 -1.2232 -0.1866 -1.0296
 4139TIP3    H212382   0.577   1.783   4.421 -0.8629 -0.7226 -0.4223
 4140TIP3   OH212383   1.047   5.460   1.252 -0.3243 -0.1384 -0.3309
 4140TIP3    H112384   0.963   5.479   1.210 -0.7224  1.1816  0.9734
 4140TIP3    H212385   1.111   5.473   1.183 -1.1114 -0.0149 -1.0583
 4141TIP3   OH212386   2.312   3.834   0.670  0.2143 -0.1251 -0.4358
 4141TIP3    H112387   2.344   3.904   0.613  2.8726  0.9970  2.2057
 4141TIP3    H212388   2.346   3.754   0.630  2.1292  0.6487 -0.4593
 4142TIP3   OH212389   0.615   6.750   3.638  0.2286  0.4124  0.0937
 4142TIP3    H112390   0.617   6.661   3.673 -0.4847  0.0460 -0.7437
 4142TIP3    H212391   0.576   6.740   3.551  2.8168  1.1241 -1.2340
 4143TIP3   OH212392   4.287   5.472   4.633  0.5331  0.6903  0.3979
 4143TIP3    H112393   4.270   5.397   4.577  0.8838  0.4706  0.5828
 4143TIP3    H212394   4.240   5.452   4.715  0.6340  0.6701  0.4505
 4144TIP3   OH212395   4.424   0.242   0.954 -0.2059  0.6287 -0.1391
 4144TIP3    H112396   4.361   0.280   1.016  0.9081  2.0467  0.1768
 4144TIP3    H212397   4.393   0.272   0.868 -0.3338  0.7624 -0.0479
 4145TIP3   OH212398   3.704   6.131   4.795 -0.5928  0.2597  0.2604
 4145TIP3    H112399   3.792   6.165   4.780 -0.3073 -0.4608  0.2938
 4145TIP3    H212400   3.675   6.102   4.708 -1.3380  1.7354 -0.0195
 4146TIP3   OH212401   5.258   5.452   2.751  0.1920  0.5009  0.9601
 4146TIP3    H112402   5.354   5.443   2.749  0.2729  1.3199 -0.9130
 4146TIP3    H212403   5.242   5.539   2.715 -1.3743 -0.8666 -1.9036
 4147TIP3   OH212404   0.628   5.833   3.472 -0.2086  0.1473  0.0219
 4147TIP3    H112405   0.585   5.892   3.409  2.0752 -1.2782 -3.1481
 4147TIP3    H212406   0.719   5.861   3.473  0.5711 -2.1429 -0.2071
 4148TIP3   OH212407   5.412   4.801   4.301  0.3910  0.1918  0.1232
 4148TIP3    H112408   5.319   4.808   4.281  0.7087  1.0273 -1.1349
 4148TIP3    H212409   5.422   4.712   4.337 -0.9243  0.1988  0.5539
 4149TIP3   OH212410   0.310   3.139   4.938  0.6823  0.4001 -0.5229
 4149TIP3    H112411   0.320   3.069   5.002  1.3297  0.3284 -0.6998
 4149TIP3    H212412   0.252   3.102   4.871  0.0701  0.4486 -0.0274
 4150TIP3   OH212413   5.291   6.069   3.589 -0.2516  0.1793  0.4767
 4150TIP3    H112414   5.369   6.082   3.534  0.6095 -1.9027  1.1042
 4150TIP3    H212415   5.325   6.038   3.673 -1.5938  2.4564  1.9785
 4151TIP3   OH212416   4.299   4.421   4.230 -0.3930 -0.4270 -0.3373
 4151TIP3    H112417   4.293   4.330   4.261 -1.8184 -0.3887 -0.4040
 4151TIP3    H212418   4.293   4.473   4.310  3.4967 -0.3364  0.0760
 4152TIP3   OH212419   4.217   4.308   5.798  0.6439  0.0147 -0.4421
 4152TIP3    H112420   4.182   4.326   5.711  2.5510  0.3095 -1.1889
 4152TIP3    H212421   4.268   4.386   5.820  2.0283 -0.9678 -0.0448
 4153TIP3   OH212422   3.678   0.514   4.256 -0.7362 -0.1912 -0.1521
 4153TIP3    H112423   3.684   0.538   4.163 -0.3018  1.4506  0.2595
 4153TIP3    H212424   3.584   0.506   4.272 -0.8035 -0.7249 -0.7875
 4154TIP3   OH212425   2.249   5.788   5.852  0.5347  1.1101  0.2576
 4154TIP3    H112426   2.175   5.799   5.792  0.3474 -1.0832 -0.0229
 4154TIP3    H212427   2.227   5.708   5.901  2.3929  0.7922  0.6258
 4155TIP3   OH212428   0.591   4.801   5.285  0.0748  0.4569  0.2441
 4155TIP3    H112429   0.523   4.746   5.247 -1.2251  1.8945  0.3722
 4155TIP3    H212430   0.555   4.830   5.369  1.2675  0.4642  0.7835
 4156TIP3   OH212431  -0.010   2.586   5.305  0.1800  0.3458 -0.1403
 4156TIP3    H112432   0.017   2.504   5.264 -0.3974  0.5681 -0.9847
 4156TIP3    H212433   0.063   2.646   5.290 -1.1563  1.3481 -3.5662
 4157TIP3   OH212434   4.083   2.979   4.529  0.2322  0.1491  0.0914
 4157TIP3    H112435   4.099   2.884   4.529  1.7599  0.3625 -1.1548
 4157TIP3    H212436   3.995   2.988   4.493  0.1829 -0.7817 -0.0535
 4158TIP3   OH212437   4.260   0.988   1.392  0.2946 -0.4830  0.1981
 4158TIP3    H112438   4.287   1.038   1.469  0.3178  1.8179 -1.2098
 4158TIP3    H212439   4.319   1.017   1.322 -1.6858 -0.1029 -1.4193
 4159TIP3   OH212440   0.800   3.264   5.443  0.2003 -0.1832  0.3495
 4159TIP3    H112441   0.751   3.343   5.423  0.2426 -0.6529 -1.8295
 4159TIP3    H212442   0.732   3.196   5.454  0.2683 -0.6100 -1.6062
 4160TIP3   OH212443   0.668   6.058   4.353 -0.0129 -0.9317  0.2675
 4160TIP3    H112444   0.752   6.070   4.309 -0.6991  1.8487 -0.4659
 4160TIP3    H212445   0.691   6.018   4.437  2.5161  2.4855  1.4269
 4161TIP3   OH212446   1.172   0.288   4.563 -0.1052  0.1200 -0.2405
 4161TIP3    H112447   1.157   0.208   4.512 -0.8782  1.4678 -2.2774
 4161TIP3    H212448   1.171   0.358   4.497 -3.0668  2.2363  1.8060
 4162TIP3   OH212449   6.954   1.167   1.787  0.2993  0.5531  0.3497
 4162TIP3    H112450   6.900   1.112   1.844  0.0017  0.2985 -0.1622
 4162TIP3    H212451   7.043   1.139   1.803  0.2640  0.8092  1.0301
 4163TIP3   OH212452   2.115   6.612   1.692  0.9420  0.0112  0.0651
 4163TIP3    H112453   2.158   6.685   1.648  0.8189  0.0460  0.0024
 4163TIP3    H212454   2.139   6.535   1.641 -3.4630  0.5511 -3.3908
 4164TIP3   OH212455   4.470   2.643   0.650  0.1234 -0.5877  0.0178
 4164TIP3    H112456   4.382   2.658   0.615 -0.1916  0.9576  1.3958
 4164TIP3    H212457   4.523   2.621   0.573 -1.2735 -0.7410 -0.9333
 4165TIP3   OH212458   2.305   3.152   0.184 -0.2558 -0.4842 -0.3965
 4165TIP3    H112459   2.329   3.118   0.270 -1.4249  0.1130  0.1852
 4165TIP3    H212460   2.348   3.238   0.180 -1.6361  0.2653  0.3438
 4166TIP3   OH212461   0.818   0.014   3.729 -0.7912 -0.2114 -0.2315
 4166TIP3    H112462   0.856   0.099   3.749 -1.9047 -0.4075  3.4123
 4166TIP3    H212463   0.878  -0.049   3.769 -1.8188 -0.8847  0.2855
 4167TIP3   OH212464   4.670   5.645   1.073  0.3667 -0.2982  0.2326
 4167TIP3    H112465   4.697   5.565   1.119  1.3988 -0.5133 -0.7105
 4167TIP3    H212466   4.750   5.696   1.064  0.6097 -1.0225 -2.7982
 4168TIP3   OH212467   2.619   5.457   0.240  0.0539 -0.2562 -0.2859
 4168TIP3    H112468   2.643   5.382   0.294 -0.5688 -1.1148 -1.1530
 4168TIP3    H212469   2.701   5.503   0.224  0.3691 -0.4853  0.6512
 4169TIP3   OH212470   4.820   1.894   3.128  0.2267  0.3059  0.2242
 4169TIP3    H112471   4.748   1.835   3.106  1.0599 -1.2977  1.6021
 4169TIP3    H212472   4.873   1.897   3.048 -0.7073  0.5373 -0.4049
 4170TIP3   OH212473   2.976   6.154   5.241 -0.6487  0.0768  0.1050
 4170TIP3    H112474   2.900   6.158   5.182 -0.0667 -0.5048 -0.6986
 4170TIP3    H212475   2.971   6.068   5.281  0.5806 -0.7100 -1.3374
 4171TIP3   OH212476   0.469   3.406   3.400 -0.1048  0.1942  0.0795
 4171TIP3    H112477   0.377   3.431   3.387 -0.6435 -0.4904  2.1654
 4171TIP3    H212478   0.487   3.342   3.332 -1.3153  0.0109 -0.0847
 4172TIP3   OH212479   6.898   3.588   0.980 -0.5013 -0.1772  0.6001
 4172TIP3    H112480   6.870   3.653   1.045  0.6746  3.2248 -2.0085
 4172TIP3    H212481   6.821   3.576   0.924 -0.0469  0.9106 -0.3046
 4173TIP3   OH212482   3.425   2.010   1.553 -0.9746 -0.8712 -0.1672
 4173TIP3    H112483   3.440   2.085   1.496  1.7947 -1.2321 -0.0259
 4173TIP3    H212484   3.424   2.046   1.642 -1.3459 -0.8209 -0.1873
 4174TIP3   OH212485   1.505   0.366   4.787  0.1933  0.4067 -0.1729
 4174TIP3    H112486   1.527   0.401   4.701  1.8583  0.6362  0.3120
 4174TIP3    H212487   1.527   0.437   4.848  1.5248 -0.6597  0.6363
 4175TIP3   OH212488   2.850   1.931   3.878 -0.6532  0.1251 -0.3424
 4175TIP3    H112489   2.862   1.975   3.794 -0.3450  0.2280 -0.2442
 4175TIP3    H212490   2.884   1.992   3.942 -0.4972 -0.1317 -0.1797
 4176TIP3   OH212491   4.593   0.846   1.951 -0.1651 -0.0768 -0.4001
 4176TIP3    H112492   4.672   0.841   2.005 -0.8751 -1.4755  0.5861
 4176TIP3    H212493   4.603   0.775   1.888 -0.4199  0.0456 -0.5790
 4177TIP3   OH212494   0.145   5.059   2.134 -0.5345 -0.2063 -0.3334
 4177TIP3    H112495   0.103   4.982   2.170  1.6284  0.0741  3.2577
 4177TIP3    H212496   0.201   5.026   2.063 -0.6892 -1.7106  0.2325
 4178TIP3   OH212497   1.001   6.118   4.265 -0.3031  0.2027  0.4610
 4178TIP3    H112498   1.006   6.027   4.236 -1.2614  0.7623 -1.6476
 4178TIP3    H212499   1.078   6.129   4.321  0.8944 -1.4002 -0.7487
 4179TIP3   OH212500   7.129   3.540   1.768  0.3857  0.2657 -0.3139
 4179TIP3    H112501   7.084   3.491   1.698  0.7819  1.5472 -1.5009
 4179TIP3    H212502   7.061   3.597   1.804  0.4386  0.3842 -0.3998
 4180TIP3   OH212503   0.592   6.785   1.738 -0.6790 -0.1041 -0.0391
 4180TIP3    H112504   0.597   6.862   1.680  0.2828 -0.5669 -0.5978
 4180TIP3    H212505   0.565   6.714   1.680 -3.3600  0.1112  0.8138
 4181TIP3   OH212506   4.497   6.052   4.490  0.2613 -0.0580 -0.1903
 4181TIP3    H112507   4.510   6.102   4.410 -1.7986 -0.8879 -1.1021
 4181TIP3    H212508   4.405   6.027   4.489  0.1763 -0.1604  2.4154
 4182TIP3   OH212509   2.890   2.176   5.821 -0.2268  0.0359  0.0550
 4182TIP3    H112510   2.973   2.157   5.864  0.5392  0.1823 -1.3064
 4182TIP3    H212511   2.830   2.109   5.854 -0.0427  0.9113  2.3017
 4183TIP3   OH212512   6.229   3.136   5.335  0.3411  0.3466 -0.0231
 4183TIP3    H112513   6.309   3.176   5.300  0.7434 -0.9130 -0.5979
 4183TIP3    H212514   6.201   3.076   5.266 -0.4086 -0.1415  0.6977
 4184TIP3   OH212515   6.898   5.531   4.327  0.0235  0.2444 -0.4287
 4184TIP3    H112516   6.883   5.551   4.419  0.7911  2.3398 -0.7036
 4184TIP3    H212517   6.812   5.506   4.293 -0.4490  0.3829  0.6353
 4185TIP3   OH212518   6.066   5.967   2.431  0.4709  0.1959 -0.0739
 4185TIP3    H112519   6.111   5.883   2.437 -0.0180  0.0102  1.1623
 4185TIP3    H212520   6.109   6.022   2.497 -0.7578  0.1663  0.7768
 4186TIP3   OH212521   6.733   6.394   0.198 -0.2886  0.2077 -0.2615
 4186TIP3    H112522   6.670   6.441   0.253  0.0507 -0.7584  1.0139
 4186TIP3    H212523   6.816   6.403   0.245 -0.0765 -1.0241 -0.3669
 4187TIP3   OH212524   3.390   1.735   3.541 -0.7730  0.0109  0.5050
 4187TIP3    H112525   3.316   1.780   3.499  0.4007  0.4711 -1.1884
 4187TIP3    H212526   3.395   1.651   3.495 -0.4881 -0.1839  0.8889
 4188TIP3   OH212527   3.742   3.746   0.490  0.6789  0.3860 -0.6279
 4188TIP3    H112528   3.665   3.732   0.435  1.3000  0.7644 -1.6092
 4188TIP3    H212529   3.777   3.658   0.505 -0.5735  0.0930  0.7838
 4189TIP3   OH212530   6.390   2.556   4.881 -0.2861 -0.6856  0.3826
 4189TIP3    H112531   6.446   2.525   4.810 -1.5619 -0.2804 -0.8597
 4189TIP3    H212532   6.448   2.607   4.937  0.4509  0.4551 -1.3311
 4190TIP3   OH212533   7.116   4.027   2.870 -0.3626 -0.1294  0.0584
 4190TIP3    H112534   7.036   4.019   2.818 -0.4759 -0.1035  0.2270
 4190TIP3    H212535   7.114   4.117   2.902 -0.8797 -0.4737  1.0470
 4191TIP3   OH212536   0.822   2.046   0.820  0.2789  0.8725 -0.0974
 4191TIP3    H112537   0.788   2.045   0.909  1.6987 -0.9171  0.4691
 4191TIP3    H212538   0.772   1.977   0.775  0.7055  0.6452 -0.2243
 4192TIP3   OH212539   2.524   5.115   3.729 -0.2200  0.1916 -0.1569
 4192TIP3    H112540   2.523   5.126   3.634  2.9826  1.0968 -0.2075
 4192TIP3    H212541   2.617   5.103   3.751 -0.8865 -0.4074  2.8314
 4193TIP3   OH212542   0.611   3.458   0.023  0.3779 -0.4952 -0.1997
 4193TIP3    H112543   0.696   3.419   0.047  0.3706 -0.7076 -0.5120
 4193TIP3    H212544   0.629   3.505  -0.059  0.5180  0.6415  0.4581
 4194TIP3   OH212545   6.234   3.120   0.240  0.0537 -0.1767 -0.1626
 4194TIP3    H112546   6.280   3.107   0.157 -0.1503 -1.6329 -0.0769
 4194TIP3    H212547   6.143   3.135   0.215  0.3177  1.3976 -0.2710
 4195TIP3   OH212548   2.495   3.973   2.873  0.1977 -0.0147  0.6730
 4195TIP3    H112549   2.536   3.933   2.796 -0.7156  0.3335 -0.0171
 4195TIP3    H212550   2.568   3.996   2.930  1.0650  1.3704 -0.8868
 4196TIP3   OH212551   1.239   0.931   4.241 -0.1966  0.3196  0.5707
 4196TIP3    H112552   1.319   0.984   4.241  1.4657 -1.9963 -1.3104
 4196TIP3    H212553   1.216   0.923   4.149 -1.0904 -1.2184  0.9000
 4197TIP3   OH212554   3.276   2.607   1.671  0.1143  0.4308 -0.5573
 4197TIP3    H112555   3.234   2.664   1.735  1.6313  0.5388  0.3978
 4197TIP3    H212556   3.334   2.665   1.621  1.3644 -0.1395  0.1570
 4198TIP3   OH212557   1.765   5.177   4.816 -1.4109  0.6496  0.2826
 4198TIP3    H112558   1.708   5.236   4.865 -2.4375 -0.9890  1.1100
 4198TIP3    H212559   1.773   5.099   4.871  1.5857  0.7610  0.1716
 4199TIP3   OH212560   3.217   0.134   1.580 -0.1994 -0.0238 -0.0861
 4199TIP3    H112561   3.196   0.155   1.489  0.6861  0.8628 -0.1053
 4199TIP3    H212562   3.212   0.038   1.584  1.7202 -0.2646 -1.6232
 4200TIP3   OH212563   2.202   6.448   4.346  0.0451 -0.7071 -0.2033
 4200TIP3    H112564   2.147   6.422   4.272 -1.7752 -2.2514  1.5376
 4200TIP3    H212565   2.160   6.527   4.380  1.0307  0.1513 -0.9258
 4201TIP3   OH212566   3.849   2.862   1.356  0.5053  0.5050 -0.5104
 4201TIP3    H112567   3.796   2.933   1.391  0.6278  0.6875 -0.6907
 4201TIP3    H212568   3.825   2.858   1.263 -1.9751 -1.8429  0.0870
 4202TIP3   OH212569   5.214   0.605   1.970 -0.1719 -0.0737 -0.5734
 4202TIP3    H112570   5.307   0.589   1.986 -0.0924  0.0927 -0.8574
 4202TIP3    H212571   5.196   0.563   1.886 -0.6235 -1.0857  0.0037
 4203TIP3   OH212572   3.600   4.564   2.065  0.4665 -0.3426  0.6252
 4203TIP3    H112573   3.546   4.501   2.018 -0.3138  2.2894 -2.3058
 4203TIP3    H212574   3.541   4.606   2.127 -0.3771  0.8975 -0.9446
 4204TIP3   OH212575   0.545   2.695   1.923  0.3366 -0.0749 -0.1312
 4204TIP3    H112576   0.550   2.763   1.990  1.9413  0.0271 -0.3257
 4204TIP3    H212577   0.461   2.711   1.879  0.2469  1.1739  0.4584
 4205TIP3   OH212578   3.339   2.811   4.015  0.0736  0.1113 -0.4840
 4205TIP3    H112579   3.405   2.801   4.084 -1.1868  2.4359  1.1965
 4205TIP3    H212580   3.260   2.773   4.053 -0.2493 -0.1138 -1.3618
 4206TIP3   OH212581   3.877   1.563   1.596  0.2755  0.1798  0.2523
 4206TIP3    H112582   3.862   1.486   1.540  0.8437  0.3439 -0.1257
 4206TIP3    H212583   3.892   1.526   1.683  0.0186 -0.1084  0.1788
 4207TIP3   OH212584   5.266   1.292   5.377  0.3438 -0.0015 -0.0420
 4207TIP3    H112585   5.215   1.346   5.317 -0.0893 -0.4671 -0.1057
 4207TIP3    H212586   5.324   1.242   5.320 -0.8309 -1.2554 -0.1975
 4208TIP3   OH212587   2.507   2.219   1.306 -0.1201 -0.0390  0.0992
 4208TIP3    H112588   2.567   2.157   1.348 -0.4368  0.6113  1.6057
 4208TIP3    H212589   2.427   2.169   1.292 -0.1966 -0.1340  0.8138
 4209TIP3   OH212590   3.716   2.619   3.852 -0.2906  0.3779 -0.3919
 4209TIP3    H112591   3.747   2.542   3.899  0.7695  1.4863  0.7945
 4209TIP3    H212592   3.780   2.631   3.782 -1.3480 -0.7203 -1.5960
 4210TIP3   OH212593   0.612   4.634   5.814 -0.2597  0.1182 -1.0554
 4210TIP3    H112594   0.524   4.668   5.797  0.5543  2.1524 -1.5133
 4210TIP3    H212595   0.624   4.644   5.908 -0.6764 -0.6715 -0.9026
 4211TIP3   OH212596   4.987   4.514   4.171  0.0967  0.3544 -0.0590
 4211TIP3    H112597   5.073   4.485   4.200  0.1929  0.5971 -0.1025
 4211TIP3    H212598   5.001   4.601   4.135 -0.4147  1.0447  1.3342
 4212TIP3   OH212599   3.718   0.036   0.403 -0.6526 -0.2480 -0.3457
 4212TIP3    H112600   3.734  -0.015   0.482 -0.7713 -0.1020 -0.2269
 4212TIP3    H212601   3.626   0.064   0.410 -0.4416  0.4232 -0.1528
 4213TIP3   OH212602   3.880   4.159   2.336  0.3362 -0.1660  0.5706
 4213TIP3    H112603   3.918   4.227   2.391  1.1734 -1.2093  1.3227
 4213TIP3    H212604   3.826   4.107   2.396  0.2800 -0.5825  0.1663
 4214TIP3   OH212605   0.208   6.657   2.084  0.1009 -0.3824  0.1479
 4214TIP3    H112606   0.210   6.669   2.179  0.4852 -1.4737  0.2885
 4214TIP3    H212607   0.159   6.733   2.051  1.6937  1.1183  1.0335
 4215TIP3   OH212608   6.942   4.222   3.927  0.5852 -0.0473 -0.3033
 4215TIP3    H112609   7.011   4.289   3.933 -1.0505  1.5516  2.1000
 4215TIP3    H212610   6.983   4.143   3.962  0.7497  1.4046  3.2344
 4216TIP3   OH212611   0.571   5.994   2.176 -0.5857 -0.0180 -0.5168
 4216TIP3    H112612   0.490   5.959   2.213 -0.4649  0.9985  0.8127
 4216TIP3    H212613   0.606   5.924   2.121 -1.2702 -1.2730  0.5963
 4217TIP3   OH212614   4.229   5.174   5.143  0.3064  0.3858 -0.0270
 4217TIP3    H112615   4.246   5.081   5.153 -0.7072  0.2992  1.1476
 4217TIP3    H212616   4.167   5.180   5.070  0.3150  0.1272 -0.0549
 4218TIP3   OH212617   6.321   0.696   2.353 -0.5757  0.5526 -0.8391
 4218TIP3    H112618   6.378   0.653   2.416 -0.0604  2.7344  0.2496
 4218TIP3    H212619   6.339   0.651   2.270 -0.2023 -1.3916  0.2335
 4219TIP3   OH212620   6.705   1.728   5.050  0.1529  0.0619 -0.2902
 4219TIP3    H112621   6.680   1.751   4.960  1.7448 -0.3426 -0.8708
 4219TIP3    H212622   6.721   1.812   5.093  1.3418  0.2342 -1.0115
 4220TIP3   OH212623   3.806   0.077   2.166 -0.1584  0.6830 -0.4295
 4220TIP3    H112624   3.718   0.056   2.197  0.3735  0.8853  1.3441
 4220TIP3    H212625   3.815   0.029   2.083 -2.2713  1.4740 -1.1710
 4221TIP3   OH212626   0.382   4.233   3.779  0.6613  0.0525 -0.0310
 4221TIP3    H112627   0.370   4.146   3.817 -0.2639 -0.1916 -0.8417
 4221TIP3    H212628   0.471   4.257   3.802  0.6413 -0.7491  0.9337
 4222TIP3   OH212629   1.568   0.784   2.010  0.3972 -0.8175 -0.0372
 4222TIP3    H112630   1.565   0.706   2.066 -1.2945 -2.2299 -1.9061
 4222TIP3    H212631   1.497   0.839   2.042 -1.2870 -2.1145 -1.3161
 4223TIP3   OH212632   6.220   2.230   1.579 -0.0097 -0.1938  0.1138
 4223TIP3    H112633   6.135   2.269   1.598 -0.0736 -0.7438  0.9990
 4223TIP3    H212634   6.283   2.293   1.613 -0.0483  0.1846 -0.4873
 4224TIP3   OH212635   0.795   6.651   1.218  0.4390 -0.8125  0.5095
 4224TIP3    H112636   0.745   6.572   1.238 -3.0729  1.2131  0.6641
 4224TIP3    H212637   0.823   6.638   1.127  1.4796 -2.8731  1.0543
 4225TIP3   OH212638   1.395   5.840   2.809  0.8857 -0.4873 -0.2308
 4225TIP3    H112639   1.346   5.856   2.729  0.9580 -0.8398 -0.3479
 4225TIP3    H212640   1.331   5.852   2.879  0.1964 -2.5300 -0.4513
 4226TIP3   OH212641   3.426   5.748   2.938 -0.6471  0.3195 -0.3295
 4226TIP3    H112642   3.382   5.663   2.945  0.3032 -0.1711 -0.1323
 4226TIP3    H212643   3.411   5.776   2.848 -0.6351 -0.2476 -0.5096
 4227TIP3   OH212644   1.104   5.649   5.549  0.6828 -0.1735 -0.5098
 4227TIP3    H112645   1.148   5.702   5.615  1.1069 -0.7873 -0.2859
 4227TIP3    H212646   1.157   5.659   5.470  0.2571  0.4446 -0.7239
 4228TIP3   OH212647   3.297   6.694   3.472  0.0422 -0.0268  0.4713
 4228TIP3    H112648   3.246   6.713   3.393  0.9517  0.0797 -0.1139
 4228TIP3    H212649   3.290   6.774   3.524  0.3679  0.3398 -0.0317
 4229TIP3   OH212650   5.783   1.825   0.063  0.4402  0.3604  0.0772
 4229TIP3    H112651   5.789   1.748   0.006 -1.5653  0.2251 -0.0328
 4229TIP3    H212652   5.825   1.798   0.144 -1.0820 -1.2443  0.3868
 4230TIP3   OH212653   2.695   1.125   3.774 -0.2386  0.0329 -0.1445
 4230TIP3    H112654   2.737   1.195   3.724 -0.6039 -0.2715 -0.8840
 4230TIP3    H212655   2.760   1.102   3.841 -0.1039  1.0513  0.0953
 4231TIP3   OH212656   1.830   4.422   2.363  0.1289  0.6377 -0.2873
 4231TIP3    H112657   1.880   4.503   2.375 -0.0504  0.7348 -0.1965
 4231TIP3    H212658   1.788   4.432   2.278 -0.3225  0.8688 -0.0361
 4232TIP3   OH212659   4.731   4.161   0.282 -0.2427  0.0572  0.3172
 4232TIP3    H112660   4.642   4.141   0.254  0.2490 -1.4540 -0.3243
 4232TIP3    H212661   4.772   4.200   0.205  0.0141 -0.5204  0.1502
 4233TIP3   OH212662   3.123   6.741   2.237  0.1314  0.1313 -0.5040
 4233TIP3    H112663   3.177   6.662   2.237  1.7457  1.1727  0.6313
 4233TIP3    H212664   3.052   6.722   2.298  0.7738 -0.2838  0.1223
 4234TIP3   OH212665   6.509   4.958   5.452  0.0424 -0.1952 -0.3427
 4234TIP3    H112666   6.581   5.022   5.455 -1.6356  1.7829  0.6445
 4234TIP3    H212667   6.462   4.980   5.372 -1.2000  0.6386  0.5771
 4235TIP3   OH212668   0.704   3.011   2.445  0.2355  1.1189  0.4156
 4235TIP3    H112669   0.680   3.039   2.533 -2.6501  2.6988 -0.7589
 4235TIP3    H212670   0.767   3.077   2.415 -1.3572  2.5834  0.1432
 4236TIP3   OH212671   4.113   1.862   0.514 -0.3519  0.4278  0.4551
 4236TIP3    H112672   4.193   1.854   0.566 -0.3010 -2.0200  0.1205
 4236TIP3    H212673   4.144   1.872   0.424 -0.4521  1.4985  0.5243
 4237TIP3   OH212674   1.247   3.575   2.127  0.5601 -0.4383  0.3778
 4237TIP3    H112675   1.298   3.536   2.198  1.6740 -0.5134 -0.4371
 4237TIP3    H212676   1.190   3.639   2.171 -0.3030 -1.9432  1.5716
 4238TIP3   OH212677   6.407   4.029   1.657  0.1901 -0.3847  0.2331
 4238TIP3    H112678   6.470   3.969   1.696  0.0158 -1.3720 -0.9580
 4238TIP3    H212679   6.423   4.112   1.701  1.6569 -0.8527  0.6481
 4239TIP3   OH212680   4.934   1.146   4.642 -0.3356 -0.7412  0.2715
 4239TIP3    H112681   4.853   1.193   4.663  0.4025  1.2002 -0.8764
 4239TIP3    H212682   4.924   1.123   4.549 -0.5438 -2.6752  0.7364
 4240TIP3   OH212683   3.726   2.294   4.202  0.0723  0.2367  0.0773
 4240TIP3    H112684   3.747   2.318   4.112 -0.6232 -2.2475 -0.8044
 4240TIP3    H212685   3.809   2.259   4.237 -0.2983 -1.2986 -0.5128
 4241TIP3   OH212686   2.208   2.419   4.105 -0.0546 -0.3099  0.9149
 4241TIP3    H112687   2.236   2.506   4.079  1.2786 -0.5988  1.2989
 4241TIP3    H212688   2.156   2.433   4.185 -1.5139  0.2811 -0.0951
 4242TIP3   OH212689   3.318   4.431   3.747  0.5985 -0.3308  0.3294
 4242TIP3    H112690   3.361   4.422   3.662 -2.7903 -0.6556 -1.5547
 4242TIP3    H212691   3.273   4.347   3.760 -0.2798  0.3081  1.6197
 4243TIP3   OH212692   5.019   0.800   0.608 -0.2411 -0.1803 -1.0335
 4243TIP3    H112693   5.095   0.858   0.610 -0.0482 -0.3759  2.2492
 4243TIP3    H212694   4.945   0.859   0.591  0.3295  0.4693 -1.3161
 4244TIP3   OH212695   1.737   5.704   0.793  0.5084 -0.5110 -0.3800
 4244TIP3    H112696   1.821   5.659   0.784  0.4869 -0.6002 -0.1422
 4244TIP3    H212697   1.704   5.676   0.879  1.3290  1.3721  0.6022
 4245TIP3   OH212698   7.042   0.378   3.499 -0.1906 -0.4157  0.1223
 4245TIP3    H112699   6.947   0.372   3.502 -0.5238  2.2084 -1.6548
 4245TIP3    H212700   7.064   0.370   3.406  0.9764  1.9037  0.1198
 4246TIP3   OH212701   3.553   0.995   1.550 -0.3790  0.6152 -0.1271
 4246TIP3    H112702   3.500   1.057   1.601  1.7968  2.0100  0.5698
 4246TIP3    H212703   3.616   0.961   1.613  1.3609  1.1586 -1.5118
 4247TIP3   OH212704   2.643   0.651   2.581  0.6378 -0.0596  0.5438
 4247TIP3    H112705   2.647   0.622   2.490  1.4539  1.0174  0.2266
 4247TIP3    H212706   2.591   0.583   2.625 -1.3732  0.3450 -1.0655
 4248TIP3   OH212707   2.579   3.223   2.918  0.7641  0.1844  0.4500
 4248TIP3    H112708   2.607   3.189   2.833  2.6109 -0.9418  1.4520
 4248TIP3    H212709   2.640   3.184   2.981  0.6660  2.5143  2.0939
 4249TIP3   OH212710   7.100   5.937   1.284  0.6566 -0.0723  0.0116
 4249TIP3    H112711   7.119   5.879   1.210 -0.9621  0.3482 -0.7751
 4249TIP3    H212712   7.103   5.879   1.360  0.4458 -0.9265 -0.6051
 4250TIP3   OH212713   5.861   6.465   3.506 -0.3798 -0.1779 -0.0910
 4250TIP3    H112714   5.849   6.553   3.543  0.4524 -0.4804  0.9707
 4250TIP3    H212715   5.773   6.428   3.503 -0.6772  0.5015 -0.0484
 4251TIP3   OH212716   3.411   4.484   2.614 -0.2851 -0.3233 -0.0100
 4251TIP3    H112717   3.321   4.517   2.611 -0.1654 -0.0482 -0.7667
 4251TIP3    H212718   3.436   4.475   2.522  0.1977 -1.1364  0.1954
 4252TIP3   OH212719   4.562   3.204   2.385  0.0624 -0.4384  0.3530
 4252TIP3    H112720   4.551   3.135   2.450  2.5342  0.3536  1.7490
 4252TIP3    H212721   4.529   3.283   2.428 -1.2364 -0.4217 -0.6135
 4253TIP3   OH212722   3.273   2.555   0.991 -0.6574  0.4020  0.3016
 4253TIP3    H112723   3.226   2.628   0.949 -0.3895  0.4771  0.1335
 4253TIP3    H212724   3.364   2.584   0.994 -0.4415 -0.1957 -0.3448
 4254TIP3   OH212725   0.661   2.217   5.466 -0.3161  0.1795  0.1346
 4254TIP3    H112726   0.626   2.167   5.393  0.6369  1.9370 -1.6145
 4254TIP3    H212727   0.590   2.274   5.492 -0.4764 -0.0554  0.2160
 4255TIP3   OH212728   2.502   4.632   0.139  0.0692 -0.2852 -0.6707
 4255TIP3    H112729   2.451   4.604   0.063  1.0523 -0.5937 -1.2395
 4255TIP3    H212730   2.561   4.558   0.157 -0.2882 -0.3003  0.5248
 4256TIP3   OH212731   3.925   4.666   2.774  0.5203  0.2016  0.9475
 4256TIP3    H112732   3.881   4.738   2.820  0.2998 -1.0997  2.8728
 4256TIP3    H212733   3.853   4.609   2.746  0.7853 -0.0156  0.7075
 4257TIP3   OH212734   3.378   5.180   2.860  0.0144 -0.0144  0.1956
 4257TIP3    H112735   3.341   5.233   2.931  2.3461  0.8464  0.8315
 4257TIP3    H212736   3.332   5.097   2.867 -0.6726  0.4597  1.9446
 4258TIP3   OH212737   6.571   1.254   3.604  0.0695 -0.5136  0.3878
 4258TIP3    H112738   6.520   1.197   3.661  0.0509 -0.1406  0.7533
 4258TIP3    H212739   6.514   1.330   3.588 -0.7755 -1.5149 -1.8404
 4259TIP3   OH212740   1.930   3.565   4.795  0.2194  0.7667  0.1581
 4259TIP3    H112741   1.851   3.607   4.827 -0.0680  0.8258 -0.6073
 4259TIP3    H212742   1.928   3.579   4.700  0.7055  0.0279  0.0300
 4260TIP3   OH212743   5.105   0.298   3.199 -0.4286 -0.7318  0.2535
 4260TIP3    H112744   5.122   0.367   3.134 -0.8258 -1.2139 -0.3632
 4260TIP3    H212745   5.177   0.236   3.187 -0.5682 -0.8818  0.1997
 4261TIP3   OH212746   1.088   5.992   1.331 -0.4141  0.5982  0.1592
 4261TIP3    H112747   0.993   6.001   1.327 -0.6793 -1.5081  0.1316
 4261TIP3    H212748   1.108   5.926   1.264  1.0590  0.9036  0.2550
 4262TIP3   OH212749   6.244   2.615   0.919  0.0918  0.6917 -0.0744
 4262TIP3    H112750   6.221   2.701   0.884  0.3640  1.0854  0.6812
 4262TIP3    H212751   6.339   2.612   0.916  0.0822  0.3992 -0.1288
 4263TIP3   OH212752   2.903   4.509   3.228  0.0513  0.2812 -0.7803
 4263TIP3    H112753   2.895   4.594   3.184 -1.1737 -0.5406 -2.2379
 4263TIP3    H212754   2.823   4.501   3.280  0.8109  0.5952  0.4784
 4264TIP3   OH212755   0.718   4.609   0.303  0.2522  0.1763 -0.2827
 4264TIP3    H112756   0.787   4.567   0.252  0.5797  1.0469 -0.5837
 4264TIP3    H212757   0.670   4.537   0.344  1.7585 -0.4394  0.4761
 4265TIP3   OH212758   6.936   4.813   4.830 -0.2937 -0.3974  0.9101
 4265TIP3    H112759   6.983   4.729   4.829 -0.4749 -0.4949  0.3863
 4265TIP3    H212760   6.906   4.824   4.740  0.4774  0.6459  0.7682
 4266TIP3   OH212761   4.245   0.071   3.188  0.4072 -0.0916  0.0682
 4266TIP3    H112762   4.211   0.020   3.262  0.6001  0.7623  0.7628
 4266TIP3    H212763   4.317   0.121   3.225  1.8311 -1.1487 -1.1670
 4267TIP3   OH212764   1.146   4.835   3.544 -0.3629 -0.5811  0.2379
 4267TIP3    H112765   1.063   4.840   3.497 -1.0450 -0.9879  1.3619
 4267TIP3    H212766   1.121   4.818   3.635  0.8726  0.9405  0.9112
 4268TIP3   OH212767   3.925   0.418   5.832  0.9838  0.5489 -0.1135
 4268TIP3    H112768   3.875   0.407   5.913  1.0279 -0.4237 -0.2093
 4268TIP3    H212769   3.927   0.513   5.818  1.2727  0.7571  1.2072
 4269TIP3   OH212770   3.302   2.397   0.237  0.1392  0.0051  0.2475
 4269TIP3    H112771   3.293   2.454   0.160  1.5509  0.1159  0.1490
 4269TIP3    H212772   3.392   2.366   0.234 -0.2873 -1.3904  0.9067
 4270TIP3   OH212773   4.634   5.448   5.704  0.1093 -0.6337  0.1109
 4270TIP3    H112774   4.711   5.439   5.759 -0.2700 -0.5021  0.6682
 4270TIP3    H212775   4.573   5.500   5.756  0.0634  0.2160 -0.7559
 4271TIP3   OH212776   6.483   0.913   0.387  0.1700 -0.5353  0.6934
 4271TIP3    H112777   6.549   0.850   0.417  0.9871 -0.2271 -0.4212
 4271TIP3    H212778   6.437   0.867   0.317  0.5819  0.0029  0.0679
 4272TIP3   OH212779   5.241   4.188   4.057 -0.2635 -0.0930 -0.1668
 4272TIP3    H112780   5.335   4.192   4.037 -0.0384 -0.4803  0.7564
 4272TIP3    H212781   5.207   4.121   3.999 -0.0040  0.1873 -0.6453
 4273TIP3   OH212782   1.427   1.219   1.083  0.4436  0.1051 -0.4410
 4273TIP3    H112783   1.381   1.277   1.144  0.2158  0.2993 -0.7955
 4273TIP3    H212784   1.408   1.130   1.115  0.3036  0.2046 -0.2468
 4274TIP3   OH212785   2.810   6.678   5.693 -0.3647  0.2200 -0.6175
 4274TIP3    H112786   2.765   6.595   5.703  0.9648 -0.5298 -0.5929
 4274TIP3    H212787   2.770   6.735   5.759 -0.7284 -0.6532 -0.0675
 4275TIP3   OH212788   3.065   3.615   5.805  0.0446  0.1199  0.0051
 4275TIP3    H112789   3.040   3.524   5.788  2.0605 -1.0558  2.5765
 4275TIP3    H212790   3.134   3.634   5.742  0.5833 -0.6477  0.3529
 4276TIP3   OH212791   2.173   6.423   2.715  0.4148  0.6941  0.0309
 4276TIP3    H112792   2.239   6.477   2.760 -0.1431 -0.6082  2.5575
 4276TIP3    H212793   2.095   6.479   2.712  0.4905  0.8470  0.6350
 4277TIP3   OH212794   4.332   3.524   4.946  0.2614 -0.3804 -0.2788
 4277TIP3    H112795   4.240   3.496   4.948  0.2883 -0.8155 -2.3561
 4277TIP3    H212796   4.378   3.451   4.906  1.3554  0.2447 -0.1860
 4278TIP3   OH212797   7.035   6.157   5.260  0.4625  0.3913 -0.3691
 4278TIP3    H112798   6.981   6.232   5.233 -0.5509  0.8618  2.5591
 4278TIP3    H212799   6.977   6.082   5.250  0.7800  0.2595 -1.3316
 4279TIP3   OH212800   0.284   6.377   0.142  0.1207  0.0785 -0.1539
 4279TIP3    H112801   0.375   6.366   0.116 -0.2396 -0.3092 -1.3123
 4279TIP3    H212802   0.244   6.291   0.126 -0.2777  0.0137  1.0872
 4280TIP3   OH212803   2.212   4.992   3.581 -0.5792  0.4932  0.0128
 4280TIP3    H112804   2.284   4.958   3.527 -1.2780 -0.2576 -0.4593
 4280TIP3    H212805   2.187   5.074   3.539 -1.6514 -0.4770 -1.2997
 4281TIP3   OH212806   3.408   0.081   0.434 -0.0847 -0.9715 -0.6795
 4281TIP3    H112807   3.367   0.043   0.512  0.8477  1.4432  1.1000
 4281TIP3    H212808   3.389   0.174   0.439  0.9183 -0.5815 -2.8089
 4282TIP3   OH212809   5.101   5.899   0.232  0.5678 -0.0810  0.0486
 4282TIP3    H112810   5.068   5.976   0.186  0.0730 -0.1283  0.3155
 4282TIP3    H212811   5.037   5.884   0.302  1.3868  0.0870  0.8514
 4283TIP3   OH212812   4.236   5.810   0.411 -0.6094  0.0915  0.5825
 4283TIP3    H112813   4.258   5.739   0.350 -0.3187  1.1427 -0.5609
 4283TIP3    H212814   4.233   5.889   0.357 -1.0811  0.9440  1.8079
 4284TIP3   OH212815   1.434   0.692   0.541  0.4678 -0.6390  0.1395
 4284TIP3    H112816   1.433   0.767   0.483  1.7094 -0.8071 -0.1205
 4284TIP3    H212817   1.347   0.653   0.531  0.5501 -0.4888 -1.3665
 4285TIP3   OH212818   5.891   0.919   1.280  0.4945 -0.3979 -0.2117
 4285TIP3    H112819   5.871   0.873   1.361 -1.2646 -0.6980 -0.7792
 4285TIP3    H212820   5.985   0.909   1.269  0.9103  0.2334  2.1339
 4286TIP3   OH212821   4.275   5.745   3.263 -0.1635 -0.4177  0.1659
 4286TIP3    H112822   4.307   5.801   3.333 -0.8029 -0.7657  0.7395
 4286TIP3    H212823   4.296   5.656   3.292  0.5281 -0.5154 -0.5787
 4287TIP3   OH212824   4.100   2.008   5.448 -0.5053  0.5416 -0.4258
 4287TIP3    H112825   4.138   2.057   5.520  0.5276 -0.9311  0.0722
 4287TIP3    H212826   4.128   1.918   5.463  0.2619  0.2725 -2.9793
 4288TIP3   OH212827   5.889   6.405   2.199 -0.3270 -0.3765  0.7380
 4288TIP3    H112828   5.822   6.378   2.137  0.8411 -0.5028 -0.5206
 4288TIP3    H212829   5.897   6.332   2.260 -2.1688  0.1433  1.6950
 4289TIP3   OH212830   5.746   4.133   3.292  0.2964 -0.7420  0.1923
 4289TIP3    H112831   5.819   4.195   3.290  0.3411 -0.8007 -1.4965
 4289TIP3    H212832   5.772   4.068   3.357  0.6443  0.5082  1.3735
 4290TIP3   OH212833   0.749   4.304   3.694  0.5200  0.2310 -0.2121
 4290TIP3    H112834   0.796   4.223   3.673  0.2286  0.2207 -0.8304
 4290TIP3    H212835   0.764   4.360   3.618 -0.9012  0.0410 -0.6490
 4291TIP3   OH212836   0.856   1.400   1.986  0.0636  0.0243  0.2722
 4291TIP3    H112837   0.845   1.419   2.079 -0.4237  0.5957  0.1008
 4291TIP3    H212838   0.768   1.402   1.950  0.3254  0.6751 -0.3635
 4292TIP3   OH212839   2.734   5.280   2.994  0.5387  0.6407  0.1493
 4292TIP3    H112840   2.697   5.209   3.047 -1.2119  0.0743 -1.7052
 4292TIP3    H212841   2.774   5.237   2.919  0.9995  1.5294 -0.1307
 4293TIP3   OH212842   5.668   5.312   4.261  0.2634  0.2710 -0.2079
 4293TIP3    H112843   5.743   5.362   4.230  1.9401 -1.5014  0.7390
 4293TIP3    H212844   5.640   5.357   4.341  0.7584  0.5661 -0.1982
 4294TIP3   OH212845   3.035   3.938   3.356 -0.3453  0.0156  0.0513
 4294TIP3    H112846   3.047   3.852   3.317  1.8496  0.4365 -0.3130
 4294TIP3    H212847   2.974   3.983   3.298  0.0165 -0.6324 -0.8486
 4295TIP3   OH212848   0.200   1.295   2.196  0.6492 -0.8160 -0.3303
 4295TIP3    H112849   0.175   1.369   2.141  2.3721 -0.1997 -0.3153
 4295TIP3    H212850   0.184   1.326   2.286  1.8998 -0.2389 -0.2968
 4296TIP3   OH212851   4.872   5.440   2.500 -0.0039  0.4368  0.2938
 4296TIP3    H112852   4.823   5.521   2.486  1.1091  0.8668 -1.4483
 4296TIP3    H212853   4.964   5.465   2.488  0.4934 -0.7967  1.2271
 4297TIP3   OH212854   1.733   0.082   1.692  0.0922 -0.0709 -0.5477
 4297TIP3    H112855   1.812   0.075   1.638 -0.2166 -1.5987 -0.8366
 4297TIP3    H212856   1.710  -0.008   1.713 -0.0232  0.4620  1.8532
 4298TIP3   OH212857   1.733   6.223   5.481  0.3924 -0.2183  0.0696
 4298TIP3    H112858   1.752   6.130   5.476 -2.3697 -0.9874  1.5492
 4298TIP3    H212859   1.793   6.264   5.418  1.2516 -3.0252 -1.0854
 4299TIP3   OH212860   6.694   6.030   0.853  0.0814  0.2081 -0.1054
 4299TIP3    H112861   6.695   5.942   0.816  0.0091  0.3488 -0.4396
 4299TIP3    H212862   6.773   6.034   0.907  0.1648 -0.0079 -0.2129
 4300TIP3   OH212863   1.637   6.728   1.289 -0.5363  0.3407 -0.4412
 4300TIP3    H112864   1.622   6.667   1.361 -1.3998  2.2599  1.0933
 4300TIP3    H212865   1.723   6.704   1.254 -0.3647 -0.9975  0.8543
 4301TIP3   OH212866   7.150   6.594   4.213 -0.2772  0.7671  0.4965
 4301TIP3    H112867   7.146   6.636   4.127  2.4916 -1.3242 -0.8462
 4301TIP3    H212868   7.177   6.664   4.273 -0.4927  1.9025 -0.6947
 4302TIP3   OH212869   5.230   0.538   1.696 -0.4098  0.5330  0.9306
 4302TIP3    H112870   5.172   0.520   1.622  0.5395 -0.7669  0.4613
 4302TIP3    H212871   5.318   0.534   1.659  0.0507  0.9445  1.9311
 4303TIP3   OH212872   1.377   0.637   3.352  0.3973 -0.0277  0.0291
 4303TIP3    H112873   1.310   0.705   3.363  0.6910  0.1213  0.9898
 4303TIP3    H212874   1.349   0.588   3.275  0.1170  1.1128 -0.6159
 4304TIP3   OH212875   4.123   3.915   0.977 -0.1556  0.0930  1.0095
 4304TIP3    H112876   4.185   3.986   0.994 -0.1428  0.0384  1.1970
 4304TIP3    H212877   4.118   3.910   0.882  0.8267 -0.5048  0.9734
 4305TIP3   OH212878   6.000   2.990   5.472 -0.1805  0.3116  0.1120
 4305TIP3    H112879   5.922   3.042   5.492 -0.4367  0.2823 -0.7802
 4305TIP3    H212880   6.064   3.053   5.440 -0.0734  0.2379  0.1771
 4306TIP3   OH212881   2.188   2.208   2.322 -0.0615 -0.1260  0.4664
 4306TIP3    H112882   2.183   2.217   2.417 -0.0759 -0.1735  0.4700
 4306TIP3    H212883   2.106   2.246   2.290  0.4894  1.0761  0.3928
 4307TIP3   OH212884   4.304   6.421   0.285 -0.1586 -0.8130  0.3098
 4307TIP3    H112885   4.322   6.382   0.199  1.5909 -0.2535  0.3860
 4307TIP3    H212886   4.340   6.510   0.279 -1.6487 -0.1174  1.0427
 4308TIP3   OH212887   2.955   2.674   1.550  0.1393 -0.2365 -0.4270
 4308TIP3    H112888   2.968   2.757   1.595  0.1440 -1.2768  1.5800
 4308TIP3    H212889   2.929   2.699   1.461  0.4489  1.8866  0.0243
 4309TIP3   OH212890   6.958   5.962   1.873  0.0225  0.2010 -0.0459
 4309TIP3    H112891   6.944   6.050   1.838 -2.1333 -0.6854 -1.5981
 4309TIP3    H212892   6.902   5.958   1.951 -0.5884 -0.0834 -0.4968
 4310TIP3   OH212893   2.305   4.284   4.457  0.3172 -0.1758 -0.0773
 4310TIP3    H112894   2.325   4.294   4.364 -0.7787 -1.5095 -0.4895
 4310TIP3    H212895   2.352   4.204   4.483 -1.7749 -1.5721 -0.2983
 4311TIP3   OH212896   5.019   5.178   3.622 -0.6124  0.9423  0.5066
 4311TIP3    H112897   5.062   5.101   3.660 -0.9302  0.4914 -0.0444
 4311TIP3    H212898   4.927   5.168   3.645 -0.7135  0.9632  0.1099
 4312TIP3   OH212899   5.513   4.459   3.529 -0.3709  0.1616  0.3407
 4312TIP3    H112900   5.600   4.497   3.535 -1.2164  2.0160  1.8255
 4312TIP3    H212901   5.503   4.408   3.610 -0.3711 -0.7606 -0.2238
 4313TIP3   OH212902   3.617   0.901   2.231 -0.2237  0.1402 -0.1717
 4313TIP3    H112903   3.557   0.853   2.173 -1.1434 -2.0246  2.3612
 4313TIP3    H212904   3.669   0.955   2.171 -3.1538  0.4786 -2.7211
 4314TIP3   OH212905   0.393   5.457   2.781  0.3845  0.0085 -0.0073
 4314TIP3    H112906   0.471   5.443   2.835 -0.1814  1.0809  1.1205
 4314TIP3    H212907   0.374   5.550   2.790  0.1228  0.1841 -1.8917
 4315TIP3   OH212908   5.300   6.452   2.355 -0.0873 -0.6907 -0.1333
 4315TIP3    H112909   5.237   6.384   2.380 -2.4121  0.5554 -2.1763
 4315TIP3    H212910   5.279   6.526   2.412 -0.9686 -0.0836 -1.1844
 4316TIP3   OH212911   4.938   3.691   0.245  0.0843  0.1711  0.2449
 4316TIP3    H112912   5.024   3.669   0.211  0.2134  0.5045  0.3521
 4316TIP3    H212913   4.901   3.607   0.272  0.2420 -0.0130 -0.1043
 4317TIP3   OH212914   6.507   0.470   4.677 -0.5879 -0.0178 -0.1979
 4317TIP3    H112915   6.434   0.470   4.738 -0.6539 -0.3745 -0.2729
 4317TIP3    H212916   6.520   0.562   4.654 -1.5644 -0.0295 -0.8379
 4318TIP3   OH212917   4.217   5.963   4.536 -0.2262 -0.3194  0.0116
 4318TIP3    H112918   4.129   5.980   4.568 -1.4731 -1.9573 -2.2603
 4318TIP3    H212919   4.231   5.869   4.552  0.4370 -0.4278 -1.0939
 4319TIP3   OH212920   4.806   2.980   1.256 -0.5262  0.0212 -0.6864
 4319TIP3    H112921   4.809   2.948   1.346 -1.6406  1.1336 -0.2237
 4319TIP3    H212922   4.748   2.919   1.210 -0.5710 -0.1106 -0.4532
 4320TIP3   OH212923   4.257   6.627   2.519  0.1430  0.0893 -0.0063
 4320TIP3    H112924   4.263   6.647   2.425  0.7442  0.3002  0.0763
 4320TIP3    H212925   4.185   6.682   2.550  0.2417  0.3599 -0.2531
 4321TIP3   OH212926   0.989   6.473   4.711 -0.6793 -0.1124  0.1237
 4321TIP3    H112927   1.002   6.397   4.655 -2.7225  0.9086 -1.9099
 4321TIP3    H212928   0.900   6.503   4.691  0.4182  3.5336 -0.1197
 4322TIP3   OH212929   5.365   1.392   5.830  0.0803 -0.0505 -0.3762
 4322TIP3    H112930   5.394   1.343   5.753 -0.5116  1.3042 -1.5070
 4322TIP3    H212931   5.280   1.427   5.806 -0.5563 -0.3801  1.2776
 4323TIP3   OH212932   0.048   3.096   5.735  0.1770 -0.2902  0.3312
 4323TIP3    H112933   0.133   3.120   5.697  0.5657 -0.2900  1.1738
 4323TIP3    H212934   0.029   3.166   5.797 -1.5705  0.9380 -1.4777
 4324TIP3   OH212935   6.915   2.831   0.890 -0.4615  0.3877 -0.9959
 4324TIP3    H112936   6.940   2.921   0.913 -0.6516  0.5472 -1.4071
 4324TIP3    H212937   6.922   2.783   0.973  2.0839  0.2105 -1.2162
 4325TIP3   OH212938   7.160   4.783   1.527 -0.7373 -0.7888  0.1095
 4325TIP3    H112939   7.093   4.836   1.571 -0.0257 -0.3888  0.7342
 4325TIP3    H212940   7.232   4.779   1.590  1.2484  1.6452 -1.7840
 4326TIP3   OH212941   0.048   2.318   5.580 -0.2177 -0.0582 -1.0649
 4326TIP3    H112942   0.083   2.322   5.491 -0.3749  0.0803 -1.1204
 4326TIP3    H212943   0.043   2.409   5.608  0.5324 -0.1392 -0.6370
 4327TIP3   OH212944   2.638   4.908   1.502  0.8509 -0.3337 -0.2503
 4327TIP3    H112945   2.720   4.880   1.542  0.0235  0.1961  1.9757
 4327TIP3    H212946   2.570   4.873   1.559 -0.4597 -0.1483 -1.6315
 4328TIP3   OH212947   2.273   1.963   3.006 -0.5184  0.3009 -0.6818
 4328TIP3    H112948   2.199   2.014   3.038 -0.8143 -0.9480  0.7250
 4328TIP3    H212949   2.338   2.029   2.979 -1.3992  1.4017 -0.1707
 4329TIP3   OH212950   5.276   2.217   1.509  0.6038 -0.3731  0.0833
 4329TIP3    H112951   5.325   2.242   1.431  0.2119 -1.5595 -0.5857
 4329TIP3    H212952   5.198   2.173   1.475  0.6036 -1.2536  1.1349
 4330TIP3   OH212953   6.972   1.801   2.504 -0.2272  0.5679 -0.9053
 4330TIP3    H112954   6.902   1.864   2.488  0.8245  1.2248 -3.4746
 4330TIP3    H212955   7.052   1.850   2.491  0.6603 -0.8392 -0.9829
 4331TIP3   OH212956   5.876   3.459   4.756  0.1053 -0.0719  0.3184
 4331TIP3    H112957   5.847   3.369   4.766  2.2866 -0.6369  2.5758
 4331TIP3    H212958   5.957   3.452   4.706  0.3055  0.6202  0.5372
 4332TIP3   OH212959   5.073   3.303   1.105 -0.2599  0.0974 -0.2337
 4332TIP3    H112960   5.070   3.387   1.060 -2.6421 -0.7621 -1.8730
 4332TIP3    H212961   5.037   3.322   1.192 -0.4742  0.8483 -0.4762
 4333TIP3   OH212962   0.736   4.709   3.679 -0.1615 -0.4072 -0.6062
 4333TIP3    H112963   0.823   4.673   3.660  1.2355  0.9227  2.5467
 4333TIP3    H212964   0.724   4.694   3.773 -2.1626  1.7822 -0.4167
 4334TIP3   OH212965   0.400   0.242   5.208  0.0484 -0.4419  0.0726
 4334TIP3    H112966   0.380   0.179   5.139  0.7885 -0.7791  0.1599
 4334TIP3    H212967   0.464   0.301   5.169 -1.3341  0.8479 -0.3205
 4335TIP3   OH212968   0.551   2.226   0.050 -0.4052  0.3494 -0.4174
 4335TIP3    H112969   0.630   2.201   0.098  0.4016 -0.6938 -2.1849
 4335TIP3    H212970   0.494   2.149   0.057 -0.3819  0.2851 -0.8981
 4336TIP3   OH212971   0.542   2.540   3.418 -0.3086 -0.1857  0.0075
 4336TIP3    H112972   0.575   2.550   3.507 -2.1471 -0.1401  0.7239
 4336TIP3    H212973   0.501   2.453   3.417  0.2535 -0.4521 -0.9962
 4337TIP3   OH212974   1.259   1.696   3.697 -0.0074  0.6767 -0.4013
 4337TIP3    H112975   1.193   1.700   3.767 -2.4216 -1.1152 -2.3674
 4337TIP3    H212976   1.250   1.780   3.652 -1.6088  0.1624 -1.1204
 4338TIP3   OH212977   0.392   1.399   2.410 -0.3914 -0.0769  0.0284
 4338TIP3    H112978   0.319   1.359   2.459  0.0890  0.8568  1.5749
 4338TIP3    H212979   0.397   1.348   2.329 -1.9467 -0.9712  0.4501
 4339TIP3   OH212980   5.409   0.208   2.533  0.3048 -0.4649  0.1889
 4339TIP3    H112981   5.344   0.235   2.598 -0.4166 -0.0470 -0.6855
 4339TIP3    H212982   5.452   0.289   2.506 -0.1613 -0.4790 -0.6390
 4340TIP3   OH212983   4.896   4.085   0.493 -0.2980  0.2948  0.5216
 4340TIP3    H112984   4.862   4.120   0.411  0.7838 -0.2538 -0.1922
 4340TIP3    H212985   4.893   4.159   0.554 -0.0477  1.0434 -0.3448
 4341TIP3   OH212986   3.194   3.546   1.364 -0.4635  0.0657  0.1085
 4341TIP3    H112987   3.226   3.553   1.455 -0.7798 -0.2926  0.2489
 4341TIP3    H212988   3.214   3.631   1.325 -0.9498  0.4613  0.7132
 4342TIP3   OH212989   1.177   2.499   0.729 -0.5395 -0.5411 -0.0884
 4342TIP3    H112990   1.138   2.499   0.816 -1.1734  0.9539 -0.3478
 4342TIP3    H212991   1.203   2.590   0.713  0.4007 -0.9544 -1.1039
 4343TIP3   OH212992   1.924   6.483   3.178 -0.5417  0.7197 -0.1810
 4343TIP3    H112993   1.918   6.408   3.236 -1.5777  0.5707 -0.4552
 4343TIP3    H212994   1.916   6.559   3.236 -0.8210  0.5876 -0.0461
 4344TIP3   OH212995   0.058   1.871   5.423  0.0274  0.1324 -0.0351
 4344TIP3    H112996   0.065   1.865   5.518 -0.1458  0.2292 -0.0155
 4344TIP3    H212997   0.071   1.782   5.392  0.3487  0.1435  0.0617
 4345TIP3   OH212998   4.794   6.806   3.271  0.3089  0.6513  0.3929
 4345TIP3    H112999   4.722   6.762   3.228  0.4597 -0.5395  1.2988
 4345TIP3    H213000   4.761   6.826   3.359  0.7238  1.0438  0.4648
 4346TIP3   OH213001   5.525   2.481   4.769 -0.0890  0.7090 -0.6478
 4346TIP3    H113002   5.599   2.427   4.741  0.4383 -0.7480  2.9639
 4346TIP3    H213003   5.558   2.571   4.766  1.1397  0.2552 -1.0477
 4347TIP3   OH213004   1.029   1.788   2.433 -0.4464  0.0536 -0.1178
 4347TIP3    H113005   1.015   1.714   2.375 -1.1898 -0.0050  0.1215
 4347TIP3    H213006   1.103   1.762   2.488  0.6040  0.3249 -1.3572
 4348TIP3   OH213007   6.751   0.772   3.362 -0.3836 -0.3734 -0.0713
 4348TIP3    H113008   6.756   0.860   3.327 -1.0637 -0.8398 -1.4041
 4348TIP3    H213009   6.787   0.716   3.293  0.2185 -1.1253  0.8264
 4349TIP3   OH213010   4.950   0.605   5.211 -0.0103  0.2548  0.2961
 4349TIP3    H113011   4.951   0.696   5.243  1.1504  1.0434 -1.8168
 4349TIP3    H213012   4.857   0.585   5.198 -0.2280  1.4670 -0.1043
 4350TIP3   OH213013   5.968   5.840   1.109 -0.0455 -0.2622 -0.2037
 4350TIP3    H113014   5.915   5.858   1.186  1.1861  0.5235  0.5049
 4350TIP3    H213015   5.909   5.852   1.035 -1.5406 -2.1170  0.6203
 4351TIP3   OH213016   4.778   2.860   5.340  0.3721  0.4448 -0.3907
 4351TIP3    H113017   4.730   2.939   5.364  0.7470  1.0240 -1.4774
 4351TIP3    H213018   4.775   2.805   5.418 -2.0224  0.4695 -0.3914
 4352TIP3   OH213019   0.580   5.292   3.385 -0.0486  0.0791  0.3308
 4352TIP3    H113020   0.626   5.305   3.468 -0.0819  2.0414  0.0979
 4352TIP3    H213021   0.585   5.377   3.342  0.5086 -1.0576 -1.9891
 4353TIP3   OH213022   5.156   3.319   0.536  0.1571  0.8292  0.2835
 4353TIP3    H113023   5.224   3.384   0.554  1.9460 -0.7786 -0.2442
 4353TIP3    H213024   5.112   3.306   0.620  0.1569  2.2509  0.5249
 4354TIP3   OH213025   0.780   0.413   2.858 -0.6005 -0.2410 -0.6407
 4354TIP3    H113026   0.739   0.490   2.819 -0.2787 -1.1024 -2.8385
 4354TIP3    H213027   0.724   0.340   2.831 -0.7905 -0.8396  1.2264
 4355TIP3   OH213028   2.795   2.837   5.497  0.1304  0.4624  0.0908
 4355TIP3    H113029   2.812   2.748   5.468  0.3811 -0.0092  1.6081
 4355TIP3    H213030   2.699   2.844   5.499  0.1100  0.1649  0.1627
 4356TIP3   OH213031   5.226   0.518   0.409  0.0626  0.1629  0.5993
 4356TIP3    H113032   5.285   0.491   0.339  0.5911  0.8013  0.7901
 4356TIP3    H213033   5.145   0.470   0.392  0.2518  0.1577 -0.3264
 4357TIP3   OH213034   0.191   6.561   1.624  0.3234  0.4926  0.1623
 4357TIP3    H113035   0.203   6.656   1.619 -1.7855  0.9235  1.7240
 4357TIP3    H213036   0.136   6.539   1.549 -1.8217  1.1144  1.4426
 4358TIP3   OH213037   7.118   5.134   3.993 -0.1811 -0.1588  0.4224
 4358TIP3    H113038   7.205   5.167   3.968  0.1464  0.2468  1.9788
 4358TIP3    H213039   7.072   5.211   4.025 -1.0899 -0.3992 -0.2688
 4359TIP3   OH213040   5.160   6.470   5.334  0.0268 -0.5572 -0.7023
 4359TIP3    H113041   5.184   6.529   5.262  1.5731  0.4034  0.5448
 4359TIP3    H213042   5.223   6.398   5.327  1.8198  0.7475  1.0976
 4360TIP3   OH213043   3.441   5.802   1.808 -1.0549  0.7173  0.2915
 4360TIP3    H113044   3.422   5.768   1.895  1.1055 -1.0268  0.1690
 4360TIP3    H213045   3.507   5.869   1.822 -0.4755  0.2218  0.0118
 4361TIP3   OH213046   5.762   6.745   1.197 -0.0602  0.2322  0.5675
 4361TIP3    H113047   5.783   6.654   1.219  1.1033  0.4745  0.5243
 4361TIP3    H213048   5.833   6.796   1.235  0.7489  0.8786 -1.6297
 4362TIP3   OH213049   4.579   0.298   4.912 -0.1093  0.6803  0.5018
 4362TIP3    H113050   4.517   0.318   4.842  0.6261 -2.6907 -1.3119
 4362TIP3    H213051   4.525   0.296   4.991 -1.8796  0.1946 -0.6459
 4363TIP3   OH213052   6.214   2.810   5.467  0.2788  0.4480 -0.5703
 4363TIP3    H113053   6.132   2.854   5.491  0.6921  0.1218  1.7080
 4363TIP3    H213054   6.232   2.839   5.378 -1.4510  1.8301 -0.5239
 4364TIP3   OH213055   6.529   5.989   5.531  0.1645  0.1246 -0.2219
 4364TIP3    H113056   6.493   5.900   5.522 -0.4770  0.5693 -2.7255
 4364TIP3    H213057   6.452   6.045   5.539  0.5231  0.5921 -0.0187
 4365TIP3   OH213058   5.436   6.312   3.768 -0.0945 -0.0399 -0.4813
 4365TIP3    H113059   5.434   6.220   3.794 -1.3669  0.3317  0.8692
 4365TIP3    H213060   5.345   6.340   3.768  0.2545  1.1924 -1.0117
 4366TIP3   OH213061   5.725   3.195   4.046 -0.3856  0.6003 -0.2324
 4366TIP3    H113062   5.791   3.234   3.990  0.5267 -1.4501 -0.6834
 4366TIP3    H213063   5.768   3.119   4.085 -1.3363  1.2933  2.3932
 4367TIP3   OH213064   6.318   4.877   3.745 -0.0645  0.3126 -0.2388
 4367TIP3    H113065   6.255   4.914   3.683  1.3022  0.5082 -1.5587
 4367TIP3    H213066   6.339   4.791   3.710  2.1974  1.1792 -1.2326
 4368TIP3   OH213067   5.161   6.062   2.227  0.4779  0.5374 -0.3737
 4368TIP3    H113068   5.191   6.105   2.147 -2.0116  0.9370 -1.1997
 4368TIP3    H213069   5.140   5.973   2.200  1.9429 -0.0759  0.4372
 4369TIP3   OH213070   1.803   5.510   5.496  0.0107 -0.0028  0.2018
 4369TIP3    H113071   1.893   5.480   5.490 -0.2828 -0.8256 -0.2500
 4369TIP3    H213072   1.750   5.430   5.490 -0.7850  0.5568 -0.6121
 4370TIP3   OH213073   0.915   3.091   4.672 -0.2585  0.4237  0.4379
 4370TIP3    H113074   0.842   3.049   4.718  1.1165 -0.2278  2.1148
 4370TIP3    H213075   0.988   3.030   4.684  0.3570  0.5703 -2.0634
 4371TIP3   OH213076   6.878   1.399   5.014  0.5352 -0.0421 -0.1113
 4371TIP3    H113077   6.857   1.314   5.052  2.2538  0.1074  1.3209
 4371TIP3    H213078   6.852   1.463   5.080  0.0369  0.5088 -0.8206
 4372TIP3   OH213079   1.912   0.261   4.394 -0.1345  0.1744  0.3570
 4372TIP3    H113080   1.944   0.348   4.370  0.9002 -0.4134 -0.4747
 4372TIP3    H213081   1.914   0.212   4.312 -1.4761 -0.4167  0.6614
 4373TIP3   OH213082   2.168   1.294   1.875 -0.0415 -0.0861  0.1377
 4373TIP3    H113083   2.190   1.229   1.942 -0.3285 -1.4661 -1.0448
 4373TIP3    H213084   2.072   1.288   1.867 -0.1296  0.9041  0.4185
 4374TIP3   OH213085   0.116   4.977   0.731 -0.3109 -0.4746 -0.3584
 4374TIP3    H113086   0.143   5.008   0.645  2.1512  0.1532  0.5608
 4374TIP3    H213087   0.031   5.019   0.747  0.1800  1.0730 -1.6008
 4375TIP3   OH213088   0.952   5.687   2.118  0.4013 -0.4976  0.1726
 4375TIP3    H113089   0.905   5.615   2.074 -1.0471  0.6622 -0.2719
 4375TIP3    H213090   0.918   5.766   2.077  3.4699  0.4254 -0.8095
 4376TIP3   OH213091   1.328   4.121   4.318  0.3220 -0.3129 -0.2868
 4376TIP3    H113092   1.404   4.086   4.365  0.2219  0.1635  0.2515
 4376TIP3    H213093   1.311   4.205   4.360  0.9915  0.7317 -1.9979
 4377TIP3   OH213094   6.573   0.500   2.489 -0.3198 -0.1021  0.1408
 4377TIP3    H113095   6.658   0.458   2.501 -0.7347 -1.3492 -0.9784
 4377TIP3    H213096   6.531   0.495   2.575 -0.1289 -1.5140  0.1810
 4378TIP3   OH213097   6.571   2.961   2.931 -0.0127  0.0425 -0.3204
 4378TIP3    H113098   6.637   3.019   2.892 -0.5016  1.4498  0.8949
 4378TIP3    H213099   6.492   2.977   2.880  0.2760 -0.8931 -1.1113
 4379TIP3   OH213100   5.532   1.697   0.529 -0.0845  0.1394 -0.6930
 4379TIP3    H113101   5.441   1.718   0.551  0.2845  0.0902  1.0357
 4379TIP3    H213102   5.526   1.646   0.449 -1.6154 -0.1994 -0.3962
 4380TIP3   OH213103   4.684   2.607   0.361 -0.1767 -0.0226  0.2216
 4380TIP3    H113104   4.724   2.671   0.303  0.3187 -0.4847  0.0413
 4380TIP3    H213105   4.611   2.570   0.310  0.6669 -0.9048 -0.3766
 4381TIP3   OH213106   0.528   1.300   1.243 -0.4291 -0.0280 -0.2087
 4381TIP3    H113107   0.615   1.301   1.284 -0.5431  3.9910  0.3526
 4381TIP3    H213108   0.546   1.308   1.149 -0.2593 -3.7416 -0.6166
 4382TIP3   OH213109   1.207   6.449   4.364 -0.1602  0.9592  0.2108
 4382TIP3    H113110   1.146   6.441   4.290  0.4762  1.6961 -0.4191
 4382TIP3    H213111   1.266   6.520   4.338  2.3794 -1.1547 -0.1951
 4383TIP3   OH213112   6.216   0.814   4.849  0.2196 -0.5501  0.1256
 4383TIP3    H113113   6.291   0.791   4.905 -0.2609 -1.0654  0.5697
 4383TIP3    H213114   6.203   0.908   4.863 -0.4491 -0.8364  1.5821
 4384TIP3   OH213115   0.543   0.450   3.357 -0.0139 -0.1249 -0.0449
 4384TIP3    H113116   0.536   0.415   3.269 -0.9495  1.0070 -0.4458
 4384TIP3    H213117   0.609   0.519   3.351  0.4236 -0.4968  0.3146
 4385TIP3   OH213118   4.552   2.465   2.947 -0.0231  0.3484 -0.2026
 4385TIP3    H113119   4.477   2.494   2.999 -0.3220 -0.7067 -0.0207
 4385TIP3    H213120   4.539   2.504   2.861 -0.8134  0.1467 -0.1846
 4386TIP3   OH213121   1.247   4.373   1.801  0.2214  0.4043 -0.3054
 4386TIP3    H113122   1.306   4.435   1.758  0.5504 -0.6827 -1.4744
 4386TIP3    H213123   1.257   4.392   1.894  0.0317  2.3320 -0.6311
 4387TIP3   OH213124   4.989   0.618   2.767  0.0422  0.5839  0.0884
 4387TIP3    H113125   5.006   0.697   2.818  0.5083  0.7903 -0.3764
 4387TIP3    H213126   5.074   0.593   2.732  0.1079 -0.7223  1.0618
 4388TIP3   OH213127   1.263   5.265   0.976  0.2620  0.1500  0.1316
 4388TIP3    H113128   1.216   5.334   1.024  1.3304  0.4967  0.7072
 4388TIP3    H213129   1.197   5.196   0.963 -0.4159  0.6354  0.8879
 4389TIP3   OH213130   4.845   3.849   1.552  0.1230 -0.7525 -0.1249
 4389TIP3    H113131   4.808   3.761   1.559  1.2792 -1.1375  1.7293
 4389TIP3    H213132   4.939   3.837   1.560  0.4259  0.5406 -1.3008
 4390TIP3   OH213133   2.569   4.501   3.750  0.1770  0.0394  0.5366
 4390TIP3    H113134   2.568   4.472   3.841  3.2733 -2.2083  0.0033
 4390TIP3    H213135   2.576   4.421   3.698  1.4803  1.3523 -1.4943
 4391TIP3   OH213136   0.823   0.782   4.535  0.0025  0.0238 -0.3126
 4391TIP3    H113137   0.906   0.735   4.534 -0.7477 -1.3820 -1.2956
 4391TIP3    H213138   0.791   0.772   4.624  0.6018  0.0288 -0.0934
 4392TIP3   OH213139   0.683   4.273   2.112  0.0850  0.1579  0.3270
 4392TIP3    H113140   0.623   4.206   2.080  0.1292  0.2046  0.1443
 4392TIP3    H213141   0.758   4.223   2.145 -0.7617 -0.0009  2.1388
 4393TIP3   OH213142   3.168   5.761   5.725 -0.5773 -0.0870  0.0180
 4393TIP3    H113143   3.215   5.763   5.808 -0.6349  0.9243  0.0406
 4393TIP3    H213144   3.081   5.796   5.746  0.4738  3.6289 -1.0692
 4394TIP3   OH213145   4.885   5.226   1.810  0.2897 -0.1217  0.3297
 4394TIP3    H113146   4.939   5.304   1.796 -0.9752  0.6256 -0.5732
 4394TIP3    H213147   4.796   5.256   1.797 -0.2062 -1.8582 -0.5973
 4395TIP3   OH213148   2.879   5.066   3.308 -0.2858 -0.2675 -0.3912
 4395TIP3    H113149   2.955   5.022   3.345 -0.8419 -1.2943 -0.4353
 4395TIP3    H213150   2.869   5.146   3.362 -0.9260 -1.5856  1.5635
 4396TIP3   OH213151   6.698   1.484   5.492  0.5144  0.2235  0.7137
 4396TIP3    H113152   6.604   1.489   5.480  0.4121 -0.9073  0.8914
 4396TIP3    H213153   6.712   1.495   5.586  0.5028 -0.1276  0.7601
 4397TIP3   OH213154   6.588   2.872   1.154 -0.0650  0.4010 -0.1744
 4397TIP3    H113155   6.605   2.900   1.064 -0.5144  0.6087 -0.1966
 4397TIP3    H213156   6.588   2.954   1.205  1.7441  0.1645  0.2813
 4398TIP3   OH213157   1.731   6.746   3.748  0.1148  0.4766 -0.4542
 4398TIP3    H113158   1.643   6.771   3.776 -0.1444  0.6599 -1.3923
 4398TIP3    H213159   1.781   6.827   3.753  0.5099  0.1696  1.0447
 4399TIP3   OH213160   0.729   1.895   2.466  0.1965 -0.5679  0.3390
 4399TIP3    H113161   0.708   1.854   2.550 -1.0846  1.7133  1.2395
 4399TIP3    H213162   0.783   1.831   2.420  0.3927 -2.1574  2.6322
 4400TIP3   OH213163   6.999   2.805   2.630  0.8241 -0.2600  0.3576
 4400TIP3    H113164   6.998   2.711   2.648 -0.3547 -0.2795  0.2647
 4400TIP3    H213165   6.955   2.844   2.705 -1.1409 -0.0488 -0.8354
 4401TIP3   OH213166   4.984   1.091   3.723 -0.2163 -0.0845  0.2435
 4401TIP3    H113167   5.008   1.008   3.680  0.4373 -0.0854  0.5796
 4401TIP3    H213168   4.943   1.143   3.655 -1.0522 -0.8614  0.1383
 4402TIP3   OH213169   2.376   1.157   5.426  0.0672 -0.5978  0.3277
 4402TIP3    H113170   2.280   1.158   5.429  0.0387  1.4014 -0.2534
 4402TIP3    H213171   2.397   1.073   5.384 -1.3883 -1.3440  1.0067
 4403TIP3   OH213172   3.459   2.753   5.439 -0.3148 -0.3648  0.1015
 4403TIP3    H113173   3.512   2.691   5.389  0.7271 -0.0986  0.8420
 4403TIP3    H213174   3.469   2.725   5.530 -2.2990 -0.9377  0.1911
 4404TIP3   OH213175   0.102   4.332   0.134  0.6646 -0.3713  0.2597
 4404TIP3    H113176   0.036   4.400   0.120  1.3408  0.0710 -0.8658
 4404TIP3    H213177   0.106   4.323   0.229 -0.1769  0.4297  0.3907
 4405TIP3   OH213178   3.974   3.174   2.675  0.3451 -0.3004 -0.1023
 4405TIP3    H113179   3.919   3.176   2.597  0.3897 -0.4884 -0.1403
 4405TIP3    H213180   4.007   3.263   2.684 -1.4086  0.2865  0.9588
 4406TIP3   OH213181   2.105   5.783   4.037  0.5334 -0.6426 -0.4444
 4406TIP3    H113182   2.139   5.709   4.087  2.4126 -0.9715 -2.0641
 4406TIP3    H213183   2.118   5.758   3.946 -1.7927  0.3780 -1.1324
 4407TIP3   OH213184   0.964   4.297   3.141  0.3126  0.4150  0.5293
 4407TIP3    H113185   0.907   4.366   3.106  0.4632  0.6228  0.6916
 4407TIP3    H213186   1.042   4.300   3.086  0.5944  0.8117  0.9387
 4408TIP3   OH213187   4.895   1.181   5.841 -0.2685 -0.1023  0.3251
 4408TIP3    H113188   4.883   1.097   5.797  1.4275 -0.0783 -0.2622
 4408TIP3    H213189   4.962   1.226   5.790  0.6489  0.5859  2.0232
 4409TIP3   OH213190   0.434   6.324   3.798 -0.2597  0.3584  0.2049
 4409TIP3    H113191   0.371   6.396   3.809 -0.4045  0.4068 -0.7817
 4409TIP3    H213192   0.413   6.263   3.868 -0.6831  0.8935  0.5579
 4410TIP3   OH213193   3.959   2.271   1.165  0.2545  0.3132 -0.1508
 4410TIP3    H113194   3.938   2.246   1.074  0.4617 -0.5706  0.0360
 4410TIP3    H213195   3.904   2.214   1.218  0.9362  0.0594  0.2943
 4411TIP3   OH213196   0.728   6.574   2.492 -0.0137 -1.0940  0.8215
 4411TIP3    H113197   0.780   6.576   2.412  2.6419  0.8461  2.4283
 4411TIP3    H213198   0.642   6.608   2.466  0.6871 -0.7683 -1.2451
 4412TIP3   OH213199   1.429   2.393   1.285  0.1566  0.6457 -0.0625
 4412TIP3    H113200   1.437   2.422   1.194 -0.4334  2.6857  0.4895
 4412TIP3    H213201   1.514   2.410   1.324  0.6474 -0.9258 -0.3779
 4413TIP3   OH213202   0.606   1.961   2.171  0.0007  0.0821 -0.7079
 4413TIP3    H113203   0.593   1.993   2.260  0.2191  0.4175 -0.7973
 4413TIP3    H213204   0.678   2.013   2.137  0.0136 -0.1461 -1.0323
 4414TIP3   OH213205   1.880   4.311   5.277 -0.6560  0.1153 -0.3073
 4414TIP3    H113206   1.958   4.363   5.260 -0.3630 -0.2406 -0.0743
 4414TIP3    H213207   1.908   4.221   5.262 -1.0512 -0.0036 -0.3281
 4415TIP3   OH213208   5.726   4.533   4.400  0.0764  0.6256  0.0655
 4415TIP3    H113209   5.733   4.621   4.437 -0.2082  0.9559 -0.6544
 4415TIP3    H213210   5.634   4.510   4.410  0.5791 -0.6189  2.5263
 4416TIP3   OH213211   3.845   5.171   1.822 -0.1900 -0.2902  0.6009
 4416TIP3    H113212   3.818   5.176   1.731 -1.3420 -0.2885  0.9169
 4416TIP3    H213213   3.865   5.079   1.837  4.4771  0.2409 -0.7892
 4417TIP3   OH213214   4.212   4.041   4.657  0.1947 -0.5470  0.2081
 4417TIP3    H113215   4.127   4.035   4.613  0.0363 -1.1597  0.5888
 4417TIP3    H213216   4.276   4.028   4.586 -0.0385 -0.6823  0.0211
 4418TIP3   OH213217   2.369   1.126   0.067 -1.0107  0.0745 -0.3149
 4418TIP3    H113218   2.282   1.164   0.055 -0.7076  2.0345  2.6849
 4418TIP3    H213219   2.429   1.201   0.061  0.2721 -0.9207 -0.2904
 4419TIP3   OH213220   5.532   1.360   4.658 -0.6284 -0.4859 -0.0082
 4419TIP3    H113221   5.602   1.371   4.723 -1.2857  0.3632  0.5798
 4419TIP3    H213222   5.511   1.267   4.661 -0.1360 -0.5889  0.4595
 4420TIP3   OH213223   1.110   5.002   4.309 -0.3323  0.0937  0.3394
 4420TIP3    H113224   1.185   4.942   4.305  0.9787  1.7099 -0.9392
 4420TIP3    H213225   1.088   5.007   4.402 -1.3126 -3.2307  0.4468
 4421TIP3   OH213226   1.135   5.716   4.601  0.1395  0.9877 -0.2157
 4421TIP3    H113227   1.099   5.642   4.552  0.0802  0.8891 -0.0233
 4421TIP3    H213228   1.143   5.684   4.691  1.9301  0.5577 -0.4943
 4422TIP3   OH213229   2.847   0.204   5.131 -0.4545 -0.1329  0.4062
 4422TIP3    H113230   2.891   0.142   5.190 -0.5503  1.4993  2.3015
 4422TIP3    H213231   2.904   0.208   5.054  1.0220 -0.4933  1.4312
 4423TIP3   OH213232   0.768   4.959   2.090 -0.1984  0.7318 -0.0530
 4423TIP3    H113233   0.736   4.908   2.164 -0.1368  0.1935 -0.3889
 4423TIP3    H213234   0.794   4.893   2.025  0.8680  1.1650 -0.0914
 4424TIP3   OH213235   0.330   4.723   1.953 -0.2109 -0.0956 -0.1435
 4424TIP3    H113236   0.273   4.683   2.019  0.0656 -0.8248 -0.3378
 4424TIP3    H213237   0.369   4.798   1.998  2.4934 -2.3891  1.6696
 4425TIP3   OH213238   7.141   0.659   1.913 -0.1500 -0.2027  0.1938
 4425TIP3    H113239   7.178   0.571   1.910 -1.5566 -0.8416 -3.6593
 4425TIP3    H213240   7.052   0.646   1.944  0.3175  0.2708  1.8495
 4426TIP3   OH213241   6.600   3.895   2.452  0.1234 -0.3014  0.5407
 4426TIP3    H113242   6.557   3.868   2.533 -0.1649  0.6749  0.7240
 4426TIP3    H213243   6.682   3.846   2.451  0.2086 -0.1976  1.5072
 4427TIP3   OH213244   3.149   3.388   5.452  0.0860  0.4911 -0.0928
 4427TIP3    H113245   3.087   3.388   5.525 -0.4854  2.2634 -0.5253
 4427TIP3    H213246   3.205   3.312   5.467 -0.8016  0.1218  1.5044
 4428TIP3   OH213247   6.674   5.770   0.809  0.0213 -0.2118  0.3584
 4428TIP3    H113248   6.615   5.773   0.885 -0.9389  1.7673 -0.3903
 4428TIP3    H213249   6.616   5.775   0.733  1.0718  0.9464 -0.4196
 4429TIP3   OH213250   0.134   3.426   1.349  0.1002 -0.3236 -0.2083
 4429TIP3    H113251   0.120   3.391   1.261 -1.3638  0.1789 -0.2042
 4429TIP3    H213252   0.216   3.388   1.378 -1.0988 -3.3211 -0.4350
 4430TIP3   OH213253   2.868   2.171   1.808 -0.7797  0.2631  0.4599
 4430TIP3    H113254   2.920   2.247   1.833 -2.1800  1.1918  0.7184
 4430TIP3    H213255   2.919   2.126   1.741  0.3847  1.0473  0.8056
 4431TIP3   OH213256   1.855   5.834   2.979 -0.4771 -0.3456 -0.3566
 4431TIP3    H113257   1.767   5.805   3.005 -0.0413 -1.3724  0.0055
 4431TIP3    H213258   1.853   5.833   2.884 -0.6669 -0.9501 -0.3482
 4432TIP3   OH213259   4.359   1.372   2.713 -0.3054  0.4829  0.0096
 4432TIP3    H113260   4.379   1.447   2.657  0.6320  0.1423 -0.1382
 4432TIP3    H213261   4.265   1.377   2.728 -0.8514 -0.1274 -2.6917
 4433TIP3   OH213262   6.064   1.109   1.492 -0.0110 -0.9281  0.4328
 4433TIP3    H113263   6.143   1.114   1.437 -0.8413 -1.0239 -0.8041
 4433TIP3    H213264   6.092   1.145   1.577  1.6534 -1.9939  0.3793
 4434TIP3   OH213265   6.914   1.294   0.780 -0.0416  0.1223 -0.9460
 4434TIP3    H113266   6.888   1.217   0.730 -1.3374 -1.1569  1.4663
 4434TIP3    H213267   6.838   1.312   0.837  1.4083  1.2297  0.7497
 4435TIP3   OH213268   5.253   4.891   2.653 -0.2673  0.4025 -0.6207
 4435TIP3    H113269   5.219   4.831   2.587 -1.3600  0.5373 -0.2165
 4435TIP3    H213270   5.197   4.969   2.646 -1.0985  0.0261  1.1080
 4436TIP3   OH213271   1.924   2.379   5.408  0.3535 -0.1156 -0.5803
 4436TIP3    H113272   1.960   2.401   5.494  0.4110 -1.5087 -0.2266
 4436TIP3    H213273   1.836   2.419   5.409  0.5783  0.3837 -0.1141
 4437TIP3   OH213274   5.477   5.280   3.391  0.2332 -0.0195 -0.0526
 4437TIP3    H113275   5.487   5.192   3.356 -3.1828 -1.1011  1.2596
 4437TIP3    H213276   5.404   5.317   3.342 -0.9188  0.5338  1.9746
 4438TIP3   OH213277   6.849   5.016   3.378 -0.0419  0.2144  0.2660
 4438TIP3    H113278   6.855   5.095   3.325 -2.1696  0.2353 -0.0313
 4438TIP3    H213279   6.906   5.033   3.453 -0.5618  2.1071  0.2787
 4439TIP3   OH213280   3.557   5.473   4.663 -0.4551 -0.0348 -0.0073
 4439TIP3    H113281   3.605   5.482   4.745  1.5389 -1.7930 -0.8929
 4439TIP3    H213282   3.515   5.387   4.669 -1.6678  0.5135 -0.2043
 4440TIP3   OH213283   0.470   1.452   4.126  0.2707 -0.3285  0.0519
 4440TIP3    H113284   0.554   1.432   4.168 -0.8163  1.4950  3.5692
 4440TIP3    H213285   0.418   1.373   4.138  1.3108 -1.3498 -1.8481
 4441TIP3   OH213286   0.880   4.832   3.398 -0.9386  0.0027  0.2306
 4441TIP3    H113287   0.829   4.809   3.475 -0.5949  1.9003  1.0844
 4441TIP3    H213288   0.882   4.928   3.398 -1.0125  0.0705 -2.2104
 4442TIP3   OH213289   2.050   0.425   5.286 -0.4608  0.7250 -0.0215
 4442TIP3    H113290   2.137   0.409   5.249  0.5563 -0.9236  2.7651
 4442TIP3    H213291   2.054   0.516   5.316 -0.0017  0.9212 -0.6437
 4443TIP3   OH213292   2.825   0.042   2.942 -0.1887  0.2861 -0.0655
 4443TIP3    H113293   2.845  -0.039   2.988 -1.1651  0.1525  0.1605
 4443TIP3    H213294   2.729   0.049   2.946 -0.2532  0.5889 -1.5270
 4444TIP3   OH213295   4.856   5.907   2.008 -0.8891 -0.2402  0.1692
 4444TIP3    H113296   4.829   5.932   1.919 -0.4958  0.1563  0.1530
 4444TIP3    H213297   4.775   5.904   2.058 -1.0199  0.4646  0.0156
 4445TIP3   OH213298   4.247   6.518   0.714 -0.3162  0.0592  0.4098
 4445TIP3    H113299   4.311   6.576   0.755  0.4690  0.4422 -1.2801
 4445TIP3    H213300   4.162   6.555   0.739  0.1543  1.1600  0.4325
 4446TIP3   OH213301   1.059   5.213   5.627  0.5685 -0.3405 -0.3507
 4446TIP3    H113302   1.077   5.187   5.537 -1.4019 -0.5011 -0.7551
 4446TIP3    H213303   1.005   5.143   5.662  1.5579 -0.4279  1.0898
 4447TIP3   OH213304   4.550   1.403   3.559 -0.1602 -0.0071  0.1039
 4447TIP3    H113305   4.554   1.488   3.603 -0.0333  0.3424 -0.5813
 4447TIP3    H213306   4.478   1.411   3.497 -1.1205 -0.8988  1.0614
 4448TIP3   OH213307   0.289   2.615   3.022 -0.1711 -0.0695 -0.3097
 4448TIP3    H113308   0.200   2.583   3.038 -0.6138  1.4628  0.4530
 4448TIP3    H213309   0.299   2.611   2.927 -0.5638 -1.4711 -0.3152
 4449TIP3   OH213310   0.660   0.838   3.956  0.4413  0.2807 -0.2203
 4449TIP3    H113311   0.597   0.774   3.987  1.2454 -0.7389 -0.6555
 4449TIP3    H213312   0.607   0.912   3.925 -0.5552 -0.7966 -1.1392
 4450TIP3   OH213313   6.555   4.516   0.294 -0.2634  0.2221 -0.2882
 4450TIP3    H113314   6.577   4.602   0.330 -0.9756  0.5782 -0.7046
 4450TIP3    H213315   6.460   4.518   0.282 -0.2740 -0.5912 -0.3907
 4451TIP3   OH213316   4.196   3.068   1.413  0.1463 -0.0636 -0.0804
 4451TIP3    H113317   4.270   3.107   1.460  0.9327  0.1925 -1.4836
 4451TIP3    H213318   4.183   2.983   1.454  1.6039 -0.3506 -0.1887
 4452TIP3   OH213319   6.296   5.637   1.396 -0.0829 -0.8569  0.0769
 4452TIP3    H113320   6.247   5.563   1.433 -1.0438 -1.3543 -1.9977
 4452TIP3    H213321   6.233   5.709   1.396  0.8111 -0.0144  1.9652
 4453TIP3   OH213322   4.917   4.398   2.162 -0.3481 -0.3004  0.2209
 4453TIP3    H113323   4.828   4.390   2.129 -0.3013  1.6675 -0.5628
 4453TIP3    H213324   4.972   4.375   2.087 -0.2431  1.7811 -0.4031
 4454TIP3   OH213325   3.688   1.537   0.168 -0.0018  0.3935 -0.3048
 4454TIP3    H113326   3.760   1.527   0.230 -0.1502 -0.9037 -0.3258
 4454TIP3    H213327   3.611   1.505   0.216 -0.5263  1.4627 -0.3952
 4455TIP3   OH213328   4.220   0.034   5.013  0.1471 -0.5924  0.1009
 4455TIP3    H113329   4.286   0.087   5.057 -0.7940  0.7474 -0.0343
 4455TIP3    H213330   4.223  -0.051   5.058  0.2961  0.2174  1.7004
 4456TIP3   OH213331   0.079   2.790   3.393 -0.1825 -0.0865 -0.4056
 4456TIP3    H113332   0.164   2.772   3.354  0.1444 -0.6740  0.5563
 4456TIP3    H213333   0.016   2.745   3.336  0.3881 -2.0017  0.4059
 4457TIP3   OH213334   5.779   1.721   1.367  0.1383 -0.5838 -0.1868
 4457TIP3    H113335   5.782   1.752   1.458  0.5148 -1.3603  0.0790
 4457TIP3    H213336   5.811   1.794   1.315 -0.8233  0.1575  0.2186
 4458TIP3   OH213337   4.477   2.961   0.266 -0.0610  0.4061  0.5698
 4458TIP3    H113338   4.542   2.940   0.333 -1.0577 -0.2398  1.3712
 4458TIP3    H213339   4.447   3.049   0.288  1.0262  1.0048 -0.2313
 4459TIP3   OH213340   1.784   4.953   4.991 -0.6448  0.3152  0.1756
 4459TIP3    H113341   1.711   4.976   5.048 -0.2573 -0.7554  1.1508
 4459TIP3    H213342   1.862   4.982   5.037 -0.2238 -1.8066  0.9295
 4460TIP3   OH213343   3.969   5.439   4.116 -0.2589 -0.1381  0.3585
 4460TIP3    H113344   4.008   5.525   4.100 -1.8544  0.9203  1.8531
 4460TIP3    H213345   4.007   5.383   4.048  2.1439  1.3035  0.4053
 4461TIP3   OH213346   6.167   4.528   4.205 -0.2014  0.4401  0.3570
 4461TIP3    H113347   6.218   4.517   4.124 -1.9684 -2.8464 -0.5089
 4461TIP3    H213348   6.232   4.537   4.274  1.5614 -1.6876 -0.9148
 4462TIP3   OH213349   1.697   4.870   0.896 -0.5343  0.2665 -0.0902
 4462TIP3    H113350   1.722   4.952   0.854 -1.3234  0.2608 -0.5898
 4462TIP3    H213351   1.612   4.888   0.936 -0.7895 -0.3595 -0.3469
 4463TIP3   OH213352   4.242   3.327   0.941  0.4348  0.6956  0.2232
 4463TIP3    H113353   4.297   3.270   0.888 -1.5845 -0.5883 -0.6158
 4463TIP3    H213354   4.234   3.282   1.025  0.5403  0.7894  0.2827
 4464TIP3   OH213355   5.991   5.394   0.343 -0.2625 -0.4047  0.3040
 4464TIP3    H113356   5.903   5.425   0.319  0.1262  0.7546  0.3380
 4464TIP3    H213357   6.048   5.469   0.328  0.8317 -1.3250 -0.2681
 4465TIP3   OH213358   5.500   3.777   4.109  0.7702 -0.0134  0.4768
 4465TIP3    H113359   5.547   3.845   4.158  0.4685  1.7167 -1.5074
 4465TIP3    H213360   5.414   3.815   4.090  0.6522 -0.8574 -0.8472
 4466TIP3   OH213361   5.017   1.387   3.256 -0.4366 -0.1741 -0.3019
 4466TIP3    H113362   4.963   1.465   3.242 -1.0763 -0.3653  0.9670
 4466TIP3    H213363   4.962   1.315   3.225 -0.6249 -0.3005  0.3190
 4467TIP3   OH213364   4.469   2.718   5.371  0.2606  0.2454 -0.8742
 4467TIP3    H113365   4.536   2.685   5.431 -1.9845 -0.9379  1.1632
 4467TIP3    H213366   4.431   2.793   5.417 -0.0839  0.6926 -1.8491
 4468TIP3   OH213367   0.447   2.927   3.467 -0.3481 -0.4043 -0.1558
 4468TIP3    H113368   0.417   2.984   3.396  0.9525  1.7534  0.9300
 4468TIP3    H213369   0.505   2.864   3.424  0.9306  1.2532 -0.9623
 4469TIP3   OH213370   6.695   6.532   2.517  0.3184  0.2439  0.2248
 4469TIP3    H113371   6.760   6.592   2.555  0.9369 -1.3526  1.8144
 4469TIP3    H213372   6.611   6.572   2.537  0.6199 -0.4575  3.3184
 4470TIP3   OH213373   4.677   3.929   2.051 -0.1243  0.0207 -0.1819
 4470TIP3    H113374   4.688   4.004   2.109 -2.4072  1.2735 -1.2412
 4470TIP3    H213375   4.737   3.863   2.085 -0.9980  0.8302  3.3370
 4471TIP3   OH213376   2.205   6.006   1.042 -0.4216  0.1972 -0.4726
 4471TIP3    H113377   2.139   6.026   1.108 -0.8809 -1.5170 -0.3776
 4471TIP3    H213378   2.266   5.947   1.086 -0.8327 -1.1074 -1.5893
 4472TIP3   OH213379   5.942   3.842   2.317  0.5784 -0.0912 -0.3822
 4472TIP3    H113380   5.994   3.767   2.347  0.8379 -0.2757 -1.2523
 4472TIP3    H213381   5.914   3.886   2.397  2.3085  0.1642  0.1188
 4473TIP3   OH213382   2.326   3.241   1.399  0.1689  0.4534  0.0689
 4473TIP3    H113383   2.262   3.186   1.444 -1.4635  2.6339  0.5650
 4473TIP3    H213384   2.299   3.331   1.419  3.1313  1.4945 -0.0774
 4474TIP3   OH213385   5.656   4.160   5.496  0.0781  0.2821 -0.5324
 4474TIP3    H113386   5.707   4.145   5.575  0.4126  2.5503 -0.2487
 4474TIP3    H213387   5.688   4.095   5.434  1.2308 -0.2417  0.5630
 4475TIP3   OH213388   4.716   2.439   3.541 -0.1340  0.3705 -0.3333
 4475TIP3    H113389   4.712   2.456   3.447  0.6882 -1.6754 -0.7820
 4475TIP3    H213390   4.808   2.450   3.563 -0.2275  0.2543  0.1154
 4476TIP3   OH213391   5.489   2.753   4.477  0.1775  0.5210 -0.3344
 4476TIP3    H113392   5.580   2.740   4.451 -0.0633 -1.5902 -0.3719
 4476TIP3    H213393   5.492   2.758   4.573  0.2621 -0.7860 -0.2451
 4477TIP3   OH213394   0.659   0.838   5.098 -0.3679  0.0300 -0.0489
 4477TIP3    H113395   0.618   0.920   5.126 -1.7561 -0.7991  0.4871
 4477TIP3    H213396   0.633   0.829   5.006 -1.0053 -0.2401  0.1477
 4478TIP3   OH213397   2.006   6.457   4.625  0.3751  0.3930  0.3447
 4478TIP3    H113398   2.092   6.464   4.667 -0.2770  0.4203  1.7155
 4478TIP3    H213399   1.961   6.537   4.651 -1.0796 -0.9072  2.0439
 4479TIP3   OH213400   5.564   5.001   0.933  0.0375 -0.2972 -0.6700
 4479TIP3    H113401   5.544   5.066   0.865 -1.5118  0.7839  0.7555
 4479TIP3    H213402   5.627   5.045   0.990 -1.0999  0.0513  0.3599
 4480TIP3   OH213403   5.309   2.132   5.242 -0.6873  0.7017 -0.3348
 4480TIP3    H113404   5.311   2.226   5.225 -0.9099  0.6115 -0.8950
 4480TIP3    H213405   5.399   2.110   5.267 -0.7490  1.1489  0.3009
 4481TIP3   OH213406   1.527   0.515   5.188  0.1606 -0.0676  0.3719
 4481TIP3    H113407   1.436   0.510   5.159 -0.1946  0.1107  1.4059
 4481TIP3    H213408   1.552   0.423   5.203  0.1770 -0.1222  0.0109
 4482TIP3   OH213409   2.958   0.044   3.915 -0.4170  0.0766 -0.2379
 4482TIP3    H113410   2.984  -0.045   3.940  1.6991  0.3248 -1.2650
 4482TIP3    H213411   2.949   0.040   3.820 -0.1203  0.9761 -0.3157
 4483TIP3   OH213412   1.221   2.117   3.374  0.3530  0.1355  0.0896
 4483TIP3    H113413   1.291   2.082   3.319 -2.1521 -0.7446 -2.8095
 4483TIP3    H213414   1.225   2.211   3.360 -0.8037 -0.1187 -2.5516
 4484TIP3   OH213415   5.501   4.991   5.247  0.4910  0.3003 -0.9446
 4484TIP3    H113416   5.421   4.963   5.202  0.0452 -1.0814  0.5898
 4484TIP3    H213417   5.559   4.916   5.243  0.3143  0.0046  0.9858
 4485TIP3   OH213418   3.803   0.085   4.086  0.3796 -0.2272 -0.2732
 4485TIP3    H113419   3.799   0.008   4.030  0.2125 -0.8545  0.5662
 4485TIP3    H213420   3.790   0.159   4.027  0.4072 -0.8497 -1.0764
 4486TIP3   OH213421   1.929   6.286   4.903  0.2115  0.1062 -0.0221
 4486TIP3    H113422   2.010   6.278   4.852 -0.2895  1.4422 -1.1148
 4486TIP3    H213423   1.957   6.321   4.987  0.6504  2.0255 -0.9217
 4487TIP3   OH213424   4.302   3.395   5.694  0.0327  0.1886  0.3578
 4487TIP3    H113425   4.271   3.315   5.738  1.4031 -0.5055  0.1086
 4487TIP3    H213426   4.284   3.465   5.756  0.3578 -0.5378  1.2977
 4488TIP3   OH213427   4.259   0.206   1.746 -0.5433 -0.1726 -0.1402
 4488TIP3    H113428   4.190   0.179   1.807 -0.4315  0.3383  0.2218
 4488TIP3    H213429   4.230   0.173   1.661 -1.7127  0.8392 -0.1647
 4489TIP3   OH213430   4.475   1.887   5.247 -0.4307  0.1925  0.1124
 4489TIP3    H113431   4.466   1.875   5.153  2.4164 -0.9526 -0.1307
 4489TIP3    H213432   4.467   1.982   5.261 -0.7406  0.3877 -1.2907
 4490TIP3   OH213433   4.086   6.650   2.857  0.1170 -0.0072  0.4317
 4490TIP3    H113434   4.051   6.571   2.815  1.0494 -0.2355  0.0468
 4490TIP3    H213435   4.010   6.707   2.868 -1.1442 -1.9958  3.2159
 4491TIP3   OH213436   5.270   6.546   4.114 -0.7385 -0.2498  0.3187
 4491TIP3    H113437   5.235   6.479   4.055 -0.8360  0.1113 -0.0358
 4491TIP3    H213438   5.246   6.629   4.073  1.4195  0.0417 -0.4919
 4492TIP3   OH213439   6.755   6.289   1.368  0.3811 -0.5992  0.4732
 4492TIP3    H113440   6.842   6.249   1.373  1.2503  1.0919 -0.0024
 4492TIP3    H213441   6.739   6.324   1.455 -0.0017 -1.2548  0.6665
 4493TIP3   OH213442   0.145   5.462   2.526 -0.0596  0.4681 -0.1608
 4493TIP3    H113443   0.112   5.508   2.449  0.7186  2.2270  0.4962
 4493TIP3    H213444   0.224   5.511   2.551 -0.2469 -0.0938  1.6957
 4494TIP3   OH213445   3.385   2.929   5.768 -0.1850 -0.5126  0.1890
 4494TIP3    H113446   3.427   2.849   5.735 -4.6465 -2.9641 -0.4613
 4494TIP3    H213447   3.310   2.942   5.709  0.4540  4.4865  0.1132
 4495TIP3   OH213448   5.180   2.230   4.629 -0.2550  0.4991 -0.0265
 4495TIP3    H113449   5.257   2.212   4.575 -0.4272  1.1517 -0.4999
 4495TIP3    H213450   5.137   2.144   4.638  1.0423 -0.0550  1.0788
 4496TIP3   OH213451   4.076   0.975   1.760  0.0029 -0.0133 -0.0448
 4496TIP3    H113452   4.102   0.948   1.849 -0.9674 -0.8213  0.0183
 4496TIP3    H213453   4.038   1.062   1.772 -1.5513 -0.7500  0.6063
 4497TIP3   OH213454   2.029   4.132   2.900 -0.3260  0.1029 -0.2624
 4497TIP3    H113455   2.042   4.049   2.853 -0.2035 -1.3942  2.2364
 4497TIP3    H213456   2.116   4.171   2.904  0.0723 -0.8192  0.5247
 4498TIP3   OH213457   1.945   0.828   1.695  0.2115  0.3125  0.1957
 4498TIP3    H113458   1.972   0.918   1.675  2.3688  0.0942  1.7601
 4498TIP3    H213459   1.919   0.832   1.788 -0.3587 -0.5486  0.0821
 4499TIP3   OH213460   7.028   6.346   4.299 -0.1557  0.1275  0.0425
 4499TIP3    H113461   7.075   6.273   4.258 -0.5198  0.2497 -0.6064
 4499TIP3    H213462   7.081   6.423   4.280 -0.1122  0.1283  0.1630
 4500TIP3   OH213463   1.351   1.136   5.047 -0.3588  0.2066 -0.3702
 4500TIP3    H113464   1.350   1.224   5.086 -0.9164 -0.2758  0.7472
 4500TIP3    H213465   1.303   1.082   5.109  3.6956 -1.8769  1.3498
 4501TIP3   OH213466   4.402   2.940   5.479 -0.6141  0.0633 -0.1101
 4501TIP3    H113467   4.485   2.957   5.524  0.0873 -1.2470 -0.8543
 4501TIP3    H213468   4.366   3.027   5.461  0.8637  0.6710 -0.2618
 4502TIP3   OH213469   3.307   2.617   0.055  0.5474 -0.5551 -0.2621
 4502TIP3    H113470   3.253   2.603  -0.022  1.4251  2.0639 -1.4802
 4502TIP3    H213471   3.397   2.606   0.024  0.9969  2.0637 -0.0980
 4503TIP3   OH213472   5.304   6.592   1.620 -0.1321 -0.1081  0.0115
 4503TIP3    H113473   5.268   6.569   1.535 -0.8520  0.1893  0.2257
 4503TIP3    H213474   5.379   6.533   1.632 -1.4870 -1.8685  0.2326
 4504TIP3   OH213475   6.765   0.460   3.125  0.2928  0.0480  0.0169
 4504TIP3    H113476   6.807   0.539   3.092  1.7311 -1.3784 -1.8317
 4504TIP3    H213477   6.675   0.466   3.095  0.9725 -0.0581 -2.2885
 4505TIP3   OH213478   6.521   5.037   1.209 -0.3873 -0.1217  0.3592
 4505TIP3    H113479   6.546   4.991   1.289  0.6778 -0.5702 -0.2138
 4505TIP3    H213480   6.425   5.037   1.210 -0.4323 -2.2458  0.4547
 4506TIP3   OH213481   1.848   5.779   2.363  0.1796  0.0163 -0.0894
 4506TIP3    H113482   1.921   5.787   2.425 -0.0600  1.5726  0.0159
 4506TIP3    H213483   1.801   5.700   2.392  2.4572 -1.7548 -0.8768
 4507TIP3   OH213484   3.259   4.603   5.581  0.0169 -0.1346  0.0276
 4507TIP3    H113485   3.286   4.609   5.490  2.0585  1.3230  0.6552
 4507TIP3    H213486   3.206   4.682   5.596  0.2522 -0.0171  0.2568
 4508TIP3   OH213487   6.593   5.146   2.879 -0.3042  0.7182  0.0006
 4508TIP3    H113488   6.622   5.236   2.860 -0.6331  0.4778 -1.7722
 4508TIP3    H213489   6.521   5.157   2.941  1.6530  1.4718  2.3220
 4509TIP3   OH213490   6.782   4.323   2.435 -0.6899  0.8362 -0.4754
 4509TIP3    H113491   6.758   4.412   2.411 -0.1892  1.1331  0.1223
 4509TIP3    H213492   6.701   4.285   2.468 -0.5376  1.5973  0.8184
 4510TIP3   OH213493   3.129   5.773   1.404 -0.4141 -0.1281  0.2981
 4510TIP3    H113494   3.168   5.737   1.324 -2.3200  0.2993 -0.8914
 4510TIP3    H213495   3.198   5.828   1.442  0.7409 -0.8338 -0.6988
 4511TIP3   OH213496   1.450   2.182   1.717 -0.1975 -0.1330 -0.1450
 4511TIP3    H113497   1.507   2.208   1.645  0.0951 -0.7945 -0.1659
 4511TIP3    H213498   1.428   2.263   1.762 -0.3017  0.2747 -0.9191
 4512TIP3   OH213499   5.954   6.102   1.727 -0.1737 -0.4648  0.1434
 4512TIP3    H113500   5.933   6.051   1.805 -1.5788  2.2656  1.6945
 4512TIP3    H213501   6.025   6.160   1.755 -1.4429  1.3205 -0.2039
 4513TIP3   OH213502   1.300   3.038   4.451 -0.7284  0.3466 -0.4875
 4513TIP3    H113503   1.335   3.122   4.420 -1.4757  0.3739 -1.3087
 4513TIP3    H213504   1.211   3.036   4.416 -1.2808 -0.0674  0.8888
 4514TIP3   OH213505   7.184   2.236   4.848  0.5154 -0.1046  0.0280
 4514TIP3    H113506   7.243   2.180   4.898  1.8196  0.7744 -0.4566
 4514TIP3    H213507   7.130   2.279   4.914 -1.6340 -2.9980  0.3642
 4515TIP3   OH213508   1.700   1.073   2.145 -0.0467 -0.0257  0.0250
 4515TIP3    H113509   1.639   1.000   2.133 -0.2621 -0.0781  1.2725
 4515TIP3    H213510   1.678   1.108   2.232  0.8398  0.7784 -0.0600
 4516TIP3   OH213511   2.488   1.846   3.605  0.1902  0.2052 -0.4340
 4516TIP3    H113512   2.476   1.898   3.684 -0.5191  0.9149 -0.9868
 4516TIP3    H213513   2.410   1.790   3.600  0.5494 -0.3227 -0.2884
 4517TIP3   OH213514  -0.009   0.731   1.074  0.2445  0.2931 -0.0809
 4517TIP3    H113515   0.027   0.818   1.060  0.9153  0.3128  1.4981
 4517TIP3    H213516   0.065   0.680   1.108 -0.4261 -0.5622  0.1387
 4518TIP3   OH213517   1.764   2.335   0.307 -0.0730 -0.3033  0.3582
 4518TIP3    H113518   1.696   2.282   0.349 -0.6376  0.8128  0.8812
 4518TIP3    H213519   1.755   2.316   0.214 -1.4333  0.2042  0.3689
 4519TIP3   OH213520   4.679   4.302   5.564 -0.1312  0.1486 -0.0870
 4519TIP3    H113521   4.711   4.390   5.582 -1.8754  0.6745  0.5731
 4519TIP3    H213522   4.677   4.259   5.650 -0.8308  0.0036 -0.1749
 4520TIP3   OH213523   1.123   4.733   3.178  0.0771 -0.5181 -0.0434
 4520TIP3    H113524   1.157   4.691   3.100 -1.6910 -0.8483 -0.6769
 4520TIP3    H213525   1.201   4.754   3.230  1.2541 -0.6432 -1.6923
 4521TIP3   OH213526   0.836   5.808   0.165 -0.0307 -0.3580 -0.3138
 4521TIP3    H113527   0.865   5.720   0.184 -1.6920 -0.7354  0.6977
 4521TIP3    H213528   0.746   5.797   0.132 -0.7889  1.0058  1.1554
 4522TIP3   OH213529   5.725   4.581   4.879  0.6124 -0.0069  0.1673
 4522TIP3    H113530   5.630   4.570   4.883  0.5488 -0.5904 -2.0639
 4522TIP3    H213531   5.759   4.492   4.871  1.3961  0.1825  1.1504
 4523TIP3   OH213532   0.026   6.605   0.248  0.0915  0.4801  0.5041
 4523TIP3    H113533   0.025   6.611   0.152 -1.6640 -0.9181  0.3797
 4523TIP3    H213534   0.109   6.644   0.274  0.8571  0.3790 -1.6294
 4524TIP3   OH213535   3.598   3.373   4.170 -0.0251 -1.2072  0.3789
 4524TIP3    H113536   3.594   3.338   4.258 -1.5527 -1.8748  0.0757
 4524TIP3    H213537   3.541   3.450   4.171  0.1168 -1.0897  0.0233
 4525TIP3   OH213538   0.227   4.360   2.482  0.3391 -0.5019 -0.4752
 4525TIP3    H113539   0.137   4.337   2.459  0.8317 -2.2216 -0.7802
 4525TIP3    H213540   0.218   4.434   2.543 -1.3131 -1.2854  0.2849
 4526TIP3   OH213541   4.060   4.339   5.591  0.8962  0.9431  0.3519
 4526TIP3    H113542   3.987   4.383   5.634  0.8523  1.7700 -0.5222
 4526TIP3    H213543   4.070   4.385   5.508  3.6853  2.1527  1.2539
 4527TIP3   OH213544   3.775   0.268   1.926  0.3297  0.1963 -0.6472
 4527TIP3    H113545   3.782   0.240   2.018 -0.9819 -0.6238 -0.7767
 4527TIP3    H213546   3.727   0.350   1.930 -0.4686 -0.2640 -0.6517
 4528TIP3   OH213547   3.186   3.053   3.791 -0.0434  0.1410 -0.0252
 4528TIP3    H113548   3.107   3.049   3.844 -0.7980 -0.4847 -1.1593
 4528TIP3    H213549   3.169   2.993   3.718  0.6022  1.6107 -1.4526
 4529TIP3   OH213550   0.444   0.881   5.315 -0.0740  0.3189  0.3077
 4529TIP3    H113551   0.487   0.882   5.400  2.5024 -0.6452 -0.8663
 4529TIP3    H213552   0.444   0.789   5.289  1.0420  0.7919 -1.5576
 4530TIP3   OH213553   5.197   0.277   2.735 -0.1545 -0.0551 -0.5578
 4530TIP3    H113554   5.104   0.274   2.713 -1.0452  0.4389  2.6403
 4530TIP3    H213555   5.223   0.368   2.719 -0.0905 -0.2705 -1.7627
 4531TIP3   OH213556   3.948   1.305   2.625  0.1043 -0.4374 -0.3576
 4531TIP3    H113557   4.008   1.301   2.700  0.6272  0.9836 -0.6680
 4531TIP3    H213558   3.862   1.318   2.664  0.5659  1.9340  0.0083
 4532TIP3   OH213559   1.811   4.416   5.790  0.7190  0.2457  0.3077
 4532TIP3    H113560   1.889   4.385   5.836 -0.4024 -1.0107  1.4225
 4532TIP3    H213561   1.776   4.338   5.746  0.5341  0.9718 -0.8985
 4533TIP3   OH213562   3.471   0.354   2.669 -0.2831 -0.7533  0.1733
 4533TIP3    H113563   3.514   0.306   2.740 -1.2471 -1.4800  0.2816
 4533TIP3    H213564   3.543   0.379   2.610  0.8512  1.5038  2.2803
 4534TIP3   OH213565   1.642   0.417   4.388  0.2447 -0.3001  0.0783
 4534TIP3    H113566   1.662   0.324   4.401  1.1278  0.0299  1.2747
 4534TIP3    H213567   1.728   0.460   4.387 -0.1695  0.5501 -0.0887
 4535TIP3   OH213568   6.829   0.396   2.483  0.4908  0.6804 -0.9446
 4535TIP3    H113569   6.916   0.430   2.460  0.4619  1.2683 -0.2316
 4535TIP3    H213570   6.847   0.317   2.534  0.6042  0.6520 -1.0287
 4536TIP3   OH213571   2.522   2.091   0.108  0.1976  0.1492 -0.0953
 4536TIP3    H113572   2.487   2.178   0.092  1.6896  0.4092 -2.4580
 4536TIP3    H213573   2.557   2.063   0.023  2.0276 -1.6819  1.1515
 4537TIP3   OH213574   3.479   4.365   0.159  1.0913  0.3999 -0.6056
 4537TIP3    H113575   3.490   4.418   0.238  2.4263  1.7197 -1.6164
 4537TIP3    H213576   3.566   4.362   0.120  1.1179 -2.6592 -0.5917
 4538TIP3   OH213577   3.464   2.086   5.807  0.4687  0.2184 -0.1361
 4538TIP3    H113578   3.534   2.137   5.846 -0.4360  1.9776 -0.6975
 4538TIP3    H213579   3.403   2.068   5.879 -0.3513  1.9818 -0.3444
 4539TIP3   OH213580   1.841   4.474   3.570 -0.1236 -0.4485 -0.0490
 4539TIP3    H113581   1.876   4.440   3.652 -0.2901  0.9248  0.6249
 4539TIP3    H213582   1.765   4.418   3.552  1.2824 -2.2716 -0.5577
 4540TIP3   OH213583   2.924   2.306   4.715 -0.1787  0.0667  0.2177
 4540TIP3    H113584   2.924   2.392   4.674  0.0817  0.9510  1.9766
 4540TIP3    H213585   3.014   2.276   4.709 -0.2885 -0.1263 -0.4773
 4541TIP3   OH213586   2.186   3.569   1.758  0.0721  0.1198 -0.4314
 4541TIP3    H113587   2.230   3.608   1.834 -0.8247  0.4807 -0.0864
 4541TIP3    H213588   2.191   3.636   1.691  1.9450 -0.6452 -1.1336
 4542TIP3   OH213589   6.556   5.558   5.283  0.1167 -0.2640 -0.3943
 4542TIP3    H113590   6.542   5.504   5.360  0.1427  0.2783 -0.0043
 4542TIP3    H213591   6.643   5.596   5.297 -0.1381  0.3239 -0.3902
 4543TIP3   OH213592   3.085   0.588   4.260 -0.2052  0.4330  0.5440
 4543TIP3    H113593   3.177   0.565   4.272 -0.0619  0.8703  0.2946
 4543TIP3    H213594   3.042   0.556   4.339 -0.1277 -1.2842 -0.0661
 4544TIP3   OH213595   2.764   5.185   4.345  1.0304 -0.5678  0.0873
 4544TIP3    H113596   2.788   5.196   4.253  0.3522 -0.2358 -0.0603
 4544TIP3    H213597   2.701   5.112   4.344  0.4691 -0.0945  0.1833
 4545TIP3   OH213598   1.888   6.647   0.288  0.0614 -0.4386 -0.1970
 4545TIP3    H113599   1.958   6.688   0.338 -0.9446 -0.2454  1.1283
 4545TIP3    H213600   1.906   6.553   0.293  0.8500 -0.3266 -0.8632
 4546TIP3   OH213601   4.812   5.610   4.485  0.1057 -0.4993 -0.0914
 4546TIP3    H113602   4.798   5.699   4.453 -1.3430 -0.1573  1.3824
 4546TIP3    H213603   4.907   5.602   4.492  0.2505  1.2607  0.5938
 4547TIP3   OH213604   6.368   2.632   1.902 -0.0928 -0.0087 -0.0987
 4547TIP3    H113605   6.414   2.630   1.986 -0.6498  0.8835  0.2433
 4547TIP3    H213606   6.303   2.701   1.912 -0.1765  0.1047 -1.2653
 4548TIP3   OH213607   1.888   4.330   4.731  0.3137  0.6786  0.0521
 4548TIP3    H113608   1.866   4.408   4.784  0.0763  0.0668  0.8797
 4548TIP3    H213609   1.811   4.274   4.739  0.1742  0.6824 -1.1723
 4549TIP3   OH213610   2.117   0.385   4.227  0.6722  0.2614 -0.3612
 4549TIP3    H113611   2.077   0.396   4.141  0.5393 -0.5076 -0.4062
 4549TIP3    H213612   2.155   0.298   4.225 -3.0523 -1.7139  1.7736
 4550TIP3   OH213613   1.666   1.954   1.014  0.1194  0.3397 -0.3153
 4550TIP3    H113614   1.723   1.959   1.091 -0.2798  0.6708 -0.0392
 4550TIP3    H213615   1.583   1.921   1.048  0.4923 -1.3455 -0.9081
 4551TIP3   OH213616   1.901   3.457   5.805  0.1191  0.1979 -0.0310
 4551TIP3    H113617   1.946   3.448   5.888  1.0353  0.0750 -0.5323
 4551TIP3    H213618   1.808   3.466   5.829  0.4275  0.7421  1.0211
 4552TIP3   OH213619   0.523   0.617   3.995 -0.0588 -0.1786  0.4419
 4552TIP3    H113620   0.550   0.570   4.074  0.1350  1.3956  1.3682
 4552TIP3    H213621   0.435   0.584   3.976 -0.3231 -0.2381  1.6404
 4553TIP3   OH213622   6.831   6.190   2.016 -0.2091 -0.0385 -0.3797
 4553TIP3    H113623   6.885   6.148   2.084 -2.4155 -2.4720  0.0226
 4553TIP3    H213624   6.784   6.259   2.062 -0.3103 -0.4585  0.1612
 4554TIP3   OH213625   7.221   1.845   0.757  0.4538  0.0715 -0.2236
 4554TIP3    H113626   7.274   1.900   0.699 -0.2303  2.5575  1.3305
 4554TIP3    H213627   7.130   1.865   0.733  0.1860 -0.6647  0.1443
 4555TIP3   OH213628   4.584   5.804   1.546 -0.1181 -0.0630 -0.0459
 4555TIP3    H113629   4.622   5.879   1.500 -0.8964  0.3570 -0.0185
 4555TIP3    H213630   4.566   5.740   1.477 -0.6139  0.2771 -0.2325
 4556TIP3   OH213631   5.544   3.634   4.943  0.2663 -0.0574  0.2973
 4556TIP3    H113632   5.609   3.630   4.874 -0.7616 -0.0347 -0.7053
 4556TIP3    H213633   5.537   3.544   4.975 -0.2475 -0.3463 -0.5978
 4557TIP3   OH213634   6.628   0.437   0.227  0.1058  0.0390 -0.2519
 4557TIP3    H113635   6.711   0.410   0.268 -0.5994 -0.9077  0.6156
 4557TIP3    H213636   6.637   0.411   0.136  0.0641 -1.8166  0.2256
 4558TIP3   OH213637   2.770   4.598   0.554  0.4897 -0.2978  0.0691
 4558TIP3    H113638   2.760   4.564   0.642 -1.5824  1.9815  0.8122
 4558TIP3    H213639   2.845   4.658   0.559 -0.2237  0.5737  0.5709
 4559TIP3   OH213640   2.944   0.629   2.434 -0.0001 -0.1855 -0.1049
 4559TIP3    H113641   2.855   0.634   2.400  0.0226  1.2560 -0.0321
 4559TIP3    H213642   2.987   0.563   2.380 -0.9597 -0.5013 -0.5008
 4560TIP3   OH213643   5.624   6.580   1.964 -0.1081 -0.1884 -0.4566
 4560TIP3    H113644   5.649   6.505   2.017  0.4204  0.0925 -0.3005
 4560TIP3    H213645   5.531   6.592   1.982 -0.2386 -0.9123 -0.6229
 4561TIP3   OH213646   5.745   0.281   0.413  0.6094 -0.2789  1.1759
 4561TIP3    H113647   5.679   0.252   0.476 -0.7417 -1.2785 -0.6122
 4561TIP3    H213648   5.828   0.247   0.447  0.0313 -0.1962  2.7410
 4562TIP3   OH213649   2.717   4.017   3.485 -0.1410  0.1681  0.5656
 4562TIP3    H113650   2.724   4.014   3.390  2.4714  1.2896  0.6307
 4562TIP3    H213651   2.730   3.926   3.513  1.2435  0.1286 -0.1160
 4563TIP3   OH213652   3.893   3.707   2.705  0.0732  0.6287  0.0354
 4563TIP3    H113653   3.832   3.727   2.776  0.2760  0.6375  0.2093
 4563TIP3    H213654   3.970   3.671   2.749 -0.1091 -0.1083 -0.2419
 4564TIP3   OH213655   6.835   1.675   1.324  0.2762 -0.0704  0.0289
 4564TIP3    H113656   6.924   1.702   1.347  0.9189 -0.4288 -1.9344
 4564TIP3    H213657   6.846   1.618   1.248 -1.5975 -0.5491  0.0867
 4565TIP3   OH213658   4.683   1.858   5.705  0.1703 -0.6106  0.3672
 4565TIP3    H113659   4.700   1.875   5.612  1.0664  1.9471  0.9185
 4565TIP3    H213660   4.675   1.945   5.744 -0.5808 -1.6334  2.6333
 4566TIP3   OH213661   5.492   1.605   1.883 -0.3106 -0.3274 -0.2507
 4566TIP3    H113662   5.420   1.652   1.840  0.4643 -0.1790 -1.4093
 4566TIP3    H213663   5.559   1.597   1.816  0.4747 -1.1129  0.6084
 4567TIP3   OH213664   5.884   3.206   2.297 -0.4485 -0.1461  0.2766
 4567TIP3    H113665   5.897   3.216   2.203  2.1047  1.2495  0.6802
 4567TIP3    H213666   5.889   3.295   2.332 -0.8334 -0.6741  1.7756
 4568TIP3   OH213667   2.605   1.098   1.097 -0.1592  0.3433 -0.5256
 4568TIP3    H113668   2.580   1.131   1.010 -1.0963  0.9867 -0.0198
 4568TIP3    H213669   2.689   1.054   1.082  0.1047  1.1728 -1.6045
 4569TIP3   OH213670   3.435   5.620   3.466  0.2801 -0.6300  0.1179
 4569TIP3    H113671   3.449   5.606   3.372 -2.6366  0.7241 -0.6163
 4569TIP3    H213672   3.343   5.645   3.473  1.2126  2.7394  2.9265
 4570TIP3   OH213673   6.256   3.567   3.668  0.3319  0.6750  0.4641
 4570TIP3    H113674   6.165   3.596   3.663  0.2045  0.1977 -0.1613
 4570TIP3    H213675   6.291   3.585   3.580  0.1115 -1.4536 -0.1331
 4571TIP3   OH213676   2.718   5.236   0.889  0.6320  0.1428  0.3942
 4571TIP3    H113677   2.633   5.208   0.858  0.2251  2.6450 -1.0424
 4571TIP3    H213678   2.705   5.254   0.982  0.0055 -0.8546  0.5123
 4572TIP3   OH213679   1.797   0.900   3.548 -0.0340  0.5278  0.4056
 4572TIP3    H113680   1.702   0.892   3.544  0.0259  0.1026 -1.6133
 4572TIP3    H213681   1.829   0.809   3.548  0.3654  0.6642  0.5193
 4573TIP3   OH213682   6.895   2.378   4.353 -0.4299  0.0069 -0.5743
 4573TIP3    H113683   6.810   2.372   4.395 -0.0882 -1.2827  0.0085
 4573TIP3    H213684   6.958   2.373   4.425  0.1486 -0.9253 -1.1171
 4574TIP3   OH213685   4.354   1.129   1.138  0.3619 -0.1496 -0.2570
 4574TIP3    H113686   4.427   1.169   1.090 -1.1689  1.5830 -1.2552
 4574TIP3    H213687   4.278   1.140   1.080 -1.0476 -0.3306  1.4688
 4575TIP3   OH213688   3.997   0.820   5.624 -0.0896  0.2454  0.0223
 4575TIP3    H113689   3.933   0.861   5.566 -1.3421  0.2415  1.3453
 4575TIP3    H213690   4.047   0.761   5.568 -1.7275 -0.3013 -0.9210
 4576TIP3   OH213691   0.772   3.237   3.352  0.2662 -0.5523 -0.0088
 4576TIP3    H113692   0.768   3.261   3.445  2.6552  2.3434 -0.4993
 4576TIP3    H213693   0.850   3.183   3.344  0.0336 -0.8425 -0.3149
 4577TIP3   OH213694   6.381   3.802   3.157 -0.3337 -0.1660  0.5691
 4577TIP3    H113695   6.349   3.730   3.102  1.2320 -0.8721  0.5156
 4577TIP3    H213696   6.401   3.761   3.241  1.4022 -0.0286  0.2715
 4578TIP3   OH213697   2.982   5.302   5.029 -0.0457  0.2708 -0.2597
 4578TIP3    H113698   2.897   5.325   4.992  0.3406  0.3990 -1.0924
 4578TIP3    H213699   2.963   5.234   5.093 -0.7911  0.4065 -0.3301
 4579TIP3   OH213700   5.479   3.129   3.277 -0.7455  0.0041  0.4801
 4579TIP3    H113701   5.562   3.151   3.320 -0.7030  1.1050 -0.1488
 4579TIP3    H213702   5.423   3.204   3.292 -1.4170 -0.4564  0.3245
 4580TIP3   OH213703   6.556   0.964   4.739 -0.5059  0.4275  0.6209
 4580TIP3    H113704   6.601   0.968   4.823 -1.6900  0.2227  1.2868
 4580TIP3    H213705   6.592   1.036   4.688 -0.1927  0.9078  1.5142
 4581TIP3   OH213706   2.528   0.881   0.796  0.5547 -0.6577 -0.1810
 4581TIP3    H113707   2.624   0.885   0.793  0.5623 -0.4966  0.2284
 4581TIP3    H213708   2.505   0.820   0.726  0.7985  1.2820 -2.0593
 4582TIP3   OH213709   5.018   5.693   4.232 -0.3762  0.0066 -0.2856
 4582TIP3    H113710   5.029   5.782   4.266 -1.2211 -0.3385  0.9979
 4582TIP3    H213711   5.016   5.638   4.311  3.8550 -1.6863 -1.1077
 4583TIP3   OH213712   2.095   4.893   1.523  0.5062  0.0026 -0.4566
 4583TIP3    H113713   2.063   4.976   1.559  0.4717  0.1798 -0.8877
 4583TIP3    H213714   2.155   4.919   1.453 -0.6542 -0.3151 -1.6164
 4584TIP3   OH213715   1.937   1.365   3.515 -0.5725 -0.3919 -0.5833
 4584TIP3    H113716   1.901   1.365   3.427 -0.2839  0.1093 -0.7080
 4584TIP3    H213717   1.889   1.297   3.561 -2.0970  0.6510 -0.5711
 4585TIP3   OH213718   2.880   2.145   4.051  0.7107 -0.5728  0.5308
 4585TIP3    H113719   2.802   2.181   4.009  1.6295 -1.0499 -1.7192
 4585TIP3    H213720   2.846   2.100   4.129 -1.1390 -0.0500  0.0909
 4586TIP3   OH213721   4.052   0.516   2.347  0.3332  0.1882  0.4199
 4586TIP3    H113722   4.051   0.527   2.252 -0.9306  0.6473  0.4765
 4586TIP3    H213723   4.013   0.430   2.362 -1.3878  0.9644  0.6021
 4587TIP3   OH213724   2.421   5.296   4.529 -0.4153  0.7539 -0.7541
 4587TIP3    H113725   2.395   5.242   4.454  1.0853  1.2530 -1.6769
 4587TIP3    H213726   2.500   5.342   4.499 -0.1525  1.4536  0.9199
 4588TIP3   OH213727   6.833   3.738   2.259 -0.3882 -0.5558  0.1836
 4588TIP3    H113728   6.749   3.691   2.264 -0.6666 -0.0667  0.1855
 4588TIP3    H213729   6.895   3.680   2.303 -0.9298 -0.4778  1.0930
 4589TIP3   OH213730   6.819   4.743   0.970 -0.3140 -0.3140 -0.2095
 4589TIP3    H113731   6.770   4.820   1.001 -0.6411 -0.7972  0.4839
 4589TIP3    H213732   6.755   4.672   0.970  0.0007 -0.6030 -0.7984
 4590TIP3   OH213733   5.268   4.521   0.273 -0.1377  0.2543  0.2265
 4590TIP3    H113734   5.200   4.454   0.270 -1.2605  1.3641 -0.3102
 4590TIP3    H213735   5.226   4.596   0.316 -0.4087  2.1021 -2.9135
 4591TIP3   OH213736   4.526   6.613   1.267  0.1728 -0.0479 -0.8665
 4591TIP3    H113737   4.499   6.621   1.358 -0.8542  1.6951 -1.2729
 4591TIP3    H213738   4.497   6.526   1.241 -0.3359 -0.2178  0.2194
 4592TIP3   OH213739   0.168   2.994   3.765  0.4223  0.2605 -0.8084
 4592TIP3    H113740   0.246   2.955   3.805  0.5173 -0.5479 -1.7642
 4592TIP3    H213741   0.104   2.996   3.836  0.5402 -1.3038 -0.6247
 4593TIP3   OH213742   5.370   0.051   0.324 -0.3067  0.3730  0.0601
 4593TIP3    H113743   5.421   0.087   0.396 -0.6161 -2.5388  1.8583
 4593TIP3    H213744   5.432  -0.002   0.274 -0.4868  1.0071 -0.8859
 4594TIP3   OH213745   1.874   0.685   5.615 -0.0157 -0.3011 -0.1386
 4594TIP3    H113746   1.922   0.723   5.689  0.1530 -0.1591 -0.3199
 4594TIP3    H213747   1.920   0.603   5.596 -0.2708 -0.5094  0.1366
 4595TIP3   OH213748   0.665   3.896   2.620  0.3041 -0.5117  0.2441
 4595TIP3    H113749   0.717   3.819   2.645  1.7049  0.7327  1.3486
 4595TIP3    H213750   0.680   3.904   2.525 -1.9974 -3.0542 -0.4737
 4596TIP3   OH213751   0.223   6.230   5.352  0.0096 -0.1956  0.0255
 4596TIP3    H113752   0.169   6.188   5.285 -0.9274  0.6127  0.2546
 4596TIP3    H213753   0.180   6.207   5.434 -0.5475  1.2173  0.1536
 4597TIP3   OH213754   6.396   6.284   4.635 -0.4117 -0.1824 -0.3214
 4597TIP3    H113755   6.460   6.249   4.697 -0.7591 -0.5852 -0.1797
 4597TIP3    H213756   6.334   6.333   4.689 -1.0912 -1.0870 -0.2505
 4598TIP3   OH213757   4.078   6.835   3.145  0.0354  0.0477  0.1385
 4598TIP3    H113758   3.999   6.782   3.133  0.1758 -0.0933 -0.1472
 4598TIP3    H213759   4.146   6.772   3.168  0.3609  0.0265 -0.8756
 4599TIP3   OH213760   2.493   3.659   0.333 -0.4289  0.2245 -0.4934
 4599TIP3    H113761   2.550   3.606   0.388 -0.1202  0.7678 -0.2850
 4599TIP3    H213762   2.535   3.658   0.247  0.0911  0.9134 -0.2548
 4600TIP3   OH213763   4.158   1.515   5.552 -0.4319 -0.2844 -0.2820
 4600TIP3    H113764   4.091   1.455   5.585  0.7404 -1.2637  0.3898
 4600TIP3    H213765   4.241   1.478   5.583  0.4210  0.9550 -1.0028
 4601TIP3   OH213766   4.900   0.327   0.566  0.2032 -0.3426  0.2507
 4601TIP3    H113767   4.827   0.288   0.519  0.7788 -0.8521 -0.2305
 4601TIP3    H213768   4.891   0.421   0.550  0.8164 -0.5605 -1.5209
 4602TIP3   OH213769   2.762   5.809   4.757 -0.1589  0.0539  0.2439
 4602TIP3    H113770   2.789   5.717   4.762 -0.4368 -0.1061 -0.9906
 4602TIP3    H213771   2.683   5.812   4.811 -0.7369 -0.6774 -0.5254
 4603TIP3   OH213772   2.621   6.577   4.730  0.3638 -0.1925  0.0476
 4603TIP3    H113773   2.701   6.573   4.678 -0.5535  1.9141 -1.6847
 4603TIP3    H213774   2.652   6.597   4.819  1.8231 -1.4493 -0.1258
 4604TIP3   OH213775   4.702   0.412   5.467  0.0438  0.1878  0.1668
 4604TIP3    H113776   4.668   0.488   5.514 -2.5575 -1.3836  1.0463
 4604TIP3    H213777   4.702   0.438   5.375 -2.9436  0.5961  0.1955
 4605TIP3   OH213778   5.856   3.512   1.482 -0.1088 -0.4505  0.9783
 4605TIP3    H113779   5.774   3.466   1.498 -0.5175 -0.6446 -1.3665
 4605TIP3    H213780   5.833   3.583   1.421  1.2549  0.2295  1.2044
 4606TIP3   OH213781   1.794   6.182   2.379  0.2488  0.3903 -0.6417
 4606TIP3    H113782   1.886   6.200   2.396 -0.0489  0.3577  1.2458
 4606TIP3    H213783   1.750   6.265   2.397 -0.3245 -0.2012  0.8711
 4607TIP3   OH213784   4.312   5.778   4.248  0.3332  0.1406 -0.0098
 4607TIP3    H113785   4.325   5.869   4.222  0.3781  0.0159 -0.4335
 4607TIP3    H213786   4.400   5.740   4.250  0.3218  0.1222  0.2389
 4608TIP3   OH213787   3.174   2.293   0.479  0.0692 -0.1122  0.2096
 4608TIP3    H113788   3.225   2.339   0.412 -0.0396  1.2620  1.0336
 4608TIP3    H213789   3.225   2.214   0.497  1.7329  1.0171  0.7231
 4609TIP3   OH213790   4.266   2.781   4.994 -0.1676  0.4952  0.4812
 4609TIP3    H113791   4.251   2.854   5.054 -0.4107  0.0777  0.9362
 4609TIP3    H213792   4.264   2.703   5.049  4.0242  0.3161  0.7301
 4610TIP3   OH213793   3.223   4.168   1.381 -0.3391  0.0676 -0.3915
 4610TIP3    H113794   3.210   4.246   1.434  0.4930  1.4335 -2.0816
 4610TIP3    H213795   3.180   4.188   1.298 -0.6261 -1.5271 -0.6559
 4611TIP3   OH213796   6.943   6.026   2.846 -0.2918  0.1256 -0.1358
 4611TIP3    H113797   6.942   6.084   2.770 -1.9614 -0.7016 -0.8031
 4611TIP3    H213798   6.875   5.961   2.828  1.3390 -1.9423  0.6685
 4612TIP3   OH213799   6.329   5.260   5.848  0.3371 -0.1029  0.0134
 4612TIP3    H113800   6.237   5.237   5.861  0.1915 -0.4381 -1.3577
 4612TIP3    H213801   6.356   5.208   5.772  1.6941 -0.0737  0.4406
 4613TIP3   OH213802   3.117   1.668   1.196  0.1829  0.1946  0.1707
 4613TIP3    H113803   3.116   1.652   1.290 -1.2670 -0.0754  0.1425
 4613TIP3    H213804   3.160   1.591   1.159  0.3612  0.0930  0.5893
 4614TIP3   OH213805   7.003   5.258   5.651  0.0129  0.3234 -0.2273
 4614TIP3    H113806   7.082   5.295   5.612  0.7061  0.2860  1.0903
 4614TIP3    H213807   6.935   5.323   5.631  0.0680 -0.1881 -2.3691
 4615TIP3   OH213808   2.538   3.645   0.986  0.0954 -0.4246 -0.3331
 4615TIP3    H113809   2.583   3.729   0.988 -2.0433  0.7652  1.0155
 4615TIP3    H213810   2.601   3.583   1.021  1.5491  0.6804 -0.8994
 4616TIP3   OH213811   0.565   2.993   3.700  0.2592  0.1565  0.2994
 4616TIP3    H113812   0.514   2.969   3.623  0.2905  1.2965 -0.0979
 4616TIP3    H213813   0.523   2.945   3.772 -0.0784 -0.5295 -0.3416
 4617TIP3   OH213814   5.322   0.032   4.809  0.3633  0.9711  0.1524
 4617TIP3    H113815   5.247   0.066   4.760 -0.4039 -0.2654  0.4181
 4617TIP3    H213816   5.372   0.110   4.834 -0.1325  1.7294 -1.1318
 4618TIP3   OH213817   3.993   4.960   3.140  0.2109 -0.0811 -0.2564
 4618TIP3    H113818   4.072   4.952   3.194  0.5307  1.0537 -0.5353
 4618TIP3    H213819   3.967   4.870   3.122  0.3181 -0.4955  1.4702
 4619TIP3   OH213820   4.018   6.485   4.811  0.0265  0.6484 -0.1001
 4619TIP3    H113821   4.031   6.535   4.730 -1.1653 -0.6800 -1.1750
 4619TIP3    H213822   4.104   6.486   4.854  0.8725  0.8449 -1.7166
 4620TIP3   OH213823   4.237   4.411   3.054 -0.2028  0.1937 -0.1746
 4620TIP3    H113824   4.318   4.415   3.105  0.4928  0.5664 -1.2667
 4620TIP3    H213825   4.218   4.318   3.047 -1.1627  0.1625  2.0090
 4621TIP3   OH213826   6.636   6.155   2.475  0.5596 -0.0376  0.1088
 4621TIP3    H113827   6.550   6.141   2.435 -0.2136 -0.4681  1.8103
 4621TIP3    H213828   6.690   6.191   2.405 -1.2002  0.9051 -0.8268
 4622TIP3   OH213829   1.517   0.905   5.119 -0.1302  0.5773  0.3417
 4622TIP3    H113830   1.482   0.862   5.041  0.1154 -0.2201  0.6611
 4622TIP3    H213831   1.484   0.853   5.192  1.3050  0.0855  0.6713
 4623TIP3   OH213832   2.506   1.560   3.761  0.0887  0.2952 -0.4115
 4623TIP3    H113833   2.494   1.549   3.667 -1.5182  0.5180 -0.2684
 4623TIP3    H213834   2.417   1.577   3.794  0.3775 -1.3622  1.3646
 4624TIP3   OH213835   0.853   1.425   0.176 -0.0050  0.0985  0.2834
 4624TIP3    H113836   0.795   1.499   0.160 -0.1325  0.0453  0.5015
 4624TIP3    H213837   0.795   1.350   0.189  0.1295 -0.4994 -2.0370
 4625TIP3   OH213838   5.939   2.939   3.188 -0.2018  0.0340  0.4479
 4625TIP3    H113839   5.908   2.861   3.141 -0.5207  0.8258 -0.6990
 4625TIP3    H213840   5.876   3.008   3.165  1.6407  1.3634 -0.8606
 4626TIP3   OH213841   2.748   3.690   2.565  0.3746 -0.5031 -0.0351
 4626TIP3    H113842   2.783   3.738   2.490 -0.7235  0.0600 -0.2071
 4626TIP3    H213843   2.800   3.610   2.569  1.3364  0.0756 -0.5709
 4627TIP3   OH213844   2.477   0.102   4.113 -0.5251 -0.7417  0.2198
 4627TIP3    H113845   2.491   0.173   4.050  0.7891 -0.6565  0.5781
 4627TIP3    H213846   2.485   0.022   4.061  1.5308 -0.7016  0.3946
 4628TIP3   OH213847   2.486   3.051   1.588 -0.0957 -0.0713 -0.1441
 4628TIP3    H113848   2.558   3.111   1.567 -0.5496  0.5473  0.0239
 4628TIP3    H213849   2.421   3.107   1.630 -1.3073 -0.3213 -1.6131
 4629TIP3   OH213850   2.862   5.849   5.802 -0.4722  0.2780  0.2667
 4629TIP3    H113851   2.868   5.761   5.839  0.4539  0.1890 -0.0693
 4629TIP3    H213852   2.898   5.906   5.869  1.1603  0.1228 -0.4378
 4630TIP3   OH213853   6.691   3.148   5.735  0.1658  0.4067 -0.3244
 4630TIP3    H113854   6.618   3.202   5.705 -0.5637 -0.0263  0.6291
 4630TIP3    H213855   6.768   3.205   5.726 -0.2392  0.7859 -1.5669
 4631TIP3   OH213856   1.037   0.683   4.792  0.2897 -0.4873 -0.1961
 4631TIP3    H113857   0.979   0.615   4.756 -0.1837  0.4928 -1.3711
 4631TIP3    H213858   1.125   0.648   4.778  0.0746 -0.6202 -1.3437
 4632TIP3   OH213859   7.146   2.358   1.587  0.0774 -0.0936 -0.1995
 4632TIP3    H113860   7.130   2.273   1.628 -2.0828 -1.3047 -3.2332
 4632TIP3    H213861   7.207   2.339   1.515  0.7421  1.2237 -0.0096
 4633TIP3   OH213862   0.984   5.966   5.519  0.7811 -0.5453  0.0448
 4633TIP3    H113863   1.069   6.001   5.492  0.0839  1.2639  0.0836
 4633TIP3    H213864   0.981   5.980   5.614  0.0508  0.3485 -0.0938
 4634TIP3   OH213865   5.882   5.118   2.389 -0.1766 -0.8961 -0.0322
 4634TIP3    H113866   5.966   5.071   2.384  0.3003  0.0364 -1.9373
 4634TIP3    H213867   5.852   5.104   2.479  1.1442 -2.7390  0.1840
 4635TIP3   OH213868   5.015   2.460   3.537 -0.2763 -0.0002  0.0643
 4635TIP3    H113869   5.045   2.393   3.475 -0.0702  0.5276 -0.4121
 4635TIP3    H213870   5.045   2.430   3.622 -0.9848 -0.9908 -0.0175
 4636TIP3   OH213871   2.325   5.207   4.071 -0.1875  0.1796 -0.4724
 4636TIP3    H113872   2.411   5.242   4.051 -0.2961  1.0120  0.4474
 4636TIP3    H213873   2.305   5.149   3.997  1.2051 -0.1368 -0.6346
 4637TIP3   OH213874   3.266   6.416   5.815 -0.1895 -0.4588 -0.2228
 4637TIP3    H113875   3.289   6.497   5.769  0.4610 -0.0110  0.8353
 4637TIP3    H213876   3.300   6.429   5.904  1.3035 -2.5047 -0.4197
 4638TIP3   OH213877   5.095   1.068   0.305  0.3562 -0.1048  0.0954
 4638TIP3    H113878   5.184   1.095   0.281  0.0814 -0.7011 -1.8037
 4638TIP3    H213879   5.107   0.997   0.367  1.2133 -0.0899 -0.0343
 4639TIP3   OH213880   3.246   6.310   1.285 -0.4010 -0.5529  0.2392
 4639TIP3    H113881   3.237   6.349   1.372 -0.7752  0.5527 -0.2778
 4639TIP3    H213882   3.240   6.216   1.301 -1.2754 -0.3430  1.3240
 4640TIP3   OH213883   6.871   5.443   5.538  0.0762  0.2717  0.2860
 4640TIP3    H113884   6.886   5.434   5.444 -0.7264 -0.6709  0.2335
 4640TIP3    H213885   6.910   5.528   5.560 -1.6873  1.5985 -1.3279
 4641TIP3   OH213886   1.194   0.618   1.352  0.2873 -0.3493  0.0364
 4641TIP3    H113887   1.226   0.641   1.439  1.6313  0.8372 -0.7166
 4641TIP3    H213888   1.174   0.524   1.357  0.2761 -0.2799  1.6232
 4642TIP3   OH213889   1.919   0.144   2.803  0.1137 -0.1628 -0.1960
 4642TIP3    H113890   1.937   0.166   2.895 -1.3373  0.3317  0.0010
 4642TIP3    H213891   1.962   0.214   2.753  1.0067 -0.4929  0.0828
 4643TIP3   OH213892   6.911   3.036   0.665  0.3086 -0.5674 -0.4455
 4643TIP3    H113893   6.897   3.113   0.719 -0.0647 -2.2455  2.0428
 4643TIP3    H213894   6.823   3.003   0.646  0.4297  0.0014 -2.1928
 4644TIP3   OH213895   1.634   0.564   4.940 -0.3351  0.4388  0.2804
 4644TIP3    H113896   1.598   0.563   5.029 -1.2519 -1.0114 -0.0672
 4644TIP3    H213897   1.728   0.552   4.952 -0.7890 -4.2864  1.0454
 4645TIP3   OH213898   2.168   0.666   4.203 -0.3321 -0.0198 -0.4088
 4645TIP3    H113899   2.160   0.570   4.203  0.1861 -0.0774 -1.9358
 4645TIP3    H213900   2.227   0.685   4.276  0.9998 -1.0171 -1.1830
 4646TIP3   OH213901   0.903   0.907   4.066  0.2821  0.3368  0.3046
 4646TIP3    H113902   0.885   0.927   4.158  1.7473 -2.5748  1.3637
 4646TIP3    H213903   0.822   0.870   4.033 -0.2293  1.3144  0.4600
 4647TIP3   OH213904   6.019   2.075   0.906  0.5760  0.6736 -0.5196
 4647TIP3    H113905   5.964   2.068   0.984  0.5332 -2.0138 -0.7121
 4647TIP3    H213906   6.084   2.142   0.929  1.0063 -0.5176  2.1443
 4648TIP3   OH213907   4.503   3.527   4.586  0.1747 -0.0832 -0.4593
 4648TIP3    H113908   4.425   3.471   4.588  0.5960 -0.7507 -1.6048
 4648TIP3    H213909   4.523   3.537   4.493  1.1658  0.5041 -0.2014
 4649TIP3   OH213910   2.603   6.105   2.979  0.7596 -0.9197  0.4863
 4649TIP3    H113911   2.682   6.063   3.010  0.6409  0.4735  2.8793
 4649TIP3    H213912   2.585   6.174   3.042  0.9282  2.8144 -3.1012
 4650TIP3   OH213913   3.405   1.552   0.230  0.8651  0.4607  0.1870
 4650TIP3    H113914   3.319   1.511   0.225  0.9973 -0.0222  1.4531
 4650TIP3    H213915   3.404   1.620   0.163  0.0957 -0.6137 -0.9138
 4651TIP3   OH213916   4.465   1.574   4.414 -0.1762 -0.3524  0.8129
 4651TIP3    H113917   4.399   1.634   4.450  1.0467 -0.0096  2.6411
 4651TIP3    H213918   4.503   1.533   4.491  1.3368 -0.9752 -0.2407
 4652TIP3   OH213919   6.762   1.306   5.812 -0.2947 -0.2567 -0.3948
 4652TIP3    H113920   6.685   1.266   5.773 -1.2783  0.3064  0.9024
 4652TIP3    H213921   6.742   1.312   5.906  0.8071  1.0348 -0.2049
 4653TIP3   OH213922   0.619   0.421   4.178  0.0939  0.0977 -0.1862
 4653TIP3    H113923   0.689   0.358   4.162 -1.3325 -1.4793 -0.5614
 4653TIP3    H213924   0.586   0.398   4.265 -0.4085  0.3592 -0.3033
 4654TIP3   OH213925   5.639   6.496   3.891 -0.1263 -0.3285  0.4243
 4654TIP3    H113926   5.570   6.430   3.898 -0.9068  0.4894  0.6173
 4654TIP3    H213927   5.718   6.451   3.919 -0.7465 -1.0176  1.1059
 4655TIP3   OH213928   5.026   3.665   4.930  0.0099 -0.3849 -0.3802
 4655TIP3    H113929   5.015   3.570   4.920 -0.6286 -0.5745  1.6959
 4655TIP3    H213930   4.937   3.698   4.941  0.3588  0.2022  0.7694
 4656TIP3   OH213931   3.167   2.013   4.043  0.2806  0.3911 -0.1744
 4656TIP3    H113932   3.153   2.085   3.982 -1.9003 -0.2980 -0.5739
 4656TIP3    H213933   3.171   2.055   4.129  1.9725  1.2249 -0.6189
 4657TIP3   OH213934   0.619   1.472   5.509 -0.0057 -0.4093  0.3207
 4657TIP3    H113935   0.631   1.562   5.539 -1.4945  0.1255 -0.6156
 4657TIP3    H213936   0.573   1.429   5.581 -2.5707  0.5826 -0.6009
 4658TIP3   OH213937   3.940   3.020   2.444  0.3706  0.4381  0.1303
 4658TIP3    H113938   3.849   3.033   2.417  0.1736 -0.8816  0.0916
 4658TIP3    H213939   3.991   3.056   2.372 -0.1459 -0.1182 -0.5350
 4659TIP3   OH213940   1.120   5.431   1.890  0.7326 -0.0885 -0.2031
 4659TIP3    H113941   1.041   5.389   1.855  0.4493 -2.1663  2.5898
 4659TIP3    H213942   1.192   5.387   1.847  0.3734 -1.4561  0.5344
 4660TIP3   OH213943   4.526   1.148   1.384 -0.6847 -0.2901  0.1381
 4660TIP3    H113944   4.540   1.236   1.348  1.4884 -0.8912 -0.6506
 4660TIP3    H213945   4.479   1.164   1.466 -1.8644  1.4506 -0.7939
 4661TIP3   OH213946   1.959   1.644   0.048  0.2287 -0.1901  0.3680
 4661TIP3    H113947   1.980   1.606  -0.037  0.1182  0.8580 -0.1485
 4661TIP3    H213948   2.038   1.694   0.071 -0.4144  1.0727 -0.0338
 4662TIP3   OH213949   0.561   4.110   0.309  0.1566  0.1189  0.3271
 4662TIP3    H113950   0.584   4.185   0.253  1.4619 -0.5697 -0.1145
 4662TIP3    H213951   0.466   4.111   0.313  0.1331  2.5861  1.4234
 4663TIP3   OH213952   4.517   2.222   4.230 -0.6930  0.1221 -0.1881
 4663TIP3    H113953   4.498   2.224   4.324 -1.6545  0.5370 -0.3802
 4663TIP3    H213954   4.577   2.296   4.217 -0.5997  0.0982  0.0860
 4664TIP3   OH213955  -0.003   0.089   4.263 -0.7678  0.0513  0.7065
 4664TIP3    H113956  -0.003   0.148   4.187 -0.8007  0.6399  1.1584
 4664TIP3    H213957   0.063   0.023   4.241 -2.3659 -1.1164 -0.8344
 4665TIP3   OH213958   5.906   1.949   3.188 -0.1084  0.0541  0.0241
 4665TIP3    H113959   5.903   1.929   3.281  0.1094  0.4588  0.1187
 4665TIP3    H213960   5.827   1.999   3.171 -0.1422 -0.0094 -0.0067
 4666TIP3   OH213961   2.718   2.763   0.999  0.0997 -0.3117  0.0751
 4666TIP3    H113962   2.698   2.694   1.062  2.8944 -0.6318  0.7642
 4666TIP3    H213963   2.753   2.716   0.923 -1.3595  0.2008 -0.9629
 4667TIP3   OH213964   0.286   1.241   4.181  0.4569 -0.4240  0.0294
 4667TIP3    H113965   0.319   1.175   4.242 -1.5759 -0.3322  1.3314
 4667TIP3    H213966   0.244   1.191   4.112  0.0106 -0.5144  0.3636
 4668TIP3   OH213967   0.165   1.057   4.440 -0.2907 -0.2653  0.1606
 4668TIP3    H113968   0.218   1.026   4.514 -0.6228 -2.0439 -0.3139
 4668TIP3    H213969   0.075   1.056   4.473 -0.5295 -1.8346 -0.4918
 4669TIP3   OH213970   4.984   1.135   0.966 -0.2276 -0.1813 -0.7396
 4669TIP3    H113971   5.029   1.053   0.948 -0.4933 -0.9417  1.7377
 4669TIP3    H213972   4.894   1.109   0.988  0.4725  0.2513  3.4879
 4670TIP3   OH213973   1.409   3.550   0.429 -0.2798  0.1707 -0.0880
 4670TIP3    H113974   1.431   3.473   0.377 -0.4579 -1.4253  2.0598
 4670TIP3    H213975   1.319   3.569   0.406 -0.2401 -0.2646 -0.6350
 4671TIP3   OH213976   6.214   1.646   4.222 -0.0102 -0.2369  1.0225
 4671TIP3    H113977   6.216   1.650   4.126 -4.3133 -0.1642  0.7643
 4671TIP3    H213978   6.282   1.708   4.249  1.4417 -0.3370 -1.8916
 4672TIP3   OH213979   0.942   1.946   3.927  0.0900 -0.2820 -0.4006
 4672TIP3    H113980   0.938   2.022   3.986  0.4348  0.6863 -1.5877
 4672TIP3    H213981   0.862   1.952   3.875  0.1293 -0.7315 -0.5139
 4673TIP3   OH213982   2.527   4.369   2.748  0.1561 -0.9692 -0.8223
 4673TIP3    H113983   2.482   4.453   2.749 -0.2523 -1.1611  0.9843
 4673TIP3    H213984   2.609   4.387   2.702  0.8819  0.9001  1.0167
 4674TIP3   OH213985   6.689   0.673   2.843  0.2596  0.5549  0.1183
 4674TIP3    H113986   6.613   0.617   2.836  0.1698  0.5344  1.2367
 4674TIP3    H213987   6.653   0.760   2.861  0.5061  0.4925  0.9309
 4675TIP3   OH213988   5.420   1.023   2.021  0.4037 -0.0957  0.7138
 4675TIP3    H113989   5.381   1.111   2.017  0.8143  0.0326 -0.9566
 4675TIP3    H213990   5.347   0.964   2.003  0.0748 -0.1397  2.0808
 4676TIP3   OH213991   4.814   2.469   3.004  0.4560  0.0573 -0.0641
 4676TIP3    H113992   4.720   2.482   2.992  0.4729  0.7477  0.5094
 4676TIP3    H213993   4.852   2.492   2.919  0.0907 -0.4507 -0.3700
 4677TIP3   OH213994   5.699   6.600   4.427 -0.3171  0.4920 -0.0620
 4677TIP3    H113995   5.631   6.640   4.372  0.9616  1.3231 -1.0996
 4677TIP3    H213996   5.761   6.562   4.364 -0.6122 -1.7207  0.8711
 4678TIP3   OH213997   5.759   5.035   3.400  0.6851 -0.3197 -0.0437
 4678TIP3    H113998   5.810   5.078   3.469  0.1639 -0.2740  0.3142
 4678TIP3    H213999   5.670   5.033   3.434  0.5843 -1.0820 -0.3436
 4679TIP3   OH214000   2.594   0.046   1.671  0.2056 -0.1867  0.4182
 4679TIP3    H114001   2.623   0.053   1.762 -2.2304 -1.0416  1.3620
 4679TIP3    H214002   2.531   0.117   1.661  0.9408  0.3077 -0.8331
 4680TIP3   OH214003   0.811   0.621   5.175 -0.0139 -0.0189 -0.5049
 4680TIP3    H114004   0.768   0.594   5.256 -0.2839 -1.8492 -1.2102
 4680TIP3    H214005   0.744   0.672   5.129  0.1402  1.0330  0.3708
 4681TIP3   OH214006   0.096   1.206   0.226 -0.3230 -0.1872  0.3597
 4681TIP3    H114007   0.150   1.284   0.242 -1.1247  0.5714 -0.5148
 4681TIP3    H214008   0.029   1.236   0.165  0.3387 -1.9865 -1.3411
 4682TIP3   OH214009   2.878   1.183   5.070  0.4494 -0.2143 -0.1965
 4682TIP3    H114010   2.806   1.171   5.008 -0.0223 -0.5134  0.4036
 4682TIP3    H214011   2.879   1.103   5.122  2.7999 -1.3412 -1.7818
 4683TIP3   OH214012   5.983   4.403   0.258  0.5096  0.0461  0.0853
 4683TIP3    H114013   5.940   4.349   0.324  0.1930  0.3534  0.1290
 4683TIP3    H214014   5.923   4.476   0.242  1.3276  0.8729  0.6694
 4684TIP3   OH214015   4.472   6.046   1.197  0.1719 -0.3494 -0.3104
 4684TIP3    H114016   4.497   6.015   1.110 -1.7912 -1.5407 -0.5072
 4684TIP3    H214017   4.397   5.992   1.221 -1.8529  2.5677  0.4695
 4685TIP3   OH214018   7.001   0.909   3.598  0.0494 -0.6563 -0.0070
 4685TIP3    H114019   6.959   0.994   3.595 -0.0482 -0.7218 -0.5963
 4685TIP3    H214020   7.041   0.905   3.685  0.0640 -0.0073  0.0208
 4686TIP3   OH214021   3.837   3.959   0.025  0.1986  0.2515  1.0506
 4686TIP3    H114022   3.816   4.038   0.076  1.5065  0.2012  1.7149
 4686TIP3    H214023   3.808   3.887   0.081  0.7208  0.2259  1.2995
 4687TIP3   OH214024   2.938   0.774   1.980 -0.2830  0.5482 -0.5210
 4687TIP3    H114025   2.966   0.686   1.954 -0.1423  0.6423 -0.6909
 4687TIP3    H214026   2.914   0.816   1.898 -0.3715  0.6611 -0.4365
 4688TIP3   OH214027   4.859   1.526   3.027 -0.1314 -0.3703  0.2652
 4688TIP3    H114028   4.775   1.481   3.019 -1.0039  1.0689  0.8606
 4688TIP3    H214029   4.848   1.607   2.976  0.4087  0.4702  1.4294
 4689TIP3   OH214030   0.048   4.731   2.340 -0.3349 -0.2678 -0.2783
 4689TIP3    H114031  -0.031   4.781   2.320 -0.1114 -0.2930 -1.3194
 4689TIP3    H214032   0.023   4.672   2.410 -0.5350  1.4592  1.1698
 4690TIP3   OH214033   2.196   3.421   3.930  0.5614 -0.6724  0.5562
 4690TIP3    H114034   2.227   3.392   4.016  0.0109 -0.6403  0.7671
 4690TIP3    H214035   2.169   3.511   3.944  0.4984 -0.6594  0.3408
 4691TIP3   OH214036   0.072   5.461   0.880 -0.5326 -0.0430  0.4923
 4691TIP3    H114037   0.017   5.405   0.824  0.3601  0.6446 -1.1251
 4691TIP3    H214038   0.092   5.406   0.956 -2.4726 -0.7067  0.5745
 4692TIP3   OH214039   1.933   5.440   5.812  0.6115  0.4814  0.3309
 4692TIP3    H114040   1.937   5.416   5.904  2.2757  1.8571  0.6746
 4692TIP3    H214041   1.843   5.421   5.786  0.1497 -0.0714  2.1898
 4693TIP3   OH214042   4.566   0.241   2.022  0.2894  0.0778  0.3059
 4693TIP3    H114043   4.654   0.210   2.041  0.2314 -0.1266  0.2446
 4693TIP3    H214044   4.521   0.165   1.985 -0.0700  0.0315  0.8222
 4694TIP3   OH214045   5.204   0.959   5.225 -0.2093 -0.2436  0.0511
 4694TIP3    H114046   5.167   0.959   5.314  0.7571  1.2729  0.4832
 4694TIP3    H214047   5.153   1.025   5.179  0.0794 -0.1842 -0.1793
 4695TIP3   OH214048   0.669   4.424   1.518 -0.0014  0.9931 -0.0611
 4695TIP3    H114049   0.701   4.388   1.435 -0.0626  0.1770  0.2616
 4695TIP3    H214050   0.585   4.464   1.495 -0.3607  0.1489 -0.2711
 4696TIP3   OH214051   2.754   6.070   0.731 -0.3596 -0.4111  0.3369
 4696TIP3    H114052   2.780   6.115   0.812 -0.8525  0.8031 -0.1546
 4696TIP3    H214053   2.660   6.054   0.741 -0.7054  0.9238 -0.5113
 4697TIP3   OH214054   0.168   0.541   1.517 -0.3023 -0.0521  0.0702
 4697TIP3    H114055   0.115   0.592   1.578  1.5076  1.9827  0.0796
 4697TIP3    H214056   0.255   0.539   1.556  0.3605 -0.6725 -1.3428
 4698TIP3   OH214057   1.384   5.508   2.846  0.3178 -0.0899  0.7870
 4698TIP3    H114058   1.378   5.574   2.915 -0.8590 -0.1252  0.7362
 4698TIP3    H214059   1.449   5.446   2.878  0.4034  0.3409  1.4768
 4699TIP3   OH214060   6.104   3.174   4.925 -0.0031  0.1672  0.5894
 4699TIP3    H114061   6.113   3.117   5.001  2.5268  0.4525  0.5949
 4699TIP3    H214062   6.160   3.134   4.858  0.1422  1.4923 -0.1197
 4700TIP3   OH214063   2.217   2.388   1.350  0.6421 -0.7928  0.2642
 4700TIP3    H114064   2.183   2.414   1.265  0.8087  0.1983  0.4769
 4700TIP3    H214065   2.140   2.359   1.399  0.6185 -1.8342 -0.3735
 4701TIP3   OH214066   2.673   4.955   1.127 -0.3534 -0.8308  0.1668
 4701TIP3    H114067   2.663   4.865   1.096  0.8400 -0.8266 -0.2926
 4701TIP3    H214068   2.727   4.947   1.205  0.8801 -0.4272 -0.6159
 4702TIP3   OH214069   0.140   6.002   0.195 -0.0906  0.1629 -0.4935
 4702TIP3    H114070   0.135   6.005   0.290 -1.1968  1.5372 -0.5613
 4702TIP3    H214071   0.228   6.033   0.174  0.8564 -1.9622  0.1041
 4703TIP3   OH214072   2.587   4.576   0.874  0.0619  0.1713 -0.2174
 4703TIP3    H114073   2.492   4.572   0.890  0.0447  1.6358  0.2600
 4703TIP3    H214074   2.608   4.494   0.830 -1.7814  0.6764 -2.1986
 4704TIP3   OH214075   4.534   3.741   4.802 -0.0770 -0.2387  0.4754
 4704TIP3    H114076   4.472   3.723   4.873  0.4916 -1.7488  0.6233
 4704TIP3    H214077   4.518   3.671   4.739  0.6184  0.0872 -0.0674
 4705TIP3   OH214078   6.190   1.437   3.449 -0.8073 -0.1634  0.4641
 4705TIP3    H114079   6.201   1.346   3.420 -0.7490 -0.1889  0.5647
 4705TIP3    H214080   6.130   1.431   3.523 -1.4542 -0.0313 -0.0395
 4706TIP3   OH214081   5.613   6.378   3.567  0.6259 -0.3627 -0.0680
 4706TIP3    H114082   5.577   6.350   3.651  1.2708  0.8361  0.6330
 4706TIP3    H214083   5.607   6.473   3.568  0.7535 -0.3165 -1.3458
 4707TIP3   OH214084   4.662   3.204   1.277 -0.4433  0.0293 -0.0399
 4707TIP3    H114085   4.727   3.137   1.298 -1.2735 -0.4582  1.0285
 4707TIP3    H214086   4.627   3.231   1.362 -0.4812  1.4712 -0.4848
 4708TIP3   OH214087   2.059   1.521   2.825  0.1300  0.0202  0.2031
 4708TIP3    H114088   1.972   1.484   2.839  0.4823 -0.4314  1.3653
 4708TIP3    H214089   2.072   1.580   2.899  1.5213 -1.3282  1.0970
 4709TIP3   OH214090   6.083   5.784   3.979  0.0414  0.1552  0.0422
 4709TIP3    H114091   6.142   5.708   3.973 -0.7987 -0.4776 -0.3269
 4709TIP3    H214092   6.129   5.853   3.931  0.8903 -0.0572  0.5147
 4710TIP3   OH214093   2.271   1.719   1.573  0.2183  0.1720 -0.2440
 4710TIP3    H114094   2.224   1.636   1.571 -1.1232  0.8864 -2.6016
 4710TIP3    H214095   2.323   1.718   1.492  0.2278  1.5960 -0.2705
 4711TIP3   OH214096   5.717   6.637   0.550  0.7523 -0.2309 -0.1076
 4711TIP3    H114097   5.630   6.607   0.576  0.5019  0.6059  0.0536
 4711TIP3    H214098   5.751   6.568   0.494  0.4086 -1.0573  0.6866
 4712TIP3   OH214099   2.227   5.127   1.913 -0.1107  0.3603 -0.4734
 4712TIP3    H114100   2.225   5.199   1.851 -0.6609  1.1096  0.3869
 4712TIP3    H214101   2.318   5.099   1.916 -0.2643 -0.4900 -2.4966
 4713TIP3   OH214102   2.731   0.220   2.460 -0.4612 -0.0294 -0.3470
 4713TIP3    H114103   2.722   0.314   2.442 -0.1039  0.0904  0.1037
 4713TIP3    H214104   2.771   0.215   2.547 -1.8734 -0.6035  0.3034
 4714TIP3   OH214105   0.951   4.848   2.951  0.2034  0.3193  0.2074
 4714TIP3    H114106   1.004   4.789   2.897  0.6285  0.8338  0.0497
 4714TIP3    H214107   0.985   4.935   2.930 -1.3802  0.7644 -0.6787
 4715TIP3   OH214108   1.244   0.333   5.826  0.7431 -0.0866 -0.2767
 4715TIP3    H114109   1.192   0.412   5.813  0.2337 -0.4789 -0.6650
 4715TIP3    H214110   1.193   0.263   5.786  1.3069 -0.5769 -0.1663
 4716TIP3   OH214111   0.411   5.167   5.592  0.0610  0.1553 -0.2949
 4716TIP3    H114112   0.321   5.198   5.583  0.5735  1.3404 -1.8462
 4716TIP3    H214113   0.463   5.247   5.601  0.9228 -0.5291  1.3293
 4717TIP3   OH214114   3.450   5.646   0.160  0.3283  0.1586 -0.7412
 4717TIP3    H114115   3.530   5.644   0.108  0.6961 -2.9276 -0.2841
 4717TIP3    H214116   3.382   5.610   0.102 -0.3145  0.9559 -0.5104
 4718TIP3   OH214117   0.989   0.123   0.365 -0.7236  0.0218 -0.0249
 4718TIP3    H114118   0.981   0.093   0.274 -1.0672 -2.4150  0.7459
 4718TIP3    H214119   1.063   0.183   0.364 -1.6753  1.2884 -2.1726
 4719TIP3   OH214120   2.588   4.285   0.447 -0.5475  0.3913  0.3536
 4719TIP3    H114121   2.596   4.345   0.373  0.5027 -0.0989  0.0539
 4719TIP3    H214122   2.511   4.233   0.427  0.8809 -1.1523 -1.4903
 4720TIP3   OH214123   5.358   6.015   3.859  0.5713 -0.2037  0.1489
 4720TIP3    H114124   5.445   6.028   3.896  0.8620 -0.5293 -0.4125
 4720TIP3    H214125   5.324   5.937   3.904  0.9689 -0.6658 -0.3331
 4721TIP3   OH214126   2.581   1.843   2.166  0.0743  0.2944 -0.7519
 4721TIP3    H114127   2.540   1.928   2.184 -0.1405  0.4532 -1.9147
 4721TIP3    H214128   2.646   1.863   2.098  0.7057 -0.3020 -0.3232
 4722TIP3   OH214129   1.568   0.061   2.392 -0.1670  0.4252 -0.2662
 4722TIP3    H114130   1.605   0.135   2.344 -0.5863  0.7876 -0.0454
 4722TIP3    H214131   1.631   0.043   2.462 -0.1371  0.6733 -0.2301
 4723TIP3   OH214132   2.553   3.823   4.222 -0.2118  0.3009 -0.1992
 4723TIP3    H114133   2.459   3.840   4.229  0.1826  2.8986 -0.1379
 4723TIP3    H214134   2.582   3.878   4.149  1.2618 -0.5512 -0.2997
 4724TIP3   OH214135   2.887   4.221   1.430 -0.2612 -0.4820  0.5179
 4724TIP3    H114136   2.884   4.315   1.415  1.7008 -0.6968 -1.8421
 4724TIP3    H214137   2.809   4.187   1.387 -0.5349 -0.0169  0.6399
 4725TIP3   OH214138   4.968   6.721   4.837  1.0105  0.0283  0.0396
 4725TIP3    H114139   4.905   6.788   4.813  0.8091  1.0818  3.1202
 4725TIP3    H214140   4.959   6.654   4.769 -2.0216  1.0295 -0.6791
 4726TIP3   OH214141   6.979   0.535   4.068  0.2116  0.0830 -0.0156
 4726TIP3    H114142   6.992   0.580   4.152  0.1936 -1.1176  0.6534
 4726TIP3    H214143   6.883   0.532   4.058  0.2125  1.8355 -1.0090
 4727TIP3   OH214144   6.775   1.203   5.196 -0.6224  0.1033  0.4471
 4727TIP3    H114145   6.800   1.218   5.287  0.3917 -0.3451  0.2584
 4727TIP3    H214146   6.682   1.225   5.193 -1.2241 -1.8717  2.0837
 4728TIP3   OH214147   5.445   1.287   3.596 -0.1323  0.6946 -0.2026
 4728TIP3    H114148   5.390   1.273   3.673 -1.3467 -1.2157 -1.3322
 4728TIP3    H214149   5.386   1.320   3.529  0.1008 -0.9775 -1.3093
 4729TIP3   OH214150   1.877   2.437   0.804 -0.1774 -0.2689 -0.0511
 4729TIP3    H114151   1.870   2.531   0.793 -0.2805 -0.2856 -0.1284
 4729TIP3    H214152   1.788   2.408   0.824 -0.6515 -0.6607 -2.4302
 4730TIP3   OH214153   4.671   4.703   2.609  0.4839 -0.0192 -0.0865
 4730TIP3    H114154   4.752   4.752   2.595  1.6571 -1.2723  1.9066
 4730TIP3    H214155   4.609   4.768   2.642  1.5590  0.4540  1.0904
 4731TIP3   OH214156   2.912   5.964   4.075 -0.0759  0.0079  0.3237
 4731TIP3    H114157   2.968   5.906   4.127 -0.8455 -0.0586  1.0990
 4731TIP3    H214158   2.890   6.036   4.135 -2.8054 -1.1878  0.8944
 4732TIP3   OH214159   2.857   2.629   0.782  0.2813 -0.2230  0.0637
 4732TIP3    H114160   2.924   2.561   0.780  1.0629  0.5047  0.7555
 4732TIP3    H214161   2.906   2.711   0.791 -0.5341  0.6253 -2.3608
 4733TIP3   OH214162   4.950   3.160   3.014  0.1744  0.6355  0.0133
 4733TIP3    H114163   4.860   3.176   3.041 -0.0373  2.3789 -1.5683
 4733TIP3    H214164   4.943   3.088   2.950  0.1636 -0.4494  1.1877
 4734TIP3   OH214165   3.186   2.536   4.896  0.5955 -0.4460  0.2898
 4734TIP3    H114166   3.171   2.524   4.803  0.4725  0.4786  0.1796
 4734TIP3    H214167   3.208   2.629   4.906 -0.2764 -0.3172  1.2755
 4735TIP3   OH214168   2.595   2.913   5.004 -0.4380  0.5049  0.0123
 4735TIP3    H114169   2.514   2.881   5.043 -0.6517  1.4372  0.3322
 4735TIP3    H214170   2.626   2.981   5.063 -0.9367  2.1827 -1.5612
 4736TIP3   OH214171   3.039   5.260   3.138 -0.4984  0.0048 -0.3704
 4736TIP3    H114172   2.948   5.274   3.165 -0.7786  1.6220 -1.9783
 4736TIP3    H214173   3.034   5.203   3.062 -0.4077  1.7311 -1.7493
 4737TIP3   OH214174   4.849   0.220   0.278 -0.6519  0.0429  0.0092
 4737TIP3    H114175   4.817   0.239   0.189 -0.1052 -0.4303 -0.2933
 4737TIP3    H214176   4.934   0.263   0.282 -1.1064  0.9053  0.6555
 4738TIP3   OH214177   5.018   4.797   3.810 -0.4380  0.2610 -0.0417
 4738TIP3    H114178   4.968   4.753   3.741  0.4601  0.1262 -0.6243
 4738TIP3    H214179   5.095   4.832   3.765 -0.8689  1.9808  0.5154
 4739TIP3   OH214180   4.095   4.555   3.798  0.0269 -0.3121 -0.1608
 4739TIP3    H114181   4.069   4.465   3.821 -0.9840  0.1819  0.7274
 4739TIP3    H214182   4.023   4.609   3.829 -0.9317  0.5752 -3.5833
 4740TIP3   OH214183   1.392   6.652   4.478 -0.5162 -0.1523 -0.4479
 4740TIP3    H114184   1.475   6.661   4.524  0.0719 -0.2709 -1.4469
 4740TIP3    H214185   1.399   6.713   4.404 -1.0054 -0.7103 -0.9704
 4741TIP3   OH214186   4.656   1.694   0.244  0.4949  0.0164 -0.1573
 4741TIP3    H114187   4.668   1.754   0.170 -1.2225  1.5078  0.7059
 4741TIP3    H214188   4.596   1.627   0.211 -0.1201  0.5730 -0.1852
 4742TIP3   OH214189   2.241   5.956   1.499  0.0439 -0.0353 -0.4938
 4742TIP3    H114190   2.318   5.902   1.515 -1.5860 -1.7633  2.3006
 4742TIP3    H214191   2.238   6.018   1.572 -1.2192 -0.0050 -0.5383
 4743TIP3   OH214192   0.929   6.629   5.781  0.3795 -0.0446  0.0431
 4743TIP3    H114193   0.904   6.718   5.805 -0.3313 -0.0694 -0.5462
 4743TIP3    H214194   0.939   6.632   5.686 -0.1963 -0.7128 -0.0478
 4744TIP3   OH214195   2.347   5.701   3.375 -0.4725  0.6166 -0.9463
 4744TIP3    H114196   2.356   5.768   3.307  0.0510  0.7565 -0.7484
 4744TIP3    H214197   2.428   5.708   3.426 -0.0016 -0.7677 -1.4525
 4745TIP3   OH214198   3.410   2.109   1.806  0.2768  0.4148  0.2867
 4745TIP3    H114199   3.386   2.184   1.859  0.5784 -0.1688  1.2792
 4745TIP3    H214200   3.484   2.069   1.852  0.2354 -0.3848 -0.3056
 4746TIP3   OH214201   3.784   5.768   3.722 -0.1832  0.2519  0.1961
 4746TIP3    H114202   3.857   5.829   3.715 -0.1789  0.1379 -1.0049
 4746TIP3    H214203   3.824   5.685   3.749  0.4407 -0.2735 -2.1028
 4747TIP3   OH214204   1.218   0.012   2.996 -0.1260  0.2295 -0.5733
 4747TIP3    H114205   1.157   0.081   3.023 -0.7672 -0.8279  0.8082
 4747TIP3    H214206   1.305   0.047   3.016 -0.4607  0.5113  0.4520
 4748TIP3   OH214207   1.525   4.781   4.787  0.5272 -0.1539  0.1968
 4748TIP3    H114208   1.489   4.718   4.849  1.0818 -0.4088  0.2646
 4748TIP3    H214209   1.549   4.856   4.840  1.2594 -0.4816  0.3367
 4749TIP3   OH214210   6.374   6.377   1.496  0.0426 -0.7821 -0.3888
 4749TIP3    H114211   6.371   6.436   1.421 -0.1370 -0.4807 -0.1478
 4749TIP3    H214212   6.444   6.315   1.475  0.4266 -0.3140 -0.5178
 4750TIP3   OH214213   6.771   1.925   4.564 -0.4538  0.2723 -0.6633
 4750TIP3    H114214   6.860   1.891   4.575 -0.2213  1.1557  0.3307
 4750TIP3    H214215   6.728   1.861   4.507  0.4952 -0.7296 -0.2932
 4751TIP3   OH214216   2.709   4.047   4.566 -0.1513  0.3189  0.4947
 4751TIP3    H114217   2.728   3.954   4.576 -0.2069  0.1047 -1.0757
 4751TIP3    H214218   2.760   4.073   4.489 -1.5362  1.1407 -0.1911
 4752TIP3   OH214219   1.908   6.148   3.682  0.1045 -0.1262 -0.2253
 4752TIP3    H114220   1.991   6.180   3.645  1.1458  0.5167  2.4488
 4752TIP3    H214221   1.844   6.215   3.657  0.7928  0.3987 -0.6332
 4753TIP3   OH214222   5.940   2.487   4.290 -0.1262 -0.0970  0.4281
 4753TIP3    H114223   5.934   2.574   4.329  0.1777  0.4467 -0.6892
 4753TIP3    H214224   5.936   2.427   4.364  1.3517  0.9111  1.3662
 4754TIP3   OH214225   3.172   6.008   0.373  0.2854  0.0049 -0.6214
 4754TIP3    H114226   3.260   6.000   0.409 -0.6368 -0.8913  1.6402
 4754TIP3    H214227   3.115   6.015   0.450 -1.8230 -1.8317 -1.8889
 4755TIP3   OH214228   2.820   3.596   1.362 -0.3665  0.2905 -0.0896
 4755TIP3    H114229   2.759   3.540   1.313 -1.8603  0.0458  1.9379
 4755TIP3    H214230   2.837   3.670   1.303 -0.0088 -1.2312 -1.9868
 4756TIP3   OH214231   4.103   3.780   2.437  0.1219  0.1017 -0.3626
 4756TIP3    H114232   4.130   3.827   2.358  2.5251  0.3591  0.5280
 4756TIP3    H214233   4.137   3.833   2.509 -3.0684  0.5458  1.0077
 4757TIP3   OH214234   2.312   6.499   5.781  0.3091 -0.1449  0.0037
 4757TIP3    H114235   2.260   6.498   5.701  3.8584 -3.3146 -2.6433
 4757TIP3    H214236   2.256   6.455   5.846 -1.6249 -0.1157 -1.5385
 4758TIP3   OH214237   1.820   4.813   2.847 -0.2489 -0.2509  0.6253
 4758TIP3    H114238   1.766   4.758   2.791 -0.3175  1.0750 -0.6808
 4758TIP3    H214239   1.855   4.880   2.788  0.6132  0.5190  1.9619
 4759TIP3   OH214240   4.082   1.516   4.365  0.2235 -0.2980 -0.1021
 4759TIP3    H114241   4.115   1.590   4.417  1.7533 -0.5096 -0.7162
 4759TIP3    H214242   4.019   1.473   4.423  0.1511  0.8171  0.6957
 4760TIP3   OH214243   2.547   2.284   5.461  0.4766 -0.3305  0.1315
 4760TIP3    H114244   2.616   2.292   5.527  0.6299 -0.4542 -0.0131
 4760TIP3    H214245   2.475   2.241   5.508  0.0381  0.9056  0.6124
 4761TIP3   OH214246   7.218   0.724   2.323 -0.0693  0.0839 -0.1220
 4761TIP3    H114247   7.146   0.766   2.370  0.2096  0.2202  0.1799
 4761TIP3    H214248   7.175   0.655   2.271 -0.5758  0.9665 -0.9103
 4762TIP3   OH214249   7.069   4.095   4.804 -0.5776  0.3309  0.2963
 4762TIP3    H114250   7.084   4.123   4.895 -1.7147  3.6715 -0.4143
 4762TIP3    H214251   7.137   4.139   4.754 -1.1339  0.1082 -0.6740
 4763TIP3   OH214252   0.862   4.005   2.074 -0.3116  0.4403 -0.8409
 4763TIP3    H114253   0.830   4.037   1.990  1.4281 -0.6468 -1.9905
 4763TIP3    H214254   0.946   4.049   2.086 -0.5134  0.5358  0.3030
 4764TIP3   OH214255   1.183   4.802   1.780  0.2756 -0.4523  0.3713
 4764TIP3    H114256   1.220   4.826   1.695 -0.4470 -3.3086 -0.8807
 4764TIP3    H214257   1.258   4.789   1.837  0.7830  1.1260  0.1210
 4765TIP3   OH214258   3.287  -0.011   3.734  0.3938 -0.2798  0.6945
 4765TIP3    H114259   3.341  -0.031   3.657  0.5120 -2.8517  1.3389
 4765TIP3    H214260   3.250   0.075   3.715  1.7724 -0.0576 -1.4464
 4766TIP3   OH214261   4.866   1.454   5.685 -0.0147  0.4859 -0.3480
 4766TIP3    H114262   4.779   1.430   5.715  0.9784 -0.6714  1.8734
 4766TIP3    H214263   4.890   1.385   5.623  0.1278 -0.4460  0.7091
 4767TIP3   OH214264   4.247   2.035   2.594 -0.3657 -0.4120 -0.0493
 4767TIP3    H114265   4.312   2.071   2.533 -0.8931 -0.8539 -0.8926
 4767TIP3    H214266   4.164   2.073   2.565 -0.2548  2.2535  2.5963
 4768TIP3   OH214267   1.332   3.636   1.462 -0.1073 -0.2960  0.2944
 4768TIP3    H114268   1.359   3.702   1.525  0.5171  0.0594 -0.3348
 4768TIP3    H214269   1.281   3.573   1.514  0.3957 -0.0167  1.1482
 4769TIP3   OH214270   6.664   1.518   2.616 -0.2133 -0.1633  0.6670
 4769TIP3    H114271   6.617   1.587   2.571  0.0577 -0.2804  0.1934
 4769TIP3    H214272   6.750   1.516   2.574 -0.1254 -0.6072  0.8553
 4770TIP3   OH214273   0.403   5.064   4.292  0.5070 -0.2157 -0.5194
 4770TIP3    H114274   0.323   5.075   4.343 -0.3425 -2.5510 -1.2206
 4770TIP3    H214275   0.412   5.147   4.243 -1.1644  0.2937 -0.0217
 4771TIP3   OH214276   1.908   5.411   4.329 -0.5731  0.4470  0.0053
 4771TIP3    H114277   1.842   5.349   4.360  0.7789 -0.0107  2.1642
 4771TIP3    H214278   1.937   5.457   4.407  1.9237  0.3403 -0.7613
 4772TIP3   OH214279   2.759   4.867   2.385 -0.3805 -0.0356  0.2488
 4772TIP3    H114280   2.755   4.785   2.336  1.0550 -0.3014  0.5292
 4772TIP3    H214281   2.845   4.903   2.364 -0.8464  1.2135  0.4259
 4773TIP3   OH214282   3.741   5.241   1.062  0.1009 -0.0083 -0.4817
 4773TIP3    H114283   3.747   5.198   0.977 -0.2847 -0.5954 -0.2218
 4773TIP3    H214284   3.659   5.290   1.059 -0.6244 -1.1545  0.0416
 4774TIP3   OH214285   2.527   3.076   1.245 -0.1934 -0.1216 -0.7394
 4774TIP3    H114286   2.469   3.137   1.291  1.1860  0.5116  0.2128
 4774TIP3    H214287   2.596   3.055   1.308  0.5119 -1.0268 -1.7653
 4775TIP3   OH214288   4.346   0.514   5.072 -0.0752 -0.3598 -0.4449
 4775TIP3    H114289   4.255   0.533   5.098  0.0531 -1.4287  0.9002
 4775TIP3    H214290   4.384   0.600   5.056 -1.3552  0.1066 -1.1352
 4776TIP3   OH214291   2.436   5.062   1.201  0.0527  1.2734  0.3309
 4776TIP3    H114292   2.443   5.153   1.172  0.7541  0.6444 -1.6791
 4776TIP3    H214293   2.509   5.017   1.157 -0.1040 -0.2206  1.4936
 4777TIP3   OH214294   6.161  -0.007   2.095  0.6094 -0.1648 -0.0858
 4777TIP3    H114295   6.218  -0.063   2.042  0.5349  0.4046 -0.7713
 4777TIP3    H214296   6.180   0.082   2.066 -0.9774  0.0086 -0.6596
 4778TIP3   OH214297   3.697   5.861   2.881 -0.3671 -0.5534 -0.2515
 4778TIP3    H114298   3.654   5.886   2.963  0.4651 -0.2905  0.1105
 4778TIP3    H214299   3.624   5.836   2.823 -0.8915 -2.2509  1.0574
 4779TIP3   OH214300   6.640   2.680   5.776  0.2807  0.5402  0.0544
 4779TIP3    H114301   6.652   2.695   5.682 -2.4533  0.8941 -0.3156
 4779TIP3    H214302   6.669   2.760   5.818  0.2160  0.9185 -0.6150
 4780TIP3   OH214303   2.490   5.268   5.355 -0.0992  0.5425 -0.5853
 4780TIP3    H114304   2.582   5.294   5.352 -0.4204  1.6816 -1.0725
 4780TIP3    H214305   2.451   5.325   5.422 -0.4112 -0.1038 -0.2011
 4781TIP3   OH214306   0.061   5.440   4.324 -0.7713 -0.1702 -0.3375
 4781TIP3    H114307  -0.001   5.420   4.393 -1.2592 -1.1820 -1.0521
 4781TIP3    H214308   0.147   5.422   4.363 -1.0154 -0.3522  0.1214
 4782TIP3   OH214309   0.338   6.139   3.945  0.5337  0.2809  0.3532
 4782TIP3    H114310   0.373   6.052   3.966 -0.8094 -0.3242  0.1700
 4782TIP3    H214311   0.290   6.164   4.024  0.9769  0.9057  0.4305
 4783TIP3   OH214312   4.410   5.258   2.503  0.0464  0.3618 -0.5311
 4783TIP3    H114313   4.482   5.201   2.527 -0.9188 -0.9718 -0.6543
 4783TIP3    H214314   4.345   5.199   2.463 -1.2645  1.4276 -0.0733
 4784TIP3   OH214315   1.260   5.813   5.693 -0.0652 -0.1142  0.5900
 4784TIP3    H114316   1.198   5.883   5.713 -0.5511  0.5821 -2.7209
 4784TIP3    H214317   1.346   5.855   5.693 -0.2594  0.3064 -0.4783
 4785TIP3   OH214318   3.737   0.142   4.978  0.0447 -0.2800  0.0541
 4785TIP3    H114319   3.666   0.134   4.914 -1.4513  2.8916  1.0859
 4785TIP3    H214320   3.705   0.094   5.055 -1.0825  1.1499  0.5210
 4786TIP3   OH214321   2.731   3.343   4.712  0.1126  0.2025 -0.2257
 4786TIP3    H114322   2.704   3.263   4.668 -3.8129  1.4403 -0.4108
 4786TIP3    H214323   2.727   3.322   4.805  0.3220 -0.1219 -0.2888
 4787TIP3   OH214324   0.179   0.516   2.801 -0.5397 -0.3049  0.3817
 4787TIP3    H114325   0.097   0.558   2.776 -0.4133  0.3338  1.0261
 4787TIP3    H214326   0.185   0.440   2.743 -0.9044  0.4023 -0.6006
 4788TIP3   OH214327   3.793   5.172   5.563  0.1279 -0.2353  0.1467
 4788TIP3    H114328   3.840   5.126   5.633  0.4074 -0.4360 -0.1651
 4788TIP3    H214329   3.733   5.230   5.608  0.1297 -0.5452  0.5523
 4789TIP3   OH214330   1.972   3.658   0.783  0.3403 -0.7829  0.0783
 4789TIP3    H114331   2.048   3.601   0.790 -0.7078 -2.2176  0.1726
 4789TIP3    H214332   1.932   3.635   0.699 -1.4372 -1.9709  1.1770
 4790TIP3   OH214333   1.272   2.269   3.018  0.2223 -0.5744  0.0190
 4790TIP3    H114334   1.228   2.190   3.047  1.8824 -1.1185  1.2593
 4790TIP3    H214335   1.357   2.239   2.986  1.0516  0.6929  0.9016
 4791TIP3   OH214336   3.585   0.719   5.100 -0.7217  0.2075  0.3452
 4791TIP3    H114337   3.558   0.631   5.073 -1.2017  0.4048  0.1678
 4791TIP3    H214338   3.674   0.708   5.134  0.6348  0.2231 -2.9245
 4792TIP3   OH214339   5.438   6.373   4.581 -0.7311 -0.0149 -0.0207
 4792TIP3    H114340   5.400   6.371   4.493 -2.3259  1.0637  0.6132
 4792TIP3    H214341   5.363   6.375   4.640  0.2357  2.3000  1.2753
 4793TIP3   OH214342   0.982   4.775   1.269  0.1631  0.0818 -0.0166
 4793TIP3    H114343   1.067   4.804   1.303 -0.1468 -0.5840  1.4155
 4793TIP3    H214344   0.918   4.816   1.327 -0.4561 -0.1558 -0.5226
 4794TIP3   OH214345   5.927   1.109   4.445  0.5992 -0.7260 -0.0845
 4794TIP3    H114346   5.854   1.086   4.503  0.0945  0.3586 -0.2611
 4794TIP3    H214347   5.887   1.119   4.359  0.9831 -0.2790 -0.2150
 4795TIP3   OH214348   3.011   5.079   1.539 -0.5442 -0.0744  0.3200
 4795TIP3    H114349   3.033   5.112   1.451 -0.1355  1.6216  1.0168
 4795TIP3    H214350   2.989   4.987   1.525 -1.0402  0.2865 -1.6503
 4796TIP3   OH214351   0.786   4.474   5.295 -0.2143  1.1591 -0.8500
 4796TIP3    H114352   0.739   4.532   5.355 -1.0271 -0.9418  0.6848
 4796TIP3    H214353   0.821   4.405   5.351 -3.2025 -2.3793 -2.8971
 4797TIP3   OH214354   1.556   6.598   5.114 -0.1980  0.2703 -0.1244
 4797TIP3    H114355   1.630   6.559   5.160 -0.2017  0.6394  0.1927
 4797TIP3    H214356   1.567   6.568   5.023  1.0601  1.3299 -0.3654
 4798TIP3   OH214357   2.395   5.968   0.524 -0.1940 -0.1812  0.1792
 4798TIP3    H114358   2.402   5.941   0.615  0.0543 -3.5116 -0.7097
 4798TIP3    H214359   2.437   6.054   0.521 -0.4000  0.1242  3.1971
 4799TIP3   OH214360   1.053   3.600   4.824  0.0448 -0.5166 -0.0183
 4799TIP3    H114361   1.143   3.576   4.802 -0.0963  0.3532 -1.7361
 4799TIP3    H214362   1.060   3.658   4.899  1.2357  1.9289 -1.8827
 4800TIP3   OH214363   1.846   5.462   5.024 -0.2361 -0.3388  0.2177
 4800TIP3    H114364   1.810   5.518   5.093 -0.9768 -2.6717  1.8678
 4800TIP3    H214365   1.925   5.424   5.063  0.5356 -0.1039 -1.0524
 4801TIP3   OH214366   1.486   0.783   0.200  0.7744 -0.2406 -0.4993
 4801TIP3    H114367   1.455   0.851   0.260  1.2068 -0.7117  0.2697
 4801TIP3    H214368   1.501   0.829   0.118 -1.2989  0.1500 -0.7233
 4802TIP3   OH214369   0.128   6.490   5.290 -0.1241  0.0457  0.1100
 4802TIP3    H114370   0.174   6.408   5.309  1.6031  0.6440 -1.2021
 4802TIP3    H214371   0.036   6.470   5.307  0.2066 -2.2225 -0.3969
 4803TIP3   OH214372   3.003   1.870   4.789 -0.0394  0.0281  0.2362
 4803TIP3    H114373   3.061   1.903   4.858  0.1716  1.9051 -0.7982
 4803TIP3    H214374   3.055   1.805   4.743  0.7880  0.7320  0.1591
 4804TIP3   OH214375   2.078   5.937   2.057  0.1961  0.1692  0.1165
 4804TIP3    H114376   1.996   5.942   2.007 -0.3487 -0.1330  0.9643
 4804TIP3    H214377   2.106   6.028   2.064  0.1191  0.2439 -0.4781
 4805TIP3   OH214378   4.056   0.104   1.096 -0.1751  0.2077  0.2933
 4805TIP3    H114379   4.122   0.053   1.048 -0.2384  0.4950 -0.1003
 4805TIP3    H214380   4.043   0.055   1.177 -1.1005 -1.0477 -0.5804
 4806TIP3   OH214381   1.496   5.462   5.211  0.4448  0.0831 -0.1290
 4806TIP3    H114382   1.500   5.513   5.292  0.6490  1.6113 -1.0764
 4806TIP3    H214383   1.541   5.516   5.146 -2.3026  0.2885 -2.0171
 4807TIP3   OH214384   1.277   3.374   3.065  0.0984  0.3140 -0.6516
 4807TIP3    H114385   1.234   3.455   3.037 -1.4031 -0.5093 -0.8300
 4807TIP3    H214386   1.206   3.309   3.068  0.8860 -0.5386  1.4022
 4808TIP3   OH214387   3.946   2.672   5.191 -0.2200 -0.2452  0.0569
 4808TIP3    H114388   3.954   2.622   5.110 -0.4439 -0.7426  0.3412
 4808TIP3    H214389   4.032   2.667   5.232 -0.0001  0.3063 -0.3146
 4809TIP3   OH214390   6.725   4.570   1.942  0.1157 -0.4134  0.1607
 4809TIP3    H114391   6.687   4.542   2.025  0.7807  0.5442  0.7990
 4809TIP3    H214392   6.730   4.490   1.890 -0.7675 -0.9320  0.8565
 4810TIP3   OH214393   2.897   1.188   5.617 -0.0041  0.1202 -0.5062
 4810TIP3    H114394   2.899   1.230   5.703  0.5418  0.3191 -0.6087
 4810TIP3    H214395   2.887   1.260   5.556  1.9226  0.2344 -0.7466
 4811TIP3   OH214396   6.674   4.108   5.844 -0.1875  0.5284 -0.3996
 4811TIP3    H114397   6.668   4.038   5.910 -1.5198  0.3650 -0.6618
 4811TIP3    H214398   6.627   4.182   5.884 -0.8225  0.4951 -1.0580
 4812TIP3   OH214399   6.085   5.707   5.815 -0.0085  0.4128 -0.2172
 4812TIP3    H114400   6.131   5.755   5.884 -1.0922 -0.6281  1.3067
 4812TIP3    H214401   6.122   5.618   5.820 -1.7843 -0.3229  0.7377
 4813TIP3   OH214402   3.531   6.488   1.396 -0.6536  0.1753  0.0176
 4813TIP3    H114403   3.617   6.460   1.427 -1.0204 -1.1047 -0.0551
 4813TIP3    H214404   3.475   6.482   1.474 -0.4662  2.1383  0.3638
 4814TIP3   OH214405   0.410   5.651   2.524  0.3847  0.0146 -0.3945
 4814TIP3    H114406   0.494   5.606   2.515 -0.4350 -1.1867 -3.0636
 4814TIP3    H214407   0.423   5.735   2.480  0.4204  0.2147 -0.0099
 4815TIP3   OH214408   0.725   3.836   1.623 -0.4820 -0.3093  0.7413
 4815TIP3    H114409   0.738   3.768   1.557 -0.3661  1.1374 -0.7852
 4815TIP3    H214410   0.739   3.919   1.577 -4.0072  0.9836  1.5978
 4816TIP3   OH214411   5.563   1.318   0.528 -0.0586 -0.5859  0.1774
 4816TIP3    H114412   5.522   1.284   0.449 -0.4914 -3.5185  1.5471
 4816TIP3    H214413   5.498   1.378   0.565 -0.1017  0.3251 -1.2865
 4817TIP3   OH214414   4.743   4.194   0.763  0.1209  0.8231 -0.3685
 4817TIP3    H114415   4.817   4.246   0.731  0.3673  0.7133  0.0114
 4817TIP3    H214416   4.764   4.178   0.855 -1.2566  2.3356  0.2547
 4818TIP3   OH214417   6.499   2.413   3.017  0.3727  0.1807 -0.5474
 4818TIP3    H114418   6.426   2.377   2.966  0.0823  0.0695 -0.0622
 4818TIP3    H214419   6.470   2.501   3.042  1.1568  0.8543 -1.8877
 4819TIP3   OH214420   5.702   0.407   3.872  0.4215  0.1734 -0.4177
 4819TIP3    H114421   5.684   0.456   3.953 -0.2359  0.4318 -0.7114
 4819TIP3    H214422   5.755   0.333   3.900  1.2585  0.9299  0.0735
 4820TIP3   OH214423   0.947   1.238   2.393 -0.5487 -0.1564  0.3443
 4820TIP3    H114424   0.853   1.242   2.411 -0.7248  1.2540 -0.6590
 4820TIP3    H214425   0.986   1.296   2.460 -0.7352  1.5331 -0.9408
 4821TIP3   OH214426   4.502   2.995   5.178 -0.3369  0.1278 -0.5030
 4821TIP3    H114427   4.466   2.917   5.221  1.1388 -1.0104 -1.2261
 4821TIP3    H214428   4.428   3.055   5.171 -1.4598 -1.1008  0.3238
 4822TIP3   OH214429   3.469   4.590   5.108  0.1298  0.0164  0.5257
 4822TIP3    H114430   3.512   4.508   5.083 -1.1930 -1.1307  1.8128
 4822TIP3    H214431   3.538   4.641   5.150  1.2662  0.1194 -1.3374
 4823TIP3   OH214432   7.112   0.411   2.486  0.0392  0.5578  0.3331
 4823TIP3    H114433   7.086   0.324   2.516  0.2766  0.5289  0.4634
 4823TIP3    H214434   7.208   0.411   2.495 -0.0462  1.2342  1.4193
 4824TIP3   OH214435   2.639   4.705   4.716 -0.4462  0.0309 -0.5122
 4824TIP3    H114436   2.624   4.783   4.769 -0.8593 -0.1473 -0.3622
 4824TIP3    H214437   2.579   4.640   4.751  0.1892 -0.4880 -0.3684
 4825TIP3   OH214438   0.499   3.915   1.383 -0.0343 -0.1179  0.0248
 4825TIP3    H114439   0.445   3.836   1.379 -1.3472  0.7872 -2.2601
 4825TIP3    H214440   0.465   3.963   1.459  0.6704 -1.6013  1.3411
 4826TIP3   OH214441   3.788   1.168   0.230  0.0671  0.0212  0.5242
 4826TIP3    H114442   3.804   1.187   0.323  0.2880  0.8228  0.3388
 4826TIP3    H214443   3.700   1.201   0.213 -0.0839 -0.3877  0.5186
 4827TIP3   OH214444   7.139   0.456   1.041 -0.0974 -0.6969  0.3583
 4827TIP3    H114445   7.151   0.545   1.009  0.9391 -0.3854  1.5338
 4827TIP3    H214446   7.215   0.408   1.007 -0.8760 -1.2706 -0.6415
 4828TIP3   OH214447   0.406   4.202   1.329 -0.7627  0.0753  0.1893
 4828TIP3    H114448   0.405   4.134   1.262 -1.0622 -0.5018  0.7608
 4828TIP3    H214449   0.438   4.280   1.284 -0.3287 -0.4623 -0.4650
 4829TIP3   OH214450   0.844   1.192   1.356 -0.6542  0.0716  0.5005
 4829TIP3    H114451   0.929   1.235   1.354  0.1750 -1.4830  0.7616
 4829TIP3    H214452   0.853   1.117   1.297 -2.6771  1.2522 -1.4893
 4830TIP3   OH214453   4.286   2.400   0.888 -0.1570  0.1962  0.1853
 4830TIP3    H114454   4.295   2.362   0.801  0.7748 -1.5625  0.9890
 4830TIP3    H214455   4.374   2.428   0.911 -0.0773 -0.7191  1.1087
 4831TIP3   OH214456   2.780   5.345   5.358  0.2845 -0.1411 -0.4613
 4831TIP3    H114457   2.781   5.326   5.451 -0.1917 -0.5221 -0.5246
 4831TIP3    H214458   2.822   5.431   5.349  0.4664 -0.1739  0.0813
 4832TIP3   OH214459   2.941   3.162   0.467  0.2538 -0.2962 -0.2521
 4832TIP3    H114460   2.899   3.115   0.395  2.2538 -1.7529 -0.5517
 4832TIP3    H214461   2.974   3.242   0.428 -1.5464  0.5395 -0.1588
 4833TIP3   OH214462   4.126   0.178   1.512  0.4204 -0.1182  0.1170
 4833TIP3    H114463   4.129   0.120   1.435 -0.5518 -0.4950  0.3485
 4833TIP3    H214464   4.063   0.246   1.488  2.0097  1.2616 -0.4014
 4834TIP3   OH214465   3.873   1.904   1.246 -0.7852 -0.9894 -0.3481
 4834TIP3    H114466   3.871   1.971   1.315  0.2378 -1.5612  0.2771
 4834TIP3    H214467   3.789   1.912   1.202 -0.2824  1.4734 -1.0364
 4835TIP3   OH214468   4.154   1.232   0.729  0.3217  0.0342  0.1660
 4835TIP3    H114469   4.077   1.286   0.745  0.3208  0.4853 -1.2585
 4835TIP3    H214470   4.210   1.285   0.673  0.1480 -1.5507 -1.6005
 4836TIP3   OH214471   3.860   0.848   3.189  0.3323  0.2505 -0.7119
 4836TIP3    H114472   3.776   0.805   3.207 -0.3450  1.6815 -0.2554
 4836TIP3    H214473   3.895   0.868   3.276  0.2697  1.2535 -0.9074
 4837TIP3   OH214474   2.896   4.250   2.218  0.4814 -0.1316 -0.6077
 4837TIP3    H114475   2.984   4.261   2.181  0.3541  0.0694 -0.8545
 4837TIP3    H214476   2.838   4.286   2.152  0.1730 -0.7196 -0.6689
 4838TIP3   OH214477   5.702   5.378   0.673 -0.3064  0.2038  0.1885
 4838TIP3    H114478   5.646   5.415   0.742 -1.1363 -0.0688 -0.3261
 4838TIP3    H214479   5.740   5.300   0.713 -0.9542 -0.0749  0.2729
 4839TIP3   OH214480   5.737   3.456   3.348  0.0233  0.4041 -0.3840
 4839TIP3    H114481   5.675   3.422   3.283  0.7910 -1.2176 -0.3092
 4839TIP3    H214482   5.681   3.487   3.420 -0.7338 -0.2166 -0.6932
 4840TIP3   OH214483   5.731   3.103   1.645 -0.1158  0.0649 -0.2737
 4840TIP3    H114484   5.721   3.037   1.714 -0.6619  1.9181  1.5372
 4840TIP3    H214485   5.764   3.054   1.570  0.3753 -2.1002  1.2393
 4841TIP3   OH214486   0.261   4.345   0.987 -0.1728  0.6059 -0.0645
 4841TIP3    H114487   0.331   4.354   1.052  1.2309 -1.1776 -1.2504
 4841TIP3    H214488   0.302   4.369   0.904  0.1580 -3.5735 -1.3398
 4842TIP3   OH214489   7.082   5.098   0.804  0.2652 -0.5452  0.2867
 4842TIP3    H114490   7.098   5.079   0.897  1.0853 -0.0306  0.2602
 4842TIP3    H214491   7.021   5.030   0.776  0.4065 -1.0124  1.0790
 4843TIP3   OH214492   2.288   2.205   3.553 -0.1676 -0.2215 -0.1348
 4843TIP3    H114493   2.260   2.115   3.570 -1.4846  0.5377  2.2288
 4843TIP3    H214494   2.342   2.227   3.629 -1.3706  1.5144  0.2707
 4844TIP3   OH214495   3.681   3.615   1.772 -0.0994  0.0020 -0.1272
 4844TIP3    H114496   3.743   3.549   1.741  0.5823  1.1121 -1.1771
 4844TIP3    H214497   3.601   3.599   1.723 -0.0027 -0.1667 -0.2285
 4845TIP3   OH214498   0.320   2.806   2.716  0.0739 -0.5184  0.5023
 4845TIP3    H114499   0.308   2.821   2.623  0.5647 -1.0654  0.3430
 4845TIP3    H214500   0.233   2.822   2.754  0.5190  2.6572  0.3953
 4846TIP3   OH214501   4.848   3.036   4.727  0.0583  0.2915 -0.0614
 4846TIP3    H114502   4.849   3.006   4.636 -0.4890 -1.2343  0.4018
 4846TIP3    H214503   4.763   3.077   4.738 -1.1100 -2.1321  0.5090
 4847TIP3   OH214504   2.602   2.057   5.215  0.1393 -0.6764  0.1161
 4847TIP3    H114505   2.691   2.023   5.207 -0.1567 -1.1526 -1.4092
 4847TIP3    H214506   2.553   2.012   5.147 -1.1995 -0.1530  0.7035
 4848TIP3   OH214507   1.752   2.167   5.339  0.3702 -0.2239  0.2865
 4848TIP3    H114508   1.814   2.106   5.300  1.9407  2.3281 -1.5418
 4848TIP3    H214509   1.804   2.220   5.399 -0.2441  1.1174 -0.3059
 4849TIP3   OH214510   5.024   5.074   3.955  0.0957 -0.4225  0.0105
 4849TIP3    H114511   5.019   5.167   3.933 -1.7453 -0.1383  1.3659
 4849TIP3    H214512   4.933   5.047   3.966  0.6818 -1.7875  2.0196
 4850TIP3   OH214513   4.863   4.000   3.261 -0.4611 -0.5275  0.3461
 4850TIP3    H114514   4.786   4.053   3.241  1.4755  2.5690  0.4551
 4850TIP3    H214515   4.899   4.038   3.341  2.8650  0.3039 -1.3645
 4851TIP3   OH214516   6.685   2.146   0.195  0.1961 -0.5410  0.3949
 4851TIP3    H114517   6.773   2.177   0.215 -0.3838  1.5644 -0.0888
 4851TIP3    H214518   6.637   2.225   0.171 -1.5358 -1.7877 -0.4211
 4852TIP3   OH214519   2.615   4.780   5.770 -0.0502  0.3095  0.5083
 4852TIP3    H114520   2.582   4.803   5.857 -0.5856  1.3099  0.0501
 4852TIP3    H214521   2.557   4.825   5.709 -0.9929 -2.0022 -0.4584
 4853TIP3   OH214522   0.823   5.450   2.116 -1.0955 -0.5987 -0.0395
 4853TIP3    H114523   0.731   5.452   2.142 -0.7873 -1.5248  1.2273
 4853TIP3    H214524   0.853   5.362   2.138 -0.5239 -1.1739 -2.7735
 4854TIP3   OH214525   4.356   4.252   2.218  0.0197 -0.3724 -0.3567
 4854TIP3    H114526   4.387   4.331   2.174 -0.1273 -1.0417 -1.6974
 4854TIP3    H214527   4.295   4.212   2.157 -0.0623 -1.4292  0.3803
 4855TIP3   OH214528   2.705   3.196   1.792 -0.1047 -0.6118 -0.0257
 4855TIP3    H114529   2.733   3.278   1.752 -2.5290  0.3221  0.0316
 4855TIP3    H214530   2.775   3.176   1.855  0.1889  1.8410  0.5504
 4856TIP3   OH214531   4.678   0.156   4.113 -0.4454  0.0316 -0.0648
 4856TIP3    H114532   4.606   0.097   4.093  0.2933 -1.3952  1.2311
 4856TIP3    H214533   4.699   0.139   4.205  1.5341  0.3716 -0.3907
 4857TIP3   OH214534   1.067   1.009   0.876  0.3823  0.1638 -0.0160
 4857TIP3    H114535   1.007   1.080   0.856 -1.0784 -1.1833 -0.6449
 4857TIP3    H214536   1.084   1.017   0.970  1.1994  1.9963 -0.2858
 4858TIP3   OH214537   2.588   3.126   3.410 -0.3335  0.0542  0.1833
 4858TIP3    H114538   2.567   3.072   3.334  0.4251  0.8260 -0.6011
 4858TIP3    H214539   2.671   3.091   3.443  0.2650  0.8334 -0.4503
 4859TIP3   OH214540   6.044   1.109   2.112  0.4169 -0.5579 -0.0809
 4859TIP3    H114541   5.974   1.167   2.081 -0.0243 -1.4104 -0.7217
 4859TIP3    H214542   6.124   1.150   2.079 -0.0420 -1.5253 -2.6503
 4860TIP3   OH214543   4.945   0.022   0.652 -0.0656 -0.9482  0.3543
 4860TIP3    H114544   4.987  -0.063   0.638  1.6506 -0.3047  1.3404
 4860TIP3    H214545   5.006   0.086   0.616 -1.5925 -0.1295 -0.8916
 4861TIP3   OH214546   5.987   3.901   3.428 -0.2556  0.0436  0.1383
 4861TIP3    H114547   6.032   3.886   3.345  0.4301  0.1395  0.4829
 4861TIP3    H214548   6.038   3.970   3.471 -0.6402  0.0416  0.6099
 4862TIP3   OH214549   7.124   5.517   3.345 -0.0270  0.5049  0.1380
 4862TIP3    H114550   7.075   5.464   3.282 -0.0514  2.7718 -1.9188
 4862TIP3    H214551   7.060   5.537   3.413 -1.2523  1.2117 -1.1477
 4863TIP3   OH214552   0.744   5.131   3.811  0.1820  0.5475  0.3878
 4863TIP3    H114553   0.787   5.081   3.880  2.9774  0.9067 -0.9801
 4863TIP3    H214554   0.723   5.066   3.744  0.4775  0.6739  0.1711
 4864TIP3   OH214555   5.793   0.101   2.161  0.4717 -0.1227 -0.6469
 4864TIP3    H114556   5.804   0.012   2.194 -0.3055 -0.0990 -0.2992
 4864TIP3    H214557   5.766   0.152   2.238  2.1794  0.7075 -0.5341
 4865TIP3   OH214558   4.763   3.329   4.009 -0.2359  0.4394  0.3361
 4865TIP3    H114559   4.732   3.255   3.957 -1.8061  0.3363  1.3732
 4865TIP3    H214560   4.755   3.405   3.951 -0.4740  0.0943 -0.0859
 4866TIP3   OH214561   2.478   3.720   5.635  0.1087 -0.2538 -0.1683
 4866TIP3    H114562   2.535   3.755   5.566  0.6090 -0.1050  0.3124
 4866TIP3    H214563   2.389   3.732   5.601  0.3629 -0.8165 -1.0854
 4867TIP3   OH214564   3.525   0.306   0.635 -0.0163  0.1905  0.0515
 4867TIP3    H114565   3.519   0.332   0.543  0.6692 -0.8989 -0.3239
 4867TIP3    H214566   3.464   0.363   0.680 -1.2492 -0.0445 -1.2589
 4868TIP3   OH214567   3.302   4.337   3.323 -0.6747 -0.4141 -1.3423
 4868TIP3    H114568   3.308   4.432   3.312  0.3027 -0.3591 -0.5267
 4868TIP3    H214569   3.213   4.322   3.355 -0.5050  0.3510 -0.4793
 4869TIP3   OH214570   4.217   4.197   2.515  0.4207 -0.2180 -0.3832
 4869TIP3    H114571   4.254   4.237   2.437  0.0519 -0.8999 -0.9162
 4869TIP3    H214572   4.137   4.246   2.532  0.9538  0.5031  0.0921
 4870TIP3   OH214573   0.435   2.788   4.618 -1.0402 -0.2108 -0.0998
 4870TIP3    H114574   0.493   2.738   4.560 -0.6158  1.6312 -1.3557
 4870TIP3    H214575   0.421   2.731   4.693  3.2379 -0.4050  0.7740
 4871TIP3   OH214576   0.279   3.030   0.446 -0.1184 -0.2031  0.1712
 4871TIP3    H114577   0.281   2.994   0.535  1.7239 -0.6166  0.0022
 4871TIP3    H214578   0.293   2.954   0.390  2.0810  0.4729 -0.2766
 4872TIP3   OH214579   0.618   4.810   4.656  0.0300 -0.2701 -0.3902
 4872TIP3    H114580   0.555   4.865   4.702  0.8633 -0.2416  0.7849
 4872TIP3    H214581   0.600   4.825   4.563 -2.4410 -1.1691 -0.1220
 4873TIP3   OH214582   5.173   0.502   3.033 -0.7473 -0.2627  0.2939
 4873TIP3    H114583   5.163   0.560   2.958  2.2143 -1.5631 -1.3138
 4873TIP3    H214584   5.224   0.553   3.097  0.4473 -0.5042 -0.4368
 4874TIP3   OH214585   3.912   0.572   3.061  0.0388 -0.2423 -0.1617
 4874TIP3    H114586   3.938   0.663   3.071  0.9217 -0.3733 -1.0727
 4874TIP3    H214587   3.916   0.556   2.966 -0.9690 -0.9812 -0.0983
 4875TIP3   OH214588   2.370   5.460   3.593  0.2062 -0.2238 -0.1129
 4875TIP3    H114589   2.335   5.378   3.628 -1.1526  0.2290 -0.3515
 4875TIP3    H214590   2.399   5.439   3.505  1.2862 -0.7801  0.3506
 4876TIP3   OH214591   5.980   2.227   5.804  0.0153  0.7377  0.2090
 4876TIP3    H114592   5.966   2.315   5.838 -0.1331  0.7642  0.0836
 4876TIP3    H214593   6.030   2.182   5.872  1.3811  1.3539 -0.3426
 4877TIP3   OH214594   1.962   2.981   3.052  0.1135  0.4874 -0.0767
 4877TIP3    H114595   1.889   2.935   3.011 -0.1098  1.1789 -0.4664
 4877TIP3    H214596   1.986   2.926   3.126  1.1994 -1.3578 -1.6843
 4878TIP3   OH214597   1.324   5.931   4.561 -0.0355 -0.5239  0.3535
 4878TIP3    H114598   1.288   5.844   4.581  0.0803 -0.0925  2.6623
 4878TIP3    H214599   1.404   5.936   4.612  0.9463  0.2810 -1.1930
 4879TIP3   OH214600   3.099   5.087   1.275 -0.3150  0.2530  0.0819
 4879TIP3    H114601   3.063   5.084   1.186 -0.9548 -0.1339  0.3497
 4879TIP3    H214602   3.192   5.103   1.262 -0.4617  0.5937 -0.6472
 4880TIP3   OH214603   2.665   3.859   5.888 -0.4139 -0.4383  0.9445
 4880TIP3    H114604   2.760   3.863   5.881 -0.4406 -0.4612  0.5836
 4880TIP3    H214605   2.643   3.768   5.868 -0.6638 -0.0148 -0.8175
 4881TIP3   OH214606   4.767   5.083   3.704 -0.3179 -0.2769 -0.0230
 4881TIP3    H114607   4.723   5.146   3.761 -2.2052  0.5914 -2.2491
 4881TIP3    H214608   4.745   4.998   3.741  1.0121  0.2619  2.1781
 4882TIP3   OH214609   4.731   5.948   3.206  0.1049 -0.5830 -0.0882
 4882TIP3    H114610   4.659   6.006   3.183  0.2878 -0.1752  0.3460
 4882TIP3    H214611   4.789   5.949   3.130  0.4115  0.2855  0.1538
 4883TIP3   OH214612   3.482   5.047   4.454 -0.0868  0.0204 -0.1874
 4883TIP3    H114613   3.493   5.087   4.368 -1.3712 -1.3312 -1.0363
 4883TIP3    H214614   3.444   4.961   4.435 -1.5396  0.1734  1.7981
 4884TIP3   OH214615   2.796   2.706   2.778  0.7930  0.2554  0.4748
 4884TIP3    H114616   2.709   2.728   2.745  0.0768 -1.2496  1.2762
 4884TIP3    H214617   2.856   2.752   2.720 -0.5292  1.4024 -0.0388
 4885TIP3   OH214618   6.420   1.532   5.866 -0.4406 -0.2355 -0.2618
 4885TIP3    H114619   6.471   1.586   5.807 -0.3343 -1.4845 -1.3686
 4885TIP3    H214620   6.449   1.557   5.954  2.5162 -1.2717 -0.8437
 4886TIP3   OH214621   6.434   1.911   2.888 -0.4385 -0.1050 -0.2103
 4886TIP3    H114622   6.452   1.945   2.976  2.0996  1.6260 -1.2720
 4886TIP3    H214623   6.461   1.820   2.892 -0.9933 -0.2368  0.9665
 4887TIP3   OH214624   3.146   3.758   4.436  0.0590  0.0681  0.5271
 4887TIP3    H114625   3.064   3.710   4.448 -1.6954  2.6288 -0.2893
 4887TIP3    H214626   3.149   3.820   4.509  0.1529  1.3703 -0.5314
 4888TIP3   OH214627   1.919   4.371   4.387  0.5288 -0.0649 -0.1340
 4888TIP3    H114628   1.828   4.369   4.359  0.7327  1.6135 -1.0716
 4888TIP3    H214629   1.915   4.361   4.482 -0.5185 -1.3238 -0.2966
 4889TIP3   OH214630   3.394   3.520   5.427 -0.0922  0.7014 -0.7490
 4889TIP3    H114631   3.377   3.599   5.375 -1.2313  0.3384 -0.9633
 4889TIP3    H214632   3.308   3.480   5.439  0.3552 -0.0480  0.1134
 4890TIP3   OH214633   4.537   4.318   0.884 -0.0576  0.5353 -0.4293
 4890TIP3    H114634   4.607   4.279   0.832 -1.3218 -0.9162 -1.1330
 4890TIP3    H214635   4.458   4.304   0.833 -1.1611  0.2585  1.2623
 4891TIP3   OH214636   3.100   4.911   3.424 -0.3984 -0.6728  0.3774
 4891TIP3    H114637   3.162   4.911   3.497 -1.1051  1.3219  1.0329
 4891TIP3    H214638   3.039   4.840   3.444  1.5565 -2.6716 -0.2642
 4892TIP3   OH214639   3.785   6.375   1.154 -0.0816  0.0455  0.7113
 4892TIP3    H114640   3.825   6.427   1.084 -0.3979  0.3316  0.7448
 4892TIP3    H214641   3.695   6.362   1.126  0.2129 -1.2192  0.2830
 4893TIP3   OH214642   5.094   0.199   3.959  0.1917  0.4876 -0.3819
 4893TIP3    H114643   5.049   0.155   3.886 -0.7149  0.5828  0.0986
 4893TIP3    H214644   5.024   0.247   4.004  0.7063  0.2647  0.6685
 4894TIP3   OH214645   2.950   4.574   4.274  0.0520  0.2704  0.1333
 4894TIP3    H114646   2.865   4.590   4.316 -1.0211  0.0433 -1.8576
 4894TIP3    H214647   2.967   4.481   4.289 -0.7510 -0.0126 -0.6700
 4895TIP3   OH214648   0.903   2.934   4.410  0.3817 -0.1361  0.6013
 4895TIP3    H114649   0.887   2.990   4.486  1.3221 -0.9216  1.4026
 4895TIP3    H214650   0.998   2.926   4.405  0.4156  0.8203 -1.3642
 4896TIP3   OH214651   2.266   5.337   1.563 -0.0445 -0.7376 -0.8131
 4896TIP3    H114652   2.222   5.422   1.568 -0.6301 -0.9918 -1.6767
 4896TIP3    H214653   2.230   5.294   1.486  0.6534 -1.5535 -0.7081
 4897TIP3   OH214654   2.448   3.604   0.702  0.6209  0.4332  0.2634
 4897TIP3    H114655   2.537   3.628   0.678  0.7912 -0.4725 -0.0634
 4897TIP3    H214656   2.444   3.618   0.797  0.4377  2.5016 -0.0181
 4898TIP3   OH214657   5.078   2.852   4.858 -0.7482  0.2022 -0.0012
 4898TIP3    H114658   5.129   2.922   4.816 -0.4974 -0.5790 -1.0583
 4898TIP3    H214659   4.987   2.872   4.836 -0.5034 -1.4658 -3.1236
 4899TIP3   OH214660   6.772   5.559   4.896  0.2405  0.0151 -0.0827
 4899TIP3    H114661   6.849   5.557   4.839 -0.1165 -2.4096 -0.5986
 4899TIP3    H214662   6.741   5.469   4.897 -0.3866  0.1291  3.1459
 4900TIP3   OH214663   7.129   1.894   0.185  0.1977  0.0652 -0.4231
 4900TIP3    H114664   7.144   1.805   0.218 -1.2128 -1.3069 -3.1571
 4900TIP3    H214665   7.059   1.928   0.241  2.0988  0.3432  1.9553
 4901TIP3   OH214666   5.180   5.352   1.371 -0.5859  0.2660  0.5985
 4901TIP3    H114667   5.146   5.430   1.415 -0.5228  1.1670 -0.8660
 4901TIP3    H214668   5.275   5.366   1.369 -0.6004  0.3106  0.0706
 4902TIP3   OH214669   4.751   0.024   4.349 -0.0988 -0.0333 -0.1429
 4902TIP3    H114670   4.695   0.054   4.421  1.8025  1.7981  0.6904
 4902TIP3    H214671   4.825  -0.019   4.393  2.7958  3.9344 -0.5336
 4903TIP3   OH214672   5.613   2.290   3.762 -0.0394 -0.3973  0.6731
 4903TIP3    H114673   5.663   2.359   3.718  0.5388 -1.0550  0.2654
 4903TIP3    H214674   5.546   2.337   3.812  0.3454  0.4559  0.4178
 4904TIP3   OH214675   5.962   0.556   3.183  0.2274 -0.9109 -0.2885
 4904TIP3    H114676   6.015   0.563   3.103  0.8228  1.0893  0.2444
 4904TIP3    H214677   5.896   0.625   3.174 -0.7696 -1.7754  0.2034
 4905TIP3   OH214678   2.108   0.838   4.479  0.8032 -0.6930  0.6921
 4905TIP3    H114679   2.066   0.836   4.566  2.1921  1.1210  1.4707
 4905TIP3    H214680   2.066   0.911   4.434  1.1988 -0.6113  0.4513
 4906TIP3   OH214681   0.980   6.529   3.904 -0.2895  0.0589 -0.1459
 4906TIP3    H114682   0.930   6.602   3.867 -2.8284 -0.4296  2.0016
 4906TIP3    H214683   0.944   6.451   3.862 -0.2282 -0.2015  0.2820
 4907TIP3   OH214684   1.074   3.912   1.387 -0.8015 -0.1653  0.2592
 4907TIP3    H114685   1.046   4.000   1.412 -2.4322  0.0961 -2.1777
 4907TIP3    H214686   0.995   3.858   1.397 -0.2138 -1.0420  0.2877
 4908TIP3   OH214687   5.434   5.541   4.744 -0.2203  0.0666  0.0654
 4908TIP3    H114688   5.361   5.483   4.722 -0.8705  0.2231  1.6770
 4908TIP3    H214689   5.392   5.620   4.780  0.7348  0.0448  1.2686
 4909TIP3   OH214690   0.688   1.952   5.293  0.0496  0.7107  0.4830
 4909TIP3    H114691   0.748   1.972   5.222 -1.0731  1.4298 -0.2974
 4909TIP3    H214692   0.636   1.878   5.260  0.9737 -0.4138  1.4498
 4910TIP3   OH214693   3.017   0.887   3.918  0.9690 -0.0733  0.7537
 4910TIP3    H114694   3.054   0.862   4.002  1.8786  0.2277  0.4552
 4910TIP3    H214695   2.939   0.938   3.940  1.4669  0.4160  1.4341
 4911TIP3   OH214696   2.174   6.181   4.165 -0.3059  0.2900  0.5155
 4911TIP3    H114697   2.194   6.158   4.074 -0.4417 -1.4373  0.9036
 4911TIP3    H214698   2.109   6.251   4.158 -1.4439 -0.8290 -0.7402
 4912TIP3   OH214699   3.588   0.767   3.207  0.0425 -0.3084  0.2752
 4912TIP3    H114700   3.568   0.754   3.114  0.2840 -1.4104  0.3685
 4912TIP3    H214701   3.604   0.679   3.241 -0.7897  0.0020  1.5368
 4913TIP3   OH214702   5.921   5.190   5.038 -0.1092  0.5671 -0.2295
 4913TIP3    H114703   5.953   5.217   4.952  2.0299 -1.1544 -0.0595
 4913TIP3    H214704   5.835   5.151   5.021  0.5936 -0.4154 -1.7262
 4914TIP3   OH214705   4.474   6.340   1.621  0.6014  0.4037 -0.4865
 4914TIP3    H114706   4.471   6.434   1.640 -0.9239 -0.0041  1.6420
 4914TIP3    H214707   4.383   6.316   1.603  1.0304 -0.6253 -1.3949
 4915TIP3   OH214708   5.479   1.642   1.477 -0.0515  0.1490 -0.3177
 4915TIP3    H114709   5.384   1.639   1.493  0.0266  1.8930  0.8244
 4915TIP3    H214710   5.487   1.638   1.382 -1.3565  0.8696 -0.4947
 4916TIP3   OH214711   2.522   2.855   0.170  0.4909  0.0982  0.0207
 4916TIP3    H114712   2.455   2.805   0.217  0.9689 -1.5213 -0.9621
 4916TIP3    H214713   2.605   2.829   0.211  0.8041 -0.4443 -0.9247
 4917TIP3   OH214714   5.463   0.430   5.607  0.4232  0.1951  0.9612
 4917TIP3    H114715   5.473   0.406   5.515 -1.4510 -0.6653  0.9453
 4917TIP3    H214716   5.533   0.494   5.622  0.5394  0.6459 -1.1447
 4918TIP3   OH214717   3.304   1.233   4.995  0.2537 -0.2435 -0.1995
 4918TIP3    H114718   3.223   1.283   5.003  0.5055 -0.0229  1.3860
 4918TIP3    H214719   3.362   1.271   5.061  2.0803  0.3533 -2.0635
 4919TIP3   OH214720   1.465   1.142   4.198 -0.2766 -0.2331 -0.2034
 4919TIP3    H114721   1.483   1.048   4.187 -0.5198 -0.0685 -2.4163
 4919TIP3    H214722   1.451   1.174   4.109  2.5298  2.4830  0.1804
 4920TIP3   OH214723   3.926   0.885   0.907 -0.0828 -0.0647  0.7435
 4920TIP3    H114724   3.881   0.936   0.840 -1.6120 -0.8122  1.1608
 4920TIP3    H214725   3.997   0.841   0.860 -0.2487  0.5402 -0.0966
 4921TIP3   OH214726   2.020   6.398   4.129  0.1853  0.0368 -0.4465
 4921TIP3    H114727   1.926   6.393   4.151  0.4714  1.0483  1.2016
 4921TIP3    H214728   2.022   6.443   4.044 -0.8051  1.0006  0.0109
 4922TIP3   OH214729   4.487   2.026   4.054  0.0065  0.1330  0.0163
 4922TIP3    H114730   4.454   1.947   4.096 -0.5006  0.7993  0.9046
 4922TIP3    H214731   4.474   2.095   4.119  2.8696  0.5148  0.2909
 4923TIP3   OH214732   2.982   6.468   4.147 -0.4281 -0.6501 -1.0850
 4923TIP3    H114733   2.956   6.515   4.068  0.9275 -2.2146 -2.5130
 4923TIP3    H214734   2.914   6.491   4.211 -1.0204  1.4313 -2.3629
 4924TIP3   OH214735   4.998   5.223   4.713 -0.0694 -0.2550 -0.4696
 4924TIP3    H114736   4.935   5.248   4.646 -0.5947 -0.7992 -0.1891
 4924TIP3    H214737   4.972   5.272   4.791 -0.4837 -0.8994 -0.2011
 4925TIP3   OH214738   6.122   0.706   0.926  0.2820 -0.2637 -0.3218
 4925TIP3    H114739   6.215   0.691   0.946  0.6418  0.3847 -1.4057
 4925TIP3    H214740   6.120   0.716   0.831 -1.0261 -1.0498 -0.3907
 4926TIP3   OH214741   0.467   3.671   4.834 -0.5282  0.1919 -0.4246
 4926TIP3    H114742   0.443   3.652   4.924  1.7028 -1.2993 -0.0683
 4926TIP3    H214743   0.536   3.736   4.840  1.0843 -1.3800 -0.8464
 4927TIP3   OH214744   5.207   4.700   0.494 -0.4157  0.2419  0.0763
 4927TIP3    H114745   5.207   4.795   0.487 -1.2582  0.1790 -1.0830
 4927TIP3    H214746   5.141   4.680   0.560 -2.5503  0.3881 -1.8884
 4928TIP3   OH214747   5.766   1.649   4.047  0.0026  0.4564 -0.4403
 4928TIP3    H114748   5.691   1.615   4.095  0.4007  2.1951  1.5409
 4928TIP3    H214749   5.744   1.635   3.955 -1.3252 -1.8999  0.1719
 4929TIP3   OH214750   6.044   6.574   4.330  0.0642 -0.3231 -0.5352
 4929TIP3    H114751   5.967   6.531   4.292  0.8406  0.4618 -3.2809
 4929TIP3    H214752   6.107   6.504   4.343 -0.9126 -0.9071  1.3136
 4930TIP3   OH214753   6.441   4.769   1.462 -0.1764  0.0379 -0.0741
 4930TIP3    H114754   6.527   4.776   1.503 -0.7857  0.0401  1.2560
 4930TIP3    H214755   6.380   4.802   1.529 -1.4519 -2.1398 -0.0623
 4931TIP3   OH214756   1.012   2.375   0.126 -0.1638  0.1363  0.1998
 4931TIP3    H114757   1.031   2.434   0.199 -0.9055  1.6815 -0.8257
 4931TIP3    H214758   0.990   2.291   0.168  3.2042 -0.1864  1.6332
 4932TIP3   OH214759   2.500   6.789   4.970 -0.8133 -0.3201 -0.0168
 4932TIP3    H114760   2.463   6.781   5.058  1.7726 -2.8072  1.0128
 4932TIP3    H214761   2.571   6.725   4.968 -0.3906  0.0428 -3.7727
 4933TIP3   OH214762   0.909   2.915   4.000  0.4040  0.0032  0.1493
 4933TIP3    H114763   0.902   2.970   3.922 -0.4197 -0.4342 -0.0986
 4933TIP3    H214764   0.849   2.956   4.063  1.0062  0.3092  0.5278
 4934TIP3   OH214765   3.967   6.085   1.603  0.2106  0.3706  0.0848
 4934TIP3    H114766   3.934   6.127   1.523  4.5706 -0.8326 -2.6411
 4934TIP3    H214767   3.939   5.994   1.596 -0.6694  0.5595  0.8206
 4935TIP3   OH214768   3.870   3.412   4.165 -0.3340  0.5182  0.2397
 4935TIP3    H114769   3.782   3.376   4.168  0.4854 -1.5980  2.2200
 4935TIP3    H214770   3.926   3.337   4.142  0.9448  1.9465 -1.6673
 4936TIP3   OH214771   1.290   6.696   5.453  0.1084  0.3705 -0.1215
 4936TIP3    H114772   1.257   6.742   5.531  2.3558 -0.7991  1.6589
 4936TIP3    H214773   1.264   6.605   5.467  2.4827 -0.2835  0.5421
 4937TIP3   OH214774   0.592   4.500   1.965  0.5788  1.0284  0.2645
 4937TIP3    H114775   0.538   4.576   1.987 -0.4003  0.3559  0.2761
 4937TIP3    H214776   0.588   4.445   2.043  0.0597  0.3011 -0.2543
 4938TIP3   OH214777   2.325   4.048   5.581 -0.1555 -0.4650 -0.2178
 4938TIP3    H114778   2.254   3.993   5.549  0.1197 -0.3311 -1.0831
 4938TIP3    H214779   2.360   4.091   5.502  0.2429  0.2218  0.3190
 4939TIP3   OH214780   1.167   3.142   4.043  0.5241 -0.2030 -0.4141
 4939TIP3    H114781   1.116   3.173   4.118  2.7614  0.7752  0.7813
 4939TIP3    H214782   1.146   3.203   3.973 -0.7920 -0.5078 -0.3121
 4940TIP3   OH214783   5.684   0.558   5.649 -0.1470 -0.0159 -0.4961
 4940TIP3    H114784   5.764   0.610   5.639 -0.5846  0.6942 -0.3941
 4940TIP3    H214785   5.666   0.561   5.743 -1.1003  1.0931 -0.6833
 4941TIP3   OH214786   4.889   0.317   4.088  0.1357 -0.2529  0.3294
 4941TIP3    H114787   4.806   0.270   4.083  0.0748 -0.4165  2.1606
 4941TIP3    H214788   4.867   0.399   4.132  0.7193  0.2980 -0.3969
 4942TIP3   OH214789   2.859   1.275   0.909 -0.6013 -0.0922  0.1608
 4942TIP3    H114790   2.867   1.200   0.967 -0.2395 -1.3554 -1.4627
 4942TIP3    H214791   2.773   1.265   0.868 -1.6215  1.7413  1.6794
 4943TIP3   OH214792   6.168   0.101   1.762 -0.2279 -0.6323  0.3903
 4943TIP3    H114793   6.094   0.116   1.821  0.3763 -1.0393  1.2658
 4943TIP3    H214794   6.146   0.020   1.717 -0.0989 -1.0029  0.9905
 4944TIP3   OH214795   3.077   4.705   2.851 -0.5043 -0.3217  0.2004
 4944TIP3    H114796   3.125   4.784   2.876  0.3556 -0.6133 -0.4958
 4944TIP3    H214797   2.995   4.712   2.899  1.0866 -0.9183  3.2474
 4945TIP3   OH214798   3.357   4.300   4.651  0.0045 -0.2890 -0.1356
 4945TIP3    H114799   3.321   4.347   4.576  1.0847  2.1062  0.7310
 4945TIP3    H214800   3.420   4.238   4.614  1.4755  1.7529 -1.2087
 4946TIP3   OH214801   3.250   1.982   2.010 -0.2189  0.1844 -0.7552
 4946TIP3    H114802   3.299   2.031   1.943  1.8530  0.2427  0.7186
 4946TIP3    H214803   3.315   1.923   2.048 -1.3755  0.0444  1.0968
 4947TIP3   OH214804   0.800   3.276   4.436  0.1256 -0.3366 -0.0770
 4947TIP3    H114805   0.844   3.252   4.517 -0.8265 -1.9495  0.0028
 4947TIP3    H214806   0.706   3.271   4.457 -0.1764  2.3394 -0.4282
 4948TIP3   OH214807   4.755   5.448   0.390  0.3756 -0.0352 -0.1039
 4948TIP3    H114808   4.710   5.387   0.448  0.1646 -0.6755 -0.9187
 4948TIP3    H214809   4.690   5.514   0.369  1.0949  1.5258  2.1820
 4949TIP3   OH214810   5.501   2.953   2.123  0.2987 -0.3335 -0.1371
 4949TIP3    H114811   5.566   3.023   2.118  0.6488 -0.7156 -1.0355
 4949TIP3    H214812   5.543   2.878   2.082 -0.5296 -0.7299 -0.2829
 4950TIP3   OH214813   0.145   1.094   2.888  0.3063  0.2980  0.6664
 4950TIP3    H114814   0.230   1.061   2.916 -0.3413 -2.2131 -0.1078
 4950TIP3    H214815   0.094   1.101   2.968  0.2889 -1.1903  0.8005
 4951TIP3   OH214816   1.668   4.729   0.520 -0.5908  0.1043 -0.6152
 4951TIP3    H114817   1.746   4.784   0.512 -0.4015 -0.2873 -1.5795
 4951TIP3    H214818   1.624   4.762   0.599 -0.0715  1.1081 -0.7236
 4952TIP3   OH214819   0.119   1.390   2.439 -0.4784 -0.8653  0.6215
 4952TIP3    H114820   0.047   1.423   2.384 -0.7616 -1.1470  0.8195
 4952TIP3    H214821   0.085   1.309   2.477  0.2663 -1.4925  0.0039
 4953TIP3   OH214822   6.473   2.554   2.449 -0.7361  0.7952  0.1819
 4953TIP3    H114823   6.567   2.538   2.438 -1.0691 -0.1830 -1.6353
 4953TIP3    H214824   6.465   2.649   2.456  0.4212  0.8536  1.0448
 4954TIP3   OH214825   3.413   0.488   5.283 -0.0130  0.2952 -0.2268
 4954TIP3    H114826   3.410   0.556   5.350 -0.2323 -2.4300  2.7650
 4954TIP3    H214827   3.342   0.428   5.306 -0.6615 -0.3940 -3.4897
 4955TIP3   OH214828   6.954   3.434   2.898  0.2128  0.1201 -0.3897
 4955TIP3    H114829   7.029   3.476   2.941  0.9204  0.2495 -1.7257
 4955TIP3    H214830   6.972   3.441   2.805  0.1606 -2.7835 -0.6971
 4956TIP3   OH214831   2.499   0.310   1.654  0.0955 -0.3615  0.4878
 4956TIP3    H114832   2.483   0.336   1.564  0.1640  0.6571  0.7598
 4956TIP3    H214833   2.416   0.326   1.699 -0.2642 -1.8604  0.3977
 4957TIP3   OH214834   2.823   1.482   1.135  0.1879 -0.4462 -0.3736
 4957TIP3    H114835   2.885   1.436   1.080 -0.2677 -1.3541 -0.1450
 4957TIP3    H214836   2.806   1.565   1.089 -0.3109 -1.2443 -1.6795
 4958TIP3   OH214837   5.606   1.115   5.673 -0.3955  0.5291  0.5449
 4958TIP3    H114838   5.567   1.202   5.677 -1.3366  0.1969 -0.7674
 4958TIP3    H214839   5.605   1.092   5.581  2.0289  0.0557  0.5827
 4959TIP3   OH214840   5.386   1.570   4.821 -0.1461  0.0124 -0.1459
 4959TIP3    H114841   5.462   1.532   4.777 -0.8958 -1.3719 -0.2991
 4959TIP3    H214842   5.417   1.654   4.855  1.5355 -0.6643  0.0676
 4960TIP3   OH214843   2.091   6.757   4.107 -0.0381  0.0162 -0.2053
 4960TIP3    H114844   2.034   6.769   4.183 -0.6443 -3.9775  0.1635
 4960TIP3    H214845   2.040   6.702   4.047  2.1919 -0.9470 -1.3287
 4961TIP3   OH214846   3.691   6.362   2.275 -0.3613 -0.0847 -0.0948
 4961TIP3    H114847   3.616   6.407   2.237  0.2940  0.2908 -0.9658
 4961TIP3    H214848   3.716   6.416   2.350 -1.1962 -0.4308  0.4482
 4962TIP3   OH214849   1.942   2.944   1.424  0.0149 -1.0305 -0.4336
 4962TIP3    H114850   1.984   3.012   1.478 -0.7333 -1.7057  1.0433
 4962TIP3    H214851   1.961   2.971   1.334 -0.2439  1.1542  0.0899
 4963TIP3   OH214852   5.873   1.141   3.529 -0.2043 -0.1405  0.0232
 4963TIP3    H114853   5.868   1.101   3.442 -2.0008  2.1004 -1.0156
 4963TIP3    H214854   5.822   1.082   3.585 -1.4098 -0.2215 -1.0903
 4964TIP3   OH214855   6.215   6.747   5.723 -0.4084  0.6322  0.4570
 4964TIP3    H114856   6.212   6.768   5.816 -0.0809  1.0935  0.3679
 4964TIP3    H214857   6.262   6.821   5.683  0.5238 -0.1273  0.0964
 4965TIP3   OH214858   5.253   5.582   5.365  0.3247  0.0263  0.1215
 4965TIP3    H114859   5.338   5.621   5.347  0.5108 -0.3413  0.1977
 4965TIP3    H214860   5.217   5.563   5.279  1.6483 -2.6705  0.0496
 4966TIP3   OH214861   5.410   5.225   5.580 -0.3568 -0.9150 -0.0765
 4966TIP3    H114862   5.455   5.244   5.497 -0.0840  1.9993  0.6096
 4966TIP3    H214863   5.382   5.134   5.572  2.0048 -1.5766 -2.2463
 4967TIP3   OH214864   6.948   4.033   2.641 -0.1627  0.1239 -0.2331
 4967TIP3    H114865   6.853   4.024   2.650 -0.2501 -0.2107 -1.3800
 4967TIP3    H214866   6.963   4.045   2.548  1.1066 -2.4001 -0.4512
 4968TIP3   OH214867   3.888   4.283   1.891 -0.3620  0.0743 -0.3821
 4968TIP3    H114868   3.933   4.257   1.972  0.6316 -0.1182 -0.9858
 4968TIP3    H214869   3.827   4.211   1.874 -0.8224  0.2747  0.3758
 4969TIP3   OH214870   0.166   1.521   5.662 -0.4775 -1.0189 -0.9480
 4969TIP3    H114871   0.255   1.486   5.658 -0.5892 -1.4850  0.2392
 4969TIP3    H214872   0.128   1.500   5.577  0.3489 -1.3472 -1.2466
 4970TIP3   OH214873   1.466   2.125   4.506  0.4430 -0.3745 -0.9799
 4970TIP3    H114874   1.383   2.174   4.501  0.3940  0.0881  2.3073
 4970TIP3    H214875   1.533   2.193   4.514  1.0180 -0.8016 -1.9706
 4971TIP3   OH214876   1.112   5.614   3.435 -0.0303 -0.2290  0.6929
 4971TIP3    H114877   1.205   5.633   3.434 -0.0659  0.0167  1.4895
 4971TIP3    H214878   1.086   5.623   3.526 -1.3890  2.4217  0.1323
 4972TIP3   OH214879   2.257   3.671   1.049  0.1544 -0.1105 -0.1657
 4972TIP3    H114880   2.348   3.690   1.029  0.6027 -0.1111  1.7061
 4972TIP3    H214881   2.230   3.608   0.981  1.2369  0.5975 -1.2841
 4973TIP3   OH214882   3.775   5.360   1.346 -0.0483  0.0114 -0.1648
 4973TIP3    H114883   3.742   5.442   1.383  2.2984  1.5353 -1.1874
 4973TIP3    H214884   3.714   5.340   1.274 -1.8243 -0.3395  1.3676
 4974TIP3   OH214885   6.830   3.701   2.935 -0.3869  0.2420 -0.7013
 4974TIP3    H114886   6.760   3.729   2.995  0.8024  0.2388  0.7629
 4974TIP3    H214887   6.857   3.615   2.968  1.6636  1.1109  0.1016
 4975TIP3   OH214888   4.797   3.744   4.050  0.2500 -0.1142  0.4020
 4975TIP3    H114889   4.735   3.757   3.979  0.7480  0.2287  0.0227
 4975TIP3    H214890   4.879   3.782   4.018  0.5983 -0.3587  0.9800
 4976TIP3   OH214891   5.753   6.289   1.593  0.3167 -0.3754 -0.5080
 4976TIP3    H114892   5.803   6.233   1.652  2.7482  2.4167  0.3351
 4976TIP3    H214893   5.772   6.256   1.506 -0.0226 -2.0967  0.0444
 4977TIP3   OH214894   3.269   1.019   5.324  0.5314 -0.2511  0.0160
 4977TIP3    H114895   3.210   0.954   5.363  2.5624 -2.5288 -0.4473
 4977TIP3    H214896   3.292   1.077   5.397 -1.0497 -0.2474  0.5427
 4978TIP3   OH214897   1.469   4.944   3.481  0.5690  0.3431 -0.0203
 4978TIP3    H114898   1.556   4.921   3.448  0.7367 -2.1247  1.8917
 4978TIP3    H214899   1.479   4.947   3.576 -1.4375  0.0256  0.2405
 4979TIP3   OH214900   0.270   3.035   4.530 -0.1482 -0.1767  0.2715
 4979TIP3    H114901   0.330   2.963   4.511 -2.1803 -2.6381  2.4610
 4979TIP3    H214902   0.199   3.023   4.467 -0.0590  0.5172  0.0353
 4980TIP3   OH214903   5.946   5.600   4.973 -0.0981  0.2168 -0.1527
 4980TIP3    H114904   5.984   5.512   4.968  0.5750  0.5588 -1.3450
 4980TIP3    H214905   5.906   5.614   4.888  0.9459  1.5662 -0.4637
 4981TIP3   OH214906   0.869   2.338   3.409 -0.1037 -0.0177 -0.1338
 4981TIP3    H114907   0.835   2.291   3.333 -1.0102  0.1271  0.1666
 4981TIP3    H214908   0.791   2.375   3.450  0.2109 -1.2198  1.6305
 4982TIP3   OH214909   5.802   0.953   3.727 -0.2947 -0.3652 -0.3655
 4982TIP3    H114910   5.836   0.864   3.721 -1.2965 -0.6776 -2.7511
 4982TIP3    H214911   5.708   0.942   3.742 -0.3622  0.3081 -0.2383
 4983TIP3   OH214912   6.962   4.572   2.093  0.2181 -0.6468 -0.2577
 4983TIP3    H114913   6.907   4.625   2.036 -0.1124 -0.9382 -0.2114
 4983TIP3    H214914   6.974   4.625   2.171  1.1094 -0.0213 -0.8054
 4984TIP3   OH214915   1.874   2.311   3.465 -0.5700  0.2154 -0.1851
 4984TIP3    H114916   1.925   2.334   3.543  1.0509 -0.3655 -1.0213
 4984TIP3    H214917   1.783   2.315   3.494 -0.0124 -0.1106  1.7814
 4985TIP3   OH214918   4.815   6.258   4.242 -0.1479 -0.4752  0.0662
 4985TIP3    H114919   4.777   6.343   4.266 -0.0867 -0.5646  0.4880
 4985TIP3    H214920   4.881   6.279   4.176 -0.1615 -0.1944  0.1409
 4986TIP3   OH214921   4.552   3.064   5.816  0.3079 -0.2516 -0.0430
 4986TIP3    H114922   4.570   3.005   5.743 -1.0055  0.7753 -1.2490
 4986TIP3    H214923   4.476   3.026   5.860 -0.6927  0.6072 -0.9668
 4987TIP3   OH214924   3.470   3.863   4.445 -0.3983 -0.3649  0.3985
 4987TIP3    H114925   3.507   3.775   4.441 -1.6945 -0.8978 -0.7822
 4987TIP3    H214926   3.390   3.858   4.393 -1.0338  1.2651  1.1290
 4988TIP3   OH214927   5.300   5.805   0.061  0.4864  0.6274 -0.0690
 4988TIP3    H114928   5.227   5.834   0.117  0.7469 -0.6088  0.9631
 4988TIP3    H214929   5.276   5.716   0.035  0.6013  1.0127 -1.5850
 4989TIP3   OH214930   1.518   0.917   3.129  0.2346  0.2987 -0.2891
 4989TIP3    H114931   1.439   0.971   3.131 -0.5398 -0.8168  0.5912
 4989TIP3    H214932   1.588   0.976   3.156 -0.3807  1.1756 -0.5646
 4990TIP3   OH214933   6.433   4.722   4.218  0.0342 -0.5866  0.2090
 4990TIP3    H114934   6.420   4.765   4.134 -1.8863 -0.8177  0.3401
 4990TIP3    H214935   6.472   4.637   4.196 -0.6117 -0.7159 -0.4845
 4991TIP3   OH214936   0.609   3.591   1.399  0.2411 -0.0621  0.4425
 4991TIP3    H114937   0.599   3.506   1.444 -0.0747 -0.1635  0.1854
 4991TIP3    H214938   0.525   3.634   1.411  1.3114  1.5211  3.1792
 4992TIP3   OH214939   2.989   5.074   3.702 -0.2960  0.1188 -0.5418
 4992TIP3    H114940   3.064   5.028   3.664  1.1498  0.4957  1.6527
 4992TIP3    H214941   3.029   5.142   3.757 -2.3090  1.1254 -0.2465
 4993TIP3   OH214942   0.299   0.331   0.301 -0.0258  0.2242  0.7869
 4993TIP3    H114943   0.299   0.250   0.353  0.1434 -0.8196 -0.7746
 4993TIP3    H214944   0.216   0.328   0.253 -0.0984  1.0793  0.8566
 4994TIP3   OH214945   1.118   2.020   3.009  0.0613  0.1963  0.1230
 4994TIP3    H114946   1.090   1.980   2.926 -0.3134  1.2127 -0.2512
 4994TIP3    H214947   1.043   2.009   3.067 -0.8528  2.1001 -0.5999
 4995TIP3   OH214948   4.032   0.807   1.165 -0.5787  0.0062  0.0759
 4995TIP3    H114949   3.940   0.830   1.179 -1.4970 -3.1271 -0.0151
 4995TIP3    H214950   4.044   0.816   1.070 -1.3702 -1.2358 -0.1696
 4996TIP3   OH214951   0.076   2.614   1.524  0.0096 -0.3144  0.8907
 4996TIP3    H114952   0.109   2.594   1.437  0.1836 -0.5356  1.0070
 4996TIP3    H214953   0.058   2.528   1.563  0.4993 -0.2407  1.2899
 4997TIP3   OH214954   6.542   3.995   4.867  0.7483  0.1692 -0.1400
 4997TIP3    H114955   6.564   4.062   4.803 -0.7136  0.7765 -0.0382
 4997TIP3    H214956   6.562   4.035   4.952 -0.7713  0.7726 -0.0396
 4998TIP3   OH214957   0.887   3.533   3.019 -0.4872  0.6390  0.2692
 4998TIP3    H114958   0.847   3.564   3.100 -0.8370 -0.5810  0.5709
 4998TIP3    H214959   0.904   3.613   2.969 -2.1919  1.2817  0.6524
 4999TIP3   OH214960   5.871   6.698   3.822  0.2419  0.1151 -0.2088
 4999TIP3    H114961   5.820   6.618   3.835 -1.2607  1.2546  1.5501
 4999TIP3    H214962   5.923   6.707   3.901  0.5924  0.7299 -0.5020
 5000TIP3   OH214963   6.904   2.295   0.479 -0.0072 -0.4658  0.4186
 5000TIP3    H114964   6.988   2.268   0.516 -0.7582 -2.0535  1.0542
 5000TIP3    H214965   6.895   2.387   0.504  0.7754 -0.7468  1.8169
 5001TIP3   OH214966   5.486   4.014   0.622 -0.4820  0.2543 -0.3436
 5001TIP3    H114967   5.478   3.933   0.571 -0.7720  0.3793 -0.4964
 5001TIP3    H214968   5.532   3.988   0.702  2.6699  0.5371 -1.8927
 5002TIP3   OH214969   7.164   5.180   1.839  0.1954 -0.3339 -0.6216
 5002TIP3    H114970   7.147   5.194   1.932  0.0415  0.0374 -0.7018
 5002TIP3    H214971   7.138   5.262   1.798  1.4288 -0.0388 -0.8465
 5003TIP3   OH214972   0.324   4.304   2.162 -0.1160 -0.2411  0.2537
 5003TIP3    H114973   0.378   4.365   2.212  0.0907 -1.0610  1.0640
 5003TIP3    H214974   0.379   4.225   2.153 -0.8371 -0.7593  0.3078
 5004TIP3   OH214975   4.260   4.931   3.515 -0.5551  0.2067  0.0948
 5004TIP3    H114976   4.192   4.907   3.578  0.3326 -1.0562  0.6367
 5004TIP3    H214977   4.327   4.863   3.526 -0.0988  0.3071 -1.8077
 5005TIP3   OH214978   7.138   2.092   3.698  0.2703 -0.4762 -0.2237
 5005TIP3    H114979   7.161   2.177   3.662 -0.4096 -0.7895 -1.4515
 5005TIP3    H214980   7.212   2.035   3.674  0.3921 -0.4004 -0.0300
 5006TIP3   OH214981   0.037   0.898   3.439  0.3254  0.0539  0.0658
 5006TIP3    H114982  -0.050   0.898   3.480  0.8128 -0.6083  1.1588
 5006TIP3    H214983   0.039   0.817   3.388  0.4245 -0.1124  0.3312
 5007TIP3   OH214984   1.298   1.551   2.677 -0.3140  0.2047  0.2597
 5007TIP3    H114985   1.246   1.495   2.619  1.2683 -0.6604 -0.3917
 5007TIP3    H214986   1.278   1.520   2.765 -0.6479 -0.3273  0.0042
 5008TIP3   OH214987   4.220   6.740   1.002  0.5176 -0.6109 -0.1624
 5008TIP3    H114988   4.241   6.834   1.005  0.4945 -0.3547 -3.5483
 5008TIP3    H214989   4.305   6.697   1.000  0.5278 -0.7105  1.2563
 5009TIP3   OH214990   4.231   5.017   3.983  0.2709 -0.1162 -0.6658
 5009TIP3    H114991   4.169   4.974   4.042 -0.6487  1.2471 -0.5953
 5009TIP3    H214992   4.271   4.945   3.934  0.5392 -1.2420  1.0810
 5010TIP3   OH214993   2.962   1.535   0.148 -0.0189  0.0239 -0.1680
 5010TIP3    H114994   2.999   1.578   0.225  2.2320 -1.2833 -0.4354
 5010TIP3    H214995   3.008   1.574   0.074 -2.2890  1.3981 -0.9442
 5011TIP3   OH214996   3.426   2.618   2.569 -0.1527 -0.2163  0.0708
 5011TIP3    H114997   3.421   2.588   2.478  1.8776  2.6424 -1.1624
 5011TIP3    H214998   3.501   2.571   2.605  0.2911  0.1140 -0.4085
 5012TIP3   OH214999   4.335   2.426   1.166 -0.0301 -0.2736  0.1756
 5012TIP3    H115000   4.275   2.383   1.104 -2.1129 -0.2601  2.0734
 5012TIP3    H215001   4.368   2.354   1.220  0.8446 -0.1258 -0.1412
 5013TIP3   OH215002   3.260   6.287   3.919 -0.0728 -0.4668 -0.1556
 5013TIP3    H115003   3.258   6.211   3.977  0.6685  0.4379  1.1237
 5013TIP3    H215004   3.337   6.337   3.948 -1.3779  1.5345  0.0664
 5014TIP3   OH215005   5.703   2.224   1.313 -0.4388 -0.0017 -0.9613
 5014TIP3    H115006   5.661   2.308   1.297 -2.6520 -1.5228 -4.0319
 5014TIP3    H215007   5.677   2.201   1.402 -2.1877  1.2860 -1.0906
 5015TIP3   OH215008   1.276   0.230   3.272 -0.4164 -0.1189  0.0976
 5015TIP3    H115009   1.334   0.154   3.269  1.7104  1.4086  0.3191
 5015TIP3    H215010   1.190   0.195   3.249  0.8215 -2.2658 -1.7023
 5016TIP3   OH215011   3.104   6.218   0.898 -0.3082  0.3357 -0.0670
 5016TIP3    H115012   3.189   6.175   0.891 -0.2499  0.0510  1.9744
 5016TIP3    H215013   3.043   6.148   0.921 -0.8253  0.7801 -0.0619
 5017TIP3   OH215014   3.244   3.079   0.394 -0.3379  0.0930  0.1351
 5017TIP3    H115015   3.168   3.136   0.380 -0.7676 -0.8740 -1.8788
 5017TIP3    H215016   3.220   2.996   0.353  1.0144 -0.9397  1.3234
 5018TIP3   OH215017   5.211   4.148   0.449 -0.0823 -0.0010  0.3521
 5018TIP3    H115018   5.229   4.217   0.512  0.7765  1.4542 -1.3785
 5018TIP3    H215019   5.139   4.181   0.396 -0.6891 -1.1167  0.4424
 5019TIP3   OH215020   6.793   1.886   0.149  0.4951  0.1384 -0.2424
 5019TIP3    H115021   6.809   1.824   0.220  0.1157  0.2247 -0.0744
 5019TIP3    H215022   6.766   1.966   0.194  0.3603  0.2286 -0.4820
 5020TIP3   OH215023   5.349   6.361   3.462 -0.5289  0.2363 -0.1362
 5020TIP3    H115024   5.332   6.420   3.535  1.8214  2.3114 -1.1284
 5020TIP3    H215025   5.445   6.354   3.459 -0.6414 -1.3346 -1.8599
 5021TIP3   OH215026   3.760   5.383   2.922 -0.1207 -0.2044  0.1494
 5021TIP3    H115027   3.745   5.294   2.953  3.1421 -1.6586 -1.8642
 5021TIP3    H215028   3.811   5.425   2.992  2.2040 -1.5277 -0.6414
 5022TIP3   OH215029   5.876   6.582   2.963  0.6485 -0.1818  0.1489
 5022TIP3    H115030   5.929   6.659   2.986  0.3504 -0.0848  0.5244
 5022TIP3    H215031   5.823   6.566   3.041  1.6076 -1.5430  0.5553
 5023TIP3   OH215032   3.457   5.199   5.115 -0.2484  0.2775  0.1940
 5023TIP3    H115033   3.455   5.268   5.182  0.6717 -0.2316  0.7765
 5023TIP3    H215034   3.423   5.121   5.160  1.0572 -0.2506  0.3283
 5024TIP3   OH215035   4.703   1.913   0.587  0.2617 -0.0759  0.5671
 5024TIP3    H115036   4.620   1.869   0.570  0.3922  0.3014 -1.2601
 5024TIP3    H215037   4.692   1.951   0.674 -1.5822  0.1551  0.2775
 5025TIP3   OH215038   5.430   5.253   4.891  0.5224  0.3024  0.3302
 5025TIP3    H115039   5.409   5.176   4.839  0.6101  0.0448  0.6695
 5025TIP3    H215040   5.495   5.301   4.839  0.9090 -0.1605  0.3786
 5026TIP3   OH215041   0.088   2.203   2.155  0.1699  0.2713  0.1254
 5026TIP3    H115042   0.090   2.109   2.169  1.3092  0.0906 -1.0553
 5026TIP3    H215043   0.007   2.218   2.105 -0.5725  0.0837  1.2517
 5027TIP3   OH215044   5.499   1.009   0.466  0.1122  0.1376  1.1973
 5027TIP3    H115045   5.472   1.095   0.436  1.0045 -0.3247 -1.1450
 5027TIP3    H215046   5.595   1.011   0.462  0.1355 -1.1792  0.3633
 5028TIP3   OH215047   5.126   3.081   0.462  0.6332 -0.4205  0.2448
 5028TIP3    H115048   5.141   3.175   0.455 -1.9111 -0.0499 -1.3842
 5028TIP3    H215049   5.128   3.049   0.372 -3.2068 -1.0030  0.2024
 5029TIP3   OH215050   3.767   5.403   0.751  0.6085  0.1473  0.2380
 5029TIP3    H115051   3.857   5.370   0.762  1.3335  1.0926 -2.2099
 5029TIP3    H215052   3.743   5.379   0.662 -1.6532 -0.1399  0.8573
 5030TIP3   OH215053   5.521   5.005   3.572 -0.4725  0.2536  0.3398
 5030TIP3    H115054   5.502   4.912   3.587 -1.1094  0.2207 -0.5597
 5030TIP3    H215055   5.452   5.051   3.620 -0.3205  0.2524  0.5585
 5031TIP3   OH215056   1.627   2.363   4.518  0.3797  0.9645 -0.2267
 5031TIP3    H115057   1.594   2.373   4.607 -0.4403  1.0290 -0.5324
 5031TIP3    H215058   1.698   2.427   4.511  0.5998  0.8028  0.4452
 5032TIP3   OH215059   1.879   1.184   2.977  0.1764  0.7142  0.6254
 5032TIP3    H115060   1.974   1.173   2.984 -0.0177 -0.6679  1.5312
 5032TIP3    H215061   1.847   1.099   2.947 -0.7156  1.4102 -0.4795
 5033TIP3   OH215062   1.517   2.969   4.833 -0.2548  0.2222 -0.0050
 5033TIP3    H115063   1.553   3.056   4.851 -0.1058  0.4304 -1.2199
 5033TIP3    H215064   1.588   2.922   4.790 -0.2652 -0.5882  0.8218
 5034TIP3   OH215065   1.128   5.422   2.165 -0.0487  0.5110 -0.3924
 5034TIP3    H115066   1.052   5.468   2.200 -0.3839 -0.4731  0.2190
 5034TIP3    H215067   1.126   5.439   2.071  0.4399  2.5927 -0.0752
 5035TIP3   OH215068   6.763   3.015   1.415  0.2981  0.1960 -0.5910
 5035TIP3    H115069   6.726   2.927   1.413  0.6593 -0.0057 -3.5615
 5035TIP3    H215070   6.687   3.073   1.415  0.0412 -0.1374 -0.1954
 5036TIP3   OH215071   5.586   6.321   1.047  0.5368 -0.6890 -0.2683
 5036TIP3    H115072   5.496   6.353   1.056  0.9206  0.1532  0.7772
 5036TIP3    H215073   5.579   6.243   0.992 -0.8036 -0.5168 -0.3602
 5037TIP3   OH215074   1.419   0.096   4.027  0.6213  0.3885  0.0388
 5037TIP3    H115075   1.398   0.067   3.938  0.8140  1.3653 -0.3377
 5037TIP3    H215076   1.335   0.093   4.073  0.4694  0.1346 -0.2481
 5038TIP3   OH215077   6.228   0.769   1.436 -0.4125  0.2948  0.0339
 5038TIP3    H115078   6.186   0.789   1.352 -0.2938 -1.0479 -0.3725
 5038TIP3    H215079   6.295   0.836   1.446 -0.5339  0.5680 -0.8730
 5039TIP3   OH215080   5.529   0.992   2.327  0.4117  0.3583  0.0520
 5039TIP3    H115081   5.521   1.073   2.277 -0.4329  0.6231  0.5926
 5039TIP3    H215082   5.612   1.002   2.375 -0.1903  1.4041  0.9491
 5040TIP3   OH215083   5.515   4.597   0.866  0.1616  0.3345 -0.3144
 5040TIP3    H115084   5.462   4.519   0.880  1.8545 -0.6673  0.7765
 5040TIP3    H215085   5.480   4.635   0.785 -0.4304 -1.7588 -1.0995
 5041TIP3   OH215086   6.785   3.354   0.697 -0.1609 -0.3314 -0.0982
 5041TIP3    H115087   6.877   3.378   0.681 -0.1767  0.6572  1.1117
 5041TIP3    H215088   6.747   3.431   0.739 -2.1768  0.1074 -2.5613
 5042TIP3   OH215089   4.415   4.703   0.759  0.1288  0.2950 -0.0496
 5042TIP3    H115090   4.473   4.684   0.833 -0.3346  1.1176  0.5382
 5042TIP3    H215091   4.368   4.782   0.784 -2.4821 -1.2188  0.2383
 5043TIP3   OH215092   3.316   2.265   4.158  0.3946  0.2537 -0.1746
 5043TIP3    H115093   3.360   2.186   4.192  0.3195 -0.3208 -1.3417
 5043TIP3    H215094   3.387   2.327   4.144  0.5945  0.0150 -0.2354
 5044TIP3   OH215095   3.661   1.090   3.302 -0.0240 -0.0089 -0.2749
 5044TIP3    H115096   3.673   1.118   3.211 -1.2367  0.8837 -0.1947
 5044TIP3    H215097   3.732   1.133   3.350  0.5427 -0.3740 -0.7732
 5045TIP3   OH215098   0.428   2.640   1.548  0.2616  0.2310 -0.1403
 5045TIP3    H115099   0.369   2.714   1.550 -1.0180 -0.7702  0.6560
 5045TIP3    H215100   0.489   2.660   1.476 -0.7846  1.4711 -0.7290
 5046TIP3   OH215101   0.545   3.536   5.489  0.1533  0.1206 -0.1293
 5046TIP3    H115102   0.516   3.456   5.444  0.1739 -0.4596  0.8675
 5046TIP3    H215103   0.473   3.557   5.548 -0.4796  1.6743 -1.3760
 5047TIP3   OH215104   5.809   0.247   4.313  0.1417 -0.0496  0.2569
 5047TIP3    H115105   5.797   0.159   4.279  1.5855  0.3899 -1.5994
 5047TIP3    H215106   5.730   0.265   4.363 -1.7622 -1.1818 -2.1135
 5048TIP3   OH215107   0.816   0.561   1.458 -0.0546  0.5042  0.0216
 5048TIP3    H115108   0.776   0.494   1.514  0.1694  0.5277  0.2118
 5048TIP3    H215109   0.754   0.572   1.386 -0.7473  1.0514  0.6841
 5049TIP3   OH215110   0.956   4.292   4.745  0.0992 -1.0744 -0.7442
 5049TIP3    H115111   0.940   4.248   4.829 -0.7578  0.7271  0.0974
 5049TIP3    H215112   0.942   4.385   4.764  0.4440 -0.5673 -2.7714
 5050TIP3   OH215113   2.761   4.905   3.623 -0.5205  0.5856 -0.2708
 5050TIP3    H115114   2.844   4.952   3.630 -1.5968  2.5537  0.0676
 5050TIP3    H215115   2.766   4.860   3.539  0.6746  1.1231 -0.5172
 5051TIP3   OH215116   4.142   5.176   2.671  0.4963  0.1813  0.3833
 5051TIP3    H115117   4.228   5.199   2.635  0.9863 -1.6242  0.3257
 5051TIP3    H215118   4.128   5.241   2.740  1.5003  1.0382 -0.1763
 5052TIP3   OH215119   4.824   5.654   2.199  0.3028 -0.0692 -0.0790
 5052TIP3    H115120   4.748   5.597   2.204 -0.7379  1.3142  0.2249
 5052TIP3    H215121   4.790   5.742   2.210  1.8461  0.6582 -0.7591
 5053TIP3   OH215122   2.522   6.512   2.465  0.0060  0.0361  0.6172
 5053TIP3    H115123   2.467   6.534   2.390 -2.0437 -1.5546  1.5557
 5053TIP3    H215124   2.601   6.473   2.426  0.3667  2.0049 -0.7488
 5054TIP3   OH215125   3.606   3.584   2.768  0.3820 -0.3601 -0.2736
 5054TIP3    H115126   3.534   3.638   2.803 -0.5077 -0.3675 -1.9846
 5054TIP3    H215127   3.611   3.608   2.676  0.8392 -2.2498 -0.7834
 5055TIP3   OH215128   6.141   0.966   3.562 -0.0861 -0.2505 -0.5161
 5055TIP3    H115129   6.068   0.936   3.507 -0.0642 -0.4277 -0.4499
 5055TIP3    H215130   6.104   1.038   3.613 -0.0454  0.0543 -0.9142
 5056TIP3   OH215131   0.596   5.802   5.332 -0.0400  0.1311  0.1928
 5056TIP3    H115132   0.623   5.714   5.306 -1.6356 -0.3815  0.1651
 5056TIP3    H215133   0.542   5.789   5.410  0.2986  1.1619  0.6180
 5057TIP3   OH215134   0.280   0.637   4.879 -0.4466  0.3721  0.1776
 5057TIP3    H115135   0.217   0.705   4.856 -0.7801  0.5803  1.5667
 5057TIP3    H215136   0.280   0.637   4.975 -0.2271 -1.3715  0.2088
 5058TIP3   OH215137   1.386   1.624   0.730 -0.4254  0.2586 -0.5181
 5058TIP3    H115138   1.473   1.623   0.769  0.0179  0.3579 -1.4691
 5058TIP3    H215139   1.352   1.536   0.746  1.4956 -1.2123 -3.6210
 5059TIP3   OH215140   3.582   1.947   5.084  0.3958  0.5368 -0.6263
 5059TIP3    H115141   3.552   1.989   5.003  0.6312  0.8863 -0.5304
 5059TIP3    H215142   3.538   1.995   5.154 -2.0380 -1.4997 -0.6137
 5060TIP3   OH215143   6.021   6.142   3.699  0.0496 -0.5380  0.1187
 5060TIP3    H115144   5.925   6.149   3.696 -0.0161  0.3874  2.4362
 5060TIP3    H215145   6.038   6.048   3.689 -1.2464 -0.9780  1.6783
 5061TIP3   OH215146  -0.000   2.115   1.782 -0.0598 -0.0798  0.1157
 5061TIP3    H115147   0.094   2.120   1.798  0.1792 -0.3604 -1.1737
 5061TIP3    H215148  -0.024   2.025   1.806  0.2168 -0.3645 -0.6614
 5062TIP3   OH215149   2.526   6.061   4.601  0.2876 -0.1550 -0.0441
 5062TIP3    H115150   2.444   6.023   4.570  0.6257 -0.4582 -0.5859
 5062TIP3    H215151   2.517   6.155   4.584  0.6168 -0.3535 -1.4692
 5063TIP3   OH215152   4.853   2.664   0.586  0.0366 -0.1223  0.2091
 5063TIP3    H115153   4.933   2.701   0.548  0.6151 -1.0895  0.4456
 5063TIP3    H215154   4.788   2.668   0.516  1.0350 -1.7201 -0.8772
 5064TIP3   OH215155   7.075   6.468   2.395  0.2385 -0.2735 -0.1367
 5064TIP3    H115156   7.112   6.549   2.359  0.6909 -0.0624  0.7840
 5064TIP3    H215157   6.983   6.470   2.369  0.1637  0.7136  0.1687
 5065TIP3   OH215158   3.635   0.451   1.008  0.2171  0.1815  0.1269
 5065TIP3    H115159   3.688   0.431   0.931  0.2192 -0.7179  0.3415
 5065TIP3    H215160   3.695   0.439   1.082 -0.0022  0.1960  0.3085
 5066TIP3   OH215161   0.926   5.490   1.480  0.6097 -0.1427  0.3118
 5066TIP3    H115162   0.846   5.508   1.431  0.8301 -0.1588 -0.0544
 5066TIP3    H215163   0.994   5.481   1.414  1.0796  0.6928  0.6560
 5067TIP3   OH215164   1.341   5.040   4.510  0.4075 -0.4742  0.4104
 5067TIP3    H115165   1.425   5.015   4.470  0.7187 -1.0698  1.4017
 5067TIP3    H215166   1.316   4.964   4.561 -1.3542 -0.7589 -0.8124
 5068TIP3   OH215167   4.378   0.397   4.758 -0.0847  0.1723 -0.3507
 5068TIP3    H115168   4.360   0.490   4.771 -1.4307  0.1185 -1.5564
 5068TIP3    H215169   4.293   0.355   4.767  0.2767 -0.7732 -1.1213
 5069TIP3   OH215170   6.912   4.815   2.760  0.1990 -0.5947  0.5308
 5069TIP3    H115171   6.919   4.720   2.767 -0.0432 -0.6935 -0.3781
 5069TIP3    H215172   7.002   4.847   2.762  0.3817 -0.9804 -0.7142
 5070TIP3   OH215173   2.045   0.035   0.594 -0.2232 -0.1770 -0.2555
 5070TIP3    H115174   2.058  -0.024   0.520  1.7305  1.4973 -1.3576
 5070TIP3    H215175   2.130   0.077   0.607 -0.8308  0.4693  2.1996
 5071TIP3   OH215176   5.012   1.032   1.866 -0.0576 -0.3006  0.5218
 5071TIP3    H115177   5.072   1.069   1.801  0.4517  1.9180  2.1222
 5071TIP3    H215178   4.942   0.992   1.815  1.0175  0.1315 -1.3796
 5072TIP3   OH215179   1.453   4.754   2.977 -0.4932  0.1264  0.0791
 5072TIP3    H115180   1.521   4.688   2.986 -1.0010 -0.3944  0.1866
 5072TIP3    H215181   1.427   4.776   3.067 -2.1343 -1.4610  0.0477
 5073TIP3   OH215182   3.502   6.135   0.037  0.5471 -0.4326  0.4542
 5073TIP3    H115183   3.408   6.122   0.026  0.8698 -2.9251 -0.0473
 5073TIP3    H215184   3.517   6.123   0.131  0.2530  1.2544  0.7506
 5074TIP3   OH215185   0.867   5.362   1.728 -0.2047  0.1482  0.0346
 5074TIP3    H115186   0.878   5.385   1.636  0.8629  0.0256  0.1174
 5074TIP3    H215187   0.772   5.363   1.742 -0.3200  2.7469 -0.4097
 5075TIP3   OH215188   7.116   4.474   5.515 -0.1029 -0.0125  0.1495
 5075TIP3    H115189   7.190   4.483   5.455  1.3183 -1.8668  1.4835
 5075TIP3    H215190   7.136   4.535   5.587  0.3226 -0.7185  0.6475
 5076TIP3   OH215191   4.626   1.175   0.950  0.1702  0.0938  0.0822
 5076TIP3    H115192   4.558   1.188   0.884  0.6606 -1.5398 -0.8042
 5076TIP3    H215193   4.704   1.150   0.900  1.5579  2.2542  1.0464
 5077TIP3   OH215194   2.225   3.511   1.431 -0.2372 -0.3400  0.5904
 5077TIP3    H115195   2.244   3.588   1.483 -0.0770  1.7730 -2.3230
 5077TIP3    H215196   2.136   3.524   1.399 -0.3865 -1.6187  0.4332
 5078TIP3   OH215197   2.136   1.841   2.214  0.1255  0.7311  0.4852
 5078TIP3    H115198   2.212   1.833   2.156 -0.0150  0.1520  0.3772
 5078TIP3    H215199   2.090   1.758   2.205 -1.7194  1.8250 -1.1411
 5079TIP3   OH215200   1.513   5.002   1.218  0.7093 -0.1195  0.0942
 5079TIP3    H115201   1.498   5.087   1.260  1.0820  0.2225 -0.4597
 5079TIP3    H215202   1.552   4.949   1.287 -0.6358 -0.2335  0.8065
 5080TIP3   OH215203   5.720   1.887   5.685 -0.1691  0.0943 -0.1731
 5080TIP3    H115204   5.625   1.875   5.687 -0.0306 -1.2942 -0.6890
 5080TIP3    H215205   5.733   1.978   5.659 -1.3529  0.3719  0.1709
 5081TIP3   OH215206   7.084   2.726   1.722  1.1323  0.0915  0.1346
 5081TIP3    H115207   7.144   2.750   1.792  2.0211  0.1365 -0.6154
 5081TIP3    H215208   7.107   2.784   1.650  0.2715  0.0106 -0.2144
 5082TIP3   OH215209   0.232   5.900   2.147 -0.2302  0.7058  0.3646
 5082TIP3    H115210   0.137   5.908   2.150 -0.3355 -0.3291  0.2815
 5082TIP3    H215211   0.256   5.923   2.057 -0.4870  0.2170  0.1685
 5083TIP3   OH215212   2.544   6.260   5.224  0.1369  0.1209  0.2750
 5083TIP3    H115213   2.617   6.232   5.169 -0.2341 -1.3868  0.5186
 5083TIP3    H215214   2.491   6.182   5.236 -0.8068  0.8731  1.2219
 5084TIP3   OH215215   2.552   4.963   2.555 -0.5400 -0.0800 -0.2917
 5084TIP3    H115216   2.579   4.912   2.631 -0.3351 -0.8934 -0.8898
 5084TIP3    H215217   2.605   4.928   2.483 -1.6544 -0.2193 -1.0654
 5085TIP3   OH215218   5.445   5.257   0.341  0.4213 -0.6339  0.9027
 5085TIP3    H115219   5.394   5.245   0.260  0.8869 -1.5845  0.7372
 5085TIP3    H215220   5.383   5.297   0.402  0.5546  1.7998 -0.4549
 5086TIP3   OH215221   2.577   3.674   1.537  0.0299 -0.5035  0.2179
 5086TIP3    H115222   2.589   3.580   1.523 -1.7785 -0.8822  0.8989
 5086TIP3    H215223   2.569   3.683   1.632  0.4517  0.3906  0.1791
 5087TIP3   OH215224   6.446   3.277   5.245  0.1021  0.5831 -0.3680
 5087TIP3    H115225   6.512   3.229   5.294  1.0905  0.6939 -1.5481
 5087TIP3    H215226   6.487   3.361   5.225 -0.6915  0.9698 -0.4466
 5088TIP3   OH215227   6.685   2.900   0.562  0.0425 -0.0215  0.5058
 5088TIP3    H115228   6.605   2.901   0.509 -0.1129 -0.4471  0.7281
 5088TIP3    H215229   6.693   2.809   0.591  1.5232 -0.3820 -0.9024
 5089TIP3   OH215230   2.742   5.432   1.769 -0.5261 -0.3464  0.2831
 5089TIP3    H115231   2.710   5.423   1.859 -0.0873  1.2820  0.6481
 5089TIP3    H215232   2.663   5.450   1.717 -0.6838 -0.4669  0.4812
 5090TIP3   OH215233   2.276   4.104   5.839  0.0232 -0.7684 -0.0996
 5090TIP3    H115234   2.325   4.055   5.774  1.4325  0.9022 -0.3831
 5090TIP3    H215235   2.203   4.047   5.863  0.8256 -2.3989 -1.3571
 5091TIP3   OH215236   1.952   5.121   1.658  0.1484 -0.0256  0.1612
 5091TIP3    H115237   1.958   5.195   1.718 -1.7652  0.3960 -0.0921
 5091TIP3    H215238   1.883   5.065   1.696  0.2587 -0.7228 -0.6290
 5092TIP3   OH215239   3.666   5.536   2.303  0.6693 -0.1080 -0.0885
 5092TIP3    H115240   3.619   5.618   2.320  0.4266 -0.2953  0.1516
 5092TIP3    H215241   3.625   5.500   2.224 -0.8586 -1.1882  1.1261
 5093TIP3   OH215242   3.760   0.151   1.071 -0.4113  0.2234  0.1199
 5093TIP3    H115243   3.846   0.180   1.101 -1.0304  1.4957  0.7719
 5093TIP3    H215244   3.776   0.115   0.984  0.8520 -0.0285  0.4391
 5094TIP3   OH215245   5.160   4.572   1.396  0.3951 -0.3189 -0.3650
 5094TIP3    H115246   5.152   4.666   1.414 -0.7381 -0.2796 -0.9784
 5094TIP3    H215247   5.070   4.542   1.381  0.7824 -1.4096 -0.6469
 5095TIP3   OH215248   0.678   6.481   2.197  0.3492  0.4693 -0.2860
 5095TIP3    H115249   0.604   6.532   2.163 -0.0214  0.5382  0.5939
 5095TIP3    H215250   0.637   6.412   2.249  0.8985  0.5958  0.3297
 5096TIP3   OH215251   6.336   4.480   3.989 -0.0882  0.1832 -0.4856
 5096TIP3    H115252   6.372   4.396   4.017 -0.3657  0.4490  0.7350
 5096TIP3    H215253   6.330   4.473   3.894 -2.2533 -2.0674 -0.2786
 5097TIP3   OH215254   0.558   6.250   0.564  0.3388 -0.0144 -0.2536
 5097TIP3    H115255   0.603   6.314   0.508  1.5386 -0.8158 -0.2448
 5097TIP3    H215256   0.489   6.300   0.608  0.2471  0.9193 -1.4259
 5098TIP3   OH215257   3.250   3.560   3.505 -0.0100 -0.0266  0.2370
 5098TIP3    H115258   3.180   3.606   3.459 -1.6354 -1.8866  0.6692
 5098TIP3    H215259   3.250   3.599   3.593  2.1087  2.5220 -0.7871
 5099TIP3   OH215260   4.127   0.062   2.457  0.4621 -0.0267 -0.2273
 5099TIP3    H115261   4.215   0.025   2.447 -0.0394 -1.2445 -0.2642
 5099TIP3    H215262   4.073  -0.012   2.485 -0.5527  0.7117 -0.1885
 5100TIP3   OH215263   0.576   1.975   2.805 -0.0939  0.5018 -0.2678
 5100TIP3    H115264   0.637   2.014   2.867 -0.8042 -0.6596  1.2092
 5100TIP3    H215265   0.618   1.892   2.779 -0.5987  0.1587  0.0074
 5101TIP3   OH215266   2.927   4.092   0.717 -0.0593  0.0287 -0.0426
 5101TIP3    H115267   2.976   4.174   0.708 -1.6512  0.8911 -1.2541
 5101TIP3    H215268   2.984   4.026   0.677  0.2650  0.9337 -1.1204
 5102TIP3   OH215269   6.400   3.101   5.767 -0.5479  0.1324 -0.2280
 5102TIP3    H115270   6.422   3.110   5.860 -0.8855  0.8307 -0.2075
 5102TIP3    H215271   6.385   3.007   5.755 -1.9097  0.1953  0.7597
 5103TIP3   OH215272   7.206   3.585   2.404  0.4807 -0.2584 -0.0921
 5103TIP3    H115273   7.185   3.658   2.464 -0.1677 -0.9385  0.5308
 5103TIP3    H215274   7.122   3.541   2.391  0.7728 -0.5729 -0.9045
 5104TIP3   OH215275   5.128   3.742   0.482 -0.0151 -0.8324 -0.4468
 5104TIP3    H115276   5.070   3.760   0.408  0.0557  0.1193 -0.2805
 5104TIP3    H215277   5.075   3.691   0.543 -1.0326  0.8844  0.1689
 5105TIP3   OH215278   3.588   4.571   3.731  0.1142 -0.3920 -0.1717
 5105TIP3    H115279   3.569   4.544   3.641 -0.1043  0.6233 -0.4415
 5105TIP3    H215280   3.589   4.489   3.781 -2.3378 -0.7708 -0.6246
 5106TIP3   OH215281   5.140   3.569   4.544  0.7597  0.3217 -0.1156
 5106TIP3    H115282   5.079   3.505   4.581  0.2159 -0.0068 -1.5299
 5106TIP3    H215283   5.226   3.541   4.574  0.4495 -0.6029 -0.0752
 5107TIP3   OH215284   2.109   0.843   2.068  0.3912 -0.0425 -0.5383
 5107TIP3    H115285   2.091   0.835   2.162  1.7413  1.3746 -0.1323
 5107TIP3    H215286   2.027   0.817   2.026 -1.2497  2.0714  1.1153
 5108TIP3   OH215287   2.739   0.130   4.526  0.3827  0.7529 -0.0081
 5108TIP3    H115288   2.798   0.068   4.569  0.4233  0.4783 -0.4552
 5108TIP3    H215289   2.790   0.209   4.515  1.0528  0.1568 -1.4221
 5109TIP3   OH215290   5.228   0.276   3.611 -0.0646  0.3228 -0.0468
 5109TIP3    H115291   5.256   0.355   3.656 -0.2134 -0.7107  1.9736
 5109TIP3    H215292   5.299   0.258   3.549  1.1789  0.7025  1.2018
 5110TIP3   OH215293   6.671   3.866   3.096  0.5737  0.1930  0.2779
 5110TIP3    H115294   6.581   3.850   3.122  1.0041 -0.5466  1.3870
 5110TIP3    H215295   6.683   3.960   3.109  0.4501  0.0322  1.8444
 5111TIP3   OH215296   2.779   4.310   4.044  0.5850 -0.0969  0.5374
 5111TIP3    H115297   2.810   4.309   4.135  1.9511 -0.6240  0.0816
 5111TIP3    H215298   2.821   4.234   4.003 -1.3987 -0.9329 -0.1104
 5112TIP3   OH215299   1.564   4.594   3.328 -0.3078  0.3229 -0.3659
 5112TIP3    H115300   1.472   4.595   3.353 -0.4119  1.7305 -0.7246
 5112TIP3    H215301   1.603   4.669   3.373  0.8892 -0.7803  0.5248
 5113TIP3   OH215302   5.043   4.123   0.931 -0.1305 -0.0788  0.0440
 5113TIP3    H115303   5.090   4.205   0.917  0.2327 -0.5008 -1.3550
 5113TIP3    H215304   5.040   4.082   0.845 -1.0918 -1.1261  0.5465
 5114TIP3   OH215305   3.193   3.639   3.977 -0.3908 -0.1125 -0.7957
 5114TIP3    H115306   3.214   3.656   4.068 -0.5130 -2.8206 -0.1894
 5114TIP3    H215307   3.109   3.683   3.963 -0.9152 -0.5741  0.7395
 5115TIP3   OH215308   4.224   5.497   2.804  0.3021  0.0033  0.9744
 5115TIP3    H115309   4.209   5.584   2.841 -1.4131 -0.2994  1.0495
 5115TIP3    H215310   4.137   5.465   2.780  0.9575 -1.4623  0.4127
 5116TIP3   OH215311   0.846   3.617   0.361  0.0229 -0.3059 -0.3348
 5116TIP3    H115312   0.759   3.656   0.352 -0.9103 -2.3571 -1.0335
 5116TIP3    H215313   0.830   3.523   0.352  2.3861 -0.7058 -0.9632
 5117TIP3   OH215314   0.662   3.467   3.861 -0.4691  0.0488 -0.8318
 5117TIP3    H115315   0.733   3.526   3.833  0.0144 -1.1750 -2.3691
 5117TIP3    H215316   0.689   3.437   3.948 -0.5769  1.8052 -0.1489
 5118TIP3   OH215317   5.235   5.714   2.697  0.0983  0.0181  0.1836
 5118TIP3    H115318   5.225   5.789   2.755  0.9598  0.0487  0.3068
 5118TIP3    H215319   5.219   5.749   2.609 -0.6188  0.0986  0.3455
 5119TIP3   OH215320   5.231   0.525   2.638  0.0974 -0.2706 -0.4337
 5119TIP3    H115321   5.202   0.552   2.550  0.0363  0.7681 -0.1127
 5119TIP3    H215322   5.302   0.585   2.658  0.1261 -0.5225  0.2222
 5120TIP3   OH215323   1.908   3.051   4.964  0.1507 -0.4433  0.0616
 5120TIP3    H115324   1.907   3.056   4.869 -2.4312  1.1146  0.0525
 5120TIP3    H215325   1.909   2.957   4.984  0.9091 -0.7818 -1.4684
 5121TIP3   OH215326   5.315   6.272   0.965  0.3673  0.7964  0.1015
 5121TIP3    H115327   5.297   6.208   1.034 -0.6111  1.7013  0.7164
 5121TIP3    H215328   5.294   6.226   0.884  2.2039 -0.5199  0.3169
 5122TIP3   OH215329   5.586   2.206   1.577  0.3476  0.3649  0.3952
 5122TIP3    H115330   5.559   2.195   1.668  1.2447  2.2823  0.9409
 5122TIP3    H215331   5.586   2.301   1.563  1.1461  0.1493 -1.3294
 5123TIP3   OH215332   5.295   1.190   2.674 -0.3960  0.2262  0.2318
 5123TIP3    H115333   5.241   1.111   2.682 -1.3729  0.7271 -0.9594
 5123TIP3    H215334   5.246   1.246   2.612  1.4526  0.7424 -0.8445
 5124TIP3   OH215335   1.857   0.133   1.413 -0.1130  0.2159 -0.1042
 5124TIP3    H115336   1.849   0.187   1.335  2.4138 -0.5191 -0.9468
 5124TIP3    H215337   1.769   0.097   1.426 -0.4274 -0.3012 -3.0815
 5125TIP3   OH215338   0.290   5.511   4.471  0.3033 -0.1269  0.4170
 5125TIP3    H115339   0.371   5.459   4.475 -1.0943 -2.3861  1.2649
 5125TIP3    H215340   0.291   5.563   4.552  0.6206 -0.6085  0.7255
 5126TIP3   OH215341   0.405   1.627   3.155  1.0120  0.5896  0.0703
 5126TIP3    H115342   0.321   1.641   3.198 -0.2694 -3.2669 -0.7490
 5126TIP3    H215343   0.385   1.635   3.061  1.9186  1.1208 -0.0859
 5127TIP3   OH215344   5.356   0.741   4.959 -0.5130  0.0980 -0.4756
 5127TIP3    H115345   5.426   0.786   5.007  0.2326 -1.4230 -0.0671
 5127TIP3    H215346   5.355   0.653   4.996 -1.8661 -0.2672 -1.3141
 5128TIP3   OH215347   2.824   1.469   4.309 -0.4726  0.4098 -0.1472
 5128TIP3    H115348   2.862   1.462   4.221  0.6478  0.9946  0.2642
 5128TIP3    H215349   2.730   1.467   4.294 -0.3037 -0.3258 -1.2872
 5129TIP3   OH215350   3.327   2.809   4.819  0.1332  0.1971  0.7135
 5129TIP3    H115351   3.388   2.772   4.883  0.5785  0.9000  0.7014
 5129TIP3    H215352   3.301   2.893   4.855  0.7073  0.7909 -0.2079
 5130TIP3   OH215353   6.947   5.636   3.524 -0.5393  0.3968  0.6004
 5130TIP3    H115354   6.979   5.720   3.491 -1.4531  1.2259  1.7546
 5130TIP3    H215355   6.907   5.657   3.609 -0.5684 -1.2431  1.0242
 5131TIP3   OH215356   4.538   6.621   0.140 -0.2842  0.0468 -0.0588
 5131TIP3    H115357   4.506   6.628   0.050  1.2825  0.3811 -0.6142
 5131TIP3    H215358   4.516   6.706   0.180 -0.6466  0.0356 -0.2313
 5132TIP3   OH215359   5.651   3.315   1.487  0.1492 -0.6312  0.2288
 5132TIP3    H115360   5.655   3.239   1.545 -1.2342 -0.3176  0.7745
 5132TIP3    H215361   5.646   3.279   1.399 -1.3031 -1.2136  0.5297
 5133TIP3   OH215362   0.935   0.097   0.715 -0.1124  0.2901 -0.2148
 5133TIP3    H115363   0.949   0.013   0.671 -1.7980 -0.3491  0.4090
 5133TIP3    H215364   0.871   0.143   0.660  0.2888  0.8958 -0.1921
 5134TIP3   OH215365   1.122   3.776   0.067  0.0308 -0.0673  0.5365
 5134TIP3    H115366   1.114   3.849   0.129  2.0506  0.1015  0.6699
 5134TIP3    H215367   1.166   3.814  -0.009 -0.3883 -0.7889 -0.0834
 5135TIP3   OH215368   3.178   5.217   0.532 -0.0169  0.3516 -0.2033
 5135TIP3    H115369   3.247   5.165   0.491 -0.4778  0.8508 -1.6634
 5135TIP3    H215370   3.166   5.177   0.618 -0.8096 -2.3904 -1.4914
 5136TIP3   OH215371   2.320   0.588   0.066 -0.0810  0.0737 -0.4076
 5136TIP3    H115372   2.372   0.658   0.106  2.3934 -0.7817 -1.9449
 5136TIP3    H215373   2.253   0.568   0.132  1.5673  1.1867  1.7395
 5137TIP3   OH215374   0.491   4.173   0.611  0.4930 -0.4429 -0.0828
 5137TIP3    H115375   0.433   4.107   0.573 -1.6293  0.3526  1.5743
 5137TIP3    H215376   0.579   4.145   0.587 -0.5219 -2.0230 -2.2290
 5138TIP3   OH215377   4.586   6.372   5.383 -0.0055  0.3740  0.2014
 5138TIP3    H115378   4.679   6.356   5.368 -0.4309 -1.2596 -0.9958
 5138TIP3    H215379   4.578   6.381   5.478  1.7008  3.1783  0.1637
 5139TIP3   OH215380   2.195   2.000   4.485  0.2977  0.1421 -0.1827
 5139TIP3    H115381   2.213   2.013   4.578 -0.4347  1.2347 -0.1807
 5139TIP3    H215382   2.279   2.014   4.442  0.5038  0.2806  0.2556
 5140TIP3   OH215383   4.091   5.729   4.016 -0.0081 -0.0100 -0.3069
 5140TIP3    H115384   4.046   5.811   4.000 -1.8718 -1.3356 -2.3718
 5140TIP3    H215385   4.070   5.708   4.107 -2.4521  0.1382 -0.7733
 5141TIP3   OH215386   6.766   0.815   1.556 -0.4415  0.4150  0.2917
 5141TIP3    H115387   6.733   0.873   1.487 -1.6574 -0.5749  0.0026
 5141TIP3    H215388   6.812   0.745   1.509  1.4802  1.3584  0.6573
 5142TIP3   OH215389   5.775   1.702   2.331  0.4056 -0.1753  0.6621
 5142TIP3    H115390   5.780   1.790   2.293 -1.5211  0.7026  2.2974
 5142TIP3    H215391   5.854   1.694   2.385  1.0472  0.1530 -0.1988
 5143TIP3   OH215392   4.034   2.264   5.137  0.0899  0.2435  0.5926
 5143TIP3    H115393   4.081   2.182   5.147 -0.6491 -0.2031  0.4827
 5143TIP3    H215394   4.062   2.317   5.212  0.5262 -0.1270  0.6957
 5144TIP3   OH215395   4.204   5.158   0.170 -0.1702 -0.5068  0.2909
 5144TIP3    H115396   4.266   5.173   0.242 -0.2497  1.9393 -0.0578
 5144TIP3    H215397   4.118   5.176   0.208 -0.3409 -0.5977 -0.0460
 5145TIP3   OH215398   5.548   5.414   5.094 -0.4960  0.5320 -0.3212
 5145TIP3    H115399   5.605   5.451   5.027  1.2825  0.2063  0.9340
 5145TIP3    H215400   5.489   5.356   5.046  0.4675  0.5931 -1.6468
 5146TIP3   OH215401   4.359   5.161   3.588  0.2115 -0.4796  0.0068
 5146TIP3    H115402   4.321   5.093   3.532 -0.0831 -0.9151  0.7282
 5146TIP3    H215403   4.436   5.191   3.539  1.8325 -3.0926  0.7824
 5147TIP3   OH215404   4.269   2.619   5.680  0.1354  0.1683 -0.2370
 5147TIP3    H115405   4.278   2.661   5.765 -0.8370 -0.7556  0.3433
 5147TIP3    H215406   4.325   2.670   5.622  1.6578  0.1817  1.1741
 5148TIP3   OH215407   0.402   2.148   4.431  0.3170  0.4693  0.8753
 5148TIP3    H115408   0.404   2.067   4.379 -0.2292  1.3763 -0.6068
 5148TIP3    H215409   0.482   2.143   4.484  1.4552 -0.0436 -0.7795
 5149TIP3   OH215410   5.517   3.701   2.244 -0.2031 -0.2027  0.0261
 5149TIP3    H115411   5.570   3.671   2.318 -0.0529 -0.8837 -0.3444
 5149TIP3    H215412   5.473   3.779   2.276 -1.2654 -1.2848  1.3139
 5150TIP3   OH215413   1.725   1.884   1.623  0.1425 -0.3658 -0.6019
 5150TIP3    H115414   1.753   1.798   1.653 -1.2115 -0.2941  0.9736
 5150TIP3    H215415   1.806   1.935   1.617  0.7242 -1.1241  0.5193
 5151TIP3   OH215416   1.164   1.591   1.256 -0.0101 -0.0293  0.3516
 5151TIP3    H115417   1.141   1.584   1.348  2.3088  0.6707  1.0606
 5151TIP3    H215418   1.179   1.684   1.242 -2.4264  0.2003 -1.3607
 5152TIP3   OH215419   3.642   3.160   4.006 -1.1209 -0.5951 -0.2677
 5152TIP3    H115420   3.653   3.245   4.049 -1.1216 -0.5797 -0.2977
 5152TIP3    H215421   3.581   3.177   3.934  1.0136  0.0312 -2.0728
 5153TIP3   OH215422   2.153   3.282   4.533  0.4907  0.7130 -0.2028
 5153TIP3    H115423   2.119   3.293   4.622  1.7928 -0.5545  0.4851
 5153TIP3    H215424   2.075   3.288   4.477 -0.5253  0.3088  1.1167
 5154TIP3   OH215425   5.891   3.808   4.293 -0.4888 -0.0723 -0.0283
 5154TIP3    H115426   5.864   3.737   4.233  1.0986  0.1917 -1.1065
 5154TIP3    H215427   5.962   3.770   4.344 -1.6317 -0.1938  1.5529
 5155TIP3   OH215428   5.227   6.150   5.677  0.2377 -0.0551  0.1216
 5155TIP3    H115429   5.261   6.201   5.751 -0.7104  0.6346  0.1191
 5155TIP3    H215430   5.289   6.079   5.665  1.1748  0.6521  0.6594
 5156TIP3   OH215431   1.410   0.766   5.331 -0.0909  0.3476  0.1075
 5156TIP3    H115432   1.348   0.693   5.332  0.8933 -0.5174  0.0685
 5156TIP3    H215433   1.496   0.724   5.331  0.5045  1.5195  0.5677
 5157TIP3   OH215434   4.247   2.606   0.499  0.0550 -0.2870  0.3936
 5157TIP3    H115435   4.268   2.586   0.408  1.0467  1.4721  0.1861
 5157TIP3    H215436   4.208   2.693   0.496 -0.4329 -0.4367  1.6045
 5158TIP3   OH215437   6.331   3.741   3.923 -0.0273 -0.2735 -0.1849
 5158TIP3    H115438   6.327   3.733   3.827  2.7429 -2.2063 -0.2698
 5158TIP3    H215439   6.407   3.797   3.939  0.1902 -0.8538  0.8833
 5159TIP3   OH215440   1.334   6.321   0.182 -0.0505  0.0861 -0.5443
 5159TIP3    H115441   1.320   6.415   0.192  1.3168  0.0888  2.3795
 5159TIP3    H215442   1.286   6.298   0.102 -1.7586  2.9543 -0.4979
 5160TIP3   OH215443   7.058   5.891   3.434  0.2003  0.5309  0.3009
 5160TIP3    H115444   7.151   5.885   3.456  0.3519  0.9708 -0.1918
 5160TIP3    H215445   7.037   5.984   3.444 -0.1794  0.4410  0.3669
 5161TIP3   OH215446   3.539   0.984   1.271  0.3309 -0.3662 -0.0616
 5161TIP3    H115447   3.450   1.005   1.242  0.5491 -1.4009 -1.6061
 5161TIP3    H215448   3.539   1.003   1.365 -1.3865  0.0460 -0.1151
 5162TIP3   OH215449   1.097   4.224   2.120 -0.5963  0.0520  0.1590
 5162TIP3    H115450   1.062   4.233   2.031 -1.5424 -0.7095  0.4377
 5162TIP3    H215451   1.139   4.308   2.138 -1.8793  0.8473 -0.3821
 5163TIP3   OH215452   4.908   4.048   4.635  0.1395 -0.2570 -0.0420
 5163TIP3    H115453   4.905   4.127   4.580 -0.6877  0.6263  1.2154
 5163TIP3    H215454   4.897   3.976   4.573 -0.1056  0.6664 -1.1136
 5164TIP3   OH215455   5.906   5.501   4.236  0.0898  0.1137 -0.0627
 5164TIP3    H115456   5.870   5.582   4.200  1.1900  0.4768 -0.3615
 5164TIP3    H215457   5.999   5.504   4.215  0.0405 -1.5633 -0.7146
 5165TIP3   OH215458   0.805   4.069   0.805  0.3675 -0.2949  0.1793
 5165TIP3    H115459   0.737   4.071   0.872  0.3500 -0.3692  0.1633
 5165TIP3    H215460   0.878   4.119   0.843 -0.7816  2.4525 -0.9676
 5166TIP3   OH215461   1.539   5.722   2.138  0.4118 -0.1927  0.4676
 5166TIP3    H115462   1.629   5.753   2.148 -0.1707  1.5712  0.6826
 5166TIP3    H215463   1.547   5.633   2.104  2.2576  1.3420 -3.7085
 5167TIP3   OH215464   4.606   5.051   2.093  0.1690 -0.5100  0.4714
 5167TIP3    H115465   4.570   5.139   2.084  0.1624 -0.5165  0.4339
 5167TIP3    H215466   4.563   5.016   2.171 -1.9064 -1.4857 -1.0262
 5168TIP3   OH215467   1.967   3.820   1.003  0.0226 -0.9084 -0.3492
 5168TIP3    H115468   1.941   3.801   0.913  1.0504  1.9441 -1.3766
 5168TIP3    H215469   2.060   3.797   1.007  0.3875  0.4485 -0.5538
 5169TIP3   OH215470   3.193   5.502   4.788  0.6907  0.0881  0.2986
 5169TIP3    H115471   3.156   5.473   4.705 -1.9666  0.8279  1.1382
 5169TIP3    H215472   3.216   5.594   4.774 -2.4758  1.1265  1.0671
 5170TIP3   OH215473   5.486   0.481   1.623 -0.4314 -0.0326 -0.5963
 5170TIP3    H115474   5.520   0.406   1.575  1.5882  1.4665 -1.6537
 5170TIP3    H215475   5.490   0.455   1.715  0.6106 -1.0768 -0.9139
 5171TIP3   OH215476   5.852   3.425   5.659 -0.1888 -0.4483  0.1753
 5171TIP3    H115477   5.947   3.424   5.662 -0.0091 -0.8727 -2.8035
 5171TIP3    H215478   5.831   3.482   5.585 -2.3315  0.6119  1.4945
 5172TIP3   OH215479   3.161   2.545   4.603  0.2983 -0.4892  0.4609
 5172TIP3    H115480   3.212   2.525   4.524 -1.1368 -2.6830 -0.0185
 5172TIP3    H215481   3.070   2.541   4.574 -0.3508 -2.9177  2.4256
 5173TIP3   OH215482   3.507   3.982   0.785  0.2256  0.0609 -0.1975
 5173TIP3    H115483   3.471   4.030   0.859  0.8580  1.7573 -0.9309
 5173TIP3    H215484   3.442   3.914   0.766 -0.9285  0.9035  0.6041
 5174TIP3   OH215485   1.274   3.048   2.059 -0.0138 -0.4063 -0.0505
 5174TIP3    H115486   1.306   3.075   1.973 -0.8467 -0.8526 -0.5077
 5174TIP3    H215487   1.210   3.116   2.083  0.0311 -0.4183  0.1052
 5175TIP3   OH215488   6.075   2.707   4.905  0.2645  0.2731  0.3018
 5175TIP3    H115489   6.119   2.771   4.960  2.3609 -0.3727 -0.5327
 5175TIP3    H215490   6.136   2.691   4.834 -2.0096  0.4877 -1.8321
 5176TIP3   OH215491   4.967   1.166   3.088  0.0959  0.1639  0.2261
 5176TIP3    H115492   4.970   1.072   3.107 -1.2446 -0.1542 -0.9620
 5176TIP3    H215493   4.923   1.172   3.003 -0.0391  1.8881  0.3835
 5177TIP3   OH215494   4.691   1.606   1.444 -0.3349 -0.8056 -0.1863
 5177TIP3    H115495   4.608   1.653   1.451 -0.9696 -1.7352 -1.1213
 5177TIP3    H215496   4.758   1.674   1.443 -1.1240 -0.0143 -0.0622
 5178TIP3   OH215497   1.228   3.417   1.891  0.3029  0.7461  0.2061
 5178TIP3    H115498   1.134   3.418   1.873  0.5882  0.6328 -1.4636
 5178TIP3    H215499   1.239   3.477   1.965 -0.6718  3.7611 -1.9186
 5179TIP3   OH215500   2.651   2.506   5.674  0.0669 -0.3886  0.0396
 5179TIP3    H115501   2.608   2.574   5.622  1.2736  2.1004  2.1324
 5179TIP3    H215502   2.727   2.481   5.622 -0.1145  0.1970 -0.5170
 5180TIP3   OH215503   0.480   6.635   1.513  0.0795  0.0017  0.3537
 5180TIP3    H115504   0.476   6.720   1.469 -0.7293 -0.1205  0.1728
 5180TIP3    H215505   0.569   6.604   1.498  0.2238  0.5862 -0.0151
 5181TIP3   OH215506   6.409   6.278   5.023 -0.0298  0.0100  0.1703
 5181TIP3    H115507   6.391   6.194   5.066  1.9951  0.5149  2.1421
 5181TIP3    H215508   6.501   6.273   4.997 -0.4799  0.7978 -1.7739
 5182TIP3   OH215509   3.931   1.224   3.911 -0.1099  0.3954  0.5712
 5182TIP3    H115510   3.948   1.197   4.001  0.0095  0.5165  0.5852
 5182TIP3    H215511   3.853   1.175   3.885  0.4312 -0.4046  0.4085
 5183TIP3   OH215512   4.152   4.132   0.503  0.6142 -0.0009  0.0594
 5183TIP3    H115513   4.103   4.200   0.548  2.0934  0.9859  0.2619
 5183TIP3    H215514   4.095   4.055   0.505 -0.4112  0.7554  1.3040
 5184TIP3   OH215515   5.939   6.804   2.718  0.0284  0.0917  0.4046
 5184TIP3    H115516   5.955   6.804   2.813  0.3663 -0.4364  0.3546
 5184TIP3    H215517   6.024   6.784   2.680 -0.5025 -1.7000  0.0818
 5185TIP3   OH215518   5.877   1.236   4.870  0.1377  0.2637 -0.2511
 5185TIP3    H115519   5.798   1.285   4.892 -0.4310 -0.4821 -0.5948
 5185TIP3    H215520   5.920   1.220   4.954 -0.3283  0.2620 -0.0095
 5186TIP3   OH215521   6.983   1.324   3.323 -0.7643  0.8320 -0.2992
 5186TIP3    H115522   6.919   1.258   3.351  1.2593 -0.4850  1.4765
 5186TIP3    H215523   7.053   1.273   3.282  1.8181  1.5374  2.9258
 5187TIP3   OH215524   6.627   4.343   2.127 -0.4996  0.4460 -0.4060
 5187TIP3    H115525   6.720   4.325   2.139  0.0757  1.8360 -2.2816
 5187TIP3    H215526   6.614   4.431   2.164 -1.1934  0.0845  0.2536
 5188TIP3   OH215527   3.782   3.486   4.611  0.4899  0.0429  0.1095
 5188TIP3    H115528   3.804   3.422   4.543 -0.0745 -0.0635  0.0256
 5188TIP3    H215529   3.787   3.437   4.693 -1.3864 -0.5086 -0.0624
 5189TIP3   OH215530   4.241   6.271   3.697 -0.5398 -0.6178  0.0605
 5189TIP3    H115531   4.274   6.259   3.608  2.4168  1.1674  0.7510
 5189TIP3    H215532   4.238   6.183   3.734  0.7684 -1.1563 -1.0190
 5190TIP3   OH215533   5.421   5.222   1.808  0.3437  0.0581 -0.6428
 5190TIP3    H115534   5.404   5.302   1.757  1.0493  0.1428 -0.7560
 5190TIP3    H215535   5.340   5.208   1.857  0.4119  1.1754 -0.1863
 5191TIP3   OH215536   0.674   1.362   4.306 -0.1708 -0.0114  0.1224
 5191TIP3    H115537   0.757   1.347   4.352 -0.4182 -2.3046 -0.0777
 5191TIP3    H215538   0.618   1.404   4.371  0.7784  0.5918  0.5855
 5192TIP3   OH215539   6.058   0.415   3.432 -0.2606  0.2197  0.6070
 5192TIP3    H115540   5.981   0.373   3.470 -0.3951 -1.5453 -1.4036
 5192TIP3    H215541   6.024   0.476   3.367 -0.0103 -0.7412 -0.4584
 5193TIP3   OH215542   4.335   5.258   4.300 -0.3182  0.1240 -0.0672
 5193TIP3    H115543   4.318   5.338   4.251  0.3812  1.1881  1.3557
 5193TIP3    H215544   4.263   5.253   4.362  0.2127  0.2574  0.5699
 5194TIP3   OH215545   3.850   0.532   0.807 -0.2935 -0.2140 -0.2114
 5194TIP3    H115546   3.885   0.610   0.763 -1.3154  0.2215 -0.2719
 5194TIP3    H215547   3.925   0.496   0.854  0.3215  0.4984 -0.6154
 5195TIP3   OH215548   2.933   4.057   1.646 -0.1523 -0.2927 -0.5084
 5195TIP3    H115549   2.911   3.968   1.622 -2.1578  0.2497 -0.8234
 5195TIP3    H215550   2.904   4.111   1.572 -0.2678  0.7563  0.2734
 5196TIP3   OH215551   0.426   5.440   0.081  0.2515 -0.1616  0.7311
 5196TIP3    H115552   0.351   5.436   0.140  0.1287 -0.3469  0.5655
 5196TIP3    H215553   0.497   5.477   0.133 -0.2173  0.9343  0.6249
 5197TIP3   OH215554   1.400   3.734   3.231 -0.5083 -0.1193  0.2861
 5197TIP3    H115555   1.341   3.668   3.267 -0.6297  0.3769  0.9971
 5197TIP3    H215556   1.357   3.818   3.248  1.1539  0.3930  2.3684
 5198TIP3   OH215557   5.865   2.204   4.373 -0.0196  0.3270 -0.7537
 5198TIP3    H115558   5.830   2.142   4.309  1.5232 -0.1405 -1.1738
 5198TIP3    H215559   5.946   2.164   4.405 -0.6684  0.6082  1.4304
 5199TIP3   OH215560   0.175   2.558   3.546 -0.0268  0.2469  0.0115
 5199TIP3    H115561   0.243   2.570   3.613  1.2982  0.2798 -1.2983
 5199TIP3    H215562   0.161   2.646   3.511  1.2586 -0.1498 -1.5896
 5200TIP3   OH215563   4.165   3.460   5.473 -0.2286  0.6625 -0.6684
 5200TIP3    H115564   4.098   3.518   5.510  0.5061  0.5762  0.8795
 5200TIP3    H215565   4.216   3.431   5.549 -0.9605 -2.5820 -1.2699
 5201TIP3   OH215566   3.468   1.534   3.923  0.4986 -0.8163  0.3409
 5201TIP3    H115567   3.477   1.482   3.843  3.7353 -2.9212  1.8462
 5201TIP3    H215568   3.540   1.597   3.920 -0.9667  0.9174  0.4207
 5202TIP3   OH215569   5.610   1.007   4.973  0.4181 -0.2766 -0.3067
 5202TIP3    H115570   5.698   0.972   4.963  1.4112  1.2651  2.0543
 5202TIP3    H215571   5.572   0.955   5.045 -0.2595 -0.3028 -0.6727
 5203TIP3   OH215572   3.686   3.673   3.618  0.3871  0.3026  0.0980
 5203TIP3    H115573   3.627   3.635   3.553 -1.7435  2.7124  0.4911
 5203TIP3    H215574   3.744   3.730   3.567  0.8586 -0.2570 -0.0089
 5204TIP3   OH215575   6.700   3.041   4.129  0.3142  0.0790  0.7084
 5204TIP3    H115576   6.794   3.036   4.146  0.3136  0.2028  0.7465
 5204TIP3    H215577   6.672   2.950   4.127  0.6840 -0.0232 -0.7127
 5205TIP3   OH215578   5.528   1.972   0.034 -0.2582 -0.0033  0.2283
 5205TIP3    H115579   5.559   2.048   0.084  0.3991  1.1410 -1.7736
 5205TIP3    H215580   5.595   1.905   0.049  0.0851  0.4225  0.6423
 5206TIP3   OH215581   0.637   3.793   2.922  0.6491 -0.0348  0.3140
 5206TIP3    H115582   0.721   3.781   2.878  0.1161 -3.0346 -0.1213
 5206TIP3    H215583   0.576   3.816   2.852  0.8446  0.9466  0.4481
 5207TIP3   OH215584   4.547   6.122   2.291 -0.4921 -0.5155 -0.0715
 5207TIP3    H115585   4.596   6.170   2.224 -2.5922  0.7080 -0.8084
 5207TIP3    H215586   4.487   6.186   2.329 -1.2778 -1.8562  1.0514
 5208TIP3   OH215587   5.909   1.638   1.934  0.0013  0.6251  0.0783
 5208TIP3    H115588   5.875   1.585   2.006 -0.4058  0.0064 -0.5504
 5208TIP3    H215589   5.890   1.586   1.856  2.0210  0.4469 -0.3424
 5209TIP3   OH215590   5.796   5.547   0.205 -0.0521  0.1547 -0.4058
 5209TIP3    H115591   5.753   5.632   0.195  1.3920  1.0016  0.1720
 5209TIP3    H215592   5.746   5.502   0.273 -0.0041  1.1404  0.3041
 5210TIP3   OH215593   6.189   0.750   1.710  0.0132 -0.2982 -0.6854
 5210TIP3    H115594   6.219   0.825   1.760 -2.7667  1.0483 -0.8178
 5210TIP3    H215595   6.218   0.766   1.620  0.1645  0.1837 -0.5477
 5211TIP3   OH215596   4.948   6.347   4.700  0.1264 -0.0046 -0.7340
 5211TIP3    H115597   4.930   6.340   4.794  0.7690  0.6186 -0.5534
 5211TIP3    H215598   4.862   6.342   4.658 -0.1528 -0.4337 -0.1266
 5212TIP3   OH215599   2.463   2.048   4.380 -0.1486  0.0406 -0.1564
 5212TIP3    H115600   2.451   2.069   4.288  1.4442 -0.3770 -0.4809
 5212TIP3    H215601   2.508   2.124   4.417  0.2988 -0.2945  0.0001
 5213TIP3   OH215602   1.288   3.403   0.162 -0.2360 -0.4997  0.6104
 5213TIP3    H115603   1.218   3.390   0.098 -0.8961 -0.1630  1.2344
 5213TIP3    H215604   1.251   3.466   0.224  1.3314  1.2583 -0.1195
 5214TIP3   OH215605   0.635   4.101   5.862  0.2286  0.3206  0.1756
 5214TIP3    H115606   0.656   4.167   5.929  0.1975 -0.7366  1.2497
 5214TIP3    H215607   0.556   4.134   5.821 -0.6537  0.2337  1.7309
 5215TIP3   OH215608   5.726   0.840   3.443 -0.5859  0.4861  0.1465
 5215TIP3    H115609   5.693   0.770   3.500  1.3881  1.2994  2.4232
 5215TIP3    H215610   5.679   0.918   3.471  0.3641  0.8846  0.6545
 5216TIP3   OH215611   5.515   6.172   4.071 -0.2547  0.4770  1.0823
 5216TIP3    H115612   5.515   6.263   4.101  0.1553  0.3665  1.4281
 5216TIP3    H215613   5.588   6.131   4.119  1.4199  0.6615 -1.1614
 5217TIP3   OH215614   3.987   5.894   0.891 -0.8176  0.3960 -0.1704
 5217TIP3    H115615   3.997   5.990   0.895  0.4505  0.2867 -0.1619
 5217TIP3    H215616   4.076   5.861   0.904 -1.4739 -0.8431  1.4533
 5218TIP3   OH215617   4.978   4.672   1.898  0.5989  0.1365 -0.5861
 5218TIP3    H115618   4.896   4.650   1.853  0.5350  0.3132 -0.5570
 5218TIP3    H215619   5.025   4.589   1.905  1.2075  0.3051 -2.1763
 5219TIP3   OH215620   0.582   1.368   0.966 -0.2689 -0.4172  0.3332
 5219TIP3    H115621   0.621   1.411   0.890  0.5067  0.1390  1.0306
 5219TIP3    H215622   0.545   1.287   0.931 -0.3509  0.0613 -0.7192
 5220TIP3   OH215623   4.946   1.458   4.675  0.4349 -0.5233  0.4779
 5220TIP3    H115624   4.892   1.425   4.603  0.4542  0.7902 -0.1751
 5220TIP3    H215625   5.029   1.412   4.666  1.2525  1.1875 -1.7750
 5221TIP3   OH215626   3.990   4.682   5.306  0.2876 -0.8195  0.3120
 5221TIP3    H115627   3.966   4.651   5.219  1.2282 -1.8744  0.3997
 5221TIP3    H215628   3.981   4.777   5.302 -0.7364 -0.9441 -0.5936
 5222TIP3   OH215629   5.558   3.512   5.634 -0.3662 -0.1633 -0.0939
 5222TIP3    H115630   5.549   3.423   5.600 -1.3115 -0.1420  0.0846
 5222TIP3    H215631   5.648   3.516   5.667  0.5076 -0.2734 -2.3102
 5223TIP3   OH215632   0.740   5.853   2.919  0.4626 -0.2995 -0.4785
 5223TIP3    H115633   0.669   5.899   2.874  1.8065  1.9708 -0.4185
 5223TIP3    H215634   0.696   5.782   2.967 -1.8260  1.3081 -0.0491
 5224TIP3   OH215635   0.459   1.602   4.704 -0.1528 -0.1905 -0.2444
 5224TIP3    H115636   0.457   1.525   4.760  2.0512 -0.3571 -0.2944
 5224TIP3    H215637   0.495   1.570   4.621 -0.0920  0.7099 -0.5796
 5225TIP3   OH215638   3.655   3.661   5.196  0.4257  0.7751  0.0060
 5225TIP3    H115639   3.667   3.735   5.255 -0.6394  0.6106  0.4517
 5225TIP3    H215640   3.584   3.687   5.138  0.1660  0.1814  0.0489
 5226TIP3   OH215641   5.558   5.244   5.354  0.4210  0.2693 -0.4718
 5226TIP3    H115642   5.558   5.303   5.279 -0.2526 -0.5148 -1.1045
 5226TIP3    H215643   5.525   5.161   5.320 -0.5047  0.0741  0.8202
 5227TIP3   OH215644   4.399   1.544   1.684  0.3792  0.2106  0.4020
 5227TIP3    H115645   4.353   1.513   1.762 -0.3127 -0.3087 -0.1981
 5227TIP3    H215646   4.334   1.599   1.639  0.3437 -0.4963 -0.4316
 5228TIP3   OH215647   0.970   2.289   4.445 -0.1632 -0.8797  0.4791
 5228TIP3    H115648   0.892   2.246   4.411 -0.3663  0.5442 -0.9794
 5228TIP3    H215649   0.939   2.374   4.477  0.8941  0.2268 -1.2525
 5229TIP3   OH215650   4.658   3.782   3.803 -0.6038 -0.2026  0.2252
 5229TIP3    H115651   4.653   3.795   3.708 -0.2234  0.5235  0.3019
 5229TIP3    H215652   4.601   3.849   3.840 -1.9387 -1.4217  0.4671
 5230TIP3   OH215653   2.987   4.810   1.795  0.3421 -0.4860 -0.1524
 5230TIP3    H115654   3.076   4.821   1.828 -0.4649  2.5374  1.3797
 5230TIP3    H215655   2.952   4.736   1.844  1.6014 -0.8949  0.1620
 5231TIP3   OH215656   4.656   2.240   1.586  0.5012  0.1941  0.2122
 5231TIP3    H115657   4.667   2.218   1.679  0.4656 -0.1069  0.1475
 5231TIP3    H215658   4.670   2.157   1.540 -1.1105 -0.0193  0.0609
 5232TIP3   OH215659   3.728   3.883   2.873 -0.1393  0.1728  0.6701
 5232TIP3    H115660   3.728   3.911   2.964  1.5100  2.7034 -0.0124
 5232TIP3    H215661   3.648   3.920   2.836  0.1930  0.8870  0.6468
 5233TIP3   OH215662   4.739   5.878   4.409 -0.2818  0.2980 -0.3134
 5233TIP3    H115663   4.650   5.905   4.434  0.0581 -0.6408  2.2670
 5233TIP3    H215664   4.796   5.943   4.451  0.3433 -1.5127  1.8527
 5234TIP3   OH215665   4.500   5.931   1.971 -0.1534 -0.1087 -0.1164
 5234TIP3    H115666   4.464   5.855   1.925 -1.1193  0.2691 -0.0170
 5234TIP3    H215667   4.426   5.991   1.978  0.3836  0.4862  0.5615
 5235TIP3   OH215668   1.454   5.422   0.871 -0.6394  0.1065  0.0534
 5235TIP3    H115669   1.423   5.500   0.825 -1.1302  0.0546  0.3002
 5235TIP3    H215670   1.375   5.377   0.900 -0.4254 -1.3767 -1.5349
 5236TIP3   OH215671   6.720   4.524   3.081 -0.2652  0.7148  0.1306
 5236TIP3    H115672   6.722   4.559   3.170 -1.9249 -1.4816  1.1051
 5236TIP3    H215673   6.643   4.467   3.079 -0.6809  1.2170 -2.9326
 5237TIP3   OH215674   6.161   4.455   1.613 -0.4248  0.3710  0.4563
 5237TIP3    H115675   6.132   4.400   1.685 -0.7237 -1.4272 -0.9648
 5237TIP3    H215676   6.170   4.395   1.539  0.7839  1.9732 -0.7782
 5238TIP3   OH215677   4.804   3.180   5.823  0.2191 -0.4761 -0.1052
 5238TIP3    H115678   4.776   3.267   5.853 -0.2583 -0.7149  0.1333
 5238TIP3    H215679   4.726   3.141   5.786  0.7187 -0.3325 -1.3386
 5239TIP3   OH215680   1.735   5.835   4.042 -0.5513 -0.3112  0.2339
 5239TIP3    H115681   1.682   5.877   4.109  1.2756  1.6609  0.5744
 5239TIP3    H215682   1.770   5.756   4.084  0.7200  0.9862  1.7335
 5240TIP3   OH215683   0.250   6.327   2.675  0.2091 -0.0401 -0.7291
 5240TIP3    H115684   0.308   6.375   2.616  0.5676 -0.8106 -1.0041
 5240TIP3    H215685   0.185   6.286   2.618 -0.2160  0.2559 -0.4743
 5241TIP3   OH215686   5.277   0.145   2.075  0.0940  0.7294 -0.1780
 5241TIP3    H115687   5.370   0.146   2.051 -0.0204  1.5594 -0.6297
 5241TIP3    H215688   5.276   0.149   2.171  0.5484 -1.7583  0.0075
 5242TIP3   OH215689   3.132   1.309   4.593  0.3960 -0.0618  0.1777
 5242TIP3    H115690   3.049   1.290   4.548  0.4948  0.9924 -0.4940
 5242TIP3    H215691   3.144   1.236   4.654  0.1309 -1.4222 -1.3311
 5243TIP3   OH215692   5.379   4.608   3.910 -0.0291 -0.1469 -0.4059
 5243TIP3    H115693   5.316   4.679   3.918  0.0511 -0.1860  0.7996
 5243TIP3    H215694   5.464   4.648   3.929 -0.1562 -0.8245  2.0702
 5244TIP3   OH215695   5.357   2.824   0.484  0.3423  0.2424  0.3491
 5244TIP3    H115696   5.310   2.875   0.418  1.9540  2.1529  0.5638
 5244TIP3    H215697   5.325   2.735   0.473 -0.4603  0.7536 -2.0628
 5245TIP3   OH215698   6.230   6.355   4.850  0.1910 -0.1644 -0.2521
 5245TIP3    H115699   6.280   6.315   4.921 -0.2238 -0.6057 -0.2017
 5245TIP3    H215700   6.169   6.413   4.894 -0.9636 -1.4082 -0.1291
 5246TIP3   OH215701   3.797   2.434   0.148  0.3152  0.1961 -0.2185
 5246TIP3    H115702   3.860   2.434   0.221  0.7449 -0.6053 -0.5700
 5246TIP3    H215703   3.833   2.498   0.086  0.1983  0.5382  0.0640
 5247TIP3   OH215704   3.050   3.160   5.066  0.4689 -0.0016 -0.8497
 5247TIP3    H115705   3.022   3.250   5.084  0.0936  0.0124 -1.4710
 5247TIP3    H215706   3.030   3.112   5.147 -2.0023 -0.1302 -1.4527
 5248TIP3   OH215707   5.319   0.673   3.220 -0.4177 -0.5995  0.5216
 5248TIP3    H115708   5.288   0.756   3.258 -1.9476 -1.5725  1.4929
 5248TIP3    H215709   5.349   0.622   3.294  0.7426 -0.8575 -0.1023
 5249TIP3   OH215710   0.973   3.047   3.287  0.0569  0.2031  0.2629
 5249TIP3    H115711   0.980   3.019   3.378 -1.0463  0.8030  0.5604
 5249TIP3    H215712   0.964   2.966   3.237 -0.5243 -0.0879  0.8278
 5250TIP3   OH215713   4.575   2.511   0.118  0.0440 -0.2446 -0.0343
 5250TIP3    H115714   4.652   2.456   0.129 -0.8454 -1.4357  0.3831
 5250TIP3    H215715   4.565   2.520   0.023  1.8331  1.6127 -0.1209
 5251TIP3   OH215716   7.003   0.108   5.389  0.4805  0.5547  0.1874
 5251TIP3    H115717   7.023   0.198   5.412 -1.4676  0.7767  1.2190
 5251TIP3    H215718   7.000   0.107   5.294 -0.8596  1.9238  0.1987
 5252TIP3   OH215719   3.858   2.081   5.847 -0.5430  0.2752  0.2086
 5252TIP3    H115720   3.797   2.028   5.899 -1.6710  1.4210  0.0947
 5252TIP3    H215721   3.804   2.118   5.778  0.8343 -0.8400 -1.5678
 5253TIP3   OH215722   4.887   4.858   1.651  0.6808 -0.1311 -0.2035
 5253TIP3    H115723   4.879   4.871   1.746 -2.0219 -5.2213  0.6155
 5253TIP3    H215724   4.809   4.901   1.615 -0.4750 -1.5084  0.5262
 5254TIP3   OH215725   1.955   0.100   3.821 -0.3644  0.1670 -0.7926
 5254TIP3    H115726   1.922   0.150   3.747  3.1852  0.9046 -2.0941
 5254TIP3    H215727   1.936   0.009   3.798  1.7409  0.2402 -3.4474
 5255TIP3   OH215728   2.768   6.448   3.811  0.0408 -0.0076 -0.8006
 5255TIP3    H115729   2.694   6.472   3.755 -0.7954  2.1673  1.0708
 5255TIP3    H215730   2.731   6.389   3.876 -0.3354  1.6740  0.5956
 5256TIP3   OH215731   3.419   2.518   3.446 -0.3680  0.2473  0.1055
 5256TIP3    H115732   3.398   2.425   3.455  1.6170 -0.1751  0.9368
 5256TIP3    H215733   3.380   2.558   3.524 -0.6064  0.0037  0.1164
 5257TIP3   OH215734   5.278   3.719   5.072 -0.5647 -0.4423 -0.2024
 5257TIP3    H115735   5.344   3.735   5.005 -1.7783  2.5316 -0.8379
 5257TIP3    H215736   5.195   3.716   5.024 -1.1634 -1.5861  0.8390
 5258TIP3   OH215737   3.075   2.396   5.127 -0.0554  0.3102  0.2277
 5258TIP3    H115738   2.994   2.437   5.095 -1.3292 -2.5939 -0.5705
 5258TIP3    H215739   3.144   2.458   5.103 -1.9899  3.1184  1.3382
 5259TIP3   OH215740   3.573   3.945   2.624 -0.0778  0.0238 -0.5362
 5259TIP3    H115741   3.547   4.034   2.602 -1.6141 -0.0152  0.8409
 5259TIP3    H215742   3.490   3.900   2.642  0.7786 -0.9475  1.3482
 5260TIP3   OH215743   2.439   0.168   3.192 -0.0094 -0.1160 -0.0482
 5260TIP3    H115744   2.515   0.225   3.206  1.4980 -2.3681  1.4831
 5260TIP3    H215745   2.367   0.229   3.175  1.6211  2.2237  0.8811
 5261TIP3   OH215746   6.248   4.010   0.341 -0.2202 -0.4211 -0.4881
 5261TIP3    H115747   6.245   3.943   0.272 -1.0962  0.2723 -1.1426
 5261TIP3    H215748   6.260   4.092   0.294 -1.2818  0.1168  0.1391
 5262TIP3   OH215749   1.670   2.958   1.413 -0.4780 -0.1039 -0.3012
 5262TIP3    H115750   1.634   2.877   1.448 -0.3012  0.0020  0.1217
 5262TIP3    H215751   1.759   2.962   1.447 -0.7226  0.6312  0.2767
 5263TIP3   OH215752   6.561   2.945   3.486  0.3059  0.4757 -0.5238
 5263TIP3    H115753   6.522   2.884   3.424 -0.5552 -0.0135  0.4700
 5263TIP3    H215754   6.543   3.032   3.449 -0.1931  0.1894 -0.9595
 5264TIP3   OH215755   0.712   3.300   2.498  0.0726 -0.5346 -0.4782
 5264TIP3    H115756   0.660   3.249   2.560  0.9609 -1.3585 -0.3710
 5264TIP3    H215757   0.705   3.390   2.529  0.6731 -0.9454  0.9921
 5265TIP3   OH215758   2.985   2.687   2.575 -0.2666 -0.1548  0.1443
 5265TIP3    H115759   3.059   2.684   2.637 -0.6262 -1.0765  0.5523
 5265TIP3    H215760   2.965   2.595   2.558 -0.3739  0.0912 -1.1220
 5266TIP3   OH215761   6.026   0.715   4.012  0.2157  0.0674  0.9377
 5266TIP3    H115762   5.961   0.747   4.074 -0.4988  0.8428 -0.1560
 5266TIP3    H215763   6.043   0.790   3.955 -1.2797 -1.3219 -1.5455
 5267TIP3   OH215764   4.518   2.962   3.560 -0.1005  0.1683 -0.5115
 5267TIP3    H115765   4.534   3.047   3.602  3.5351 -0.4150 -0.4497
 5267TIP3    H215766   4.522   2.981   3.466  0.2574  0.1469 -0.5020
 5268TIP3   OH215767   1.808   6.528   3.895 -0.6335  0.3845  0.4063
 5268TIP3    H115768   1.778   6.605   3.847  1.9757  1.7296  0.7018
 5268TIP3    H215769   1.762   6.532   3.978 -1.0491  1.2406  0.1450
 5269TIP3   OH215770   3.484   4.685   2.787 -0.4142  0.8107 -0.1546
 5269TIP3    H115771   3.528   4.627   2.849  1.2513  0.1088 -1.8882
 5269TIP3    H215772   3.485   4.637   2.704 -3.1638  1.4272 -0.6400
 5270TIP3   OH215773   2.100   0.983   1.212  0.3344 -0.7002  0.3160
 5270TIP3    H115774   2.087   1.056   1.272 -0.3630 -0.4865 -0.0804
 5270TIP3    H215775   2.140   1.022   1.134 -0.1156 -0.7148  0.0702
 5271TIP3   OH215776   6.845   1.960   3.449  0.2000  0.5427  0.1737
 5271TIP3    H115777   6.939   1.961   3.429 -0.0293  1.4957 -0.9302
 5271TIP3    H215778   6.809   1.894   3.390 -0.1930  2.0382 -1.3349
 5272TIP3   OH215779   5.992   5.620   1.967  0.0295  0.7553  0.4489
 5272TIP3    H115780   6.067   5.569   1.997 -1.1332 -1.1307  0.2940
 5272TIP3    H215781   5.921   5.595   2.026 -1.8182 -1.5876 -2.5170
 5273TIP3   OH215782   5.661   3.018   4.607 -0.0291 -0.4318 -0.8051
 5273TIP3    H115783   5.618   2.983   4.685 -0.4361  0.9369 -0.3827
 5273TIP3    H215784   5.714   2.946   4.574 -1.1604 -1.5644 -0.2253
 5274TIP3   OH215785   0.582   5.164   1.677  0.0600  0.2620 -0.1204
 5274TIP3    H115786   0.620   5.197   1.759  0.9521  0.4451 -0.6000
 5274TIP3    H215787   0.492   5.140   1.701 -0.4153  2.3307  0.4231
 5275TIP3   OH215788   0.685   0.622   3.771 -0.2811  0.7386  0.2450
 5275TIP3    H115789   0.637   0.655   3.846 -1.0305  1.2579 -0.4495
 5275TIP3    H215790   0.620   0.575   3.719  0.1022  0.8724 -0.3659
 5276TIP3   OH215791   0.497   2.194   5.202  0.4316  0.4470  0.2313
 5276TIP3    H115792   0.586   2.222   5.183  0.6507  0.5344  1.3747
 5276TIP3    H215793   0.448   2.275   5.212 -0.2125  0.4468 -2.1584
 5277TIP3   OH215794   1.319   3.225   3.326 -0.2565 -0.0020 -0.1052
 5277TIP3    H115795   1.306   3.259   3.238  0.0261  0.3124 -0.0301
 5277TIP3    H215796   1.274   3.289   3.382 -2.0828 -1.1806 -0.1321
 5278TIP3   OH215797   6.070   3.721   2.558  0.2750  0.0294  0.5714
 5278TIP3    H115798   6.049   3.651   2.621  0.9055  0.5160  1.3440
 5278TIP3    H215799   6.069   3.801   2.611 -2.1040  0.8540 -0.6279
 5279TIP3   OH215800   1.058   2.772   0.451  0.3609  0.1121  0.0676
 5279TIP3    H115801   1.018   2.842   0.502 -0.4501 -0.5596  0.3876
 5279TIP3    H215802   1.013   2.693   0.480  1.8235 -0.6602  0.3084
 5280TIP3   OH215803   3.733   0.998   3.878  0.8088 -0.6838  0.5497
 5280TIP3    H115804   3.656   1.028   3.830  1.5786 -0.7316 -0.7676
 5280TIP3    H215805   3.698   0.956   3.957 -0.5863 -1.7851 -0.6078
 5281TIP3   OH215806   7.177   6.692   3.941  0.3818 -0.0234 -0.4208
 5281TIP3    H115807   7.193   6.634   3.867 -0.9318  0.0619 -0.7946
 5281TIP3    H215808   7.132   6.768   3.903  0.0185  0.1829  0.4029
 5282TIP3   OH215809   5.292   6.684   0.034  0.1712 -0.2070 -0.5076
 5282TIP3    H115810   5.321   6.635   0.110 -0.9863  1.3664  1.0280
 5282TIP3    H215811   5.287   6.774   0.064  0.2318  0.5514 -2.6295
 5283TIP3   OH215812   6.721   3.325   1.618  0.7287 -0.2326 -0.4565
 5283TIP3    H115813   6.811   3.355   1.612  0.5925 -0.1256 -3.2826
 5283TIP3    H215814   6.693   3.350   1.706  3.6953 -1.1270  0.8606
 5284TIP3   OH215815   5.696   3.099   1.136  0.0153 -0.1732  0.8351
 5284TIP3    H115816   5.755   3.086   1.062 -1.0037  0.1046 -0.0638
 5284TIP3    H215817   5.634   3.027   1.130 -1.0618  0.7463  0.4033
 5285TIP3   OH215818   2.461   0.152   3.663 -0.2132  0.1582 -0.6353
 5285TIP3    H115819   2.397   0.223   3.652 -1.0879 -0.4968  0.1416
 5285TIP3    H215820   2.534   0.193   3.709 -0.1186  0.8728 -1.3864
 5286TIP3   OH215821   4.604   4.296   2.409  0.2799 -0.1949 -0.0122
 5286TIP3    H115822   4.543   4.251   2.351 -1.3456 -0.1385  1.5578
 5286TIP3    H215823   4.584   4.389   2.397  1.6966 -0.0002 -1.1741
 5287TIP3   OH215824   0.903   4.531   4.849  0.3177  0.2079 -0.4912
 5287TIP3    H115825   0.900   4.588   4.772  1.8650  0.9369 -0.0633
 5287TIP3    H215826   0.814   4.534   4.884 -0.2005  0.5294 -1.7700
 5288TIP3   OH215827   0.529   1.601   2.079 -0.5404 -0.0815 -0.7859
 5288TIP3    H115828   0.557   1.632   1.993 -0.7055  0.5096 -0.6341
 5288TIP3    H215829   0.433   1.609   2.077 -0.5303  0.1412 -0.4736
 5289TIP3   OH215830   3.028   2.112   3.361 -0.1174  0.0778 -0.6643
 5289TIP3    H115831   3.000   2.113   3.270  2.1948  1.8082 -1.4680
 5289TIP3    H215832   2.991   2.192   3.398 -1.6140 -0.9514  0.1810
 5290TIP3   OH215833   3.124   5.277   5.750 -0.1613  0.7834 -0.4852
 5290TIP3    H115834   3.086   5.358   5.716  0.4122  0.3806 -2.2207
 5290TIP3    H215835   3.104   5.212   5.683  0.8196 -0.1373  0.0832
 5291TIP3   OH215836   4.942   5.211   5.506  0.3266 -0.6884 -0.4559
 5291TIP3    H115837   4.864   5.264   5.487  1.6923  1.5381 -0.3068
 5291TIP3    H215838   4.960   5.164   5.424  1.1585  2.0763 -2.0177
 5292TIP3   OH215839   2.871   4.609   1.954 -0.3176 -0.5113  0.2922
 5292TIP3    H115840   2.827   4.526   1.935  0.4360 -0.5385 -1.4873
 5292TIP3    H215841   2.806   4.660   2.002 -1.6909 -1.1853 -0.7830
 5293TIP3   OH215842   2.409   1.231   5.713  0.7098  0.1336  0.3920
 5293TIP3    H115843   2.434   1.204   5.625  0.5193 -1.1349  0.7049
 5293TIP3    H215844   2.460   1.175   5.772 -0.4186 -0.2372  1.0613
 5294TIP3   OH215845   6.790   2.224   0.899 -0.1582 -0.4633  0.2682
 5294TIP3    H115846   6.739   2.197   0.975 -0.6351  1.3045  0.6225
 5294TIP3    H215847   6.758   2.312   0.879  2.3591  0.5044  0.1753
 5295TIP3   OH215848   6.739   1.801   3.268  0.2335 -0.2592 -0.3659
 5295TIP3    H115849   6.748   1.824   3.176 -0.1798 -0.2278 -0.3972
 5295TIP3    H215850   6.752   1.706   3.270 -2.7221 -0.7599 -0.8765
 5296TIP3   OH215851   7.077   6.368   0.215  0.8971  0.4078 -0.2960
 5296TIP3    H115852   7.075   6.384   0.121  1.6839 -0.6283 -0.5065
 5296TIP3    H215853   7.124   6.443   0.252  1.4175  0.3459 -0.8341
 5297TIP3   OH215854   5.926   4.425   3.058  0.1308  0.1933  0.5561
 5297TIP3    H115855   5.904   4.488   2.989  0.3443  0.2221  0.5124
 5297TIP3    H215856   6.003   4.379   3.024 -0.4743 -0.6176  0.2556
 5298TIP3   OH215857   7.110   5.755   1.777 -0.4217 -0.0052 -0.1731
 5298TIP3    H115858   7.044   5.808   1.822  0.2542 -0.2070  1.0695
 5298TIP3    H215859   7.071   5.739   1.690 -1.5823  0.6831  0.1910
 5299TIP3   OH215860   3.074   6.692   5.591 -0.1827  0.0992 -0.1179
 5299TIP3    H115861   2.983   6.673   5.613 -0.4796 -0.6186 -1.7957
 5299TIP3    H215862   3.084   6.785   5.611 -1.5991  0.4373 -0.7855
 5300TIP3   OH215863   4.339   4.582   2.856 -0.1977  0.0780 -0.7012
 5300TIP3    H115864   4.302   4.537   2.932 -0.1002 -1.1396 -1.3594
 5300TIP3    H215865   4.352   4.672   2.886 -1.1299 -0.1286  0.3991
 5301TIP3   OH215866   5.751   4.835   4.266 -0.0822  0.3633 -0.0783
 5301TIP3    H115867   5.768   4.902   4.201 -0.2986 -0.2547 -0.7871
 5301TIP3    H215868   5.838   4.810   4.299  0.0538  0.4144 -0.3987
 5302TIP3   OH215869   0.608   1.143   4.157 -0.3051 -0.2188  0.5690
 5302TIP3    H115870   0.631   1.227   4.197 -1.3282  0.1862  0.3510
 5302TIP3    H215871   0.681   1.086   4.177  0.3347  0.6810  0.8688
 5303TIP3   OH215872   5.730   1.848   0.920  0.4716 -0.1959 -0.1075
 5303TIP3    H115873   5.812   1.838   0.969 -0.2405 -0.1628  1.1370
 5303TIP3    H215874   5.690   1.761   0.922 -0.8663  0.3972  1.8281
 5304TIP3   OH215875   4.846   4.016   2.251 -0.2820 -0.3256  0.3256
 5304TIP3    H115876   4.838   3.976   2.337  1.8306  0.8472  1.1260
 5304TIP3    H215877   4.860   4.109   2.269 -0.1642  0.0006 -1.2983
 5305TIP3   OH215878   0.023   1.574   0.614  0.1247 -0.6486  0.3172
 5305TIP3    H115879  -0.049   1.628   0.648  0.2025  0.8370 -1.7085
 5305TIP3    H215880   0.026   1.499   0.674 -1.1010  0.7309  2.2463
 5306TIP3   OH215881   3.965   5.378   2.738  0.0510 -0.2934  0.3251
 5306TIP3    H115882   3.944   5.401   2.647  0.1879  0.2249  0.4175
 5306TIP3    H215883   3.884   5.393   2.786 -0.2159 -1.2311  0.1780
 5307TIP3   OH215884   2.968   3.441   4.873 -0.2515 -0.2434  0.2849
 5307TIP3    H115885   2.876   3.466   4.880 -0.3826  0.3398 -2.3738
 5307TIP3    H215886   2.969   3.372   4.806  1.3091  0.4873 -0.5055
 5308TIP3   OH215887   1.966   6.110   0.319 -0.0497 -0.1710 -0.2877
 5308TIP3    H115888   2.039   6.055   0.290  1.0772  0.6740  0.8423
 5308TIP3    H215889   1.926   6.061   0.391 -1.1564 -1.0184 -1.4390
 5309TIP3   OH215890   1.602   3.348   2.301  0.0917  0.0087  0.2585
 5309TIP3    H115891   1.641   3.328   2.215  3.6508  0.4651  1.5871
 5309TIP3    H215892   1.521   3.395   2.280  1.2104  0.8075 -2.8990
 5310TIP3   OH215893   0.214   4.139   2.322  0.0553  0.2969  0.1446
 5310TIP3    H115894   0.257   4.190   2.391  1.3121  0.7489 -0.9362
 5310TIP3    H215895   0.207   4.200   2.249  0.0693 -0.6004 -0.6152
 5311TIP3   OH215896   2.824   3.330   4.089  0.1952 -0.5083 -0.3855
 5311TIP3    H115897   2.749   3.274   4.072 -0.3520  0.7630 -2.7679
 5311TIP3    H215898   2.897   3.288   4.042  0.5741 -0.8696  0.5130
 5312TIP3   OH215899   5.109   6.260   2.402  0.3886 -0.4211  0.3195
 5312TIP3    H115900   5.022   6.294   2.379  1.5426  0.4444 -3.3300
 5312TIP3    H215901   5.119   6.181   2.350  1.3506 -1.2528  1.6970
 5313TIP3   OH215902   4.696   4.602   1.884  0.6846 -0.2394  0.0724
 5313TIP3    H115903   4.666   4.586   1.973  0.3861  3.6747  0.8449
 5313TIP3    H215904   4.716   4.515   1.849 -0.4102 -2.0164  3.4740
 5314TIP3   OH215905   0.366   1.164   4.695  0.2395  0.4123 -0.4975
 5314TIP3    H115906   0.323   1.079   4.711 -0.5845  0.7667 -0.8134
 5314TIP3    H215907   0.435   1.144   4.633 -0.9803  0.2338 -1.8426
 5315TIP3   OH215908   1.673   1.233   3.923 -0.2885 -0.0362  0.2641
 5315TIP3    H115909   1.748   1.258   3.870 -0.2297 -1.2521 -0.2474
 5315TIP3    H215910   1.639   1.316   3.957 -0.6566  0.8604 -2.0953
 5316TIP3   OH215911   1.230   4.961   5.626  0.0661 -0.0793 -0.0193
 5316TIP3    H115912   1.277   4.878   5.630 -0.3385 -0.5346 -2.6633
 5316TIP3    H215913   1.279   5.013   5.563 -0.7818  0.9322  0.1339
 5317TIP3   OH215914   3.897   0.693   5.853  0.2126  0.7471  0.4062
 5317TIP3    H115915   3.930   0.762   5.795 -0.0951  0.7072  0.1804
 5317TIP3    H215916   3.815   0.728   5.888 -0.9759 -0.2705 -1.2435
 5318TIP3   OH215917   4.496   3.244   0.632  0.0689  0.1116 -0.1361
 5318TIP3    H115918   4.448   3.190   0.695 -0.2963 -2.2180 -2.2705
 5318TIP3    H215919   4.588   3.225   0.650 -0.0307 -0.4928 -0.2450
 5319TIP3   OH215920   4.075   3.841   3.730 -0.0152  0.3154  0.1993
 5319TIP3    H115921   4.171   3.843   3.732  0.0027  0.1343 -0.2862
 5319TIP3    H215922   4.052   3.766   3.785  0.1984 -0.7942 -1.1914
 5320TIP3   OH215923   6.425   2.781   4.407  0.1146 -0.2481  0.0520
 5320TIP3    H115924   6.511   2.784   4.450  0.1543 -0.0887 -0.0365
 5320TIP3    H215925   6.431   2.848   4.338 -0.3236  0.2600  0.4968
 5321TIP3   OH215926   3.135   4.225   3.777  1.2260 -0.0684 -0.0055
 5321TIP3    H115927   3.077   4.208   3.851  0.9120 -0.3206 -0.3075
 5321TIP3    H215928   3.102   4.170   3.707 -0.0990  2.1005 -1.1854
 5322TIP3   OH215929   1.814   6.329   1.866  0.2513 -0.0367 -0.4239
 5322TIP3    H115930   1.828   6.264   1.935 -0.4895  0.9625  0.7090
 5322TIP3    H215931   1.899   6.339   1.825  0.7781 -0.4681  0.5291
 5323TIP3   OH215932   0.277   0.331   3.453 -0.0320 -0.3205 -0.1892
 5323TIP3    H115933   0.268   0.421   3.487 -1.7803 -0.1747 -0.9488
 5323TIP3    H215934   0.352   0.335   3.395  0.3538  0.4776  0.3409
 5324TIP3   OH215935   6.366   1.256   5.873  0.4285 -0.5893  0.4562
 5324TIP3    H115936   6.393   1.348   5.881  1.7364 -0.7959 -1.1059
 5324TIP3    H215937   6.341   1.247   5.781  1.0156 -1.9750  0.4177
 5325TIP3   OH215938   4.790   4.116   1.036 -0.2587 -0.1645 -0.1222
 5325TIP3    H115939   4.798   4.183   1.104  0.2639  0.2256 -0.5578
 5325TIP3    H215940   4.880   4.091   1.016 -0.3586  0.2747 -1.1981
 5326TIP3   OH215941   5.143   4.894   2.269  0.0116  0.2639  0.3977
 5326TIP3    H115942   5.134   4.880   2.175  0.8944  1.6173  0.0824
 5326TIP3    H215943   5.060   4.932   2.296 -0.1716  0.0584  0.1296
 5327TIP3   OH215944   5.397   1.616   3.909  0.1783 -0.1120 -0.2970
 5327TIP3    H115945   5.442   1.565   3.976 -0.3761  0.7891  0.8015
 5327TIP3    H215946   5.308   1.580   3.908  0.0030  0.3067 -0.0704
 5328TIP3   OH215947   2.487   5.045   1.860 -0.3589  0.1873  0.2926
 5328TIP3    H115948   2.447   5.025   1.775 -1.8322 -0.1307  1.0293
 5328TIP3    H215949   2.576   5.009   1.853 -0.4614  0.1414 -1.0943
 5329TIP3   OH215950   5.649   0.834   4.086 -0.0893  0.1028  0.5485
 5329TIP3    H115951   5.589   0.836   4.011 -1.6388 -0.6053  1.7152
 5329TIP3    H215952   5.731   0.869   4.051 -0.9893  0.5703 -1.2619
 5330TIP3   OH215953   0.242   3.851   5.260 -0.6233 -0.0027 -0.0021
 5330TIP3    H115954   0.333   3.847   5.230 -1.5620  1.6922 -3.6124
 5330TIP3    H215955   0.248   3.837   5.354  3.1603 -1.7764 -0.2870
 5331TIP3   OH215956   5.758   2.935   1.411  0.1808 -0.2956  0.0329
 5331TIP3    H115957   5.756   3.006   1.347 -2.6388 -0.9864 -0.7673
 5331TIP3    H215958   5.730   2.857   1.363  0.4035 -1.3855  1.5540
 5332TIP3   OH215959   2.341   2.126   4.144 -0.3519  0.4366 -0.4129
 5332TIP3    H115960   2.320   2.218   4.163 -0.7695  0.4059 -0.7075
 5332TIP3    H215961   2.265   2.094   4.096  0.1384  0.1576 -1.0238
 5333TIP3   OH215962   2.925   6.197   4.222  0.3553 -0.0782 -0.0787
 5333TIP3    H115963   2.973   6.277   4.199  0.6601 -0.2392 -0.0147
 5333TIP3    H215964   2.905   6.208   4.315  2.2051 -0.9761  0.4661
 5334TIP3   OH215965   3.397   2.453   2.346 -0.1793  0.3362 -0.3525
 5334TIP3    H115966   3.310   2.423   2.321  0.0218  0.6665 -1.5222
 5334TIP3    H215967   3.418   2.521   2.282  0.9597  0.2093 -0.1339
 5335TIP3   OH215968   1.258   6.089   4.938 -0.1780  0.1658 -0.1914
 5335TIP3    H115969   1.202   6.021   4.902 -0.3605 -0.1240  0.6266
 5335TIP3    H215970   1.232   6.169   4.891 -1.2852  0.0337  0.1883
 5336TIP3   OH215971   0.242   0.113   1.684 -0.2081 -0.1793 -0.5004
 5336TIP3    H115972   0.314   0.050   1.687  0.5799  0.7205  0.6084
 5336TIP3    H215973   0.199   0.096   1.600 -0.8631 -3.0579  0.2987
 5337TIP3   OH215974   3.911   6.620   3.086  0.5852 -0.3629  0.1945
 5337TIP3    H115975   3.839   6.581   3.135  0.1887 -1.1542 -0.9796
 5337TIP3    H215976   3.988   6.572   3.115  0.1287 -1.9688 -1.1000
 5338TIP3   OH215977   0.721   2.956   4.817 -0.2370  0.1519 -0.5540
 5338TIP3    H115978   0.705   2.867   4.846  0.5512  0.0401 -0.4278
 5338TIP3    H215979   0.634   2.993   4.801 -0.7814  0.4260  2.4907
 5339TIP3   OH215980   0.946   3.970   2.458 -0.1497  0.8202 -0.3987
 5339TIP3    H115981   1.031   3.966   2.414 -0.3233  2.2386 -0.9137
 5339TIP3    H215982   0.882   3.968   2.388 -0.7288 -2.5985  0.0562
 5340TIP3   OH215983   1.969   2.978   4.262  0.1698 -0.0949  0.5234
 5340TIP3    H115984   1.894   2.932   4.224 -0.3696  0.2243  1.1791
 5340TIP3    H215985   2.017   3.013   4.187 -0.0678 -0.7129  0.0770
 5341TIP3   OH215986   0.057   3.993   5.681 -0.1840  0.7684  0.0822
 5341TIP3    H115987  -0.003   3.920   5.690 -0.7459  1.1261 -0.7658
 5341TIP3    H215988   0.003   4.067   5.654  0.4991  1.3163  0.1633
 5342TIP3   OH215989   3.400   4.572   0.781  0.3226 -0.3430  0.4000
 5342TIP3    H115990   3.486   4.582   0.739 -0.6226  1.0343 -1.3350
 5342TIP3    H215991   3.352   4.651   0.755 -2.5192 -2.4436 -1.3142
 5343TIP3   OH215992   5.505   6.056   5.192  0.2961  0.3072  0.3061
 5343TIP3    H115993   5.427   6.003   5.175 -0.0556  1.3269 -1.5412
 5343TIP3    H215994   5.562   6.039   5.118  0.8429  1.3291  0.4761
 5344TIP3   OH215995   4.949   1.121   4.014  0.2987 -0.2166 -0.3726
 5344TIP3    H115996   4.964   1.144   3.922 -1.0691 -2.3035 -1.2028
 5344TIP3    H215997   5.022   1.062   4.036  0.7926  0.5200  0.0039
 5345TIP3   OH215998   4.322   5.549   5.036  0.1913 -0.2793 -0.3016
 5345TIP3    H115999   4.384   5.476   5.029  1.4366  0.6374  0.7633
 5345TIP3    H216000   4.237   5.507   5.048  0.8390 -1.5630 -0.0551
 5346TIP3   OH216001   2.803   3.273   0.953 -0.2662 -0.5656  0.4311
 5346TIP3    H116002   2.814   3.264   0.858  0.7890  1.2925  0.3308
 5346TIP3    H216003   2.776   3.186   0.982 -0.4746 -1.2140 -1.5466
 5347TIP3   OH216004   4.350   5.134   4.771 -0.0230  0.1051 -0.5199
 5347TIP3    H116005   4.418   5.067   4.769  0.2297  0.3889 -1.8722
 5347TIP3    H216006   4.380   5.202   4.712 -1.3370  0.3756 -0.9198
 5348TIP3   OH216007   1.332   1.843   3.054 -0.0597  0.0311 -0.1629
 5348TIP3    H116008   1.389   1.891   3.114  0.0067  0.2486 -0.3942
 5348TIP3    H216009   1.250   1.894   3.053  0.2506  0.5366 -0.9361
 5349TIP3   OH216010   0.808   0.964   5.292  0.2396 -0.1697  0.1542
 5349TIP3    H116011   0.861   1.022   5.237  0.4803  0.0741  0.6334
 5349TIP3    H216012   0.785   0.891   5.235  1.4081 -0.4680  0.0353
 5350TIP3   OH216013   4.297   4.593   5.117  0.0980 -0.0296 -0.1767
 5350TIP3    H116014   4.254   4.627   5.039 -0.7139  2.0594  1.1031
 5350TIP3    H216015   4.274   4.500   5.119 -1.9882  0.4186 -1.0675
 5351TIP3   OH216016   6.470   3.554   1.844 -0.4464  0.0755  0.0677
 5351TIP3    H116017   6.545   3.581   1.896 -0.8158 -0.1462  0.7375
 5351TIP3    H216018   6.477   3.459   1.839 -0.2266  0.1248 -0.5837
 5352TIP3   OH216019   2.535   6.300   3.237 -0.0712  0.2901  0.0894
 5352TIP3    H116020   2.606   6.243   3.266  1.8612  2.0001 -1.0255
 5352TIP3    H216021   2.515   6.354   3.314  1.1290  0.9977 -0.0636
 5353TIP3   OH216022   1.314   4.466   4.138  0.4890 -0.1371  0.0840
 5353TIP3    H116023   1.303   4.542   4.195 -0.2002 -0.7574  0.8057
 5353TIP3    H216024   1.265   4.489   4.059 -1.5269 -0.6200  1.1073
 5354TIP3   OH216025   2.350   5.623   1.024 -0.4460 -0.2394 -0.6618
 5354TIP3    H116026   2.316   5.613   1.113  0.6027  0.9823 -0.0924
 5354TIP3    H216027   2.272   5.623   0.968 -1.0871 -1.6012  0.1642
 5355TIP3   OH216028   3.091   1.954   5.096 -0.1779 -0.7122 -0.1252
 5355TIP3    H116029   3.160   1.989   5.039  0.5016  0.5656  1.3808
 5355TIP3    H216030   3.024   2.022   5.097  0.0184 -0.5062  0.8879
 5356TIP3   OH216031   4.471   1.045   4.212  0.0796  0.4346  0.2463
 5356TIP3    H116032   4.550   1.018   4.166  0.4209  1.1919  0.3662
 5356TIP3    H216033   4.449   0.970   4.268  1.7504  0.8469  1.5679
 5357TIP3   OH216034   3.094   5.631   2.924  0.4379 -0.1841 -0.3260
 5357TIP3    H116035   3.161   5.570   2.893  1.6599  0.4745  0.8652
 5357TIP3    H216036   3.011   5.590   2.900  1.2444 -1.5977 -0.8515
 5358TIP3   OH216037   3.979   6.496   5.446 -0.6613 -0.0147 -0.0012
 5358TIP3    H116038   3.910   6.444   5.406 -1.2826  0.7850  0.0069
 5358TIP3    H216039   4.056   6.480   5.391 -1.0807 -0.2259 -0.5333
 5359TIP3   OH216040   2.970   5.570   3.211 -0.6979  0.0868 -0.6404
 5359TIP3    H116041   3.001   5.525   3.132  1.0172 -0.7931  0.4709
 5359TIP3    H216042   3.009   5.657   3.206 -1.7577  0.5475 -1.4191
 5360TIP3   OH216043   3.595   6.607   4.234  0.3438 -0.7692 -0.4292
 5360TIP3    H116044   3.686   6.625   4.208  0.2506  1.3056  0.4892
 5360TIP3    H216045   3.587   6.647   4.321 -1.8816  0.4489 -1.1422
 5361TIP3   OH216046   7.050   2.274   1.117 -0.2518 -0.1745  0.1524
 5361TIP3    H116047   6.990   2.319   1.177 -0.8689 -1.0676  0.2218
 5361TIP3    H216048   7.137   2.293   1.152 -0.5506  0.1735  0.7343
 5362TIP3   OH216049   2.894   3.110   1.972 -0.4003 -0.0922 -0.5233
 5362TIP3    H116050   2.840   3.101   2.051 -0.2637 -1.7390 -0.5718
 5362TIP3    H216051   2.941   3.026   1.966  0.3094  0.3752 -1.8317
 5363TIP3   OH216052   2.516   5.689   0.137  0.4234  0.0657 -0.4180
 5363TIP3    H116053   2.565   5.731   0.208 -1.0616  1.2298 -0.0088
 5363TIP3    H216054   2.544   5.598   0.138  1.6405  0.4281  0.5871
 5364TIP3   OH216055   0.566   1.799   3.775 -0.1703  0.1363 -0.2038
 5364TIP3    H116056   0.476   1.782   3.749 -0.2998  0.6563 -0.1139
 5364TIP3    H216057   0.562   1.882   3.823  0.1729 -0.4505  0.8741
 5365TIP3   OH216058   0.893   1.666   5.032  0.0194 -0.0628 -0.0157
 5365TIP3    H116059   0.805   1.631   5.043  0.4616 -0.9058  0.9497
 5365TIP3    H216060   0.911   1.714   5.113 -1.8490  5.5770 -2.4217
 5366TIP3   OH216061   6.332   6.091   1.759  0.0520  0.2461 -0.7853
 5366TIP3    H116062   6.280   6.063   1.683 -0.2558 -1.2489 -0.0571
 5366TIP3    H216063   6.355   6.009   1.803 -0.3527  1.1196  1.1205
 5367TIP3   OH216064   5.210   5.932   2.876  0.8251 -0.3567  0.6498
 5367TIP3    H116065   5.194   5.842   2.906 -6.1265 -0.5595 -1.8379
 5367TIP3    H216066   5.215   5.983   2.956 -0.2708 -2.4887  2.1848
 5368TIP3   OH216067   0.642   6.396   2.929 -0.0077  0.0681  0.1848
 5368TIP3    H116068   0.665   6.411   2.837 -3.4575 -0.9944 -1.0155
 5368TIP3    H216069   0.668   6.477   2.973 -0.5592  1.6970 -2.2588
 5369TIP3   OH216070   2.160   3.038   3.416  0.3040 -0.0886  0.1393
 5369TIP3    H116071   2.116   2.982   3.352 -0.6192 -0.4915  1.1011
 5369TIP3    H216072   2.188   3.114   3.365 -2.6469  0.8136 -0.3256
 5370TIP3   OH216073   3.276   4.913   2.982  0.3248  0.1283  0.4785
 5370TIP3    H116074   3.317   4.960   3.055 -0.3206  1.5057 -0.0348
 5370TIP3    H216075   3.194   4.878   3.019  1.0886 -1.1911  1.0295
 5371TIP3   OH216076   2.211   6.009   4.937  0.1563 -0.0128 -0.2100
 5371TIP3    H116077   2.202   5.973   4.849 -0.8065  0.2272 -0.2222
 5371TIP3    H216078   2.207   5.934   4.996  2.2978 -0.3526 -0.4064
 5372TIP3   OH216079   5.162   3.183   0.201 -0.3446  0.0407 -0.1969
 5372TIP3    H116080   5.247   3.227   0.194  0.7754 -1.8872  0.3294
 5372TIP3    H216081   5.098   3.254   0.201  1.1718  1.5222 -1.7573
 5373TIP3   OH216082   6.379   3.402   0.184 -0.2318 -0.3026 -0.2558
 5373TIP3    H116083   6.301   3.448   0.152  0.1042 -0.0653 -0.7584
 5373TIP3    H216084   6.388   3.327   0.124 -0.9939 -1.2571  0.7888
 5374TIP3   OH216085   1.655   0.817   1.001  0.2191 -0.4747  0.3751
 5374TIP3    H116086   1.610   0.749   1.051 -1.3739 -0.0674 -0.4510
 5374TIP3    H216087   1.614   0.815   0.914  0.2312  1.4221  0.2731
 5375TIP3   OH216088   2.366   0.318   2.484  0.3113 -0.2767  0.4556
 5375TIP3    H116089   2.306   0.379   2.440  1.0321 -0.4974 -0.8917
 5375TIP3    H216090   2.419   0.374   2.540  2.1496  0.6829 -2.0730
 5376TIP3   OH216091   4.054   3.520   4.885 -0.5384 -0.2916 -0.4597
 5376TIP3    H116092   3.975   3.574   4.890  0.0961  0.5142  1.8009
 5376TIP3    H216093   4.102   3.557   4.810 -0.9301  1.1676 -0.0362
 5377TIP3   OH216094   0.963   0.636   4.165 -0.0461  0.3480  0.4971
 5377TIP3    H116095   0.948   0.621   4.072  2.5525  0.5524 -0.0453
 5377TIP3    H216096   0.976   0.730   4.173  0.2235  0.2782  0.9616
 5378TIP3   OH216097   2.968   4.033   3.602  0.1452  0.4463 -0.1657
 5378TIP3    H116098   2.948   3.975   3.529  0.0429  0.7244 -0.3577
 5378TIP3    H216099   2.933   4.118   3.576 -1.3377  0.1871  0.8843
 5379TIP3   OH216100   3.681   1.381   2.738  0.5555  0.4826  0.1786
 5379TIP3    H116101   3.586   1.392   2.729  0.5352 -0.3285 -0.9069
 5379TIP3    H216102   3.712   1.465   2.773 -0.6195  0.5470  1.1291
 5380TIP3   OH216103   1.671   0.555   2.972 -0.0674 -0.4330  0.2287
 5380TIP3    H116104   1.593   0.565   2.918 -0.5914  0.5063  1.1574
 5380TIP3    H216105   1.640   0.515   3.053  0.4686 -0.3945  0.4571
 5381TIP3   OH216106   2.030   5.340   1.845 -0.2802 -0.1908 -0.0144
 5381TIP3    H116107   2.052   5.390   1.924  1.7993 -0.6511 -0.2471
 5381TIP3    H216108   2.018   5.407   1.778  0.4320  0.1096  0.1444
 5382TIP3   OH216109   4.976   2.280   5.674 -0.0606 -0.1335 -0.1269
 5382TIP3    H116110   4.965   2.194   5.713  0.5987 -0.5972 -0.9275
 5382TIP3    H216111   5.024   2.330   5.740 -2.1257  0.2557  1.1477
 5383TIP3   OH216112   5.986   0.252   2.529  0.2411  0.2044 -0.4594
 5383TIP3    H116113   6.059   0.192   2.513  0.2426  0.3627 -1.0718
 5383TIP3    H216114   5.963   0.286   2.442 -1.0210 -0.3882 -0.3881
 5384TIP3   OH216115   5.801   4.754   5.412  0.2760  0.3921 -0.2241
 5384TIP3    H116116   5.813   4.779   5.320 -0.3460 -0.0180 -0.4164
 5384TIP3    H216117   5.709   4.732   5.420  0.3906  0.1149  0.4298
 5385TIP3   OH216118   5.209   2.304   2.710 -0.3094  0.0520  0.1431
 5385TIP3    H116119   5.220   2.213   2.681 -1.7849  0.0303 -0.4307
 5385TIP3    H216120   5.134   2.301   2.769  0.0844  0.7935  0.6843
 5386TIP3   OH216121   1.533   4.121   3.891  0.0341  0.2538 -0.1080
 5386TIP3    H116122   1.555   4.206   3.852 -0.0069  0.1171 -0.4292
 5386TIP3    H216123   1.618   4.082   3.911  0.0783  1.4054  2.3324
 5387TIP3   OH216124   4.989   2.791   0.371  0.3634  0.1036  0.4100
 5387TIP3    H116125   5.069   2.832   0.339  2.6128 -3.6341  0.5911
 5387TIP3    H216126   4.976   2.715   0.314 -0.0212 -2.3096  3.4314
 5388TIP3   OH216127   3.229   2.685   2.746 -0.6441 -0.3113 -0.2232
 5388TIP3    H116128   3.251   2.719   2.833 -2.9188 -0.9194  0.6685
 5388TIP3    H216129   3.308   2.700   2.693  0.4799  0.8983  1.6883
 5389TIP3   OH216130   6.987   3.482   3.558 -0.8471 -0.2276 -0.1773
 5389TIP3    H116131   6.897   3.449   3.567 -0.6773 -0.3119  1.3988
 5389TIP3    H216132   7.042   3.404   3.567 -0.6040 -0.2449 -1.5949
 5390TIP3   OH216133   2.821   5.938   3.503  0.4416  0.1221 -0.5359
 5390TIP3    H116134   2.893   5.907   3.448  0.0929 -1.3427 -0.2305
 5390TIP3    H216135   2.862   5.966   3.584  0.6482 -1.1831 -0.1713
 5391TIP3   OH216136   5.811   2.149   5.621 -0.2104  0.5118  0.2292
 5391TIP3    H116137   5.863   2.163   5.700 -1.7300 -1.0541  1.6114
 5391TIP3    H216138   5.770   2.234   5.604  0.9775  1.1480  0.4836
 5392TIP3   OH216139   0.769   4.006   5.653 -0.2993 -0.8456  0.3116
 5392TIP3    H116140   0.809   4.082   5.612 -1.5745  0.5613  1.5377
 5392TIP3    H216141   0.725   4.041   5.731 -0.3039 -2.9568  1.3402
 5393TIP3   OH216142   4.318   2.497   0.262  0.2549  0.0799  0.5583
 5393TIP3    H116143   4.394   2.513   0.206 -1.9926 -1.2920 -3.2830
 5393TIP3    H216144   4.315   2.401   0.270 -1.5072  0.0390 -0.1819
 5394TIP3   OH216145   5.605   4.045   5.778  0.1027  0.2330  0.2787
 5394TIP3    H116146   5.510   4.035   5.769  0.3373 -0.0284 -4.5562
 5394TIP3    H216147   5.636   3.956   5.795 -0.4236  0.0972  0.5742
 5395TIP3   OH216148   4.766   2.330   2.348  0.7468 -0.6729 -0.2525
 5395TIP3    H116149   4.713   2.254   2.322 -0.7785  0.8194 -1.7521
 5395TIP3    H216150   4.707   2.385   2.399  1.6757 -0.2188  0.3663
 5396TIP3   OH216151   1.797   5.725   4.627 -0.4734  0.4768  0.3994
 5396TIP3    H116152   1.790   5.632   4.648 -0.5819  0.5736  0.8006
 5396TIP3    H216153   1.859   5.760   4.690  1.3350  0.2512 -1.1619
 5397TIP3   OH216154   7.037   1.667   3.598 -0.1172  0.0076  0.4952
 5397TIP3    H116155   7.018   1.746   3.650  1.4097 -0.2917  1.5687
 5397TIP3    H216156   7.072   1.605   3.662  0.5833 -0.8411 -0.6973
 5398TIP3   OH216157   6.548   6.136   0.545 -0.0133  0.2004  0.1418
 5398TIP3    H116158   6.527   6.229   0.558  0.0340  0.7745 -2.9943
 5398TIP3    H216159   6.605   6.135   0.468  2.5360 -2.2392  1.8641
 5399TIP3   OH216160   1.909   5.703   5.189 -0.0361 -0.1739  0.1865
 5399TIP3    H116161   1.875   5.785   5.154  1.0463  0.1355 -0.1879
 5399TIP3    H216162   1.999   5.723   5.215  0.7747 -1.5976 -1.2994
 5400TIP3   OH216163   2.380   0.725   5.073  0.6962 -0.2486  0.0511
 5400TIP3    H116164   2.445   0.660   5.099  0.8648  0.1709  0.7079
 5400TIP3    H216165   2.305   0.674   5.042  0.8461 -0.7512  0.5083
 5401TIP3   OH216166   2.779   5.052   0.084  0.3303 -0.4359 -0.1170
 5401TIP3    H116167   2.713   4.996   0.044  0.6512 -0.7309 -0.2385
 5401TIP3    H216168   2.860   5.000   0.081  0.6481  0.0630 -0.2978
 5402TIP3   OH216169   5.651   2.069   3.145 -0.1163 -0.4449 -0.1583
 5402TIP3    H116170   5.590   2.133   3.108  1.1665  0.3936 -0.9184
 5402TIP3    H216171   5.649   2.087   3.239  0.2194  0.7433 -0.3565
 5403TIP3   OH216172   1.307   5.899   2.542  0.7330  0.1217  0.0334
 5403TIP3    H116173   1.399   5.885   2.522  0.2404 -1.1874 -1.5379
 5403TIP3    H216174   1.282   5.975   2.488  0.8111  0.2599  0.1924
 5404TIP3   OH216175   4.334   4.922   0.940  0.0682 -0.3972  0.3430
 5404TIP3    H116176   4.336   4.954   1.030  0.3719 -0.6811  0.4359
 5404TIP3    H216177   4.414   4.955   0.900 -0.4743  0.4436 -0.0710
 5405TIP3   OH216178   5.269   3.662   3.338 -0.3565  0.5897  0.5142
 5405TIP3    H116179   5.344   3.690   3.284 -0.3157 -0.7279 -0.1658
 5405TIP3    H216180   5.192   3.692   3.290 -0.2965  2.3504  1.4438
 5406TIP3   OH216181   1.997   4.852   3.622  0.4568 -0.2062 -0.4634
 5406TIP3    H116182   1.942   4.898   3.557 -0.4635 -0.8720 -0.1721
 5406TIP3    H216183   2.083   4.893   3.613  0.3203 -0.1848 -2.0193
 5407TIP3   OH216184   1.262   0.422   5.060  0.2481  0.2755  1.1472
 5407TIP3    H116185   1.189   0.402   5.119 -0.0214 -1.5976  0.2340
 5407TIP3    H216186   1.244   0.372   4.981  1.8107  0.9035  0.3487
 5408TIP3   OH216187   4.732   0.936   3.744 -0.1771  0.0625 -0.6802
 5408TIP3    H116188   4.821   0.962   3.766  0.2603 -0.6520 -1.5115
 5408TIP3    H216189   4.676   0.989   3.801  0.7662  0.6693 -0.2946
 5409TIP3   OH216190   0.148   4.015   4.007  0.3645 -1.1790 -0.2805
 5409TIP3    H116191   0.225   3.974   3.966  2.9399  1.5541  1.4384
 5409TIP3    H216192   0.140   4.100   3.964 -0.7111 -0.7644  0.6940
 5410TIP3   OH216193   3.510   5.716   3.730  0.4224  0.0223 -0.2172
 5410TIP3    H116194   3.601   5.740   3.713  0.6206 -0.0206  0.7303
 5410TIP3    H216195   3.470   5.712   3.643  0.8833  1.7992 -0.5590
 5411TIP3   OH216196   2.764   4.058   2.903 -0.2293 -0.1846 -0.1453
 5411TIP3    H116197   2.800   4.036   2.817  1.2975  0.1221  0.3672
 5411TIP3    H216198   2.802   4.144   2.923  0.8743 -0.9833  1.5428
 5412TIP3   OH216199   5.182   3.894   4.006  0.4899  0.0667 -0.7992
 5412TIP3    H116200   5.190   3.799   4.003  0.7969  0.1130 -1.9523
 5412TIP3    H216201   5.100   3.913   3.960  0.8811  0.3971 -1.3843
 5413TIP3   OH216202   3.011   0.288   1.662 -0.4405  0.2597 -0.2312
 5413TIP3    H116203   3.085   0.252   1.612 -0.9986 -1.6387  0.2475
 5413TIP3    H216204   2.934   0.260   1.613 -0.9508 -0.6427  1.0514
 5414TIP3   OH216205   4.967   6.334   1.318 -0.0620  0.7262  0.4504
 5414TIP3    H116206   4.881   6.330   1.361 -0.8888  1.6087 -1.0353
 5414TIP3    H216207   4.968   6.420   1.276  1.7656  0.9223  0.8435
 5415TIP3   OH216208   5.237   6.043   1.113 -0.1682 -0.8942  0.3119
 5415TIP3    H116209   5.190   6.001   1.041 -1.1099 -1.1092  1.0161
 5415TIP3    H216210   5.186   6.018   1.191  2.2444 -2.8260  1.3977
 5416TIP3   OH216211   2.898   2.572   5.480 -0.2487 -0.1999 -0.2013
 5416TIP3    H116212   2.934   2.560   5.568 -1.2811 -0.1487  0.2418
 5416TIP3    H216213   2.966   2.619   5.432 -0.3072  1.2090  1.0386
 5417TIP3   OH216214   4.415   5.388   1.556  0.1626 -0.2028 -0.5208
 5417TIP3    H116215   4.343   5.440   1.519 -0.1132 -0.9105 -1.0048
 5417TIP3    H216216   4.487   5.399   1.494  0.3908  0.2946 -0.1721
 5418TIP3   OH216217   3.224   5.062   1.714  1.2379  0.0208  0.1852
 5418TIP3    H116218   3.264   5.111   1.643  0.9019 -0.0685 -0.0692
 5418TIP3    H216219   3.133   5.050   1.687  1.5525 -1.6248 -0.2462
 5419TIP3   OH216220   2.583   0.330   3.994  0.2714 -0.0189 -1.1042
 5419TIP3    H116221   2.673   0.340   4.025  0.5499 -0.0241 -1.8836
 5419TIP3    H216222   2.541   0.413   4.015 -0.2018 -0.8063  1.3158
 5420TIP3   OH216223   3.628   2.900   2.632 -0.2768 -0.3457  0.5440
 5420TIP3    H116224   3.670   2.975   2.591 -0.7708 -0.9314 -1.0914
 5420TIP3    H216225   3.682   2.825   2.606 -1.6001 -0.9548 -0.5750
 5421TIP3   OH216226   1.000   3.964   2.718  0.2130 -0.1177 -0.4336
 5421TIP3    H116227   0.922   4.003   2.758 -0.1770 -0.1748 -1.1305
 5421TIP3    H216228   0.982   3.964   2.624  1.0147 -0.2213 -0.5961
 5422TIP3   OH216229   6.671   4.741   0.427  0.0655  0.0400 -0.4041
 5422TIP3    H116230   6.590   4.791   0.426 -0.4273 -0.6981  0.7889
 5422TIP3    H216231   6.740   4.806   0.419 -0.5168  1.0518  2.0714
 5423TIP3   OH216232   0.428   4.839   1.607  0.4478  0.4813 -0.8741
 5423TIP3    H116233   0.363   4.908   1.617  1.5141  1.1711  3.1512
 5423TIP3    H216234   0.386   4.761   1.643  1.1605  0.4560 -0.0812
 5424TIP3   OH216235   0.906   5.486   0.661 -0.2589  0.0148  0.6206
 5424TIP3    H116236   0.960   5.539   0.603  1.0126 -0.1632  1.5816
 5424TIP3    H216237   0.954   5.404   0.671 -1.2852 -0.6110  0.6095
 5425TIP3   OH216238   5.648   1.920   4.650  0.4358  0.5831  0.0258
 5425TIP3    H116239   5.641   2.003   4.698 -0.7855 -0.5879  1.9824
 5425TIP3    H216240   5.741   1.913   4.629  0.4276  2.9622 -1.2174
 5426TIP3   OH216241   4.745   5.033   4.082  0.4541  0.3983  0.4441
 5426TIP3    H116242   4.657   5.038   4.044  0.3580  1.5163  0.7708
 5426TIP3    H216243   4.752   5.112   4.136  1.9317  0.7137 -0.1606
 5427TIP3   OH216244   2.126   3.864   5.497 -0.2951  0.7506  0.6494
 5427TIP3    H116245   2.131   3.838   5.405 -1.2273  2.5314  0.0482
 5427TIP3    H216246   2.108   3.782   5.543  0.5847 -0.2447 -0.6894
 5428TIP3   OH216247   5.147   0.424   2.178 -0.0040  0.3713  0.8458
 5428TIP3    H116248   5.053   0.409   2.176  0.3230 -2.1134 -0.8795
 5428TIP3    H216249   5.163   0.488   2.108 -0.2922 -0.3193  0.1340
 5429TIP3   OH216250   4.254   1.424   1.914  0.4779 -0.1967  0.4219
 5429TIP3    H116251   4.247   1.348   1.972 -0.6894  0.6022  1.3718
 5429TIP3    H216252   4.171   1.424   1.865  1.1259 -0.4137 -0.7240
 5430TIP3   OH216253   0.593   0.735   3.006  0.2172  0.2976  0.4033
 5430TIP3    H116254   0.575   0.816   3.054 -0.1158  0.9244 -0.7642
 5430TIP3    H216255   0.512   0.716   2.959  0.7203  0.0009 -0.3654
 5431TIP3   OH216256   2.132   2.501   3.383  0.0188 -0.2115  0.7065
 5431TIP3    H116257   2.108   2.421   3.337  1.4860  0.2813 -1.0592
 5431TIP3    H216258   2.050   2.550   3.392 -0.3267 -0.1404 -1.8814
 5432TIP3   OH216259   6.954   3.885   4.713 -0.9136 -0.2887 -0.0259
 5432TIP3    H116260   7.012   3.822   4.756 -0.0100  0.1822 -0.5089
 5432TIP3    H216261   6.968   3.967   4.760 -1.2023 -0.1732 -0.1371
 5433TIP3   OH216262   2.846   0.384   4.136  0.3653 -0.2213  0.0585
 5433TIP3    H116263   2.923   0.420   4.092  0.8371  0.0343  1.0532
 5433TIP3    H216264   2.872   0.296   4.163  0.6030  0.1539  1.0933
 5434TIP3   OH216265   7.068   0.554   5.654  0.2743  0.5332  0.6567
 5434TIP3    H116266   7.096   0.636   5.611 -1.8331  0.9554 -0.0306
 5434TIP3    H216267   7.075   0.573   5.747  0.5572  1.2104  0.5108
 5435TIP3   OH216268   1.192   4.270   3.318 -0.1074 -0.3705 -0.6646
 5435TIP3    H116269   1.287   4.255   3.319 -0.3848 -2.6055  0.7931
 5435TIP3    H216270   1.178   4.330   3.245  2.5667  1.2560 -0.0041
 5436TIP3   OH216271   1.660   2.701   3.987  0.0975  0.2121  0.4997
 5436TIP3    H116272   1.632   2.752   3.911 -0.4506  1.1024  1.2738
 5436TIP3    H216273   1.593   2.633   3.995 -0.3953  0.7216  0.7675
 5437TIP3   OH216274   4.910   0.013   2.441 -0.2502 -0.2198  0.4332
 5437TIP3    H116275   4.833  -0.032   2.477  0.9266 -2.3131  0.4511
 5437TIP3    H216276   4.877   0.100   2.418 -2.0895 -0.2784  2.4957
 5438TIP3   OH216277   6.843   2.371   1.337  0.3622 -0.8589 -0.2600
 5438TIP3    H116278   6.853   2.291   1.389 -1.1282 -1.9022 -1.5124
 5438TIP3    H216279   6.765   2.413   1.372 -0.1372 -1.1091 -1.0569
 5439TIP3   OH216280   6.167   6.642   3.352 -0.1745  0.0182  0.2309
 5439TIP3    H116281   6.179   6.640   3.447  3.1384 -3.0231 -0.0133
 5439TIP3    H216282   6.253   6.669   3.318 -1.5793  2.0931 -1.9593
 5440TIP3   OH216283   4.584   5.485   4.158  0.1900  0.1195  0.5251
 5440TIP3    H116284   4.496   5.461   4.187  0.2145 -0.6624 -0.0327
 5440TIP3    H216285   4.582   5.581   4.155 -1.5543  0.0873 -2.1826
 5441TIP3   OH216286   1.820   0.153   2.071  0.5299 -0.0441  0.1220
 5441TIP3    H116287   1.768   0.204   2.009  1.2054  0.5504  0.0311
 5441TIP3    H216288   1.776   0.164   2.155 -1.3858 -2.2239 -0.4794
 5442TIP3   OH216289   3.256   3.372   1.162  0.2073  0.1685  0.4809
 5442TIP3    H116290   3.253   3.422   1.244 -0.5503 -0.3205  0.7629
 5442TIP3    H216291   3.326   3.414   1.111  0.1039  1.0273  1.0211
 5443TIP3   OH216292   0.189   0.974   5.314  0.0307 -0.1308 -0.3365
 5443TIP3    H116293   0.276   0.950   5.346  0.0142  2.4939  2.0441
 5443TIP3    H216294   0.205   1.024   5.235  0.7767  0.7704  0.3649
 5444TIP3   OH216295   4.939   1.903   3.784  0.0558  0.3709  0.3114
 5444TIP3    H116296   4.996   1.905   3.861  0.0263 -1.5288  0.4283
 5444TIP3    H216297   4.963   1.823   3.738 -1.3724  0.3921 -0.5407
 5445TIP3   OH216298   2.565   3.892   2.578  0.1172  0.0609  0.3427
 5445TIP3    H116299   2.639   3.842   2.612  0.8693  0.6371 -0.4162
 5445TIP3    H216300   2.507   3.826   2.540  1.5731 -0.1977 -1.5706
 5446TIP3   OH216301   4.017   0.611   5.053  0.0770 -0.1116  0.0729
 5446TIP3    H116302   4.003   0.519   5.028 -1.3683 -0.1983  1.0709
 5446TIP3    H216303   3.999   0.660   4.973 -1.4919 -0.5690  0.1009
 5447TIP3   OH216304   4.142   2.763   1.197 -0.9873  0.2879 -0.1852
 5447TIP3    H116305   4.060   2.713   1.203 -1.0394  0.4286  0.3634
 5447TIP3    H216306   4.170   2.773   1.288 -1.1767  1.5931 -0.2566
 5448TIP3   OH216307   7.130   2.079   5.743  0.1184 -0.6016  0.4112
 5448TIP3    H116308   7.106   2.106   5.832  0.2083  0.2596  0.1853
 5448TIP3    H216309   7.174   2.156   5.706 -0.6825 -0.6424 -0.6740
 5449TIP3   OH216310   3.342   0.778   2.984 -0.5200 -0.1705  0.1812
 5449TIP3    H116311   3.277   0.728   3.033  1.5633 -2.1450  1.1022
 5449TIP3    H216312   3.338   0.742   2.895 -2.1255  1.2493 -0.3792
 5450TIP3   OH216313   2.392   4.661   2.780 -0.0613  0.4997 -0.9871
 5450TIP3    H116314   2.422   4.668   2.871 -2.7740 -0.6695  0.1271
 5450TIP3    H216315   2.345   4.743   2.764 -1.5474 -0.2311 -0.4840
 5451TIP3   OH216316   3.594   4.142   4.248 -0.2556 -0.2789  0.4518
 5451TIP3    H116317   3.567   4.057   4.213 -0.6567  0.2422 -0.5382
 5451TIP3    H216318   3.566   4.205   4.182 -1.0961  0.7588  1.7592
 5452TIP3   OH216319   3.353   4.628   2.185  0.2015  0.1934  0.6605
 5452TIP3    H116320   3.324   4.677   2.262 -0.5172  1.4305 -0.3795
 5452TIP3    H216321   3.314   4.673   2.111  1.4682 -0.5593 -0.5043
 5453TIP3   OH216322   3.680   3.467   1.153 -0.1639  0.4762 -0.1655
 5453TIP3    H116323   3.601   3.521   1.145  0.6288  2.2625  2.5605
 5453TIP3    H216324   3.648   3.384   1.188 -1.0729  0.2224 -1.5111
 5454TIP3   OH216325   1.007   5.009   3.204  0.1089 -0.0477  0.5487
 5454TIP3    H116326   1.047   5.043   3.124 -0.8551  0.5759  0.3126
 5454TIP3    H216327   1.076   5.017   3.271  0.7719 -0.1544 -0.1072
 5455TIP3   OH216328   2.005   0.506   2.156 -0.1746  0.3189  0.6015
 5455TIP3    H116329   2.066   0.443   2.195  0.3300  0.0920 -0.4898
 5455TIP3    H216330   2.035   0.513   2.065 -2.3662 -0.5207 -0.2404
 5456TIP3   OH216331   0.746   4.759   4.204 -0.3935  0.5436  0.2179
 5456TIP3    H116332   0.711   4.797   4.284 -1.9665  0.3459 -0.3447
 5456TIP3    H216333   0.808   4.691   4.234 -0.6437  0.7621  1.2441
 5457TIP3   OH216334   1.930   3.368   0.656 -0.4116 -0.2044  0.2827
 5457TIP3    H116335   1.886   3.384   0.573 -3.3242 -1.4597  1.4494
 5457TIP3    H216336   2.002   3.308   0.634 -2.0647 -1.7592 -1.1735
 5458TIP3   OH216337   1.522   0.008   4.809 -0.3729 -0.0169 -0.2150
 5458TIP3    H116338   1.531  -0.060   4.876 -0.5273  0.2015  0.0254
 5458TIP3    H216339   1.456   0.067   4.843 -0.0249  0.4204 -0.2910
 5459TIP3   OH216340   4.601   3.803   5.346 -0.4123  0.6034  0.6384
 5459TIP3    H116341   4.601   3.893   5.378  1.3651  1.0801 -0.5853
 5459TIP3    H216342   4.526   3.799   5.287 -0.8955  1.0697  1.2002
 5460TIP3   OH216343   2.545   3.857   3.804  0.1424 -0.0691  0.3224
 5460TIP3    H116344   2.616   3.874   3.867  0.6972 -3.3782  0.7729
 5460TIP3    H216345   2.502   3.779   3.838 -0.7577 -0.8694 -2.4410
 5461TIP3   OH216346   6.618   0.898   5.452 -0.0038 -0.5378  0.1154
 5461TIP3    H116347   6.610   0.971   5.391 -1.0059 -0.1520  0.6753
 5461TIP3    H216348   6.694   0.919   5.506  0.7482 -0.7660 -0.8151
 5462TIP3   OH216349   1.247   0.758   4.459  0.4032 -0.4673  0.2399
 5462TIP3    H116350   1.251   0.776   4.366 -1.4915 -1.9397 -0.1953
 5462TIP3    H216351   1.241   0.845   4.500  3.9581  0.3700 -0.7021
 5463TIP3   OH216352   0.472   0.592   5.749 -0.3763  0.3153  0.1836
 5463TIP3    H116353   0.555   0.571   5.792 -0.2548  0.2697 -0.0735
 5463TIP3    H216354   0.413   0.522   5.778  0.1005 -0.5593 -0.8848
 5464TIP3   OH216355   4.774   4.313   1.255 -0.1254 -0.1488  0.1226
 5464TIP3    H116356   4.766   4.291   1.348 -0.3077 -1.4676 -0.1837
 5464TIP3    H216357   4.824   4.395   1.254  2.6234 -1.6873  1.2794
 5465TIP3   OH216358   0.800   3.527   4.296  0.0538  0.0813  0.1897
 5465TIP3    H116359   0.761   3.590   4.356 -2.8870  0.2666 -1.7478
 5465TIP3    H216360   0.783   3.442   4.336 -0.3151  0.2903  0.4819
 5466TIP3   OH216361   6.865   4.139   0.531 -0.1659 -0.6414  0.8476
 5466TIP3    H116362   6.882   4.047   0.511 -0.7697 -0.6011  0.1058
 5466TIP3    H216363   6.802   4.167   0.465  0.7279  0.5677  0.4555
 5467TIP3   OH216364   6.400   1.440   4.924 -0.2877  0.2504 -0.0016
 5467TIP3    H116365   6.355   1.372   4.974  0.2969 -0.2430 -0.1341
 5467TIP3    H216366   6.398   1.516   4.982 -0.0651 -0.1667  0.5785
 5468TIP3   OH216367   4.960   0.471   3.340  0.0483  0.1971  0.3633
 5468TIP3    H116368   5.002   0.397   3.295  2.8242  1.3546  0.8484
 5468TIP3    H216369   4.970   0.451   3.433  0.0227  0.7570  0.4870
 5469TIP3   OH216370   4.158   0.273   2.607 -0.3970  0.0351  0.1295
 5469TIP3    H116371   4.138   0.214   2.534 -3.0240  2.2480 -1.1380
 5469TIP3    H216372   4.197   0.350   2.565 -0.3829  0.6512  1.2516
 5470TIP3   OH216373   6.490   2.811   2.165 -0.2812 -0.7956 -0.3133
 5470TIP3    H116374   6.398   2.822   2.143 -0.3433  1.5801  0.8840
 5470TIP3    H216375   6.490   2.783   2.257  0.1516  2.9132  0.9564
 5471TIP3   OH216376   1.175   6.704   4.654 -0.5742  0.2021 -0.0772
 5471TIP3    H116377   1.253   6.716   4.601 -1.2670  0.6511 -1.0323
 5471TIP3    H216378   1.168   6.609   4.666  1.2489  0.2549  1.8077
 5472TIP3   OH216379   5.850   0.461   4.870 -0.5597 -0.3101  0.5286
 5472TIP3    H116380   5.868   0.387   4.928 -0.7712  0.6181  1.8343
 5472TIP3    H216381   5.928   0.516   4.878 -0.2072 -0.5734 -0.7825
 5473TIP3   OH216382   2.825   3.989   3.186  0.3120 -0.2030 -0.4042
 5473TIP3    H116383   2.770   4.066   3.199 -1.8123 -1.3307 -2.1210
 5473TIP3    H216384   2.865   4.002   3.100  0.7825 -0.5500 -0.2422
 5474TIP3   OH216385   6.343   0.281   2.630  0.0749 -0.1543 -0.0924
 5474TIP3    H116386   6.371   0.280   2.722  0.9278 -0.2879 -0.3515
 5474TIP3    H216387   6.250   0.306   2.634 -0.3451 -1.7601  0.9103
 5475TIP3   OH216388   5.890   2.463   3.248  0.4427  0.2374  0.3737
 5475TIP3    H116389   5.985   2.474   3.248  0.4744 -0.0359  0.3685
 5475TIP3    H216390   5.869   2.441   3.157  0.2779  1.1064  0.1876
 5476TIP3   OH216391   3.086   0.162   5.471 -0.5788  0.4412  0.2514
 5476TIP3    H116392   3.039   0.094   5.423 -0.0107  0.1718  0.0644
 5476TIP3    H216393   3.044   0.165   5.557 -0.7247 -0.0223  0.1967
 5477TIP3   OH216394   4.772   6.652   3.711  0.5352 -0.0288  0.0640
 5477TIP3    H116395   4.716   6.668   3.786  1.0739  0.3579  0.3929
 5477TIP3    H216396   4.728   6.696   3.638  0.1790 -0.1241  0.2191
 5478TIP3   OH216397   5.005   4.722   4.420 -0.1495  0.5786  1.1348
 5478TIP3    H116398   4.949   4.663   4.371  1.8109 -2.2831  2.0921
 5478TIP3    H216399   4.994   4.696   4.512  0.5510  1.9343  1.6453
 5479TIP3   OH216400   5.041   2.588   1.171 -0.0135 -0.1451  0.6747
 5479TIP3    H116401   5.071   2.505   1.207 -0.9334 -1.3709 -1.2307
 5479TIP3    H216402   4.948   2.574   1.154  0.1675  0.6946 -1.2000
 5480TIP3   OH216403   6.633   1.138   0.688 -0.5584  1.1059  0.1764
 5480TIP3    H116404   6.706   1.096   0.643 -1.0387  0.2474  0.1897
 5480TIP3    H216405   6.645   1.232   0.670  0.9001  1.0485  0.7219
 5481TIP3   OH216406   5.684   3.635   4.721  0.4941  0.2157 -0.3716
 5481TIP3    H116407   5.740   3.557   4.722 -0.9221 -0.8370 -0.6169
 5481TIP3    H216408   5.741   3.704   4.687  1.8654 -0.6230  0.1075
 5482TIP3   OH216409   2.787   5.347   2.028  0.2248  0.3959  0.1371
 5482TIP3    H116410   2.819   5.436   2.043  1.5285  0.2986 -1.7121
 5482TIP3    H216411   2.866   5.295   2.013 -0.5853 -0.8367  0.0172
 5483TIP3   OH216412   2.679   5.859   1.909  0.2257 -0.1916  0.0618
 5483TIP3    H116413   2.767   5.893   1.924  0.9974 -1.7707 -0.6778
 5483TIP3    H216414   2.622   5.936   1.917  1.5967  0.7749  1.0178
 5484TIP3   OH216415   1.247   3.038   1.194 -0.3883  0.0548  0.0855
 5484TIP3    H116416   1.230   2.944   1.186 -1.9357  0.0255  2.4550
 5484TIP3    H216417   1.242   3.055   1.289  0.4466  2.4285 -0.2227
 5485TIP3   OH216418   1.599   2.757   2.621  0.0447 -0.2481 -0.6275
 5485TIP3    H116419   1.615   2.811   2.544  1.3260  0.5351  0.1391
 5485TIP3    H216420   1.607   2.667   2.590 -0.3323  0.0369 -1.5674
 5486TIP3   OH216421   3.950   0.255   2.353 -0.3293  0.0198 -0.0563
 5486TIP3    H116422   3.894   0.236   2.278 -0.6823  0.6382  0.0464
 5486TIP3    H216423   4.009   0.179   2.359 -1.4573 -0.8803  0.1315
 5487TIP3   OH216424   6.080   5.447   0.792  0.1000 -0.4078 -0.2199
 5487TIP3    H116425   6.163   5.493   0.802 -0.9088  1.2212  1.1893
 5487TIP3    H216426   6.096   5.384   0.722  2.0812  0.8955 -1.0321
 5488TIP3   OH216427   6.741   5.981   1.547  0.3211  0.2030  0.1937
 5488TIP3    H116428   6.733   5.924   1.471 -0.4406 -0.7974  1.0042
 5488TIP3    H216429   6.664   6.038   1.543 -1.2736 -1.7048  1.6788
 5489TIP3   OH216430   2.417   6.659   5.447  0.5243  0.6955 -0.5349
 5489TIP3    H116431   2.484   6.593   5.429 -0.3866 -0.5594  0.5014
 5489TIP3    H216432   2.427   6.678   5.540 -1.6935 -0.8827  0.1000
 5490TIP3   OH216433   5.098   0.674   3.817 -0.0894  0.2175 -0.0697
 5490TIP3    H116434   5.037   0.692   3.746  0.9075  0.2553 -0.9490
 5490TIP3    H216435   5.043   0.656   3.893 -1.2089 -1.2995 -1.1869
 5491TIP3   OH216436   5.369   3.600   2.492 -0.1437  0.5794 -0.4456
 5491TIP3    H116437   5.413   3.535   2.438  0.0418 -0.2142  0.6168
 5491TIP3    H216438   5.409   3.590   2.579 -2.3033 -0.0983  0.5485
 5492TIP3   OH216439   7.165   4.600   4.468 -0.1770  0.0856 -0.4557
 5492TIP3    H116440   7.176   4.610   4.374  1.9451  0.4854 -0.2069
 5492TIP3    H216441   7.208   4.677   4.505  0.9158 -1.1476  0.9183
 5493TIP3   OH216442   2.404   4.073   1.100 -0.3386  0.2528 -1.0274
 5493TIP3    H116443   2.343   4.033   1.038 -0.9579  0.2502 -0.4350
 5493TIP3    H216444   2.416   4.162   1.068  1.4828 -0.5375 -2.6685
 5494TIP3   OH216445   1.087   1.284   1.307 -0.9561  0.3144 -0.7313
 5494TIP3    H116446   1.157   1.270   1.370 -0.6639 -0.3085 -1.1783
 5494TIP3    H216447   1.088   1.378   1.290 -0.5954  0.3853 -0.3155
 5495TIP3   OH216448   3.837   1.058   5.139 -0.5796 -0.8442  0.4058
 5495TIP3    H116449   3.774   1.129   5.123 -1.7289 -1.7625  0.6837
 5495TIP3    H216450   3.789   0.996   5.193  0.7545 -1.3574  1.0401
 5496TIP3   OH216451   0.725   4.649   0.741  0.1116 -0.0909 -0.1401
 5496TIP3    H116452   0.641   4.611   0.768  0.1580 -0.3963 -0.4197
 5496TIP3    H216453   0.755   4.593   0.670  0.3117  0.3223 -0.3823
 5497TIP3   OH216454   1.273   6.172   3.450  0.5402 -0.2206  0.5337
 5497TIP3    H116455   1.259   6.090   3.498  1.7407 -1.2776 -0.8318
 5497TIP3    H216456   1.185   6.203   3.430 -0.0235  0.3338  3.4416
 5498TIP3   OH216457   6.306   2.819   3.313  0.2129 -0.4633  0.4314
 5498TIP3    H116458   6.304   2.744   3.373  0.6684 -0.4514  0.4644
 5498TIP3    H216459   6.237   2.800   3.249  1.4875 -1.7964 -0.6113
 5499TIP3   OH216460   6.467   2.902   5.111  0.2660  0.0307 -0.0757
 5499TIP3    H116461   6.371   2.906   5.112  0.3125  1.7275  0.3789
 5499TIP3    H216462   6.489   2.843   5.183 -0.4162  0.5013  0.5272
 5500TIP3   OH216463   4.777   0.627   2.529  0.0747 -0.2130  0.4634
 5500TIP3    H116464   4.852   0.589   2.574 -0.5874 -1.1068  0.8462
 5500TIP3    H216465   4.713   0.556   2.525 -0.1681  0.0704 -1.2528
 5501TIP3   OH216466   3.236   6.520   5.439  0.0469 -1.2585 -0.6563
 5501TIP3    H116467   3.186   6.515   5.357  0.6535  1.7274 -1.3400
 5501TIP3    H216468   3.176   6.562   5.501  0.0997 -2.1343  0.0034
 5502TIP3   OH216469   6.609   6.098   4.248 -0.4895 -0.5036  0.5302
 5502TIP3    H116470   6.674   6.167   4.236  0.0944 -1.0731  0.3663
 5502TIP3    H216471   6.537   6.141   4.294 -0.8182  0.6127 -0.9539
 5503TIP3   OH216472   5.919   4.111   4.259  0.0599 -0.3997 -0.7189
 5503TIP3    H116473   6.005   4.138   4.228 -0.7228 -0.1268 -2.8216
 5503TIP3    H216474   5.921   4.015   4.253  1.0201 -0.5851  1.6467
 5504TIP3   OH216475   5.759   0.126   3.969 -0.4473  0.0485  0.6108
 5504TIP3    H116476   5.773   0.043   3.923  0.1129  0.6751 -0.3949
 5504TIP3    H216477   5.781   0.107   4.060  0.3635 -0.7329  0.2658
 5505TIP3   OH216478   2.132   3.353   5.163  0.2901 -0.1666  0.0888
 5505TIP3    H116479   2.164   3.296   5.233  0.3866  0.2793  0.4130
 5505TIP3    H216480   2.037   3.355   5.175  0.5310  3.1448  2.8074
 5506TIP3   OH216481   1.366   5.965   5.388 -0.0542 -0.3135 -0.3073
 5506TIP3    H116482   1.394   6.054   5.364  2.3229 -1.5006 -2.3001
 5506TIP3    H216483   1.419   5.944   5.465 -1.9195  0.5468  1.3153
 5507TIP3   OH216484   7.111   0.607   4.862 -0.3509 -0.7441  0.4077
 5507TIP3    H116485   7.143   0.641   4.945 -1.5051  1.1514  0.1430
 5507TIP3    H216486   7.032   0.559   4.885 -2.2823  2.0874  0.2706
 5508TIP3   OH216487   1.759   1.503   4.638 -0.2157  0.1202  0.1032
 5508TIP3    H116488   1.767   1.597   4.658 -0.0366 -0.1304  1.3071
 5508TIP3    H216489   1.709   1.467   4.712 -0.1539 -0.7660 -0.2714
 5509TIP3   OH216490   1.770   5.488   4.757 -0.0030  0.0879  0.3637
 5509TIP3    H116491   1.775   5.472   4.851 -1.5222 -2.2985  0.1318
 5509TIP3    H216492   1.773   5.400   4.718 -0.9170  0.9212 -1.7247
 5510TIP3   OH216493   5.033   2.229   3.240 -0.6214 -0.5372 -0.2508
 5510TIP3    H116494   5.039   2.171   3.316  2.3649 -0.8566 -0.6379
 5510TIP3    H216495   4.945   2.213   3.205 -1.2285 -2.0629  1.7918
 5511TIP3   OH216496   3.362   5.011   0.461  0.1718 -0.0430 -0.6164
 5511TIP3    H116497   3.320   4.930   0.433 -0.6091  0.2576 -0.3458
 5511TIP3    H216498   3.408   4.987   0.542 -0.8081 -0.0359 -0.0299
 5512TIP3   OH216499   4.562   1.702   3.338  0.4975  0.1490  0.2217
 5512TIP3    H116500   4.578   1.704   3.243 -0.6243  1.1419  0.0195
 5512TIP3    H216501   4.540   1.793   3.360 -3.1783 -0.6754  0.6790
 5513TIP3   OH216502   2.725   5.548   2.397 -0.0725  0.2657  0.2264
 5513TIP3    H116503   2.741   5.635   2.434 -1.8710  0.8562 -0.2951
 5513TIP3    H216504   2.796   5.536   2.334  0.6185  1.0320  0.8337
 5514TIP3   OH216505   5.224   1.219   2.066  0.4342  0.1034 -0.2723
 5514TIP3    H116506   5.140   1.187   2.100  1.2444 -2.9215 -0.7779
 5514TIP3    H216507   5.200   1.274   1.991 -1.1352 -1.3662 -0.9230
 5515TIP3   OH216508   1.531   3.281   4.190  0.7509 -0.5086 -0.4303
 5515TIP3    H116509   1.503   3.204   4.141  1.5768 -0.0806 -1.6141
 5515TIP3    H216510   1.457   3.302   4.247  0.5828 -2.2617  0.0318
 5516TIP3   OH216511   3.028   3.883   3.815  0.0718 -0.0549  0.0211
 5516TIP3    H116512   3.124   3.880   3.817  0.0502 -0.6592  0.1972
 5516TIP3    H216513   3.007   3.913   3.726  0.4405  1.1725  0.3239
 5517TIP3   OH216514   1.860   3.590   3.122 -0.0243 -0.4078  0.0149
 5517TIP3    H116515   1.925   3.643   3.075  0.4655  0.1232  1.2368
 5517TIP3    H216516   1.789   3.577   3.059  0.2620  0.9408 -0.6216
 5518TIP3   OH216517   4.908   5.976   5.409  0.6063  0.1908  0.0635
 5518TIP3    H116518   4.957   5.935   5.480 -0.7648  0.2122  1.0640
 5518TIP3    H216519   4.831   6.014   5.452  0.5155  1.5482 -1.2121
 5519TIP3   OH216520   6.019   5.031   3.920  0.2723 -0.3966 -0.1266
 5519TIP3    H116521   6.033   5.001   3.830 -0.1793 -0.7705 -0.0767
 5519TIP3    H216522   5.924   5.036   3.929  0.3305  0.4139  0.0845
 5520TIP3   OH216523   1.798   5.363   1.220 -0.0748 -0.1695  0.0024
 5520TIP3    H116524   1.828   5.273   1.212 -0.2097 -0.4537  2.1548
 5520TIP3    H216525   1.714   5.365   1.175  0.9308 -0.5280 -1.9820
 5521TIP3   OH216526   3.450   4.069   5.055 -0.1464  0.2291  0.1192
 5521TIP3    H116527   3.511   4.113   5.114  2.5530 -0.6240 -1.8525
 5521TIP3    H216528   3.408   4.139   5.006 -1.2647  0.8570  1.8788
 5522TIP3   OH216529   4.318   3.814   0.522 -0.0245  0.2825  0.0375
 5522TIP3    H116530   4.384   3.811   0.454 -0.3894  0.0033 -0.3129
 5522TIP3    H216531   4.237   3.787   0.478 -0.2735  0.1482  0.5658
 5523TIP3   OH216532   0.619   1.410   1.623  0.3377  0.0748  0.3571
 5523TIP3    H116533   0.695   1.429   1.568  1.2494  0.1312  1.6232
 5523TIP3    H216534   0.605   1.316   1.613  1.9437 -0.3652  1.7938
 5524TIP3   OH216535   5.220   0.990   1.199 -0.2237 -0.0481  0.0382
 5524TIP3    H116536   5.269   1.005   1.118  0.0902  2.2322  0.5745
 5524TIP3    H216537   5.281   0.942   1.255  0.2414  0.0227 -0.4005
 5525TIP3   OH216538   6.559   1.088   5.713 -0.1661  0.3781  0.1989
 5525TIP3    H116539   6.611   1.015   5.746  1.5217  2.0441  1.4646
 5525TIP3    H216540   6.489   1.099   5.777  1.0380  1.3765  1.3978
 5526TIP3   OH216541   0.371   3.335   0.345  0.2984  0.0517  0.0416
 5526TIP3    H116542   0.314   3.385   0.403  2.3209  1.7704  0.6634
 5526TIP3    H216543   0.413   3.270   0.401  0.1415 -0.1638 -0.0884
 5527TIP3   OH216544   7.014   6.740   4.883  0.3484  0.3174 -0.0198
 5527TIP3    H116545   7.008   6.752   4.788  0.7122 -1.4890 -0.3182
 5527TIP3    H216546   7.108   6.733   4.901  0.7053  5.0955  1.2081
 5528TIP3   OH216547   5.125   2.325   1.242 -0.0320 -0.0867  0.4806
 5528TIP3    H116548   5.208   2.281   1.259  0.6403  2.0852  3.8192
 5528TIP3    H216549   5.061   2.278   1.296  0.0854  1.1437  1.7357
 5529TIP3   OH216550   1.763   6.351   4.696  0.1981 -0.5463  0.4302
 5529TIP3    H116551   1.832   6.405   4.658 -1.1300  1.2111  0.3956
 5529TIP3    H216552   1.796   6.329   4.784  0.8003  0.2891  0.4240
 5530TIP3   OH216553   1.663   2.221   0.900 -0.3446  0.0208  0.3977
 5530TIP3    H116554   1.667   2.299   0.957  0.6620  0.6128 -0.4429
 5530TIP3    H216555   1.675   2.147   0.960  1.1437  0.6529  0.9199
 5531TIP3   OH216556   2.031   3.178   1.547 -0.0408  0.2789 -0.7029
 5531TIP3    H116557   2.054   3.175   1.639 -1.0489 -2.6710 -0.4475
 5531TIP3    H216558   1.967   3.249   1.540  0.5425  0.9708  0.7123
 5532TIP3   OH216559   2.833   0.457   3.009  0.1187 -0.4434  0.8534
 5532TIP3    H116560   2.878   0.501   3.081 -0.3543  1.7893 -0.1322
 5532TIP3    H216561   2.902   0.430   2.949  0.3207  2.0670 -0.1628
 5533TIP3   OH216562   0.473   0.515   3.654 -0.2318 -0.1605  0.4080
 5533TIP3    H116563   0.490   0.446   3.589 -1.3764 -2.2053  2.1587
 5533TIP3    H216564   0.416   0.576   3.609  0.9550 -0.2024 -1.2584
 5534TIP3   OH216565   5.555   5.122   4.097  0.3338  0.1413 -0.0515
 5534TIP3    H116566   5.602   5.185   4.152  0.2694  0.3535 -0.2363
 5534TIP3    H216567   5.469   5.161   4.085  0.0243 -0.3605  0.4823
 5535TIP3   OH216568   6.355   6.520   1.267  0.3195 -0.9466  0.3683
 5535TIP3    H116569   6.267   6.489   1.247  0.4203 -1.4586  0.6945
 5535TIP3    H216570   6.408   6.493   1.191  0.3239 -1.2006  0.4630
 5536TIP3   OH216571   2.467   0.283   4.348  0.1620 -0.3392  1.0355
 5536TIP3    H116572   2.464   0.216   4.280 -1.8387 -0.2438  0.9817
 5536TIP3    H216573   2.376   0.293   4.376  0.4065  2.2376  1.1447
 5537TIP3   OH216574   4.675   3.615   2.047 -0.2891 -0.0868  0.4282
 5537TIP3    H116575   4.681   3.672   1.970 -0.1040 -1.4926 -0.6464
 5537TIP3    H216576   4.606   3.654   2.101  0.0125  1.2814 -0.1236
 5538TIP3   OH216577   5.969   1.326   0.312 -0.2457  0.0864  0.8935
 5538TIP3    H116578   5.982   1.232   0.322  0.4969  0.2453  1.5111
 5538TIP3    H216579   5.932   1.354   0.396  0.6180  0.5201  1.1374
 5539TIP3   OH216580   3.298   3.417   2.459 -0.0190  0.2552 -0.2325
 5539TIP3    H116581   3.311   3.355   2.387 -0.2336  1.2240 -1.1399
 5539TIP3    H216582   3.384   3.457   2.472  0.3145 -0.7703  0.8969
 5540TIP3   OH216583   5.355   0.907   1.426  0.1499  0.1341 -0.0373
 5540TIP3    H116584   5.438   0.921   1.471  0.7232 -0.7744 -0.7840
 5540TIP3    H216585   5.357   0.816   1.399 -0.0531  0.6949 -2.1211
 5541TIP3   OH216586   6.137   4.842   4.090 -0.5082  0.1561  0.2029
 5541TIP3    H116587   6.099   4.919   4.047 -0.7158 -0.6360 -1.0794
 5541TIP3    H216588   6.103   4.767   4.041  0.8996 -0.6965  0.4606
 5542TIP3   OH216589   3.147   6.308   0.534  0.3136 -0.7520  0.2869
 5542TIP3    H116590   3.205   6.364   0.483  0.8885  1.0232  2.6954
 5542TIP3    H216591   3.060   6.323   0.496  0.6536  0.8775  0.0802
 5543TIP3   OH216592   3.353   6.324   4.374  0.1092 -0.3417 -0.9405
 5543TIP3    H116593   3.291   6.394   4.394  0.0262 -1.0674  1.7746
 5543TIP3    H216594   3.395   6.305   4.458  0.7030 -2.9854 -1.7418
 5544TIP3   OH216595   2.289   1.447   2.668  0.5697 -0.3642  0.6660
 5544TIP3    H116596   2.353   1.418   2.733  1.0429  2.8696  1.8681
 5544TIP3    H216597   2.215   1.479   2.721  0.6316  1.6402 -0.3530
 5545TIP3   OH216598   1.612   6.510   4.117  0.1622 -0.2960  0.3364
 5545TIP3    H116599   1.622   6.415   4.113  1.6507 -0.2238  1.4037
 5545TIP3    H216600   1.657   6.535   4.198 -0.0410  1.3373 -0.0226
 5546TIP3   OH216601   6.874   1.164   3.704  0.0838 -0.8627 -0.2429
 5546TIP3    H116602   6.957   1.210   3.693  0.0748 -1.0618 -1.2613
 5546TIP3    H216603   6.808   1.225   3.671 -0.5036  0.2845  2.7556
 5547TIP3   OH216604   7.127   2.823   0.265 -0.0530  0.2340  0.3743
 5547TIP3    H116605   7.101   2.832   0.356 -0.7692 -0.6696  0.2745
 5547TIP3    H216606   7.151   2.730   0.256 -4.2738 -0.9284 -1.3738
 5548TIP3   OH216607   2.596   3.001   2.726 -0.0773 -0.7247 -0.3271
 5548TIP3    H116608   2.520   3.028   2.674 -0.5329 -0.2752  0.5564
 5548TIP3    H216609   2.570   2.917   2.764  0.0345 -0.7812 -0.3765
 5549TIP3   OH216610   3.491   3.385   1.979  0.0233  0.4809 -0.2466
 5549TIP3    H116611   3.582   3.365   2.001 -0.2476 -0.2881  0.2202
 5549TIP3    H216612   3.461   3.308   1.931 -0.1671  1.0521 -1.0574
 5550TIP3   OH216613   2.102   3.264   5.763  0.1308  0.7363 -0.1152
 5550TIP3    H116614   2.150   3.338   5.727 -0.4657  1.2521  0.1132
 5550TIP3    H216615   2.010   3.290   5.756 -0.0922 -0.0329 -0.1303
 5551TIP3   OH216616   3.597   5.297   1.683  0.1427  0.1886 -0.1997
 5551TIP3    H116617   3.677   5.260   1.644  0.5782  0.0871  0.7783
 5551TIP3    H216618   3.529   5.278   1.618  0.7756 -0.3566 -0.7232
 5552TIP3   OH216619   6.189   5.495   4.204 -0.5092 -0.5233 -0.0762
 5552TIP3    H116620   6.197   5.406   4.169 -0.1853 -0.7957  0.6728
 5552TIP3    H216621   6.250   5.547   4.152 -0.0068 -0.9302  0.0989
 5553TIP3   OH216622   3.619   1.341   1.726 -0.3313  0.2522 -0.3760
 5553TIP3    H116623   3.536   1.350   1.773  0.2620  2.6210  0.3666
 5553TIP3    H216624   3.685   1.334   1.795  0.1915 -0.7113 -0.9511
 5554TIP3   OH216625   3.488   5.392   3.990 -0.0645 -0.5213 -0.2511
 5554TIP3    H116626   3.525   5.403   3.903 -0.3648 -0.4547 -0.3707
 5554TIP3    H216627   3.401   5.431   3.985  0.8728  1.9253  0.8076
 5555TIP3   OH216628   0.716   6.090   1.762  0.2128  0.0957 -0.2031
 5555TIP3    H116629   0.788   6.076   1.700 -0.8675  2.7397 -2.2849
 5555TIP3    H216630   0.753   6.148   1.829  0.6271 -0.4302  0.0259
 5556TIP3   OH216631   3.500   5.419   5.399  0.3319  0.1228 -0.1966
 5556TIP3    H116632   3.584   5.420   5.353  0.9964  1.2097  0.9677
 5556TIP3    H216633   3.446   5.481   5.351  1.0274  1.2609  0.4304
 5557TIP3   OH216634   2.701   5.564   5.087 -0.1133  0.3129 -0.4583
 5557TIP3    H116635   2.749   5.523   5.016 -1.6834 -0.2838 -1.2136
 5557TIP3    H216636   2.768   5.585   5.153  1.0787 -0.9540 -1.2316
 5558TIP3   OH216637   2.109   1.751   4.386 -0.6065 -1.0469 -0.0281
 5558TIP3    H116638   2.126   1.826   4.442  1.6686 -1.5043 -0.0260
 5558TIP3    H216639   2.103   1.787   4.297  0.3285 -0.8358 -0.0084
 5559TIP3   OH216640   6.170   3.811   0.169 -0.3960  1.0853 -0.4445
 5559TIP3    H116641   6.075   3.813   0.159 -0.4320  1.0449 -0.0929
 5559TIP3    H216642   6.189   3.721   0.194 -0.1123  0.6455 -2.0796
 5560TIP3   OH216643   6.428   3.772   2.698 -0.1927 -0.2816 -0.4987
 5560TIP3    H116644   6.380   3.829   2.757  1.2065  0.7400 -0.3072
 5560TIP3    H216645   6.444   3.692   2.749  1.4089  0.7603  0.7499
 5561TIP3   OH216646   1.602   3.067   2.761  0.0800  0.5825 -0.1056
 5561TIP3    H116647   1.552   3.043   2.683 -0.6303  0.8016  0.2741
 5561TIP3    H216648   1.538   3.107   2.820  0.1775 -1.3712  1.4218
 5562TIP3   OH216649   0.941   4.262   2.541 -0.0697 -0.7542  0.1239
 5562TIP3    H116650   1.023   4.217   2.559  0.8011 -0.1110 -1.9555
 5562TIP3    H216651   0.877   4.221   2.599  1.5685 -1.7243  1.2972
 5563TIP3   OH216652   1.784   5.433  -0.023  0.4485  0.5555  0.3241
 5563TIP3    H116653   1.821   5.418   0.064  1.1110  0.5351  0.0487
 5563TIP3    H216654   1.723   5.360  -0.035  0.6010  0.3695  0.6420
 5564TIP3   OH216655   0.654   4.511   5.046  0.5111 -0.4278  0.1910
 5564TIP3    H116656   0.668   4.598   5.008 -0.6271  0.8409  2.4669
 5564TIP3    H216657   0.683   4.520   5.137 -1.6527 -1.7678  1.0693
 5565TIP3   OH216658   0.078   6.574   5.835  0.6209  0.2394 -0.1673
 5565TIP3    H116659  -0.000   6.561   5.888  1.5232  0.0573  1.1665
 5565TIP3    H216660   0.076   6.666   5.810  1.1529  0.8594  1.8677
 5566TIP3   OH216661   2.393   5.165   5.732  0.1551  0.1141  0.3054
 5566TIP3    H116662   2.338   5.096   5.695  0.5378  0.6343 -1.3240
 5566TIP3    H216663   2.341   5.245   5.723  0.0862  0.2074  1.3406
 5567TIP3   OH216664   5.511   0.643   2.644  0.8456  0.1222 -0.2271
 5567TIP3    H116665   5.503   0.732   2.678 -0.9969 -0.5452  1.2839
 5567TIP3    H216666   5.583   0.605   2.694  0.5554  0.2790  0.3205
 5568TIP3   OH216667   0.200   3.958   4.259  0.3776  0.4073  0.3253
 5568TIP3    H116668   0.173   3.976   4.169 -0.1984 -1.4883  0.0766
 5568TIP3    H216669   0.267   4.023   4.277  0.3071  1.0115 -1.3675
 5569TIP3   OH216670   6.985   3.897   2.103 -0.1263  0.2067  0.1045
 5569TIP3    H116671   6.933   3.859   2.174  2.6923 -1.0024  1.7317
 5569TIP3    H216672   7.075   3.869   2.123  1.3882  3.3180 -1.6579
 5570TIP3   OH216673   2.474   4.488   5.835 -0.4720  0.0735 -0.6981
 5570TIP3    H116674   2.405   4.555   5.831  1.4178  2.2431  0.8766
 5570TIP3    H216675   2.547   4.526   5.785  1.6436  0.5794  2.5085
 5571TIP3   OH216676   7.165   6.528   1.114  0.3371  0.2653 -0.0330
 5571TIP3    H116677   7.192   6.505   1.025  1.2715  1.8922 -0.1966
 5571TIP3    H216678   7.074   6.497   1.119  0.5594 -0.6835 -1.2152
 5572TIP3   OH216679   1.113   4.938   0.583 -0.2514 -0.1601 -0.3626
 5572TIP3    H116680   1.080   4.937   0.493 -0.2314 -0.4841 -0.3682
 5572TIP3    H216681   1.057   4.875   0.630  1.4374 -2.0933 -0.7728
 5573TIP3   OH216682   0.445   0.325   1.742  0.3856  0.1898  0.1457
 5573TIP3    H116683   0.389   0.249   1.728  1.8177 -0.5054 -2.6730
 5573TIP3    H216684   0.509   0.296   1.806 -0.7123  0.0232  1.2048
 5574TIP3   OH216685   0.455   5.631   1.425 -0.5897 -0.7237  0.4801
 5574TIP3    H116686   0.399   5.639   1.502 -2.6623 -0.1942 -1.0075
 5574TIP3    H216687   0.417   5.690   1.361  1.7553 -0.2779 -0.6158
 5575TIP3   OH216688   4.323   1.797   0.690  0.6307  0.0143 -0.2747
 5575TIP3    H116689   4.336   1.723   0.749  0.9506  0.4733  0.2390
 5575TIP3    H216690   4.377   1.777   0.614  0.1800 -0.6016 -0.4379
 5576TIP3   OH216691   3.372   6.817   0.170 -0.5056  0.3465 -0.0676
 5576TIP3    H116692   3.405   6.788   0.085  0.3111  0.3145  0.2499
 5576TIP3    H216693   3.282   6.785   0.173 -0.2973 -0.3155 -0.6007
 5577TIP3   OH216694   6.104   3.864   3.993 -0.0403  0.1937 -1.0747
 5577TIP3    H116695   6.188   3.819   3.982 -0.5233 -0.5402 -1.9271
 5577TIP3    H216696   6.048   3.828   3.924 -1.8977 -1.3293  1.0624
 5578TIP3   OH216697   2.872   5.210   4.071 -0.1916  0.0509 -0.6359
 5578TIP3    H116698   2.824   5.180   3.994 -1.8012 -0.4933  0.5320
 5578TIP3    H216699   2.875   5.305   4.061 -0.8195  0.0305 -1.1211
 5579TIP3   OH216700   6.340   4.925   5.847  0.7596  0.1105 -0.3390
 5579TIP3    H116701   6.401   4.869   5.800  0.2171 -0.3764 -0.4724
 5579TIP3    H216702   6.280   4.864   5.891  0.8058  0.5687  0.3705
 5580TIP3   OH216703   4.344   0.942   3.304 -0.0201  0.4410 -0.3190
 5580TIP3    H116704   4.418   0.962   3.247 -1.2505  1.7817 -1.5150
 5580TIP3    H216705   4.364   0.988   3.386  1.1504 -0.4550 -0.0661
 5581TIP3   OH216706   6.044   1.260   3.211 -0.1237  0.1172  0.2390
 5581TIP3    H116707   6.107   1.228   3.276  1.0343 -0.1885 -0.9864
 5581TIP3    H216708   5.969   1.202   3.221 -0.2691  0.5048  1.7522
 5582TIP3   OH216709   3.023   3.687   1.732  0.5198  0.3219 -0.3472
 5582TIP3    H116710   2.946   3.712   1.681 -1.5019 -0.6028  2.0164
 5582TIP3    H216711   3.022   3.747   1.807  1.3320 -0.5184  0.3676
 5583TIP3   OH216712   5.990   6.409   3.286 -0.6925 -0.2065 -0.1678
 5583TIP3    H116713   6.059   6.475   3.276 -1.2649  0.3735 -0.4385
 5583TIP3    H216714   5.947   6.431   3.369  0.7319 -1.8260  1.0564
 5584TIP3   OH216715   1.678   1.634   3.020 -0.0713 -0.0060 -0.1383
 5584TIP3    H116716   1.706   1.604   2.934  1.2859  0.5641  0.0824
 5584TIP3    H216717   1.708   1.566   3.081 -0.0868  0.1080 -0.0010
 5585TIP3   OH216718   2.725   3.547   3.864 -0.1097  0.7098  0.2135
 5585TIP3    H116719   2.698   3.501   3.943 -0.9656 -2.2602 -1.6193
 5585TIP3    H216720   2.806   3.592   3.888  0.0785 -0.7159  2.5607
 5586TIP3   OH216721   3.268   4.605   1.665 -0.0660  0.5733  0.0500
 5586TIP3    H116722   3.229   4.521   1.643 -0.5126  0.7502  0.1665
 5586TIP3    H216723   3.351   4.582   1.708  0.3002  0.2113 -0.8172
 5587TIP3   OH216724   0.343   1.521   3.887 -0.0794  0.0240  0.4276
 5587TIP3    H116725   0.342   1.429   3.863 -0.0550 -0.4464  2.1199
 5587TIP3    H216726   0.387   1.524   3.972  1.0881  1.7523 -0.1725
 5588TIP3   OH216727   2.920   1.953   5.579 -0.4266  0.1666  0.1218
 5588TIP3    H116728   2.926   1.954   5.484  0.4357  0.5975  0.1710
 5588TIP3    H216729   2.860   2.025   5.600 -0.2939  0.3345 -0.0755
 5589TIP3   OH216730   3.803   4.207   5.399 -0.7007  0.3192 -0.6513
 5589TIP3    H116731   3.894   4.198   5.370 -0.8443  0.0427 -1.0217
 5589TIP3    H216732   3.810   4.246   5.486 -0.0830 -2.0131  0.4265
 5590TIP3   OH216733   3.494   6.557   3.230  0.3164 -0.3937  0.7826
 5590TIP3    H116734   3.418   6.499   3.223  0.2875 -0.2784  0.0996
 5590TIP3    H216735   3.479   6.607   3.310 -1.3569  1.0864 -0.3819
 5591TIP3   OH216736   4.360   1.886   3.629  0.6421 -0.1958 -0.3682
 5591TIP3    H116737   4.315   1.963   3.596  1.9239  1.1124  0.7796
 5591TIP3    H216738   4.416   1.857   3.557  2.0042  1.4877 -0.0614
 5592TIP3   OH216739   4.555   2.512   0.865 -0.6804 -0.4933 -0.3198
 5592TIP3    H116740   4.533   2.549   0.779  0.8351  0.7751 -0.2276
 5592TIP3    H216741   4.634   2.561   0.891 -0.2345 -1.9150  1.1111
 5593TIP3   OH216742   1.954   4.117   0.952  0.2340  0.1313  0.3400
 5593TIP3    H116743   1.951   4.022   0.965  1.2392  0.0688  0.1691
 5593TIP3    H216744   1.991   4.151   1.034 -1.1715  0.5014  0.8601
 5594TIP3   OH216745   3.992   5.598   5.707 -0.1118  0.4781  0.1652
 5594TIP3    H116746   3.916   5.654   5.690 -0.9344 -0.8826 -0.8360
 5594TIP3    H216747   4.060   5.631   5.649 -0.8257  0.0121 -0.9699
 5595TIP3   OH216748   4.426   0.975   5.705  0.5603 -0.0870 -0.2658
 5595TIP3    H116749   4.331   0.985   5.697  0.4871 -0.4956  0.0801
 5595TIP3    H216750   4.454   1.052   5.755  0.2047 -0.7360  0.9776
 5596TIP3   OH216751   0.585   0.476   1.307 -0.5356 -0.3433  0.3959
 5596TIP3    H116752   0.499   0.439   1.327 -0.3276 -0.0797  1.8986
 5596TIP3    H216753   0.580   0.567   1.337  0.1733 -0.2508  0.2604
 5597TIP3   OH216754   3.919   6.559   2.415  0.4293  0.3383  0.0038
 5597TIP3    H116755   3.960   6.643   2.432  0.5281  0.4015 -0.5204
 5597TIP3    H216756   3.828   6.570   2.441  0.3645  0.7131 -0.3697
 5598TIP3   OH216757   2.600   4.123   2.009  0.0900 -0.0935 -0.2158
 5598TIP3    H116758   2.689   4.089   2.010 -0.4007 -1.4502 -0.5777
 5598TIP3    H216759   2.558   4.077   1.936 -1.1329 -0.0688  0.4526
 5599TIP3   OH216760   4.753   3.770   2.895  0.1286  0.3045 -0.0760
 5599TIP3    H116761   4.723   3.685   2.862  1.6847 -0.8737  1.3447
 5599TIP3    H216762   4.685   3.832   2.868  0.5697 -0.7369 -4.1327
 5600TIP3   OH216763   3.419   4.198   1.570  0.7639  0.7483 -0.2887
 5600TIP3    H116764   3.364   4.193   1.491 -2.0678  0.5761  1.5514
 5600TIP3    H216765   3.420   4.291   1.592  0.4003  0.6346  0.2162
 5601TIP3   OH216766   3.069   0.971   5.653  0.2160  0.1373 -0.4557
 5601TIP3    H116767   3.000   1.037   5.657 -1.1253 -1.1754 -0.9696
 5601TIP3    H216768   3.150   1.021   5.659 -0.7433  1.8482 -0.9940
 5602TIP3   OH216769   6.317   1.117   1.366  0.0301  0.0364 -0.1336
 5602TIP3    H116770   6.330   1.112   1.271 -0.4214 -1.8825 -0.1318
 5602TIP3    H216771   6.354   1.035   1.399  2.2264  1.6109  1.6378
 5603TIP3   OH216772   3.944   3.742   3.501 -0.1900 -0.0768  0.1789
 5603TIP3    H116773   4.002   3.763   3.575  2.6774 -1.1563 -1.5878
 5603TIP3    H216774   3.895   3.823   3.486 -0.2429  0.4448  2.6640
 5604TIP3   OH216775   4.288   3.594   2.416  0.0222  0.6650  0.5821
 5604TIP3    H116776   4.229   3.525   2.386 -0.5947  0.5399  2.0197
 5604TIP3    H216777   4.231   3.668   2.436  0.5440  1.1374  0.3650
 5605TIP3   OH216778   2.686   0.537   0.813 -0.2017  0.1570  0.1642
 5605TIP3    H116779   2.733   0.593   0.875  1.7458 -0.0819 -1.0307
 5605TIP3    H216780   2.670   0.456   0.861  0.7035  0.2090  0.5627
 5606TIP3   OH216781   0.783   2.602   1.046 -0.2702 -0.2634  0.3204
 5606TIP3    H116782   0.730   2.524   1.063  0.7786 -1.1651 -0.4099
 5606TIP3    H216783   0.772   2.657   1.124 -1.1229 -1.0887  0.7867
 5607TIP3   OH216784   4.254   1.733   4.464  0.0353  0.7776  0.0415
 5607TIP3    H116785   4.293   1.805   4.415 -0.9342 -0.1392 -2.2113
 5607TIP3    H216786   4.160   1.745   4.453 -0.1427 -0.8020 -0.3515
 5608TIP3   OH216787   2.524   3.392   1.517 -0.0928 -0.4436 -0.4399
 5608TIP3    H116788   2.507   3.367   1.608 -0.8508  0.9835 -0.1595
 5608TIP3    H216789   2.459   3.343   1.467 -0.3614 -0.4526 -0.0931
 5609TIP3   OH216790   5.433   6.742   2.016 -0.0059 -0.7493 -0.1424
 5609TIP3    H116791   5.376   6.774   1.946  0.8853  2.5793  0.4758
 5609TIP3    H216792   5.372   6.719   2.087 -0.7404 -0.6956 -0.7440
 5610TIP3   OH216793   1.206   0.082   1.483  0.1668  0.3623 -0.1365
 5610TIP3    H116794   1.119   0.121   1.477 -0.1321 -0.1912  0.4436
 5610TIP3    H216795   1.266   0.156   1.493 -0.1433  0.8006 -1.3580
 5611TIP3   OH216796   3.085   3.918   1.213 -0.0055  0.3213  0.2075
 5611TIP3    H116797   3.087   3.994   1.155 -0.5547  0.4643  0.3746
 5611TIP3    H216798   3.075   3.955   1.300  1.7952  0.1588  0.5175
 5612TIP3   OH216799   1.064   3.756   2.262 -0.2726  0.5302  0.1878
 5612TIP3    H116800   1.054   3.851   2.269 -0.9123  0.5568 -0.8549
 5612TIP3    H216801   1.010   3.732   2.187  0.8900 -0.5086 -0.3398
 5613TIP3   OH216802   0.725   6.429   1.810 -0.4454 -0.0350  0.1146
 5613TIP3    H116803   0.643   6.438   1.762  0.1083  0.1533 -0.8314
 5613TIP3    H216804   0.790   6.472   1.754  0.1585  0.5179  1.2224
 5614TIP3   OH216805   0.660   4.636   3.933  0.0933 -0.4012  0.5233
 5614TIP3    H116806   0.684   4.621   4.025 -0.7063  0.8774  0.9634
 5614TIP3    H216807   0.569   4.606   3.928  0.5040 -1.6108 -0.1803
 5615TIP3   OH216808   5.507   3.109   3.897  0.0081  0.0035  0.5847
 5615TIP3    H116809   5.527   3.024   3.859 -0.1899  0.3868 -0.4118
 5615TIP3    H216810   5.574   3.122   3.963 -0.2483 -1.1330  1.0916
 5616TIP3   OH216811   1.437   4.055   2.582 -0.4527  0.5815  0.3669
 5616TIP3    H116812   1.403   3.985   2.526 -0.1670  1.4605 -0.9676
 5616TIP3    H216813   1.531   4.055   2.566 -0.1131 -0.2492  2.1798
 5617TIP3   OH216814   3.532   2.338   5.118  0.6486 -0.8627  0.3772
 5617TIP3    H116815   3.576   2.269   5.069  1.2398  0.4664 -1.0195
 5617TIP3    H216816   3.592   2.358   5.190  0.2333 -2.1251  1.1114
 5618TIP3   OH216817   6.683   4.505   4.593  0.1938 -0.2720 -0.0841
 5618TIP3    H116818   6.617   4.436   4.592 -0.4079  0.2929 -0.6986
 5618TIP3    H216819   6.763   4.462   4.564 -0.0755 -0.8016 -0.0584
 5619TIP3   OH216820   2.224   3.571   5.828  0.6100  0.0372  0.2764
 5619TIP3    H116821   2.266   3.551   5.745  0.0967 -0.2858  0.0910
 5619TIP3    H216822   2.151   3.628   5.805  1.7867  1.8209  0.7494
 5620TIP3   OH216823   2.459   2.338   0.754 -1.0096 -0.0177  0.1659
 5620TIP3    H116824   2.523   2.312   0.689 -1.9908  0.5931 -1.0858
 5620TIP3    H216825   2.494   2.304   0.837  0.5317 -0.3414 -0.5752
 5621TIP3   OH216826   0.057   5.808   4.933  0.3235  0.3393  0.0756
 5621TIP3    H116827   0.114   5.732   4.947  0.5809  0.5475  0.1734
 5621TIP3    H216828   0.012   5.820   5.017 -0.7779 -0.5667 -0.3757
 5622TIP3   OH216829   7.057   0.789   5.077 -0.3478 -0.0560 -0.0208
 5622TIP3    H116830   6.967   0.757   5.089  0.5562 -1.7287  3.9419
 5622TIP3    H216831   7.049   0.884   5.076 -2.2119 -0.1804 -0.1490
 5623TIP3   OH216832   4.261   2.886   1.716 -0.1988  0.3990  0.3498
 5623TIP3    H116833   4.200   2.822   1.678 -0.5897  0.8252  0.2639
 5623TIP3    H216834   4.265   2.864   1.809 -0.8939  0.7094  0.4532
 5624TIP3   OH216835   3.973   5.829   2.806 -0.3348 -0.2805  0.4567
 5624TIP3    H116836   3.961   5.858   2.716 -0.2873 -0.4112  0.4081
 5624TIP3    H216837   3.885   5.803   2.834 -0.2335 -0.9045  0.2159
 5625TIP3   OH216838   0.513   0.863   0.226  0.4270  0.5398  0.1043
 5625TIP3    H116839   0.494   0.771   0.208 -0.5049  0.4291  1.4504
 5625TIP3    H216840   0.438   0.910   0.189 -0.2585  0.5274  1.4309
 5626TIP3   OH216841   1.172   1.581   2.001  0.0513  0.4060  0.0708
 5626TIP3    H116842   1.178   1.495   1.959 -0.3449  0.5473 -0.2796
 5626TIP3    H216843   1.246   1.583   2.062  0.7365  0.2607 -0.7335
 5627TIP3   OH216844   4.383   4.881   5.021  0.9437  0.1566 -0.2761
 5627TIP3    H116845   4.363   4.862   4.929 -0.1719  2.2239 -0.5101
 5627TIP3    H216846   4.478   4.872   5.027  1.1355  0.7919 -1.8544
 5628TIP3   OH216847   1.919   1.370   0.836  0.0075 -0.2871 -0.2777
 5628TIP3    H116848   1.933   1.352   0.743 -0.0251 -0.8261 -0.1855
 5628TIP3    H216849   1.832   1.335   0.854 -0.3939  0.6923 -0.2580
 5629TIP3   OH216850   6.677   6.042   0.094  0.2947 -0.3061  0.3663
 5629TIP3    H116851   6.705   5.951   0.103 -0.8515 -0.6605  0.5219
 5629TIP3    H216852   6.702   6.083   0.177  0.1684 -0.6758  0.5941
 5630TIP3   OH216853   3.880   2.887   0.035  0.1776  0.1870 -0.4170
 5630TIP3    H116854   3.820   2.950  -0.006  0.5353 -0.8532 -2.6685
 5630TIP3    H216855   3.869   2.806  -0.015 -0.1582 -1.5807  2.2867
 5631TIP3   OH216856   6.259   1.609   0.433  0.3697  0.7989  0.2534
 5631TIP3    H116857   6.242   1.539   0.496  1.2276  1.5535  1.3678
 5631TIP3    H216858   6.174   1.653   0.423 -0.3776 -0.8598 -1.0917
 5632TIP3   OH216859   0.279   2.681   2.116 -0.3933  0.1626 -0.2775
 5632TIP3    H116860   0.203   2.667   2.173 -0.0173 -0.2103  0.1462
 5632TIP3    H216861   0.275   2.608   2.054  0.0545 -0.3191  0.2432
 5633TIP3   OH216862   7.057   5.357   0.779  0.6683 -0.4156  0.1158
 5633TIP3    H116863   6.963   5.356   0.765  0.7151 -0.0955 -0.2776
 5633TIP3    H216864   7.083   5.265   0.785  0.2806 -0.4924  0.5959
 5634TIP3   OH216865   6.960   3.287   4.213 -0.2735 -0.1450 -0.1170
 5634TIP3    H116866   7.006   3.255   4.291 -0.4414 -1.2604 -0.4578
 5634TIP3    H216867   7.025   3.278   4.142 -0.4764 -0.1673 -0.3013
 5635TIP3   OH216868   4.905   6.407   4.968  0.6523 -0.5002 -0.0830
 5635TIP3    H116869   4.912   6.498   4.998  0.5263 -0.2678 -0.7344
 5635TIP3    H216870   4.914   6.355   5.048 -0.2422  0.1084  0.4449
 5636TIP3   OH216871   4.358   2.614   1.434  0.1157 -0.2321 -0.4421
 5636TIP3    H116872   4.320   2.533   1.400 -2.7294  0.1792  1.3774
 5636TIP3    H216873   4.293   2.647   1.496  2.3962  2.0144  0.9953
 5637TIP3   OH216874   2.667   0.778   5.070  0.0018 -0.1679  0.3229
 5637TIP3    H116875   2.608   0.794   4.996  0.4741 -1.0126 -0.2388
 5637TIP3    H216876   2.677   0.683   5.073  0.9882 -0.0604  0.6921
 5638TIP3   OH216877   2.673   2.451   4.627  0.2346 -0.3837  0.0836
 5638TIP3    H116878   2.682   2.463   4.721  0.9521  1.8304 -0.2078
 5638TIP3    H216879   2.588   2.491   4.606  0.0923 -0.8362 -0.2324
 5639TIP3   OH216880   2.683   4.273   3.630 -0.3473 -0.2653 -0.1950
 5639TIP3    H116881   2.662   4.188   3.591 -2.9118 -0.3718  1.1495
 5639TIP3    H216882   2.773   4.265   3.659 -0.4540 -2.4694 -0.2871
 5640TIP3   OH216883   1.498   4.778   4.331  0.6328 -0.1606  0.5985
 5640TIP3    H116884   1.531   4.868   4.323  0.6978 -0.1030  1.4820
 5640TIP3    H216885   1.558   4.736   4.392  1.3372 -1.1777 -0.7501
 5641TIP3   OH216886   5.933   4.528   2.568 -0.2198  0.3571  0.0326
 5641TIP3    H116887   5.972   4.577   2.496  0.5617 -0.2719  0.0188
 5641TIP3    H216888   5.901   4.447   2.529 -0.1613  0.1922  0.3191
 5642TIP3   OH216889   2.293   4.028   0.025  0.3297  0.2420 -0.4799
 5642TIP3    H116890   2.298   3.960   0.092 -0.0685 -1.2136 -1.8726
 5642TIP3    H216891   2.254   4.103   0.069 -0.1448 -0.7582  0.8518
 5643TIP3   OH216892   3.594   3.434   1.529 -0.3367  0.4233 -0.4618
 5643TIP3    H116893   3.518   3.487   1.505 -0.7147 -0.5159 -1.4135
 5643TIP3    H216894   3.668   3.477   1.486 -0.3681  1.1231  0.1576
 5644TIP3   OH216895   1.712   0.676   0.302  0.0661 -0.1494  0.2139
 5644TIP3    H116896   1.630   0.709   0.266  0.4391 -0.4947 -1.0043
 5644TIP3    H216897   1.766   0.657   0.225  2.1539  2.1344  0.9993
 5645TIP3   OH216898   2.345   0.556   3.512  0.2315  0.0432  0.5183
 5645TIP3    H116899   2.331   0.651   3.515 -0.1546 -0.0190  0.7486
 5645TIP3    H216900   2.439   0.545   3.530  0.1954  0.3561  0.9143
 5646TIP3   OH216901   0.090   2.677   4.219 -0.5229 -0.1493  0.4941
 5646TIP3    H116902   0.170   2.703   4.264 -0.3945  3.4248 -1.4244
 5646TIP3    H216903   0.021   2.726   4.263 -1.4624 -1.8537  1.0089
 5647TIP3   OH216904   2.567   2.246   4.515  0.6805 -0.3085 -0.0353
 5647TIP3    H116905   2.611   2.327   4.541 -2.2963  1.1149  1.0661
 5647TIP3    H216906   2.565   2.193   4.595 -1.6401  0.7374  0.6988
 5648TIP3   OH216907   5.102   5.591   4.512  0.2226  0.0123 -0.0808
 5648TIP3    H116908   5.181   5.542   4.490 -0.3221 -1.7349  1.5794
 5648TIP3    H216909   5.114   5.617   4.604 -1.1754 -0.4079  0.2514
 5649TIP3   OH216910   3.150   6.528   4.605 -0.3293  0.0666 -0.0141
 5649TIP3    H116911   3.173   6.611   4.562  0.9776 -1.2706 -2.0917
 5649TIP3    H216912   3.233   6.498   4.644 -0.5820 -0.6547 -0.0157
 5650TIP3   OH216913   2.896   1.365   5.436  0.0063  0.2618  0.1283
 5650TIP3    H116914   2.909   1.346   5.343 -0.3056  0.8533 -0.0469
 5650TIP3    H216915   2.815   1.416   5.438  2.0584  3.8797  0.2026
 5651TIP3   OH216916   1.927   3.826   3.489 -0.4270  0.1218 -0.2964
 5651TIP3    H116917   1.853   3.866   3.443 -2.9904 -0.6604  2.7389
 5651TIP3    H216918   1.986   3.898   3.509 -1.5883  1.2323 -0.7547
 5652TIP3   OH216919   4.143   2.004   5.145  0.9275  0.0328 -0.1160
 5652TIP3    H116920   4.146   2.005   5.241  1.9717  0.9354 -0.1321
 5652TIP3    H216921   4.223   1.958   5.119  0.4496 -0.5648 -0.5563
 5653TIP3   OH216922   0.599   4.532   3.533 -0.0001 -0.1752 -0.1721
 5653TIP3    H116923   0.662   4.474   3.491  1.2157  0.6249  0.4608
 5653TIP3    H216924   0.652   4.587   3.591 -1.6089 -1.8516  3.2022
 5654TIP3   OH216925   6.290   0.929   5.344 -0.4013  0.1325  0.3117
 5654TIP3    H116926   6.310   0.839   5.319 -0.5162  0.7714 -2.3586
 5654TIP3    H216927   6.374   0.966   5.369 -0.0494 -0.2347 -0.2947
 5655TIP3   OH216928   0.624   1.150   1.556 -0.1243  0.2356  0.4339
 5655TIP3    H116929   0.681   1.149   1.479  0.1802 -0.0819  0.6609
 5655TIP3    H216930   0.671   1.098   1.621 -1.9454 -2.6284 -0.3169
 5656TIP3   OH216931   5.488   0.840   3.841 -0.4345 -0.3318 -0.6227
 5656TIP3    H116932   5.463   0.827   3.749 -1.6376 -1.1829 -0.1961
 5656TIP3    H216933   5.405   0.841   3.888  0.1944 -0.2701  0.5065
 5657TIP3   OH216934   3.919   6.009   3.046 -0.3652 -0.3078  0.1302
 5657TIP3    H116935   3.948   6.069   2.978 -0.5624  1.6358  1.6668
 5657TIP3    H216936   3.919   5.923   3.004  1.4936  0.5034 -1.7057
 5658TIP3   OH216937   4.720   5.892   2.284  0.7215  0.2701  0.8004
 5658TIP3    H116938   4.736   5.901   2.378  2.6328  3.0566  0.3117
 5658TIP3    H216939   4.655   5.960   2.265 -1.3835 -1.7129  0.3472
 5659TIP3   OH216940   5.578   1.986   5.267  0.1917 -0.1778 -0.4211
 5659TIP3    H116941   5.636   1.920   5.304  0.0013 -0.2133 -0.1885
 5659TIP3    H216942   5.637   2.052   5.231  0.3869  0.5064  1.0749
 5660TIP3   OH216943   7.145   4.297   2.949 -0.2934 -0.7767  0.2553
 5660TIP3    H116944   7.102   4.346   2.879  1.4919  0.0144 -0.3692
 5660TIP3    H216945   7.113   4.338   3.030  0.5117  0.9152 -0.2349
 5661TIP3   OH216946   3.969   2.281   4.358 -0.1460  0.4201 -0.5967
 5661TIP3    H116947   4.040   2.275   4.294  0.5469 -1.7654  0.2753
 5661TIP3    H216948   3.959   2.192   4.391 -1.7039  1.1362  1.0409
 5662TIP3   OH216949   4.645   1.041   2.868 -0.6056 -0.0305 -0.4713
 5662TIP3    H116950   4.728   1.082   2.845 -0.2779 -0.9746 -1.0346
 5662TIP3    H216951   4.641   1.045   2.963 -0.4226  0.9707 -0.4977
 5663TIP3   OH216952   2.542   4.097   4.918 -0.1036  1.0214 -0.9503
 5663TIP3    H116953   2.526   4.029   4.852  0.0232 -0.5523  0.5629
 5663TIP3    H216954   2.455   4.127   4.943 -0.2320  0.3377 -0.5614
 5664TIP3   OH216955   4.032   5.937   1.352 -0.3609  0.1927 -0.4609
 5664TIP3    H116956   3.967   5.866   1.357  0.8044 -0.8785  0.0449
 5664TIP3    H216957   4.012   5.981   1.270 -1.3952 -0.4496 -0.5808
 5665TIP3   OH216958   6.331   3.816   0.798  0.0407 -0.3554  0.5380
 5665TIP3    H116959   6.239   3.791   0.801 -0.3142  0.9849  1.7238
 5665TIP3    H216960   6.333   3.907   0.828  1.7016 -0.2028  0.0949
 5666TIP3   OH216961   2.372   5.412   3.336 -0.0967 -0.2102 -0.1696
 5666TIP3    H116962   2.349   5.503   3.320  1.1242  0.3526  1.0934
 5666TIP3    H216963   2.447   5.395   3.279 -0.7009 -0.6423 -0.8638
 5667TIP3   OH216964   0.420   5.793   0.240 -0.8871  0.6792  0.4356
 5667TIP3    H116965   0.495   5.795   0.300 -0.7420  0.8177  0.2480
 5667TIP3    H216966   0.350   5.752   0.291 -0.4177 -0.3239  0.3156
 5668TIP3   OH216967   1.304   0.327   2.067 -0.3625  0.0673  0.3293
 5668TIP3    H116968   1.272   0.387   1.999 -0.2574  0.3694  0.5453
 5668TIP3    H216969   1.318   0.245   2.021 -0.9729  0.0673  0.1265
 5669TIP3   OH216970   6.788   0.632   5.242  0.0910  0.0741  0.3264
 5669TIP3    H116971   6.726   0.559   5.242  2.1581 -1.7843  0.7473
 5669TIP3    H216972   6.801   0.652   5.334  0.3568  0.2416  0.2525
 5670TIP3   OH216973   3.301   3.196   3.097  0.2810  0.0458  0.1483
 5670TIP3    H116974   3.236   3.148   3.045  0.0718  1.3039 -0.8219
 5670TIP3    H216975   3.267   3.194   3.186  0.3131 -1.6181  0.1510
 5671TIP3   OH216976   3.132   2.647   5.363 -0.2100 -0.3317 -0.4558
 5671TIP3    H116977   3.125   2.570   5.306  1.6933 -0.7014 -0.2628
 5671TIP3    H216978   3.217   2.685   5.341  0.1135  0.1001  1.4219
 5672TIP3   OH216979   6.733   4.300   0.281 -0.3362  0.9919  0.3943
 5672TIP3    H116980   6.659   4.358   0.298 -1.0379  0.0216  0.7644
 5672TIP3    H216981   6.809   4.346   0.316 -0.9888  1.3437  1.3792
 5673TIP3   OH216982   2.516   1.827   2.493 -0.4407  0.1453 -0.1972
 5673TIP3    H116983   2.495   1.855   2.404  0.1412 -0.5630 -0.5747
 5673TIP3    H216984   2.467   1.746   2.505  0.5540 -0.5120 -0.4032
 5674TIP3   OH216985   5.059   1.699   0.960  0.4403  0.3782  0.3528
 5674TIP3    H116986   5.096   1.628   1.013  0.4728 -0.1048 -0.3075
 5674TIP3    H216987   4.971   1.711   0.996  0.0640 -0.6841 -0.1601
 5675TIP3   OH216988   5.379   5.053   4.706  0.3320 -0.2008 -0.4426
 5675TIP3    H116989   5.441   5.021   4.640 -0.7650 -0.0338 -1.5777
 5675TIP3    H216990   5.320   5.111   4.659 -0.8091 -0.4871  0.5707
 5676TIP3   OH216991   4.563   2.740   5.797 -0.1442 -0.4093 -0.3030
 5676TIP3    H116992   4.552   2.645   5.799  0.1928 -0.4325  0.5572
 5676TIP3    H216993   4.482   2.775   5.833  0.4874 -0.4453  1.2575
 5677TIP3   OH216994   3.349   4.622   3.942 -0.7933  0.2606  0.1855
 5677TIP3    H116995   3.273   4.678   3.922 -1.3106 -0.7158 -0.6875
 5677TIP3    H216996   3.367   4.577   3.860  0.7466  0.4619  0.3969
 5678TIP3   OH216997   3.004   2.039   3.652  0.5725  0.4315  0.3128
 5678TIP3    H116998   3.014   2.026   3.557 -0.0021 -0.0036  0.3029
 5678TIP3    H216999   3.023   1.953   3.689 -0.7973  0.1658  0.4575
 5679TIP3   OH217000   3.524   1.572   3.012 -0.1611  0.8662 -0.2496
 5679TIP3    H117001   3.529   1.616   2.927 -0.2304  0.4500 -0.4700
 5679TIP3    H217002   3.435   1.591   3.043  0.5936  3.0210  0.8303
 5680TIP3   OH217003   5.630   0.471   1.313 -0.2769 -0.0404  0.3238
 5680TIP3    H117004   5.591   0.386   1.332  1.0358 -1.0342 -1.1388
 5680TIP3    H217005   5.719   0.464   1.345  0.6053 -0.1708 -1.9656
 5681TIP3   OH217006   5.385   0.775   2.232  0.0782 -0.2594 -0.3473
 5681TIP3    H117007   5.322   0.808   2.167  1.0598 -0.4122 -1.4160
 5681TIP3    H217008   5.456   0.840   2.232  0.4635 -0.6766 -0.0191
 5682TIP3   OH217009   3.432   3.564   1.070  0.5501  0.0229  0.0092
 5682TIP3    H117010   3.434   3.590   0.978 -1.4666 -1.1044 -0.4226
 5682TIP3    H217011   3.389   3.637   1.115  0.9512  0.2953 -0.0460
 5683TIP3   OH217012   6.821   6.707   4.181  0.4422 -0.1078 -0.2265
 5683TIP3    H117013   6.773   6.778   4.138 -2.1869 -0.8388  1.2385
 5683TIP3    H217014   6.846   6.743   4.266  1.7960 -0.0146 -0.6491
 5684TIP3   OH217015   1.970   5.064   5.145  0.0885  0.4175 -0.2920
 5684TIP3    H117016   1.918   5.103   5.216  1.4593  0.0855  0.9421
 5684TIP3    H217017   2.031   5.133   5.119  1.8616 -0.5030  1.2239
 5685TIP3   OH217018   1.189   5.855   0.070  0.6373 -0.3003  0.0373
 5685TIP3    H117019   1.193   5.866   0.165 -1.5960  0.0045  0.1377
 5685TIP3    H217020   1.244   5.926   0.036  0.5495  0.2975  1.0823
 5686TIP3   OH217021   2.418   3.341   5.493 -0.8056 -0.0027  0.6583
 5686TIP3    H117022   2.468   3.413   5.452  0.2477 -0.6668  0.7400
 5686TIP3    H217023   2.478   3.304   5.557 -1.6951 -0.3399  1.3125
 5687TIP3   OH217024   7.202   0.306   3.709 -0.1374  0.8078 -0.4101
 5687TIP3    H117025   7.233   0.386   3.752 -0.9194  0.1224  1.5543
 5687TIP3    H217026   7.138   0.336   3.645 -0.5922  1.7464  0.4607
 5688TIP3   OH217027   5.453   3.394   3.945 -0.1528  0.1387  0.0378
 5688TIP3    H117028   5.372   3.392   3.893 -0.5662  0.6328  0.6579
 5688TIP3    H217029   5.482   3.303   3.946  0.0309  0.1625 -1.3198
 5689TIP3   OH217030   2.430   1.938   5.670  0.0524 -0.8563 -0.1655
 5689TIP3    H117031   2.440   1.991   5.750 -1.1006 -0.8111 -0.0326
 5689TIP3    H217032   2.365   1.872   5.694 -0.9087 -0.3502 -1.3038
 5690TIP3   OH217033   4.092   2.789   1.468 -0.0677  0.2974 -0.2325
 5690TIP3    H117034   4.011   2.830   1.437  0.5240  2.7920  1.2362
 5690TIP3    H217035   4.062   2.726   1.534 -0.8465  1.3130  0.4152
 5691TIP3   OH217036   6.698   5.873   3.915 -0.4202  0.0585  0.2595
 5691TIP3    H117037   6.740   5.958   3.910 -0.3973  0.0201 -0.4242
 5691TIP3    H217038   6.682   5.858   4.008  1.7220 -0.2528  0.6236
 5692TIP3   OH217039   5.496   1.783   4.439 -0.8516  0.3392 -0.0421
 5692TIP3    H117040   5.547   1.830   4.505 -1.5865  0.8544  0.1671
 5692TIP3    H217041   5.542   1.699   4.429  0.9976  1.4157 -1.0865
 5693TIP3   OH217042   5.972   2.367   1.623 -0.4798  0.6837  0.2758
 5693TIP3    H117043   5.911   2.417   1.569  0.2440  2.0739  0.6949
 5693TIP3    H217044   5.947   2.388   1.713  0.3719  0.9615  0.4523
 5694TIP3   OH217045   5.494   2.517   0.544 -0.3644  0.1944 -0.0149
 5694TIP3    H117046   5.464   2.510   0.635 -1.9341  0.5537 -0.4840
 5694TIP3    H217047   5.417   2.499   0.491  0.4613  0.2663 -1.2959
 5695TIP3   OH217048   2.340   6.617   2.863  0.4481  0.0544 -0.4844
 5695TIP3    H117049   2.264   6.665   2.895 -0.0105 -0.6862 -0.4440
 5695TIP3    H217050   2.396   6.684   2.822 -0.1908  0.6090 -0.4578
 5696TIP3   OH217051   0.320   0.876   5.880  0.2737 -0.0038  0.0914
 5696TIP3    H117052   0.404   0.834   5.861  0.7349  1.8261 -2.3547
 5696TIP3    H217053   0.264   0.804   5.909  1.3943 -2.1186 -2.5590
 5697TIP3   OH217054   2.074   5.950   3.074  0.1075  0.1849 -0.2724
 5697TIP3    H117055   1.997   5.900   3.049 -0.3485  0.8853 -0.2929
 5697TIP3    H217056   2.133   5.942   3.000 -0.1495  0.0575 -0.4654
 5698TIP3   OH217057   0.597   4.083   0.008  0.2965  0.6530 -0.3816
 5698TIP3    H117058   0.558   4.017   0.066  1.3810  0.4470  0.1338
 5698TIP3    H217059   0.604   4.161   0.062  0.2972  0.7845 -0.5714
 5699TIP3   OH217060   2.173   3.398   3.633  0.2715  0.1119 -0.1950
 5699TIP3    H117061   2.121   3.320   3.618  0.5319 -0.3364  1.1323
 5699TIP3    H217062   2.154   3.423   3.723  0.7467  1.1617 -0.3739
 5700TIP3   OH217063   6.169   0.936   2.694 -0.1813 -0.1887 -0.0109
 5700TIP3    H117064   6.117   0.988   2.633  0.1801  0.8854  0.5665
 5700TIP3    H217065   6.213   1.001   2.749  0.7570 -1.0972  0.3457
 5701TIP3   OH217066   5.207   0.623   2.389 -0.3873  0.7854 -0.0037
 5701TIP3    H117067   5.190   0.549   2.330  0.4599  1.2378 -0.8422
 5701TIP3    H217068   5.269   0.678   2.341  0.5849  1.0048  1.4424
 5702TIP3   OH217069   3.807   0.160   3.382 -0.0804  0.1492 -0.6282
 5702TIP3    H117070   3.802   0.102   3.458 -3.0496  0.1979 -0.6681
 5702TIP3    H217071   3.816   0.102   3.307  2.8513  0.0996 -0.3738
 5703TIP3   OH217072   7.060   4.481   0.231  0.1929  0.1836  0.2583
 5703TIP3    H117073   6.998   4.513   0.296 -0.5428 -0.1338 -0.2721
 5703TIP3    H217074   7.037   4.389   0.218  0.1763  0.2991 -0.6086
 5704TIP3   OH217075   5.193   5.824   1.796  0.3195 -0.1402  0.1654
 5704TIP3    H117076   5.241   5.750   1.832 -0.9255 -0.2581  1.7396
 5704TIP3    H217077   5.101   5.798   1.802 -0.0938  1.1849 -0.0552
 5705TIP3   OH217078   5.882   0.695   5.162 -0.1866 -0.2687  0.1216
 5705TIP3    H117079   5.945   0.624   5.165  0.7566  0.5072 -0.6418
 5705TIP3    H217080   5.848   0.701   5.252 -0.4287 -1.7744  0.1588
 5706TIP3   OH217081   6.865   1.108   3.957  0.1772 -0.2420  0.3410
 5706TIP3    H117082   6.775   1.127   3.984  0.5400  1.9061  0.2155
 5706TIP3    H217083   6.869   1.133   3.865  0.7949 -0.6965  0.2359
 5707TIP3   OH217084   6.436   3.186   0.743  0.0917  0.3411 -0.4050
 5707TIP3    H117085   6.407   3.130   0.671 -0.9240 -0.5485  0.6609
 5707TIP3    H217086   6.384   3.265   0.735 -0.0679  0.2161 -0.6063
 5708TIP3   OH217087   5.495   2.829   5.268  0.5975 -0.4377 -0.2318
 5708TIP3    H117088   5.446   2.886   5.326 -0.5920 -2.5604  0.9587
 5708TIP3    H217089   5.587   2.847   5.288  0.2442  0.7625  0.3571
 5709TIP3   OH217090   1.915   0.161   4.094  0.9362  0.0773  0.0626
 5709TIP3    H117091   1.926   0.148   4.000  1.9552 -0.6185  0.2555
 5709TIP3    H217092   1.821   0.167   4.107  0.7872  0.0849 -0.9951
 5710TIP3   OH217093   2.586   3.540   5.821  0.0060 -0.7469  0.0910
 5710TIP3    H117094   2.611   3.461   5.773 -2.3125 -1.0421 -0.7639
 5710TIP3    H217095   2.552   3.599   5.754 -1.0054 -0.1898  1.0527
 5711TIP3   OH217096   6.864   5.944   5.193  0.3279 -0.1749  0.6632
 5711TIP3    H117097   6.827   5.856   5.190  0.0702 -0.0519 -1.5848
 5711TIP3    H217098   6.862   5.974   5.102 -0.3607  2.4890  1.4627
 5712TIP3   OH217099   3.468   4.361   5.412  0.5344  0.0512 -0.6596
 5712TIP3    H117100   3.477   4.338   5.504  1.9566  2.0246 -0.2425
 5712TIP3    H217101   3.375   4.380   5.401 -0.1469 -2.7855 -0.3441
 5713TIP3   OH217102   3.008   6.362   1.152  0.1693  0.3119 -0.5319
 5713TIP3    H117103   2.972   6.373   1.064 -0.5206 -0.7155 -0.3896
 5713TIP3    H217104   3.102   6.348   1.139 -0.0914 -0.9032 -1.1851
 5714TIP3   OH217105   0.302   1.161   5.824 -0.7050 -0.2439 -0.2205
 5714TIP3    H117106   0.306   1.085   5.882 -2.5447 -0.5107 -0.3895
 5714TIP3    H217107   0.341   1.130   5.742  0.2575 -0.4201  0.2930
 5715TIP3   OH217108   2.450   5.415   1.948  0.1718 -0.0932  0.2174
 5715TIP3    H117109   2.364   5.405   1.988  0.2588  0.2203  0.4989
 5715TIP3    H217110   2.436   5.403   1.855 -0.3868  1.1226  0.1256
 5716TIP3   OH217111   0.395   2.844   3.892 -0.4396 -0.4042  0.2384
 5716TIP3    H117112   0.429   2.836   3.981 -0.5833 -0.5134  0.2843
 5716TIP3    H217113   0.355   2.759   3.874 -0.4896 -0.3526  0.1037
 5717TIP3   OH217114   0.540   2.322   2.554 -0.1325  0.2867 -0.3422
 5717TIP3    H117115   0.556   2.304   2.646 -1.9409 -1.7273 -0.3356
 5717TIP3    H217116   0.580   2.248   2.507 -0.4511  0.5531 -1.0540
 5718TIP3   OH217117   7.220   3.698   5.536 -0.2472  0.3715  0.4677
 5718TIP3    H117118   7.199   3.614   5.577  0.2754 -0.5669 -1.1181
 5718TIP3    H217119   7.139   3.726   5.494  0.2604 -0.7354 -1.3363
 5719TIP3   OH217120   3.458   6.540   5.020 -0.7139 -0.1986  0.0831
 5719TIP3    H117121   3.426   6.553   5.110 -0.6263  0.6486  0.0018
 5719TIP3    H217122   3.548   6.508   5.031 -0.7517 -0.2294  0.3046
 5720TIP3   OH217123   5.129   1.475   3.751  0.2558  0.0887 -0.5030
 5720TIP3    H117124   5.146   1.557   3.704 -2.4075 -0.1025 -2.0543
 5720TIP3    H217125   5.043   1.489   3.791 -0.0133 -1.7364 -0.3724
 5721TIP3   OH217126   4.645   5.285   1.447  0.6190  0.0654 -0.1690
 5721TIP3    H117127   4.634   5.316   1.357  0.8505 -0.1612 -0.2773
 5721TIP3    H217128   4.725   5.328   1.477  0.6928 -0.0736 -0.1661
 5722TIP3   OH217129   5.059   3.557   3.486  0.2468  0.5134  0.0066
 5722TIP3    H117130   5.090   3.475   3.525 -0.5073  0.9298  1.5834
 5722TIP3    H217131   5.139   3.606   3.469  0.6823 -0.3332 -0.4623
 5723TIP3   OH217132   3.265   0.670   1.842 -0.8313  0.2055 -0.1332
 5723TIP3    H117133   3.226   0.605   1.901 -0.2739  0.5235  0.6016
 5723TIP3    H217134   3.326   0.620   1.787  0.8493  0.2919  1.5328
 5724TIP3   OH217135   5.435   1.663   0.253 -0.3421  0.1056  0.0467
 5724TIP3    H117136   5.364   1.628   0.200 -0.5509 -1.0225  1.0295
 5724TIP3    H217137   5.413   1.755   0.267 -1.1820 -0.0366 -0.3306
 5725TIP3   OH217138   2.819   6.173   1.018 -0.9840 -0.0533 -0.2977
 5725TIP3    H117139   2.878   6.132   1.082  0.9853  1.9420 -0.6828
 5725TIP3    H217140   2.733   6.137   1.038  0.1910 -2.4657  0.8975
 5726TIP3   OH217141   5.944   3.252   0.722  0.2101  0.3153 -0.2619
 5726TIP3    H117142   5.979   3.212   0.642  1.4141 -0.9456  0.8567
 5726TIP3    H217143   5.936   3.345   0.699  0.3499 -0.0365 -1.9068
 5727TIP3   OH217144   1.509   3.437   2.589 -0.3174  0.0363 -0.4478
 5727TIP3    H117145   1.510   3.345   2.561 -1.7157  0.2624 -1.3797
 5727TIP3    H217146   1.468   3.435   2.676  0.0586 -0.2635 -0.2764
 5728TIP3   OH217147   7.179   4.482   1.957 -0.0015  0.1668  0.4244
 5728TIP3    H117148   7.257   4.529   1.988 -0.3321 -0.6564  2.6760
 5728TIP3    H217149   7.107   4.542   1.973  0.0848  0.9786 -1.7761
 5729TIP3   OH217150   0.482   3.531   2.932 -0.3003 -0.1487  0.2992
 5729TIP3    H117151   0.530   3.581   2.998  0.3765 -1.3235  0.7099
 5729TIP3    H217152   0.454   3.452   2.977 -0.3895 -0.6704 -0.6457
 5730TIP3   OH217153   0.704   5.305   4.245  0.0365 -0.4031 -0.3121
 5730TIP3    H117154   0.743   5.334   4.163  0.2656 -2.4342 -0.9641
 5730TIP3    H217155   0.623   5.260   4.220  0.0914 -1.0297  0.5716
 5731TIP3   OH217156   5.544   2.089   4.969 -0.4944 -0.6583  0.0628
 5731TIP3    H117157   5.621   2.112   4.916 -0.9987 -1.2123 -0.9501
 5731TIP3    H217158   5.559   2.132   5.053 -0.3925  1.6090 -1.0331
 5732TIP3   OH217159   6.565   5.655   1.541  0.4430  0.0931 -0.0842
 5732TIP3    H117160   6.515   5.737   1.538  0.3882  0.0938  0.6237
 5732TIP3    H217161   6.515   5.594   1.487  0.4419  0.5007 -0.5537
 5733TIP3   OH217162   4.160   1.327   2.449  0.6283  0.0593 -0.7148
 5733TIP3    H117163   4.179   1.236   2.473  3.3719  0.7056 -0.0696
 5733TIP3    H217164   4.105   1.360   2.520  0.9949 -0.6422 -0.0932
 5734TIP3   OH217165   3.170   0.098   2.272 -0.3896 -0.7474  0.0653
 5734TIP3    H117166   3.252   0.049   2.274 -1.2097 -2.2821 -0.7903
 5734TIP3    H217167   3.139   0.097   2.363  0.7159  0.2220  0.4733
 5735TIP3   OH217168   4.198   5.491   0.956  0.3807  0.3394 -0.5345
 5735TIP3    H117169   4.121   5.502   0.901 -0.8092  0.9887  1.1941
 5735TIP3    H217170   4.169   5.435   1.028  1.2381  1.3253  0.6266
 5736TIP3   OH217171   1.190   3.218   4.756  0.0906 -0.0697  0.5355
 5736TIP3    H117172   1.249   3.144   4.774 -1.6421 -1.8611 -0.7569
 5736TIP3    H217173   1.149   3.236   4.841 -0.1704 -1.2928  0.6985
 5737TIP3   OH217174   0.423   1.409   5.745 -0.0714 -0.5834  0.0394
 5737TIP3    H117175   0.378   1.349   5.805  0.8194  0.2156  1.5590
 5737TIP3    H217176   0.513   1.378   5.742 -0.3754 -1.4878 -2.1010
 5738TIP3   OH217177   2.784   3.460   5.529  1.1175 -0.5076 -0.5359
 5738TIP3    H117178   2.780   3.415   5.614 -1.4508  1.2207  0.3838
 5738TIP3    H217179   2.745   3.398   5.468 -0.4961 -0.4133  0.3297
 5739TIP3   OH217180   3.657   2.310   0.868  0.0335  0.1129 -0.2540
 5739TIP3    H117181   3.621   2.321   0.780  1.2474  1.6993 -0.5890
 5739TIP3    H217182   3.752   2.317   0.857  0.2500 -0.3829  1.0920
 5740TIP3   OH217183   6.220   4.698   4.588 -0.1660  0.1565  0.2571
 5740TIP3    H117184   6.259   4.627   4.536 -0.4346  0.1107  0.1190
 5740TIP3    H217185   6.139   4.662   4.621  0.1394  0.0894  0.9484
 5741TIP3   OH217186   4.808   1.029   1.177 -0.2094 -0.0983  0.3845
 5741TIP3    H117187   4.861   0.951   1.192 -0.7998 -0.4358  0.7936
 5741TIP3    H217188   4.718   0.997   1.174 -0.4995  0.6110  0.9806
 5742TIP3   OH217189   1.766   0.252   4.825  0.2663  0.8565 -0.2827
 5742TIP3    H117190   1.683   0.300   4.815 -1.2234 -1.2564  1.1182
 5742TIP3    H217191   1.790   0.228   4.735  0.1800  2.7029 -0.8491
 5743TIP3   OH217192   5.889   0.748   5.647  0.8242 -0.4907  0.6971
 5743TIP3    H117193   5.940   0.741   5.727 -0.0792  1.9139  1.5860
 5743TIP3    H217194   5.868   0.842   5.640 -0.1148 -0.7961 -1.7274
 5744TIP3   OH217195   5.887   5.607   3.096 -0.1528 -0.4495  0.0317
 5744TIP3    H117196   5.839   5.525   3.098  0.4327 -0.8692 -1.3848
 5744TIP3    H217197   5.974   5.583   3.063  0.1617  0.6677 -0.0015
 5745TIP3   OH217198   3.317   6.382   4.826  0.0560 -0.0231 -0.4918
 5745TIP3    H117199   3.264   6.314   4.867 -0.6294  0.8919  0.1785
 5745TIP3    H217200   3.341   6.441   4.898  1.4777 -0.0859 -0.8875
 5746TIP3   OH217201   3.777   1.881   4.875 -0.2709 -0.2907  0.4222
 5746TIP3    H117202   3.866   1.914   4.889 -0.8924  1.1704  1.0627
 5746TIP3    H217203   3.752   1.843   4.960 -0.4610 -0.2107  0.4025
 5747TIP3   OH217204   1.122   2.920   4.223 -0.5181 -0.3180 -0.6594
 5747TIP3    H117205   1.198   2.862   4.232 -0.7912 -0.3710  1.7987
 5747TIP3    H217206   1.140   2.969   4.143  1.8371 -0.7451 -0.4778
 5748TIP3   OH217207   4.474   1.417   3.297 -0.2915 -0.1770  0.3838
 5748TIP3    H117208   4.381   1.407   3.316 -0.2741 -0.7200  0.2182
 5748TIP3    H217209   4.494   1.509   3.316 -0.8327 -0.0903  0.5298
 5749TIP3   OH217210   3.426   6.563   2.628 -0.0131 -0.0823  0.3270
 5749TIP3    H117211   3.415   6.560   2.723 -0.3892 -1.0620  0.2619
 5749TIP3    H217212   3.342   6.597   2.596  1.1465  3.3145  0.4945
 5750TIP3   OH217213   4.820   4.518   5.586 -0.1077 -0.0365 -0.2924
 5750TIP3    H117214   4.874   4.572   5.529  1.3042 -0.0582  0.9676
 5750TIP3    H217215   4.882   4.462   5.633 -1.3387 -1.0293  0.2219
 5751TIP3   OH217216   0.213   4.716   3.230  0.1693 -0.2408  0.2864
 5751TIP3    H117217   0.275   4.746   3.164 -1.9866  2.3371 -0.7831
 5751TIP3    H217218   0.254   4.737   3.314  1.5743 -0.5166 -0.3155
 5752TIP3   OH217219   5.121   2.761   2.224  0.2177 -0.2644  0.0986
 5752TIP3    H117220   5.127   2.806   2.309 -1.4127 -0.5494  0.3808
 5752TIP3    H217221   5.207   2.777   2.184  0.9089  0.1647  1.6437
 5753TIP3   OH217222   6.055   3.852   5.112  0.0615  0.1600 -0.5857
 5753TIP3    H117223   6.138   3.825   5.073 -0.3798 -1.5865 -0.3685
 5753TIP3    H217224   5.989   3.831   5.047 -0.2410  1.6229 -0.7921
 5754TIP3   OH217225   0.445   1.163   2.256  0.1247  0.4271 -0.7297
 5754TIP3    H117226   0.510   1.135   2.192 -2.1737 -3.0878 -1.8531
 5754TIP3    H217227   0.368   1.187   2.204 -0.4079  1.7673  0.6036
 5755TIP3   OH217228   4.218   0.963   2.833  0.0163 -0.0468 -0.2461
 5755TIP3    H117229   4.268   1.027   2.883  0.4573 -1.7302  1.5489
 5755TIP3    H217230   4.281   0.926   2.771  0.5224 -0.7797  0.6898
 5756TIP3   OH217231   1.541   6.511   1.128  0.3153  0.4293 -1.0729
 5756TIP3    H117232   1.622   6.562   1.135  0.5095 -0.1213  2.7228
 5756TIP3    H217233   1.473   6.569   1.162 -0.2153 -0.3753 -0.7232
 5757TIP3   OH217234   6.136   2.214   1.320  0.4462  0.1706 -0.3916
 5757TIP3    H117235   6.162   2.218   1.412  0.8312 -0.9604 -0.4364
 5757TIP3    H217236   6.110   2.304   1.299 -4.5756 -0.2876  2.2281
 5758TIP3   OH217237   0.348   4.985   0.882  0.2770 -0.7549  0.1711
 5758TIP3    H117238   0.280   5.004   0.817 -0.3221  0.3513  1.0890
 5758TIP3    H217239   0.414   5.053   0.867 -0.0087 -0.3057  0.8985
 5759TIP3   OH217240   5.304   1.014   5.744 -0.1540  0.2105  0.0983
 5759TIP3    H117241   5.381   1.063   5.714 -0.9891  0.5711 -1.5452
 5759TIP3    H217242   5.307   1.023   5.839  1.6450  0.4941  0.0565
 5760TIP3   OH217243   3.680   0.378   2.481  0.4638  0.4932  0.4840
 5760TIP3    H117244   3.739   0.322   2.530  0.8891  0.8972  0.4430
 5760TIP3    H217245   3.728   0.400   2.401 -0.8503 -1.5162 -0.9543
 5761TIP3   OH217246   5.179   1.959   1.979 -0.2196  0.3976 -0.1308
 5761TIP3    H117247   5.250   1.902   1.949 -0.5315 -0.6930  1.1164
 5761TIP3    H217248   5.224   2.032   2.023  0.1521  0.4010 -0.5123
 5762TIP3   OH217249   6.689   5.705   1.960  0.1876 -0.2026 -0.0793
 5762TIP3    H117250   6.656   5.626   1.915  1.3403  0.1304 -1.5755
 5762TIP3    H217251   6.737   5.753   1.893 -1.4138  2.3925  0.4711
 5763TIP3   OH217252   3.063   4.829   4.242 -0.1651  0.0239  0.2223
 5763TIP3    H117253   3.078   4.835   4.148  1.4646  0.4768  0.4690
 5763TIP3    H217254   3.043   4.736   4.257 -0.3864 -0.0611 -0.5582
 5764TIP3   OH217255   2.816   5.620   4.282 -0.0200  0.3160  0.7201
 5764TIP3    H117256   2.906   5.653   4.278  0.2246 -0.3000  1.0643
 5764TIP3    H217257   2.782   5.653   4.365  0.0602  0.1091  0.8341
 5765TIP3   OH217258   5.002   2.977   5.731  0.3867  0.7013 -0.5570
 5765TIP3    H117259   4.951   3.057   5.739 -0.8185  0.1154 -1.7684
 5765TIP3    H217260   4.956   2.913   5.786  0.2780  0.3856 -1.0030
 5766TIP3   OH217261   0.296   6.353   3.372  0.2458  0.6156 -0.1637
 5766TIP3    H117262   0.280   6.428   3.316  1.6178  0.2886 -1.0495
 5766TIP3    H217263   0.326   6.390   3.455  0.8379  1.0693 -0.5712
 5767TIP3   OH217264   1.837   1.038   5.838  0.1288 -0.2163 -0.3709
 5767TIP3    H117265   1.789   1.112   5.800 -0.5537 -1.2882 -1.6821
 5767TIP3    H217266   1.772   0.968   5.843  1.4315 -1.6332 -1.9598
 5768TIP3   OH217267   6.686   6.457   4.112 -0.7328 -0.0672  0.1938
 5768TIP3    H117268   6.755   6.518   4.137  1.5135 -2.8290  1.3758
 5768TIP3    H217269   6.645   6.432   4.195 -1.5968 -0.1874 -0.2575
 5769TIP3   OH217270   6.883   4.852   4.530  0.3796  0.3018 -0.2312
 5769TIP3    H117271   6.872   4.785   4.462  0.0706  1.6974 -1.6308
 5769TIP3    H217272   6.800   4.853   4.577 -0.0389  0.4703 -0.9581
 5770TIP3   OH217273   2.546   5.638   2.060 -0.2598  0.2486 -0.3470
 5770TIP3    H117274   2.538   5.556   2.011  1.3583 -0.1083 -0.0688
 5770TIP3    H217275   2.599   5.695   2.003 -1.7822  1.3177 -0.7600
 5771TIP3   OH217276   6.947   3.917   3.139 -0.5138 -0.7864 -0.5139
 5771TIP3    H117277   6.943   4.001   3.094  0.0294 -0.6377 -0.2847
 5771TIP3    H217278   6.931   3.852   3.070 -0.1816 -0.5323 -0.8315
 5772TIP3   OH217279   1.167   6.295   1.218 -0.7683  0.1972 -0.5230
 5772TIP3    H117280   1.138   6.253   1.137  1.1406  1.1016 -1.7469
 5772TIP3    H217281   1.178   6.222   1.280 -0.3079 -0.7805 -1.7016
 5773TIP3   OH217282   6.288   0.163   4.348 -0.0245 -0.6293 -0.2230
 5773TIP3    H117283   6.286   0.125   4.259  1.2889 -0.0291 -0.5450
 5773TIP3    H217284   6.350   0.235   4.341 -1.7054  0.9612  0.6306
 5774TIP3   OH217285   7.140   6.610   3.118  0.0021 -0.2589 -0.4103
 5774TIP3    H117286   7.126   6.525   3.161  0.2529  0.1461  0.4977
 5774TIP3    H217287   7.061   6.660   3.137  0.2827  0.0630 -0.0693
 5775TIP3   OH217288   3.097   3.671   0.730 -0.2256 -0.4872  0.0213
 5775TIP3    H117289   3.075   3.590   0.775  0.3937 -0.1167  1.0231
 5775TIP3    H217290   3.063   3.659   0.641 -0.9062 -1.4846  0.3997
 5776TIP3   OH217291   5.985   1.802   4.134 -0.2251  0.1466  0.2266
 5776TIP3    H117292   6.055   1.746   4.167 -0.0203  0.0662 -0.3182
 5776TIP3    H217293   5.907   1.746   4.135 -0.4370  0.4519  1.4913
 5777TIP3   OH217294   6.182   3.893   4.540  0.4578  0.3784 -0.2630
 5777TIP3    H117295   6.206   3.861   4.627 -0.5163 -0.2083 -0.1896
 5777TIP3    H217296   6.163   3.814   4.490 -0.0129  0.7541 -0.6916
 5778TIP3   OH217297   6.575   2.655   1.722 -0.1136 -0.7305  0.2773
 5778TIP3    H117298   6.502   2.645   1.782 -0.7627  1.3531 -0.1095
 5778TIP3    H217299   6.653   2.637   1.776 -0.7697 -0.6884  1.2652
 5779TIP3   OH217300   5.280   4.212   1.924 -0.4444 -0.1224 -0.3884
 5779TIP3    H117301   5.314   4.192   2.011 -1.1598 -0.7067 -0.2329
 5779TIP3    H217302   5.266   4.126   1.883  3.3507  0.0754 -2.5096
 5780TIP3   OH217303   0.300   3.642   1.086  0.3237  0.3713  0.3070
 5780TIP3    H117304   0.284   3.672   0.996 -0.6338 -0.8917  0.0244
 5780TIP3    H217305   0.238   3.570   1.098 -0.3596  1.2573  2.3999
 5781TIP3   OH217306   4.659   5.479   5.228  0.5057 -0.2916  0.5349
 5781TIP3    H117307   4.718   5.544   5.190  0.0405 -0.5715 -0.6886
 5781TIP3    H217308   4.587   5.472   5.166 -0.3656 -0.6349  1.5627
 5782TIP3   OH217309   2.132   1.346   5.565 -0.6746  0.0319 -0.2474
 5782TIP3    H117310   2.138   1.273   5.626  0.0338 -0.5717 -1.0021
 5782TIP3    H217311   2.190   1.413   5.601  0.1307 -0.5146 -0.4921
 5783TIP3   OH217312   2.240   2.929   1.965  0.9386 -0.3383  0.8873
 5783TIP3    H117313   2.313   2.905   2.023  2.3184 -1.1507 -1.0785
 5783TIP3    H217314   2.266   2.896   1.879 -1.9809 -1.0160  0.1790
 5784TIP3   OH217315   2.721   3.591   4.904  0.4695 -0.6331  0.1147
 5784TIP3    H117316   2.710   3.624   4.993  1.0050  0.3502 -0.1701
 5784TIP3    H217317   2.643   3.537   4.889 -0.7078  0.9109  0.4234
 5785TIP3   OH217318   4.980   6.198   1.964  0.1678 -0.1517  0.3314
 5785TIP3    H117319   5.062   6.171   2.005  0.1216 -1.1861 -0.2129
 5785TIP3    H217320   4.956   6.123   1.909 -1.1436  0.1319  0.4985
 5786TIP3   OH217321   2.702   2.542   0.333  0.6680 -0.2481  0.2913
 5786TIP3    H117322   2.765   2.470   0.323  0.0676 -0.6114 -0.9804
 5786TIP3    H217323   2.757   2.620   0.343  1.3251 -0.8384  1.5423
 5787TIP3   OH217324   3.216   5.680   1.152  0.3931  0.5569 -0.4020
 5787TIP3    H117325   3.185   5.632   1.075  0.2052  0.4315 -0.2474
 5787TIP3    H217326   3.254   5.760   1.116 -0.4372  0.8787 -0.5662
 5788TIP3   OH217327   0.264   0.614   3.518 -1.0643 -0.5385  0.0640
 5788TIP3    H117328   0.267   0.621   3.423  1.0235  0.9081  0.1678
 5788TIP3    H217329   0.171   0.620   3.540 -1.4364  1.6699 -1.7418
 5789TIP3   OH217330   3.317   3.075   1.633 -0.1588  0.1025 -0.2635
 5789TIP3    H117331   3.408   3.096   1.655 -0.3440  0.8070 -0.1411
 5789TIP3    H217332   3.266   3.117   1.703 -0.5652 -0.5606 -0.1479
 5790TIP3   OH217333   3.163   2.076   5.674  0.6185  0.4810 -0.2418
 5790TIP3    H117334   3.250   2.052   5.642 -0.0876 -2.0086 -0.4683
 5790TIP3    H217335   3.106   2.006   5.644 -1.5001  2.0550 -0.0977
 5791TIP3   OH217336   6.464   2.063   3.549  0.7268  0.7413 -0.1910
 5791TIP3    H117337   6.394   2.003   3.524  0.7770  0.1038  1.0801
 5791TIP3    H217338   6.424   2.122   3.613  1.2368  0.6087  0.2605
 5792TIP3   OH217339   4.733   0.090   1.106  0.2305 -0.2402 -0.0590
 5792TIP3    H117340   4.806   0.078   1.166 -0.7251 -2.5403  0.7492
 5792TIP3    H217341   4.758   0.042   1.027  0.2604  0.3431 -0.4118
 5793TIP3   OH217342   2.566   0.764   4.763  0.7908 -0.1059 -0.1255
 5793TIP3    H117343   2.489   0.713   4.738  0.2683  1.0451 -0.9433
 5793TIP3    H217344   2.636   0.699   4.772  0.0223 -1.0258 -0.6194
 5794TIP3   OH217345   6.535   1.543   3.129 -0.3011  0.0824  1.0120
 5794TIP3    H117346   6.541   1.571   3.038  0.9728  0.4990  1.2056
 5794TIP3    H217347   6.626   1.532   3.157 -0.6087  1.2219  2.6130
 5795TIP3   OH217348   1.617   5.720   1.074 -0.4661  0.2406  0.2122
 5795TIP3    H117349   1.698   5.759   1.106 -0.6738  0.1284  0.8861
 5795TIP3    H217350   1.558   5.795   1.062 -1.1881  0.0792  2.4456
 5796TIP3   OH217351   2.480   5.349   1.134  0.2852 -0.0471 -0.0627
 5796TIP3    H117352   2.556   5.393   1.096  1.2366  1.0715  2.8465
 5796TIP3    H217353   2.405   5.398   1.101  0.9904  0.3867 -1.0722
 5797TIP3   OH217354   3.790   0.022   0.829 -0.1568 -0.4885 -0.1199
 5797TIP3    H117355   3.826   0.086   0.768 -0.5062 -0.2768 -0.1066
 5797TIP3    H217356   3.713  -0.013   0.784  1.2696 -2.5642 -1.1273
 5798TIP3   OH217357   6.035   6.424   5.886 -0.1813  0.5054  0.7663
 5798TIP3    H117358   6.056   6.441   5.795 -0.1874 -1.0908  0.4489
 5798TIP3    H217359   5.989   6.503   5.915  0.4241  1.3112 -0.3984
 5799TIP3   OH217360   2.985   5.271   1.798  0.1371 -0.4243  0.1375
 5799TIP3    H117361   2.964   5.210   1.726 -2.5366 -0.0325  0.4608
 5799TIP3    H217362   2.934   5.349   1.778  1.6718  0.8425  0.9710
 5800TIP3   OH217363   2.581   3.561   4.122 -0.3504  0.3966  0.7089
 5800TIP3    H117364   2.513   3.576   4.056 -0.8004  0.3987  1.1654
 5800TIP3    H217365   2.605   3.649   4.152 -0.9404  0.3486  1.3376
 5801TIP3   OH217366   4.057   2.271   5.875 -0.3614  0.2527 -0.4026
 5801TIP3    H117367   3.992   2.202   5.870  0.7007 -1.1295  2.3932
 5801TIP3    H217368   4.082   2.288   5.784 -1.9366 -1.7652 -1.2836
 5802TIP3   OH217369   2.316   4.278   4.182 -0.1248  0.1778  0.7965
 5802TIP3    H117370   2.222   4.262   4.185  0.1532 -1.4292  2.4213
 5802TIP3    H217371   2.325   4.372   4.196 -1.5202  0.6083 -0.8947
 5803TIP3   OH217372   0.431   1.453   4.438  0.2739  0.2286 -0.2091
 5803TIP3    H117373   0.392   1.494   4.361  1.8180 -0.0721 -1.2157
 5803TIP3    H217374   0.357   1.431   4.494 -0.7001  3.3333 -0.1094
 5804TIP3   OH217375   6.280   6.456   4.464 -0.0234 -0.7528 -0.2359
 5804TIP3    H117376   6.342   6.403   4.514  1.5913 -0.5402 -1.9203
 5804TIP3    H217377   6.280   6.541   4.508  0.6866 -0.8332 -0.0783
 5805TIP3   OH217378   4.460   4.044   1.282  0.0660  0.4854  0.3946
 5805TIP3    H117379   4.454   4.110   1.351 -1.9441 -0.0149  0.7565
 5805TIP3    H217380   4.469   3.961   1.329 -0.4985  0.2197  0.0407
 5806TIP3   OH217381   7.094   0.258   1.587  0.1981  0.0227  0.1499
 5806TIP3    H117382   7.117   0.310   1.510  1.3138 -1.6407 -0.6839
 5806TIP3    H217383   6.998   0.255   1.586  0.1928  0.1630 -1.0748
 5807TIP3   OH217384   0.683   0.415   4.520  0.3940 -0.6055  0.4670
 5807TIP3    H117385   0.695   0.331   4.477  0.6025  0.4150 -1.5935
 5807TIP3    H217386   0.588   0.430   4.518  0.4285 -0.4210  0.0432
 5808TIP3   OH217387   2.493   2.401   4.009 -0.6200 -0.2701  0.1196
 5808TIP3    H117388   2.481   2.400   4.104 -0.6012  3.7413  0.3667
 5808TIP3    H217389   2.414   2.444   3.976  0.4724  0.7155 -1.3451
 5809TIP3   OH217390   6.601   0.455   5.637 -0.3114  0.0589  0.5397
 5809TIP3    H117391   6.562   0.374   5.671 -0.0441 -0.3624 -0.1504
 5809TIP3    H217392   6.527   0.514   5.626 -0.5141 -0.0980  1.0176
 5810TIP3   OH217393   3.387   6.409   1.613 -0.5623 -0.0407 -0.3316
 5810TIP3    H117394   3.305   6.411   1.564 -0.6977 -3.0837 -0.4090
 5810TIP3    H217395   3.377   6.337   1.675  1.6493  0.2111  0.4385
 5811TIP3   OH217396   4.058   2.503   1.281 -0.4083  0.2839 -0.2194
 5811TIP3    H117397   3.973   2.548   1.286 -0.9151 -0.6255 -0.4712
 5811TIP3    H217398   4.045   2.433   1.218 -0.5153 -2.0757  2.2302
 5812TIP3   OH217399   2.128   0.553   4.581 -0.2627  0.1724  0.2179
 5812TIP3    H117400   2.051   0.539   4.525 -2.3791  0.7639  2.7798
 5812TIP3    H217401   2.100   0.618   4.645  2.5308  0.6529  1.0847
 5813TIP3   OH217402   4.899   4.132   3.491 -0.1186 -0.3654  0.5407
 5813TIP3    H117403   4.943   4.066   3.545  1.7741  1.1830  0.9961
 5813TIP3    H217404   4.838   4.175   3.550 -0.5664 -0.9553  0.5213
 5814TIP3   OH217405   4.727   0.479   4.241 -0.1056  0.1018 -0.2036
 5814TIP3    H117406   4.702   0.549   4.180 -0.4628  1.2060  1.1661
 5814TIP3    H217407   4.645   0.438   4.266 -0.0377  0.2345  0.2310
 5815TIP3   OH217408   3.690   1.399   4.951  0.1567 -0.2595  0.1979
 5815TIP3    H117409   3.627   1.405   4.880  1.6081  0.3351 -1.0886
 5815TIP3    H217410   3.663   1.322   5.001 -1.3613 -0.2107 -0.4979
 5816TIP3   OH217411   5.246   5.494   5.900 -0.0300 -0.9324 -0.7187
 5816TIP3    H117412   5.304   5.570   5.897  2.1293 -2.4852 -0.9645
 5816TIP3    H217413   5.238   5.467   5.809 -0.5459 -1.1568 -0.6070
 5817TIP3   OH217414   0.488   4.053   2.072  0.2546  0.1870  0.3408
 5817TIP3    H117415   0.473   4.009   2.155  2.2510  0.4876  0.9286
 5817TIP3    H217416   0.504   3.983   2.009  1.5337 -0.0228  0.8614
 5818TIP3   OH217417   7.171   4.673   5.705 -0.1583 -0.2394  0.0967
 5818TIP3    H117418   7.124   4.756   5.696  0.1161 -0.3159 -2.8596
 5818TIP3    H217419   7.264   4.697   5.701 -0.0812 -0.7054 -1.2097
 5819TIP3   OH217420   4.746   0.951   5.680 -0.5803 -0.0517  0.2972
 5819TIP3    H117421   4.744   0.935   5.585 -2.4233 -1.9845  0.5686
 5819TIP3    H217422   4.705   1.037   5.691  1.2263  1.0026 -0.7116
 5820TIP3   OH217423   3.431   2.856   1.946 -0.3359  0.0758  0.1690
 5820TIP3    H117424   3.492   2.784   1.932  0.3751  0.8494 -0.9065
 5820TIP3    H217425   3.351   2.830   1.900 -0.2186 -0.1968  0.1234
 5821TIP3   OH217426   2.483   1.418   0.594  0.5218 -0.5761 -0.0299
 5821TIP3    H117427   2.504   1.483   0.527  0.8642 -1.5218 -0.8733
 5821TIP3    H217428   2.462   1.339   0.545 -0.8771 -0.8377  0.9409
 5822TIP3   OH217429   1.377   4.733   5.702 -0.1583 -0.3977  0.4172
 5822TIP3    H117430   1.465   4.699   5.684  0.4891  1.3541  0.0816
 5822TIP3    H217431   1.326   4.656   5.724  1.5973 -1.4179  1.1640
 5823TIP3   OH217432   4.426   2.424   5.074  0.4582 -0.8271  0.3156
 5823TIP3    H117433   4.387   2.404   4.989  1.3223 -0.2227 -0.2406
 5823TIP3    H217434   4.491   2.492   5.055  0.8402 -0.8651  1.4222
 5824TIP3   OH217435   1.584   2.848   2.341 -0.1428 -0.6695  0.0591
 5824TIP3    H117436   1.654   2.846   2.275  1.2745 -0.0125  1.4765
 5824TIP3    H217437   1.553   2.758   2.346 -0.3338 -0.7264 -1.5185
 5825TIP3   OH217438   5.959   1.829   3.435 -0.4588 -0.7679  0.2171
 5825TIP3    H117439   5.956   1.736   3.415 -2.2665 -0.7014 -0.0086
 5825TIP3    H217440   5.911   1.837   3.518  0.4468 -0.1371  0.6963
 5826TIP3   OH217441   3.116   5.726   4.510  0.3827 -0.3300 -0.2806
 5826TIP3    H117442   3.211   5.713   4.511  0.3705 -0.6437 -1.5873
 5826TIP3    H217443   3.081   5.642   4.540  0.4916 -0.7828 -1.3852
 5827TIP3   OH217444   0.996   2.455   0.938  0.1725 -0.0526  0.0023
 5827TIP3    H117445   0.927   2.504   0.982  0.0072 -1.4454  1.3422
 5827TIP3    H217446   0.951   2.384   0.892  0.5890 -0.1509 -0.2669
 5828TIP3   OH217447   6.973   3.234   1.811 -1.0237 -0.5735  0.0871
 5828TIP3    H117448   7.068   3.233   1.805 -0.9190  1.3259  0.7502
 5828TIP3    H217449   6.945   3.158   1.760  0.7836 -0.4833 -1.1372
 5829TIP3   OH217450   4.193   0.986   4.189 -0.3489 -0.0058 -0.2979
 5829TIP3    H117451   4.115   0.991   4.134 -1.1458  1.2605  0.8812
 5829TIP3    H217452   4.227   1.076   4.190  1.5847 -0.6606 -1.3739
 5830TIP3   OH217453   4.529   1.071   2.354 -0.4284  0.8233 -0.1099
 5830TIP3    H117454   4.569   1.091   2.269 -2.4958  1.1340 -1.0630
 5830TIP3    H217455   4.581   0.997   2.388  3.0407  3.2373  0.3519
 5831TIP3   OH217456   1.026   3.775   0.482 -0.4445  0.0048  0.4288
 5831TIP3    H117457   0.951   3.741   0.435 -0.5569 -0.1863  0.7411
 5831TIP3    H217458   1.011   3.750   0.573 -0.1699  0.2576  0.5476
 5832TIP3   OH217459   4.482   4.689   1.493  0.1191  0.4783  0.1728
 5832TIP3    H117460   4.423   4.763   1.509 -1.2142 -0.3336 -0.7489
 5832TIP3    H217461   4.472   4.670   1.400  0.4739 -0.8204  0.3842
 5833TIP3   OH217462   5.990   1.847   5.631  0.1869 -0.2346  0.3030
 5833TIP3    H117463   5.909   1.874   5.675  0.0563  0.2351 -0.2116
 5833TIP3    H217464   6.016   1.924   5.580  1.8812  0.2295  1.7606
 5834TIP3   OH217465   3.282   6.361   3.036  0.5204  0.2006 -0.0322
 5834TIP3    H117466   3.265   6.350   3.130  0.4017 -0.2139 -0.0999
 5834TIP3    H217467   3.208   6.317   2.993 -0.4169  1.9809 -0.3215
 5835TIP3   OH217468   1.461   0.371   1.337  0.2018 -0.1969  0.6755
 5835TIP3    H117469   1.481   0.282   1.367 -1.1711  0.0602  2.4829
 5835TIP3    H217470   1.547   0.414   1.334  0.7096 -1.1120  1.3749
 5836TIP3   OH217471   2.407   4.217   5.181 -0.8784 -0.4350 -0.1726
 5836TIP3    H117472   2.407   4.310   5.203  1.3915  0.3779 -3.0544
 5836TIP3    H217473   2.341   4.208   5.113  0.5326 -0.3839 -1.5979
 5837TIP3   OH217474   7.162   2.012   3.966  0.0887 -0.0533  0.5450
 5837TIP3    H117475   7.087   2.049   4.012  0.0966 -1.0186  1.3755
 5837TIP3    H217476   7.164   2.058   3.882 -0.4411  1.1386  1.1590
 5838TIP3   OH217477   5.890   1.019   5.605 -0.6105  0.2755  0.4607
 5838TIP3    H117478   5.962   1.058   5.555 -0.9374 -0.3167 -0.5022
 5838TIP3    H217479   5.825   1.089   5.613 -1.4223 -0.1409 -1.7026
 5839TIP3   OH217480   2.564   6.059   1.437  0.0129  0.3350 -0.0259
 5839TIP3    H117481   2.654   6.027   1.432  0.1603  0.5219  1.1761
 5839TIP3    H217482   2.510   5.984   1.414  0.4761  0.5821 -2.2247
 5840TIP3   OH217483   5.438   0.912   0.165 -0.3600 -0.2544 -0.1562
 5840TIP3    H117484   5.487   0.895   0.246  1.3027  0.5430 -0.9477
 5840TIP3    H217485   5.403   1.000   0.177  0.3098  0.0652 -0.4831
 5841TIP3   OH217486   1.003   4.271   1.851 -0.1648 -0.5565 -0.9530
 5841TIP3    H117487   0.959   4.350   1.881 -0.3882 -1.3614  0.9700
 5841TIP3    H217488   1.088   4.301   1.818 -0.7145  0.5958 -1.3497
 5842TIP3   OH217489   2.688   0.108   0.326  0.0179  0.1424  0.3217
 5842TIP3    H117490   2.709   0.032   0.381  0.7593  0.1620  0.0692
 5842TIP3    H217491   2.694   0.075   0.236  1.8599  0.8418  0.1398
 5843TIP3   OH217492   2.068   2.211   5.241 -0.2321  0.1108 -0.0355
 5843TIP3    H117493   2.059   2.122   5.273  2.2077  0.0813  0.7042
 5843TIP3    H217494   2.003   2.261   5.292 -0.8262 -1.0125  0.3509
 5844TIP3   OH217495   1.310   5.614   5.864 -0.5415  0.9375  0.4494
 5844TIP3    H117496   1.264   5.548   5.813 -1.2055  1.4320  0.3940
 5844TIP3    H217497   1.304   5.694   5.811  1.7007  0.6814 -0.2911
 5845TIP3   OH217498   6.856   4.256   0.834  0.0965 -0.1053  0.5222
 5845TIP3    H117499   6.844   4.240   0.741 -1.4260  1.1577  0.4653
 5845TIP3    H217500   6.823   4.177   0.877 -0.8515  0.0279  0.0452
 5846TIP3   OH217501   4.755   5.029   4.523 -0.1399  0.2454  0.1523
 5846TIP3    H117502   4.717   5.111   4.554  1.8879  1.1560  0.4030
 5846TIP3    H217503   4.754   4.972   4.600 -1.9273 -0.1399 -0.1293
 5847TIP3   OH217504   4.163   2.994   1.068  0.1154  0.2545  0.6162
 5847TIP3    H117505   4.153   2.916   1.122 -0.8408 -0.1003 -0.0395
 5847TIP3    H217506   4.196   3.062   1.128 -0.3647 -0.2788  1.4962
 5848TIP3   OH217507   3.350   4.926   5.446  0.1776 -0.0579  0.2876
 5848TIP3    H117508   3.351   5.015   5.483 -0.6125 -0.5620  1.5948
 5848TIP3    H217509   3.420   4.880   5.493  0.3885 -0.2237 -0.1784
 5849TIP3   OH217510   7.146   4.707   3.421  0.2275 -0.4060 -0.7224
 5849TIP3    H117511   7.103   4.628   3.454  1.6939 -1.0144 -0.1912
 5849TIP3    H217512   7.180   4.682   3.336  1.7640 -0.7615 -0.0321
 5850TIP3   OH217513   3.404   0.765   0.401  0.3142 -0.5703  1.0364
 5850TIP3    H117514   3.445   0.827   0.341 -0.6630  0.2877  1.2416
 5850TIP3    H217515   3.363   0.819   0.468  0.7977 -1.4902  2.1098
 5851TIP3   OH217516   0.307   1.684   0.762  0.1414  0.1516  0.0932
 5851TIP3    H117517   0.401   1.687   0.746  0.4483  0.9345  1.8392
 5851TIP3    H217518   0.275   1.613   0.707  1.6272  0.3496 -1.0722
 5852TIP3   OH217519   1.475   0.409   4.173  0.5451 -0.7644 -0.8314
 5852TIP3    H117520   1.539   0.421   4.244  0.3964 -0.8215 -0.6886
 5852TIP3    H217521   1.456   0.315   4.173 -2.5466 -0.2736  1.7490
 5853TIP3   OH217522   6.442   2.187   1.258 -0.1941  0.4050  0.7370
 5853TIP3    H117523   6.350   2.162   1.267 -0.7516  1.8866 -0.5345
 5853TIP3    H217524   6.449   2.270   1.306  0.2482  0.7846  0.0212
 5854TIP3   OH217525   3.126   4.334   1.611  0.2638 -0.4795  0.1285
 5854TIP3    H117526   3.103   4.251   1.652 -0.4397 -0.4256 -0.1366
 5854TIP3    H217527   3.052   4.391   1.629  0.9720  0.2550  0.7432
 5855TIP3   OH217528   0.083  -0.008   0.340  0.2403  0.2705 -0.0401
 5855TIP3    H117529   0.141   0.011   0.413 -0.6205  1.6776  0.3169
 5855TIP3    H217530   0.001   0.036   0.362 -1.7594 -3.3027  0.4808
 5856TIP3   OH217531   6.744   5.863   1.306 -0.2727 -0.7707 -0.1435
 5856TIP3    H117532   6.782   5.935   1.255 -2.4559 -0.0939 -0.9170
 5856TIP3    H217533   6.724   5.796   1.241 -2.4515 -0.1750 -0.1560
 5857TIP3   OH217534   0.656   2.319   3.604 -0.4469  0.2618  0.7202
 5857TIP3    H117535   0.585   2.255   3.604 -0.2832  0.0757  0.5061
 5857TIP3    H217536   0.624   2.391   3.658 -1.1533  0.5823 -0.0979
 5858TIP3   OH217537   0.102   3.168   3.059  0.3525 -0.1561  0.2543
 5858TIP3    H117538   0.131   3.116   2.984 -0.5762 -0.8986  0.4026
 5858TIP3    H217539   0.020   3.127   3.087 -0.2059  1.1705  0.6065
 5859TIP3   OH217540   2.085   5.352   0.965  0.1397 -0.6590  0.2780
 5859TIP3    H117541   2.082   5.391   1.052 -0.3917 -2.0652  0.9032
 5859TIP3    H217542   2.121   5.265   0.978  2.7283  0.0704 -1.3063
 5860TIP3   OH217543   5.173   5.591   1.488  0.0354  0.4690  0.5830
 5860TIP3    H117544   5.265   5.617   1.492  0.1992 -0.2152  3.4154
 5860TIP3    H217545   5.126   5.674   1.474  1.0654  0.6338 -2.6119
 5861TIP3   OH217546   5.620   4.058   4.554 -0.3422 -0.2360 -0.7878
 5861TIP3    H117547   5.536   4.083   4.516 -0.5680 -0.8958 -0.7216
 5861TIP3    H217548   5.611   4.076   4.647 -0.4474 -0.4217 -0.7631
 5862TIP3   OH217549   2.379   0.934   2.362 -0.4184  0.1027  0.0346
 5862TIP3    H117550   2.424   0.926   2.446 -1.1016 -0.3397  0.3580
 5862TIP3    H217551   2.298   0.886   2.372 -0.3301 -0.2985 -1.0118
 5863TIP3   OH217552   2.373   2.105   1.773 -0.1536 -0.2961 -0.2938
 5863TIP3    H117553   2.315   2.129   1.701  0.6979 -1.6312 -1.4855
 5863TIP3    H217554   2.329   2.031   1.816 -1.6715  1.7447  1.9494
 5864TIP3   OH217555   4.663   4.701   5.701 -0.0672 -0.4185  0.3481
 5864TIP3    H117556   4.710   4.756   5.763 -0.9203  1.1753 -0.3578
 5864TIP3    H217557   4.727   4.634   5.674  1.6149  1.2845 -0.1187
 5865TIP3   OH217558   4.044   4.186   5.271  0.0356  0.4027  0.7802
 5865TIP3    H117559   4.103   4.261   5.269  0.9722 -0.3334 -1.3972
 5865TIP3    H217560   4.012   4.177   5.181 -1.2369 -0.9213  1.3185
 5866TIP3   OH217561   0.031   2.048   3.114 -0.0721 -0.8745 -0.1479
 5866TIP3    H117562  -0.063   2.038   3.127 -0.2292 -1.5490 -1.5410
 5866TIP3    H217563   0.061   1.961   3.088  0.8542 -0.5716 -0.1376
 5867TIP3   OH217564   2.856   3.038   2.235  0.0661 -0.3976  0.2161
 5867TIP3    H117565   2.856   2.949   2.271  0.8107 -0.8531 -0.8581
 5867TIP3    H217566   2.841   3.095   2.310 -3.2431 -1.5363  0.6037
 5868TIP3   OH217567   0.889   4.270   4.469 -0.4180  0.4425  0.2123
 5868TIP3    H117568   0.898   4.274   4.565 -0.2802  0.1377  0.2130
 5868TIP3    H217569   0.977   4.287   4.436 -0.1128 -1.1075  0.1850
 5869TIP3   OH217570   1.164   4.042   2.306 -0.0577 -0.1697 -0.0436
 5869TIP3    H117571   1.131   4.106   2.243  0.0636  1.4056  1.4207
 5869TIP3    H217572   1.233   3.995   2.259  0.6103  1.5301 -0.8395
 5870TIP3   OH217573   1.027   2.717   2.622 -0.1847  0.0438  0.5454
 5870TIP3    H117574   1.028   2.705   2.717 -0.3325 -0.5470  0.4748
 5870TIP3    H217575   0.935   2.725   2.600 -0.2562 -1.2200  0.2935
 5871TIP3   OH217576   2.882   0.218   1.134 -0.0308 -0.4424  0.4124
 5871TIP3    H117577   2.950   0.286   1.135  0.4685 -0.9189 -0.0231
 5871TIP3    H217578   2.801   0.265   1.116  0.0116  0.2720  1.8898
 5872TIP3   OH217579   0.598   4.793   1.841  0.1683  0.1462  0.0082
 5872TIP3    H117580   0.650   4.716   1.820  0.9268  0.8045 -0.5677
 5872TIP3    H217581   0.570   4.828   1.756 -1.5116 -0.3742  0.3054
 5873TIP3   OH217582   5.806   1.631   3.106 -0.2134  0.2424  0.6637
 5873TIP3    H117583   5.817   1.547   3.061 -0.0801  0.7259 -0.2165
 5873TIP3    H217584   5.862   1.624   3.184 -0.4202 -0.5866  0.7483
 5874TIP3   OH217585   1.632   2.500   5.040  0.0809  0.0938 -0.0306
 5874TIP3    H117586   1.625   2.545   5.124 -2.4304  1.1737 -0.7010
 5874TIP3    H217587   1.542   2.495   5.008  0.6218 -2.7771 -1.4292
 5875TIP3   OH217588   0.516   3.099   4.714  0.2040 -0.4775 -0.1140
 5875TIP3    H117589   0.435   3.065   4.753  0.0280 -0.3658 -0.3729
 5875TIP3    H217590   0.485   3.157   4.644  0.4820  0.8219  0.8145
 5876TIP3   OH217591   3.221   6.040   0.673 -0.3149 -0.4226  0.7143
 5876TIP3    H117592   3.134   6.003   0.662 -1.0854  1.2278  0.9989
 5876TIP3    H217593   3.215   6.129   0.638  1.7321 -0.8170 -0.8412
 5877TIP3   OH217594   1.699   0.069   5.817 -0.1943 -0.4484  0.3153
 5877TIP3    H117595   1.639   0.069   5.893 -1.3377 -0.1608 -0.5572
 5877TIP3    H217596   1.687   0.155   5.777  1.1795 -0.2079  0.3782
 5878TIP3   OH217597   2.727   3.021   1.051 -0.2410  0.5905  0.1452
 5878TIP3    H117598   2.658   3.036   1.116 -2.1679  1.5757 -1.9996
 5878TIP3    H217599   2.709   2.933   1.018 -0.4722  0.8283 -0.3786
 5879TIP3   OH217600   0.624   3.038   5.444 -0.1217  0.4307 -0.2040
 5879TIP3    H117601   0.555   2.993   5.492  0.5144  1.0056  1.3054
 5879TIP3    H217602   0.635   2.987   5.364 -0.9630 -0.7726  0.4236
 5880TIP3   OH217603   5.451   3.170   4.533 -0.0631 -0.3964  0.2180
 5880TIP3    H117604   5.520   3.109   4.560  0.5726 -0.0674 -0.6272
 5880TIP3    H217605   5.492   3.225   4.467 -1.3533 -0.6839 -0.8736
 5881TIP3   OH217606   0.811   1.533   4.745  0.0447 -0.4974 -0.0589
 5881TIP3    H117607   0.746   1.561   4.810 -0.9190 -0.4511 -1.0146
 5881TIP3    H217608   0.832   1.443   4.770 -1.0667 -0.8301 -0.2406
 5882TIP3   OH217609   0.844   5.735   4.435  0.3289  0.4860 -0.2252
 5882TIP3    H117610   0.829   5.787   4.356 -1.2036  0.1819 -0.1715
 5882TIP3    H217611   0.799   5.783   4.504  1.4830  0.6367  0.4359
 5883TIP3   OH217612   2.203   0.136   3.913  0.2396 -0.2651  0.7724
 5883TIP3    H117613   2.241   0.221   3.893 -0.0043  0.2202  2.2336
 5883TIP3    H217614   2.112   0.143   3.884 -0.1257  0.4423  2.0118
 5884TIP3   OH217615   2.681   1.341   1.965  0.3930 -0.0628 -0.1348
 5884TIP3    H117616   2.605   1.397   1.982  2.1300  1.9017  1.8534
 5884TIP3    H217617   2.726   1.336   2.049  1.3170 -3.0370 -0.7078
 5885TIP3   OH217618   2.635   0.278   2.878  0.4575  0.2205  0.1249
 5885TIP3    H117619   2.722   0.245   2.903  0.8025 -1.3267 -2.7087
 5885TIP3    H217620   2.574   0.213   2.911  0.5947  0.0181 -0.0189
 5886TIP3   OH217621   3.888   5.997   4.587 -0.2902  0.0930  0.5996
 5886TIP3    H117622   3.902   5.971   4.678 -0.8813  0.2103  0.7291
 5886TIP3    H217623   3.828   5.932   4.552 -1.4832  1.0221  0.8209
 5887TIP3   OH217624   4.099   6.402   0.488 -0.3074 -0.4398 -0.3203
 5887TIP3    H117625   4.132   6.442   0.568 -0.7042 -0.7625  0.0159
 5887TIP3    H217626   4.172   6.405   0.427 -0.1406  0.2218 -0.0947
 5888TIP3   OH217627   3.465   3.592   4.101  0.3549 -0.2540  0.0543
 5888TIP3    H117628   3.494   3.640   4.023  2.5397 -0.6974  0.5287
 5888TIP3    H217629   3.426   3.659   4.157 -0.6186  0.1861 -1.0985
 5889TIP3   OH217630   5.859   2.085   1.135 -0.0719  0.5529 -0.8942
 5889TIP3    H117631   5.909   2.014   1.175 -0.6266 -0.9853 -2.7890
 5889TIP3    H217632   5.818   2.130   1.209 -1.2396 -2.2965  0.3120
 5890TIP3   OH217633   1.399   3.114   5.101  0.2875 -0.3946 -0.5880
 5890TIP3    H117634   1.487   3.083   5.123  0.6788  0.7597 -0.4670
 5890TIP3    H217635   1.345   3.086   5.175  0.7250 -0.3858 -0.2613
 5891TIP3   OH217636   5.588   3.357   5.019 -0.7075  0.4196 -0.1289
 5891TIP3    H117637   5.661   3.322   4.968 -1.5516  1.4191 -2.1244
 5891TIP3    H217638   5.519   3.292   5.011 -1.7589  1.7252 -2.5915
 5892TIP3   OH217639   1.969   3.615   4.541 -0.0801  0.2386  0.4563
 5892TIP3    H117640   2.043   3.660   4.502 -0.8586  0.0213 -1.3823
 5892TIP3    H217641   1.897   3.630   4.480 -1.2645 -0.5059  1.6158
 5893TIP3   OH217642   6.996   3.615   4.326  0.0167  0.3603 -0.3887
 5893TIP3    H117643   7.001   3.705   4.358  0.8885  0.6604 -1.2933
 5893TIP3    H217644   6.956   3.623   4.239 -0.1525 -0.1545 -0.3606
 5894TIP3   OH217645   6.908   4.071   2.331 -0.7018  0.3070  0.1157
 5894TIP3    H117646   6.860   4.144   2.370 -1.6512 -0.6473  0.7810
 5894TIP3    H217647   6.859   4.048   2.253 -1.2672 -0.5713  0.7139
 5895TIP3   OH217648   1.877   1.630   5.688  0.0331  0.3570  0.5913
 5895TIP3    H117649   1.913   1.616   5.775  1.1360  1.2627  0.3044
 5895TIP3    H217650   1.894   1.722   5.669  0.0346  0.1234 -0.6747
 5896TIP3   OH217651   5.473   0.869   5.197  0.0850  0.3364  0.4927
 5896TIP3    H117652   5.514   0.811   5.261  1.7206 -0.0119 -0.8110
 5896TIP3    H217653   5.381   0.874   5.224 -0.2878 -3.3427  0.3352
 5897TIP3   OH217654   0.577   1.694   1.832  0.2528  0.0593  0.6084
 5897TIP3    H117655   0.661   1.673   1.792  0.0786  1.8179 -0.8213
 5897TIP3    H217656   0.513   1.671   1.765 -0.0206  3.5364 -0.5249
 5898TIP3   OH217657   0.414   6.088   3.352 -0.0637 -0.3787 -0.1752
 5898TIP3    H117658   0.476   6.093   3.426 -0.9129 -0.4825  0.5579
 5898TIP3    H217659   0.358   6.165   3.362 -1.1457 -1.1863  0.1781
 5899TIP3   OH217660   0.388   4.177   4.337 -0.2425 -0.5380 -0.0234
 5899TIP3    H117661   0.402   4.131   4.420 -0.7763 -0.8978 -0.1299
 5899TIP3    H217662   0.350   4.261   4.362 -0.2207 -0.5670  0.1066
 5900TIP3   OH217663   1.047   1.997   1.166 -0.5338 -0.2960 -0.5022
 5900TIP3    H117664   1.065   2.089   1.185 -1.5087 -0.2432  0.2328
 5900TIP3    H217665   1.062   1.988   1.072  0.5725  0.3576 -0.4121
 5901TIP3   OH217666   3.313   5.794   4.781 -0.0578  0.7093  0.1014
 5901TIP3    H117667   3.292   5.883   4.752  1.1767  1.2308  0.7168
 5901TIP3    H217668   3.334   5.804   4.874  1.8824  0.1030 -0.2296
 5902TIP3   OH217669   2.286   6.774   4.613  0.3158 -0.1903 -0.1049
 5902TIP3    H117670   2.304   6.706   4.678  0.6119 -0.1887 -0.1815
 5902TIP3    H217671   2.244   6.845   4.662  0.0694 -0.3984 -0.0124
 5903TIP3   OH217672   3.394   5.084   0.940 -0.1828 -0.0907 -0.1227
 5903TIP3    H117673   3.353   5.104   0.856  0.9261 -0.9996 -0.9257
 5903TIP3    H217674   3.434   5.167   0.967 -1.0480  0.3590 -0.1869
 5904TIP3   OH217675   7.038   3.868   5.724 -0.1684  0.6022  0.1405
 5904TIP3    H117676   6.994   3.792   5.687 -1.2770  0.1913  2.1451
 5904TIP3    H217677   6.968   3.932   5.739  0.2817  0.9102  1.0584
 5905TIP3   OH217678   6.074   0.470   2.008  0.1113 -0.0410  0.6068
 5905TIP3    H117679   6.022   0.526   1.949  0.5260 -1.6694 -1.4281
 5905TIP3    H217680   6.149   0.524   2.032 -0.2560  0.8024 -0.0721
 5906TIP3   OH217681   6.175   1.451   2.209 -0.3510  0.3462  0.3317
 5906TIP3    H117682   6.122   1.440   2.131  2.5569  1.3755 -1.9808
 5906TIP3    H217683   6.153   1.538   2.242  0.1985  0.9629 -0.8899
 5907TIP3   OH217684   0.276   5.682   3.089 -0.6493 -0.2685  0.3425
 5907TIP3    H117685   0.358   5.687   3.039 -1.8882 -0.7509 -1.8606
 5907TIP3    H217686   0.275   5.763   3.141  1.4677 -0.5405  0.9177
 5908TIP3   OH217687   2.376   2.673   3.448 -0.5792 -0.0424  0.1847
 5908TIP3    H117688   2.295   2.622   3.439 -0.1743 -0.6269 -0.2121
 5908TIP3    H217689   2.353   2.743   3.509 -2.2101  1.5143 -2.0991
 5909TIP3   OH217690   0.323   5.548   4.176 -0.0104  0.1064  0.1962
 5909TIP3    H117691   0.278   5.546   4.260 -0.7207 -0.0061 -0.1802
 5909TIP3    H217692   0.337   5.642   4.158 -0.4720  0.1625  0.1214
 5910TIP3   OH217693   1.265   1.332   2.133 -0.9158 -0.3574 -0.7882
 5910TIP3    H117694   1.253   1.365   2.044  1.4682 -0.3132 -1.1821
 5910TIP3    H217695   1.240   1.240   2.128 -1.5706 -0.1628 -1.2820
 5911TIP3   OH217696   4.219   3.813   1.285  0.3495  0.6503 -0.0960
 5911TIP3    H117697   4.296   3.855   1.323  0.6383 -0.1870  0.2932
 5911TIP3    H217698   4.165   3.790   1.361  1.0376 -1.2512 -0.1237
 5912TIP3   OH217699   7.082   0.130   5.757  0.2328 -0.2469  0.2772
 5912TIP3    H117700   7.014   0.154   5.819 -0.0102  0.4889 -0.2601
 5912TIP3    H217701   7.117   0.213   5.726  0.2340 -0.5900 -0.6871
 5913TIP3   OH217702   4.511   4.708   5.293  0.2092 -0.3208  0.6760
 5913TIP3    H117703   4.455   4.690   5.217 -0.4545  3.7612 -0.0039
 5913TIP3    H217704   4.458   4.680   5.368 -1.7498  1.0664 -0.1025
 5914TIP3   OH217705   5.965   4.172   5.742 -0.4537 -0.3707  0.2020
 5914TIP3    H117706   5.899   4.190   5.809 -0.7475 -0.4055 -0.0753
 5914TIP3    H217707   6.036   4.127   5.788 -1.1924 -1.5176  0.2625
 5915TIP3   OH217708   1.553   6.180   3.771 -0.2898 -1.0004  0.0964
 5915TIP3    H117709   1.500   6.232   3.832  0.3887 -0.8770  0.5893
 5915TIP3    H217710   1.624   6.145   3.825  0.4205 -0.7438 -0.6614
 5916TIP3   OH217711   4.952   2.335   5.160 -0.2104 -0.0895 -0.4155
 5916TIP3    H117712   4.991   2.285   5.232 -1.9306 -0.0469  0.5914
 5916TIP3    H217713   4.935   2.421   5.197  1.4639  0.8576 -1.7458
 5917TIP3   OH217714   6.812   5.141   4.525  0.1895  0.0399 -0.6252
 5917TIP3    H117715   6.855   5.057   4.509 -0.4773 -0.0281 -2.1664
 5917TIP3    H217716   6.719   5.122   4.521  0.0281  1.0106 -1.9319
 5918TIP3   OH217717   5.240   4.496   3.279  0.0668 -0.3221 -0.2120
 5918TIP3    H117718   5.166   4.556   3.288  1.7492  1.9166 -0.5157
 5918TIP3    H217719   5.285   4.526   3.200  2.3055 -0.4331  0.9403
 5919TIP3   OH217720   1.067   6.724   1.275  0.9187  0.4856  0.2184
 5919TIP3    H117721   0.972   6.718   1.263  0.8010 -0.3905  1.4066
 5919TIP3    H217722   1.083   6.817   1.289  0.0298  0.4881  1.3960
 5920TIP3   OH217723   7.020   0.050   4.618 -0.3860  0.0767 -0.5426
 5920TIP3    H117724   6.988  -0.028   4.573  0.4196 -0.1547 -0.7473
 5920TIP3    H217725   7.028   0.023   4.709 -0.6875  0.1051 -0.5093
 5921TIP3   OH217726   4.583   5.698   5.437 -0.1448 -0.2077  0.4203
 5921TIP3    H117727   4.584   5.755   5.360 -0.9752 -1.8364 -0.8621
 5921TIP3    H217728   4.493   5.666   5.442 -0.2122  0.1586  2.3441
 5922TIP3   OH217729   6.636   0.194   0.407 -0.2024 -0.0175  0.1978
 5922TIP3    H117730   6.562   0.178   0.466 -0.4628  0.8317  0.1160
 5922TIP3    H217731   6.644   0.289   0.403 -1.3551  0.0642 -2.5261
 5923TIP3   OH217732   1.458   3.874   5.096 -0.3917 -0.2173 -0.5878
 5923TIP3    H117733   1.397   3.900   5.028  1.4370 -1.6125 -2.9313
 5923TIP3    H217734   1.416   3.800   5.139 -1.1199 -0.0116 -0.9250
 5924TIP3   OH217735   3.436   0.735   2.129 -0.1102 -0.3091 -0.4039
 5924TIP3    H117736   3.453   0.649   2.168 -0.3140  0.2090  0.8818
 5924TIP3    H217737   3.341   0.746   2.136  0.0165  0.3993  0.2804
 5925TIP3   OH217738   6.930   5.627   4.597 -0.8119 -0.3502  0.3304
 5925TIP3    H117739   6.860   5.692   4.604  1.1984  2.2123 -1.5422
 5925TIP3    H217740   6.990   5.648   4.668 -0.4210 -0.5174  0.0546
 5926TIP3   OH217741   0.316   6.569   4.498 -0.3849 -0.1224  0.2143
 5926TIP3    H117742   0.395   6.609   4.534 -1.6304  1.2681  1.5325
 5926TIP3    H217743   0.329   6.571   4.404  1.3748 -0.4391  0.4148
 5927TIP3   OH217744   1.550   5.051   4.039 -0.3239  0.3453 -0.1453
 5927TIP3    H117745   1.607   5.123   4.011 -2.9259  2.2679 -0.8678
 5927TIP3    H217746   1.610   4.978   4.053  2.5213  2.6500  0.8555
 5928TIP3   OH217747   6.329   2.346   5.867  0.1022  0.1706  0.2093
 5928TIP3    H117748   6.419   2.358   5.835  0.5926  1.9269  2.0514
 5928TIP3    H217749   6.284   2.303   5.795  2.3556 -0.5524 -0.8659
 5929TIP3   OH217750   6.656   5.831   5.725 -0.1309  0.1909  0.2627
 5929TIP3    H117751   6.599   5.883   5.668 -0.0225  0.1520  0.1176
 5929TIP3    H217752   6.597   5.771   5.771 -0.1918  0.0704  0.0262
 5930TIP3   OH217753   3.342   4.971   5.183 -0.3165 -0.2363 -0.2667
 5930TIP3    H117754   3.362   4.946   5.273 -1.9676 -0.6730  0.0064
 5930TIP3    H217755   3.350   4.890   5.133 -1.4644 -0.4500 -0.1277
 5931TIP3   OH217756   3.751   3.957   3.466 -0.5353 -0.1997 -0.3977
 5931TIP3    H117757   3.671   3.919   3.430  0.4100 -0.7273 -2.0334
 5931TIP3    H217758   3.764   4.038   3.417  1.3590 -1.4747 -2.1651
 5932TIP3   OH217759   6.762   6.251   0.694 -0.0141  0.3482  0.0153
 5932TIP3    H117760   6.794   6.175   0.743 -0.7827  0.1834  0.2830
 5932TIP3    H217761   6.678   6.221   0.656 -0.5809  1.2213  0.5548
 5933TIP3   OH217762   4.515   2.277   0.485  0.7795 -0.2727  0.3040
 5933TIP3    H117763   4.573   2.217   0.438  1.6526  0.2125  0.7235
 5933TIP3    H217764   4.575   2.329   0.539 -0.1314 -0.2679  1.3257
 5934TIP3   OH217765   5.685   0.162   2.415 -0.0086  0.7469  0.3336
 5934TIP3    H117766   5.707   0.253   2.436  0.1897  1.8748 -3.9562
 5934TIP3    H217767   5.596   0.166   2.380 -0.2465 -0.8642  0.6645
 5935TIP3   OH217768   1.949   3.751   2.926 -0.5713  0.1416  0.1715
 5935TIP3    H117769   1.897   3.830   2.911 -1.1975 -0.3633 -0.3538
 5935TIP3    H217770   1.939   3.700   2.846  0.6394 -0.0365  0.1050
 5936TIP3   OH217771   6.235   0.267   0.550  0.3740  0.0399 -0.5381
 5936TIP3    H117772   6.219   0.276   0.644  0.5622  0.5321 -0.5542
 5936TIP3    H217773   6.293   0.191   0.543 -0.3226 -0.5172 -0.3252
 5937TIP3   OH217774   4.777   5.634   1.677 -0.4707  0.1781 -0.4422
 5937TIP3    H117775   4.730   5.591   1.749 -0.8417  1.9297  0.4190
 5937TIP3    H217776   4.714   5.698   1.643 -0.4233 -0.8326 -2.5899
 5938TIP3   OH217777   4.659   0.134   3.094 -0.4182 -0.1490 -0.3027
 5938TIP3    H117778   4.642   0.138   3.000  0.9044 -0.4674 -0.5718
 5938TIP3    H217779   4.741   0.087   3.102 -0.1059  0.5582  0.9778
 5939TIP3   OH217780   0.640   1.555   4.971  0.0156 -0.5743  0.1902
 5939TIP3    H117781   0.593   1.479   4.937 -0.5140 -0.4637  0.6504
 5939TIP3    H217782   0.574   1.602   5.024  0.5815 -0.2886  0.6538
 5940TIP3   OH217783   2.899   1.082   2.034 -0.3838 -0.7857  0.2229
 5940TIP3    H117784   2.826   1.120   2.083 -0.1358  0.1676 -0.1401
 5940TIP3    H217785   2.907   0.993   2.069 -1.4979 -0.7913  0.5088
 5941TIP3   OH217786   3.651   5.905   3.522 -0.0972 -0.6109 -0.0611
 5941TIP3    H117787   3.613   5.983   3.562 -0.1457 -1.0754  0.8200
 5941TIP3    H217788   3.711   5.871   3.588  0.2573 -1.0774 -0.6113
 5942TIP3   OH217789   5.240   6.529   1.119 -0.2184 -0.0927  0.2637
 5942TIP3    H117790   5.248   6.498   1.028 -1.8147 -0.8723  0.3571
 5942TIP3    H217791   5.329   6.554   1.143  0.8364 -2.7225 -0.5097
 5943TIP3   OH217792   5.888   5.346   5.624  0.5484  1.0183 -0.2936
 5943TIP3    H117793   5.808   5.378   5.582 -0.3286 -2.0273 -1.1894
 5943TIP3    H217794   5.859   5.274   5.680  2.7188 -1.4551 -2.0730
 5944TIP3   OH217795   0.918   0.501   4.412  0.5639 -0.2179  0.0008
 5944TIP3    H117796   0.824   0.490   4.427  0.6416 -0.2768  0.4576
 5944TIP3    H217797   0.924   0.535   4.323  0.0841  0.1765  0.1116
 5945TIP3   OH217798   0.895   3.748   5.757  0.8805 -0.2478 -0.1456
 5945TIP3    H117799   0.843   3.675   5.723  0.2395  0.1702 -0.0749
 5945TIP3    H217800   0.850   3.826   5.725 -0.8663  0.2523  3.0878
 5946TIP3   OH217801   0.005   1.085   3.138  0.2301 -0.1839 -0.3531
 5946TIP3    H117802  -0.039   1.001   3.154  2.1361 -1.0234  0.8749
 5946TIP3    H217803   0.042   1.109   3.223  1.1543  1.0429 -1.0678
 5947TIP3   OH217804   5.510   0.159   5.646  0.2662 -0.5118 -0.0934
 5947TIP3    H117805   5.477   0.247   5.625 -0.5112 -0.7668  0.0353
 5947TIP3    H217806   5.605   0.169   5.647  0.1713  0.5310  0.7891
 5948TIP3   OH217807   7.185   0.393   1.815  0.4591 -0.2445  0.5018
 5948TIP3    H117808   7.150   0.337   1.746 -1.1503 -0.8290  1.7092
 5948TIP3    H217809   7.261   0.346   1.848 -0.4303 -1.3910  0.9870
 5949TIP3   OH217810   5.675   4.661   1.098 -0.2867 -0.3647  0.3877
 5949TIP3    H117811   5.609   4.658   1.030 -2.0526 -1.4755  2.0612
 5949TIP3    H217812   5.697   4.569   1.115  0.9084 -0.0596  0.6036
 5950TIP3   OH217813   2.309   3.029   5.873 -0.5792  0.0907 -0.3428
 5950TIP3    H117814   2.234   3.083   5.898 -0.2062  0.6460 -0.4100
 5950TIP3    H217815   2.385   3.085   5.888 -0.1653 -0.5303 -0.1102
 5951TIP3   OH217816   6.854   1.040   5.544  0.2433 -0.0277 -0.0875
 5951TIP3    H117817   6.885   1.006   5.628  1.5901 -0.0115 -0.5445
 5951TIP3    H217818   6.929   1.029   5.485 -0.2281  1.1662 -0.9548
 5952TIP3   OH217819   0.576   2.611   3.706 -0.1559  0.5929  0.7225
 5952TIP3    H117820   0.605   2.646   3.790  0.6946 -0.4632  0.8884
 5952TIP3    H217821   0.481   2.606   3.714 -0.0754  0.3926  1.6656
 5953TIP3   OH217822   0.915   2.656   4.325 -0.4379  0.2541 -0.1412
 5953TIP3    H117823   0.890   2.600   4.398  0.6328 -1.3422 -0.9558
 5953TIP3    H217824   0.876   2.741   4.346 -0.9441 -0.4096  1.8036
 5954TIP3   OH217825   6.292   6.207   3.680 -0.0227 -0.5944 -0.1226
 5954TIP3    H117826   6.196   6.201   3.679  0.0103 -1.1432 -0.5853
 5954TIP3    H217827   6.310   6.301   3.682 -0.5703 -0.4782 -0.4235
 5955TIP3   OH217828   5.924   3.125   2.744  0.4553 -0.9522  0.0367
 5955TIP3    H117829   5.918   3.221   2.739 -1.5428 -1.0043  0.6956
 5955TIP3    H217830   5.846   3.099   2.793  1.5694 -2.8464  0.8974
 5956TIP3   OH217831   3.001   6.464   5.865 -0.0996  0.6023  0.4401
 5956TIP3    H117832   3.092   6.437   5.864 -0.3894 -1.2827 -4.4517
 5956TIP3    H217833   3.002   6.556   5.836  0.2888  0.3190 -0.4872
 5957TIP3   OH217834   6.716   3.473   2.159 -0.4158  0.1051  0.0798
 5957TIP3    H117835   6.621   3.461   2.161 -0.2969 -0.9372  0.3633
 5957TIP3    H217836   6.748   3.400   2.105  0.1323  1.1481 -1.0331
 5958TIP3   OH217837   0.056   6.600   2.594  0.2701 -0.2411  0.1350
 5958TIP3    H117838   0.005   6.525   2.625  1.3084 -0.2681  1.8889
 5958TIP3    H217839  -0.010   6.667   2.575 -0.6712 -1.5479 -1.4219
 5959TIP3   OH217840   2.171   2.389   1.085  0.4544 -0.1417 -0.5406
 5959TIP3    H117841   2.205   2.430   1.005  2.0102 -0.2052  0.0493
 5959TIP3    H217842   2.103   2.328   1.054  0.8249  0.0440 -1.7780
 5960TIP3   OH217843   3.298   3.160   5.510  0.4737  0.9666  0.6872
 5960TIP3    H117844   3.265   3.084   5.462 -0.9531  0.7085  2.0146
 5960TIP3    H217845   3.386   3.175   5.473  0.5291 -0.8997 -0.0591
 5961TIP3   OH217846   0.770   1.831   5.556 -0.4537 -0.0819  0.1963
 5961TIP3    H117847   0.790   1.910   5.505 -1.0108  1.3110  2.0315
 5961TIP3    H217848   0.689   1.852   5.602 -0.6804 -1.7939  0.6472
 5962TIP3   OH217849   3.056   1.795   3.775 -0.5610  0.2461  0.3321
 5962TIP3    H117850   3.103   1.719   3.811 -0.6009 -0.9219 -1.9137
 5962TIP3    H217851   2.975   1.799   3.825 -1.5715 -2.5987 -0.8505
 5963TIP3   OH217852   6.757   0.436   2.202  0.3078  0.4289  0.2871
 5963TIP3    H117853   6.773   0.425   2.296  0.5041  0.9287  0.3194
 5963TIP3    H217854   6.816   0.507   2.176  0.1548  0.3892 -0.1868
 5964TIP3   OH217855   0.776   4.040   4.909  0.1904  0.0797  0.3888
 5964TIP3    H117856   0.780   4.081   4.995  0.3171 -2.1630  1.5434
 5964TIP3    H217857   0.787   3.946   4.927  1.0358 -0.3934 -2.1549
 5965TIP3   OH217858   4.883   6.451   3.400  0.0827  0.0341  0.2211
 5965TIP3    H117859   4.963   6.400   3.390  0.0804  0.2539 -1.0856
 5965TIP3    H217860   4.828   6.423   3.327 -1.1114 -0.2287  1.1831
 5966TIP3   OH217861   2.414   2.286   2.183 -0.4442  0.1344 -0.6707
 5966TIP3    H117862   2.497   2.239   2.177  0.3994  1.6080 -0.8592
 5966TIP3    H217863   2.360   2.230   2.240  1.3628  0.0943  1.1407
 5967TIP3   OH217864   3.645   3.690   3.884 -0.4177  0.4136 -0.3863
 5967TIP3    H117865   3.656   3.690   3.789 -0.7027 -1.3017 -0.4483
 5967TIP3    H217866   3.721   3.736   3.917  0.9886 -1.0989 -1.3608
 5968TIP3   OH217867   3.161   5.731   0.234  0.3035 -0.2688 -0.1232
 5968TIP3    H117868   3.143   5.672   0.307  0.0628 -1.0729 -0.8117
 5968TIP3    H217869   3.182   5.815   0.275 -3.0014  0.2417  0.8401
 5969TIP3   OH217870   2.429   3.903   4.721 -0.4348  0.0093 -0.8673
 5969TIP3    H117871   2.482   3.837   4.677 -1.6874 -0.8835 -1.0826
 5969TIP3    H217872   2.363   3.928   4.657  0.0224  1.5095 -0.7958
 5970TIP3   OH217873   2.732   6.373   3.488  0.4159  0.1675  0.4492
 5970TIP3    H117874   2.795   6.374   3.559 -0.8079 -1.6483  1.6472
 5970TIP3    H217875   2.647   6.390   3.530 -0.1552  0.6374 -0.8224
 5971TIP3   OH217876   2.199   6.100   0.702  0.0785 -0.0684 -0.5048
 5971TIP3    H117877   2.139   6.041   0.656  1.9216 -1.8779 -0.7223
 5971TIP3    H217878   2.204   6.064   0.791  1.2297 -0.2632 -0.6389
 5972TIP3   OH217879   2.826   2.405   2.795 -0.0682 -0.0564  0.1717
 5972TIP3    H117880   2.845   2.412   2.702  1.0432 -0.6646  0.3393
 5972TIP3    H217881   2.824   2.496   2.826  1.0687  0.0977 -0.1626
 5973TIP3   OH217882   2.107   2.720   4.537 -0.2138 -0.6782 -0.8463
 5973TIP3    H117883   2.031   2.669   4.566 -0.4313 -0.4017 -0.9149
 5973TIP3    H217884   2.143   2.757   4.617 -0.9542  0.2763 -0.9279
 5974TIP3   OH217885   5.581   5.008   2.157 -0.1046 -0.4233 -0.1752
 5974TIP3    H117886   5.509   5.011   2.220  0.3640 -0.1096  0.3591
 5974TIP3    H217887   5.628   5.090   2.171 -0.7897  0.3014 -1.9093
 5975TIP3   OH217888   0.446   6.354   5.092 -0.2182 -0.0217 -0.0522
 5975TIP3    H117889   0.400   6.305   5.024 -1.3949  0.1032  0.6302
 5975TIP3    H217890   0.377   6.392   5.146  0.6542 -0.9922  1.8522
 5976TIP3   OH217891   5.416   2.390   5.849  0.1443  0.6451  0.5237
 5976TIP3    H117892   5.429   2.483   5.867  0.8005  0.6060  0.2765
 5976TIP3    H217893   5.434   2.380   5.755 -1.1485  0.4766  0.2691
 5977TIP3   OH217894   1.937   5.962   5.087 -0.2521  0.3043 -0.1916
 5977TIP3    H117895   1.985   5.994   5.164  0.5466  0.7736 -0.8689
 5977TIP3    H217896   1.995   5.980   5.013 -0.5034 -1.1837 -0.7910
 5978TIP3   OH217897   2.741   6.108   5.099 -0.1001  0.8302  0.2939
 5978TIP3    H117898   2.767   6.017   5.087 -1.5674  0.6031 -1.5352
 5978TIP3    H217899   2.693   6.130   5.019  0.7122  3.3961  0.4350
 5979TIP3   OH217900   1.032   2.169   1.472 -0.2699 -0.0283  0.2374
 5979TIP3    H117901   0.956   2.163   1.414 -0.2563 -0.3184  0.2502
 5979TIP3    H217902   1.057   2.262   1.469  1.1126 -0.3949 -1.9860
 5980TIP3   OH217903   0.858   4.502   0.061  0.5712  0.2505  0.2870
 5980TIP3    H117904   0.862   4.504  -0.034 -1.3953 -2.4912  0.0575
 5980TIP3    H217905   0.950   4.502   0.089  1.1760  1.4036 -1.5420
 5981TIP3   OH217906   6.702   0.870   5.780 -0.3952 -0.1718 -0.7911
 5981TIP3    H117907   6.727   0.811   5.709  0.4397 -0.3567 -0.3541
 5981TIP3    H217908   6.666   0.813   5.847 -0.2178 -0.1171 -0.6474
 5982TIP3   OH217909   4.614   1.821   1.648 -0.2692 -0.5574  0.3414
 5982TIP3    H117910   4.672   1.765   1.700  2.3929  1.0253 -0.7559
 5982TIP3    H217911   4.641   1.910   1.670 -3.5191  0.3714  1.0614
 5983TIP3   OH217912   3.522   5.360   0.911 -0.1679  0.1921 -0.1247
 5983TIP3    H117913   3.568   5.360   0.827  0.5964  0.8939  0.2803
 5983TIP3    H217914   3.561   5.433   0.960 -0.3841 -0.3983  0.9597
 5984TIP3   OH217915   0.135   1.403   4.903  0.3043  0.1260 -0.4642
 5984TIP3    H117916   0.151   1.492   4.872  1.6114 -0.3606 -1.3112
 5984TIP3    H217917   0.216   1.378   4.948  0.0688 -0.7309 -0.4942
 5985TIP3   OH217918   6.150   3.021   2.911  0.1087  0.5671  0.1215
 5985TIP3    H117919   6.157   2.952   2.977  1.4922  0.0142 -0.5614
 5985TIP3    H217920   6.058   3.021   2.885  0.3675 -2.3064 -1.1546
 5986TIP3   OH217921   1.181   6.459   3.728 -0.0577  0.0444 -0.0171
 5986TIP3    H117922   1.111   6.501   3.778  1.2483  2.4564 -0.0506
 5986TIP3    H217923   1.233   6.412   3.793  1.0586  2.3363  0.8460
 5987TIP3   OH217924   1.084   6.578   0.176 -0.4896  0.3169 -0.2210
 5987TIP3    H117925   1.157   6.565   0.237  0.4143 -0.7202 -1.4482
 5987TIP3    H217926   1.126   6.578   0.089 -1.9386 -0.1273 -0.9450
 5988TIP3   OH217927   3.405   0.469   3.234 -0.6938  0.0032 -0.5050
 5988TIP3    H117928   3.378   0.451   3.144 -1.6134 -2.3564  0.1747
 5988TIP3    H217929   3.481   0.412   3.249 -0.2375  0.7387  0.0895
 5989TIP3   OH217930   6.866   4.115   1.930 -0.0420  0.4151 -0.0331
 5989TIP3    H117931   6.886   4.181   1.996 -0.4714  0.0408  0.4781
 5989TIP3    H217932   6.930   4.046   1.944  0.1578  0.5394 -0.3136
 5990TIP3   OH217933   6.241   4.446   0.316 -0.1897  0.0444 -0.2701
 5990TIP3    H117934   6.150   4.416   0.306  0.1080 -0.9397 -0.1247
 5990TIP3    H217935   6.237   4.539   0.295 -1.2519  0.0394 -0.1835
 5991TIP3   OH217936   3.400   3.368   5.001  0.1818  0.1972  0.5077
 5991TIP3    H117937   3.373   3.438   4.941  1.5263  0.1042 -0.2453
 5991TIP3    H217938   3.348   3.293   4.974 -0.4616  0.6018  0.5876
 5992TIP3   OH217939   2.876   3.694   4.020  0.1970  0.0231 -0.2297
 5992TIP3    H117940   2.832   3.779   4.024 -1.0399 -0.6059 -0.0893
 5992TIP3    H217941   2.869   3.659   4.109 -0.6884 -0.9002 -0.6487
 5993TIP3   OH217942   6.522   2.531   4.640  0.5128  0.2339 -0.6331
 5993TIP3    H117943   6.561   2.466   4.582 -0.0126 -0.0610 -0.6633
 5993TIP3    H217944   6.595   2.587   4.667  1.1247 -0.8885  0.0784
 5994TIP3   OH217945   4.329   2.884   5.842 -0.0860  0.0726  0.0273
 5994TIP3    H117946   4.294   2.957   5.791  0.3055  0.5487  0.4360
 5994TIP3    H217947   4.292   2.896   5.930 -2.0131 -1.6034 -0.4681
 5995TIP3   OH217948   2.638   0.097   5.291 -0.4494 -0.0945 -0.0199
 5995TIP3    H117949   2.567   0.060   5.239  0.7700 -0.2952 -1.6298
 5995TIP3    H217950   2.695   0.140   5.227 -0.6707  2.7590  1.5298
 5996TIP3   OH217951   7.059   1.627   2.689  0.1081 -0.5858 -0.0006
 5996TIP3    H117952   7.057   1.705   2.633  2.1780 -0.0233  0.6144
 5996TIP3    H217953   7.152   1.606   2.697 -0.3849 -2.9982  0.0742
 5997TIP3   OH217954   2.247   2.533   3.657  0.0860  0.5155  0.0924
 5997TIP3    H117955   2.326   2.479   3.664 -0.8046 -0.6759  1.9991
 5997TIP3    H217956   2.198   2.494   3.585  0.4022  0.0601  0.1140
 5998TIP3   OH217957   6.946   0.346   1.219  0.1724  0.2299  0.2079
 5998TIP3    H117958   6.950   0.374   1.310  0.0389 -0.1405  0.3279
 5998TIP3    H217959   7.003   0.408   1.172 -0.2144  0.7755  0.4512
 5999TIP3   OH217960   4.843   2.685   2.532  0.6491 -0.1459 -0.2377
 5999TIP3    H117961   4.865   2.768   2.573 -0.9603  1.2956 -2.0849
 5999TIP3    H217962   4.883   2.689   2.445  3.0760 -2.6586  0.5983
 6000TIP3   OH217963   6.613   2.415   3.886  0.2707  0.4393  0.9961
 6000TIP3    H117964   6.556   2.339   3.899 -1.1740  1.3411  0.2679
 6000TIP3    H217965   6.680   2.385   3.825  0.7062 -0.7135  2.0296
 6001TIP3   OH217966   0.525   2.654   4.351  0.4019 -0.2919  0.6281
 6001TIP3    H117967   0.575   2.590   4.301  1.3673 -0.0103  1.1956
 6001TIP3    H217968   0.452   2.604   4.388  0.8826 -0.9683  0.6878
 6002TIP3   OH217969   6.046   1.294   4.661  0.1157 -0.0578  0.1359
 6002TIP3    H117970   5.990   1.282   4.738 -1.1176  3.3239 -0.0577
 6002TIP3    H217971   5.989   1.271   4.587 -0.0456  0.4836  0.0845
 6003TIP3   OH217972   4.002   6.692   3.486  0.2569  0.0907 -0.4477
 6003TIP3    H117973   4.036   6.610   3.524 -1.4793  0.5906  2.4895
 6003TIP3    H217974   3.927   6.664   3.434 -0.6956 -0.2140  1.0236
 6004TIP3   OH217975   0.861   2.372   1.638  0.4659  0.1789 -0.6729
 6004TIP3    H117976   0.789   2.430   1.660  0.3654  0.2308 -1.1346
 6004TIP3    H217977   0.833   2.327   1.558  0.0849 -1.2954  0.2529
 6005TIP3   OH217978   3.239   4.962   4.734 -0.1047  0.0976 -0.7057
 6005TIP3    H117979   3.199   5.008   4.808 -1.4815  1.0634 -1.9908
 6005TIP3    H217980   3.326   4.937   4.765 -1.0358 -0.5419  1.6227
 6006TIP3   OH217981   1.380   5.643   3.473 -0.1710  0.2005  0.3807
 6006TIP3    H117982   1.408   5.556   3.442 -1.4571 -0.7228  1.6810
 6006TIP3    H217983   1.397   5.642   3.567 -0.2810  1.3545  0.4287
 6007TIP3   OH217984   5.805   6.679   2.451 -0.1839  0.4061 -0.4036
 6007TIP3    H117985   5.896   6.685   2.421  1.3455 -1.8142  3.1077
 6007TIP3    H217986   5.800   6.741   2.524 -1.7783  1.0590 -1.0282
 6008TIP3   OH217987   3.015   3.384   2.100  0.3292  0.3907 -0.3443
 6008TIP3    H117988   3.071   3.331   2.157  0.6056  0.8919 -0.1413
 6008TIP3    H217989   2.956   3.321   2.059 -1.5938  0.1974  2.3877
 6009TIP3   OH217990   1.773   3.677   4.326 -0.2245  0.6776 -0.3789
 6009TIP3    H117991   1.716   3.647   4.255  1.5503 -1.3416 -1.0473
 6009TIP3    H217992   1.852   3.707   4.282  0.4966  0.3690  0.6748
 6010TIP3   OH217993   0.154   2.143   3.365  0.7072  0.1841  0.1285
 6010TIP3    H117994   0.113   2.144   3.279  1.0308  1.0516 -0.0321
 6010TIP3    H217995   0.191   2.056   3.374 -0.2135 -0.2515 -0.1754
 6011TIP3   OH217996   2.514   2.027   1.062  0.1789 -0.9398 -0.3303
 6011TIP3    H117997   2.532   2.119   1.042 -1.3497 -0.8530 -1.4877
 6011TIP3    H217998   2.434   2.007   1.013 -0.6973 -2.3084  1.5547
 6012TIP3   OH217999   5.672   1.600   5.068 -0.3406  0.2826  0.2683
 6012TIP3    H118000   5.599   1.638   5.117 -0.3842 -0.3261  0.6830
 6012TIP3    H218001   5.749   1.622   5.119 -0.3068  0.2711  0.2228
 6013TIP3   OH218002   4.827   2.281   1.366 -0.0925 -0.4788  0.1488
 6013TIP3    H118003   4.815   2.358   1.421  1.9484  1.5494 -2.0336
 6013TIP3    H218004   4.742   2.237   1.367 -1.4306  1.9573  1.2645
 6014TIP3   OH218005   1.373   4.924   1.596 -0.5577  0.1627  0.7527
 6014TIP3    H118006   1.453   4.940   1.545 -0.9254 -1.1946 -0.3136
 6014TIP3    H218007   1.370   4.996   1.659  0.2734  1.5388 -0.7113
 6015TIP3   OH218008   6.216   1.757   2.222  0.7345  0.0662  0.2001
 6015TIP3    H118009   6.257   1.724   2.143  0.1018 -1.9554  0.6545
 6015TIP3    H218010   6.289   1.785   2.277  1.2855 -0.2544 -0.3584
 6016TIP3   OH218011   1.066   4.594   5.621  0.4560  0.1267  0.2293
 6016TIP3    H118012   1.018   4.637   5.692  1.4812  2.3151 -0.3058
 6016TIP3    H218013   1.142   4.555   5.663 -1.2184 -2.6517  0.9533
 6017TIP3   OH218014   1.717   6.277   3.288  0.0840 -0.3657 -0.1509
 6017TIP3    H118015   1.645   6.213   3.286  0.8521 -1.2297 -1.2703
 6017TIP3    H218016   1.770   6.255   3.212  0.4964  1.4848 -0.4365
 6018TIP3   OH218017   5.524   2.480   3.947 -0.6321 -0.5555 -0.5037
 6018TIP3    H118018   5.618   2.489   3.963 -0.7688  1.4502 -0.5389
 6018TIP3    H218019   5.488   2.567   3.966 -2.7432 -1.6975  1.0740
 6019TIP3   OH218020   4.376   6.038   0.875 -0.3291 -0.3217  0.0672
 6019TIP3    H118021   4.450   5.990   0.911 -0.0103 -0.1741 -0.3894
 6019TIP3    H218022   4.353   5.991   0.795 -1.3621 -0.9488  0.7101
 6020TIP3   OH218023   2.622   4.325   4.361 -0.6892 -0.1135  0.1348
 6020TIP3    H118024   2.644   4.335   4.453  0.6013  1.1888 -0.2799
 6020TIP3    H218025   2.616   4.414   4.327  1.2837 -0.5330 -1.5535
 6021TIP3   OH218026   0.122   1.655   0.101  0.3802  0.7377 -0.0969
 6021TIP3    H118027   0.054   1.693   0.045  0.4292 -0.4162 -0.9844
 6021TIP3    H218028   0.085   1.659   0.190  0.1064  2.1670 -0.2590
 6022TIP3   OH218029   5.594   6.358   4.334 -0.4706  0.3246 -0.0821
 6022TIP3    H118030   5.643   6.278   4.354 -2.1033 -0.5401  0.7214
 6022TIP3    H218031   5.619   6.420   4.403  0.8620  0.5616 -0.7527
 6023TIP3   OH218032   7.152   3.041   1.248  0.1239  0.0526 -0.7160
 6023TIP3    H118033   7.122   3.033   1.158  0.2801 -1.0367 -0.6858
 6023TIP3    H218034   7.119   2.962   1.291  1.8642 -0.5139 -0.3523
 6024TIP3   OH218035   5.149   5.223   1.094  1.0674 -0.5539  0.3407
 6024TIP3    H118036   5.057   5.224   1.071  1.3326  0.5990 -0.7630
 6024TIP3    H218037   5.152   5.256   1.184  0.3443 -1.5008  0.7240
 6025TIP3   OH218038   6.233   6.053   2.648  0.0593 -0.0400  0.0278
 6025TIP3    H118039   6.207   6.107   2.723  0.8794 -0.0808  0.3523
 6025TIP3    H218040   6.283   5.981   2.687 -1.4076 -1.3240 -0.3443
 6026TIP3   OH218041   1.463   0.539   5.594  0.4907  0.8611  0.0972
 6026TIP3    H118042   1.503   0.453   5.589  0.5255  0.8947 -0.2428
 6026TIP3    H218043   1.459   0.559   5.688  0.7271  0.6078  0.1612
 6027TIP3   OH218044   6.121   3.378   2.473  0.1634 -0.2999 -0.1710
 6027TIP3    H118045   6.143   3.370   2.381  0.0763  2.1492 -0.4640
 6027TIP3    H218046   6.195   3.337   2.519  2.2745  2.0227 -1.2777
 6028TIP3   OH218047   0.376   6.464   2.283  0.2095  0.2022  0.3551
 6028TIP3    H118048   0.424   6.391   2.324  0.4221  0.2764  0.2419
 6028TIP3    H218049   0.343   6.428   2.201  0.7653  0.3808  0.0460
 6029TIP3   OH218050   6.985   2.524   5.729  0.0626 -0.0187  0.5376
 6029TIP3    H118051   6.976   2.619   5.742 -0.5328 -0.0122  0.0867
 6029TIP3    H218052   6.958   2.486   5.813 -1.9204  0.1196  0.0185
 6030TIP3   OH218053   2.698   2.531   4.305 -0.1324 -0.1394  0.0179
 6030TIP3    H118054   2.665   2.600   4.362  0.0103 -0.7081  0.8131
 6030TIP3    H218055   2.630   2.464   4.308  1.5129 -1.8885  2.6839
 6031TIP3   OH218056   6.567   3.886   3.892 -0.1745  0.0600  0.0692
 6031TIP3    H118057   6.585   3.965   3.841  2.9666 -0.4461  0.1991
 6031TIP3    H218058   6.583   3.911   3.983 -0.5980 -0.3703  0.2718
 6032TIP3   OH218059   1.767   0.749   4.283 -0.4051 -0.6996 -0.1146
 6032TIP3    H118060   1.699   0.809   4.251 -0.0235 -0.8261 -1.2124
 6032TIP3    H218061   1.833   0.807   4.322  0.2408 -0.3060 -1.6866
 6033TIP3   OH218062   4.570   1.661   1.883 -0.4129  0.2457  0.5003
 6033TIP3    H118063   4.553   1.615   1.965 -0.0196 -0.9069 -0.0442
 6033TIP3    H218064   4.539   1.601   1.815  0.5431  0.5783 -0.2534
 6034TIP3   OH218065   1.853   1.230   3.233 -0.9283 -0.0927  0.1701
 6034TIP3    H118066   1.829   1.143   3.263  1.1881 -0.2198  1.7505
 6034TIP3    H218067   1.850   1.224   3.138 -0.4703 -2.0360  0.2297
 6035TIP3   OH218068   1.949   5.089   1.984 -0.1408  0.4556 -0.3369
 6035TIP3    H118069   2.035   5.119   1.955  0.8317  0.0197  1.9070
 6035TIP3    H218070   1.888   5.132   1.924  1.5725  1.3888 -1.5217
 6036TIP3   OH218071   2.157   3.962   2.701 -0.0301  0.0391  0.3761
 6036TIP3    H118072   2.199   4.045   2.675 -1.8305  1.1750  0.9469
 6036TIP3    H218073   2.166   3.906   2.623  0.5329  1.0273 -0.3037
 6037TIP3   OH218074   6.939   0.127   3.902  0.5692 -0.1262 -0.2947
 6037TIP3    H118075   6.989   0.046   3.905  1.1592  0.2582  1.3340
 6037TIP3    H218076   6.869   0.110   3.839  0.3203 -2.1090  0.4404
 6038TIP3   OH218077   0.116   2.373   3.078  0.6089  0.0292  0.2641
 6038TIP3    H118078   0.099   2.391   3.171  0.0025 -0.2792  0.2201
 6038TIP3    H218079   0.163   2.290   3.078  1.7026  0.6392  0.3603
 6039TIP3   OH218080   5.764   6.228   4.512  0.1683  0.3323  0.0685
 6039TIP3    H118081   5.843   6.270   4.546  0.1204 -0.4633  1.1881
 6039TIP3    H218082   5.753   6.150   4.566 -0.4970 -0.4163 -1.1053
 6040TIP3   OH218083   1.351   1.406   5.105 -0.3619 -0.1149 -0.1845
 6040TIP3    H118084   1.421   1.472   5.109 -0.3493 -0.1247 -0.2413
 6040TIP3    H218085   1.310   1.409   5.191  1.0097 -1.5360  0.5744
 6041TIP3   OH218086   3.955   1.548   4.754  0.0431 -0.0697  0.2172
 6041TIP3    H118087   3.972   1.642   4.747  1.4216 -0.3877 -1.4064
 6041TIP3    H218088   3.886   1.532   4.691  0.7581 -0.3395 -0.5105
 6042TIP3   OH218089   1.949   2.587   3.134 -0.1023 -0.1007 -0.3129
 6042TIP3    H118090   1.992   2.502   3.127 -1.1211 -1.0197  3.0596
 6042TIP3    H218091   1.859   2.571   3.105 -0.4958 -0.3977  1.0267
 6043TIP3   OH218092   1.370   4.129   5.202 -0.0275 -0.4434  0.2109
 6043TIP3    H118093   1.455   4.086   5.197  0.0436 -0.5112  1.7103
 6043TIP3    H218094   1.307   4.057   5.196  0.0224 -0.4487 -0.3091
 6044TIP3   OH218095   5.742   5.009   2.601 -0.0813 -0.2494  0.6161
 6044TIP3    H118096   5.655   5.045   2.586 -1.0534 -2.1036  1.4349
 6044TIP3    H218097   5.736   4.919   2.569  1.3713 -0.5625  1.1531
 6045TIP3   OH218098   0.292   0.211   4.361 -0.0009  0.1520  0.2181
 6045TIP3    H118099   0.205   0.172   4.373  0.0245  0.2400  0.6841
 6045TIP3    H218100   0.277   0.285   4.302  0.2020 -1.5529 -2.1609
 6046TIP3   OH218101   6.305   3.874   4.790 -0.6664 -0.3566 -0.6275
 6046TIP3    H118102   6.223   3.909   4.825 -0.8122 -0.4212 -0.9031
 6046TIP3    H218103   6.358   3.855   4.868 -1.0629 -0.6828 -0.4368
 6047TIP3   OH218104   2.061   5.890   3.360 -0.0146 -0.1973 -0.8404
 6047TIP3    H118105   2.116   5.945   3.417  1.1743 -0.9177 -1.2417
 6047TIP3    H218106   2.116   5.875   3.283 -1.6031  0.7698 -2.2166
 6048TIP3   OH218107   6.236   5.119   1.506 -0.6081 -0.7525 -0.0134
 6048TIP3    H118108   6.152   5.146   1.544 -0.4364  2.4070 -1.5161
 6048TIP3    H218109   6.214   5.096   1.416 -0.0197 -1.1079 -0.0673
 6049TIP3   OH218110   3.650   0.539   1.971  0.1007  0.2917  0.3245
 6049TIP3    H118111   3.567   0.493   1.981 -0.4960  1.3070  0.2313
 6049TIP3    H218112   3.627   0.619   1.924  1.0987  0.6896  0.4877
 6050TIP3   OH218113   0.923   6.425   0.579  0.2574  0.0444  0.4408
 6050TIP3    H118114   0.982   6.473   0.520 -1.9349 -0.3812 -2.3456
 6050TIP3    H218115   0.836   6.456   0.554 -0.8346 -0.2699  3.5145
 6051TIP3   OH218116   4.218   1.589   0.872  0.9783 -0.0796  0.0705
 6051TIP3    H118117   4.193   1.510   0.824  2.3551  0.0559 -0.9295
 6051TIP3    H218118   4.260   1.557   0.952  1.1669 -0.3596 -0.1399
 6052TIP3   OH218119   5.296   4.386   5.552 -0.0018  0.0610  0.0916
 6052TIP3    H118120   5.301   4.317   5.485  1.8436 -0.4481  0.7053
 6052TIP3    H218121   5.362   4.450   5.525 -0.0977  0.4549  0.7854
 6053TIP3   OH218122   2.793   1.936   5.035 -0.0623 -0.5869  0.1741
 6053TIP3    H118123   2.844   2.015   5.018 -1.6739  0.7177  1.0570
 6053TIP3    H218124   2.757   1.911   4.950  0.0538 -0.0769 -0.0260
 6054TIP3   OH218125   6.385   6.103   3.445  0.1487  0.2347 -0.4922
 6054TIP3    H118126   6.339   6.143   3.520  0.6538  1.9852 -1.0596
 6054TIP3    H218127   6.335   6.133   3.369 -0.4006 -1.5863 -0.8887
 6055TIP3   OH218128   3.119   1.223   1.918  0.0387  0.0059  0.3070
 6055TIP3    H118129   3.046   1.221   1.980  0.0774  0.1130  0.3570
 6055TIP3    H218130   3.104   1.149   1.860  0.7307 -0.9186  1.2756
 6056TIP3   OH218131   2.930   2.377   0.016 -0.7987  1.2157 -0.2662
 6056TIP3    H118132   2.840   2.384  -0.017 -1.6688  1.6500  2.0233
 6056TIP3    H218133   2.922   2.389   0.111  1.5268 -0.0938  0.1715
 6057TIP3   OH218134   3.274   6.762   4.521  0.3295 -0.1939 -0.6748
 6057TIP3    H118135   3.355   6.717   4.498  0.6811 -1.5090  2.5932
 6057TIP3    H218136   3.301   6.831   4.582 -0.8694  0.3576 -0.7248
 6058TIP3   OH218137   3.446   0.045   4.260  0.3062 -0.0316 -0.3894
 6058TIP3    H118138   3.411   0.083   4.179 -1.4954 -0.6394  0.0634
 6058TIP3    H218139   3.501  -0.027   4.230 -2.1831 -1.7671 -1.0964
 6059TIP3   OH218140   6.853   4.955   0.398 -0.2437  0.1271 -0.4937
 6059TIP3    H118141   6.923   4.999   0.446 -1.4866  1.3997  0.2092
 6059TIP3    H218142   6.794   5.025   0.371 -1.3031 -0.9223 -0.9989
 6060TIP3   OH218143   5.482   4.320   4.664  0.1452 -0.4425 -0.2294
 6060TIP3    H118144   5.462   4.342   4.573 -0.5415  0.5581  0.1450
 6060TIP3    H218145   5.447   4.232   4.676 -0.6943 -0.1798 -0.6542
 6061TIP3   OH218146   1.543   4.466   5.890 -0.8492 -0.4139 -0.1143
 6061TIP3    H118147   1.612   4.462   5.824  0.5456  0.0097  1.2652
 6061TIP3    H218148   1.564   4.543   5.942 -1.8855 -0.7662  0.8608
 6062TIP3   OH218149   5.088   3.369   4.340  0.0615 -0.3473  0.3036
 6062TIP3    H118150   5.108   3.451   4.385 -3.3633  0.7862  0.0397
 6062TIP3    H218151   5.093   3.302   4.407  0.0381  0.5275  1.1970
 6063TIP3   OH218152   2.704   4.304   5.533  0.1767  0.3911  0.1326
 6063TIP3    H118153   2.710   4.221   5.581  0.2396 -0.7301 -1.7099
 6063TIP3    H218154   2.721   4.371   5.599  2.6095 -1.1705  1.2463
 6064TIP3   OH218155   1.776   4.097   0.069  0.0690 -0.5881  0.8510
 6064TIP3    H118156   1.743   4.087   0.158 -0.5962  0.9591  0.8231
 6064TIP3    H218157   1.702   4.076   0.013  0.0582 -0.1986  0.7117
 6065TIP3   OH218158   0.293   6.133   2.851  0.2797 -0.4170  0.4399
 6065TIP3    H118159   0.343   6.165   2.926 -0.7706  0.8204  0.6430
 6065TIP3    H218160   0.298   6.203   2.787 -0.2179 -0.7677  0.0065
 6066TIP3   OH218161   3.030   4.303   1.916  0.4363  0.2126  0.5901
 6066TIP3    H118162   3.001   4.374   1.859 -2.5678 -0.4731  1.0990
 6066TIP3    H218163   3.087   4.345   1.980 -0.4537  1.9877  0.2762
 6067TIP3   OH218164   4.709   3.681   0.700 -0.0651 -0.2669  0.0386
 6067TIP3    H118165   4.760   3.628   0.762  1.9952  1.8790  0.3248
 6067TIP3    H218166   4.764   3.758   0.684 -1.2277  0.0159 -3.2825
 6068TIP3   OH218167   2.134   3.921   1.685 -0.7365  0.5757  0.0359
 6068TIP3    H118168   2.141   3.842   1.631  0.3743  1.2292 -0.8033
 6068TIP3    H218169   2.128   3.993   1.622 -1.6245  1.1829  0.7898
 6069TIP3   OH218170   4.357   3.734   2.760 -0.6345 -0.0466 -0.3319
 6069TIP3    H118171   4.320   3.725   2.848 -0.0850 -0.0984 -0.1020
 6069TIP3    H218172   4.375   3.644   2.733  2.2562  0.0477  0.8437
 6070TIP3   OH218173   2.055   4.800   3.938 -0.8719 -0.6087  0.9125
 6070TIP3    H118174   2.016   4.810   3.851 -0.8212 -0.5359  0.8970
 6070TIP3    H218175   2.098   4.715   3.936  2.0189  0.7249 -0.3221
 6071TIP3   OH218176   0.709   0.220   1.199  0.1987  0.6622  0.3998
 6071TIP3    H118177   0.664   0.301   1.221  0.2493  0.7605  0.1368
 6071TIP3    H218178   0.693   0.163   1.274 -1.2081  0.3373 -0.1347
 6072TIP3   OH218179   2.372   3.429   3.384  0.6806 -0.3068  0.5616
 6072TIP3    H118180   2.436   3.457   3.319  1.6619 -1.6555  0.8938
 6072TIP3    H218181   2.314   3.370   3.337  1.1368 -0.9499  0.7844
 6073TIP3   OH218182   6.659   1.989   5.211  0.3956  0.1113  0.1297
 6073TIP3    H118183   6.671   2.084   5.209 -0.5369  0.3486  2.6596
 6073TIP3    H218184   6.721   1.958   5.277 -1.3018 -0.6128  1.4610
 6074TIP3   OH218185   3.719   1.651   1.130 -0.2299 -0.4717 -0.0432
 6074TIP3    H118186   3.690   1.743   1.130 -0.0015 -0.3830 -1.0759
 6074TIP3    H218187   3.803   1.653   1.176 -0.3965 -0.2229  0.2568
 6075TIP3   OH218188   2.597   1.816   3.875  0.6447 -0.3793  0.5616
 6075TIP3    H118189   2.683   1.857   3.865  1.0688 -1.4065 -0.1672
 6075TIP3    H218190   2.588   1.759   3.798 -0.9171  0.1010  0.3393
 6076TIP3   OH218191   2.187   5.208   4.932  0.0913  0.1348  0.4029
 6076TIP3    H118192   2.174   5.113   4.926 -0.3610  0.2616 -1.1311
 6076TIP3    H218193   2.277   5.222   4.901 -0.9497  0.4452 -2.8772
 6077TIP3   OH218194   3.261   3.858   0.852 -0.1881 -0.1090 -0.1214
 6077TIP3    H118195   3.208   3.897   0.922  1.3186  2.4259 -0.2720
 6077TIP3    H218196   3.197   3.831   0.787 -1.4113  1.2681  0.4529
 6078TIP3   OH218197   7.102   3.558   0.029 -0.2653  0.2634 -0.6360
 6078TIP3    H118198   7.196   3.572   0.045 -0.1793 -0.1000 -0.7981
 6078TIP3    H218199   7.065   3.645   0.027 -0.4269  0.3841  2.2952
 6079TIP3   OH218200   1.943   0.708   5.260 -0.1783 -0.6137  0.0404
 6079TIP3    H118201   1.904   0.751   5.185 -0.5498  0.3306  0.7522
 6079TIP3    H218202   1.982   0.779   5.311 -1.0165 -1.0745  1.3748
 6080TIP3   OH218203   6.318   3.953   2.877 -0.0104  0.8402  0.1975
 6080TIP3    H118204   6.366   3.925   2.954 -0.5259 -0.7436 -0.0127
 6080TIP3    H218205   6.337   4.046   2.868  0.6881  0.8639  1.7622
 6081TIP3   OH218206   5.167   4.063   2.146 -0.5672  0.6448 -0.0968
 6081TIP3    H118207   5.104   4.104   2.087 -0.5333  0.6572 -0.1240
 6081TIP3    H218208   5.156   4.110   2.229  0.3688  1.5924 -0.4756
 6082TIP3   OH218209   6.077   0.482   5.234 -0.0868  0.0340 -0.3590
 6082TIP3    H118210   6.141   0.418   5.205  1.6351  1.4971 -0.0007
 6082TIP3    H218211   6.072   0.471   5.329 -1.6070 -1.1044 -0.5233
 6083TIP3   OH218212   6.076   4.190   0.080  0.2930 -0.4158  0.0826
 6083TIP3    H118213   6.052   4.264   0.135 -1.6665 -0.6860 -0.3252
 6083TIP3    H218214   6.026   4.116   0.115 -0.4032 -0.7683 -1.5491
 6084TIP3   OH218215   4.151   6.232   2.920 -0.4827 -0.0187  0.4496
 6084TIP3    H118216   4.107   6.179   2.853 -0.6288 -0.7685  1.1220
 6084TIP3    H218217   4.241   6.237   2.890 -1.0122  1.7081 -1.0534
 6085TIP3   OH218218   4.143   2.647   0.121  0.5287  0.2590  0.4001
 6085TIP3    H118219   4.197   2.583   0.168  0.5636 -0.6844 -0.8724
 6085TIP3    H218220   4.202   2.720   0.102  0.6716  0.3741  1.2571
 6086TIP3   OH218221   1.702   3.870   5.191 -0.8207 -0.1292 -0.7351
 6086TIP3    H118222   1.611   3.873   5.162 -0.3482  0.9223 -2.2090
 6086TIP3    H218223   1.696   3.857   5.286 -2.6121  2.8238 -0.2937
 6087TIP3   OH218224   0.133   0.957   0.958 -0.6207 -0.1316 -0.5720
 6087TIP3    H118225   0.181   0.937   0.878  0.6142 -1.2433  0.4091
 6087TIP3    H218226   0.183   1.026   1.001 -0.0633 -1.0213  0.2619
 6088TIP3   OH218227   5.773   4.321   2.428  0.4446  0.2495 -0.0672
 6088TIP3    H118228   5.798   4.263   2.357 -3.5929 -0.5919 -1.0799
 6088TIP3    H218229   5.742   4.262   2.497  0.7490  1.1240  0.8394
 6089TIP3   OH218230   1.500   1.764   1.414 -0.5852  0.1305 -0.5349
 6089TIP3    H118231   1.425   1.786   1.470 -0.5753 -0.7104 -0.1680
 6089TIP3    H218232   1.542   1.690   1.458  0.7086  0.8430 -0.5269
 6090TIP3   OH218233   3.167   0.883   0.605 -0.4003 -0.2004 -0.4891
 6090TIP3    H118234   3.153   0.965   0.557 -1.3909 -0.0729 -0.0093
 6090TIP3    H218235   3.081   0.842   0.608 -0.5136  0.0878  1.6809
 6091TIP3   OH218236   0.846   3.688   1.326 -0.3988  0.1914  0.6197
 6091TIP3    H118237   0.757   3.654   1.339 -1.4199  2.5371  0.2852
 6091TIP3    H218238   0.845   3.719   1.235  1.5101 -1.6561 -0.1176
 6092TIP3   OH218239   4.367   6.260   3.435  0.2337  0.8453  0.3437
 6092TIP3    H118240   4.362   6.338   3.380  0.4748  1.0527  0.6088
 6092TIP3    H218241   4.378   6.187   3.373  0.8996  1.1148  0.1288
 6093TIP3   OH218242   3.736   0.174   5.403 -0.7595  0.1689  0.2625
 6093TIP3    H118243   3.787   0.130   5.335 -0.5844  2.1624 -0.9866
 6093TIP3    H218244   3.799   0.191   5.473  0.6849  3.3989 -1.6324
 6094TIP3   OH218245   3.595   6.024   4.566 -0.0344  0.0835 -0.0310
 6094TIP3    H118246   3.607   5.938   4.525 -0.4802 -0.0836  0.1819
 6094TIP3    H218247   3.515   6.015   4.618  0.9920  0.0029  1.6096
 6095TIP3   OH218248   3.250   0.533   0.359  0.2681  0.4531  0.3895
 6095TIP3    H118249   3.285   0.622   0.367 -0.8269  0.8352  1.2156
 6095TIP3    H218250   3.157   0.546   0.339  0.3164 -0.5274 -0.5655
 6096TIP3   OH218251   3.214   3.101   1.068  0.0929  0.2424 -0.4178
 6096TIP3    H118252   3.218   3.185   1.113 -0.1347  1.0583 -1.8769
 6096TIP3    H218253   3.287   3.051   1.105 -0.7963  0.4202  1.6882
 6097TIP3   OH218254   6.101   0.172   3.128 -0.0901  0.7908 -0.6429
 6097TIP3    H118255   6.035   0.199   3.064  0.2813  1.1872 -0.8618
 6097TIP3    H218256   6.063   0.095   3.170 -1.3952  1.9289  0.3581
 6098TIP3   OH218257   6.099   2.625   0.129  0.0596 -0.0393 -0.7726
 6098TIP3    H118258   6.115   2.654   0.039 -0.4790  2.4270 -0.1386
 6098TIP3    H218259   6.006   2.645   0.145 -0.3235 -2.0419 -0.1875
 6099TIP3   OH218260   3.609   2.853   4.518  0.9312  0.0967  0.5480
 6099TIP3    H118261   3.549   2.782   4.540  1.5982 -0.4094  0.7696
 6099TIP3    H218262   3.578   2.928   4.568 -0.0378  0.0892 -0.0156
 6100TIP3   OH218263   2.030   6.658   2.479  0.0199  0.2236 -0.2150
 6100TIP3    H118264   2.125   6.657   2.483 -0.0002 -1.6998  0.9780
 6100TIP3    H218265   2.002   6.676   2.569 -0.7616  0.5882 -0.5138
 6101TIP3   OH218266   6.886   2.815   2.907  0.0625  0.4576 -0.1655
 6101TIP3    H118267   6.904   2.721   2.899 -1.9221  0.0799 -0.8902
 6101TIP3    H218268   6.807   2.819   2.961 -0.2195  1.6753 -0.6488
 6102TIP3   OH218269   0.925   5.240   0.433  0.2722 -0.4947  0.3905
 6102TIP3    H118270   0.979   5.238   0.511  1.1348 -0.7319 -0.1951
 6102TIP3    H218271   0.862   5.310   0.449  0.2495 -0.7295  1.4064
 6103TIP3   OH218272   4.623   0.188   5.282  0.3279 -0.2544  0.0895
 6103TIP3    H118273   4.631   0.250   5.355 -0.8479 -2.3731  2.1268
 6103TIP3    H218274   4.536   0.205   5.246  0.1448 -0.4830  0.4206
 6104TIP3   OH218275   6.393   2.653   0.163 -0.1908  1.2641  0.9154
 6104TIP3    H118276   6.382   2.600   0.241  1.4517 -3.8213 -1.8692
 6104TIP3    H218277   6.308   2.648   0.119 -0.9395  3.6583  1.8980
 6105TIP3   OH218278   0.654   2.441   5.798 -0.0660  0.0644  0.1139
 6105TIP3    H118279   0.559   2.430   5.809 -0.3795  0.1389 -2.1355
 6105TIP3    H218280   0.688   2.352   5.796  0.0264  0.0402  1.4111
 6106TIP3   OH218281   6.988   4.450   4.233  0.7784  0.0009 -0.3562
 6106TIP3    H118282   6.961   4.541   4.237  1.2802  0.1144  1.6808
 6106TIP3    H218283   7.081   4.451   4.257  0.3644 -1.1579  1.5497
 6107TIP3   OH218284   1.219   1.230   3.401 -0.0819 -0.9480  0.7571
 6107TIP3    H118285   1.177   1.207   3.485 -0.2944 -1.0130  0.6339
 6107TIP3    H218286   1.260   1.315   3.417 -1.2495 -0.3229  0.5415
 6108TIP3   OH218287   1.999   4.065   4.532  0.3840 -0.2495  0.3147
 6108TIP3    H118288   1.957   4.150   4.544  3.3921  1.3215  0.9118
 6108TIP3    H218289   2.009   4.031   4.621 -1.5488 -1.6878  0.0218
 6109TIP3   OH218290   0.183   5.467   3.787 -0.2064 -0.6707 -0.2583
 6109TIP3    H118291   0.096   5.438   3.760 -0.0166  0.2711 -2.0386
 6109TIP3    H218292   0.176   5.562   3.796  0.4336 -0.6756  0.3991
 6110TIP3   OH218293   3.943   3.026   3.596 -0.1280  0.1929  0.3468
 6110TIP3    H118294   3.864   2.994   3.552 -0.0252 -0.8749  0.9248
 6110TIP3    H218295   3.992   3.070   3.526 -1.3035  1.0522  0.0182
 6111TIP3   OH218296   5.801   5.190   3.623  0.2074 -0.4292  0.3113
 6111TIP3    H118297   5.712   5.169   3.649 -0.2788 -0.5468 -1.3716
 6111TIP3    H218298   5.821   5.272   3.668 -1.2139  0.2708 -0.2773
 6112TIP3   OH218299   4.251   3.787   5.490  0.2495  0.3730 -0.4138
 6112TIP3    H118300   4.252   3.819   5.580  3.2987  0.4525 -0.3729
 6112TIP3    H218301   4.271   3.694   5.498  0.8932  0.4553 -0.9983
 6113TIP3   OH218302   5.921   6.811   4.420  0.4102  0.2529  0.4899
 6113TIP3    H118303   5.837   6.785   4.457 -0.0879  1.2236  0.0891
 6113TIP3    H218304   5.953   6.733   4.375 -0.4600 -0.0135  0.3190
 6114TIP3   OH218305   5.876   6.685   2.156 -0.4746  0.5606 -0.7522
 6114TIP3    H118306   5.952   6.732   2.191 -0.7834  0.5245 -0.0168
 6114TIP3    H218307   5.898   6.592   2.165 -0.4580  0.5515 -0.8808
 6115TIP3   OH218308   5.549   0.377   3.655 -0.0322 -0.6143 -0.1881
 6115TIP3    H118309   5.460   0.411   3.654  0.4329  0.7291  1.1190
 6115TIP3    H218310   5.568   0.361   3.747  1.5143  0.3462 -0.3132
 6116TIP3   OH218311   1.030   1.904   2.127 -0.0697  0.6208  0.1745
 6116TIP3    H118312   1.042   1.867   2.214  0.1870  1.4828  0.5165
 6116TIP3    H218313   0.970   1.843   2.083  0.4607 -0.2639  0.6566
 6117TIP3   OH218314   1.078   1.427   5.289 -0.3433  0.2094  0.1385
 6117TIP3    H118315   0.989   1.458   5.306 -0.2919  1.2992 -1.4326
 6117TIP3    H218316   1.072   1.332   5.297 -0.8396  0.3880  3.5626
 6118TIP3   OH218317   2.035   4.494   5.465  0.7269 -0.0824 -0.7607
 6118TIP3    H118318   2.086   4.534   5.394  0.6193 -0.0639 -0.8272
 6118TIP3    H218319   2.100   4.443   5.514  0.6545 -0.8041 -1.3795
 6119TIP3   OH218320   0.994   0.906   5.754 -0.0268  0.0712 -0.0082
 6119TIP3    H118321   0.941   0.950   5.821 -2.0483 -0.6554 -1.0465
 6119TIP3    H218322   0.939   0.835   5.722  1.5462 -0.6539 -1.2827
 6120TIP3   OH218323   2.737   5.853   1.029  0.4083 -0.0827 -0.5562
 6120TIP3    H118324   2.767   5.764   1.046 -0.7333 -0.4573 -0.3991
 6120TIP3    H218325   2.769   5.903   1.105  0.8242 -0.4075 -0.5105
 6121TIP3   OH218326   1.924   1.840   2.860 -0.2169 -0.0752  0.2174
 6121TIP3    H118327   1.887   1.880   2.938 -0.5156 -2.3539  1.3194
 6121TIP3    H218328   1.994   1.783   2.893  1.8244  1.2843 -1.4884
 6122TIP3   OH218329   3.285   5.314   3.073  0.1871 -0.6063 -0.4626
 6122TIP3    H118330   3.336   5.258   3.132  0.1776 -0.8023 -0.6405
 6122TIP3    H218331   3.193   5.293   3.094  0.1665 -1.9594 -1.7429
 6123TIP3   OH218332   0.796   0.141   5.330  0.3667  0.3749 -0.3307
 6123TIP3    H118333   0.815   0.235   5.338 -0.8663  0.5006  1.5888
 6123TIP3    H218334   0.713   0.129   5.374  1.7849 -2.0591  1.9757
 6124TIP3   OH218335   3.800   0.961   1.227  0.2586 -0.3643  0.5308
 6124TIP3    H118336   3.705   0.968   1.240 -0.0253 -0.3705 -1.3250
 6124TIP3    H218337   3.837   1.014   1.298 -1.2293  1.8545 -0.2360
 6125TIP3   OH218338   2.335   4.429   0.802  0.1430 -0.2649 -0.0576
 6125TIP3    H118339   2.241   4.421   0.816  0.0069  0.1662 -0.6583
 6125TIP3    H218340   2.343   4.447   0.708  0.8929 -1.5064 -0.2555
 6126TIP3   OH218341   6.278   4.677   2.352  0.4078  0.6441  0.1702
 6126TIP3    H118342   6.211   4.628   2.304  0.5743  0.1952  0.3907
 6126TIP3    H218343   6.250   4.671   2.443  1.1159 -0.1529  0.3499
 6127TIP3   OH218344   1.825   5.710   5.715  0.0973 -0.0594  0.6241
 6127TIP3    H118345   1.825   5.641   5.649  0.9990 -0.3988  0.9594
 6127TIP3    H218346   1.767   5.676   5.784 -0.9270  0.3426 -0.0226
 6128TIP3   OH218347   6.351   2.377   2.645 -0.0213 -0.5845  0.1616
 6128TIP3    H118348   6.322   2.462   2.611  0.5614 -0.7387 -0.7568
 6128TIP3    H218349   6.380   2.329   2.568  0.2589 -1.3816  0.7520
 6129TIP3   OH218350   6.088   5.393   4.827 -0.7018  0.4275 -0.3637
 6129TIP3    H118351   6.105   5.301   4.804 -0.4642  0.6805 -1.2505
 6129TIP3    H218352   6.095   5.440   4.743  2.9178  1.8090  0.5276
 6130TIP3   OH218353   5.104   3.365   1.911  0.1322  0.0604  0.7994
 6130TIP3    H118354   5.026   3.383   1.962  0.5060 -0.1980  1.4724
 6130TIP3    H218355   5.168   3.429   1.941  0.4402 -0.2695  0.8491
 6131TIP3   OH218356   2.384   1.873   0.488 -0.5290 -0.4152  0.7034
 6131TIP3    H118357   2.335   1.874   0.570 -0.8029  1.4314  0.5619
 6131TIP3    H218358   2.375   1.962   0.454  1.8721 -0.3567  0.0440
 6132TIP3   OH218359   1.500   2.954   1.863  0.9623 -0.2142  0.0868
 6132TIP3    H118360   1.442   3.029   1.870 -0.7651 -1.5443  0.8026
 6132TIP3    H218361   1.588   2.992   1.863  0.1494  1.9392 -2.0425
 6133TIP3   OH218362   1.015   3.289   0.708 -0.0008 -0.2673 -0.5807
 6133TIP3    H118363   1.030   3.198   0.734  1.5345 -0.0618 -0.6491
 6133TIP3    H218364   0.920   3.302   0.718 -0.4044 -2.1433 -1.4855
 6134TIP3   OH218365   4.247   2.405   4.522 -0.5792  0.1473  0.4730
 6134TIP3    H118366   4.316   2.460   4.559 -0.0705 -0.1504 -0.0112
 6134TIP3    H218367   4.237   2.437   4.433  1.2596 -1.8825 -0.5717
 6135TIP3   OH218368   2.502   2.742   2.771 -0.5958  0.1183 -0.3532
 6135TIP3    H118369   2.501   2.716   2.863 -0.7787  1.8494  0.1725
 6135TIP3    H218370   2.410   2.757   2.749 -0.4569  1.0049 -0.3936
 6136TIP3   OH218371   6.072   3.775   5.737 -0.1285  0.0598 -0.5938
 6136TIP3    H118372   6.057   3.861   5.700 -0.3432  0.3525  0.1541
 6136TIP3    H218373   6.120   3.727   5.670 -0.8193  0.4543 -1.3878
 6137TIP3   OH218374   1.462   4.919   3.790  0.0906 -0.5902  0.8870
 6137TIP3    H118375   1.500   4.893   3.874 -0.7779  0.1083  1.4967
 6137TIP3    H218376   1.510   4.998   3.765  0.0330 -0.5395  0.9390
 6138TIP3   OH218377   4.529   6.078   2.595 -0.1285  0.0551 -0.7025
 6138TIP3    H118378   4.563   5.999   2.638  0.1773  0.1666 -0.7342
 6138TIP3    H218379   4.563   6.073   2.506  2.5484  1.7591  0.1022
 6139TIP3   OH218380   1.703   5.350   0.785 -0.2700  0.2425  0.3388
 6139TIP3    H118381   1.674   5.267   0.749 -0.1501  1.0103 -1.6418
 6139TIP3    H218382   1.623   5.391   0.819 -0.4083 -0.4127  0.8452
 6140TIP3   OH218383   0.863   3.072   5.026 -0.0624  0.3341  0.0362
 6140TIP3    H118384   0.921   3.147   5.007  1.0638  0.1871  2.5594
 6140TIP3    H218385   0.801   3.072   4.953  0.4449  3.1742 -0.5358
 6141TIP3   OH218386   6.180   1.203   3.809  0.0827 -0.1633 -0.0216
 6141TIP3    H118387   6.209   1.257   3.882 -0.0500 -0.6565  0.4028
 6141TIP3    H218388   6.106   1.250   3.771 -0.8152 -0.6192  1.0996
 6142TIP3   OH218389   0.795   6.739   3.440 -0.1772 -0.1793  0.3591
 6142TIP3    H118390   0.750   6.751   3.524 -2.2264 -0.1719 -0.7042
 6142TIP3    H218391   0.736   6.686   3.388  0.8503  0.2119 -1.2629
 6143TIP3   OH218392   5.301   1.887   2.932  0.6350  0.2802  0.4808
 6143TIP3    H118393   5.261   1.814   2.980 -0.5862  0.5681 -0.0641
 6143TIP3    H218394   5.295   1.961   2.992 -0.9336  0.6511 -0.0794
 6144TIP3   OH218395   5.988   3.642   1.771 -0.0818 -0.6760 -0.2351
 6144TIP3    H118396   6.081   3.664   1.774 -0.2767  0.6358 -2.1504
 6144TIP3    H218397   5.987   3.547   1.767  1.1583 -0.7338  0.2382
 6145TIP3   OH218398   2.871   6.430   4.860 -0.3118 -0.1347  0.0905
 6145TIP3    H118399   2.940   6.485   4.898 -0.6966 -1.5762  3.1368
 6145TIP3    H218400   2.918   6.365   4.808  0.3435  1.0090 -0.7949
 6146TIP3   OH218401   1.537   1.555   1.761 -0.5739  0.2728  0.2307
 6146TIP3    H118402   1.504   1.638   1.796 -0.6334  1.0157 -1.4505
 6146TIP3    H218403   1.572   1.579   1.675 -0.2210 -1.3928 -0.1126
 6147TIP3   OH218404   5.890   6.171   2.354 -0.5225 -0.4889  0.4975
 6147TIP3    H118405   5.948   6.096   2.348  0.0571 -0.1519  1.4606
 6147TIP3    H218406   5.918   6.216   2.434  0.3294  1.7189 -0.9487
 6148TIP3   OH218407   6.356   4.471   4.421  0.7283  0.3602  1.0143
 6148TIP3    H118408   6.430   4.518   4.383  1.8084  0.3076  2.9294
 6148TIP3    H218409   6.396   4.399   4.470 -0.7489 -1.0520  0.2618
 6149TIP3   OH218410   3.543   0.720   3.771 -0.3116 -0.4148 -0.1831
 6149TIP3    H118411   3.511   0.810   3.772 -1.4950 -0.8170  1.2393
 6149TIP3    H218412   3.506   0.682   3.691 -0.8726  0.0045 -0.1282
 6150TIP3   OH218413   0.413   4.099   3.229 -0.5100 -0.0747 -0.7056
 6150TIP3    H118414   0.345   4.078   3.293 -0.3552 -0.1223 -0.5553
 6150TIP3    H218415   0.395   4.042   3.155 -0.9101  0.2411 -0.8539
 6151TIP3   OH218416   1.925   6.281   4.381  0.6063 -0.1849 -0.6758
 6151TIP3    H118417   1.969   6.306   4.463  1.1926 -1.8547 -0.4515
 6151TIP3    H218418   1.861   6.350   4.367 -0.5520 -0.5835  1.9876
 6152TIP3   OH218419   6.519   1.436   1.735 -0.3309 -0.2405  0.7792
 6152TIP3    H118420   6.478   1.512   1.695  0.7220 -0.1394 -0.1673
 6152TIP3    H218421   6.518   1.455   1.829 -1.2542  0.3309  0.6624
 6153TIP3   OH218422   5.589   1.910   1.742  0.4791  0.8932 -0.3215
 6153TIP3    H118423   5.648   1.932   1.815 -1.4342 -0.6084  1.8449
 6153TIP3    H218424   5.522   1.979   1.746 -1.3226 -0.8132  1.4987
 6154TIP3   OH218425   4.616   4.252   5.166  0.5252 -0.4192 -0.9308
 6154TIP3    H118426   4.616   4.344   5.191 -2.1298 -0.1433 -1.6073
 6154TIP3    H218427   4.664   4.249   5.083  0.8306  0.3201 -0.7830
 6155TIP3   OH218428   6.976   5.095   3.650 -0.3276 -0.3509 -0.8441
 6155TIP3    H118429   6.913   5.106   3.721  0.4611  1.3719 -0.3493
 6155TIP3    H218430   7.056   5.066   3.693 -0.0498  0.0188 -1.0978
 6156TIP3   OH218431   4.564   2.467   5.816  0.0888 -0.0791  0.2293
 6156TIP3    H118432   4.541   2.385   5.772 -0.7339  0.3900 -0.2344
 6156TIP3    H218433   4.643   2.446   5.866  0.1625 -1.0244 -0.2647
 6157TIP3   OH218434   1.956   4.349   1.125  0.2776 -0.0035 -0.2221
 6157TIP3    H118435   2.019   4.421   1.123 -0.1234  0.3421 -1.0472
 6157TIP3    H218436   1.921   4.345   1.036 -0.5252 -0.4908  0.0986
 6158TIP3   OH218437   6.619   2.862   0.849 -0.3941 -0.3013 -0.5163
 6158TIP3    H118438   6.615   2.920   0.772  0.4732  0.1410 -0.2463
 6158TIP3    H218439   6.709   2.829   0.848 -0.8133 -1.4764 -0.5320
 6159TIP3   OH218440   6.350   4.851   2.778  1.1429  0.0260 -0.1068
 6159TIP3    H118441   6.281   4.844   2.844 -0.7320 -0.7099 -2.0534
 6159TIP3    H218442   6.427   4.811   2.819  0.8712  2.0217  2.6162
 6160TIP3   OH218443   4.122   0.262   4.832  0.0785  0.0463 -1.2360
 6160TIP3    H118444   4.162   0.182   4.867  0.4840 -0.0622 -1.9256
 6160TIP3    H218445   4.081   0.303   4.907 -1.2691 -1.4748 -1.0799
 6161TIP3   OH218446   3.570   4.907   2.280  0.0037  0.3456 -0.1215
 6161TIP3    H118447   3.606   4.839   2.337  2.2114 -0.1103 -1.9073
 6161TIP3    H218448   3.591   4.989   2.323  0.0102 -0.0192  0.5826
 6162TIP3   OH218449   0.343   1.142   0.584  0.2267 -0.1484  0.0105
 6162TIP3    H118450   0.253   1.173   0.571  0.1424 -0.3811  0.0491
 6162TIP3    H218451   0.386   1.156   0.499 -0.5782 -2.5586 -0.8504
 6163TIP3   OH218452   0.347   3.036   5.817  0.0810  0.2606  0.0111
 6163TIP3    H118453   0.362   3.122   5.856  2.5525 -0.3729  0.6564
 6163TIP3    H218454   0.326   2.980   5.892  0.2556 -0.0410 -0.1642
 6164TIP3   OH218455   1.719   1.238   4.769  0.5771  0.1743  0.1148
 6164TIP3    H118456   1.624   1.245   4.775  0.2636 -2.9612  0.7062
 6164TIP3    H218457   1.738   1.247   4.675 -0.1672  1.5493  0.0714
 6165TIP3   OH218458   0.120   1.868   4.180  0.4402  0.0766 -0.1231
 6165TIP3    H118459   0.110   1.776   4.158 -0.1633 -0.1826  1.1610
 6165TIP3    H218460   0.119   1.913   4.095 -1.0122 -0.9342 -0.6841
 6166TIP3   OH218461   1.513   5.300   0.388 -0.3876  0.2108 -0.0222
 6166TIP3    H118462   1.446   5.365   0.409  0.0472  0.6786 -0.0767
 6166TIP3    H218463   1.526   5.251   0.469 -1.3832 -0.4278 -0.2312
 6167TIP3   OH218464   0.216   2.521   1.287 -0.8513 -0.0453  0.1262
 6167TIP3    H118465   0.223   2.494   1.196  2.2290  1.6288 -0.2775
 6167TIP3    H218466   0.243   2.445   1.337 -0.0972 -0.2220 -0.5297
 6168TIP3   OH218467   7.246   4.304   0.404 -0.1782  0.0147 -0.0164
 6168TIP3    H118468   7.204   4.315   0.490 -2.3311  3.0362 -1.2644
 6168TIP3    H218469   7.174   4.283   0.345  0.9000  0.2437 -1.4556
 6169TIP3   OH218470   0.267   2.023   1.456  0.6274 -0.4580 -0.3771
 6169TIP3    H118471   0.253   1.990   1.367 -0.5757 -0.5082 -0.1863
 6169TIP3    H218472   0.339   1.970   1.490 -0.3295 -1.9424 -0.5708
 6170TIP3   OH218473   2.069   1.713   3.061 -0.2729 -0.0490 -0.0459
 6170TIP3    H118474   2.015   1.765   3.120  1.7045  3.4269 -0.9977
 6170TIP3    H218475   2.157   1.751   3.069  1.2900 -3.0734 -1.1833
 6171TIP3   OH218476   4.415   6.021   4.780 -0.0975  0.0012 -0.3862
 6171TIP3    H118477   4.344   6.078   4.809  0.5356  0.7161 -0.2352
 6171TIP3    H218478   4.425   6.041   4.687 -1.4031 -1.5222 -0.9090
 6172TIP3   OH218479   4.415   3.368   3.186 -0.1633 -0.8016 -0.2170
 6172TIP3    H118480   4.494   3.386   3.136  0.1076  0.2596  0.5574
 6172TIP3    H218481   4.355   3.328   3.123  0.7610 -1.0375 -0.9602
 6173TIP3   OH218482   4.662   1.359   5.831  0.1286 -0.3351  0.4056
 6173TIP3    H118483   4.728   1.303   5.872  1.4733  1.0228  0.1465
 6173TIP3    H218484   4.610   1.392   5.904  0.7165 -0.1786  0.7554
 6174TIP3   OH218485   3.111   1.640   5.486 -0.3700 -0.0836  0.0515
 6174TIP3    H118486   3.029   1.690   5.483 -0.3894 -0.1473 -0.6393
 6174TIP3    H218487   3.108   1.594   5.570 -1.2278 -0.3869 -0.1326
 6175TIP3   OH218488   3.260   0.675   3.211  0.5723  0.0593  0.3374
 6175TIP3    H118489   3.343   0.629   3.203  0.0983 -0.6754 -0.5360
 6175TIP3    H218490   3.232   0.660   3.301  1.3370  0.2297  0.6045
 6176TIP3   OH218491   2.696   6.582   5.007 -0.0311 -0.1085 -0.0031
 6176TIP3    H118492   2.762   6.524   4.968  1.5347  1.6057 -0.0100
 6176TIP3    H218493   2.698   6.560   5.100  1.2598  0.5712  0.1462
 6177TIP3   OH218494   0.236   6.586   2.848  0.0469 -0.0096 -0.1805
 6177TIP3    H118495   0.252   6.493   2.833 -0.7588 -0.0002 -1.1555
 6177TIP3    H218496   0.163   6.608   2.790 -1.2463  0.7308  1.6345
 6178TIP3   OH218497   1.666   2.215   3.102  0.5141 -0.3064 -0.3623
 6178TIP3    H118498   1.606   2.199   3.029 -0.2585  0.7950  0.0007
 6178TIP3    H218499   1.639   2.153   3.170  0.3520 -0.4091 -0.5202
 6179TIP3   OH218500   3.150   3.671   0.040 -0.6120  0.2803 -0.2947
 6179TIP3    H118501   3.222   3.659   0.102 -0.6042  1.5210 -0.0558
 6179TIP3    H218502   3.072   3.648   0.090 -0.3662 -1.7310 -0.7477
 6180TIP3   OH218503   1.302   6.559   1.474 -0.6011 -0.0024 -0.1015
 6180TIP3    H118504   1.304   6.474   1.519 -0.7043 -0.0189 -0.1280
 6180TIP3    H218505   1.374   6.554   1.411 -1.5878 -0.7014 -1.2295
 6181TIP3   OH218506   5.418   3.581   0.900  0.1471  0.1291 -0.6879
 6181TIP3    H118507   5.467   3.622   0.972  1.6368 -0.8465 -1.0861
 6181TIP3    H218508   5.349   3.643   0.880  1.7373  2.0272 -0.6406
 6182TIP3   OH218509   6.421   2.948   0.476 -0.1552 -0.0743 -0.3267
 6182TIP3    H118510   6.393   3.035   0.451 -1.4121  0.5471  2.8356
 6182TIP3    H218511   6.342   2.905   0.508  0.4433 -2.4133 -1.7546
 6183TIP3   OH218512   0.209   4.427   4.436 -0.1054  0.1786  0.0607
 6183TIP3    H118513   0.227   4.468   4.520 -0.1810 -1.3734  0.8563
 6183TIP3    H218514   0.217   4.499   4.373 -1.2909  1.6412  1.4980
 6184TIP3   OH218515   2.218   4.748   0.234  0.0904  0.2724 -0.3148
 6184TIP3    H118516   2.256   4.695   0.163  0.3329  0.2466 -0.1681
 6184TIP3    H218517   2.257   4.835   0.222  1.8873 -0.2873  1.1178
 6185TIP3   OH218518   2.224   5.728   0.490  0.1485 -0.6485  0.4640
 6185TIP3    H118519   2.241   5.645   0.535  1.2675  0.6397  2.6010
 6185TIP3    H218520   2.311   5.764   0.473 -0.3237  0.2881 -0.0384
 6186TIP3   OH218521   4.152   1.302   0.191  0.3838  0.6667 -0.3902
 6186TIP3    H118522   4.117   1.224   0.146  0.4099 -0.6517  1.7535
 6186TIP3    H218523   4.097   1.311   0.269 -0.2062  3.4067 -1.0256
 6187TIP3   OH218524   0.870   2.464   1.292  0.6231 -0.6010  0.0341
 6187TIP3    H118525   0.963   2.472   1.312  0.5191 -1.3788  0.9077
 6187TIP3    H218526   0.826   2.504   1.367  0.2470  0.3481 -0.6725
 6188TIP3   OH218527   6.412   2.691   1.281 -0.1138  0.0756 -0.6961
 6188TIP3    H118528   6.468   2.727   1.212 -1.9536  1.8357 -1.3775
 6188TIP3    H218529   6.331   2.741   1.274 -0.5466 -0.0032  2.4848
 6189TIP3   OH218530   5.416   4.825   1.073  0.2038 -0.2672  0.0984
 6189TIP3    H118531   5.422   4.742   1.024 -0.2785  0.1125 -0.6211
 6189TIP3    H218532   5.462   4.888   1.018 -1.5362  0.4708 -0.5606
 6190TIP3   OH218533   6.178   3.392   0.947  0.3035  0.1052  0.4036
 6190TIP3    H118534   6.245   3.457   0.967  0.7771  0.1074 -1.0836
 6190TIP3    H218535   6.182   3.381   0.852  0.5441 -2.4297  0.6335
 6191TIP3   OH218536   1.666   0.078   3.609  0.5618  0.1826 -0.0300
 6191TIP3    H118537   1.719  -0.002   3.612  0.4188  0.1072  1.7125
 6191TIP3    H218538   1.726   0.147   3.636  0.0345  0.2293  1.0830
 6192TIP3   OH218539   1.164   1.424   4.446  0.3661 -0.2072 -0.0661
 6192TIP3    H118540   1.197   1.335   4.457  0.9530 -0.0357 -0.3798
 6192TIP3    H218541   1.238   1.480   4.469  0.8061  0.1766 -2.2202
 6193TIP3   OH218542   2.135   0.909   0.899 -0.6801  0.0658 -0.0023
 6193TIP3    H118543   2.111   0.985   0.952 -2.1304  0.0509 -0.5781
 6193TIP3    H218544   2.205   0.866   0.947 -1.5112  0.4095  1.5645
 6194TIP3   OH218545   3.590   2.429   1.119  0.3086  0.5433  0.2595
 6194TIP3    H118546   3.591   2.518   1.083 -1.8807  0.3030 -0.5199
 6194TIP3    H218547   3.625   2.374   1.049  2.1929  0.7746  0.9355
 6195TIP3   OH218548   2.613   3.112   5.215 -0.0868 -0.2766  0.5072
 6195TIP3    H118549   2.562   3.074   5.287 -0.5273 -0.0898  0.2925
 6195TIP3    H218550   2.681   3.164   5.260 -0.9576  0.6446  0.7991
 6196TIP3   OH218551   4.961   4.423   1.689 -0.2989 -0.5795 -0.1222
 6196TIP3    H118552   4.913   4.494   1.646 -0.6858 -0.5846  0.2924
 6196TIP3    H218553   4.943   4.346   1.635 -0.2397 -0.4509 -0.3253
 6197TIP3   OH218554   1.966   1.393   4.873  0.1783  0.6366 -0.6573
 6197TIP3    H118555   1.899   1.324   4.872 -0.7814  1.4998  0.7344
 6197TIP3    H218556   1.977   1.416   4.781 -0.1972 -0.6777 -1.0606
 6198TIP3   OH218557   3.020   2.798   0.409 -0.2773 -0.1024 -0.0120
 6198TIP3    H118558   2.933   2.777   0.377 -1.1033  5.0105 -2.0685
 6198TIP3    H218559   3.069   2.821   0.330  1.3216  1.8703  1.4508
 6199TIP3   OH218560   3.145   6.317   2.023  0.1567 -0.5518 -0.0159
 6199TIP3    H118561   3.163   6.368   2.102 -2.0519 -2.1590  1.6712
 6199TIP3    H218562   3.202   6.240   2.032  0.8293 -0.1337 -0.6644
 6200TIP3   OH218563   1.147   3.568   3.615  0.3611 -0.4494  0.4005
 6200TIP3    H118564   1.226   3.514   3.624  0.2363 -0.3829  2.1570
 6200TIP3    H218565   1.153   3.631   3.687 -1.2770 -0.4170  0.5344
 6201TIP3   OH218566   6.324   5.626   3.988 -0.2058 -0.1600  0.0578
 6201TIP3    H118567   6.374   5.577   3.923 -0.0557 -2.0834  1.5565
 6201TIP3    H218568   6.384   5.638   4.061 -0.8412  0.6172  0.4747
 6202TIP3   OH218569   7.199   2.543   2.926 -0.0839  0.8722  0.2320
 6202TIP3    H118570   7.227   2.465   2.974 -0.5451  1.9610  2.3827
 6202TIP3    H218571   7.111   2.521   2.894  0.9258 -0.5243 -1.7800
 6203TIP3   OH218572   0.476   0.089   5.813 -0.1755 -0.1526 -0.5636
 6203TIP3    H118573   0.552   0.034   5.791 -0.0886 -0.8045  1.2044
 6203TIP3    H218574   0.400   0.034   5.796 -0.1675 -0.2091 -0.4131
 6204TIP3   OH218575   3.234   1.058   2.156 -0.6069  0.6422 -0.0411
 6204TIP3    H118576   3.287   1.137   2.158 -1.0974  1.0254 -1.2701
 6204TIP3    H218577   3.250   1.020   2.069 -0.4115 -0.5822  0.5147
 6205TIP3   OH218578   4.621   3.040   4.205 -0.1512  0.2666 -0.2433
 6205TIP3    H118579   4.576   2.962   4.238  0.8658 -0.4274 -0.4583
 6205TIP3    H218580   4.600   3.042   4.112  0.7988 -0.4494 -0.4849
 6206TIP3   OH218581   0.698   4.881   0.305 -0.2657  0.0598 -0.3796
 6206TIP3    H118582   0.669   4.792   0.323 -0.3625 -0.3093 -2.1461
 6206TIP3    H218583   0.760   4.872   0.233  1.9966  1.1536  1.3144
 6207TIP3   OH218584   1.515   6.122   0.279 -0.3016  0.3477  0.2769
 6207TIP3    H118585   1.455   6.177   0.228  0.5895  0.3558 -0.7966
 6207TIP3    H218586   1.598   6.127   0.231 -0.1867 -1.9479  0.1287
 6208TIP3   OH218587   2.958   1.698   3.481 -0.1914  0.0915  0.5112
 6208TIP3    H118588   2.866   1.725   3.483 -0.3315 -0.3819  2.7694
 6208TIP3    H218589   2.968   1.639   3.555  1.6014 -1.1020 -0.5906
 6209TIP3   OH218590   6.816   4.624  -0.023  0.0738 -0.0208 -0.1906
 6209TIP3    H118591   6.729   4.591  -0.000  0.3935 -0.5632  0.2422
 6209TIP3    H218592   6.855   4.650   0.060  0.0229  1.0003 -0.4647
 6210TIP3   OH218593   6.593   3.283   0.944  0.1213 -0.3349 -0.9609
 6210TIP3    H118594   6.599   3.372   0.909 -1.0473  0.0743 -0.1725
 6210TIP3    H218595   6.552   3.233   0.874  0.4252 -0.1757 -1.2596
 6211TIP3   OH218596   3.776   4.327   3.698  0.0136  0.0532 -0.7171
 6211TIP3    H118597   3.851   4.380   3.670  0.5050 -0.0526  0.3466
 6211TIP3    H218598   3.756   4.359   3.785 -0.1878 -0.9722 -0.3746
 6212TIP3   OH218599   3.998   0.639   3.859  0.0904 -0.3167  0.2092
 6212TIP3    H118600   3.985   0.686   3.777  1.8270  2.0711  1.1994
 6212TIP3    H218601   4.004   0.547   3.833 -2.1602  0.0380 -1.9708
 6213TIP3   OH218602   3.259   0.915   1.267  0.1178  0.1794 -0.3622
 6213TIP3    H118603   3.277   0.862   1.344 -0.0781  1.7595  0.8193
 6213TIP3    H218604   3.169   0.896   1.244  0.2076 -0.3742 -0.2555
 6214TIP3   OH218605   4.501   4.370   1.137 -1.1795 -0.5389  0.2840
 6214TIP3    H118606   4.569   4.326   1.188 -0.8782 -1.3223 -0.7487
 6214TIP3    H218607   4.515   4.339   1.047 -2.1045  0.2836 -0.1635
 6215TIP3   OH218608   6.678   5.244   3.527 -0.3758  0.1448 -0.0648
 6215TIP3    H118609   6.737   5.273   3.596 -0.9721 -2.3568  1.6217
 6215TIP3    H218610   6.604   5.204   3.573 -2.4969  1.3681 -2.1252
 6216TIP3   OH218611   3.131   0.207   3.637 -0.2538 -0.5519 -0.0028
 6216TIP3    H118612   3.078   0.130   3.615 -0.0591 -0.3604 -1.2067
 6216TIP3    H218613   3.128   0.261   3.559  0.3894  0.2329  0.5025
 6217TIP3   OH218614   5.608   1.506   3.556  0.1347  0.2364 -0.6386
 6217TIP3    H118615   5.636   1.460   3.477 -0.5610  1.6760 -1.7817
 6217TIP3    H218616   5.542   1.449   3.595  2.0618 -1.5606  0.2023
 6218TIP3   OH218617   1.894   2.612   3.860  0.2091  0.1092  0.1629
 6218TIP3    H118618   1.849   2.600   3.943 -0.3629  0.8104 -0.0267
 6218TIP3    H218619   1.916   2.705   3.858 -0.8293  0.3716 -0.9490
 6219TIP3   OH218620   0.429   5.468   3.654  0.2225  0.7676 -0.1637
 6219TIP3    H118621   0.490   5.515   3.710  1.0626 -0.3230 -0.1245
 6219TIP3    H218622   0.353   5.451   3.709 -0.9709  3.7156 -0.7233
 6220TIP3   OH218623   1.878   6.273   5.787  0.6561  0.3197 -0.2674
 6220TIP3    H118624   1.964   6.305   5.816  0.7830 -1.4798  1.5586
 6220TIP3    H218625   1.827   6.266   5.868 -0.1558 -1.6339 -0.8994
 6221TIP3   OH218626   0.580   0.005   4.714 -0.3768  0.2760  0.0720
 6221TIP3    H118627   0.673  -0.002   4.695 -0.4256 -1.1705  0.2325
 6221TIP3    H218628   0.569   0.090   4.756  0.8369  0.5179 -0.0869
 6222TIP3   OH218629   0.371   5.371   2.309  0.0724 -0.6145  0.0716
 6222TIP3    H118630   0.312   5.446   2.302  0.8981 -0.0625 -1.5299
 6222TIP3    H218631   0.454   5.408   2.340  0.1436 -1.0863  0.4740
 6223TIP3   OH218632   3.511   3.602   3.421 -0.1006 -0.3810  0.8486
 6223TIP3    H118633   3.425   3.591   3.461 -0.2711  0.7165  0.8354
 6223TIP3    H218634   3.501   3.681   3.367  0.9518 -0.1614  0.9603
 6224TIP3   OH218635   1.169   6.196   4.493 -0.1698  0.6461 -0.0464
 6224TIP3    H118636   1.162   6.197   4.589  0.4723  1.9159  0.0048
 6224TIP3    H218637   1.196   6.285   4.470  2.7349 -0.4114 -1.1680
 6225TIP3   OH218638   5.876   4.542   2.035  0.0402  0.2494 -0.3918
 6225TIP3    H118639   5.886   4.627   1.992  0.0935  0.9272  0.8948
 6225TIP3    H218640   5.794   4.550   2.085 -0.6332 -0.9269 -1.2511
 6226TIP3   OH218641   1.106   3.957   0.885  0.4396 -0.3907 -0.1586
 6226TIP3    H118642   1.154   4.031   0.848  1.0327 -1.5736 -1.8585
 6226TIP3    H218643   1.174   3.890   0.900 -0.1822 -0.8418  0.7182
 6227TIP3   OH218644   6.956   3.674   1.906 -0.4543  0.1176 -0.0111
 6227TIP3    H118645   6.917   3.684   1.993  2.0094  1.5815  1.0237
 6227TIP3    H218646   6.975   3.763   1.878 -0.2319 -0.3960 -1.5973
 6228TIP3   OH218647   6.409   3.909   1.390  0.0382  0.1493  0.2638
 6228TIP3    H118648   6.489   3.926   1.340 -0.2585  1.7792  0.3082
 6228TIP3    H218649   6.420   3.959   1.471  0.4181 -2.2492  1.8340
 6229TIP3   OH218650   4.985   1.886   0.586  0.0590 -0.0783 -0.9362
 6229TIP3    H118651   5.001   1.886   0.680  2.0962  2.8554 -1.1442
 6229TIP3    H218652   4.889   1.883   0.578 -0.1232 -1.5903  1.1399
 6230TIP3   OH218653   1.635   5.325   2.476  0.5171  0.1049 -0.7793
 6230TIP3    H118654   1.589   5.242   2.461 -0.0305  0.1965  0.3083
 6230TIP3    H218655   1.616   5.347   2.567  0.9171  1.2653 -0.9589
 6231TIP3   OH218656   3.075   5.979   1.047  0.0381 -0.4054 -0.1687
 6231TIP3    H118657   3.012   5.969   1.119  0.6238  1.1598  0.6041
 6231TIP3    H218658   3.160   5.960   1.087  0.2630 -0.5426 -0.7096
 6232TIP3   OH218659   3.170   4.615   2.607 -0.2506 -0.1045  0.2142
 6232TIP3    H118660   3.149   4.652   2.693 -0.3206 -1.3296  0.7392
 6232TIP3    H218661   3.094   4.562   2.584 -0.5500  0.7936 -0.9628
 6233TIP3   OH218662   2.237   4.405   4.700  0.0773  0.8233  0.7446
 6233TIP3    H118663   2.260   4.370   4.614  0.4163  2.7975 -0.0041
 6233TIP3    H218664   2.144   4.385   4.709  0.2456 -0.2173  0.3413
 6234TIP3   OH218665   3.689   4.070   3.103 -0.0214 -0.9771 -0.1805
 6234TIP3    H118666   3.626   4.121   3.052  0.4174  0.3942  0.5799
 6234TIP3    H218667   3.665   4.088   3.194  0.1646 -2.1390  0.1079
 6235TIP3   OH218668   1.083   4.380   5.420 -0.3521  0.0071 -0.5045
 6235TIP3    H118669   1.062   4.455   5.475 -0.7420 -1.5208  1.5540
 6235TIP3    H218670   1.162   4.405   5.372 -0.7537  1.8723 -0.2340
 6236TIP3   OH218671   3.211   0.287   0.524  0.4242 -0.2244 -0.2042
 6236TIP3    H118672   3.213   0.359   0.460  1.8621 -1.2133 -1.3324
 6236TIP3    H218673   3.239   0.328   0.606  0.8451  0.6006 -0.7371
 6237TIP3   OH218674   2.690   2.308   0.587 -0.0445  0.3202 -0.4476
 6237TIP3    H118675   2.692   2.252   0.509  0.5959 -1.6870  0.9375
 6237TIP3    H218676   2.779   2.304   0.622  0.0550  2.3351 -0.3253
 6238TIP3   OH218677   0.974   3.817   3.400 -0.4993 -0.0820 -0.3969
 6238TIP3    H118678   0.943   3.813   3.490 -1.9846  2.7624 -0.6573
 6238TIP3    H218679   1.068   3.829   3.407 -0.8144  2.1011  0.9427
 6239TIP3   OH218680   0.064   5.299   3.547  0.3507  0.0919  0.3914
 6239TIP3    H118681   0.094   5.381   3.509  2.2990  0.0845  1.7386
 6239TIP3    H218682  -0.017   5.322   3.594  0.7777  1.2123  0.6063
 6240TIP3   OH218683   5.398   6.208   1.566  0.1651 -0.2277  0.4724
 6240TIP3    H118684   5.362   6.241   1.484 -1.3189  1.7073  1.7906
 6240TIP3    H218685   5.331   6.149   1.600 -0.0254  0.3192  1.0749
 6241TIP3   OH218686   6.852   4.438   4.931  0.9575 -0.1343  0.4866
 6241TIP3    H118687   6.910   4.489   4.874  1.4802 -0.0578  1.0646
 6241TIP3    H218688   6.868   4.474   5.019  0.6274 -0.6575  0.7659
 6242TIP3   OH218689   4.692   2.104   5.791 -0.5330  0.1106 -0.0066
 6242TIP3    H118690   4.678   2.179   5.733 -1.6848  0.1595  0.3095
 6242TIP3    H218691   4.771   2.126   5.840 -0.3899  0.7380 -0.5025
 6243TIP3   OH218692   0.242   0.910   4.684 -0.3637  0.2427  0.0442
 6243TIP3    H118693   0.205   0.841   4.629  1.2588  0.2928 -1.1767
 6243TIP3    H218694   0.207   0.892   4.771 -0.0866 -2.0600 -0.2509
 6244TIP3   OH218695   2.785   3.625   1.973 -0.5325  0.5036 -0.0599
 6244TIP3    H118696   2.827   3.556   2.025  0.2505 -0.1495 -1.5052
 6244TIP3    H218697   2.821   3.707   2.007  1.4402 -0.0080 -0.8106
 6245TIP3   OH218698   6.092   3.884   2.769 -0.1831 -0.5553  0.4926
 6245TIP3    H118699   6.172   3.922   2.804 -1.1585  1.1858  0.9436
 6245TIP3    H218700   6.040   3.862   2.846 -1.0544  0.4095  0.1972
 6246TIP3   OH218701   2.836   0.899   0.794 -0.4124  0.2063 -0.2240
 6246TIP3    H118702   2.901   0.829   0.789  0.7047  1.2548 -1.1495
 6246TIP3    H218703   2.846   0.934   0.882  0.7203  0.7345 -0.5421
 6247TIP3   OH218704   0.349   4.024   4.559  0.4489  0.3153 -0.1313
 6247TIP3    H118705   0.295   3.957   4.516  0.6444  0.2965 -0.3504
 6247TIP3    H218706   0.304   4.042   4.641 -0.2693  0.8083 -0.6271
 6248TIP3   OH218707   2.025   1.693   5.380 -0.3873 -0.0312  0.0715
 6248TIP3    H118708   2.086   1.683   5.453 -0.4441  0.1167  0.1387
 6248TIP3    H218709   1.949   1.640   5.405  0.2483 -1.3199 -0.6112
 6249TIP3   OH218710   5.716   4.314   1.130 -0.0125  0.1911  0.8982
 6249TIP3    H118711   5.740   4.360   1.210  1.5589 -2.1281  1.8586
 6249TIP3    H218712   5.799   4.284   1.092 -0.9020 -1.5260  0.1620
 6250TIP3   OH218713   0.701   2.292   3.207  0.9431  0.3596 -0.1042
 6250TIP3    H118714   0.712   2.383   3.181 -1.1122  1.1936  1.7464
 6250TIP3    H218715   0.633   2.258   3.149 -1.6296  1.4171  2.1332
 6251TIP3   OH218716   4.124   0.769   5.360 -0.0384  0.0280  0.0241
 6251TIP3    H118717   4.122   0.772   5.265  1.2343 -1.5543 -0.1014
 6251TIP3    H218718   4.156   0.855   5.387  0.8937  0.0337 -1.0575
 6252TIP3   OH218719   6.021   5.217   1.180 -0.2815 -0.2720  0.2606
 6252TIP3    H118720   6.110   5.187   1.195 -0.2716  0.1347  1.0690
 6252TIP3    H218721   6.029   5.290   1.119  0.0974  0.7110  1.4465
 6253TIP3   OH218722   4.971   6.410   0.277  0.0221 -0.3862  0.1899
 6253TIP3    H118723   4.884   6.446   0.262 -0.7339 -2.5576 -1.1089
 6253TIP3    H218724   4.956   6.332   0.330  1.2852 -0.3385  0.6695
 6254TIP3   OH218725   0.133   0.422   0.849 -0.7741 -0.0670 -0.1928
 6254TIP3    H118726   0.226   0.397   0.846 -0.3773  1.4133 -1.1438
 6254TIP3    H218727   0.094   0.375   0.775 -0.6242 -0.0663 -0.2726
 6255TIP3   OH218728   2.439   2.368   0.057  0.2001 -0.2851  0.0595
 6255TIP3    H118729   2.354   2.369   0.014  0.1100  1.3563  0.2383
 6255TIP3    H218730   2.437   2.442   0.117  1.8057 -0.1424 -0.0268
 6256TIP3   OH218731   2.033   6.284   1.694 -0.1771  0.0707  0.2792
 6256TIP3    H118732   2.037   6.318   1.604 -0.5273  2.4554  1.0913
 6256TIP3    H218733   2.106   6.222   1.699 -0.5278 -0.5859 -1.8141
 6257TIP3   OH218734   6.143   1.601   5.757 -0.6367 -0.0910  0.7177
 6257TIP3    H118735   6.104   1.523   5.717  0.4967 -0.7110  0.7757
 6257TIP3    H218736   6.227   1.571   5.791  0.2499  1.3683 -0.0909
 6258TIP3   OH218737   0.043   4.383   4.148 -0.1920 -0.3361  0.4774
 6258TIP3    H118738   0.077   4.341   4.069 -1.1533 -0.1245 -0.0613
 6258TIP3    H218739   0.110   4.447   4.172  0.4064 -0.8521  0.2135
 6259TIP3   OH218740   6.451   3.405   2.158  0.0436  0.4432  0.4348
 6259TIP3    H118741   6.410   3.353   2.089  0.9707  0.8261 -0.4339
 6259TIP3    H218742   6.472   3.342   2.226 -1.4355  0.1484  0.6501
 6260TIP3   OH218743   0.790   6.257   3.337 -0.7669  0.0360 -0.1696
 6260TIP3    H118744   0.767   6.176   3.382 -0.7668 -0.6907 -1.4449
 6260TIP3    H218745   0.713   6.278   3.284 -1.0304  1.2506  0.6625
 6261TIP3   OH218746   0.590   0.791   0.699 -0.1885 -0.3010 -0.4242
 6261TIP3    H118747   0.503   0.799   0.659 -0.1547  0.8672 -0.3252
 6261TIP3    H218748   0.573   0.791   0.793 -0.1194 -0.6738 -0.4118
 6262TIP3   OH218749   5.130   0.072   5.334  0.3444 -0.1002  0.4788
 6262TIP3    H118750   5.114   0.094   5.425  0.5655  0.2764  0.4256
 6262TIP3    H218751   5.048   0.093   5.289  0.0065 -0.9052  0.6950
 6263TIP3   OH218752   5.831   4.178   4.931 -0.5720  0.2016 -0.7015
 6263TIP3    H118753   5.921   4.196   4.960 -1.0622  0.4825  0.7250
 6263TIP3    H218754   5.822   4.227   4.850  0.0856  1.4464 -0.0638
 6264TIP3   OH218755   5.073   3.596   1.754  0.2716  0.3468 -0.4446
 6264TIP3    H118756   5.086   3.513   1.799  0.8897  1.0752  0.7853
 6264TIP3    H218757   5.116   3.585   1.669  2.9377  0.3420  0.8231
 6265TIP3   OH218758   6.396   6.550   2.557 -0.1027  0.1379 -0.4051
 6265TIP3    H118759   6.438   6.581   2.477  2.3873  0.4274  0.8963
 6265TIP3    H218760   6.375   6.630   2.606  1.5523 -0.0222  0.6646
 6266TIP3   OH218761   0.861   0.179   4.425  0.5518 -0.4316  0.0736
 6266TIP3    H118762   0.787   0.133   4.384  0.8973 -1.4144  0.5133
 6266TIP3    H218763   0.895   0.235   4.356 -1.0364  0.5908  0.0678
 6267TIP3   OH218764   5.456   0.292   4.283  0.2218  0.5769 -0.5992
 6267TIP3    H118765   5.473   0.267   4.192  1.2465 -0.6515 -0.0907
 6267TIP3    H218766   5.536   0.336   4.311 -1.0691  3.4486 -1.0663
 6268TIP3   OH218767   7.085   0.795   0.312 -0.1692 -0.0768  0.3453
 6268TIP3    H118768   7.091   0.854   0.236 -1.1993 -1.7355 -1.1067
 6268TIP3    H218769   7.099   0.708   0.275 -2.5336 -1.1181  1.7146
 6269TIP3   OH218770   0.144   1.637   1.240  0.0074  0.3108 -0.1165
 6269TIP3    H118771   0.163   1.594   1.323  0.8010 -1.2953 -1.0834
 6269TIP3    H218772   0.211   1.605   1.180 -0.2506  1.8151 -1.2756
 6270TIP3   OH218773   3.064   0.098   0.356  0.2447  0.3867  0.9410
 6270TIP3    H118774   3.113   0.150   0.420  3.0492 -1.0284  0.0996
 6270TIP3    H218775   2.993   0.058   0.407  0.1963  2.0800  2.3336
 6271TIP3   OH218776   2.436   3.414   0.124 -0.2256  0.1083 -0.0146
 6271TIP3    H118777   2.360   3.409   0.066 -0.6379  0.0084  0.5285
 6271TIP3    H218778   2.473   3.501   0.107 -1.3300  0.7572  0.7811
 6272TIP3   OH218779   0.545   3.967   5.475 -0.2333  0.3495 -0.1046
 6272TIP3    H118780   0.635   3.959   5.508  0.7774  1.0526 -2.4360
 6272TIP3    H218781   0.543   3.907   5.400 -0.5032  2.9361 -2.3046
 6273TIP3   OH218782   1.493   5.291   4.943  0.2899  0.2234  0.2127
 6273TIP3    H118783   1.501   5.343   5.023 -1.6538  0.0202  0.5836
 6273TIP3    H218784   1.413   5.321   4.902 -1.3302 -2.8550  0.7894
 6274TIP3   OH218785   6.775   5.340   3.997  0.2399 -0.4012  0.3015
 6274TIP3    H118786   6.867   5.345   4.026  0.2305 -3.1700  1.1009
 6274TIP3    H218787   6.725   5.364   4.075  0.2017  1.6021 -0.2700
 6275TIP3   OH218788   5.571   6.599   2.283 -0.2412  0.1455 -0.0545
 6275TIP3    H118789   5.532   6.513   2.299 -1.1436  0.5154 -0.1978
 6275TIP3    H218790   5.655   6.596   2.328 -0.2756 -0.7975 -0.0295
 6276TIP3   OH218791   0.347   1.809  -0.013  1.0473 -0.2787  0.5455
 6276TIP3    H118792   0.377   1.896   0.013 -0.7177  1.6394 -3.0307
 6276TIP3    H218793   0.264   1.797   0.033  1.2609 -0.0595  0.9911
 6277TIP3   OH218794   6.792   4.812   5.512 -0.0255  0.2432  0.3644
 6277TIP3    H118795   6.814   4.742   5.451 -0.6648 -0.0597  0.4673
 6277TIP3    H218796   6.711   4.782   5.555  0.4306  0.4310  1.3897
 6278TIP3   OH218797   5.337   0.222   0.086  0.5202  0.5190  0.1064
 6278TIP3    H118798   5.356   0.315   0.101  0.6714  0.2155  1.9884
 6278TIP3    H218799   5.418   0.177   0.111  0.0435 -0.1975  0.3739
 6279TIP3   OH218800   1.595   6.488   3.418  0.6681 -0.3519  0.8468
 6279TIP3    H118801   1.500   6.490   3.428  0.8781  0.4212  3.2308
 6279TIP3    H218802   1.610   6.426   3.346 -1.6782  0.9753 -0.9253
 6280TIP3   OH218803   5.256   4.126   2.844 -0.4322 -0.1008  0.0498
 6280TIP3    H118804   5.238   4.182   2.769  1.1303 -0.8963 -0.9630
 6280TIP3    H218805   5.227   4.039   2.817  0.1304 -0.3961  0.3711
 6281TIP3   OH218806   0.014   4.175   3.189  0.4895  0.1115 -0.3384
 6281TIP3    H118807   0.093   4.213   3.229  0.7047  0.6738 -1.2431
 6281TIP3    H218808   0.018   4.205   3.098 -1.3507  1.1023 -0.1415
 6282TIP3   OH218809   2.040   5.553   4.544  0.5714 -0.0780  0.1036
 6282TIP3    H118810   1.970   5.619   4.540  1.9957  1.5436  0.7481
 6282TIP3    H218811   2.055   5.540   4.638  0.6956 -0.9134 -0.0262
 6283TIP3   OH218812   3.297   2.089   2.295  0.1187 -0.0525 -0.3146
 6283TIP3    H118813   3.362   2.101   2.225  1.0266  0.5785  0.6176
 6283TIP3    H218814   3.292   1.994   2.306  1.4080 -0.0928  0.0657
 6284TIP3   OH218815   2.858   5.352   3.360  0.1410 -0.0902 -0.2641
 6284TIP3    H118816   2.897   5.423   3.310  0.6886  0.0388  0.3340
 6284TIP3    H218817   2.833   5.392   3.443 -0.9753 -0.2460 -0.5099
 6285TIP3   OH218818   5.268   6.501   0.586 -0.7871  0.2250 -0.0145
 6285TIP3    H118819   5.291   6.408   0.575 -0.2048  0.4811 -1.1194
 6285TIP3    H218820   5.231   6.526   0.502  3.2307  2.1321 -1.4803
 6286TIP3   OH218821   1.043   5.377   0.111 -0.1276 -0.4785  0.2810
 6286TIP3    H118822   1.132   5.408   0.092 -0.2778  0.4062  0.9984
 6286TIP3    H218823   1.000   5.375   0.026 -0.5804  2.7606  0.3180
 6287TIP3   OH218824   3.450   3.891   4.744 -0.1562 -0.1396  0.0392
 6287TIP3    H118825   3.502   3.876   4.665 -0.7485 -0.0706 -0.3682
 6287TIP3    H218826   3.514   3.908   4.813  0.3126  2.7139 -1.0022
 6288TIP3   OH218827   2.729   1.448   3.913  0.2281  0.3534  0.5540
 6288TIP3    H118828   2.699   1.360   3.934  0.8096 -0.0938 -0.4191
 6288TIP3    H218829   2.689   1.467   3.828  0.7116  0.7236  0.4049
 6289TIP3   OH218830   6.342   2.562   3.760  0.3731  0.3931 -0.0940
 6289TIP3    H118831   6.385   2.524   3.836 -0.8919  0.6715  0.7822
 6289TIP3    H218832   6.308   2.646   3.790  0.0778  0.6285 -1.0312
 6290TIP3   OH218833   5.231   6.479   5.595 -0.2117  0.7137  0.3409
 6290TIP3    H118834   5.204   6.470   5.504 -1.1595  0.5464  0.6152
 6290TIP3    H218835   5.296   6.410   5.608 -2.4127 -1.4672  0.5983
 6291TIP3   OH218836   4.798   4.842   4.732  0.4350  0.2227 -0.2283
 6291TIP3    H118837   4.782   4.757   4.691 -1.9412 -0.1216  1.2457
 6291TIP3    H218838   4.879   4.828   4.782  1.3674 -0.4157 -1.8227
 6292TIP3   OH218839   2.876   5.492   2.893 -0.3006  0.4151 -0.2556
 6292TIP3    H118840   2.824   5.420   2.930 -0.8169  0.7206 -0.3799
 6292TIP3    H218841   2.812   5.557   2.866  0.0139 -0.1074 -2.3836
 6293TIP3   OH218842   0.294   5.903   4.081 -0.2498  0.1661 -1.0853
 6293TIP3    H118843   0.228   5.949   4.133  0.0180  1.0453 -1.5076
 6293TIP3    H218844   0.350   5.860   4.146  0.9731  2.4550 -0.5322
 6294TIP3   OH218845   1.769   5.915   3.701  0.6624 -0.1547  0.1215
 6294TIP3    H118846   1.758   5.912   3.606 -1.7083 -1.7569  0.3480
 6294TIP3    H218847   1.793   6.006   3.719 -0.5835  0.6601 -1.8863
 6295TIP3   OH218848   2.703   3.653   3.323  0.5777 -0.1572  0.3979
 6295TIP3    H118849   2.700   3.709   3.402  0.7144  1.4269 -0.6685
 6295TIP3    H218850   2.632   3.685   3.268  3.5423  2.4197 -2.3748
 6296TIP3   OH218851   2.391   1.407   2.983  0.2250  0.0837  0.2813
 6296TIP3    H118852   2.385   1.448   3.070  1.8175 -0.0877  0.5077
 6296TIP3    H218853   2.423   1.319   3.001  1.2671  0.2805 -0.5117
 6297TIP3   OH218854   3.777   1.230   0.500  0.6141  0.4779 -0.0822
 6297TIP3    H118855   3.683   1.216   0.506  0.8937 -1.0859  1.6487
 6297TIP3    H218856   3.801   1.273   0.582  1.5023  0.2239 -0.1950
 6298TIP3   OH218857   2.426   3.725   2.401 -0.0743  0.1244 -0.2075
 6298TIP3    H118858   2.497   3.736   2.337  0.8071  0.9682  0.8802
 6298TIP3    H218859   2.435   3.634   2.431 -0.8786 -0.4825 -1.6793
 6299TIP3   OH218860   2.435   5.094   2.136 -0.2866 -0.5134  0.3989
 6299TIP3    H118861   2.465   5.088   2.046 -0.3162  0.3938  0.3213
 6299TIP3    H218862   2.483   5.026   2.182 -1.6047 -2.2395 -0.6362
 6300TIP3   OH218863   5.822   5.659   4.730  0.3961 -0.3511  0.0814
 6300TIP3    H118864   5.748   5.718   4.746  0.0385 -0.1975 -1.8563
 6300TIP3    H218865   5.837   5.665   4.636  1.9795 -1.4661  0.2312
 6301TIP3   OH218866   1.486   2.179   2.876  0.5539 -0.4244  0.0784
 6301TIP3    H118867   1.501   2.085   2.885 -0.6297 -0.6405 -0.0049
 6301TIP3    H218868   1.477   2.193   2.782  2.0814  0.0146 -0.0232
 6302TIP3   OH218869   3.517   5.914   4.954  0.4465  0.0937 -0.0685
 6302TIP3    H118870   3.602   5.898   4.913  0.3278 -0.1280 -0.2342
 6302TIP3    H218871   3.501   6.007   4.940  0.8875  0.2438  0.3996
 6303TIP3   OH218872   0.661   3.249   3.639  0.4046 -0.2993  0.1266
 6303TIP3    H118873   0.639   3.162   3.673  0.3868 -0.5180 -0.4353
 6303TIP3    H218874   0.622   3.310   3.702  0.7574 -0.6977  0.7399
 6304TIP3   OH218875   4.624   1.800   4.581  0.0095  0.0407  0.1194
 6304TIP3    H118876   4.671   1.758   4.510  0.7062 -0.5582  0.9082
 6304TIP3    H218877   4.648   1.892   4.574 -1.3235  0.3065 -1.4639
 6305TIP3   OH218878   6.789   4.450   1.019 -0.2178 -0.0230  0.5562
 6305TIP3    H118879   6.847   4.431   1.092  1.0370 -0.6728 -0.5687
 6305TIP3    H218880   6.825   4.399   0.946 -1.9096 -0.0440 -0.3100
 6306TIP3   OH218881   0.929   0.409   0.314 -0.4792 -0.2868 -0.2418
 6306TIP3    H118882   1.002   0.457   0.352 -1.2322  1.0121 -0.3723
 6306TIP3    H218883   0.966   0.363   0.239  0.0929  0.8781 -0.6969
 6307TIP3   OH218884   4.705   6.705   4.018 -0.1071 -0.2341  0.0248
 6307TIP3    H118885   4.767   6.760   3.971 -0.1917 -0.4613 -0.3546
 6307TIP3    H218886   4.747   6.686   4.101  0.1537 -0.0437 -0.0646
 6308TIP3   OH218887   3.827   0.354   3.595 -0.6562  0.3460  0.3593
 6308TIP3    H118888   3.837   0.306   3.513  0.9195  1.1210  0.0621
 6308TIP3    H218889   3.912   0.394   3.610 -1.3281  1.3721  1.6608
 6309TIP3   OH218890   1.898   6.703   5.649 -0.2013  0.9498 -0.1405
 6309TIP3    H118891   1.835   6.694   5.721 -0.7343  1.8679 -0.4716
 6309TIP3    H218892   1.983   6.710   5.692 -0.2530 -0.6742  0.2994
 6310TIP3   OH218893   0.248   2.136   2.970 -0.1709 -0.3563  0.4010
 6310TIP3    H118894   0.163   2.095   2.985  0.0630 -1.1845 -0.3677
 6310TIP3    H218895   0.311   2.066   2.989  0.2555 -0.2853 -0.6831
 6311TIP3   OH218896   2.969   2.537   5.730  0.3248  0.1313  1.0382
 6311TIP3    H118897   2.927   2.496   5.806  0.7699 -1.4876  0.4605
 6311TIP3    H218898   3.044   2.480   5.711  0.1678  0.4510 -0.6743
 6312TIP3   OH218899   2.667   0.870   5.674 -0.0167  0.4477  0.1930
 6312TIP3    H118900   2.582   0.845   5.637  0.4290 -1.0348  0.0925
 6312TIP3    H218901   2.728   0.857   5.602  0.8946 -2.6261  1.3294
 6313TIP3   OH218902   3.846   4.895   1.715  0.2534  0.4642 -0.0664
 6313TIP3    H118903   3.802   4.878   1.632 -0.2213 -1.6346  0.5457
 6313TIP3    H218904   3.776   4.891   1.780  0.0072  5.1936  0.3201
 6314TIP3   OH218905   6.577   4.209   4.044 -0.3971 -0.0059 -0.4225
 6314TIP3    H118906   6.629   4.135   4.012 -0.9434 -1.0994  1.0616
 6314TIP3    H218907   6.641   4.269   4.080  0.0219 -0.0359 -1.1087
 6315TIP3   OH218908   4.735   2.017   1.463 -0.1695  0.2415  0.0226
 6315TIP3    H118909   4.782   1.934   1.469 -0.9531 -0.3332 -1.2496
 6315TIP3    H218910   4.678   2.007   1.386 -3.5349  0.2589  2.3103
 6316TIP3   OH218911   1.248   0.270   4.841  0.1430 -0.2132 -0.3213
 6316TIP3    H118912   1.216   0.286   4.753  0.4475  0.0508 -0.3855
 6316TIP3    H218913   1.341   0.288   4.837  0.3591 -1.2575 -0.2035
 6317TIP3   OH218914   0.973   2.825   4.983  0.1100  0.3342  0.2375
 6317TIP3    H118915   0.935   2.911   5.002 -0.1285  0.6309 -1.4277
 6317TIP3    H218916   1.067   2.838   4.990  0.2514  1.4597 -2.4491
 6318TIP3   OH218917   2.935   5.464   5.709  0.0482  0.6103 -0.0899
 6318TIP3    H118918   2.967   5.552   5.732 -1.0435  0.8820  0.4233
 6318TIP3    H218919   2.850   5.479   5.668 -0.2953 -0.2327  0.2970
 6319TIP3   OH218920   1.041   0.162   3.138 -0.3564 -0.1839 -0.3277
 6319TIP3    H118921   1.018   0.241   3.088 -1.2984  1.0600  1.9347
 6319TIP3    H218922   0.966   0.147   3.195  1.1186 -0.8533  1.5236
 6320TIP3   OH218923   6.956   3.464   2.345  0.0544  0.1112 -0.0117
 6320TIP3    H118924   6.867   3.490   2.320 -0.4939 -0.6098  1.1124
 6320TIP3    H218925   6.976   3.390   2.287 -0.2112  0.0718 -0.0561
 6321TIP3   OH218926   3.138   2.773   0.887 -0.2741  0.4515  0.0263
 6321TIP3    H118927   3.082   2.839   0.929 -1.1599 -0.5962  0.5549
 6321TIP3    H218928   3.135   2.795   0.794 -0.1886  1.4148  0.2396
 6322TIP3   OH218929   1.865   1.700   0.760  0.8046  0.6045  0.5825
 6322TIP3    H118930   1.808   1.643   0.812 -1.7225  2.6687  0.2533
 6322TIP3    H218931   1.826   1.698   0.673  1.7587  1.4523  0.1246
 6323TIP3   OH218932   6.581   2.766   5.322 -0.0277  0.1854 -0.6102
 6323TIP3    H118933   6.647   2.819   5.278  1.0721  0.5928  1.4212
 6323TIP3    H218934   6.558   2.816   5.400 -2.7323  0.0194 -1.2052
 6324TIP3   OH218935   6.386   4.768   3.427 -0.6763 -0.0305  0.4955
 6324TIP3    H118936   6.378   4.720   3.345 -0.5029 -3.8913  2.5354
 6324TIP3    H218937   6.444   4.841   3.406 -0.9507 -0.6141 -2.8482
 6325TIP3   OH218938   6.704   1.034   1.397 -0.0706  0.5915 -0.2397
 6325TIP3    H118939   6.755   1.098   1.447 -1.1318  0.2717  1.3350
 6325TIP3    H218940   6.717   1.059   1.306  2.3400  0.9209  0.1173
 6326TIP3   OH218941   3.552   0.018   2.298 -0.0358 -0.2264  0.5363
 6326TIP3    H118942   3.515   0.105   2.285 -0.7257 -0.7793 -1.6218
 6326TIP3    H218943   3.477  -0.041   2.297  0.5923 -1.0371 -0.2444
 6327TIP3   OH218944   5.865   3.220   5.046 -0.0843 -0.5957 -0.0648
 6327TIP3    H118945   5.940   3.233   4.988  0.1811 -1.2855  0.1205
 6327TIP3    H218946   5.885   3.273   5.123  0.2192 -0.7853 -0.0124
 6328TIP3   OH218947   5.491   0.714   3.001  0.3327 -0.0971  0.0183
 6328TIP3    H118948   5.433   0.683   3.071  1.3119  0.2815  1.0335
 6328TIP3    H218949   5.474   0.808   2.996  2.2863  0.4226  1.7855
 6329TIP3   OH218950   2.824   0.964   3.254  0.8612 -0.4610 -0.1133
 6329TIP3    H118951   2.914   0.988   3.275  0.7332 -1.3234  1.5196
 6329TIP3    H218952   2.783   0.947   3.338 -0.7588 -0.3990 -0.8501
 6330TIP3   OH218953   0.147   6.197   3.550 -0.3820 -0.3934  0.1322
 6330TIP3    H118954   0.159   6.241   3.466  0.1966 -1.7141 -0.4903
 6330TIP3    H218955   0.126   6.107   3.528  0.3247 -0.8961  1.4066
 6331TIP3   OH218956   3.333   3.682   3.741  0.5217  0.3128  0.2167
 6331TIP3    H118957   3.420   3.644   3.749 -0.0300 -0.7037  2.1739
 6331TIP3    H218958   3.292   3.667   3.826 -1.7894  0.2168 -0.8227
 6332TIP3   OH218959   3.902   2.501   1.566 -0.1172  0.0526  0.0595
 6332TIP3    H118960   3.969   2.433   1.564  1.3695  1.4395  0.7652
 6332TIP3    H218961   3.886   2.522   1.474 -2.3798 -2.8255 -0.3568
 6333TIP3   OH218962   4.976   5.232   2.100 -0.2402  0.1613 -0.2151
 6333TIP3    H118963   4.907   5.285   2.060 -0.7548 -0.5284 -0.2744
 6333TIP3    H218964   4.931   5.184   2.170  0.0423 -0.7472 -0.6436
 6334TIP3   OH218965   1.415   2.616   3.761 -0.5692  0.1961 -0.0137
 6334TIP3    H118966   1.384   2.598   3.850 -0.4153  1.4114  0.2948
 6334TIP3    H218967   1.336   2.615   3.708 -0.6748 -0.4302  0.1441
 6335TIP3   OH218968   0.653   5.605   3.013 -0.5941 -0.3123 -0.2744
 6335TIP3    H118969   0.635   5.591   3.106 -2.9584 -0.4743 -0.6996
 6335TIP3    H218970   0.673   5.518   2.980 -1.0664 -0.4600 -0.1731
 6336TIP3   OH218971   6.245   3.609   1.161 -0.1872  0.2245  0.2754
 6336TIP3    H118972   6.205   3.541   1.215 -0.1379 -0.8890 -1.0301
 6336TIP3    H218973   6.171   3.664   1.134 -0.4906 -0.2973  0.0039
 6337TIP3   OH218974   0.728   1.249   0.427  0.0569 -0.0441  0.1179
 6337TIP3    H118975   0.809   1.197   0.422  0.5882  0.8372 -0.9604
 6337TIP3    H218976   0.665   1.200   0.374  0.0409 -0.4596  0.5169
 6338TIP3   OH218977   5.423   1.732   3.536  0.4147  0.1606  0.3471
 6338TIP3    H118978   5.378   1.736   3.452  0.2850  0.9115  0.4444
 6338TIP3    H218979   5.500   1.676   3.520 -0.3298 -0.8111  0.0867
 6339TIP3   OH218980   5.196   1.661   3.040 -0.0977 -0.2056  0.0307
 6339TIP3    H118981   5.231   1.576   3.014 -0.3127 -1.6245  3.8652
 6339TIP3    H218982   5.101   1.651   3.030 -0.0676  0.0405 -0.5884
 6340TIP3   OH218983   0.623   4.952   3.658  0.4808  0.0808 -0.5582
 6340TIP3    H118984   0.648   4.863   3.681  3.2728  0.3466 -2.0264
 6340TIP3    H218985   0.618   4.951   3.562  3.1026  1.9437 -0.8266
 6341TIP3   OH218986   1.718   5.112   0.240  0.0116 -0.4043  0.0477
 6341TIP3    H118987   1.710   5.024   0.277 -1.2358 -0.7418 -0.9313
 6341TIP3    H218988   1.653   5.164   0.287  0.3073 -0.1623  0.1898
 6342TIP3   OH218989   5.448   1.806   2.076 -0.1812 -0.1890 -0.3788
 6342TIP3    H118990   5.475   1.740   2.013 -1.2411  0.3469 -1.4313
 6342TIP3    H218991   5.409   1.756   2.148 -0.8417 -0.7241 -1.0976
 6343TIP3   OH218992   6.207   0.939   2.371  0.4950 -0.2634  0.1280
 6343TIP3    H118993   6.267   0.948   2.297 -3.1915  1.7245 -2.9918
 6343TIP3    H218994   6.213   0.847   2.395  3.0801 -0.6244 -1.4365
 6344TIP3   OH218995   7.178   3.648   3.422 -0.5831 -0.2338 -0.0036
 6344TIP3    H118996   7.114   3.602   3.477 -1.9116  0.7571 -0.6579
 6344TIP3    H218997   7.125   3.707   3.368  0.7516 -0.6172 -1.8023
 6345TIP3   OH218998   3.952   5.840   2.512 -0.1148 -0.3941 -0.0709
 6345TIP3    H118999   3.933   5.811   2.423  0.1466  2.0832 -0.9996
 6345TIP3    H219000   4.046   5.856   2.513 -0.1432 -0.2171  0.6184
 6346TIP3   OH219001   0.501   3.378   4.985 -0.2962 -0.1849  0.6683
 6346TIP3    H119002   0.451   3.297   4.994 -1.8996  0.7472  0.7345
 6346TIP3    H219003   0.467   3.418   4.905  0.5530  0.3699  0.5737
 6347TIP3   OH219004   3.406   0.986   3.195  0.5753  0.1519  0.0391
 6347TIP3    H119005   3.469   0.928   3.238 -0.9029 -0.6121  1.2582
 6347TIP3    H219006   3.384   0.940   3.114 -0.4765 -0.9927  0.9267
 6348TIP3   OH219007   6.937   1.621   1.777  0.8414  0.4499 -0.0389
 6348TIP3    H119008   6.894   1.606   1.692 -1.3553  1.6154  0.7816
 6348TIP3    H219009   6.928   1.715   1.791  1.5880  0.3428  1.2922
 6349TIP3   OH219010   6.029   1.641   2.662 -0.2592 -0.0487 -0.0575
 6349TIP3    H119011   6.026   1.547   2.681 -0.1363 -0.0469 -0.0235
 6349TIP3    H219012   5.939   1.672   2.674 -0.5708 -0.4017 -1.3045
 6350TIP3   OH219013   2.831   0.770   4.429  0.6094  0.0982  0.5946
 6350TIP3    H119014   2.887   0.821   4.371  1.5003  0.3077  1.6147
 6350TIP3    H219015   2.753   0.752   4.376  0.6646  1.7140 -0.1006
 6351TIP3   OH219016   1.222   0.926   1.382  0.2670  0.2956  0.0949
 6351TIP3    H119017   1.278   0.961   1.451 -2.8624  1.7708  2.0769
 6351TIP3    H219018   1.179   0.850   1.422 -2.2725  1.7061  0.2255
 6352TIP3   OH219019   4.675   2.450   4.216 -0.1174 -0.1722  0.5223
 6352TIP3    H119020   4.724   2.453   4.298  0.9063  1.3471 -0.1034
 6352TIP3    H219021   4.735   2.487   4.150 -1.3082 -0.3184 -0.6947
 6353TIP3   OH219022   4.317   0.815   2.447 -0.1016 -0.5096  0.3569
 6353TIP3    H119023   4.365   0.754   2.390 -0.3198  0.2530 -0.6720
 6353TIP3    H219024   4.346   0.793   2.535  3.1235  0.6952 -0.2576
 6354TIP3   OH219025   1.138   3.138   1.653  0.0879 -0.6469  0.1701
 6354TIP3    H119026   1.209   3.117   1.713  0.2743  0.0450  0.1951
 6354TIP3    H219027   1.059   3.139   1.707  0.2645  0.0438  0.4213
 6355TIP3   OH219028   2.960   2.053   4.564  0.5735  0.0524  0.3915
 6355TIP3    H119029   2.975   2.132   4.614 -0.1897  0.0220  0.6914
 6355TIP3    H219030   2.921   1.992   4.626 -0.6290  0.1012 -0.2752
 6356TIP3   OH219031   1.288   3.877   5.723 -0.1551  0.1628 -0.0571
 6356TIP3    H119032   1.320   3.955   5.677 -0.3279  0.9364  1.1101
 6356TIP3    H219033   1.231   3.910   5.792 -0.0765 -0.9788  0.5899
 6357TIP3   OH219034   5.280   0.067   1.785  0.0195  0.1577  0.0150
 6357TIP3    H119035   5.324   0.008   1.846  0.9073  1.3363  0.5759
 6357TIP3    H219036   5.208   0.104   1.836 -0.3631 -0.2281 -0.2445
 6358TIP3   OH219037   3.018   3.388   5.203  0.3819 -0.4410 -0.1739
 6358TIP3    H119038   3.049   3.462   5.150 -1.0375 -0.4278 -1.0257
 6358TIP3    H219039   3.074   3.390   5.281  2.4648 -0.3996 -1.5886
 6359TIP3   OH219040   1.964   6.389   0.326  0.5461  0.1033 -0.1909
 6359TIP3    H119041   1.953   6.381   0.421 -1.3539 -1.5071 -0.4877
 6359TIP3    H219042   1.987   6.301   0.297 -2.2053 -0.2430 -1.5700
 6360TIP3   OH219043   4.410   5.707   0.052 -0.3958  0.4723 -0.3586
 6360TIP3    H119044   4.355   5.643   0.007 -1.8630 -0.8592  3.0184
 6360TIP3    H219045   4.499   5.670   0.046 -0.6427  0.0030 -1.4553
 6361TIP3   OH219046   4.592   1.172   3.183 -0.5970  0.1681 -0.5847
 6361TIP3    H119047   4.561   1.236   3.246  0.7748  0.6591 -0.3682
 6361TIP3    H219048   4.669   1.132   3.225  0.3945  0.5614 -1.9452
 6362TIP3   OH219049   4.108   0.583   1.481 -0.2249  0.3706  0.3618
 6362TIP3    H119050   4.154   0.546   1.557 -0.1425  0.3697  0.3116
 6362TIP3    H219051   4.018   0.553   1.490 -0.1984  0.3093  0.4200
 6363TIP3   OH219052   2.729   1.886   4.766  0.0812 -0.4011 -0.0070
 6363TIP3    H119053   2.823   1.869   4.771  0.1820 -0.5637 -1.7158
 6363TIP3    H219054   2.689   1.799   4.764 -0.0417 -0.3403 -0.1909
 6364TIP3   OH219055   2.434   5.774   4.388 -0.2286  0.2172  0.4508
 6364TIP3    H119056   2.424   5.679   4.400 -2.3713  0.4268  0.6810
 6364TIP3    H219057   2.521   5.793   4.424  0.6903 -1.7798 -0.5074
 6365TIP3   OH219058   3.494   5.215   0.667  0.2280 -0.1616  0.2942
 6365TIP3    H119059   3.433   5.289   0.673  0.0447 -0.3301  0.5156
 6365TIP3    H219060   3.570   5.250   0.620 -0.0298  0.0580  0.0366
 6366TIP3   OH219061   6.527   6.564   3.440 -0.1421 -0.0207 -0.1910
 6366TIP3    H119062   6.576   6.583   3.520  0.7157 -0.0433 -0.7060
 6366TIP3    H219063   6.549   6.635   3.381 -0.3774 -0.2738 -0.5866
 6367TIP3   OH219064   6.476   5.498   0.404  0.5790 -0.0896 -0.1347
 6367TIP3    H119065   6.559   5.483   0.357  0.2216 -0.6109 -0.6115
 6367TIP3    H219066   6.435   5.570   0.358  2.0247  2.1130  1.7982
 6368TIP3   OH219067   6.680   2.797   4.471  0.3081 -0.2945 -0.7184
 6368TIP3    H119068   6.722   2.762   4.550  0.9079  0.4222 -0.7062
 6368TIP3    H219069   6.715   2.743   4.399  1.5898  0.5393 -0.7541
 6369TIP3   OH219070   0.041   1.598   1.756 -0.3329 -0.1563  0.1412
 6369TIP3    H119071  -0.054   1.586   1.759 -1.2684  4.4660 -1.8703
 6369TIP3    H219072   0.058   1.629   1.667  3.5765 -2.9289 -0.3573
 6370TIP3   OH219073   1.027   2.093   0.160 -0.1740 -0.0215  0.2922
 6370TIP3    H119074   1.024   2.042   0.079 -1.0963  0.0037  0.2968
 6370TIP3    H219075   0.938   2.088   0.194  0.5752 -1.4902  2.2372
 6371TIP3   OH219076   3.660   6.004   2.134 -0.1628 -0.6988 -0.4954
 6371TIP3    H119077   3.638   5.913   2.114  1.2521 -1.8977  2.8081
 6371TIP3    H219078   3.752   6.001   2.162 -0.1510  1.7201 -0.0657
 6372TIP3   OH219079   4.330   2.881   3.914 -0.1569  0.2204  0.2507
 6372TIP3    H119080   4.342   2.849   3.824 -0.5812  1.8850 -0.4446
 6372TIP3    H219081   4.294   2.969   3.903  0.8391  0.8965  2.0533
 6373TIP3   OH219082   6.130   2.601   2.408  0.3035  0.0579 -0.2858
 6373TIP3    H119083   6.101   2.690   2.426 -0.2303 -0.4886  1.8879
 6373TIP3    H219084   6.179   2.607   2.326 -1.7998  1.8866 -1.5031
 6374TIP3   OH219085   4.445   0.968   4.857  0.0486 -0.1094  0.6716
 6374TIP3    H119086   4.375   0.971   4.922  0.0890 -0.1771  0.7185
 6374TIP3    H219087   4.504   1.039   4.881 -0.8393  1.0057 -0.3161
 6375TIP3   OH219088   4.793   4.250   1.519 -0.1709  0.0225  0.0548
 6375TIP3    H119089   4.742   4.318   1.563 -0.6598  0.0848 -0.5890
 6375TIP3    H219090   4.763   4.168   1.558 -0.5138  0.0853 -0.0790
 6376TIP3   OH219091   5.188   3.032   1.526  0.6115  0.6412 -0.2488
 6376TIP3    H119092   5.141   3.060   1.605 -0.8667 -0.3262 -0.7390
 6376TIP3    H219093   5.158   3.092   1.458 -0.2775 -0.2335 -0.6525
 6377TIP3   OH219094   0.600   3.320   3.136 -0.6369  0.1241 -0.2862
 6377TIP3    H119095   0.669   3.314   3.202  0.1625  2.5893 -0.7841
 6377TIP3    H219096   0.646   3.343   3.056 -1.9579  1.2282 -0.7652
 6378TIP3   OH219097   0.905   4.538   1.877 -0.3218 -0.7663 -0.7184
 6378TIP3    H119098   0.813   4.512   1.886 -0.8602  0.1495 -2.7639
 6378TIP3    H219099   0.903   4.634   1.882  0.4752 -0.7289 -0.9784
 6379TIP3   OH219100   1.979   0.443   3.212 -0.2350  0.4763 -0.2305
 6379TIP3    H119101   1.900   0.450   3.266  0.7062  1.0919  1.1326
 6379TIP3    H219102   2.008   0.533   3.200  0.5472  0.2277 -0.2639
 6380TIP3   OH219103   1.532   1.916   2.811 -0.3399  0.4794 -0.2161
 6380TIP3    H119104   1.459   1.862   2.840  0.0684 -0.8794 -1.5638
 6380TIP3    H219105   1.595   1.853   2.775  2.2009  1.4419  2.2424
 6381TIP3   OH219106   6.993   2.560   0.440 -0.0268  0.0364  0.3082
 6381TIP3    H119107   7.028   2.550   0.351 -0.1075  0.8020  0.1800
 6381TIP3    H219108   6.939   2.639   0.435  0.8773  0.7442  1.3127
 6382TIP3   OH219109   4.135   0.464   5.442  0.0643  0.0307  0.4219
 6382TIP3    H119110   4.071   0.456   5.372 -0.1331 -0.2444  0.6322
 6382TIP3    H219111   4.147   0.558   5.453 -0.7660  0.0982  0.7983
 6383TIP3   OH219112   5.754   6.471   0.327  0.3257  0.1206  0.5190
 6383TIP3    H119113   5.716   6.384   0.312 -0.2816  0.3556  0.6615
 6383TIP3    H219114   5.848   6.458   0.314  0.2803 -0.6272  0.8498
 6384TIP3   OH219115   1.194   0.248   2.574  0.1121 -0.0572  0.6632
 6384TIP3    H119116   1.152   0.239   2.488  0.1484 -1.2416  0.7552
 6384TIP3    H219117   1.188   0.161   2.613  1.6855  0.0054  1.1301
 6385TIP3   OH219118   0.471   0.594   5.297  0.5942  0.3280 -0.5326
 6385TIP3    H119119   0.466   0.522   5.360 -0.4645  1.2118  0.4397
 6385TIP3    H219120   0.408   0.570   5.229 -1.1483  1.1509  0.7156
 6386TIP3   OH219121   6.834   5.069   5.325 -0.5896 -0.1553  0.4391
 6386TIP3    H119122   6.784   5.092   5.404 -1.1795  0.5509 -0.1246
 6386TIP3    H219123   6.835   5.149   5.273 -0.9278 -0.8432 -0.6550
 6387TIP3   OH219124   1.229   5.215   4.680 -0.1194 -0.1188 -0.4309
 6387TIP3    H119125   1.273   5.170   4.608  0.2667 -1.1925  0.4428
 6387TIP3    H219126   1.177   5.147   4.723 -1.9849  0.9415 -0.9036
 6388TIP3   OH219127   4.770   6.704   1.855 -0.1979  0.8163 -0.1110
 6388TIP3    H119128   4.725   6.778   1.897  0.0905  1.0300 -0.1702
 6388TIP3    H219129   4.862   6.728   1.858 -0.3053  2.1192 -3.2422
 6389TIP3   OH219130   5.792   2.680   1.220  0.5158 -0.1804 -0.2428
 6389TIP3    H119131   5.843   2.745   1.171 -0.4571  1.4620  0.7949
 6389TIP3    H219132   5.702   2.692   1.189  0.3507 -1.2450 -0.2178
 6390TIP3   OH219133   5.060   4.207   4.266 -0.2400  0.0308  0.0998
 6390TIP3    H119134   5.118   4.221   4.192 -1.2227  2.3298 -0.3165
 6390TIP3    H219135   4.996   4.143   4.234  0.8281 -0.9570 -0.1219
 6391TIP3   OH219136   1.859   0.272   3.636 -0.3575  0.0192  0.0157
 6391TIP3    H119137   1.809   0.335   3.689 -0.5733 -0.0806 -0.0690
 6391TIP3    H219138   1.946   0.310   3.630 -0.2370 -0.1237  0.7199
 6392TIP3   OH219139   2.860   3.522   2.302 -0.3386  0.0345  0.6796
 6392TIP3    H119140   2.895   3.482   2.223 -2.0611 -0.2825  0.0411
 6392TIP3    H219141   2.910   3.481   2.373 -0.2212 -1.2648 -0.1227
 6393TIP3   OH219142   2.984   4.409   2.573  0.3428  0.7980 -0.3712
 6393TIP3    H119143   2.991   4.345   2.644  1.8143  0.8267 -0.4655
 6393TIP3    H219144   2.897   4.394   2.537  0.1048 -0.1704  0.5434
 6394TIP3   OH219145   3.074   2.340   3.153  0.1024 -0.0157 -0.4264
 6394TIP3    H119146   2.986   2.351   3.118  0.1740  0.4009 -0.4788
 6394TIP3    H219147   3.067   2.367   3.244  0.7731  2.7786 -1.1178
 6395TIP3   OH219148   5.052   3.164   4.097  0.3548 -0.4691  0.2184
 6395TIP3    H119149   5.087   3.095   4.153  2.7122  0.3382 -0.1261
 6395TIP3    H219150   5.061   3.130   4.008 -0.8250 -0.6738  0.1656
 6396TIP3   OH219151   5.588   3.128   0.179 -0.0730 -0.3981 -0.4247
 6396TIP3    H119152   5.560   3.102   0.092 -2.1580 -1.2524  0.4535
 6396TIP3    H219153   5.545   3.067   0.238 -0.4178  1.4339  1.3468
 6397TIP3   OH219154   1.772   1.291   1.538  0.1807 -0.1358  0.3571
 6397TIP3    H119155   1.707   1.246   1.484  1.2346 -1.3771  0.0679
 6397TIP3    H219156   1.830   1.333   1.474  0.4082 -0.1305  0.5663
 6398TIP3   OH219157   1.570   2.536   2.397 -0.0426  0.3636 -0.2544
 6398TIP3    H119158   1.528   2.533   2.311  0.0666  1.4415 -0.3638
 6398TIP3    H219159   1.641   2.472   2.391  0.6870  1.2401 -1.3701
 6399TIP3   OH219160   6.124   6.296   3.074  0.1275 -0.5686 -0.0326
 6399TIP3    H119161   6.165   6.225   3.123  0.0701 -0.4071  0.2471
 6399TIP3    H219162   6.065   6.337   3.136 -0.7946 -1.0758 -0.5581
 6400TIP3   OH219163   2.573   3.943   1.471  0.0188 -0.0806  0.6930
 6400TIP3    H119164   2.495   3.988   1.440  0.1630 -0.4650 -0.2587
 6400TIP3    H219165   2.552   3.850   1.463  1.5504 -0.2914 -2.3632
 6401TIP3   OH219166   3.541   0.967   4.931  0.6377  0.2694 -0.2371
 6401TIP3    H119167   3.496   0.885   4.949  1.8257 -0.2766  0.4048
 6401TIP3    H219168   3.631   0.941   4.910  1.0944  1.4052  0.2119
 6402TIP3   OH219169   1.329   5.114   2.823  0.2348 -0.4089  0.0790
 6402TIP3    H119170   1.315   5.160   2.740 -2.0232 -3.5918 -1.5076
 6402TIP3    H219171   1.414   5.072   2.814  0.7684  0.6190  0.1468
 6403TIP3   OH219172   4.083   5.566   2.338 -0.3798  0.6626  0.0994
 6403TIP3    H119173   4.171   5.538   2.364 -0.6542 -0.7626 -0.4439
 6403TIP3    H219174   4.026   5.533   2.407 -0.5959  0.7548 -0.0354
 6404TIP3   OH219175   4.015   3.091   5.003  0.1094  0.2518  0.1775
 6404TIP3    H119176   3.932   3.044   5.003  0.1588 -0.0194 -2.4668
 6404TIP3    H219177   4.024   3.123   4.913  2.3445  1.2470  0.6760
 6405TIP3   OH219178   1.409   1.581   3.039 -0.0276  0.7430  0.0696
 6405TIP3    H119179   1.490   1.597   2.992  0.6569  0.2953  1.0713
 6405TIP3    H219180   1.376   1.669   3.060  0.5934  0.9199  0.3189
 6406TIP3   OH219181   4.916   4.171   2.863 -0.3215 -0.0798  0.4725
 6406TIP3    H119182   4.969   4.235   2.816  0.2665 -0.4976  0.5652
 6406TIP3    H219183   4.830   4.178   2.821 -0.4688  1.2600  0.9371
 6407TIP3   OH219184   2.485   2.259   0.398  0.1205 -0.9763  0.0666
 6407TIP3    H119185   2.396   2.229   0.414 -0.4949  0.5718 -0.3656
 6407TIP3    H219186   2.485   2.351   0.422  1.3439 -0.6959 -0.8829
 6408TIP3   OH219187   1.770   0.972   3.276 -0.2258  0.2714  0.2051
 6408TIP3    H119188   1.753   0.946   3.367 -0.2706 -1.1716 -0.1842
 6408TIP3    H219189   1.843   0.915   3.249 -1.2431 -0.4616 -1.1391
 6409TIP3   OH219190   1.275   4.258   0.534  0.0416  0.2931 -0.4512
 6409TIP3    H119191   1.348   4.220   0.486 -1.0014 -0.8257 -1.2026
 6409TIP3    H219192   1.215   4.185   0.549 -0.3571  0.9164  1.2697
 6410TIP3   OH219193   4.947   2.865   2.929 -0.3393 -0.1823 -0.5593
 6410TIP3    H119194   4.986   2.864   3.016 -1.1356  1.8476 -0.1220
 6410TIP3    H219195   5.005   2.811   2.876  1.6082  0.6322  0.6485
 6411TIP3   OH219196   3.389   5.764   1.527 -0.2799 -0.7884  0.1612
 6411TIP3    H119197   3.449   5.827   1.487 -3.2032  0.8608 -1.9238
 6411TIP3    H219198   3.397   5.780   1.621  0.0663  1.8060 -0.2338
 6412TIP3   OH219199   7.228   1.554   5.391  0.1573  0.2880  0.1147
 6412TIP3    H119200   7.228   1.570   5.297 -1.2526  1.1038  0.2272
 6412TIP3    H219201   7.144   1.513   5.409  0.6153 -0.3145  0.9665
 6413TIP3   OH219202   4.679   1.191   5.619  0.6417 -0.0381  0.2314
 6413TIP3    H119203   4.658   1.231   5.703 -0.2861 -1.5356  0.7576
 6413TIP3    H219204   4.642   1.250   5.553  1.8872  1.4522  0.8216
 6414TIP3   OH219205   0.897   3.725   2.042  0.0532  0.4673 -0.6320
 6414TIP3    H119206   0.913   3.820   2.041  1.1936  0.2791 -1.2457
 6414TIP3    H219207   0.922   3.695   1.955 -1.5995 -0.2183 -0.9072
 6415TIP3   OH219208   2.960   6.255   2.528 -0.0078  0.5077 -0.2116
 6415TIP3    H119209   2.923   6.175   2.567 -4.7491  1.9159 -1.1555
 6415TIP3    H219210   2.948   6.322   2.595  0.8951  1.0755 -0.6042
 6416TIP3   OH219211   4.235   6.553   1.462 -0.3731  0.1356  0.3789
 6416TIP3    H119212   4.327   6.549   1.487 -0.0991  0.6643 -0.4997
 6416TIP3    H219213   4.218   6.471   1.415  0.1598  0.8316 -1.0764
 6417TIP3   OH219214   6.485   6.574   4.977  0.0910  0.1309 -0.2661
 6417TIP3    H119215   6.580   6.566   4.978  0.3594  2.3478 -0.8146
 6417TIP3    H219216   6.452   6.484   4.980  2.1460 -0.6498  1.5731
 6418TIP3   OH219217   4.579   4.039   5.547 -0.1660 -0.4383  0.4278
 6418TIP3    H119218   4.665   4.080   5.559 -0.0613 -0.4269 -0.3433
 6418TIP3    H219219   4.553   4.013   5.636  0.2658  0.2862  0.7759
 6419TIP3   OH219220   5.681   5.259   2.258  0.5509 -0.3204 -0.4993
 6419TIP3    H119221   5.639   5.317   2.321  2.7142  1.3057 -0.4189
 6419TIP3    H219222   5.759   5.227   2.304  0.4366 -1.7095 -1.2455
 6420TIP3   OH219223   6.246   4.622   3.168  0.0472 -0.7424 -0.1570
 6420TIP3    H119224   6.167   4.670   3.192  0.6114 -0.6075  1.5952
 6420TIP3    H219225   6.311   4.689   3.150  0.3477 -0.8283  0.5590
 6421TIP3   OH219226   4.309   0.109   2.908  0.5394  0.3120  0.1889
 6421TIP3    H119227   4.291   0.078   2.997  1.5629 -0.2267  0.2138
 6421TIP3    H219228   4.354   0.193   2.921  0.5638  0.3009  0.1764
 6422TIP3   OH219229   5.023   4.767   5.238  0.2873  0.3981 -0.4579
 6422TIP3    H119230   4.985   4.765   5.325  0.0655  0.7033 -0.5450
 6422TIP3    H219231   4.989   4.689   5.195  1.2595 -0.3454  0.0795
 6423TIP3   OH219232   2.671   6.048   0.210  0.3729  0.5164  0.1302
 6423TIP3    H119233   2.671   5.959   0.245  0.2698 -0.1933 -1.5957
 6423TIP3    H219234   2.636   6.039   0.122  0.4949  2.2626 -0.1236
 6424TIP3   OH219235   5.769   3.348   1.776  0.1514 -0.3378  0.9521
 6424TIP3    H119236   5.763   3.261   1.738  0.4981 -0.2314  0.6474
 6424TIP3    H219237   5.854   3.382   1.747 -0.4732  0.5562  0.0798
 6425TIP3   OH219238   4.287   5.442   3.283  0.2470 -0.6411  0.1091
 6425TIP3    H119239   4.243   5.442   3.197 -0.9888 -0.6847  0.7168
 6425TIP3    H219240   4.334   5.359   3.286  0.0860 -0.7573 -0.4340
 6426TIP3   OH219241   3.389   4.870   4.243 -0.4005  0.0123 -0.0951
 6426TIP3    H119242   3.455   4.807   4.215 -1.1070 -0.7651 -0.0521
 6426TIP3    H219243   3.319   4.816   4.281 -0.8346  0.8466  0.3187
 6427TIP3   OH219244   1.513   0.618   2.225  0.2392  0.6129  0.1991
 6427TIP3    H119245   1.427   0.645   2.257  0.6015  0.2227  1.5484
 6427TIP3    H219246   1.509   0.522   2.224  1.0142  0.5459  1.3695
 6428TIP3   OH219247   0.098   3.483   2.004  0.3834  0.2407 -0.1731
 6428TIP3    H119248   0.020   3.494   1.950 -0.5192 -0.4028  0.9613
 6428TIP3    H219249   0.154   3.558   1.981 -0.7832  0.9993 -0.6231
 6429TIP3   OH219250   4.789   6.534   1.554  0.2546  0.0421  0.3281
 6429TIP3    H119251   4.746   6.462   1.508 -0.2003  0.1418  0.5859
 6429TIP3    H219252   4.837   6.492   1.625  0.1280 -0.0235  0.3756
 6430TIP3   OH219253   3.166   5.895   3.769 -0.5770  0.4944  0.6876
 6430TIP3    H119254   3.215   5.871   3.848  0.0319 -0.2226  0.1120
 6430TIP3    H219255   3.208   5.975   3.738 -0.4874  0.4953  0.8095
 6431TIP3   OH219256   1.707   3.760   2.344  0.2514  0.0351  0.1852
 6431TIP3    H119257   1.794   3.788   2.370  0.8554 -2.0541  0.5700
 6431TIP3    H219258   1.703   3.777   2.250  1.0406  0.1865  0.1743
 6432TIP3   OH219259   6.475   0.917   1.463  0.3583  0.0984 -0.1157
 6432TIP3    H119260   6.518   0.832   1.466 -0.2611 -0.2681 -1.0966
 6432TIP3    H219261   6.546   0.980   1.453  0.6888 -0.5102 -2.0229
 6433TIP3   OH219262   6.708   2.471   5.435 -0.4979  0.1006  0.4471
 6433TIP3    H119263   6.765   2.405   5.474  0.5702 -0.0648 -1.3075
 6433TIP3    H219264   6.738   2.554   5.471  0.3260 -0.0678  0.1601
 6434TIP3   OH219265   2.551   5.748   4.928  0.7735 -0.7035  0.5300
 6434TIP3    H119266   2.481   5.682   4.938  0.9567 -0.8703  0.7299
 6434TIP3    H219267   2.572   5.774   5.017 -0.4165  0.8275  0.3973
 6435TIP3   OH219268   0.032   1.346   4.270  0.2171 -0.6240 -0.0421
 6435TIP3    H119269   0.123   1.340   4.241 -0.1557  0.2511 -1.5206
 6435TIP3    H219270  -0.014   1.283   4.215  0.0093 -1.5470  1.1609
 6436TIP3   OH219271   1.394   5.734   3.991 -0.5299  0.0259 -0.0002
 6436TIP3    H119272   1.304   5.761   4.008 -0.7335 -0.1857 -0.7382
 6436TIP3    H219273   1.429   5.800   3.931 -0.1835  0.1113  0.2852
 6437TIP3   OH219274   4.867   0.460   1.863  0.4135  0.8929  0.0017
 6437TIP3    H119275   4.936   0.523   1.881  0.5740  0.5483  0.5952
 6437TIP3    H219276   4.909   0.393   1.809  0.7832  0.2273  1.0863
 6438TIP3   OH219277   0.121   0.095   2.129  0.3789 -0.4233  1.0237
 6438TIP3    H119278   0.032   0.060   2.124  0.2358 -0.1476  1.5422
 6438TIP3    H219279   0.175   0.019   2.149  0.1875 -0.5020  1.2469
 6439TIP3   OH219280   6.113   5.287   2.279  0.5655 -0.4008  0.0531
 6439TIP3    H119281   6.128   5.327   2.193  2.1408 -0.5765  0.2218
 6439TIP3    H219282   6.032   5.237   2.268 -0.2504  1.0382 -0.7922
 6440TIP3   OH219283   1.352   1.468   3.512  0.1479  0.6465 -0.3064
 6440TIP3    H119284   1.287   1.531   3.544 -1.4573 -1.0943 -0.0042
 6440TIP3    H219285   1.382   1.423   3.591 -0.3672 -0.4586 -0.7242
 6441TIP3   OH219286   3.368   0.840   1.011  0.0502  0.3024  0.0910
 6441TIP3    H119287   3.349   0.842   1.105 -0.5084  1.6662 -0.0232
 6441TIP3    H219288   3.459   0.810   1.005 -0.3049 -1.0272  0.9772
 6442TIP3   OH219289   6.673   5.633   2.801  0.2817 -0.2060  0.1574
 6442TIP3    H119290   6.620   5.593   2.732  0.9500  0.7020 -0.9116
 6442TIP3    H219291   6.730   5.562   2.831 -0.0205 -0.6177 -0.2224
 6443TIP3   OH219292   2.279   1.675   1.171 -0.6067  0.0635  0.1246
 6443TIP3    H119293   2.221   1.749   1.151 -0.7932 -0.0520  0.2369
 6443TIP3    H219294   2.365   1.715   1.184 -0.9378  0.4075  1.3807
 6444TIP3   OH219295   3.424   6.221   0.950  0.4232  0.2873  0.2189
 6444TIP3    H119296   3.412   6.298   0.895 -1.7801  0.5276  0.9201
 6444TIP3    H219297   3.456   6.256   1.033  2.2146  0.0971 -0.3646
 6445TIP3   OH219298   1.216   3.106   2.792  0.2017  0.4277 -0.1779
 6445TIP3    H119299   1.224   3.034   2.854 -2.1066 -0.2672 -0.5928
 6445TIP3    H219300   1.244   3.069   2.708  3.4777  1.4118  0.3516
 6446TIP3   OH219301   6.211   2.379   2.878  0.2805  0.1014  0.1798
 6446TIP3    H119302   6.262   2.396   2.799 -1.9307  0.2297 -1.3431
 6446TIP3    H219303   6.202   2.284   2.880 -0.9340  0.1684 -0.6645
 6447TIP3   OH219304   0.284   4.069   0.909  0.1394 -1.0148  0.0348
 6447TIP3    H119305   0.266   4.163   0.905  1.9381 -0.6483 -0.4617
 6447TIP3    H219306   0.200   4.029   0.933 -0.9533  0.5970 -0.9249
 6448TIP3   OH219307   1.505   0.083   1.334  0.0334 -0.0252  0.3670
 6448TIP3    H119308   1.533   0.061   1.245 -2.1502 -0.5275 -0.2750
 6448TIP3    H219309   1.556   0.026   1.391  0.5901 -0.5813 -0.6616
 6449TIP3   OH219310   4.755   4.459   4.347 -0.2975  0.1178 -0.0928
 6449TIP3    H119311   4.796   4.463   4.260 -0.7418  0.5357 -0.2902
 6449TIP3    H219312   4.696   4.534   4.348 -0.1160  0.2547  0.6670
 6450TIP3   OH219313   2.818   2.593   3.349  0.4296 -0.4908 -0.1723
 6450TIP3    H119314   2.727   2.563   3.350 -0.6827  2.4143  2.8677
 6450TIP3    H219315   2.812   2.689   3.351  3.4881 -0.2016  1.2435
 6451TIP3   OH219316   2.073   6.514   2.116  0.0960  0.3297 -0.2684
 6451TIP3    H119317   2.008   6.501   2.185 -0.9742  0.3812 -1.2222
 6451TIP3    H219318   2.109   6.427   2.101  1.3179  0.5301  1.2376
 6452TIP3   OH219319   2.161   5.903   4.683  0.3972  0.0118  0.0558
 6452TIP3    H119320   2.177   5.862   4.598 -1.9564  0.1855 -0.5163
 6452TIP3    H219321   2.070   5.883   4.703  0.7085  0.5506  2.2485
 6453TIP3   OH219322   3.629   3.222   0.291 -0.5639  0.6621 -0.2432
 6453TIP3    H119323   3.654   3.155   0.356 -1.2766  0.9829  0.3767
 6453TIP3    H219324   3.554   3.184   0.246 -0.2108  0.5380 -0.7413
 6454TIP3   OH219325   0.875   4.615   2.181  0.2570  0.5002  0.3631
 6454TIP3    H119326   0.877   4.556   2.106  0.6505  1.6369 -0.5472
 6454TIP3    H219327   0.844   4.561   2.253  1.2268 -0.9853 -0.2889
 6455TIP3   OH219328   4.708   0.738   5.864 -0.2440 -0.6609 -0.1734
 6455TIP3    H119329   4.710   0.702   5.775 -0.2159 -0.8277 -0.1062
 6455TIP3    H219330   4.730   0.830   5.853  2.2457 -1.1666 -0.0947
 6456TIP3   OH219331   0.139   4.917   1.749 -0.4938  0.3021 -0.5201
 6456TIP3    H119332   0.049   4.903   1.778 -0.4826 -2.4642 -1.5794
 6456TIP3    H219333   0.186   4.838   1.775  0.7431  0.0513 -3.2006
 6457TIP3   OH219334   5.674   0.650   5.368 -0.3588  0.0095  0.1636
 6457TIP3    H119335   5.645   0.565   5.334 -1.7703 -0.0766  1.4991
 6457TIP3    H219336   5.675   0.639   5.463  3.1176  0.3742  0.3059
 6458TIP3   OH219337   6.269   1.815   0.605 -0.1028  0.2369 -0.1670
 6458TIP3    H119338   6.173   1.814   0.606 -0.1019  0.1872 -0.1343
 6458TIP3    H219339   6.294   1.745   0.546 -0.0699 -0.4577  0.6545
 6459TIP3   OH219340   3.800   2.522   2.136 -0.6207  0.2731  0.1153
 6459TIP3    H119341   3.860   2.508   2.210 -0.1034  0.1894 -0.3120
 6459TIP3    H219342   3.858   2.541   2.062 -1.1701  1.2356 -0.0827
 6460TIP3   OH219343   0.409   0.558   1.629 -0.2150  0.2841 -0.0424
 6460TIP3    H119344   0.411   0.466   1.656  0.0334  0.4239  0.4131
 6460TIP3    H219345   0.415   0.607   1.711  1.5478  0.7142 -0.3863
 6461TIP3   OH219346   1.396   3.371   0.640 -0.0203 -0.2456  0.3565
 6461TIP3    H119347   1.416   3.447   0.585  0.3536 -1.3967 -1.1429
 6461TIP3    H219348   1.368   3.409   0.723  2.6440  1.5252  0.5530
 6462TIP3   OH219349   2.917   2.759   3.650  0.2787  0.8315  0.6876
 6462TIP3    H119350   2.939   2.710   3.729 -0.0668  0.2544  0.4341
 6462TIP3    H219351   2.823   2.745   3.639  0.0575  2.0699  0.9592
 6463TIP3   OH219352   2.254   4.083   4.979 -0.1128 -0.4443 -0.5499
 6463TIP3    H119353   2.210   4.022   4.920 -0.6758 -0.2387 -0.3464
 6463TIP3    H219354   2.249   4.042   5.065 -4.3876  1.7582  0.4835
 6464TIP3   OH219355   0.634   0.900   5.650  0.1697  0.5178  0.5620
 6464TIP3    H119356   0.585   0.980   5.631  0.1582  0.6920  1.2968
 6464TIP3    H219357   0.655   0.906   5.743 -0.1713 -0.5238  0.7264
 6465TIP3   OH219358   1.833   0.761   2.894 -0.1701  0.4514 -0.6966
 6465TIP3    H119359   1.906   0.787   2.950 -1.5035  1.2080  0.7726
 6465TIP3    H219360   1.786   0.694   2.943 -0.7790  0.3548 -1.3797
 6466TIP3   OH219361   1.118   5.629   3.723  0.0670 -0.0730  0.1972
 6466TIP3    H119362   1.123   5.538   3.751 -1.2757 -0.3512 -0.3736
 6466TIP3    H219363   1.094   5.678   3.802 -1.6643 -0.5706  0.0195
 6467TIP3   OH219364   4.908   6.152   0.452 -0.4622 -0.0196 -0.8018
 6467TIP3    H119365   4.852   6.089   0.407 -0.0958 -1.1981  0.3416
 6467TIP3    H219366   4.848   6.218   0.486 -1.3672 -1.7831  1.2633
 6468TIP3   OH219367   1.620   5.660   0.557 -0.4050 -0.1037  0.4921
 6468TIP3    H119368   1.685   5.625   0.496 -0.6595  0.6863 -0.2526
 6468TIP3    H219369   1.657   5.644   0.644  0.1694 -0.8396  0.1247
 6469TIP3   OH219370   5.997   3.589   3.331 -0.5171 -0.4410 -0.6359
 6469TIP3    H119371   5.905   3.568   3.350 -0.3146 -0.1841  0.7585
 6469TIP3    H219372   6.014   3.668   3.383  0.1980  0.1377 -1.7191
 6470TIP3   OH219373   6.783   3.502   4.810 -0.2278 -0.3320  0.2065
 6470TIP3    H119374   6.813   3.541   4.728  1.0650 -3.2261 -0.8620
 6470TIP3    H219375   6.853   3.519   4.872 -0.7598  1.0263  0.4515
 6471TIP3   OH219376   4.644   6.221   3.961  0.2291 -0.4956  0.1262
 6471TIP3    H119377   4.734   6.245   3.984  0.0892  1.0628 -0.8235
 6471TIP3    H219378   4.636   6.242   3.868 -1.5145  0.7485  0.5022
 6472TIP3   OH219379   7.172   2.661   3.180 -0.1388 -0.0921  0.2017
 6472TIP3    H119380   7.182   2.620   3.095  2.7198  1.0245 -0.1169
 6472TIP3    H219381   7.166   2.589   3.242  0.6447 -0.9521 -0.7018
 6473TIP3   OH219382   5.977   0.710   1.907  0.6433  0.1950  0.3389
 6473TIP3    H119383   6.061   0.703   1.861 -0.3072  1.3559 -1.7090
 6473TIP3    H219384   5.965   0.804   1.920 -1.3190  0.2741 -1.4674
 6474TIP3   OH219385   2.220   4.755   5.584 -0.2774 -0.4563  0.1756
 6474TIP3    H119386   2.215   4.690   5.653 -0.8669 -0.7383 -0.1226
 6474TIP3    H219387   2.136   4.802   5.588  0.4486  0.8532  0.9185
 6475TIP3   OH219388   0.821   1.528   1.424  0.0744 -0.1913 -0.1577
 6475TIP3    H119389   0.908   1.521   1.464  0.2664 -0.8477 -0.6736
 6475TIP3    H219390   0.838   1.555   1.334 -0.1501 -1.7305 -0.6845
 6476TIP3   OH219391   6.264   0.395   3.159 -0.7883 -0.1315 -0.0307
 6476TIP3    H119392   6.215   0.463   3.114 -1.4992 -0.0489  0.8391
 6476TIP3    H219393   6.207   0.318   3.155 -1.1296  0.0302  1.1978
 6477TIP3   OH219394   5.758   3.709   5.128 -0.1797 -0.8787  0.3389
 6477TIP3    H119395   5.670   3.677   5.108 -0.4664 -0.1884  0.4722
 6477TIP3    H219396   5.797   3.728   5.042 -1.0626  1.1667  0.3441
 6478TIP3   OH219397   6.437   3.333   5.596  1.0443  0.4599  0.1836
 6478TIP3    H119398   6.367   3.363   5.539  1.6538 -0.4514 -1.0868
 6478TIP3    H219399   6.402   3.255   5.638  0.2371  1.6692  1.8627
 6479TIP3   OH219400   2.106   4.571   5.203 -0.0047 -0.4891  0.0459
 6479TIP3    H119401   2.103   4.505   5.134 -1.8646 -0.5519  0.1377
 6479TIP3    H219402   2.109   4.654   5.156 -0.4593 -0.5590 -0.1166
 6480TIP3   OH219403   3.425   0.250   2.336 -0.6089  0.4046 -0.0033
 6480TIP3    H119404   3.343   0.294   2.315 -2.1958 -1.5829  1.5086
 6480TIP3    H219405   3.426   0.246   2.432  0.0599 -1.6366 -0.0417
 6481TIP3   OH219406   4.889   3.090   2.437 -0.2190  0.2594  0.1717
 6481TIP3    H119407   4.852   3.178   2.429 -0.8584 -0.0633 -0.5761
 6481TIP3    H219408   4.905   3.063   2.347  1.0597  0.0443  0.4416
 6482TIP3   OH219409   3.583   2.578   1.510  0.3013 -0.1405 -0.5951
 6482TIP3    H119410   3.605   2.502   1.564 -1.1281 -0.6097 -0.6280
 6482TIP3    H219411   3.573   2.650   1.572 -0.0081 -0.3716 -0.3746
 6483TIP3   OH219412   2.344   0.712   1.978 -0.0754 -0.1183  0.0387
 6483TIP3    H119413   2.361   0.736   1.887 -0.6067  0.2192  0.0282
 6483TIP3    H219414   2.272   0.768   2.005  0.7753  0.5374  1.0041
 6484TIP3   OH219415   0.222   2.207   3.786  0.1536 -0.1757  0.3703
 6484TIP3    H119416   0.152   2.271   3.792  0.4033  0.2786 -1.0754
 6484TIP3    H219417   0.195   2.149   3.715  0.6885 -0.7033  0.5875
 6485TIP3   OH219418   3.965   1.424   0.827 -0.2407  0.2937  0.2614
 6485TIP3    H119419   3.977   1.395   0.917 -0.0975  0.9501  0.4613
 6485TIP3    H219420   3.878   1.393   0.803 -0.0890 -0.2936  0.4641
 6486TIP3   OH219421   2.113   3.910   2.162  0.0217 -0.2381  0.0242
 6486TIP3    H119422   2.165   3.982   2.198 -1.0976  0.0784  1.0779
 6486TIP3    H219423   2.161   3.883   2.084  1.8988 -0.1327  1.0692
 6487TIP3   OH219424   2.731   0.607   3.322 -0.2587  0.5122 -0.0176
 6487TIP3    H119425   2.702   0.696   3.301 -2.0026 -0.3783 -1.6262
 6487TIP3    H219426   2.815   0.599   3.278 -1.5475  0.3805 -2.6130
 6488TIP3   OH219427   2.245   2.314   4.464 -0.3073  0.0318  0.6546
 6488TIP3    H119428   2.209   2.234   4.505  1.2072 -1.1990 -0.3209
 6488TIP3    H219429   2.171   2.352   4.418 -0.7157 -1.7148 -0.2064
 6489TIP3   OH219430   5.126   2.200   3.562  0.5863  0.0733  0.3159
 6489TIP3    H119431   5.193   2.164   3.621 -0.4954 -2.9265 -0.1483
 6489TIP3    H219432   5.043   2.183   3.606 -0.0570  1.0055 -0.4880
 6490TIP3   OH219433   1.140   3.620   2.489  0.8385  0.4531  0.2903
 6490TIP3    H119434   1.180   3.683   2.550 -0.0550  1.0785  0.2521
 6490TIP3    H219435   1.094   3.675   2.426  1.8197 -0.1891 -1.0130
 6491TIP3   OH219436   4.264   3.451   4.107  0.5583 -0.3840 -0.0758
 6491TIP3    H119437   4.282   3.478   4.017  0.2166 -0.5681 -0.1994
 6491TIP3    H219438   4.341   3.401   4.134  1.3904  1.0393  0.2894
 6492TIP3   OH219439   2.838   3.754   4.703  0.1709  0.8742 -0.0935
 6492TIP3    H119440   2.899   3.819   4.739  0.7476 -0.1077  0.7267
 6492TIP3    H219441   2.779   3.735   4.776 -0.0723  0.5599 -0.3745
 6493TIP3   OH219442   1.256   0.631   2.366  0.4883  0.1618 -0.1861
 6493TIP3    H119443   1.263   0.651   2.459  2.6462 -0.6105 -0.1127
 6493TIP3    H219444   1.180   0.573   2.360  1.6640 -1.7240  1.5308
 6494TIP3   OH219445   3.773   4.479   0.225  0.4667 -0.2518  0.5810
 6494TIP3    H119446   3.757   4.574   0.222  0.1744 -0.3168 -0.1406
 6494TIP3    H219447   3.861   4.469   0.189 -0.0270 -0.3591 -0.6511
 6495TIP3   OH219448   3.955   1.232   2.285 -0.0824 -0.3081  0.7179
 6495TIP3    H119449   3.934   1.155   2.336  0.9415 -1.4873 -0.5430
 6495TIP3    H219450   4.019   1.279   2.338  1.2219 -1.6824  0.4313
 6496TIP3   OH219451   3.067   5.910   3.376  0.1852  0.0817 -0.5233
 6496TIP3    H119452   3.076   5.876   3.287  0.7958  1.4812 -1.0276
 6496TIP3    H219453   3.149   5.887   3.419  0.3608  0.4053 -0.6834
 6497TIP3   OH219454   0.231   2.765   0.922  0.0704 -0.4086 -0.2557
 6497TIP3    H119455   0.168   2.768   0.993 -0.0993 -1.8190 -0.3175
 6497TIP3    H219456   0.184   2.725   0.849 -0.5980  3.2988 -2.1122
 6498TIP3   OH219457   0.289   2.297   1.431 -0.4573 -0.4266 -0.1246
 6498TIP3    H119458   0.292   2.343   1.515  0.5354  0.9893 -0.8909
 6498TIP3    H219459   0.288   2.204   1.454 -1.9980 -0.0672  1.4684
 6499TIP3   OH219460   4.353   1.832   1.871  0.3084  0.3918  0.1301
 6499TIP3    H119461   4.415   1.760   1.860 -0.1164 -0.0198  0.3793
 6499TIP3    H219462   4.269   1.795   1.845 -0.0738  0.5277  1.1263
 6500TIP3   OH219463   5.417   4.335   3.761  0.3827 -0.1233 -0.2653
 6500TIP3    H119464   5.379   4.404   3.815 -1.9409 -0.7889 -0.9677
 6500TIP3    H219465   5.351   4.265   3.759  1.4669 -1.1884 -1.8652
 6501TIP3   OH219466   5.858   0.802   4.520  0.4174 -0.3168  0.2832
 6501TIP3    H119467   5.765   0.788   4.500  0.3975  0.7668 -0.5314
 6501TIP3    H219468   5.858   0.880   4.576  0.8200 -0.3629  0.3446
 6502TIP3   OH219469   6.903   3.006   4.432  0.2939 -0.0037 -0.3273
 6502TIP3    H119470   6.945   2.946   4.370 -0.6703 -1.0686  0.0195
 6502TIP3    H219471   6.830   2.956   4.468 -1.6366  1.9503 -1.3149
 6503TIP3   OH219472   2.741   6.410   2.899  1.0205 -0.2372 -0.2054
 6503TIP3    H119473   2.692   6.465   2.960  0.3210  0.1532 -1.0916
 6503TIP3    H219474   2.690   6.330   2.891  0.9045 -0.1342 -0.5533
 6504TIP3   OH219475   6.144   3.363   2.203 -0.3074  0.0341  0.2653
 6504TIP3    H119476   6.235   3.383   2.183 -0.7272  0.9224 -0.9373
 6504TIP3    H219477   6.096   3.443   2.178 -1.5304 -0.8206 -0.2323
 6505TIP3   OH219478   0.276   6.461   3.625  0.2156  0.1538  0.3677
 6505TIP3    H119479   0.192   6.505   3.642 -0.2443  0.6002 -2.6181
 6505TIP3    H219480   0.255   6.368   3.624 -0.0403  0.2067  0.6467
 6506TIP3   OH219481   3.530   1.373   1.367  0.1054 -0.0393 -0.0666
 6506TIP3    H119482   3.549   1.463   1.341 -0.0006  0.4358  1.4287
 6506TIP3    H219483   3.449   1.378   1.417  0.1922 -0.9536  0.1935
 6507TIP3   OH219484   4.449   0.818   5.295  0.2978  0.2325  0.0321
 6507TIP3    H119485   4.416   0.769   5.370 -0.8964 -0.0301 -0.6398
 6507TIP3    H219486   4.376   0.874   5.269  0.7547  0.4436 -0.8351
 6508TIP3   OH219487   0.468   4.565   0.778  0.3925  0.1021  0.2654
 6508TIP3    H119488   0.403   4.636   0.784 -0.3710 -0.5462 -0.0951
 6508TIP3    H219489   0.415   4.485   0.778  1.3373 -0.6956  3.9330
 6509TIP3   OH219490   1.795   0.493   3.411  0.0650 -0.6676  0.4754
 6509TIP3    H119491   1.807   0.534   3.497 -1.5514  0.0368  0.3877
 6509TIP3    H219492   1.747   0.557   3.360 -0.5988 -1.8112 -0.3803
 6510TIP3   OH219493   2.253   0.366   1.720 -0.4949 -0.2616  0.1525
 6510TIP3    H119494   2.198   0.289   1.701  1.3657 -1.6531  0.0927
 6510TIP3    H219495   2.226   0.431   1.656 -2.7585 -0.5016  0.7801
 6511TIP3   OH219496   0.976   1.955   4.295 -0.7543 -0.1712 -1.0234
 6511TIP3    H119497   1.057   1.980   4.250  0.9374 -0.8469  1.4322
 6511TIP3    H219498   0.971   2.013   4.371 -2.3642 -0.4530 -0.8654
 6512TIP3   OH219499   0.054   3.921   1.000  0.0686 -0.2208  0.4083
 6512TIP3    H119500   0.009   3.837   1.002  1.1612 -0.8252  0.3901
 6512TIP3    H219501  -0.002   3.977   0.946 -0.3824 -1.1007 -0.0564
 6513TIP3   OH219502   2.704   4.478   5.314  0.1846  0.4354  0.1598
 6513TIP3    H119503   2.674   4.417   5.381  0.2171 -1.2084 -1.2476
 6513TIP3    H219504   2.624   4.506   5.269  0.1257  1.7983  1.0345
 6514TIP3   OH219505   5.193   4.436   5.112  0.6119 -0.1529 -0.1950
 6514TIP3    H119506   5.214   4.350   5.149 -0.7760 -1.0534 -1.4058
 6514TIP3    H219507   5.105   4.456   5.145  0.4046  0.2170 -0.9541
 6515TIP3   OH219508   3.337   0.783   4.803 -0.1185 -0.2491  0.2022
 6515TIP3    H119509   3.429   0.783   4.778  0.1710  0.0950  1.2275
 6515TIP3    H219510   3.290   0.770   4.720  0.8277  0.0355 -0.3971
 6516TIP3   OH219511   3.514   6.272   1.226  0.2614  0.2368 -0.4968
 6516TIP3    H119512   3.421   6.290   1.228 -0.1891 -1.6875  2.3807
 6516TIP3    H219513   3.552   6.335   1.287  0.6246  0.0750 -0.5511
 6517TIP3   OH219514   2.168   5.219   4.586 -0.2868  0.1318 -0.0554
 6517TIP3    H119515   2.224   5.227   4.508 -0.0576 -2.6152 -0.2788
 6517TIP3    H219516   2.228   5.226   4.660 -0.4751  2.5446 -0.0752
 6518TIP3   OH219517   1.026   4.196   1.533 -0.3022  0.1253  0.5152
 6518TIP3    H119518   0.940   4.164   1.561 -0.2456  0.2869  0.8720
 6518TIP3    H219519   1.006   4.264   1.468 -0.4312 -0.2931  0.1166
 6519TIP3   OH219520   3.410   3.966   3.658  0.6909 -0.7689  0.0748
 6519TIP3    H119521   3.386   3.988   3.568  0.7208 -0.8461  0.0473
 6519TIP3    H219522   3.344   3.902   3.685 -0.2896  0.4427  0.6712
 6520TIP3   OH219523   5.328   4.711   5.725 -0.6146 -0.3270  0.4360
 6520TIP3    H119524   5.260   4.773   5.699  0.9102  0.7742 -1.1334
 6520TIP3    H219525   5.333   4.649   5.652  2.2554  1.5498 -1.1437
 6521TIP3   OH219526   6.364   0.803   0.166  0.1939  0.2649 -0.0026
 6521TIP3    H119527   6.274   0.803   0.134  0.8692 -0.2126 -2.0499
 6521TIP3    H219528   6.378   0.714   0.199  0.0421  0.2107 -0.0834
 6522TIP3   OH219529   3.193   5.136   4.929 -0.4233 -0.2804 -0.1247
 6522TIP3    H119530   3.270   5.157   4.982  0.2381  1.7697 -1.7875
 6522TIP3    H219531   3.128   5.202   4.954 -0.6993 -0.3440 -0.6656
 6523TIP3   OH219532   3.827   1.865   5.185 -0.1793  0.4993 -0.1282
 6523TIP3    H119533   3.741   1.898   5.156 -0.4873  0.2227  0.4521
 6523TIP3    H219534   3.815   1.771   5.191 -0.0966  0.5359  0.7746
 6524TIP3   OH219535   2.169   0.133   0.150  0.2484  0.3655  0.5408
 6524TIP3    H119536   2.236   0.093   0.096  0.6156  0.0730  1.1964
 6524TIP3    H219537   2.217   0.177   0.220 -0.2285 -2.2515  2.7061
 6525TIP3   OH219538   1.444   1.133   2.796 -0.1219  0.2923 -0.0581
 6525TIP3    H119539   1.502   1.189   2.848 -0.1429 -0.1454  0.4540
 6525TIP3    H219540   1.502   1.065   2.760 -0.2365  0.1237  0.0716
 6526TIP3   OH219541   5.047   1.427   5.239 -0.3299  0.8011 -0.5548
 6526TIP3    H119542   5.038   1.471   5.154 -0.1148  1.1835 -0.3804
 6526TIP3    H219543   5.085   1.493   5.297 -0.4970  0.5472 -0.1513
 6527TIP3   OH219544   1.141   4.612   0.226 -0.2799  0.7185 -0.3572
 6527TIP3    H119545   1.218   4.639   0.276 -0.6299  0.1480  0.5031
 6527TIP3    H219546   1.126   4.521   0.252 -1.4242  0.9184 -0.2882
 6528TIP3   OH219547   4.231   0.370   0.054  0.1122 -0.4150  0.1909
 6528TIP3    H119548   4.228   0.423   0.134 -1.3373 -0.9154  0.5092
 6528TIP3    H219549   4.287   0.296   0.077  0.8879  0.1793  0.2505
 6529TIP3   OH219550   6.430   1.085   3.757  0.3784 -0.4117 -0.4201
 6529TIP3    H119551   6.447   1.003   3.802 -0.4459 -2.1891 -3.1166
 6529TIP3    H219552   6.340   1.108   3.781  0.9478  0.3535  1.1541
 6530TIP3   OH219553   3.876   2.126   0.044  0.2202  0.2008  0.3780
 6530TIP3    H119554   3.914   2.038   0.035 -2.0728 -1.0517  2.1211
 6530TIP3    H219555   3.944   2.177   0.088  1.8449 -0.4513 -1.2437
 6531TIP3   OH219556   6.073   3.365   1.754  0.6788 -0.2997 -0.4927
 6531TIP3    H119557   6.151   3.340   1.804  0.9246  0.1676 -0.6390
 6531TIP3    H219558   6.102   3.363   1.663  0.4191 -0.4698 -0.5739
 6532TIP3   OH219559   7.186   1.996   1.020  0.4261 -0.0558 -0.5678
 6532TIP3    H119560   7.128   2.069   0.999 -1.2325 -1.2929 -0.5250
 6532TIP3    H219561   7.185   1.941   0.942  0.7898 -0.5685 -0.2228
 6533TIP3   OH219562   6.248   1.689   0.826  0.3711  0.1832 -0.3135
 6533TIP3    H119563   6.282   1.737   0.901 -1.9024  0.5095  0.5656
 6533TIP3    H219564   6.254   1.751   0.753  1.4053  0.3036 -0.1378
 6534TIP3   OH219565   3.704   2.535   3.385 -0.2738 -0.0370  0.2011
 6534TIP3    H119566   3.701   2.561   3.293  1.0530 -0.5478 -0.0008
 6534TIP3    H219567   3.612   2.523   3.409 -0.6452  0.3009 -0.9926
 6535TIP3   OH219568   5.972   3.467   3.085 -0.0762 -0.5575  0.3122
 6535TIP3    H119569   5.982   3.501   3.174  0.9993  0.2539 -0.0886
 6535TIP3    H219570   6.060   3.436   3.062 -0.0662  0.2736 -0.8487
 6536TIP3   OH219571   7.047   1.833   5.672 -0.0799  0.2624 -0.0013
 6536TIP3    H119572   7.050   1.925   5.698  0.2116 -0.2643  2.0548
 6536TIP3    H219573   7.134   1.815   5.637 -0.3739  0.9284 -1.1205
 6537TIP3   OH219574   3.492   6.077   0.323  0.5518 -0.1691 -0.2188
 6537TIP3    H119575   3.576   6.110   0.354  0.0140  0.0156  1.0840
 6537TIP3    H219576   3.498   5.982   0.334 -0.3507 -0.0044  2.4808
 6538TIP3   OH219577   5.644   3.916   4.293  0.1214 -0.0906 -0.3118
 6538TIP3    H119578   5.635   3.948   4.382  0.5385  3.7773 -1.4639
 6538TIP3    H219579   5.734   3.883   4.287  0.8436  1.6731  0.2164
 6539TIP3   OH219580   2.300   6.190   0.095  0.4547 -0.2878  0.2011
 6539TIP3    H119581   2.290   6.281   0.121  1.6135  0.1896 -0.8933
 6539TIP3    H219582   2.274   6.189   0.003  1.8224 -0.7459 -0.2040
 6540TIP3   OH219583   2.357   4.387   2.165 -0.4992 -0.7587  0.3705
 6540TIP3    H119584   2.419   4.452   2.131  0.0424 -1.2649  0.3795
 6540TIP3    H219585   2.283   4.439   2.196 -1.6229 -0.2973 -2.6976
 6541TIP3   OH219586   5.974   2.178   3.441 -0.5800  0.4054  0.6943
 6541TIP3    H119587   6.064   2.163   3.412 -0.8106  1.8940 -0.9473
 6541TIP3    H219588   5.967   2.128   3.523  2.0102  1.0270  1.3906
 6542TIP3   OH219589   1.223   3.437   0.836  0.7439 -0.8385 -0.5365
 6542TIP3    H119590   1.140   3.402   0.803 -0.1442  0.6451 -0.0142
 6542TIP3    H219591   1.246   3.381   0.910  0.8711 -2.0063 -1.4401
 6543TIP3   OH219592   1.342   6.043   4.331 -0.6280 -0.2901 -0.0785
 6543TIP3    H119593   1.356   5.985   4.405  0.9281  1.5197  1.1169
 6543TIP3    H219594   1.295   6.118   4.367 -1.8810 -0.3788 -1.4210
 6544TIP3   OH219595   5.327   5.461   4.408 -0.0952  0.3445 -0.4775
 6544TIP3    H119596   5.419   5.466   4.434 -0.1003  0.0267 -0.3945
 6544TIP3    H219597   5.307   5.368   4.408 -0.9869  0.4721  1.5732
 6545TIP3   OH219598   3.670   3.697   5.889  0.1437 -0.0930  0.4220
 6545TIP3    H119599   3.718   3.623   5.926 -0.4365 -0.0601  1.2773
 6545TIP3    H219600   3.639   3.665   5.804  0.6251 -0.5335  0.4077
 6546TIP3   OH219601   5.747   6.736   5.173 -0.3269 -0.5291  0.2329
 6546TIP3    H119602   5.725   6.801   5.239  1.1505 -0.6043  0.8376
 6546TIP3    H219603   5.666   6.723   5.124 -1.3593 -0.2160  1.7974
 6547TIP3   OH219604   4.552   0.159   2.409  0.3186  0.0140 -0.5362
 6547TIP3    H119605   4.461   0.156   2.380 -0.1930 -0.2635  0.9998
 6547TIP3    H219606   4.594   0.085   2.365 -0.0284  0.5350 -1.7596
 6548TIP3   OH219607   4.845   1.717   0.777 -0.2477 -0.1324  0.1712
 6548TIP3    H119608   4.855   1.674   0.692  1.2011 -0.8424  0.6757
 6548TIP3    H219609   4.929   1.706   0.820 -1.6890 -2.1177  2.7728
 6549TIP3   OH219610   3.441   4.280   4.053 -0.2307 -0.0556 -0.2994
 6549TIP3    H119611   3.393   4.361   4.070  1.8485  0.8028  2.3218
 6549TIP3    H219612   3.512   4.305   3.994 -1.6360 -0.8640 -2.4545
 6550TIP3   OH219613   2.156   4.981   2.847  0.4664  0.2899  0.5187
 6550TIP3    H119614   2.160   4.967   2.941  1.2959 -0.0103  0.4480
 6550TIP3    H219615   2.241   4.952   2.815  0.6332  1.5122 -0.1850
 6551TIP3   OH219616   4.071   6.557   0.117 -0.3448 -0.0386 -0.0681
 6551TIP3    H119617   4.024   6.512   0.186 -0.0768 -1.4483 -0.7750
 6551TIP3    H219618   4.159   6.573   0.153 -0.4237 -0.1290  0.1647
 6552TIP3   OH219619   4.223   6.216   1.515 -0.0058  0.6049 -0.0734
 6552TIP3    H119620   4.217   6.244   1.424  0.1780 -0.6783 -0.4871
 6552TIP3    H219621   4.133   6.221   1.548 -0.4426 -1.0034 -0.9623
 6553TIP3   OH219622   1.951   4.570   2.949  0.8720 -0.2710  0.1888
 6553TIP3    H119623   1.945   4.513   2.871  0.6515 -1.5687  1.1231
 6553TIP3    H219624   1.955   4.659   2.913  0.9242 -0.8451 -1.3150
 6554TIP3   OH219625   7.227   3.934   0.607  0.8562 -0.3751  0.1611
 6554TIP3    H119626   7.204   3.895   0.523 -2.1749  1.8081 -0.1917
 6554TIP3    H219627   7.168   3.893   0.670  2.0281 -0.8645  0.9685
 6555TIP3   OH219628   0.786   4.310   1.309 -0.4388  0.2408 -0.2042
 6555TIP3    H119629   0.787   4.385   1.249 -0.3146 -0.8987 -1.6985
 6555TIP3    H219630   0.773   4.235   1.251 -0.4422 -0.9002  1.2476
 6556TIP3   OH219631   5.340   3.192   5.357 -0.1578  0.4730  0.1005
 6556TIP3    H119632   5.356   3.119   5.297  1.3138 -0.0040  1.0191
 6556TIP3    H219633   5.258   3.169   5.400  0.1719 -0.5518  0.2214
 6557TIP3   OH219634   1.826   3.180   5.400 -0.2573  0.2447 -0.5843
 6557TIP3    H119635   1.864   3.096   5.375  2.0723  1.2842 -0.7465
 6557TIP3    H219636   1.769   3.203   5.327  0.0239 -0.6253 -1.0893
 6558TIP3   OH219637   4.191   2.599   1.671 -0.1728  0.0898 -0.1223
 6558TIP3    H119638   4.214   2.574   1.761  0.1425 -0.1966 -0.2791
 6558TIP3    H219639   4.176   2.516   1.626 -0.2495  0.2292 -0.3582
 6559TIP3   OH219640   2.555   1.178   3.091 -0.4556  0.3469 -0.4893
 6559TIP3    H119641   2.620   1.242   3.064  0.9623 -0.3498  1.0481
 6559TIP3    H219642   2.585   1.096   3.052  1.2007 -0.5163  2.2911
 6560TIP3   OH219643   0.786   5.852   4.159 -0.6060  0.2820 -0.0339
 6560TIP3    H119644   0.813   5.777   4.106  0.9939  0.1525  0.9033
 6560TIP3    H219645   0.748   5.913   4.095 -1.2001 -0.9651 -0.9185
 6561TIP3   OH219646   1.132   2.437   3.451  0.1443  0.1259  0.1309
 6561TIP3    H119647   1.040   2.426   3.475  0.1262  0.4911  0.2243
 6561TIP3    H219648   1.169   2.494   3.519 -0.3430  2.7029 -1.6186
 6562TIP3   OH219649   6.562   0.454   5.283  0.1180  0.2569  0.0459
 6562TIP3    H119650   6.538   0.423   5.370  0.5949 -0.7117 -0.1551
 6562TIP3    H219651   6.502   0.409   5.223  0.8533 -0.3511 -0.2522
 6563TIP3   OH219652   5.016   3.855   2.891  0.3159  0.3208 -0.0925
 6563TIP3    H119653   4.929   3.816   2.884  0.1300  0.5364  0.8581
 6563TIP3    H219654   4.998   3.948   2.907  0.7461  0.8743 -2.4727
 6564TIP3   OH219655   1.399   5.689   0.791  0.2395 -0.7392 -0.3486
 6564TIP3    H119656   1.325   5.750   0.798  1.1136  0.3854 -0.6787
 6564TIP3    H219657   1.472   5.735   0.834  0.3326 -2.5834  1.6395
 6565TIP3   OH219658   2.191   1.433   5.041 -0.1317  0.1744 -0.3858
 6565TIP3    H119659   2.268   1.464   4.994 -0.5091  2.0635  0.1277
 6565TIP3    H219660   2.122   1.432   4.975  0.1358 -0.6994 -0.6589
 6566TIP3   OH219661   5.492   0.840   0.720  0.0882  0.0384 -0.4697
 6566TIP3    H119662   5.487   0.914   0.659  0.8661  1.3352  0.9795
 6566TIP3    H219663   5.496   0.880   0.807  2.9642 -1.5994  0.2661
 6567TIP3   OH219664   3.418   1.903   2.583  0.3130 -0.2569 -0.2117
 6567TIP3    H119665   3.388   1.984   2.625  1.6244  0.3911 -0.4769
 6567TIP3    H219666   3.361   1.893   2.507  1.1535  1.3097 -1.0909
 6568TIP3   OH219667   2.327   0.874   0.152 -0.2910  0.0530  0.3647
 6568TIP3    H119668   2.393   0.832   0.207 -0.7856 -0.4830  0.5563
 6568TIP3    H219669   2.364   0.960   0.131 -0.0277  0.1997  1.3999
 6569TIP3   OH219670   4.395   5.149   3.293 -0.3486 -0.3265 -0.1771
 6569TIP3    H119671   4.462   5.148   3.362  0.9680 -0.9359 -1.4202
 6569TIP3    H219672   4.441   5.182   3.216 -1.5752 -0.4689 -0.9867
 6570TIP3   OH219673   5.612   3.271   0.542  0.0553 -0.5324 -1.0666
 6570TIP3    H119674   5.631   3.192   0.592 -1.4609 -0.3928 -0.2214
 6570TIP3    H219675   5.534   3.249   0.491 -2.4390  1.3756  1.6434
 6571TIP3   OH219676   3.551   2.252   2.492  0.4463 -0.3130  0.4672
 6571TIP3    H119677   3.483   2.185   2.494 -0.3421  0.3618 -1.2778
 6571TIP3    H219678   3.507   2.331   2.460  1.9048  0.2984 -0.1554
 6572TIP3   OH219679   2.833   3.247   5.374 -1.2081  0.3746 -0.0048
 6572TIP3    H119680   2.887   3.184   5.422 -2.6631  0.0263  1.2397
 6572TIP3    H219681   2.891   3.282   5.307  0.1639 -0.9720  0.4243
 6573TIP3   OH219682   1.584   4.092   0.772  0.1345  0.3946  0.2420
 6573TIP3    H119683   1.501   4.049   0.750 -0.1718  1.1784 -0.1773
 6573TIP3    H219684   1.609   4.054   0.856 -0.3618 -0.2581  0.1027
 6574TIP3   OH219685   2.640   4.105   5.730 -0.1266  0.3417  0.1436
 6574TIP3    H119686   2.637   4.015   5.761  2.2230  1.2535  3.4847
 6574TIP3    H219687   2.550   4.123   5.700 -1.2794 -2.3378  1.6289
 6575TIP3   OH219688   1.866   5.094   0.834 -0.4457 -0.4260 -0.0406
 6575TIP3    H119689   1.887   5.156   0.904 -3.0032  1.8770 -1.1181
 6575TIP3    H219690   1.940   5.101   0.773  0.1896  0.1393  0.7695
 6576TIP3   OH219691   5.587   4.043   1.455 -0.2267  0.0054  0.6154
 6576TIP3    H119692   5.640   3.982   1.506 -0.8077 -0.4050  0.7378
 6576TIP3    H219693   5.559   3.993   1.378  0.6944  0.6370 -0.1519
 6577TIP3   OH219694   4.629   0.269   4.573  0.2280  0.4742  0.0550
 6577TIP3    H119695   4.724   0.271   4.588  0.6269  0.0623 -2.1056
 6577TIP3    H219696   4.604   0.362   4.569  0.9963  0.6453 -1.6779
 6578TIP3   OH219697   5.343   4.788   1.884 -0.2579  0.1005  0.8375
 6578TIP3    H119698   5.273   4.810   1.946 -1.4696 -0.2667 -0.3388
 6578TIP3    H219699   5.398   4.866   1.881 -1.3435  0.8946  0.8552
 6579TIP3   OH219700   6.257   4.766   5.324 -0.1224  0.2226 -0.1951
 6579TIP3    H119701   6.232   4.678   5.352 -0.8780 -0.0330 -1.5700
 6579TIP3    H219702   6.351   4.761   5.307  0.0138 -0.0598  0.6066
 6580TIP3   OH219703   1.549   1.727   4.301  0.1124  0.7542  0.0952
 6580TIP3    H119704   1.523   1.817   4.319  0.0585  0.7151  0.2077
 6580TIP3    H219705   1.643   1.726   4.317  0.5883  1.4134 -2.2669
 6581TIP3   OH219706   1.230   4.533   0.843 -0.2695 -0.4909 -0.3190
 6581TIP3    H119707   1.242   4.450   0.889  1.5131 -1.1030 -1.7671
 6581TIP3    H219708   1.135   4.547   0.843 -0.4369 -1.2145  2.1249
 6582TIP3   OH219709   2.066   1.548   1.889  0.1479 -0.0694 -0.3035
 6582TIP3    H119710   2.116   1.467   1.902  0.1163  0.1650  1.6652
 6582TIP3    H219711   2.052   1.553   1.795  1.4078 -1.5986 -0.6174
 6583TIP3   OH219712   2.792   6.672   0.865  0.1617 -0.2088  0.0218
 6583TIP3    H119713   2.747   6.647   0.784 -1.9306  0.7309  0.8178
 6583TIP3    H219714   2.782   6.595   0.922  0.9500 -0.5752 -0.3193
 6584TIP3   OH219715   2.102   5.609   3.494 -0.1101 -0.1795 -0.3944
 6584TIP3    H119716   2.184   5.610   3.444  0.0303  1.3883 -0.1707
 6584TIP3    H219717   2.076   5.701   3.501  0.3013 -0.1705  3.0555
 6585TIP3   OH219718   1.973   2.844   1.964 -0.0943 -0.1246 -0.3689
 6585TIP3    H119719   1.995   2.754   1.988  0.5928  0.1901  0.1891
 6585TIP3    H219720   2.043   2.897   2.001 -1.2691  0.8034  0.6153
 6586TIP3   OH219721   5.808   2.816   0.786  0.6564 -0.1297 -0.2263
 6586TIP3    H119722   5.740   2.817   0.718 -1.6270 -1.5129  1.9143
 6586TIP3    H219723   5.858   2.736   0.769  1.2017  0.4005 -1.2344
 6587TIP3   OH219724   0.946   2.077   3.446  0.1473 -0.4170  0.3338
 6587TIP3    H119725   0.942   2.171   3.465 -0.0783 -0.7384  2.0943
 6587TIP3    H219726   1.035   2.063   3.414  0.7484  0.1659  1.6519
 6588TIP3   OH219727   5.146   1.082   4.848 -0.5043  0.6452 -0.1964
 6588TIP3    H119728   5.123   1.135   4.772 -0.6662 -1.2155 -1.5152
 6588TIP3    H219729   5.071   1.024   4.861  0.7576 -1.1514 -0.5763
 6589TIP3   OH219730   6.573   3.550   5.211 -0.1762 -0.1234  0.0094
 6589TIP3    H119731   6.631   3.518   5.281  0.2054  0.9067  0.1852
 6589TIP3    H219732   6.612   3.634   5.185 -1.7421  0.7163  0.2991
 6590TIP3   OH219733   6.493   5.860   3.712 -0.7367  0.2455 -0.1909
 6590TIP3    H119734   6.558   5.866   3.782  0.2685  0.4866 -1.1170
 6590TIP3    H219735   6.409   5.877   3.756 -0.0041  1.7086  0.7328
 6591TIP3   OH219736   3.418   6.600   5.643  0.3391  0.0929 -0.1166
 6591TIP3    H119737   3.486   6.533   5.641  0.8366  0.5478  0.8600
 6591TIP3    H219738   3.363   6.580   5.567  1.2147 -0.6366 -0.5861
 6592TIP3   OH219739   6.089   5.636   0.303  0.0205  0.0326  0.0124
 6592TIP3    H119740   6.063   5.686   0.381 -1.1909  0.7175 -0.7953
 6592TIP3    H219741   6.183   5.622   0.315  0.1516  1.3853  0.9130
 6593TIP3   OH219742   4.170   2.047   3.509  0.2569  0.2248  0.1604
 6593TIP3    H119743   4.121   2.045   3.590  0.9240  1.5020  0.6266
 6593TIP3    H219744   4.116   2.000   3.446 -1.5570  1.5552  0.6506
 6594TIP3   OH219745   1.174   4.300   3.860  0.2103  0.3852  0.3801
 6594TIP3    H119746   1.183   4.313   3.766  0.2833 -1.6046  0.0830
 6594TIP3    H219747   1.188   4.387   3.897  1.9012  0.9045 -1.3198
 6595TIP3   OH219748   6.066   4.390   5.566  0.2824  0.2342 -0.0114
 6595TIP3    H119749   6.015   4.368   5.644 -1.5508  0.2343 -1.1544
 6595TIP3    H219750   6.058   4.485   5.559  1.3139  0.3581  0.3529
 6596TIP3   OH219751   4.417   3.518   0.727 -0.1767 -0.1473  0.4397
 6596TIP3    H119752   4.344   3.480   0.678 -0.9470  0.8836  0.7440
 6596TIP3    H219753   4.485   3.450   0.726 -1.0675 -1.0592 -0.0072
 6597TIP3   OH219754   2.052   3.350   0.377 -0.2739 -0.0012  0.1907
 6597TIP3    H119755   2.118   3.281   0.389  0.0135  0.2173 -0.1097
 6597TIP3    H219756   2.103   3.429   0.361 -0.6150  0.1488 -0.1618
 6598TIP3   OH219757   1.811   1.153   4.144  0.4291 -0.1047 -0.3750
 6598TIP3    H119758   1.890   1.132   4.095  0.6871  1.3325 -0.6224
 6598TIP3    H219759   1.751   1.188   4.078 -1.0989 -2.7704 -0.5053
 6599TIP3   OH219760   2.392   1.141   2.743 -0.1394  0.0300 -0.4170
 6599TIP3    H119761   2.427   1.159   2.655 -2.1775 -0.2343 -1.3390
 6599TIP3    H219762   2.444   1.067   2.775  0.6199  0.1123 -1.4164
 6600TIP3   OH219763   2.764   0.589   4.778 -0.2173  0.5118 -0.2242
 6600TIP3    H119764   2.844   0.628   4.741 -1.0832  1.1154 -1.5114
 6600TIP3    H219765   2.795   0.544   4.857  1.4902  0.2948 -0.9536
 6601TIP3   OH219766   6.062   5.952   4.457 -0.5181 -0.6373 -0.2001
 6601TIP3    H119767   6.101   5.917   4.377 -0.6716 -1.2760 -0.0019
 6601TIP3    H219768   6.001   5.884   4.485 -1.4115  0.1291 -0.2350
 6602TIP3   OH219769   1.169   1.590   4.734  0.0489 -0.0883 -0.0702
 6602TIP3    H119770   1.157   1.651   4.662 -3.6580  0.1116  0.5422
 6602TIP3    H219771   1.154   1.642   4.813  1.8838 -0.7680  0.7794
 6603TIP3   OH219772   2.907   6.039   2.672 -0.3117  0.0714  0.3053
 6603TIP3    H119773   2.962   5.964   2.694 -0.6324 -0.2268  0.0875
 6603TIP3    H219774   2.818   6.012   2.694 -0.2597  0.9437  1.6686
 6604TIP3   OH219775   6.731   5.002   1.013 -0.5780  0.1787  0.4651
 6604TIP3    H119776   6.651   5.007   1.066 -1.0642 -1.7175  0.0069
 6604TIP3    H219777   6.802   5.009   1.076 -1.1166  0.8110  1.0191
 6605TIP3   OH219778   0.089   3.595   0.474  0.8538  0.3738 -0.1490
 6605TIP3    H119779   0.089   3.595   0.569  1.0494 -1.5105 -0.1172
 6605TIP3    H219780   0.153   3.663   0.450  1.6900  0.0412  1.0670
 6606TIP3   OH219781   4.220   1.539   0.055  0.5019  0.8619 -0.0058
 6606TIP3    H119782   4.168   1.617   0.076  0.2551 -0.0437  3.4947
 6606TIP3    H219783   4.160   1.466   0.068  1.2252 -0.0258 -1.4166
 6607TIP3   OH219784   5.405   4.298   3.073  0.4649 -0.1911  0.0817
 6607TIP3    H119785   5.497   4.295   3.101  0.3701 -0.1438  0.4060
 6607TIP3    H219786   5.375   4.385   3.100 -0.4349 -1.1483  2.4584
 6608TIP3   OH219787   2.647   3.903   1.006 -0.2306 -0.4383 -0.0549
 6608TIP3    H119788   2.697   3.853   1.071 -1.8921 -4.1281 -1.3585
 6608TIP3    H219789   2.576   3.943   1.057 -0.4293 -1.7064  0.6996
 6609TIP3   OH219790   0.960   3.192   3.859  0.1866 -0.7420  0.2277
 6609TIP3    H119791   0.880   3.177   3.910  0.1041  1.9416  1.0395
 6609TIP3    H219792   0.930   3.237   3.780  0.9026  1.3009  1.0420
 6610TIP3   OH219793   0.149   0.684   4.111 -0.0535 -0.2762  0.2083
 6610TIP3    H119794   0.124   0.669   4.203  0.8679  1.0939  0.7232
 6610TIP3    H219795   0.129   0.777   4.096  0.5720 -0.2752 -0.7119
 6611TIP3   OH219796   5.164   4.123   2.418 -0.3325 -0.3586  0.1620
 6611TIP3    H119797   5.195   4.173   2.493 -1.1317 -0.9355  0.9017
 6611TIP3    H219798   5.186   4.032   2.439  1.2667 -0.3285 -1.2425
 6612TIP3   OH219799   5.618   6.663   2.760  0.1168 -0.4847  0.4275
 6612TIP3    H119800   5.590   6.592   2.817 -0.0396 -1.1209 -0.4172
 6612TIP3    H219801   5.712   6.673   2.777 -0.0337 -0.2854  1.1842
 6613TIP3   OH219802   3.792   3.512   0.836 -0.3929 -0.1671  0.1281
 6613TIP3    H119803   3.763   3.467   0.915  1.0247 -0.9376  0.2540
 6613TIP3    H219804   3.778   3.605   0.854 -0.1744 -0.3399  1.2659
 6614TIP3   OH219805   4.484   4.657   3.328  0.1145  0.4724 -0.1450
 6614TIP3    H119806   4.448   4.724   3.271  0.1753  0.4188 -0.2465
 6614TIP3    H219807   4.470   4.575   3.281 -0.1049  0.3982  0.0522
 6615TIP3   OH219808   3.048   4.433   5.792 -0.3075 -0.0184 -0.2686
 6615TIP3    H119809   2.986   4.504   5.774  0.5478  0.5182 -1.2382
 6615TIP3    H219810   2.997   4.353   5.780 -0.7490  0.4041 -1.3904
 6616TIP3   OH219811   2.536   1.432   3.519 -0.6772  0.3855 -0.0236
 6616TIP3    H119812   2.607   1.381   3.481 -1.9510 -2.9031  1.6342
 6616TIP3    H219813   2.485   1.463   3.444  0.0724 -0.9473 -1.1315
 6617TIP3   OH219814   7.166   1.964   2.180  0.4209  0.2558  0.5396
 6617TIP3    H119815   7.081   1.991   2.215 -0.9576 -1.9738 -0.8067
 6617TIP3    H219816   7.150   1.953   2.086  2.4924  0.7249  0.0999
 6618TIP3   OH219817   4.521   3.221   4.457 -0.0176  0.1967  0.8635
 6618TIP3    H119818   4.475   3.138   4.441  0.1993  0.1057  0.7051
 6618TIP3    H219819   4.451   3.286   4.466 -0.1704  0.1035  0.3749
 6619TIP3   OH219820   2.873   3.754   1.138 -0.3536 -0.3898 -0.8638
 6619TIP3    H119821   2.880   3.698   1.060  2.3123 -1.4090  0.0027
 6619TIP3    H219822   2.963   3.785   1.153 -1.6059  4.1249 -1.1973
 6620TIP3   OH219823   2.625   6.400   0.393  0.0923 -0.4347 -0.2428
 6620TIP3    H119824   2.719   6.388   0.378  0.1779 -1.1035  0.7671
 6620TIP3    H219825   2.586   6.396   0.305  1.1619  1.5444 -0.8942
 6621TIP3   OH219826   6.902   5.902   4.234 -0.0156  0.5508 -0.2000
 6621TIP3    H119827   6.945   5.816   4.236 -1.1433 -0.0770 -1.6764
 6621TIP3    H219828   6.967   5.960   4.194  0.8800  0.4930  1.1121
 6622TIP3   OH219829   6.006   2.589   2.841 -0.5066  0.2703 -0.3265
 6622TIP3    H119830   5.921   2.545   2.837  1.0007 -2.8228 -2.1373
 6622TIP3    H219831   6.068   2.520   2.864  1.5042  2.5915  1.8020
 6623TIP3   OH219832   2.002   2.399   3.693 -0.1272  0.1652  0.0999
 6623TIP3    H119833   2.095   2.410   3.673 -0.7083 -1.6330 -5.0223
 6623TIP3    H219834   1.977   2.480   3.737  3.3977  1.5221 -0.0593
 6624TIP3   OH219835   5.944   4.686   1.828 -0.3147 -0.1223 -0.1552
 6624TIP3    H119836   5.899   4.610   1.791 -2.8541  0.3004  1.8061
 6624TIP3    H219837   5.931   4.755   1.762 -3.0968  0.1105  0.5060
 6625TIP3   OH219838   6.629   6.287   3.658 -0.1492 -0.3301 -0.1590
 6625TIP3    H119839   6.545   6.333   3.667 -0.3465 -0.8821  1.0089
 6625TIP3    H219840   6.608   6.212   3.601 -1.3260 -2.3462  2.6673
 6626TIP3   OH219841   6.341   6.317   2.144 -0.1096 -0.2151 -0.1907
 6626TIP3    H119842   6.319   6.255   2.073 -2.6786 -0.1736  0.4548
 6626TIP3    H219843   6.287   6.394   2.125  1.6548  1.1290  0.0496
 6627TIP3   OH219844   1.743   6.175   0.156  0.0107  0.4729 -0.5209
 6627TIP3    H119845   1.813   6.156   0.218  0.1829 -0.6115 -1.0309
 6627TIP3    H219846   1.781   6.240   0.096  0.3508  0.3898 -0.3937
 6628TIP3   OH219847   3.903   3.850   1.221  0.4145 -0.0465 -0.1703
 6628TIP3    H119848   3.847   3.837   1.297 -0.2017  0.7467 -0.4741
 6628TIP3    H219849   3.849   3.900   1.160 -0.0515 -2.7789 -2.2037
 6629TIP3   OH219850   6.509   5.352   1.466  0.3609 -0.5910 -0.1804
 6629TIP3    H119851   6.463   5.353   1.550  0.8007 -0.5420  0.0598
 6629TIP3    H219852   6.450   5.397   1.406  0.2341 -0.2407  0.2027
 6630TIP3   OH219853   5.828   6.466   4.227 -0.2133  0.1970  0.0011
 6630TIP3    H119854   5.751   6.410   4.227  0.8742 -1.3676 -0.8430
 6630TIP3    H219855   5.854   6.473   4.135  1.1420 -0.0425  0.3355
 6631TIP3   OH219856   4.159   5.822   1.638  0.1950 -0.2796 -0.3426
 6631TIP3    H119857   4.076   5.791   1.675 -0.5025  2.3002  0.4559
 6631TIP3    H219858   4.141   5.834   1.545 -0.3579  0.2968 -0.1672
 6632TIP3   OH219859   3.159   2.252   3.679 -0.1142  0.5926 -0.0409
 6632TIP3    H119860   3.090   2.190   3.654 -1.4065  2.2549 -0.8287
 6632TIP3    H219861   3.155   2.254   3.775 -0.3258 -0.2273 -0.0199
 6633TIP3   OH219862   2.982   6.303   4.606  1.0569 -0.3558 -0.3076
 6633TIP3    H119863   2.914   6.333   4.546  1.8769  0.1078 -1.0431
 6633TIP3    H219864   3.051   6.370   4.599  1.4956 -0.7079  0.5626
 6634TIP3   OH219865   1.587   5.939   4.254  0.0380 -0.0535  0.1568
 6634TIP3    H119866   1.596   5.849   4.287  0.1180 -0.4126 -0.8287
 6634TIP3    H219867   1.497   5.963   4.277  0.5812  0.3297  2.1150
 6635TIP3   OH219868   5.353   6.476   0.191  0.4293  0.2392  1.0981
 6635TIP3    H119869   5.376   6.393   0.233 -0.8116  0.6382  2.6712
 6635TIP3    H219870   5.280   6.509   0.242  0.4589  1.9921  0.0877
 6636TIP3   OH219871   6.783   1.737   5.403 -0.1890  0.0186  0.1603
 6636TIP3    H119872   6.804   1.792   5.478  3.1497 -2.4058  1.2392
 6636TIP3    H219873   6.725   1.669   5.437 -0.2577  0.0196  0.0474
 6637TIP3   OH219874   4.432   4.393   5.476 -0.1728  0.4440 -0.4683
 6637TIP3    H119875   4.519   4.361   5.500 -1.6298 -3.8082 -0.0623
 6637TIP3    H219876   4.398   4.434   5.556  0.3675 -0.5780  0.3032
 6638TIP3   OH219877   1.172   4.576   2.961  0.1583  0.2619  0.3606
 6638TIP3    H119878   1.164   4.481   2.959  2.6908 -0.0500 -2.9986
 6638TIP3    H219879   1.116   4.606   2.889  1.2220  1.0525 -0.1662
 6639TIP3   OH219880   1.544   1.381   5.600  0.0734 -0.0421 -0.4661
 6639TIP3    H119881   1.602   1.339   5.664  0.0437 -1.5348 -1.3606
 6639TIP3    H219882   1.503   1.308   5.554 -1.0382  0.9964 -1.1850
 6640TIP3   OH219883   0.952   4.903   5.005  0.1889 -0.1015  0.2504
 6640TIP3    H119884   0.959   4.832   5.069  1.1451  0.6079  0.9650
 6640TIP3    H219885   0.895   4.967   5.046  1.6639  0.8499  0.9170
 6641TIP3   OH219886   3.827   2.986   4.436  0.1815  0.0265  0.0439
 6641TIP3    H119887   3.745   2.937   4.439  1.8339 -3.3272 -2.2369
 6641TIP3    H219888   3.843   2.998   4.342  1.2657  2.6519  0.4879
 6642TIP3   OH219889   1.255   3.128   0.042  0.3316  0.4347 -0.3864
 6642TIP3    H119890   1.175   3.180   0.036 -0.7104 -1.0927 -0.5068
 6642TIP3    H219891   1.288   3.123  -0.048  0.5161  0.9841 -0.3514
 6643TIP3   OH219892   0.676   4.573   5.514  0.0165 -0.2057 -0.6864
 6643TIP3    H119893   0.693   4.658   5.552  2.8955 -0.2907 -1.5012
 6643TIP3    H219894   0.681   4.512   5.587 -0.9805  0.2031 -0.2662
 6644TIP3   OH219895   4.307   5.973   5.230 -0.3977 -0.1952 -0.0663
 6644TIP3    H119896   4.259   6.021   5.162  1.6151 -0.0052 -1.4663
 6644TIP3    H219897   4.339   5.894   5.186  2.0217  0.5324  0.1898
 6645TIP3   OH219898   2.238   3.752   3.236 -1.0010 -0.2708 -0.3437
 6645TIP3    H119899   2.211   3.785   3.151 -2.4273 -1.9655 -0.5994
 6645TIP3    H219900   2.164   3.699   3.267  0.1986 -1.2019  1.1117
 6646TIP3   OH219901   1.824   4.702   3.793 -0.0388 -0.2144 -0.1814
 6646TIP3    H119902   1.873   4.734   3.717 -1.1279  1.1246 -0.3551
 6646TIP3    H219903   1.839   4.607   3.792  2.5962  0.1309 -0.1416
 6647TIP3   OH219904   1.214   0.493   3.549  0.0271 -0.0808 -0.0499
 6647TIP3    H119905   1.213   0.544   3.631  0.5689 -0.1608  0.0107
 6647TIP3    H219906   1.288   0.529   3.500 -0.9015  0.6555 -0.9512
 6648TIP3   OH219907   1.008   1.473   0.554  0.7180  0.3582  0.1614
 6648TIP3    H119908   1.074   1.474   0.485  1.8896  1.4011  1.2326
 6648TIP3    H219909   1.039   1.408   0.616 -1.0929 -1.6564 -0.9222
 6649TIP3   OH219910   0.618   2.913   0.689  0.0547  0.3244 -0.1705
 6649TIP3    H119911   0.638   2.833   0.737 -0.0722 -0.5369 -1.5228
 6649TIP3    H219912   0.522   2.919   0.691 -0.0748 -0.6760 -1.7812
 6650TIP3   OH219913   2.168   3.998   3.612 -0.3801 -0.4313  0.1504
 6650TIP3    H119914   2.204   3.990   3.524 -0.7211  1.7506 -0.2321
 6650TIP3    H219915   2.244   4.009   3.669 -0.1196 -2.3999  0.2657
 6651TIP3   OH219916   5.825   4.251   1.488  0.2748 -0.4195 -0.0153
 6651TIP3    H119917   5.773   4.172   1.503 -0.7684 -0.1660 -2.0075
 6651TIP3    H219918   5.761   4.323   1.492  1.0982  0.2891  1.0833
 6652TIP3   OH219919   6.600   5.983   4.583 -0.2378  0.4676 -0.5103
 6652TIP3    H119920   6.598   6.069   4.625  0.0772  0.6313 -0.8214
 6652TIP3    H219921   6.509   5.966   4.558 -0.7992 -0.4934  1.9176
 6653TIP3   OH219922   6.655   4.031   1.285  0.3285  0.1451  0.8788
 6653TIP3    H119923   6.726   3.969   1.301  2.4313  1.5563 -2.2562
 6653TIP3    H219924   6.691   4.116   1.309 -0.2804  0.8871 -0.7410
 6654TIP3   OH219925   3.200   6.133   5.797  0.1187 -0.5202 -0.2883
 6654TIP3    H119926   3.287   6.095   5.811  0.1023 -0.2906  0.5123
 6654TIP3    H219927   3.217   6.225   5.775  0.1114 -0.6972 -1.0503
 6655TIP3   OH219928   4.796   5.341   4.422  0.7548  0.5123 -0.5909
 6655TIP3    H119929   4.790   5.436   4.430  1.2370  0.5392 -0.5106
 6655TIP3    H219930   4.812   5.326   4.329  0.7241  0.5109 -0.5962
 6656TIP3   OH219931   1.349   6.055   2.183 -0.6462  0.3196 -0.3530
 6656TIP3    H119932   1.411   6.093   2.121 -1.4662 -0.6321 -1.7950
 6656TIP3    H219933   1.350   5.961   2.165 -1.2540  0.0748  0.7592
 6657TIP3   OH219934   2.173   4.651   4.883 -0.1492 -0.5790 -0.3226
 6657TIP3    H119935   2.178   4.580   4.819 -0.2833 -1.2513  0.4012
 6657TIP3    H219936   2.264   4.668   4.907 -0.1703 -1.1917  0.2305
 6658TIP3   OH219937   6.588   1.330   2.791 -0.0121  0.5488  0.6379
 6658TIP3    H119938   6.516   1.375   2.836 -1.1394  1.0495 -1.5520
 6658TIP3    H219939   6.612   1.389   2.719  2.2705  0.1349  0.9916
 6659TIP3   OH219940   6.925   3.245   5.190  0.1915  0.4393 -0.4380
 6659TIP3    H119941   6.896   3.202   5.110 -0.3632  0.8217 -0.4515
 6659TIP3    H219942   6.994   3.304   5.162 -0.4230  1.0298 -0.7482
 6660TIP3   OH219943   6.087   6.403   5.377  0.3541 -0.4779  0.1420
 6660TIP3    H119944   6.017   6.360   5.426  1.1393 -1.5642  0.3483
 6660TIP3    H219945   6.130   6.331   5.329  0.6039  0.3293 -0.8840
 6661TIP3   OH219946   2.997   3.003   5.334 -0.3492  0.0384 -0.6086
 6661TIP3    H119947   3.078   2.952   5.339 -0.5892 -0.6176 -2.4880
 6661TIP3    H219948   2.930   2.947   5.374 -0.6304 -1.2649 -2.7431
 6662TIP3   OH219949   2.239   3.976   0.882  0.2011  0.4244 -0.3141
 6662TIP3    H119950   2.269   4.047   0.825  0.9280 -0.9007 -1.6376
 6662TIP3    H219951   2.250   3.897   0.830 -0.6160 -0.6774  1.1192
 6663TIP3   OH219952   3.683   1.164   5.666 -0.7575 -0.2461  0.7951
 6663TIP3    H119953   3.618   1.124   5.724  0.4253 -1.3292  1.4174
 6663TIP3    H219954   3.753   1.192   5.725  0.4424 -1.3167 -0.0753
 6664TIP3   OH219955   0.465   1.844   4.820 -0.2743  0.1546  0.3337
 6664TIP3    H119956   0.505   1.770   4.776  0.1838 -0.5644  1.8850
 6664TIP3    H219957   0.396   1.874   4.760  1.0099 -0.0607 -1.3346
 6665TIP3   OH219958   1.987   5.725   4.847  0.1617 -0.2170  0.0766
 6665TIP3    H119959   2.031   5.644   4.823  0.8130  0.0741  0.2695
 6665TIP3    H219960   1.959   5.712   4.937  0.5104 -0.1338  0.2011
 6666TIP3   OH219961   5.573   4.496   2.500  0.1744 -0.5829  0.4818
 6666TIP3    H119962   5.653   4.451   2.475  0.8111 -0.2065  1.7597
 6666TIP3    H219963   5.507   4.464   2.438  1.4635 -0.2955 -1.1158
 6667TIP3   OH219964   6.149   6.503   2.426 -0.0320 -0.2585 -0.6498
 6667TIP3    H119965   6.100   6.420   2.430  0.2991 -0.4104  0.3293
 6667TIP3    H219966   6.226   6.488   2.480 -0.6044  1.1115  0.6108
 6668TIP3   OH219967   3.967   0.072   5.253 -0.3526  0.1520 -0.5117
 6668TIP3    H119968   4.047   0.051   5.301 -0.1664  1.6352 -0.1095
 6668TIP3    H219969   3.961   0.004   5.186  1.3123  0.0621 -0.6330
 6669TIP3   OH219970   3.054   3.425   0.821 -0.5586 -0.2866 -0.5564
 6669TIP3    H119971   3.006   3.389   0.896  0.3901 -0.7305 -0.1390
 6669TIP3    H219972   3.118   3.356   0.799 -1.3863 -0.5301 -2.3321
 6670TIP3   OH219973   1.210   4.295   2.929 -0.4673  0.0658  0.0563
 6670TIP3    H119974   1.306   4.295   2.937 -0.4749  0.9896  0.2456
 6670TIP3    H219975   1.194   4.278   2.836 -0.1351 -0.6375  0.1212
 6671TIP3   OH219976   6.282   4.003   3.738 -0.1485  0.3280  0.0096
 6671TIP3    H119977   6.246   4.040   3.658  0.0866  0.9649  0.1950
 6671TIP3    H219978   6.359   3.953   3.709 -0.1926  0.3760 -0.1851
 6672TIP3   OH219979   4.427   3.213   1.447 -0.1926  0.1216  0.4252
 6672TIP3    H119980   4.464   3.159   1.518 -0.0696  0.4975  0.6492
 6672TIP3    H219981   4.442   3.303   1.476 -1.0138  0.2765  0.3729
 6673TIP3   OH219982   3.552   6.081   3.732 -0.3266 -0.2424 -0.0991
 6673TIP3    H119983   3.456   6.079   3.730 -0.3238 -0.1588 -1.1019
 6673TIP3    H219984   3.575   6.030   3.809 -1.2366  2.6883  2.2827
 6674TIP3   OH219985   3.728   0.933   5.523  0.0763 -0.1594  0.8343
 6674TIP3    H119986   3.717   1.013   5.574 -2.1503 -1.5840  2.7748
 6674TIP3    H219987   3.684   0.950   5.440  0.2660  0.8624  0.9406
 6675TIP3   OH219988   2.231   1.759   0.137  0.8910  0.2333  0.2619
 6675TIP3    H119989   2.245   1.665   0.147 -1.1064 -0.1696 -0.1752
 6675TIP3    H219990   2.313   1.799   0.164  2.1508 -1.6810 -0.5204
 6676TIP3   OH219991   3.892   1.532   0.352  0.7226 -0.0309  0.8021
 6676TIP3    H119992   3.937   1.569   0.428 -0.8358 -1.3622  2.4688
 6676TIP3    H219993   3.924   1.442   0.347 -1.9531 -1.1745  2.3405
 6677TIP3   OH219994   7.156   2.505   1.861  0.2293 -0.6301  0.1871
 6677TIP3    H119995   7.225   2.447   1.828 -0.1071 -1.4182  0.8096
 6677TIP3    H219996   7.154   2.578   1.799  1.1387 -0.9402 -0.2328
 6678TIP3   OH219997   2.667   5.100   0.330  0.9073 -0.1969 -0.4209
 6678TIP3    H119998   2.754   5.123   0.364  1.8193 -1.7529 -1.5648
 6678TIP3    H219999   2.684   5.070   0.240 -1.1453  1.8925 -1.6196
 6679TIP3   OH220000   2.849   5.132   5.205  0.3196  0.1724 -0.2554
 6679TIP3    H120001   2.926   5.126   5.261  1.6197 -0.0740 -1.9604
 6679TIP3    H220002   2.797   5.203   5.242  0.9967 -0.1331  1.3525
 6680TIP3   OH220003   0.318   5.201   4.919 -0.3310  0.2432 -0.3686
 6680TIP3    H120004   0.339   5.257   4.845  0.1536  0.3778 -0.1393
 6680TIP3    H220005   0.232   5.165   4.899 -0.8495  1.4073 -0.3228
 6681TIP3   OH220006   3.469   4.437   2.344 -0.1121  0.1306  0.0739
 6681TIP3    H120007   3.433   4.496   2.278  0.8916 -0.3637 -0.9559
 6681TIP3    H220008   3.561   4.464   2.352  0.1612 -0.7924  0.1375
 6682TIP3   OH220009   6.204   4.602   5.069  0.4027 -0.3717  0.3515
 6682TIP3    H120010   6.265   4.666   5.106 -0.6662  2.4543 -2.2862
 6682TIP3    H220011   6.126   4.608   5.124 -0.4297  2.2671 -0.9506
 6683TIP3   OH220012   1.485   3.733   3.559 -0.1132  0.1845 -0.5263
 6683TIP3    H120013   1.506   3.683   3.480  0.2116  0.7934 -0.8399
 6683TIP3    H220014   1.567   3.734   3.608  0.2673  1.4958 -1.1455
 6684TIP3   OH220015   7.007   0.973   1.586  0.3116  0.0101  0.4577
 6684TIP3    H120016   6.937   0.909   1.577  0.6063 -0.6090  2.2440
 6684TIP3    H220017   6.971   1.040   1.644  0.9867 -0.0206  0.9257
 6685TIP3   OH220018   3.219   3.200   0.821 -0.0827 -0.1179  0.5541
 6685TIP3    H120019   3.227   3.157   0.906 -0.4023 -1.4935 -0.0883
 6685TIP3    H220020   3.221   3.129   0.757 -0.6478  0.8138 -0.5487
 6686TIP3   OH220021   4.739   0.856   0.247 -0.5147 -0.3446 -0.3641
 6686TIP3    H120022   4.723   0.888   0.159  0.5266  1.6450  0.1143
 6686TIP3    H220023   4.772   0.767   0.235 -2.7997 -1.0683 -1.7880
 6687TIP3   OH220024   1.767   1.694   3.664  0.2846 -0.0325 -0.0255
 6687TIP3    H120025   1.716   1.681   3.584  0.0583  0.5909  0.0164
 6687TIP3    H220026   1.788   1.787   3.664  2.3806 -0.4610 -0.6173
 6688TIP3   OH220027   6.074   6.360   0.731 -0.3900  0.4221  0.0976
 6688TIP3    H120028   6.041   6.449   0.716  0.0154  0.8418  1.5780
 6688TIP3    H220029   6.087   6.355   0.825 -1.4566 -1.5945  0.1928
 6689TIP3   OH220030   5.710   5.046   4.888  0.0585 -0.6339 -0.1079
 6689TIP3    H120031   5.633   4.991   4.905  0.7935 -1.5129  0.4702
 6689TIP3    H220032   5.744   5.015   4.804  0.3769 -0.9724  0.1394
 6690TIP3   OH220033   0.442   4.700   2.710 -0.3067 -0.2390  0.3467
 6690TIP3    H120034   0.398   4.768   2.761 -1.3875 -0.5581 -0.1318
 6690TIP3    H220035   0.512   4.669   2.767  0.1853  1.2406  0.5832
 6691TIP3   OH220036   6.671   3.646   3.477 -0.3153 -0.0611  0.6698
 6691TIP3    H120037   6.647   3.686   3.560 -0.1681 -1.4078  1.4004
 6691TIP3    H220038   6.708   3.561   3.501 -0.0300 -0.3751 -0.7581
 6692TIP3   OH220039   0.765   0.863   1.387 -0.3965 -0.2869  0.2861
 6692TIP3    H120040   0.792   0.835   1.300 -0.5319  1.1894 -0.2458
 6692TIP3    H220041   0.672   0.839   1.392 -0.5165  0.0719 -0.1726
 6693TIP3   OH220042   6.878   1.052   0.609 -0.5464  0.2613  0.1037
 6693TIP3    H120043   6.909   0.967   0.579 -0.3128  0.6123 -0.6724
 6693TIP3    H220044   6.884   1.108   0.532 -0.8293  0.9460  0.5729
 6694TIP3   OH220045   2.553   2.552   3.268 -0.8791 -0.2799 -0.4651
 6694TIP3    H120046   2.495   2.603   3.326  0.4764  0.4133  0.3451
 6694TIP3    H220047   2.529   2.461   3.284 -0.3288 -0.1319  1.4921
 6695TIP3   OH220048   2.783   1.411   2.227 -0.6789 -0.9263 -0.5575
 6695TIP3    H120049   2.722   1.476   2.264 -0.9046 -2.2158  1.5193
 6695TIP3    H220050   2.869   1.453   2.233 -0.5730 -1.3439  2.3867
 6696TIP3   OH220051   1.538   3.173   2.499  0.5110 -0.5363 -0.5734
 6696TIP3    H120052   1.582   3.231   2.437  0.4505  0.0427 -0.0890
 6696TIP3    H220053   1.461   3.140   2.451  0.8549 -0.6683 -1.0406
 6697TIP3   OH220054   3.698   3.733   2.510  0.0964  0.0746 -0.8169
 6697TIP3    H120055   3.776   3.699   2.555 -1.2687 -1.6729  0.3599
 6697TIP3    H220056   3.678   3.815   2.555 -0.3885 -0.9152  0.8703
 6698TIP3   OH220057   1.526   5.217   3.175 -0.1968  0.1178  0.3860
 6698TIP3    H120058   1.566   5.201   3.090 -0.6774 -0.1239  0.1995
 6698TIP3    H220059   1.569   5.157   3.235 -1.6749 -1.6348 -0.2175
 6699TIP3   OH220060   6.552   0.990   2.478 -0.1238 -0.1898  0.1524
 6699TIP3    H120061   6.518   1.070   2.438 -1.5436 -0.2341  1.2007
 6699TIP3    H220062   6.602   1.021   2.553  0.2776 -0.2465 -0.0871
 6700TIP3   OH220063   1.075   4.520   3.356 -0.1537 -0.1964 -0.0271
 6700TIP3    H120064   0.992   4.473   3.348 -0.1401  0.0158 -1.5931
 6700TIP3    H220065   1.074   4.583   3.284  0.4464  1.2645  1.1914
 6701TIP3   OH220066   3.719   4.532   0.656  0.3124  0.1829 -0.1772
 6701TIP3    H120067   3.687   4.608   0.608  1.7443  1.3668  0.6706
 6701TIP3    H220068   3.796   4.503   0.607 -0.0984 -0.5974 -0.3728
 6702TIP3   OH220069   6.379   2.840   5.676 -0.0496 -0.7513 -0.7073
 6702TIP3    H120070   6.316   2.812   5.610 -1.5292 -0.0792  0.3541
 6702TIP3    H220071   6.391   2.764   5.733  1.0271 -1.2467 -1.5497
 6703TIP3   OH220072   5.316   0.624   0.816  0.0732  0.0886 -0.0809
 6703TIP3    H120073   5.382   0.661   0.758  1.9273  0.4821  2.1559
 6703TIP3    H220074   5.296   0.693   0.879 -1.6553 -0.4074 -0.0113
 6704TIP3   OH220075   0.525   0.154   1.483  0.2885  0.0300 -0.2252
 6704TIP3    H120076   0.494   0.075   1.440 -1.7336  1.4744 -1.6087
 6704TIP3    H220077   0.475   0.225   1.443 -0.4323  1.7119  3.2246
 6705TIP3   OH220078   6.460   1.383   0.551  0.3929  0.1126  0.6620
 6705TIP3    H120079   6.453   1.307   0.492 -1.1481  0.3850  0.4676
 6705TIP3    H220080   6.373   1.391   0.590  0.8128  1.2190  1.3950
 6706TIP3   OH220081   5.161   2.692   0.946 -0.4430  0.0239  0.4404
 6706TIP3    H120082   5.092   2.750   0.913 -1.0563 -1.3544 -0.8616
 6706TIP3    H220083   5.124   2.654   1.025 -0.7351  0.1253  0.3553
 6707TIP3   OH220084   0.095   0.895   0.486 -0.1247 -0.1237  0.0381
 6707TIP3    H120085   0.124   0.806   0.508  0.5747  0.2116  0.5248
 6707TIP3    H220086   0.078   0.892   0.392  2.1832 -0.1914 -0.4341
 6708TIP3   OH220087   5.788   6.141   0.369  0.1460 -0.5848 -0.4466
 6708TIP3    H120088   5.742   6.182   0.296  1.1824 -0.2036 -0.9033
 6708TIP3    H220089   5.851   6.082   0.328  0.3831 -0.7606  0.1555
 6709TIP3   OH220090   3.101   4.739   4.742  0.0529  0.2911 -0.6503
 6709TIP3    H120091   3.162   4.811   4.758  1.7500 -0.8940 -1.5508
 6709TIP3    H220092   3.112   4.718   4.649 -1.0325 -0.6017 -0.6039
 6710TIP3   OH220093   4.656   4.366   2.066  0.3273  0.1118 -0.8297
 6710TIP3    H120094   4.562   4.380   2.068  0.0010 -1.8036 -0.4071
 6710TIP3    H220095   4.676   4.343   1.975  0.2667 -0.1307 -0.7829
 6711TIP3   OH220096   1.504   0.903   4.521 -0.1197  0.2367  0.6367
 6711TIP3    H120097   1.424   0.869   4.560  0.7560 -0.7642  1.5880
 6711TIP3    H220098   1.499   0.876   4.429 -0.6052 -0.3108  0.8196
 6712TIP3   OH220099   5.599   3.480   0.725 -0.3438  0.2324 -0.1032
 6712TIP3    H120100   5.586   3.388   0.700 -2.2933 -0.0343  1.6095
 6712TIP3    H220101   5.525   3.500   0.782 -0.0836  2.9636 -0.5783
 6713TIP3   OH220102   3.307   1.791   2.975  0.4427  0.5638 -0.0075
 6713TIP3    H120103   3.326   1.866   3.031  0.0099  1.0829 -0.5369
 6713TIP3    H220104   3.370   1.798   2.903 -0.2333  0.9954 -0.5735
 6714TIP3   OH220105   6.238   0.033   4.795 -0.1277  0.4733 -0.5239
 6714TIP3    H120106   6.329   0.035   4.823  0.0650 -0.6330 -1.0119
 6714TIP3    H220107   6.201   0.116   4.826 -0.0808 -0.7731  3.3538
 6715TIP3   OH220108   2.199   1.137   2.086 -0.0484 -0.4407 -0.4639
 6715TIP3    H120109   2.159   1.052   2.104  0.6753 -0.7632 -0.3589
 6715TIP3    H220110   2.293   1.122   2.095  0.0473  0.6335  0.7329
 6716TIP3   OH220111   1.083   2.036   5.339 -0.4516 -0.0311 -0.5444
 6716TIP3    H120112   1.117   2.018   5.251 -0.6536  1.5359 -0.9688
 6716TIP3    H220113   1.113   2.124   5.359 -0.1739 -0.4588  1.1017
 6717TIP3   OH220114   6.026   5.091   2.039 -0.3337  0.7645 -0.2225
 6717TIP3    H120115   6.038   5.183   2.016  1.0785  0.1729 -2.1654
 6717TIP3    H220116   5.957   5.061   1.981 -0.0667  0.3659 -0.3383
 6718TIP3   OH220117   2.252   1.409   3.961 -0.8181  0.4472 -0.1759
 6718TIP3    H120118   2.341   1.377   3.978 -0.4201  2.2372  1.3555
 6718TIP3    H220119   2.265   1.493   3.917 -1.8304 -0.6381 -2.7243
 6719TIP3   OH220120   6.884   0.745   2.272 -0.2531  0.0988  0.5274
 6719TIP3    H120121   6.820   0.735   2.342  1.2999 -0.7046  1.8886
 6719TIP3    H220122   6.920   0.832   2.284 -1.4347  0.7954 -0.6110
 6720TIP3   OH220123   1.926   6.282   1.431 -0.1163  0.0264 -0.0488
 6720TIP3    H120124   1.848   6.244   1.473 -0.7017  1.6540  0.3975
 6720TIP3    H220125   1.934   6.369   1.470  0.7754  0.6405 -1.5494
 6721TIP3   OH220126   4.480   3.465   1.624  0.1493 -0.7490  0.2555
 6721TIP3    H120127   4.524   3.459   1.709  1.1168 -0.2556 -0.1978
 6721TIP3    H220128   4.413   3.532   1.637  0.2349 -0.7356  0.6511
 6722TIP3   OH220129   4.739   4.220   4.731  0.5565 -0.2914  0.4182
 6722TIP3    H120130   4.696   4.260   4.655  0.1482  0.8765  1.2299
 6722TIP3    H220131   4.781   4.142   4.696 -0.3160 -0.2350 -0.8501
 6723TIP3   OH220132   1.833   3.652   1.729 -0.4155 -0.3247  0.3718
 6723TIP3    H120133   1.847   3.719   1.662  0.8134 -0.3626  0.5661
 6723TIP3    H220134   1.854   3.696   1.811 -1.1765 -0.4986  0.6736
 6724TIP3   OH220135   1.582   5.700   4.356 -0.1786  0.1592  0.4128
 6724TIP3    H120136   1.506   5.644   4.372  1.3854 -1.7023  1.8135
 6724TIP3    H220137   1.634   5.652   4.291  0.1473  1.0858 -0.0344
 6725TIP3   OH220138   4.452   0.707   2.977 -0.0852 -0.6782  0.0595
 6725TIP3    H120139   4.429   0.746   2.892  0.3709  1.3511  0.8321
 6725TIP3    H220140   4.547   0.706   2.977 -0.0808 -0.2151  0.7506
 6726TIP3   OH220141   4.334   0.780   1.595  0.5692 -0.7768  0.5108
 6726TIP3    H120142   4.310   0.690   1.614  2.5213 -1.4352  0.1588
 6726TIP3    H220143   4.367   0.814   1.678  1.3240 -0.9467  0.2974
 6727TIP3   OH220144   3.384   6.190   1.783 -0.7805  0.1666  0.0432
 6727TIP3    H120145   3.443   6.139   1.726 -1.6318 -0.1773 -0.5657
 6727TIP3    H220146   3.403   6.159   1.871 -1.6361 -1.6406 -0.3547
 6728TIP3   OH220147   2.083   0.928   0.342 -0.0229 -0.4855 -0.1466
 6728TIP3    H120148   2.075   0.848   0.394 -1.3680 -0.2512  0.0501
 6728TIP3    H220149   2.164   0.916   0.292  0.8640 -1.0909  1.3529
 6729TIP3   OH220150   6.716   4.935   4.967 -0.1367 -0.4085  0.5777
 6729TIP3    H120151   6.774   4.894   4.903 -0.2595 -1.4155  1.0909
 6729TIP3    H220152   6.649   4.979   4.915  0.8753  0.4751 -0.0136
 6730TIP3   OH220153   7.167   6.565   3.473  0.1876 -0.3134  0.2579
 6730TIP3    H120154   7.093   6.621   3.451  0.6633  0.5285  0.7884
 6730TIP3    H220155   7.243   6.611   3.440  0.7563  0.1673  2.1291
 6731TIP3   OH220156   4.192   3.154   2.084 -0.0068 -0.1500 -0.6070
 6731TIP3    H120157   4.262   3.212   2.113  1.3375 -1.9733 -0.0367
 6731TIP3    H220158   4.173   3.099   2.160  0.1296 -1.7509 -1.6733
 6732TIP3   OH220159   4.634   5.288   0.939  0.4837  0.0345 -0.6801
 6732TIP3    H120160   4.669   5.340   0.867 -1.0663 -0.0822 -1.5557
 6732TIP3    H220161   4.540   5.281   0.921  0.1337 -0.4055  1.1023
 6733TIP3   OH220162   3.725   1.712   4.340  0.6446 -0.2558  0.2086
 6733TIP3    H120163   3.662   1.739   4.406  1.2552  0.7744  0.3959
 6733TIP3    H220164   3.724   1.784   4.276  0.4911 -0.9648 -0.5934
 6734TIP3   OH220165   0.677   3.535   3.538 -0.0962  0.4081 -0.4843
 6734TIP3    H120166   0.708   3.459   3.587  1.2788  1.2587  0.0190
 6734TIP3    H220167   0.601   3.503   3.489 -0.0226 -1.0754  0.3211
 6735TIP3   OH220168   2.491   5.666   5.743  0.4148 -0.2053 -0.4066
 6735TIP3    H120169   2.494   5.643   5.836 -0.1903 -0.7938 -0.5286
 6735TIP3    H220170   2.416   5.725   5.735  0.4338 -0.1984 -0.5411
 6736TIP3   OH220171   2.270   5.045   3.860 -0.2115 -1.4467  0.2373
 6736TIP3    H120172   2.352   5.038   3.811  0.3142 -0.9222  1.0248
 6736TIP3    H220173   2.202   5.033   3.794  0.4667 -0.0883 -0.7638
 6737TIP3   OH220174   5.644   1.626   1.673  0.6834 -0.1302 -0.2004
 6737TIP3    H120175   5.638   1.714   1.709 -0.1645 -0.0874 -0.4317
 6737TIP3    H220176   5.579   1.624   1.603  1.2764 -0.6808 -0.7472
 6738TIP3   OH220177   6.475   4.564   2.627  0.2934 -0.3456 -0.1035
 6738TIP3    H120178   6.497   4.622   2.554  0.1034 -1.2765 -0.9273
 6738TIP3    H220179   6.502   4.612   2.705  1.2762  0.3174 -0.8319
 6739TIP3   OH220180   4.211   4.852   4.653 -0.0784  0.2124 -0.5635
 6739TIP3    H120181   4.233   4.817   4.566 -0.2868 -0.9096 -0.1754
 6739TIP3    H220182   4.122   4.884   4.644 -0.8557 -1.7497 -0.2546
 6740TIP3   OH220183   3.844   1.928   0.882 -0.5059 -0.3957 -0.3550
 6740TIP3    H120184   3.872   1.837   0.872  0.4288 -0.3688  1.5902
 6740TIP3    H220185   3.911   1.978   0.835 -0.6132 -0.6753 -0.8073
 6741TIP3   OH220186   0.902   6.781   0.017  0.0507  0.0986  0.4705
 6741TIP3    H120187   0.931   6.695   0.049 -0.6185 -0.0861  0.5888
 6741TIP3    H220188   0.950   6.793  -0.065 -1.1562 -1.1853 -0.4667
 6742TIP3   OH220189   6.097   0.525   1.334 -0.6895  1.1184  0.0074
 6742TIP3    H120190   6.019   0.530   1.389 -0.3123  2.5464  0.4604
 6742TIP3    H220191   6.136   0.613   1.339  0.0532  0.9156 -1.5210
 6743TIP3   OH220192   4.846   5.997   2.963 -0.1068  0.3079 -0.1525
 6743TIP3    H120193   4.913   6.051   3.005 -0.6452 -0.0116  1.1704
 6743TIP3    H220194   4.896   5.930   2.916  0.5257  0.9101 -0.3521
 6744TIP3   OH220195   5.252   6.603   5.090 -0.0582 -0.3915  0.3910
 6744TIP3    H120196   5.245   6.605   4.995 -2.5939 -1.3701  0.4774
 6744TIP3    H220197   5.219   6.689   5.119  0.1504 -0.3187  0.4155
 6745TIP3   OH220198   6.568   4.074   0.626 -0.6245  0.4701  0.0700
 6745TIP3    H120199   6.506   4.002   0.616 -0.3635  0.2825 -0.2241
 6745TIP3    H220200   6.543   4.136   0.558  0.1431 -0.0707 -0.7214
 6746TIP3   OH220201   6.240   6.734   3.603 -0.4403  0.7572  0.3332
 6746TIP3    H120202   6.166   6.796   3.609  0.1842  1.4341  1.5380
 6746TIP3    H220203   6.318   6.789   3.609  0.1949  0.0639 -1.0960
 6747TIP3   OH220204   2.840   5.862   5.022 -0.4779  0.1176 -0.5769
 6747TIP3    H120205   2.850   5.871   4.928 -1.2760 -0.0220 -0.6846
 6747TIP3    H220206   2.787   5.783   5.033 -1.7289  0.9929 -0.0978
 6748TIP3   OH220207   2.621   0.854   3.772  0.0266 -0.6045 -0.5271
 6748TIP3    H120208   2.633   0.948   3.759 -0.6953 -0.7641 -2.6369
 6748TIP3    H220209   2.608   0.845   3.867 -1.7231  1.6388 -0.4738
 6749TIP3   OH220210   2.237   6.165   3.260  0.1299  0.1079 -0.3598
 6749TIP3    H120211   2.294   6.236   3.231  1.1099 -0.7948 -0.7046
 6749TIP3    H220212   2.176   6.152   3.187 -0.2102  0.7441 -0.1957
 6750TIP3   OH220213   1.692   4.225   1.204 -0.3928  0.4346  0.0656
 6750TIP3    H120214   1.675   4.153   1.143  0.1506  0.9003 -0.6591
 6750TIP3    H220215   1.778   4.259   1.178  0.0943  0.3184  1.4433
 6751TIP3   OH220216   1.967   1.813   3.354 -0.0055  0.1459  0.0795
 6751TIP3    H120217   1.887   1.762   3.342  0.2938 -0.5325  0.8821
 6751TIP3    H220218   1.939   1.904   3.344 -0.5871 -0.1450 -1.1390
 6752TIP3   OH220219   2.867   2.750   1.306  0.6382 -0.0269  0.3914
 6752TIP3    H120220   2.881   2.808   1.231 -1.0863  0.9531  0.7752
 6752TIP3    H220221   2.841   2.667   1.267 -0.8816  0.6581 -0.1219
 6753TIP3   OH220222   6.249   1.885   4.582  0.4491 -0.2935  0.3887
 6753TIP3    H120223   6.297   1.803   4.566 -0.1470 -0.7299  0.7859
 6753TIP3    H220224   6.286   1.920   4.663 -0.2889 -0.9365  1.0198
 6754TIP3   OH220225   2.428   1.196   3.792  0.0507 -0.4056  0.6022
 6754TIP3    H120226   2.440   1.289   3.809  0.6206 -0.4273  0.3366
 6754TIP3    H220227   2.517   1.161   3.785 -0.1301 -1.2208  2.0572
 6755TIP3   OH220228   4.365   1.755   4.026 -0.1195 -0.1629 -0.1328
 6755TIP3    H120229   4.424   1.683   4.046 -0.4619 -1.4163 -3.1450
 6755TIP3    H220230   4.277   1.719   4.044 -0.1768  0.3890  0.7294
 6756TIP3   OH220231   7.101   5.005   4.532 -0.1782 -0.5643 -0.1488
 6756TIP3    H120232   7.147   4.950   4.596 -1.0103  0.2561  1.1887
 6756TIP3    H220233   7.018   4.960   4.518 -0.9021  0.3914  1.0242
 6757TIP3   OH220234   3.466   5.805   0.372  0.0217  0.6043  0.9657
 6757TIP3    H120235   3.469   5.741   0.301  0.5567  0.5531  1.0253
 6757TIP3    H220236   3.557   5.812   0.401 -0.0073  1.4778  0.8784
 6758TIP3   OH220237   0.888   5.066   0.083  0.1928  0.1601 -0.7632
 6758TIP3    H120238   0.815   5.118   0.050 -0.2151  0.8192  1.0448
 6758TIP3    H220239   0.865   4.975   0.063  0.5523  0.5604 -3.2859
 6759TIP3   OH220240   6.419   6.787   0.042  0.0439 -0.1966  0.0649
 6759TIP3    H120241   6.385   6.727   0.109  0.0960 -0.9902 -0.6033
 6759TIP3    H220242   6.355   6.784  -0.028  0.6809 -0.4669 -0.5218
 6760TIP3   OH220243   5.738   5.797   5.053 -0.5901  0.2791  0.2697
 6760TIP3    H120244   5.764   5.707   5.034 -0.7378  0.1737  0.5628
 6760TIP3    H220245   5.818   5.838   5.087  0.0857  0.8683 -1.8462
 6761TIP3   OH220246   0.431   4.301   4.092  0.0759  0.3474 -0.2340
 6761TIP3    H120247   0.492   4.252   4.036 -0.1444 -1.1287  0.7467
 6761TIP3    H220248   0.414   4.242   4.166 -2.1186  0.9313 -0.2034
 6762TIP3   OH220249   0.578   4.757   1.389 -0.0968  0.8548 -0.0356
 6762TIP3    H120250   0.554   4.664   1.383  1.7698  0.3361 -0.3208
 6762TIP3    H220251   0.532   4.788   1.467 -1.3028 -0.1168 -0.3220
 6763TIP3   OH220252   2.302   3.732   1.561  0.1102  0.2114 -0.6148
 6763TIP3    H120253   2.390   3.698   1.579 -0.3993 -1.0427 -0.3898
 6763TIP3    H220254   2.316   3.806   1.502  1.3054 -0.0014 -0.6199
 6764TIP3   OH220255   2.758   1.125   1.792 -0.2560  0.3860  0.1223
 6764TIP3    H120256   2.800   1.188   1.850 -1.4600  0.4795  0.9344
 6764TIP3    H220257   2.776   1.040   1.833 -0.6043  0.4020  0.3101
 6765TIP3   OH220258   3.396   1.689   4.850 -0.5739  0.2908  0.4205
 6765TIP3    H120259   3.406   1.668   4.942 -0.2982  2.2591  0.8826
 6765TIP3    H220260   3.348   1.614   4.813 -1.1900 -0.2628  2.2555
 6766TIP3   OH220261   6.382   1.795   1.068  0.4119 -0.1195 -0.5261
 6766TIP3    H120262   6.434   1.714   1.073 -0.0891 -0.3798  1.1153
 6766TIP3    H220263   6.351   1.809   1.158 -0.9166  0.9774 -1.1199
 6767TIP3   OH220264   6.359   2.625   0.645  0.4688 -0.0935 -0.0722
 6767TIP3    H120265   6.391   2.655   0.731 -1.6137  1.3631  0.2813
 6767TIP3    H220266   6.333   2.534   0.659  2.3259 -0.6202  0.1790
 6768TIP3   OH220267   7.095   4.961   2.294  0.3385 -0.0654  0.0092
 6768TIP3    H120268   7.017   4.975   2.240 -0.0950 -0.2053  0.5954
 6768TIP3    H220269   7.084   5.019   2.369  1.0416  0.2839 -0.1506
 6769TIP3   OH220270   6.006   3.347   5.269  0.1077 -0.3236 -0.2054
 6769TIP3    H120271   6.050   3.410   5.211 -1.5804 -0.1491 -1.3563
 6769TIP3    H220272   6.077   3.290   5.299  1.5393  1.5321  0.1424
 6770TIP3   OH220273   5.275   2.440   4.775  0.2805 -0.1672 -0.4766
 6770TIP3    H120274   5.370   2.441   4.782  0.3900 -2.1458 -1.1259
 6770TIP3    H220275   5.254   2.355   4.736 -1.5342  1.5557 -3.6093
 6771TIP3   OH220276   4.813   1.141   2.553 -0.0109 -0.1050 -0.5596
 6771TIP3    H120277   4.739   1.202   2.553  0.4338  0.4373 -0.2887
 6771TIP3    H220278   4.821   1.113   2.644  1.6999  1.7971 -0.0560
 6772TIP3   OH220279   2.782   5.253   1.182 -0.6102  0.0313  0.2147
 6772TIP3    H120280   2.806   5.174   1.135 -2.3486  0.5365 -1.6965
 6772TIP3    H220281   2.769   5.225   1.273  0.0424 -1.5861 -0.1615
 6773TIP3   OH220282   6.227   6.580   0.138  0.2516  0.4053  0.5090
 6773TIP3    H120283   6.219   6.564   0.232  1.1362 -0.6773  0.4099
 6773TIP3    H220284   6.153   6.533   0.100 -0.6769  1.6311  0.7086
 6774TIP3   OH220285   0.887   4.466   3.901 -0.0790  0.1371 -0.1069
 6774TIP3    H120286   0.835   4.546   3.910 -0.2402  0.0279 -0.0652
 6774TIP3    H220287   0.847   4.418   3.828 -0.1582 -0.0384  0.0505
 6775TIP3   OH220288   3.525   5.374   2.128  0.7196 -0.2043  0.0005
 6775TIP3    H120289   3.568   5.320   2.061  1.2280 -0.3227  0.4196
 6775TIP3    H220290   3.464   5.429   2.078 -1.7902 -2.9468 -0.2630
 6776TIP3   OH220291   2.153   2.057   1.537 -0.0823 -0.2482  0.0117
 6776TIP3    H120292   2.094   2.063   1.462 -1.5599 -0.9512  1.0704
 6776TIP3    H220293   2.220   1.995   1.509  0.4858  0.9602 -1.3984
 6777TIP3   OH220294   3.050   5.353   1.065 -0.3324  0.3053 -0.5513
 6777TIP3    H120295   2.988   5.285   1.090  2.4126 -2.2365 -0.1483
 6777TIP3    H220296   3.083   5.386   1.148  0.6570 -0.1706 -0.7441
 6778TIP3   OH220297   5.043   3.141   3.251  0.2222 -0.0607 -0.0901
 6778TIP3    H120298   4.988   3.074   3.292 -0.2673  0.6021  0.3591
 6778TIP3    H220299   5.017   3.139   3.159  0.0088 -0.2971 -0.0273
 6779TIP3   OH220300   5.194   1.083   1.662 -0.0321  0.6954  0.0025
 6779TIP3    H120301   5.254   1.008   1.670  1.1359  1.6975  0.8867
 6779TIP3    H220302   5.249   1.160   1.676 -1.3788  1.6959 -0.0014
 6780TIP3   OH220303   2.892   6.150   2.151 -0.1440 -0.1247 -0.6121
 6780TIP3    H120304   2.928   6.089   2.215 -1.7214 -2.7632 -2.0770
 6780TIP3    H220305   2.817   6.190   2.194 -0.0667 -0.4344 -0.1863
 6781TIP3   OH220306   6.010   3.597   2.045 -0.1113 -0.2295  0.5255
 6781TIP3    H120307   5.924   3.619   2.079 -0.4287  1.0752 -0.9698
 6781TIP3    H220308   6.021   3.655   1.969  1.9559 -0.5658  0.5056
 6782TIP3   OH220309   3.667   2.161   0.432  0.4606 -0.2528 -0.4036
 6782TIP3    H120310   3.751   2.143   0.474  0.0993 -1.3371 -0.1089
 6782TIP3    H220311   3.648   2.082   0.380 -0.4946 -0.1369 -0.2555
 6783TIP3   OH220312   4.051   6.022   3.554 -0.3286  0.4152  0.1155
 6783TIP3    H120313   4.066   6.021   3.459  0.4793 -0.2048  0.2309
 6783TIP3    H220314   3.992   6.096   3.569 -0.1395  0.7720 -0.8288
 6784TIP3   OH220315   0.914   4.817   1.875  0.0403  0.3308 -0.1606
 6784TIP3    H120316   1.007   4.829   1.856  0.2970 -0.0181  0.8048
 6784TIP3    H220317   0.870   4.883   1.821  0.7779 -0.0208 -1.2201
 6785TIP3   OH220318   2.009   1.595   3.632  0.5303  0.0466  0.3715
 6785TIP3    H120319   1.920   1.627   3.644  0.8542  0.4923  1.6967
 6785TIP3    H220320   2.001   1.525   3.567 -0.6832  0.5082  0.0103
 6786TIP3   OH220321   3.557   4.753   3.454  0.3566 -0.1186  0.2024
 6786TIP3    H120322   3.636   4.737   3.402 -0.5450  0.1424 -1.2884
 6786TIP3    H220323   3.507   4.672   3.446  0.4273 -0.2597  1.0983
 6787TIP3   OH220324   2.329   6.400   3.883 -0.4296  0.2852 -0.2773
 6787TIP3    H120325   2.373   6.448   3.953 -0.8370  1.1715 -0.6190
 6787TIP3    H220326   2.236   6.418   3.896 -0.6903 -1.1961  0.1558
 6788TIP3   OH220327   1.421   5.331   3.610  0.7932  0.2415  0.0418
 6788TIP3    H120328   1.334   5.313   3.575 -0.0126 -0.9305  2.4416
 6788TIP3    H220329   1.434   5.425   3.594 -1.4324  0.7126  0.5947
 6789TIP3   OH220330   0.583   4.101   0.982 -0.2742 -0.1548  0.3273
 6789TIP3    H120331   0.492   4.099   0.952  0.3645 -1.6724 -1.7884
 6789TIP3    H220332   0.590   4.028   1.043 -0.6600  0.5075  1.1786
 6790TIP3   OH220333   0.217   4.203   1.873  0.2209 -0.3864 -0.1594
 6790TIP3    H120334   0.250   4.275   1.926 -0.6436  0.4840 -0.7649
 6790TIP3    H220335   0.176   4.144   1.936  0.6713 -0.1999  0.3157
 6791TIP3   OH220336   5.723   2.248   3.381  0.4945 -0.5727 -0.6960
 6791TIP3    H120337   5.723   2.341   3.360 -1.3148  0.1276  1.8228
 6791TIP3    H220338   5.813   2.229   3.406  0.7210  0.7561 -0.4189
 6792TIP3   OH220339   1.574   1.495   0.370 -0.4322 -0.3244 -0.1690
 6792TIP3    H120340   1.508   1.465   0.432  0.3064  0.0969  0.8529
 6792TIP3    H220341   1.625   1.417   0.348 -1.2338 -0.6482 -0.9520
 6793TIP3   OH220342   3.477   5.895   0.722 -0.1127 -0.0151  0.3448
 6793TIP3    H120343   3.390   5.935   0.727 -0.0158  0.1821  0.5267
 6793TIP3    H220344   3.465   5.815   0.672 -0.6479 -0.6668  1.4764
 6794TIP3   OH220345   6.110   2.851   0.772  0.3085 -0.2311  0.2322
 6794TIP3    H120346   6.105   2.849   0.677 -1.1571  0.4729  0.2644
 6794TIP3    H220347   6.020   2.834   0.801  1.0970 -2.6133  1.5650
 6795TIP3   OH220348   4.504   2.019   4.798 -0.2610 -0.2337 -0.3030
 6795TIP3    H120349   4.567   1.956   4.764 -0.1833 -0.7836  0.8058
 6795TIP3    H220350   4.557   2.094   4.823 -0.0373 -0.6730  0.5747
 6796TIP3   OH220351   2.761   6.145   3.311  0.5811 -0.2319 -0.4136
 6796TIP3    H120352   2.813   6.220   3.341  1.2915 -1.2662  1.0457
 6796TIP3    H220353   2.759   6.085   3.385 -1.3866 -0.9540 -0.9829
 6797TIP3   OH220354   5.403   0.983   2.983 -0.0666  0.0682  0.2065
 6797TIP3    H120355   5.365   1.037   3.053 -0.8045 -1.1321  0.7646
 6797TIP3    H220356   5.408   1.042   2.908  1.7529  1.7120  1.5175
 6798TIP3   OH220357   2.624   6.434   5.409 -0.2599 -0.7288 -0.3630
 6798TIP3    H120358   2.591   6.361   5.358  1.1630 -1.3937 -0.3729
 6798TIP3    H220359   2.640   6.397   5.496  0.3924 -0.4283 -0.3469
 6799TIP3   OH220360   0.413   4.807   4.925  0.3341  0.2195  0.8093
 6799TIP3    H120361   0.494   4.797   4.976  0.2629 -4.0827  0.4498
 6799TIP3    H220362   0.350   4.846   4.986  1.7700  0.6107  2.1072
 6800TIP3   OH220363   4.209   0.404   3.133  0.2555 -0.1441 -0.4759
 6800TIP3    H120364   4.236   0.494   3.152 -1.3015  0.2389  0.1041
 6800TIP3    H220365   4.177   0.407   3.043 -2.4835  0.6324  0.4165
 6801TIP3   OH220366   3.944   1.104   1.451 -0.5889 -0.3695  0.0162
 6801TIP3    H120367   4.002   1.151   1.391  1.0772 -1.8628  0.3588
 6801TIP3    H220368   3.871   1.164   1.466  1.8742  2.6011  1.2729
 6802TIP3   OH220369   4.999   3.627   5.854  0.4209 -0.1117 -0.1784
 6802TIP3    H120370   5.084   3.644   5.893  0.8852  0.3905 -1.3529
 6802TIP3    H220371   4.956   3.712   5.852 -0.1472 -0.3707  0.4590
 6803TIP3   OH220372   1.664   6.166   1.232  0.1918 -0.3026 -0.0882
 6803TIP3    H120373   1.591   6.178   1.172 -0.2450  1.0825  0.6669
 6803TIP3    H220374   1.740   6.199   1.185  0.0359 -0.2379 -0.2964
 6804TIP3   OH220375   2.349   2.499   0.508 -0.6626  0.2282  0.2794
 6804TIP3    H120376   2.259   2.503   0.541 -0.2248  3.8572  1.4527
 6804TIP3    H220377   2.402   2.531   0.581  1.2694  0.8556 -1.3228
 6805TIP3   OH220378   2.570   6.597   3.090 -0.7257 -0.2231  0.4864
 6805TIP3    H120379   2.565   6.693   3.089  2.7102  0.0611 -0.7772
 6805TIP3    H220380   2.645   6.577   3.146 -0.8312 -2.1534  0.0051
 6806TIP3   OH220381   3.909   3.332   2.368 -0.2555 -0.4126  0.2818
 6806TIP3    H120382   3.847   3.319   2.439 -1.0394  0.3504 -0.2401
 6806TIP3    H220383   3.895   3.423   2.340  0.6452 -0.4321 -0.2753
 6807TIP3   OH220384   0.228   6.364   2.056 -0.3890 -0.1750  0.0688
 6807TIP3    H120385   0.214   6.458   2.065 -0.6117 -0.2145  0.1491
 6807TIP3    H220386   0.190   6.342   1.971 -0.2534 -0.1753  0.0090
 6808TIP3   OH220387   3.274   4.015   3.947 -0.1894  0.5403  0.7673
 6808TIP3    H120388   3.269   4.062   4.030  1.7177  0.5816  0.9194
 6808TIP3    H220389   3.296   4.082   3.882  1.8838  0.0554  0.8754
 6809TIP3   OH220390   4.891   6.340   2.675  0.1154 -0.0245 -0.0783
 6809TIP3    H120391   4.922   6.416   2.725  1.2058 -0.1366 -0.5715
 6809TIP3    H220392   4.942   6.266   2.708 -0.7659 -0.5140  0.2215
 6810TIP3   OH220393   5.828   6.536   5.672 -0.3781 -0.1200  0.4170
 6810TIP3    H120394   5.846   6.457   5.621 -1.0924 -0.5772  0.8712
 6810TIP3    H220395   5.779   6.592   5.612 -0.2432 -0.1949  0.2351
 6811TIP3   OH220396   6.441   5.334   1.053 -0.0403 -0.1779  0.1213
 6811TIP3    H120397   6.493   5.309   0.977 -0.5317  2.5379 -1.2440
 6811TIP3    H220398   6.363   5.279   1.049  0.3833 -0.7324 -0.7782
 6812TIP3   OH220399   3.743   5.495   3.502 -0.2270  0.3302  0.0576
 6812TIP3    H120400   3.697   5.579   3.500 -0.0529  0.5715  2.7611
 6812TIP3    H220401   3.815   5.505   3.439 -1.8821  1.0945 -1.8302
 6813TIP3   OH220402   6.483   4.776   1.949  0.8810 -0.0319 -0.0384
 6813TIP3    H120403   6.410   4.734   1.904 -0.8964  2.9407 -0.2162
 6813TIP3    H220404   6.558   4.763   1.891 -0.0399 -1.1017 -1.0427
 6814TIP3   OH220405   3.083   1.231   2.401  0.1504 -0.5480 -0.6010
 6814TIP3    H120406   3.121   1.191   2.323  2.2797 -2.1645  1.1615
 6814TIP3    H220407   3.028   1.163   2.439  1.4235 -0.8535  0.8055
 6815TIP3   OH220408   5.956   0.768   2.832 -0.6364 -0.0539  0.6626
 6815TIP3    H120409   6.024   0.727   2.778 -0.3746 -2.2745  2.5487
 6815TIP3    H220410   6.002   0.839   2.878  0.2326 -0.9601  1.2447
 6816TIP3   OH220411   6.461   5.366   5.479  0.0092  0.2253 -0.6900
 6816TIP3    H120412   6.539   5.313   5.495 -0.2654 -0.3842 -1.3312
 6816TIP3    H220413   6.388   5.311   5.506 -0.2097  0.7620 -0.1685
 6817TIP3   OH220414   1.031   4.690   2.536  0.1259  0.1273 -0.7021
 6817TIP3    H120415   1.096   4.755   2.563 -0.4774  1.0554 -1.3886
 6817TIP3    H220416   0.965   4.741   2.489 -1.8107 -0.5429  1.1153
 6818TIP3   OH220417   3.030   0.799   3.420  0.1933 -0.8780 -0.2319
 6818TIP3    H120418   2.997   0.820   3.333  0.4704 -3.0878 -0.9335
 6818TIP3    H220419   2.952   0.794   3.475 -0.0475 -0.1747 -0.5033
 6819TIP3   OH220420   5.209   3.925   0.291  0.6276 -0.1717 -0.1647
 6819TIP3    H120421   5.187   4.008   0.333  1.7847 -0.4209  0.9835
 6819TIP3    H220422   5.207   3.861   0.363 -0.5636 -1.2226 -1.0822
 6820TIP3   OH220423   4.092   2.425   3.984  0.2935  0.2180 -0.0606
 6820TIP3    H120424   4.109   2.511   4.022  0.2841  0.5285 -0.7399
 6820TIP3    H220425   4.131   2.429   3.896 -1.5603  0.2931 -0.9309
 6821TIP3   OH220426   1.333   3.116   0.620  0.3173  0.5800 -0.2150
 6821TIP3    H120427   1.361   3.205   0.641  0.2189  0.4137  0.6567
 6821TIP3    H220428   1.247   3.127   0.580  0.0948  0.8506  0.3242
 6822TIP3   OH220429   4.154   4.538   1.972 -0.1694 -0.5787 -0.0273
 6822TIP3    H120430   4.159   4.567   1.880  1.3023 -0.9153 -0.0766
 6822TIP3    H220431   4.061   4.545   1.994 -0.8016 -1.9153 -1.9993
 6823TIP3   OH220432   4.682   1.088   2.134  0.1392  0.2775  0.4255
 6823TIP3    H120433   4.748   1.058   2.196  1.0213  2.4633  0.6539
 6823TIP3    H220434   4.704   1.045   2.052  1.4763  0.4894  0.6557
 6824TIP3   OH220435   0.149   6.034   1.233  0.1077 -0.3559 -0.1732
 6824TIP3    H120436   0.054   6.042   1.243  0.1888  0.1129  0.2555
 6824TIP3    H220437   0.185   6.097   1.295  0.6988 -0.3952 -0.4712
 6825TIP3   OH220438   6.648   5.451   4.478 -0.1644 -0.5634  0.1071
 6825TIP3    H120439   6.606   5.382   4.529  2.2152 -2.2394 -0.0148
 6825TIP3    H220440   6.688   5.509   4.543 -0.5853 -0.3460  0.1774
 6826TIP3   OH220441   5.304   3.340   3.338 -0.4258  0.4453  0.7796
 6826TIP3    H120442   5.292   3.414   3.398  0.5234  0.0049  1.5341
 6826TIP3    H220443   5.215   3.316   3.312 -0.8254  0.9789  1.6090
 6827TIP3   OH220444   4.272   6.058   2.034  0.0803  0.0376  0.7752
 6827TIP3    H120445   4.248   6.093   2.120  2.8891 -0.7650  2.0217
 6827TIP3    H220446   4.275   6.134   1.977 -0.2039  0.8521  1.8140
 6828TIP3   OH220447   2.381   5.339   4.784 -0.3140  0.0811 -0.4067
 6828TIP3    H120448   2.405   5.312   4.695 -0.7076  0.1877 -0.5500
 6828TIP3    H220449   2.463   5.369   4.823  0.1372 -1.3520 -0.2187
 6829TIP3   OH220450   2.198   3.050   2.774  0.5596 -0.3992 -0.1167
 6829TIP3    H120451   2.106   3.031   2.755 -0.4304  1.5725  2.2322
 6829TIP3    H220452   2.207   3.033   2.868  2.5431 -0.2409 -0.2392
 6830TIP3   OH220453   1.043   3.977   0.284  0.4666 -0.0848  0.3634
 6830TIP3    H120454   0.955   3.963   0.319  0.5112  0.1898  0.5931
 6830TIP3    H220455   1.100   3.975   0.361  0.6920 -0.5143  0.1865
 6831TIP3   OH220456   3.079   0.179   4.965 -0.5814  0.1293 -0.5252
 6831TIP3    H120457   3.073   0.090   4.929  1.6476  0.5500 -2.0813
 6831TIP3    H220458   3.150   0.174   5.029 -0.7763  0.7156 -0.2551
 6832TIP3   OH220459   3.664   5.924   3.939  0.4853  0.0152 -0.5432
 6832TIP3    H120460   3.682   5.892   4.027 -0.8891 -1.8900 -0.8785
 6832TIP3    H220461   3.702   5.858   3.881  0.5659  0.7623 -1.3584
 6833TIP3   OH220462   1.196   0.187   0.744  0.0314 -0.3375 -0.1858
 6833TIP3    H120463   1.191   0.257   0.810  0.6078  1.0886 -1.5759
 6833TIP3    H220464   1.104   0.167   0.725 -0.1415 -0.2927  0.5798
 6834TIP3   OH220465   5.263   1.093   4.416  0.4975  0.0589 -0.6100
 6834TIP3    H120466   5.172   1.068   4.432  0.1990  1.7772  0.5824
 6834TIP3    H220467   5.314   1.026   4.462 -0.2497  0.7715  1.3379
 6835TIP3   OH220468   5.090   6.476   0.051 -0.2239  0.4781 -0.3250
 6835TIP3    H120469   5.152   6.548   0.060  0.7170 -0.3899  0.3545
 6835TIP3    H220470   5.058   6.459   0.140 -2.6991  1.9345 -0.8308
 6836TIP3   OH220471   3.855   1.442   3.445 -0.2665 -0.5515  0.4978
 6836TIP3    H120472   3.908   1.504   3.396 -1.0054  0.0789  0.4781
 6836TIP3    H220473   3.818   1.384   3.379  0.8700 -1.3838  0.5642
 6837TIP3   OH220474   2.142   5.891   3.704 -0.2411 -0.1158 -0.1850
 6837TIP3    H120475   2.185   5.952   3.644  1.0239 -0.3472  0.4307
 6837TIP3    H220476   2.061   5.934   3.730  0.3530  1.0441 -0.2050
 6838TIP3   OH220477   5.647   2.829   0.581 -0.2720 -0.4491 -0.3444
 6838TIP3    H120478   5.558   2.799   0.567 -0.6197 -0.2526  1.2445
 6838TIP3    H220479   5.649   2.917   0.543 -1.3454  0.3172  1.2671
 6839TIP3   OH220480   6.078   6.204   4.342 -0.2554  0.6177  0.1813
 6839TIP3    H120481   6.017   6.247   4.282  0.6068 -0.7592 -1.7693
 6839TIP3    H220482   6.030   6.128   4.375  0.1420 -0.1163 -0.8728
 6840TIP3   OH220483   0.629   2.126   2.402  0.1491  0.2617 -0.1831
 6840TIP3    H120484   0.676   2.048   2.431  0.1428 -0.4435 -1.9337
 6840TIP3    H220485   0.696   2.184   2.367 -0.0945 -0.1110 -1.3127
 6841TIP3   OH220486   3.996   6.296   5.680  0.2138 -0.1400 -0.4083
 6841TIP3    H120487   3.940   6.366   5.646 -1.0498 -1.0526 -0.2907
 6841TIP3    H220488   4.068   6.290   5.617 -0.0240  0.7962 -0.7881
 6842TIP3   OH220489   0.337   2.132   4.825 -0.2875 -0.1982 -0.0766
 6842TIP3    H120490   0.293   2.071   4.765 -0.5924 -0.2297  0.1742
 6842TIP3    H220491   0.287   2.125   4.906  0.3395 -0.4185  0.2957
 6843TIP3   OH220492   2.385   4.216   1.661 -0.1017 -0.0419  0.4092
 6843TIP3    H120493   2.377   4.197   1.567  1.1150 -0.6790  0.4084
 6843TIP3    H220494   2.451   4.154   1.692 -0.2827  0.3517  1.6388
 6844TIP3   OH220495   3.540   3.858   3.293 -0.0212 -0.5070 -0.4338
 6844TIP3    H120496   3.466   3.918   3.278 -2.3466 -3.1276 -0.2963
 6844TIP3    H220497   3.569   3.835   3.205  1.4052  1.2876 -0.4935
 6845TIP3   OH220498   6.612   0.763   1.142 -0.2293  0.0640 -0.1350
 6845TIP3    H120499   6.618   0.843   1.194 -1.7860 -0.0415  0.2554
 6845TIP3    H220500   6.687   0.710   1.171  1.4375  1.7545 -1.1570
 6846TIP3   OH220501   1.272   2.510   5.842 -0.1682 -0.0873  0.5789
 6846TIP3    H120502   1.176   2.514   5.843 -0.1869 -0.3146 -0.2379
 6846TIP3    H220503   1.296   2.508   5.750  0.5933 -0.8225  0.7775
 6847TIP3   OH220504   4.106   2.559   2.213  0.3708 -0.3210 -0.0789
 6847TIP3    H120505   4.093   2.544   2.119 -1.0104  0.2976 -0.0054
 6847TIP3    H220506   4.181   2.620   2.217  0.5185 -0.4503 -0.7679
 6848TIP3   OH220507   5.893   3.451   1.003 -0.2352 -0.1753  0.4727
 6848TIP3    H120508   5.858   3.516   0.941 -1.1217 -0.0827  1.0503
 6848TIP3    H220509   5.968   3.414   0.959 -1.5360 -0.9685 -1.1879
 6849TIP3   OH220510   1.463   2.665   3.157  0.0454  0.1870 -0.2046
 6849TIP3    H120511   1.435   2.614   3.081 -1.5897 -0.0469  0.5069
 6849TIP3    H220512   1.526   2.609   3.202 -0.2000 -0.3463 -0.5178
 6850TIP3   OH220513   6.228   3.895   4.242 -0.3442 -0.5311 -0.0117
 6850TIP3    H120514   6.247   3.961   4.309 -0.7764 -0.7786  0.3579
 6850TIP3    H220515   6.181   3.944   4.174 -0.2706 -0.3666  0.0542
 6851TIP3   OH220516   6.966   3.731   5.453  0.7208 -0.4169 -0.2477
 6851TIP3    H120517   6.887   3.695   5.494  0.8735 -2.5773 -1.7289
 6851TIP3    H220518   6.944   3.824   5.438 -0.6764 -0.4341  1.3304
 6852TIP3   OH220519   1.999   3.978   4.804  0.1833  0.5499  0.3191
 6852TIP3    H120520   2.062   3.914   4.838 -0.4137  0.3392  1.0710
 6852TIP3    H220521   1.942   3.996   4.879  0.6770  2.4105  0.2792
 6853TIP3   OH220522   4.271   1.077   2.546 -0.4256  0.5500 -0.2365
 6853TIP3    H120523   4.361   1.097   2.517 -0.1148  1.2182  1.1218
 6853TIP3    H220524   4.260   0.984   2.529  0.6941  0.3632 -0.0109
 6854TIP3   OH220525   6.924   0.775   4.576 -0.1884 -0.2650 -0.7272
 6854TIP3    H120526   6.937   0.853   4.630  1.1911 -1.6662  1.0843
 6854TIP3    H220527   6.833   0.780   4.548 -0.0804  2.0849 -0.8902
 6855TIP3   OH220528   2.110   6.748   1.207 -0.5266  0.1892  0.2153
 6855TIP3    H120529   2.099   6.810   1.279 -0.1784  0.7304 -0.1931
 6855TIP3    H220530   2.191   6.774   1.164 -0.8687  0.0465 -0.5426
 6856TIP3   OH220531   6.625   0.732   0.669 -0.1566 -0.6709  0.2873
 6856TIP3    H120532   6.579   0.779   0.738  1.7304  1.0395  0.4791
 6856TIP3    H220533   6.661   0.801   0.612  0.8062 -1.9378 -0.7282
 6857TIP3   OH220534   1.207   4.000   3.191  0.0429 -0.3525 -0.1033
 6857TIP3    H120535   1.255   4.000   3.274  1.0503 -0.4296 -0.6700
 6857TIP3    H220536   1.167   4.087   3.187 -0.3065 -0.4729  0.6190
 6858TIP3   OH220537   1.146   5.882   0.491 -0.2343  0.0021  0.1635
 6858TIP3    H120538   1.089   5.922   0.425  0.7468 -1.0767 -1.4058
 6858TIP3    H220539   1.235   5.891   0.455  0.0544 -3.5188 -0.3244
 6859TIP3   OH220540   5.053   3.267   3.564  0.1279  0.4497  0.0141
 6859TIP3    H120541   5.114   3.289   3.634  2.5446  1.4216 -2.2611
 6859TIP3    H220542   5.083   3.183   3.530  1.1138  1.5249 -1.9566
 6860TIP3   OH220543   6.849   3.245   2.582  0.4582 -0.4419 -0.4292
 6860TIP3    H120544   6.840   3.211   2.493  1.8561 -2.5242  0.1390
 6860TIP3    H220545   6.908   3.320   2.573 -0.6496  0.3472 -1.4162
 6861TIP3   OH220546   3.469   3.355   0.729 -0.1378  0.1715 -0.1993
 6861TIP3    H120547   3.485   3.446   0.707 -2.0656  0.2377 -1.6190
 6861TIP3    H220548   3.386   3.356   0.777 -1.0704 -0.9106 -1.6656
 6862TIP3   OH220549   4.361   3.801   3.753  0.0696 -0.6107 -0.2193
 6862TIP3    H120550   4.410   3.807   3.835 -1.3823 -1.2910  0.7328
 6862TIP3    H220551   4.388   3.717   3.716 -0.7856 -1.2687  0.6024
 6863TIP3   OH220552   0.778   2.882   2.218 -0.1870  0.3611  0.2377
 6863TIP3    H120553   0.717   2.809   2.212  0.5557 -0.1808 -1.1137
 6863TIP3    H220554   0.756   2.925   2.301 -1.3868 -0.7053  0.5009
 6864TIP3   OH220555   1.396   6.407   3.936 -0.3276 -0.6907  0.7381
 6864TIP3    H120556   1.327   6.350   3.971 -0.3375 -0.5072  1.0139
 6864TIP3    H220557   1.465   6.405   4.001  0.2000 -1.3692  0.1746
 6865TIP3   OH220558   7.027   0.461   5.150 -0.2147 -0.2167 -0.1720
 6865TIP3    H120559   6.949   0.405   5.151 -0.6987  0.4079  1.6472
 6865TIP3    H220560   6.995   0.547   5.175  0.9925  0.1771  0.0887
 6866TIP3   OH220561   5.589   5.314   3.860 -0.4860 -0.0558 -0.0867
 6866TIP3    H120562   5.563   5.255   3.930 -0.8804  0.5931  0.3192
 6866TIP3    H220563   5.520   5.306   3.794 -1.0227  0.6382  0.3812
 6867TIP3   OH220564   0.859   3.653   4.048  0.6225  0.1137  0.1803
 6867TIP3    H120565   0.846   3.623   4.138 -0.5988 -0.8106 -0.2795
 6867TIP3    H220566   0.880   3.746   4.058 -0.6191  0.3121  1.3884
 6868TIP3   OH220567   5.944   0.151   1.943 -0.3121  0.2977 -0.0577
 6868TIP3    H120568   5.980   0.224   1.993  2.1063 -0.7319 -0.1550
 6868TIP3    H220569   5.873   0.117   1.998 -0.5629  1.8369  0.6164
 6869TIP3   OH220570   2.390   5.853   2.205  0.0673  0.0658 -0.2880
 6869TIP3    H120571   2.407   5.940   2.170  0.2742  0.4739  0.7901
 6869TIP3    H220572   2.436   5.794   2.146  2.1547  0.8695  0.4534
 6870TIP3   OH220573   5.565   5.163   1.222 -0.1175 -0.0114 -0.2746
 6870TIP3    H120574   5.567   5.101   1.295  0.8817 -0.2416 -0.4823
 6870TIP3    H220575   5.635   5.133   1.163  0.0616  1.0285 -0.6124
 6871TIP3   OH220576   6.723   3.035   2.160 -0.4169  0.2452 -0.9921
 6871TIP3    H120577   6.704   3.075   2.245 -1.5906  1.6923 -1.8904
 6871TIP3    H220578   6.799   2.979   2.177 -0.9026  0.1241  1.1017
 6872TIP3   OH220579   5.013   5.033   4.935  0.0639  0.3662  0.2612
 6872TIP3    H120580   5.001   5.058   4.843  0.7982  0.3670  0.1603
 6872TIP3    H220581   5.080   5.093   4.967 -1.3121  1.4255  1.2520
 6873TIP3   OH220582   0.085   1.070   2.529  0.3446 -0.4176  0.0148
 6873TIP3    H120583   0.118   0.995   2.580  2.1757  0.8150  0.7477
 6873TIP3    H220584   0.102   1.047   2.438  0.5534 -1.0430  0.2068
 6874TIP3   OH220585   5.905   2.293   3.032 -0.1258 -0.1661 -0.7133
 6874TIP3    H120586   5.872   2.205   3.045  0.9514 -0.5623 -0.5252
 6874TIP3    H220587   5.848   2.331   2.966 -0.8493 -0.8580 -0.4990
 6875TIP3   OH220588   2.993   5.796   2.390  0.0726  0.3427  0.5092
 6875TIP3    H120589   2.898   5.800   2.399  0.0228  0.7291 -0.1106
 6875TIP3    H220590   3.019   5.887   2.372  0.4744  0.1226 -0.0550
 6876TIP3   OH220591   2.940   4.671   4.957 -0.1766  0.4594  0.4344
 6876TIP3    H120592   2.987   4.701   4.879 -0.8133  1.6670  0.4916
 6876TIP3    H220593   2.931   4.749   5.011  0.7744 -0.4860  2.0171
 6877TIP3   OH220594   1.795   3.588   5.194  0.1365  0.0052 -0.1316
 6877TIP3    H120595   1.794   3.525   5.122 -1.8477 -0.7584  0.5017
 6877TIP3    H220596   1.768   3.670   5.154 -2.0571 -0.6570 -0.1212
 6878TIP3   OH220597   4.814   1.365   1.782 -0.1345  0.0062  0.2780
 6878TIP3    H120598   4.734   1.358   1.730  0.0561 -0.2415  0.0071
 6878TIP3    H220599   4.884   1.365   1.717  0.2202 -2.1320  0.5735
 6879TIP3   OH220600   6.165   3.670   0.601 -0.5777 -0.0899 -0.1825
 6879TIP3    H120601   6.138   3.699   0.514 -1.0025 -1.3297 -0.4824
 6879TIP3    H220602   6.085   3.674   0.654 -0.9094 -1.7718 -0.5264
 6880TIP3   OH220603   0.882   3.627   3.799 -0.1647  0.7430  0.3135
 6880TIP3    H120604   0.888   3.624   3.894  0.2386  0.2054  0.2786
 6880TIP3    H220605   0.973   3.633   3.769 -0.3112  1.3275 -0.0283
 6881TIP3   OH220606   1.836   5.980   1.908 -0.4699  0.0575  0.7370
 6881TIP3    H120607   1.827   6.051   1.971 -1.2210  1.3916 -0.7870
 6881TIP3    H220608   1.759   5.987   1.852  0.0311 -1.2222 -0.1800
 6882TIP3   OH220609   5.325   3.420   0.295  0.4046 -0.1211  0.8315
 6882TIP3    H120610   5.281   3.423   0.380 -1.1202  1.0517  0.0504
 6882TIP3    H220611   5.292   3.497   0.248  1.6984 -0.3899 -0.6018
 6883TIP3   OH220612   1.448   5.893   3.763  0.0510 -0.2489 -0.4428
 6883TIP3    H120613   1.478   5.982   3.748  0.1198 -0.3601 -0.9789
 6883TIP3    H220614   1.516   5.838   3.724  0.2849 -0.5544  0.3620
 6884TIP3   OH220615   4.959   1.828   2.078 -0.2903  0.1663  0.5067
 6884TIP3    H120616   5.010   1.904   2.049 -1.4164  1.3842  1.5862
 6884TIP3    H220617   4.959   1.769   2.002  0.0196  1.5621 -0.6295
 6885TIP3   OH220618   1.808   2.169   1.598  0.3476  0.0677  0.2604
 6885TIP3    H120619   1.792   2.162   1.692  0.9055 -0.9532  0.2925
 6885TIP3    H220620   1.724   2.149   1.557  0.7039 -2.2401  0.5013
 6886TIP3   OH220621   0.830   2.471   3.954  0.0972 -0.4889  0.0785
 6886TIP3    H120622   0.858   2.441   3.868 -1.5685  0.9814 -1.0297
 6886TIP3    H220623   0.905   2.520   3.988  0.3949 -0.1817 -0.9970
 6887TIP3   OH220624   0.861   6.309   4.423 -1.1194  0.2806 -0.1643
 6887TIP3    H120625   0.923   6.249   4.383  0.3957  2.0940 -0.6764
 6887TIP3    H220626   0.858   6.283   4.515  0.7754  0.3974 -0.0273
 6888TIP3   OH220627   1.432   1.856   4.575  0.3343 -0.0645 -0.3879
 6888TIP3    H120628   1.384   1.885   4.652 -0.2718 -1.1671 -0.3321
 6888TIP3    H220629   1.444   1.935   4.522 -0.2321  0.4871  0.3058
 6889TIP3   OH220630   1.589   5.136   3.697  0.1580 -0.3336  0.4547
 6889TIP3    H120631   1.525   5.184   3.643 -0.4494 -0.6463  0.8843
 6889TIP3    H220632   1.668   5.190   3.693 -0.2187  0.2108  0.1472
 6890TIP3   OH220633   3.127   4.135   2.478 -0.2954 -0.7882  0.2316
 6890TIP3    H120634   3.197   4.137   2.414 -0.8939  1.6129 -0.4276
 6890TIP3    H220635   3.049   4.163   2.430 -1.5502 -2.4291  1.1830
 6891TIP3   OH220636   4.592   0.908   1.493  0.3647 -0.2862  0.5000
 6891TIP3    H120637   4.570   0.992   1.453 -0.1440  0.6678  2.6388
 6891TIP3    H220638   4.508   0.861   1.497  0.8361 -1.4325 -1.7280
 6892TIP3   OH220639   5.021   4.688   2.676  0.2787 -0.0731 -0.2742
 6892TIP3    H120640   5.105   4.699   2.631 -0.4057  0.3232 -1.4954
 6892TIP3    H220641   4.956   4.693   2.606 -0.8650  1.1919  0.8254
 6893TIP3   OH220642   6.207   2.271   5.625  0.0357  0.1490  0.1141
 6893TIP3    H120643   6.111   2.268   5.630 -0.0098 -0.9979 -0.9698
 6893TIP3    H220644   6.227   2.358   5.590 -0.6514  0.1200 -0.3666
 6894TIP3   OH220645   0.778   1.472   1.117  0.1246 -0.1844  0.4668
 6894TIP3    H120646   0.708   1.436   1.062 -0.3162  0.9275  0.2572
 6894TIP3    H220647   0.830   1.525   1.057 -0.6105  1.3884  1.1499
 6895TIP3   OH220648   6.823   6.645   1.751 -0.1617  0.1022  0.0781
 6895TIP3    H120649   6.778   6.564   1.776 -0.4137 -0.2936 -1.5197
 6895TIP3    H220650   6.916   6.624   1.762 -0.1983 -0.6106 -0.8231
 6896TIP3   OH220651   1.285   1.778   2.527  0.2768 -0.0148 -0.0482
 6896TIP3    H120652   1.296   1.694   2.572 -1.6033 -1.3472 -1.8803
 6896TIP3    H220653   1.367   1.792   2.481  0.9886 -0.2951  1.0958
 6897TIP3   OH220654   1.508   1.840   4.937  0.3423  0.0215  0.2329
 6897TIP3    H120655   1.559   1.781   4.882  0.0463  0.9422 -1.0837
 6897TIP3    H220656   1.438   1.872   4.879 -1.4437 -0.8027  1.8287
 6898TIP3   OH220657   2.012   2.158   1.942 -0.0207  0.0303 -0.1624
 6898TIP3    H120658   1.938   2.135   1.886  0.3953 -1.9538  0.0157
 6898TIP3    H220659   1.980   2.144   2.031 -0.0967  1.3448  0.0351
 6899TIP3   OH220660   6.676   3.152   5.397 -0.6284 -0.2735 -0.0048
 6899TIP3    H120661   6.647   3.077   5.448  2.2634  0.7103  3.5599
 6899TIP3    H220662   6.737   3.116   5.333 -0.3140 -1.1107  0.7551
 6900TIP3   OH220663   0.917   5.937   1.957 -0.2917 -0.4216 -0.2981
 6900TIP3    H120664   0.999   5.981   1.935  0.1353 -1.6761 -1.3766
 6900TIP3    H220665   0.866   5.939   1.876 -1.0838 -0.1919  0.1910
 6901TIP3   OH220666   3.477   0.124   3.151  0.4010 -0.5422  0.3076
 6901TIP3    H120667   3.539   0.197   3.139  0.1595 -0.5977 -1.5376
 6901TIP3    H220668   3.469   0.116   3.246  1.2961  1.1059  0.5760
 6902TIP3   OH220669   0.596   6.245   2.309 -0.2283  0.0719 -0.5718
 6902TIP3    H120670   0.626   6.169   2.260 -0.9818 -0.1380 -0.7201
 6902TIP3    H220671   0.606   6.221   2.401 -1.7340 -0.7629 -0.5838
 6903TIP3   OH220672   1.485   3.168   5.500  0.0877  0.6219 -0.2057
 6903TIP3    H120673   1.465   3.226   5.574  0.6003 -0.2149  0.6125
 6903TIP3    H220674   1.400   3.136   5.470 -0.0610 -0.0208  0.8538
 6904TIP3   OH220675   6.688   6.308   5.019  0.5154 -0.2256 -0.4884
 6904TIP3    H120676   6.746   6.281   5.091 -0.8082  1.9871  1.5952
 6904TIP3    H220677   6.743   6.366   4.966  1.5132 -1.8875 -1.3569
 6905TIP3   OH220678   0.956   4.622   4.341  0.1526  0.2025  0.4076
 6905TIP3    H120679   0.991   4.556   4.280 -1.4293  0.2153 -0.5702
 6905TIP3    H220680   1.032   4.675   4.365  1.0474 -0.5955 -0.5658
 6906TIP3   OH220681   2.687   1.044   4.871 -0.0135 -1.0514 -0.6803
 6906TIP3    H120682   2.606   1.001   4.896 -0.1752 -1.4495 -1.8211
 6906TIP3    H220683   2.706   1.011   4.783  0.1620  0.7620 -1.3709
 6907TIP3   OH220684   6.806   3.694   2.677  0.6708 -0.8414  0.2779
 6907TIP3    H120685   6.863   3.623   2.707  0.8821 -0.0794  1.7440
 6907TIP3    H220686   6.769   3.731   2.757  0.9339  1.0201 -0.4123
 6908TIP3   OH220687   6.469   0.621   1.428  0.1287  0.0082  0.0062
 6908TIP3    H120688   6.473   0.582   1.340 -0.0359 -0.6228  0.2772
 6908TIP3    H220689   6.384   0.666   1.430  1.3538  2.6146 -1.2164
 6909TIP3   OH220690   6.084   1.138   5.441  0.2077  0.3097  0.1269
 6909TIP3    H120691   6.142   1.070   5.408 -1.8714 -1.1897 -0.6761
 6909TIP3    H220692   6.082   1.204   5.372  1.3055  0.6301  0.3862
 6910TIP3   OH220693   7.178   5.410   2.884 -0.3601  0.1643 -0.3660
 6910TIP3    H120694   7.185   5.440   2.975 -1.2452  0.4653 -0.3886
 6910TIP3    H220695   7.269   5.404   2.854  0.1293 -2.3946  1.3208
 6911TIP3   OH220696   4.243   6.750   3.845  0.1900  0.4052 -0.3038
 6911TIP3    H120697   4.250   6.654   3.845  1.9865  0.4797  0.9856
 6911TIP3    H220698   4.212   6.772   3.757  1.4949 -1.2579 -1.2358
 6912TIP3   OH220699   5.542   3.005   2.705 -0.2673 -0.6073 -0.2133
 6912TIP3    H120700   5.588   2.979   2.625  1.1527 -0.9940  0.7016
 6912TIP3    H220701   5.611   3.017   2.770 -1.3045  0.8709  0.6565
 6913TIP3   OH220702   2.667   3.374   3.503 -0.2553  0.3546  0.0339
 6913TIP3    H120703   2.654   3.454   3.453 -1.7894 -1.3965 -2.6252
 6913TIP3    H220704   2.607   3.311   3.463  1.7367 -2.4622  1.1571
 6914TIP3   OH220705   6.507   6.570   5.797 -0.2549 -0.5631 -0.2392
 6914TIP3    H120706   6.477   6.495   5.745 -0.8599  0.7304 -1.8183
 6914TIP3    H220707   6.470   6.646   5.753  0.4201  0.6878  1.2847
 6915TIP3   OH220708   4.823   2.640   4.398  0.1417 -0.0701 -0.0617
 6915TIP3    H120709   4.819   2.673   4.487 -0.9522 -3.3297  1.2517
 6915TIP3    H220710   4.879   2.563   4.403 -2.1004 -1.9419 -1.5265
 6916TIP3   OH220711   0.805   1.158   3.449 -0.0784 -0.4228  0.3144
 6916TIP3    H120712   0.844   1.131   3.532 -1.2076 -2.6264  0.1904
 6916TIP3    H220713   0.765   1.079   3.414 -1.2283  0.8679 -1.4643
 6917TIP3   OH220714   6.083   1.960   4.388  0.5971  0.2078 -0.4672
 6917TIP3    H120715   6.032   1.904   4.330 -0.6210 -0.5296  1.2456
 6917TIP3    H220716   6.116   1.901   4.456  1.9548  1.0507 -0.3487
 6918TIP3   OH220717   4.743   1.660   4.343  0.0154 -0.0212  0.5710
 6918TIP3    H120718   4.838   1.671   4.348 -0.1346  1.0392  1.4981
 6918TIP3    H220719   4.729   1.566   4.359  0.9728 -0.4693 -1.0286
 6919TIP3   OH220720   4.937   2.392   4.319  0.3754  0.4875  0.3594
 6919TIP3    H120721   4.923   2.297   4.319  1.2805  0.3460 -0.2485
 6919TIP3    H220722   5.030   2.403   4.301  0.1569  1.5103 -0.2454
 6920TIP3   OH220723   4.548   1.771   3.037 -0.2199 -0.5526  1.1083
 6920TIP3    H120724   4.482   1.713   2.998  0.1142 -0.1615 -0.0706
 6920TIP3    H220725   4.622   1.768   2.977  0.1230  0.4658  1.4539
 6921TIP3   OH220726   6.081   4.293   2.365 -0.4842 -0.1173  0.6355
 6921TIP3    H120727   6.118   4.289   2.454 -0.6297  0.3298  0.7187
 6921TIP3    H220728   6.035   4.210   2.354  1.1966 -1.0418  0.2445
 6922TIP3   OH220729   3.134   0.388   3.432 -0.2807  0.2800 -0.6213
 6922TIP3    H120730   3.197   0.378   3.361 -0.0510 -0.7419 -0.2937
 6922TIP3    H220731   3.155   0.473   3.472  0.1143  0.4808 -1.2541
 6923TIP3   OH220732   2.255   0.793   1.394 -0.2923  0.0667 -0.0186
 6923TIP3    H120733   2.209   0.835   1.321  0.1150 -0.0499 -0.3450
 6923TIP3    H220734   2.290   0.866   1.445 -2.1295  0.2274  1.1103
 6924TIP3   OH220735   5.425   2.711   3.684  0.1999 -0.5370  0.2962
 6924TIP3    H120736   5.333   2.731   3.701  0.4872  1.1949 -0.0238
 6924TIP3    H220737   5.425   2.673   3.596 -0.1831 -0.3817  0.2283
 6925TIP3   OH220738   4.034   6.179   0.890 -0.5552  0.4723 -0.0468
 6925TIP3    H120739   4.112   6.223   0.926 -0.8353 -0.0521  1.2695
 6925TIP3    H220740   3.963   6.241   0.905 -0.5504  0.5762 -0.4347
 6926TIP3   OH220741   5.843   3.685   3.864  0.0043 -0.0586  0.3646
 6926TIP3    H120742   5.847   3.638   3.948  0.6932  1.7593  1.4245
 6926TIP3    H220743   5.780   3.755   3.879 -0.9087 -0.5317 -1.1229
 6927TIP3   OH220744   6.046   5.764   1.616  0.1896 -0.1089  0.5025
 6927TIP3    H120745   5.973   5.819   1.644  0.9859  0.8790  0.6527
 6927TIP3    H220746   6.060   5.787   1.525  0.4675 -0.1447  0.5373
 6928TIP3   OH220747   3.929   0.391   0.082 -0.0874 -0.7505 -0.1344
 6928TIP3    H120748   4.008   0.357   0.041  0.3967 -0.4687  0.5372
 6928TIP3    H220749   3.903   0.323   0.144  0.7191 -0.0533  1.0031
 6929TIP3   OH220750   4.107   2.913   5.432  0.3804  0.3704  0.0762
 6929TIP3    H120751   4.118   2.930   5.338  1.2858 -0.4462  0.0115
 6929TIP3    H220752   4.195   2.889   5.462 -0.5195 -3.4980  0.2470
 6930TIP3   OH220753   5.862   1.450   1.731 -0.2251 -0.0403  0.5885
 6930TIP3    H120754   5.912   1.419   1.656  0.0576 -0.0073  0.7615
 6930TIP3    H220755   5.783   1.489   1.693  0.0930  0.3193  0.2843
 6931TIP3   OH220756   4.623   2.569   3.934 -0.0372  0.3467  0.6728
 6931TIP3    H120757   4.644   2.477   3.950 -1.0102  0.3356  2.0876
 6931TIP3    H220758   4.568   2.567   3.856 -0.3385 -0.3230  0.8936
 6932TIP3   OH220759   0.184   4.274   5.832 -0.5272  0.3055  0.8035
 6932TIP3    H120760   0.111   4.213   5.819  1.4518 -1.9388 -0.6698
 6932TIP3    H220761   0.154   4.334   5.900 -3.3564 -1.0996  0.9196
 6933TIP3   OH220762   2.957   5.967   1.951  0.3798 -0.2577 -0.2108
 6933TIP3    H120763   3.041   5.944   1.991 -0.0590 -1.0404  0.2733
 6933TIP3    H220764   2.930   6.047   1.996  1.1634  0.3762 -0.8190
 6934TIP3   OH220765   0.907   5.556   0.261  0.6919  0.2411 -0.0896
 6934TIP3    H120766   0.943   5.479   0.217 -1.3267 -1.3769  0.9831
 6934TIP3    H220767   0.953   5.560   0.345 -0.8268 -1.2548  0.8667
 6935TIP3   OH220768   2.763   3.098   3.083 -0.5814 -0.1348  0.5578
 6935TIP3    H120769   2.713   3.023   3.115 -0.6800  0.6444  2.3416
 6935TIP3    H220770   2.789   3.144   3.162  1.2187  0.6118 -0.4285
 6936TIP3   OH220771   0.800   6.753   1.938 -0.2530  0.4075  0.6198
 6936TIP3    H120772   0.774   6.795   2.021 -2.8116 -3.0684  1.8188
 6936TIP3    H220773   0.725   6.768   1.880 -0.2717 -0.5873  0.3676
 6937TIP3   OH220774   1.817   1.423   4.405  0.3738  0.5691 -0.1405
 6937TIP3    H120775   1.880   1.351   4.403  0.5384  0.6130  1.7135
 6937TIP3    H220776   1.783   1.423   4.494 -2.2990  0.5535 -1.0801
 6938TIP3   OH220777   0.179   2.103   5.330 -0.0806 -0.5282 -0.4814
 6938TIP3    H120778   0.257   2.080   5.380 -0.6693  2.3338  2.0624
 6938TIP3    H220779   0.108   2.057   5.375 -0.2627 -0.3232 -0.5577
 6939TIP3   OH220780   2.399   0.407   1.380  0.3088  0.1709  0.0368
 6939TIP3    H120781   2.381   0.459   1.302  1.0213 -0.3260 -0.4666
 6939TIP3    H220782   2.344   0.329   1.370 -1.3857  1.1639  1.1893
 6940TIP3   OH220783   2.140   5.248   3.492  0.6445  0.0651  0.3013
 6940TIP3    H120784   2.080   5.321   3.512  0.1765 -0.1900 -0.1535
 6940TIP3    H220785   2.219   5.291   3.459  0.3102  0.3628 -0.1173
 6941TIP3   OH220786   1.760   3.615   1.163 -0.2827 -0.3544  0.0496
 6941TIP3    H120787   1.688   3.599   1.101 -0.0784 -3.1188  0.3816
 6941TIP3    H220788   1.718   3.608   1.249  0.2717 -1.6235  0.2379
 6942TIP3   OH220789   0.404   2.566   2.774 -0.5069 -0.5276 -0.0669
 6942TIP3    H120790   0.442   2.515   2.703 -2.3831 -2.0796 -0.0263
 6942TIP3    H220791   0.402   2.656   2.741  2.5638 -0.4264 -0.2681
 6943TIP3   OH220792   3.335   0.234   4.430 -0.1047 -0.0998 -0.2951
 6943TIP3    H120793   3.393   0.179   4.378  1.1839  1.2277 -0.3448
 6943TIP3    H220794   3.331   0.317   4.382  1.6102  1.3932  1.9113
 6944TIP3   OH220795   4.247   5.321   5.362  0.2507  0.3295  0.0346
 6944TIP3    H120796   4.252   5.319   5.266 -0.4939  1.9507 -0.0828
 6944TIP3    H220797   4.153   5.315   5.380  0.4696 -1.4867  0.7658
 6945TIP3   OH220798   1.866   2.039   5.096  0.2764  0.0380 -0.3500
 6945TIP3    H120799   1.806   2.108   5.067 -0.4978 -0.7186 -0.5868
 6945TIP3    H220800   1.903   2.004   5.015  0.6987  0.1946 -0.2273
 6946TIP3   OH220801   5.748   1.881   0.528 -0.7578 -0.1665  0.1071
 6946TIP3    H120802   5.682   1.812   0.517 -0.7280 -0.2531  0.4420
 6946TIP3    H220803   5.823   1.850   0.477  0.0942 -1.5223  2.0470
 6947TIP3   OH220804   5.027   3.912   0.039  0.3973 -0.4996  0.2069
 6947TIP3    H120805   4.986   3.830   0.068  2.2782 -1.2644  0.8662
 6947TIP3    H220806   5.111   3.914   0.084  0.4369  1.7930  0.1479
 6948TIP3   OH220807   7.198   2.294   0.448 -0.2762  0.5605  0.2575
 6948TIP3    H120808   7.215   2.351   0.524  0.8210  0.4430  0.1181
 6948TIP3    H220809   7.213   2.350   0.372  0.2279  0.2430  0.1213
 6949TIP3   OH220810   2.965   6.708   3.656  0.4898 -0.2249 -0.2570
 6949TIP3    H120811   2.901   6.724   3.586  1.0243  2.1106 -0.2824
 6949TIP3    H220812   3.041   6.672   3.611  0.3358 -0.0259 -0.6817
 6950TIP3   OH220813   1.424   4.328   4.962 -0.1896  0.6936  0.8458
 6950TIP3    H120814   1.342   4.277   4.961 -0.8082  1.6573  1.1881
 6950TIP3    H220815   1.450   4.330   5.054  0.3246  0.2410  0.7154
 6951TIP3   OH220816   6.476   5.835   0.997 -0.0550  0.2528  0.2172
 6951TIP3    H120817   6.393   5.882   0.987 -0.3913 -0.4890 -0.5960
 6951TIP3    H220818   6.463   5.778   1.073  0.4084  1.5406  1.3078
 6952TIP3   OH220819   4.984   6.005   0.662  0.3723 -0.1960  0.1165
 6952TIP3    H120820   4.984   6.088   0.709  1.6990 -0.6633  1.0103
 6952TIP3    H220821   4.974   6.029   0.570  0.3012  0.9154  0.4012
 6953TIP3   OH220822   3.700   0.030   1.801 -0.0619 -0.3366 -0.0589
 6953TIP3    H120823   3.739   0.116   1.820 -1.7332  0.2229  1.1616
 6953TIP3    H220824   3.773  -0.031   1.807  0.9186  0.8358  0.5745
 6954TIP3   OH220825   6.557   6.595   0.265 -0.3330  0.0448 -0.3597
 6954TIP3    H120826   6.619   6.662   0.235 -0.4701  0.7024  0.7730
 6954TIP3    H220827   6.500   6.642   0.326  0.2156 -1.3422  1.2714
 6955TIP3   OH220828   0.283   5.954   1.019 -0.3666 -0.4499 -0.0184
 6955TIP3    H120829   0.221   6.007   1.068 -0.9287 -0.4666 -0.6960
 6955TIP3    H220830   0.251   5.864   1.027 -1.3832 -0.2750 -1.7120
 6956TIP3   OH220831   2.173   1.304   4.624 -0.5328  0.1066 -0.9390
 6956TIP3    H120832   2.201   1.394   4.610 -1.0946  0.3501 -0.5489
 6956TIP3    H220833   2.139   1.275   4.539  1.0632 -0.2684 -1.4739
 6957TIP3   OH220834   2.621   1.604   3.248  0.0346  0.4003  0.5892
 6957TIP3    H120835   2.527   1.591   3.234  0.3307  0.6732 -2.1907
 6957TIP3    H220836   2.627   1.682   3.303 -1.3473  1.3385 -0.5361
 6958TIP3   OH220837   6.878   6.413   0.477  0.8830  0.1132  0.0580
 6958TIP3    H120838   6.849   6.369   0.557  1.4181 -1.2817 -0.4994
 6958TIP3    H220839   6.947   6.357   0.442  0.2619  0.4115 -1.7053
 6959TIP3   OH220840   5.533   4.015   2.968 -0.3431 -0.3019 -0.2142
 6959TIP3    H120841   5.517   3.949   2.900  0.3794 -0.3191 -0.3663
 6959TIP3    H220842   5.618   3.991   3.005  0.2563  0.9493 -0.7363
 6960TIP3   OH220843   3.787   2.565   0.624 -0.3549 -0.2216  0.6689
 6960TIP3    H120844   3.753   2.648   0.590 -1.1096  0.0914  2.1156
 6960TIP3    H220845   3.718   2.502   0.604 -0.2784 -0.2697  0.5603
 6961TIP3   OH220846   4.320   2.592   3.150 -0.3265  0.6144  0.2899
 6961TIP3    H120847   4.254   2.629   3.208 -1.5227 -0.3178 -0.4238
 6961TIP3    H220848   4.288   2.610   3.061 -0.7564 -1.6350 -0.0889
 6962TIP3   OH220849   4.031   1.094   2.052  0.1670 -0.4937  0.2285
 6962TIP3    H120850   4.019   1.166   2.114 -0.1884 -0.2933 -0.0668
 6962TIP3    H220851   3.948   1.046   2.055  0.9524 -1.8757  1.6404
 6963TIP3   OH220852   5.090   2.424   3.801  0.1156 -0.4030  0.1910
 6963TIP3    H120853   5.162   2.362   3.803 -1.4714 -2.3585  0.6759
 6963TIP3    H220854   5.027   2.390   3.864 -1.2039  1.2544 -0.1423
 6964TIP3   OH220855   1.828   5.013   2.597  0.5308 -0.2740 -0.3230
 6964TIP3    H120856   1.842   5.105   2.620 -1.7900 -0.3398  1.7863
 6964TIP3    H220857   1.915   4.980   2.574  2.1963  1.4248  2.8536
 6965TIP3   OH220858   7.220   4.575   0.717 -0.0846  0.0375  0.4759
 6965TIP3    H120859   7.165   4.592   0.640  1.0137  0.6297 -0.2105
 6965TIP3    H220860   7.161   4.583   0.792 -1.4299 -1.7029 -0.3404
 6966TIP3   OH220861   6.135   4.219   1.811 -0.0270  0.0172  0.2019
 6966TIP3    H120862   6.215   4.186   1.851  0.9229  1.2050 -0.6323
 6966TIP3    H220863   6.064   4.179   1.862  1.0930  0.1485  1.9389
 6967TIP3   OH220864   2.716   0.280   2.149  0.4082 -0.2287  0.2154
 6967TIP3    H120865   2.676   0.242   2.228 -0.8058 -0.5031 -0.5006
 6967TIP3    H220866   2.647   0.333   2.111  0.4388 -1.3376 -1.4996
 6968TIP3   OH220867   2.952   1.740   5.712 -0.2731 -0.1290  0.4164
 6968TIP3    H120868   2.864   1.703   5.709 -1.0069  1.5439 -0.0220
 6968TIP3    H220869   2.950   1.812   5.650  1.2041  0.3991  0.9275
 6969TIP3   OH220870   5.238   3.063   3.532 -1.6119 -0.3024 -0.3287
 6969TIP3    H120871   5.262   2.989   3.476 -0.2781  0.0997 -0.3210
 6969TIP3    H220872   5.282   3.138   3.492 -0.2654 -0.0636  1.4639
 6970TIP3   OH220873   4.239   1.719   1.212 -0.3249  0.0845  0.2347
 6970TIP3    H120874   4.250   1.803   1.168 -1.1870 -0.1115 -0.3924
 6970TIP3    H220875   4.145   1.711   1.225 -0.7436 -2.2882 -2.8997
 6971TIP3   OH220876   4.675   4.295   3.002  0.5145 -0.0579  0.5471
 6971TIP3    H120877   4.765   4.326   3.018 -0.1391  0.8244  2.9293
 6971TIP3    H220878   4.642   4.353   2.933  2.1595 -1.2735 -1.3600
 6972TIP3   OH220879   6.285   3.629   5.642 -0.2308  0.5050 -0.4254
 6972TIP3    H120880   6.319   3.618   5.553 -0.9284  3.1081 -1.0912
 6972TIP3    H220881   6.350   3.684   5.686 -0.1920 -0.2595  0.4997
 6973TIP3   OH220882   5.466   6.733   2.497  0.2733  0.6539 -0.1246
 6973TIP3    H120883   5.539   6.700   2.550 -0.5456 -0.2725  0.4516
 6973TIP3    H220884   5.483   6.698   2.410 -0.9006 -1.9925  0.5873
 6974TIP3   OH220885   0.895   0.722   1.663  0.6683 -0.0791  0.1340
 6974TIP3    H120886   0.886   0.672   1.581  1.7413 -0.6010  0.3241
 6974TIP3    H220887   0.882   0.813   1.636 -1.6329 -0.4412 -0.1619
 6975TIP3   OH220888   1.438   6.836   1.496  0.3168  0.4025  0.0496
 6975TIP3    H120889   1.456   6.783   1.418  1.0220  2.3052 -1.1382
 6975TIP3    H220890   1.422   6.771   1.565 -0.9682 -1.3592 -1.7627
 6976TIP3   OH220891   3.802   4.717   3.355  0.1727 -0.4470  0.2142
 6976TIP3    H120892   3.834   4.680   3.273  1.4197  0.9562  0.0356
 6976TIP3    H220893   3.880   4.744   3.402 -0.6223  2.5620  0.0238
 6977TIP3   OH220894   3.758   4.153   2.599 -0.4991 -0.4025 -0.7040
 6977TIP3    H120895   3.841   4.121   2.635  0.0268 -0.7729 -2.1834
 6977TIP3    H220896   3.693   4.087   2.624 -0.2437 -0.4367 -0.0971
 6978TIP3   OH220897   3.121   6.729   0.125  0.4304  0.1179  0.4758
 6978TIP3    H120898   3.144   6.751   0.035  1.4613  0.3050  0.7627
 6978TIP3    H220899   3.134   6.634   0.131  0.3367  0.1020  0.4107
 6979TIP3   OH220900   1.637   4.414   1.650 -0.1629 -0.0750 -0.3687
 6979TIP3    H120901   1.640   4.508   1.632  0.3269  0.3300  1.5804
 6979TIP3    H220902   1.627   4.374   1.564  0.1812  1.7243 -1.3077
 6980TIP3   OH220903   0.146   5.257   1.075 -0.1108  0.7276 -0.1701
 6980TIP3    H120904   0.126   5.167   1.050 -0.4814  0.7751 -0.0482
 6980TIP3    H220905   0.242   5.261   1.077  0.0100  1.0211 -2.7208
 6981TIP3   OH220906   0.975   2.389   4.884  0.0958  0.6740 -0.4569
 6981TIP3    H120907   0.993   2.308   4.836 -0.7930  0.2965 -0.1758
 6981TIP3    H220908   0.880   2.394   4.887  0.1406  1.2031  0.4029
 6982TIP3   OH220909   2.656   0.940   4.563  0.2808 -0.1464  0.2185
 6982TIP3    H120910   2.634   0.863   4.616  0.2683 -0.0228  0.3917
 6982TIP3    H220911   2.710   0.905   4.492 -0.7592 -0.5172 -0.4198
 6983TIP3   OH220912   5.070   4.385   1.941  0.2316 -0.2209  0.2783
 6983TIP3    H120913   5.149   4.330   1.937 -0.6114 -1.4540  0.0326
 6983TIP3    H220914   5.030   4.376   1.855 -0.1545  0.4440  0.3827
 6984TIP3   OH220915   5.048   2.545   5.378  0.1050 -0.1536  0.0420
 6984TIP3    H120916   5.133   2.587   5.389 -0.3211  0.1470  2.7804
 6984TIP3    H220917   4.995   2.578   5.450 -1.4654 -2.4186  0.0342
 6985TIP3   OH220918   1.257   3.641   5.624  0.6522  0.2935  0.2436
 6985TIP3    H120919   1.290   3.727   5.650  1.0043  0.2548 -0.0719
 6985TIP3    H220920   1.222   3.604   5.705 -0.5743  1.2072  0.1562
 6986TIP3   OH220921   3.142   3.437   4.267 -0.0890 -0.4214 -0.1235
 6986TIP3    H120922   3.074   3.492   4.228  1.2930  2.7406  1.4924
 6986TIP3    H220923   3.200   3.415   4.194 -0.4072  0.7868 -0.7647
 6987TIP3   OH220924   3.036   4.334   0.625 -0.2665 -0.2889  0.3402
 6987TIP3    H120925   3.020   4.356   0.534  0.5121 -1.8770 -0.2253
 6987TIP3    H220926   3.002   4.409   0.675 -0.1669  0.8653 -1.2593
 6988TIP3   OH220927   2.782   6.732   3.480 -0.4186 -0.8362  0.0091
 6988TIP3    H120928   2.788   6.700   3.390  1.0851  0.7902 -0.5242
 6988TIP3    H220929   2.706   6.790   3.480  0.6192  0.5945 -0.7495
 6989TIP3   OH220930   2.141   1.906   3.894 -0.7218  0.0563 -0.2784
 6989TIP3    H120931   2.064   1.849   3.900 -1.6010  0.8797 -2.5937
 6989TIP3    H220932   2.126   1.957   3.815  1.2562  1.7097  0.3405
 6990TIP3   OH220933   3.915   3.157   0.958 -0.5414 -0.2640  0.6933
 6990TIP3    H120934   3.992   3.119   1.000  0.8972  2.1600  0.4275
 6990TIP3    H220935   3.892   3.095   0.888  1.0579 -1.1209  0.8879
 6991TIP3   OH220936   3.165   5.227   4.588  0.2414  0.0052 -0.0929
 6991TIP3    H120937   3.131   5.159   4.529  0.3895  0.1625 -0.3621
 6991TIP3    H220938   3.207   5.179   4.659 -0.1528 -0.1895  0.0129
 6992TIP3   OH220939   1.577   4.469   1.190  0.2386  0.1090  0.0254
 6992TIP3    H120940   1.657   4.518   1.208 -0.9284  1.9275  0.5238
 6992TIP3    H220941   1.604   4.378   1.189  2.7864  0.7467 -2.3129
 6993TIP3   OH220942   4.919   0.169   1.485 -0.1307  0.4792 -0.1961
 6993TIP3    H120943   4.859   0.164   1.559 -1.1811  2.8647 -0.7836
 6993TIP3    H220944   5.005   0.153   1.522 -0.7392  0.7038  1.3797
 6994TIP3   OH220945   4.458   6.602   0.900  0.1769 -0.0039 -0.2028
 6994TIP3    H120946   4.509   6.673   0.861  1.4730 -0.3061  0.8854
 6994TIP3    H220947   4.523   6.543   0.937 -0.9458 -0.2019  1.5687
 6995TIP3   OH220948   3.220   1.499   4.771  0.2278  0.6514  0.3751
 6995TIP3    H120949   3.176   1.475   4.852  1.5629  0.8915  1.1948
 6995TIP3    H220950   3.175   1.448   4.704  0.2903 -0.9610  1.5060
 6996TIP3   OH220951   0.159   4.571   3.848  0.3357  0.3258 -0.5142
 6996TIP3    H120952   0.104   4.649   3.846  0.0567  0.1230 -0.9688
 6996TIP3    H220953   0.246   4.603   3.871 -0.1098  0.5533  0.9205
 6997TIP3   OH220954   0.092   6.175   3.120  0.0770  0.0244  0.0200
 6997TIP3    H120955   0.131   6.254   3.082  2.8255  0.6152  3.5420
 6997TIP3    H220956   0.015   6.206   3.167  0.1494  0.3174 -0.0566
 6998TIP3   OH220957   4.856   5.449   1.517 -0.0537  0.1722 -0.8324
 6998TIP3    H120958   4.900   5.484   1.439  0.4317 -0.1822 -0.7224
 6998TIP3    H220959   4.827   5.527   1.564  0.8175  0.4376 -0.7034
 6999TIP3   OH220960   1.533   6.141   2.000  0.4659  0.1198 -0.3178
 6999TIP3    H120961   1.538   6.221   1.948  0.8755 -0.6842 -1.5763
 6999TIP3    H220962   1.580   6.075   1.948 -0.9504 -1.2598  0.0663
 7000TIP3   OH220963   2.325   4.083   0.504 -0.1310  0.2693 -0.0152
 7000TIP3    H120964   2.231   4.099   0.507  0.3594  4.1082 -0.5683
 7000TIP3    H220965   2.358   4.121   0.586  1.1007  0.0959 -0.4114
 7001TIP3   OH220966   3.283   0.698   4.546  0.0674 -0.0554  0.1460
 7001TIP3    H120967   3.191   0.722   4.551  0.2523  0.7890 -0.2749
 7001TIP3    H220968   3.292   0.655   4.461 -0.1876 -1.3421  0.7418
 7002TIP3   OH220969   3.392   5.213   1.242  0.1771  0.3291  0.6709
 7002TIP3    H120970   3.387   5.308   1.230 -0.1728  0.0930 -1.3546
 7002TIP3    H220971   3.470   5.186   1.195 -1.1085 -0.6604 -0.9935
 7003TIP3   OH220972   4.457   2.615   2.688 -0.1559 -0.4004 -0.0368
 7003TIP3    H120973   4.419   2.674   2.623  1.1843  0.1064 -0.3976
 7003TIP3    H220974   4.396   2.618   2.762 -0.2680  1.2240 -0.1635
 7004TIP3   OH220975   1.326   4.136   5.590  0.6395 -0.4430 -0.4467
 7004TIP3    H120976   1.298   4.227   5.578  0.9018 -0.4814 -1.4266
 7004TIP3    H220977   1.377   4.116   5.511  0.2991 -1.5529 -0.4025
 7005TIP3   OH220978   0.874   0.291   3.723 -0.5385  0.2074 -0.4251
 7005TIP3    H120979   0.779   0.296   3.733 -0.3327 -0.5668  3.9949
 7005TIP3    H220980   0.908   0.362   3.777  1.5105  1.0291 -2.6113
 7006TIP3   OH220981   1.575   4.377   3.837 -0.4482 -0.0583 -0.6830
 7006TIP3    H120982   1.521   4.405   3.763 -0.5085 -1.1076 -1.0449
 7006TIP3    H220983   1.577   4.453   3.894 -1.2213  0.4404 -1.2901
 7007TIP3   OH220984   1.874   5.518   1.685  1.0632 -0.2372 -0.0945
 7007TIP3    H120985   1.807   5.517   1.753 -1.0525  1.5323 -2.0289
 7007TIP3    H220986   1.831   5.482   1.608  3.2568 -1.7361 -0.7259
 7008TIP3   OH220987   1.327   1.266   0.200 -0.1661  0.1702 -0.4855
 7008TIP3    H120988   1.251   1.255   0.142 -1.2145  0.7667  0.7329
 7008TIP3    H220989   1.315   1.200   0.268 -0.5509  1.3904  0.6748
 7009TIP3   OH220990   1.015   2.410   5.323 -0.3607 -0.0778  0.2354
 7009TIP3    H120991   1.099   2.367   5.336  0.7207  1.6580 -0.6859
 7009TIP3    H220992   1.032   2.477   5.257 -2.7990 -0.5657 -1.0037
 7010TIP3   OH220993   5.310   4.668   1.638 -0.9713 -0.1847 -0.1018
 7010TIP3    H120994   5.300   4.716   1.720 -2.4332 -0.7850  0.1100
 7010TIP3    H220995   5.291   4.577   1.661 -2.3495 -0.2338 -1.2547
 7011TIP3   OH220996   0.751   0.166   4.132  0.3463  0.6478  0.5643
 7011TIP3    H120997   0.700   0.092   4.165  0.5198  0.0036 -0.5748
 7011TIP3    H220998   0.705   0.193   4.053 -0.0056  2.1103  1.2219
 7012TIP3   OH220999   4.723   2.762   3.548 -0.1669 -0.8638 -0.3405
 7012TIP3    H121000   4.696   2.852   3.533  0.9853 -0.4173  0.1259
 7012TIP3    H221001   4.645   2.710   3.530 -1.7090  0.4189  2.0245
 7013TIP3   OH221002   6.362   0.517   4.925 -0.7056 -0.5906  0.1517
 7013TIP3    H121003   6.397   0.592   4.972  0.2794 -0.8216 -0.2040
 7013TIP3    H221004   6.379   0.442   4.983 -0.4608 -0.7296 -0.1032
 7014TIP3   OH221005   5.804   6.307   0.610 -0.5192  0.2336 -0.2525
 7014TIP3    H121006   5.824   6.257   0.531 -1.1843 -0.6219  0.1073
 7014TIP3    H221007   5.884   6.305   0.662  0.6841  2.6433 -1.8156
 7015TIP3   OH221008   4.961   1.503   2.237  0.4661 -0.2307 -0.0261
 7015TIP3    H121009   4.900   1.478   2.167 -0.8486  2.6323 -0.0606
 7015TIP3    H221010   4.968   1.425   2.292 -3.2998 -0.7516 -0.0340
 7016TIP3   OH221011   5.045   3.561   0.986 -0.1001 -0.2832  0.3331
 7016TIP3    H121012   5.104   3.637   0.983  1.1973 -1.0770  2.8670
 7016TIP3    H221013   4.959   3.599   1.005 -0.0466  0.7259 -1.2394
 7017TIP3   OH221014   0.437   0.540   1.063  0.7522  0.1099 -0.1028
 7017TIP3    H121015   0.494   0.498   1.127  0.2606  1.2277  1.1312
 7017TIP3    H221016   0.422   0.474   0.996  2.7151 -0.5041  0.0247
 7018TIP3   OH221017   0.206   2.862   1.562 -0.3050 -0.3776 -0.4236
 7018TIP3    H121018   0.131   2.804   1.549 -1.6470  0.7147  1.9697
 7018TIP3    H221019   0.203   2.922   1.488 -0.3186 -1.7920 -1.6305
 7019TIP3   OH221020   2.659   3.437   0.418 -0.0226 -0.0655  0.6640
 7019TIP3    H121021   2.605   3.367   0.456  1.4454 -0.8412  1.3992
 7019TIP3    H221022   2.705   3.394   0.346  0.2654  0.3702  0.5880
 7020TIP3   OH221023   6.976   4.615   2.394 -0.5984  0.3185 -0.2524
 7020TIP3    H121024   6.887   4.646   2.405 -0.8078 -0.8934  2.2463
 7020TIP3    H221025   7.025   4.656   2.465  0.5776  0.0161 -0.8580
 7021TIP3   OH221026   3.251   3.200   5.796  0.1602  0.0966 -0.4522
 7021TIP3    H121027   3.187   3.193   5.726  0.1738  0.8868 -0.5587
 7021TIP3    H221028   3.265   3.110   5.826 -1.6491 -0.0170  0.1714
 7022TIP3   OH221029   5.329   5.428   1.672 -0.0559 -0.4078  0.3333
 7022TIP3    H121030   5.234   5.422   1.658 -0.0307 -2.9269  0.7487
 7022TIP3    H221031   5.366   5.416   1.585 -0.0291  2.8331 -0.2487
 7023TIP3   OH221032   5.193   3.616   0.155 -0.6729 -0.2208 -0.4569
 7023TIP3    H121033   5.143   3.596   0.075  0.7154 -1.4913 -1.0624
 7023TIP3    H221034   5.280   3.638   0.123  0.0733 -1.3179  0.7309
 7024TIP3   OH221035   2.090   5.196   3.144  0.0229 -0.0533  0.2833
 7024TIP3    H121036   2.069   5.275   3.194  1.0632  0.8300 -0.6456
 7024TIP3    H221037   2.170   5.217   3.097 -0.0839 -1.4086 -0.5613
 7025TIP3   OH221038   6.384   0.813   4.318  0.6994  0.1676  0.2606
 7025TIP3    H121039   6.295   0.848   4.317  1.1208  1.3801  1.8267
 7025TIP3    H221040   6.440   0.889   4.300  1.4431 -0.5863 -0.7648
 7026TIP3   OH221041   2.367   1.430   1.034 -0.4572 -0.5149 -0.3076
 7026TIP3    H121042   2.378   1.463   0.945  2.8418 -0.3605  0.0309
 7026TIP3    H221043   2.320   1.500   1.079  0.1785  0.6082 -1.3152
 7027TIP3   OH221044   0.191   3.883   3.658 -0.3245 -0.0604  0.1897
 7027TIP3    H121045   0.103   3.871   3.693 -0.8018  1.9647 -0.1674
 7027TIP3    H221046   0.244   3.907   3.735 -0.3219 -0.2587  0.2489
 7028TIP3   OH221047   1.371   4.560   1.634 -0.7897 -0.5117 -0.5758
 7028TIP3    H121048   1.347   4.653   1.639  0.5155 -0.1592 -0.4350
 7028TIP3    H221049   1.370   4.540   1.541 -1.1892 -0.3937 -0.6003
 7029TIP3   OH221050   5.860   0.550   1.472 -0.3090  0.8296  0.1138
 7029TIP3    H121051   5.882   0.493   1.545 -0.8489  0.3907 -0.0599
 7029TIP3    H221052   5.852   0.637   1.510  0.9302  0.8669  0.3117
 7030TIP3   OH221053   7.180   1.335   0.755 -0.0402 -0.2053 -0.2515
 7030TIP3    H121054   7.089   1.311   0.772  0.5825 -1.1063  2.2565
 7030TIP3    H221055   7.211   1.270   0.691 -1.0257 -0.1092 -0.8484
 7031TIP3   OH221056   5.883   2.763   0.194  0.2119  0.5876  0.1245
 7031TIP3    H121057   5.919   2.846   0.226 -0.4841  0.5555  1.0268
 7031TIP3    H221058   5.788   2.777   0.193  0.1383  0.0844 -0.5357
 7032TIP3   OH221059   2.260   5.561   0.113  0.3693 -0.1811  0.4135
 7032TIP3    H121060   2.339   5.602   0.146  0.5561 -1.1635  1.2595
 7032TIP3    H221061   2.243   5.489   0.175 -1.2944  0.1452  0.3853
 7033TIP3   OH221062   0.472   2.123   0.660  0.6502 -0.1085  0.1413
 7033TIP3    H121063   0.540   2.105   0.595 -0.8260 -0.4053 -1.3861
 7033TIP3    H221064   0.484   2.055   0.727  2.5674  0.5651  0.5417
 7034TIP3   OH221065   5.112   3.096   5.474 -0.0607  0.0742 -0.4722
 7034TIP3    H121066   5.032   3.124   5.429 -0.3164  0.2886  0.0983
 7034TIP3    H221067   5.080   3.041   5.546  0.4222 -1.6242 -1.4939
 7035TIP3   OH221068   2.586   6.304   0.143  0.2061 -0.3300  0.2051
 7035TIP3    H121069   2.615   6.228   0.193 -0.7239  0.6530  2.3714
 7035TIP3    H221070   2.511   6.273   0.092  1.3021 -1.4056 -0.8217
 7036TIP3   OH221071   4.858   0.405   1.043 -0.3970 -0.4961  0.0013
 7036TIP3    H121072   4.896   0.425   1.129  0.6948 -1.2557 -0.2788
 7036TIP3    H221073   4.875   0.482   0.990 -1.2181  0.0433  0.4968
 7037TIP3   OH221074   2.443   0.848   0.466 -0.0034 -0.2765 -0.1045
 7037TIP3    H121075   2.467   0.763   0.501 -0.3437  0.1190  1.1424
 7037TIP3    H221076   2.524   0.882   0.427  0.9829  0.1075  2.0890
 7038TIP3   OH221077   4.889   1.131   2.804 -0.1994  0.0059  0.1127
 7038TIP3    H121078   4.957   1.071   2.774 -0.4677 -0.9226  1.2603
 7038TIP3    H221079   4.920   1.218   2.780  1.0050 -0.4696 -0.0964
 7039TIP3   OH221080   4.984   4.296   0.634 -0.6201  0.2274  0.6069
 7039TIP3    H121081   4.977   4.364   0.567 -0.1221 -0.8899 -0.6355
 7039TIP3    H221082   5.079   4.285   0.647 -0.5646 -1.8252 -0.9841
 7040TIP3   OH221083   5.195   0.781   2.940  0.8170  0.2506 -0.0749
 7040TIP3    H121084   5.276   0.820   2.972  0.6508 -0.3381  1.1186
 7040TIP3    H221085   5.128   0.812   3.002 -0.6278  3.7692 -3.0350
 7041TIP3   OH221086   0.354   5.917   5.065  0.8935 -0.2829  0.0511
 7041TIP3    H121087   0.331   6.010   5.057  1.3559 -0.1911 -0.2709
 7041TIP3    H221088   0.344   5.883   4.976  0.5048 -0.6015  0.2093
 7042TIP3   OH221089   2.723   3.347   2.127 -0.7081  0.2326 -0.0834
 7042TIP3    H121090   2.704   3.407   2.199  0.9058  1.7735 -0.8698
 7042TIP3    H221091   2.690   3.262   2.158 -0.6927  0.9652  2.1721
 7043TIP3   OH221092   0.982   6.445   3.131 -0.0546  0.0856 -0.1012
 7043TIP3    H121093   1.024   6.529   3.110  0.5880 -0.2175 -0.0509
 7043TIP3    H221094   0.889   6.461   3.118  0.1276  0.5828 -0.8609
 7044TIP3   OH221095   3.406   1.089   5.556 -0.8730 -0.1918  0.0625
 7044TIP3    H121096   3.465   1.155   5.592 -0.2514  0.4449 -1.9912
 7044TIP3    H221097   3.427   1.009   5.604  0.9007  0.2841  0.1321
 7045TIP3   OH221098   1.669   0.283   1.883  0.7691 -0.4742 -0.1540
 7045TIP3    H121099   1.657   0.228   1.806 -0.7658 -0.5455  0.1106
 7045TIP3    H221100   1.600   0.349   1.877 -0.5020 -1.4726  1.9638
 7046TIP3   OH221101   6.523   5.057   4.832 -0.1823 -0.6648 -0.6059
 7046TIP3    H121102   6.462   5.120   4.869  0.5467  0.0419 -0.5925
 7046TIP3    H221103   6.467   4.996   4.783 -1.2289 -1.7715  1.7526
 7047TIP3   OH221104   0.086   2.654   0.727  0.3961  0.4590  0.2524
 7047TIP3    H121105   0.054   2.742   0.749 -0.7449  0.0952  0.1029
 7047TIP3    H221106   0.025   2.595   0.771  1.1732 -0.2635  0.3722
 7048TIP3   OH221107   1.132   2.607   4.779 -0.3520  0.1049 -0.4447
 7048TIP3    H121108   1.066   2.553   4.822  0.3262  1.5069  2.6450
 7048TIP3    H221109   1.088   2.691   4.763  0.7026  1.2693  2.2240
 7049TIP3   OH221110   5.652   5.432   4.841  0.4554 -0.1597 -0.0507
 7049TIP3    H121111   5.687   5.382   4.767  0.2129 -0.5745  0.1158
 7049TIP3    H221112   5.597   5.499   4.800  0.3514 -0.3664 -0.2495
 7050TIP3   OH221113   5.936   1.754   1.075 -0.8102 -0.0383  0.1484
 7050TIP3    H121114   6.001   1.814   1.114 -2.0921  1.2427  0.4005
 7050TIP3    H221115   5.982   1.670   1.069  0.9388  0.8643  0.1157
 7051TIP3   OH221116   0.705   5.590   1.339  0.1420  0.3867  0.3838
 7051TIP3    H121117   0.682   5.578   1.247  0.8005  0.6357  0.1793
 7051TIP3    H221118   0.621   5.605   1.383 -0.3266 -1.1284  0.0604
 7052TIP3   OH221119   1.255   6.367   1.673  0.9679  0.3590  0.7226
 7052TIP3    H121120   1.174   6.366   1.724 -0.9746  2.0127 -2.0251
 7052TIP3    H221121   1.258   6.281   1.631 -0.7174  1.0552 -0.9478
 7053TIP3   OH221122   1.153   1.783   4.957 -0.0140  0.4825 -0.4571
 7053TIP3    H121123   1.180   1.738   5.037  1.4453  2.8482  0.4607
 7053TIP3    H221124   1.058   1.791   4.965 -0.0243 -0.3319  0.4564
 7054TIP3   OH221125   3.860   5.490   3.814 -0.7617 -0.5988  0.0493
 7054TIP3    H121126   3.952   5.502   3.837 -0.8654  1.5879 -0.4511
 7054TIP3    H221127   3.812   5.514   3.894 -0.9472  1.4323 -0.6151
 7055TIP3   OH221128   0.930   0.517   3.908  0.0026 -0.4816  0.0023
 7055TIP3    H121129   0.874   0.568   3.850  0.0118 -0.0152  0.4029
 7055TIP3    H221130   1.018   0.527   3.872 -0.3179 -2.4637 -1.5516
 7056TIP3   OH221131   6.323   6.169   5.611  0.1121 -0.0274 -0.0889
 7056TIP3    H121132   6.236   6.187   5.645 -0.0627 -2.4935  1.0037
 7056TIP3    H221133   6.327   6.218   5.528 -2.1832  0.3804 -0.0275
 7057TIP3   OH221134   4.996   1.952   5.513 -0.3901 -0.0594  0.5367
 7057TIP3    H121135   4.909   1.924   5.486  0.5332 -1.0575 -1.6589
 7057TIP3    H221136   5.012   2.032   5.462  0.7716 -1.0740 -0.7590
 7058TIP3   OH221137   5.799   2.526   0.381  0.3900 -0.0934 -0.0243
 7058TIP3    H121138   5.727   2.518   0.444 -0.9219 -1.1363 -1.5828
 7058TIP3    H221139   5.777   2.604   0.330 -0.0756 -0.8330 -0.9906
 7059TIP3   OH221140   5.314   1.896   3.909  0.2611  0.2265  0.2658
 7059TIP3    H121141   5.336   1.950   3.834  0.1226  1.4504  1.0885
 7059TIP3    H221142   5.374   1.821   3.902  0.3591  0.3922 -0.9571
 7060TIP3   OH221143   5.200   1.877   0.070 -0.0595 -0.8785 -0.6810
 7060TIP3    H121144   5.176   1.952   0.016 -2.1660 -0.1400  1.0959
 7060TIP3    H221145   5.282   1.903   0.112  0.6114 -0.7000 -2.0466
 7061TIP3   OH221146   0.920   6.473   3.620 -0.1844  0.4111  0.4675
 7061TIP3    H121147   0.889   6.531   3.551 -1.2157  0.6560  1.0999
 7061TIP3    H221148   1.014   6.465   3.606 -0.5182 -0.4131 -1.5930
 7062TIP3   OH221149   2.632   0.331   1.060 -0.1112 -0.8904 -0.2071
 7062TIP3    H121150   2.551   0.289   1.031 -0.8861  0.0153  0.5686
 7062TIP3    H221151   2.605   0.419   1.088  1.1081 -0.6314  0.2376
 7063TIP3   OH221152   1.271   3.005   3.746  0.3882 -0.0924  0.0736
 7063TIP3    H121153   1.207   3.073   3.768  0.6498 -0.2667  1.5177
 7063TIP3    H221154   1.223   2.923   3.751  0.7366 -0.2442  1.3946
 7064TIP3   OH221155   3.596   4.390   4.956  0.0260 -0.7038 -0.3379
 7064TIP3    H121156   3.613   4.347   4.872  3.5049  1.3875 -0.9254
 7064TIP3    H221157   3.639   4.335   5.021 -0.3028 -0.9410 -0.3243
 7065TIP3   OH221158   6.692   5.251   1.274  0.3251 -0.2991 -0.1567
 7065TIP3    H121159   6.664   5.321   1.333  0.6919  0.4917 -0.8906
 7065TIP3    H221160   6.610   5.218   1.237  0.1497 -0.2317  0.1673
 7066TIP3   OH221161   0.586   5.481   5.725 -0.7023  0.4268 -0.5176
 7066TIP3    H121162   0.646   5.428   5.778 -1.4393 -0.0016 -0.0849
 7066TIP3    H221163   0.638   5.557   5.698  0.5132 -0.6937 -1.4983
 7067TIP3   OH221164   5.198   4.567   1.110  0.3452 -0.2450 -0.9064
 7067TIP3    H121165   5.291   4.575   1.133  0.3819 -0.8398 -0.8479
 7067TIP3    H221166   5.197   4.517   1.029  0.0088 -1.4318 -0.1828
 7068TIP3   OH221167   0.033   0.256   0.647  0.0020  0.0954 -0.0011
 7068TIP3    H121168  -0.017   0.187   0.691  0.3743 -0.2775 -0.1470
 7068TIP3    H221169   0.115   0.213   0.621  1.0221  1.0346  1.4891
 7069TIP3   OH221170   7.106   1.251   5.228 -0.3198  0.0408  0.5203
 7069TIP3    H121171   7.137   1.320   5.170 -0.0404 -0.7160 -0.2413
 7069TIP3    H221172   7.029   1.289   5.271 -0.2722  0.7612 -0.0190
 7070TIP3   OH221173   4.750   6.644   0.771 -0.0728  0.1081 -0.3575
 7070TIP3    H121174   4.735   6.620   0.862  0.9659  0.4511 -0.0752
 7070TIP3    H221175   4.709   6.574   0.721  0.2601 -0.6470  0.3961
 7071TIP3   OH221176   2.952   0.460   4.454  0.0401  0.2690  0.4421
 7071TIP3    H121177   3.013   0.397   4.493 -1.0042 -2.4119 -1.8186
 7071TIP3    H221178   2.903   0.495   4.527  2.1924  0.1625  2.0226
 7072TIP3   OH221179   0.946   1.090   5.095 -0.0746  0.0166  0.2408
 7072TIP3    H121180   1.024   1.125   5.138  1.5204 -0.2940 -2.2426
 7072TIP3    H221181   0.892   1.168   5.078 -0.2171  0.2701  1.6683
 7073TIP3   OH221182   3.723   5.874   0.440 -0.2455  0.0594 -0.4845
 7073TIP3    H121183   3.806   5.859   0.485 -0.5673  0.7709  0.3837
 7073TIP3    H221184   3.747   5.888   0.348  0.5494 -0.1172 -0.3083
 7074TIP3   OH221185   0.392   1.966   5.485 -0.1950  0.1063 -0.1926
 7074TIP3    H121186   0.398   1.888   5.540 -0.4421  1.6771  2.2235
 7074TIP3    H221187   0.469   2.018   5.508 -0.6881  1.1396 -0.8093
 7075TIP3   OH221188   2.923   1.836   5.332 -0.0756 -0.5717 -0.0842
 7075TIP3    H121189   2.956   1.818   5.244 -3.1147 -1.2195 -1.2198
 7075TIP3    H221190   2.844   1.889   5.318  1.3164  2.5046  2.5194
 7076TIP3   OH221191   7.178   2.084   1.455 -0.6085  0.3848  0.5441
 7076TIP3    H121192   7.254   2.076   1.512 -1.1426 -0.0164  1.2196
 7076TIP3    H221193   7.192   2.020   1.386  0.1884  1.0807  0.0435
 7077TIP3   OH221194   7.052   3.309   1.282  0.3717 -0.0092 -0.0715
 7077TIP3    H121195   6.974   3.286   1.231 -1.3962  0.3759  2.2917
 7077TIP3    H221196   7.104   3.229   1.284 -0.6961 -0.7306 -0.4537
 7078TIP3   OH221197   1.908   2.072   2.639 -0.5096  0.1305 -0.7011
 7078TIP3    H121198   1.918   2.030   2.724 -1.0645  2.2038  0.4491
 7078TIP3    H221199   1.940   2.007   2.576 -1.0296 -1.8410  0.9764
 7079TIP3   OH221200   1.605   0.259   5.200 -0.1270 -0.0028 -0.2391
 7079TIP3    H121201   1.526   0.252   5.255 -1.6758  0.7110 -2.2658
 7079TIP3    H221202   1.632   0.168   5.187 -0.1261 -0.2206  1.1284
 7080TIP3   OH221203   2.446   4.819   2.206 -0.1437 -0.8682  0.0576
 7080TIP3    H121204   2.479   4.769   2.281  0.8329  0.0131  0.2288
 7080TIP3    H221205   2.355   4.789   2.196  0.6286 -3.3020 -0.3702
 7081TIP3   OH221206   2.092   4.831   5.113  0.0013 -0.2498 -0.1116
 7081TIP3    H121207   2.058   4.915   5.143 -0.8947 -0.7618  0.3619
 7081TIP3    H221208   2.067   4.826   5.021  1.9993  0.9504 -0.7599
 7082TIP3   OH221209   3.293   1.768   4.345 -0.2350 -0.1268 -0.1359
 7082TIP3    H121210   3.346   1.729   4.275 -0.9645 -0.4585 -0.5220
 7082TIP3    H221211   3.220   1.708   4.355 -0.4584  0.2463  0.4900
 7083TIP3   OH221212   2.571   2.111   4.765 -0.2177 -0.4040  0.1853
 7083TIP3    H121213   2.608   2.181   4.819  0.6642 -1.7877  1.4473
 7083TIP3    H221214   2.639   2.044   4.763 -0.4639 -0.6707 -2.1907
 7084TIP3   OH221215   2.772   3.790   3.602 -0.3241  0.4992  0.3256
 7084TIP3    H121216   2.723   3.761   3.679 -0.7094 -0.3389 -0.2197
 7084TIP3    H221217   2.864   3.773   3.624 -0.4795 -0.3191  0.3647
 7085TIP3   OH221218   2.671   5.853   4.522 -0.1321 -0.5996  0.0597
 7085TIP3    H121219   2.614   5.927   4.541 -2.2794 -2.0892 -0.2216
 7085TIP3    H221220   2.719   5.837   4.603 -2.1334 -0.9527  1.2340
 7086TIP3   OH221221   6.848   0.537   4.916 -0.1504  0.3795  0.0311
 7086TIP3    H121222   6.871   0.549   4.824 -1.4939  0.5685 -0.2933
 7086TIP3    H221223   6.813   0.448   4.920 -2.1968  1.1390 -0.1106
 7087TIP3   OH221224   4.584   5.758   4.204  0.5362  0.6070 -0.3661
 7087TIP3    H121225   4.581   5.827   4.137 -1.5986  2.1125  1.1655
 7087TIP3    H221226   4.638   5.795   4.274 -0.1372  0.4778  0.2205
 7088TIP3   OH221227   1.406   5.803   1.397  0.4104 -0.5384  0.2195
 7088TIP3    H121228   1.356   5.727   1.367  0.3862  0.2143 -1.7836
 7088TIP3    H221229   1.425   5.853   1.318 -0.4878  2.1212  1.5467
 7089TIP3   OH221230   2.394   6.702   3.849 -0.0204  0.3117  0.0342
 7089TIP3    H121231   2.365   6.677   3.937  1.4114  2.5242  1.2165
 7089TIP3    H221232   2.327   6.666   3.791 -0.5765 -1.9692  1.9001
 7090TIP3   OH221233   1.974   4.392   0.152  0.5164 -0.0231  0.4374
 7090TIP3    H121234   1.879   4.388   0.148  0.5207  0.9153 -1.5070
 7090TIP3    H221235   1.995   4.485   0.152  1.4490 -0.1725  2.1374
 7091TIP3   OH221236   4.225   4.533   0.615  0.1785 -0.2472  0.4207
 7091TIP3    H121237   4.299   4.591   0.635 -1.3987  2.3738 -0.7717
 7091TIP3    H221238   4.219   4.535   0.520 -1.7689  0.1353  0.5101
 7092TIP3   OH221239   1.339   5.309   1.707  0.4222 -0.4497 -0.3802
 7092TIP3    H121240   1.387   5.235   1.744  1.4721  0.4396  0.1096
 7092TIP3    H221241   1.259   5.271   1.672 -0.4156 -1.4718  2.3578
 7093TIP3   OH221242   6.529   0.945   0.854  0.0785 -0.4983 -0.6194
 7093TIP3    H121243   6.571   1.013   0.802 -0.9534  0.0379 -0.7858
 7093TIP3    H221244   6.494   0.991   0.930  0.5515 -1.0775 -0.0412
 7094TIP3   OH221245   4.183   6.415   5.213 -1.0997 -0.2602  0.3471
 7094TIP3    H121246   4.127   6.354   5.166 -0.3998 -1.1404  0.6303
 7094TIP3    H221247   4.257   6.363   5.242 -0.5110  0.7116  0.6569
 7095TIP3   OH221248   2.274   2.077   5.485 -0.0808 -0.0269 -0.4057
 7095TIP3    H121249   2.317   2.024   5.552 -1.5729 -0.6336  0.0915
 7095TIP3    H221250   2.240   2.153   5.532 -0.4935 -0.0861 -0.6087
 7096TIP3   OH221251   3.274   6.254   0.273  0.2962  0.7008 -0.1483
 7096TIP3    H121252   3.349   6.195   0.286  0.7357  0.8977 -1.6042
 7096TIP3    H221253   3.198   6.201   0.294  0.7158 -0.2731 -0.9710
 7097TIP3   OH221254   6.906   3.258   4.553  0.0928 -0.8127 -0.2424
 7097TIP3    H121255   6.900   3.186   4.491 -1.0414 -0.3431 -0.7116
 7097TIP3    H221256   6.843   3.235   4.622 -0.3145 -0.2560 -0.4218
 7098TIP3   OH221257   2.652   6.212   1.863 -0.4335 -0.3061 -0.3818
 7098TIP3    H121258   2.633   6.306   1.869  1.1955  0.0493 -0.2814
 7098TIP3    H221259   2.568   6.169   1.881 -1.1886  1.1249 -0.3598
 7099TIP3   OH221260   5.832   4.196   4.487 -0.0863  0.2331  0.2626
 7099TIP3    H121261   5.752   4.148   4.511  0.1253  0.3984  1.3050
 7099TIP3    H221262   5.856   4.160   4.402 -0.5207 -0.7719  0.5516
 7100TIP3   OH221263   2.204   0.194   2.866  0.5899 -0.3440  0.1643
 7100TIP3    H121264   2.191   0.257   2.794 -3.9095 -0.4146  0.6167
 7100TIP3    H221265   2.227   0.249   2.941  1.1257  0.2295 -0.4070
 7101TIP3   OH221266   1.933   2.056   4.651  0.3575 -0.4670 -0.2854
 7101TIP3    H121267   1.916   1.994   4.722 -1.7136 -0.3463 -0.6049
 7101TIP3    H221268   1.856   2.050   4.595  0.7127  1.4273 -1.0581
 7102TIP3   OH221269   3.764   3.724   5.477  0.0665  0.1187  0.1469
 7102TIP3    H121270   3.694   3.668   5.512 -0.8116  0.1839 -1.4476
 7102TIP3    H221271   3.746   3.810   5.513 -1.1230  0.2936 -0.8320
 7103TIP3   OH221272   4.613   0.423   2.548 -0.0694  0.4677  0.5368
 7103TIP3    H121273   4.552   0.380   2.489 -0.0404 -1.3441  1.7460
 7103TIP3    H221274   4.559   0.449   2.623 -0.1381  2.8629 -0.2593
 7104TIP3   OH221275   2.710   2.438   3.617 -0.1484 -0.2484  0.5922
 7104TIP3    H121276   2.728   2.447   3.711  0.1854 -0.2535  0.5322
 7104TIP3    H221277   2.791   2.468   3.575 -1.1199  2.0343  0.2211
 7105TIP3   OH221278   3.798   2.547   1.277  0.2149 -0.2130 -0.1063
 7105TIP3    H121279   3.771   2.461   1.244 -1.2673  0.2866 -0.2421
 7105TIP3    H221280   3.718   2.599   1.277  1.4124  1.8063 -1.9029
 7106TIP3   OH221281   4.409   0.515   2.704 -0.0120  0.4592 -0.1731
 7106TIP3    H121282   4.339   0.566   2.744  1.0721  2.4975 -0.7681
 7106TIP3    H221283   4.380   0.501   2.614  1.2020  3.1797 -1.0714
 7107TIP3   OH221284   6.489   1.518   3.539 -0.1470  0.1229  0.1637
 7107TIP3    H121285   6.402   1.548   3.516  0.0365  1.7065  1.3717
 7107TIP3    H221286   6.541   1.598   3.547  0.7503 -0.5749  1.9658
 7108TIP3   OH221287   1.871   3.318   0.930  0.5388 -0.1775  0.0867
 7108TIP3    H121288   1.777   3.307   0.938  0.5789  0.0419  0.8901
 7108TIP3    H221289   1.883   3.363   0.846 -0.3607  3.1053  1.5494
 7109TIP3   OH221290   4.098   0.259   3.350 -0.9708  0.2109  0.0132
 7109TIP3    H121291   4.014   0.212   3.348 -0.6666 -0.3668  0.4874
 7109TIP3    H221292   4.126   0.261   3.258 -2.1698  1.6524 -0.3572
 7110TIP3   OH221293   6.385   2.547   4.295 -0.3810 -0.0236  0.3102
 7110TIP3    H121294   6.409   2.637   4.315 -1.5938  0.6001 -0.9514
 7110TIP3    H221295   6.469   2.504   4.278  0.1724  1.0064  0.3605
 7111TIP3   OH221296   1.074   5.976   3.843  0.0319  0.2356 -0.0621
 7111TIP3    H121297   1.139   5.950   3.778  0.0976 -1.5762  0.6639
 7111TIP3    H221298   1.105   5.937   3.925  0.4111  3.1546  1.3171
 7112TIP3   OH221299   1.492   6.131   3.275 -0.0707  0.1508  0.5229
 7112TIP3    H121300   1.440   6.202   3.238  0.1269  0.0543  0.0506
 7112TIP3    H221301   1.436   6.092   3.342 -0.3438  0.4797  0.4875
 7113TIP3   OH221302   5.830   0.157   4.686  0.1965 -0.2349  0.3297
 7113TIP3    H121303   5.906   0.166   4.743 -0.0945 -1.1067  0.8789
 7113TIP3    H221304   5.779   0.237   4.702  1.5075  0.8767 -0.8641
 7114TIP3   OH221305   6.079   5.404   3.881  0.3179  0.5134 -0.2780
 7114TIP3    H121306   6.115   5.414   3.969 -0.0036 -2.9846  0.4343
 7114TIP3    H221307   5.984   5.410   3.893  0.2635 -0.1660 -0.3125
 7115TIP3   OH221308   6.985   6.692   2.844  0.0141  0.4876 -0.4712
 7115TIP3    H121309   7.024   6.777   2.869  0.7557 -0.0648  0.3317
 7115TIP3    H221310   7.015   6.632   2.912  0.8315 -0.7759 -1.8841
 7116TIP3   OH221311   5.572   6.054   0.996 -0.0535  0.5974 -0.4432
 7116TIP3    H121312   5.483   6.041   0.964  0.4443  3.4027 -3.5067
 7116TIP3    H221313   5.626   5.999   0.938  0.4214  1.4310 -0.8106
 7117TIP3   OH221314   2.545  -0.008   4.369 -0.2787  0.5665  0.6247
 7117TIP3    H121315   2.564   0.026   4.282 -0.1924 -1.2691 -0.1199
 7117TIP3    H221316   2.603   0.040   4.427  1.3185  0.2365 -0.6357
 7118TIP3   OH221317   4.069   1.745   0.191 -0.2902 -0.4805  0.2448
 7118TIP3    H121318   4.014   1.766   0.115  0.8517  0.8545 -0.2637
 7118TIP3    H221319   4.008   1.714   0.257 -1.4116 -0.8979 -0.9470
 7119TIP3   OH221320   4.018   3.245   1.894 -0.3753  0.2605 -0.5920
 7119TIP3    H121321   4.077   3.244   1.819  0.6827  0.2250  0.2106
 7119TIP3    H221322   4.073   3.219   1.968 -1.5623 -0.4443  0.0755
 7120TIP3   OH221323   0.790   5.631   3.697  0.0447  0.0629 -0.6838
 7120TIP3    H121324   0.778   5.544   3.657 -2.0705  0.0624 -0.1239
 7120TIP3    H221325   0.815   5.687   3.624 -0.4808 -0.6123 -1.4015
 7121TIP3   OH221326   2.429   0.538   3.228  0.3593 -0.4261  0.5401
 7121TIP3    H121327   2.520   0.509   3.240  0.9333  1.4352  1.0318
 7121TIP3    H221328   2.405   0.576   3.312 -0.4207  0.2584  0.0170
 7122TIP3   OH221329   2.761   2.203   3.386  0.7415  0.1832  0.6666
 7122TIP3    H121330   2.675   2.242   3.400 -0.2700 -1.9789  0.9852
 7122TIP3    H221331   2.784   2.163   3.471  2.6304  1.6895  0.9314
 7123TIP3   OH221332   1.514   2.377   4.778  0.3935  0.0877  0.3841
 7123TIP3    H121333   1.440   2.419   4.822  0.5944 -0.3301  1.1211
 7123TIP3    H221334   1.545   2.311   4.839 -1.5881 -3.0693 -1.7475
 7124TIP3   OH221335   4.965   0.748   1.751 -0.0435 -0.5466 -0.3641
 7124TIP3    H121336   4.929   0.827   1.711 -2.2028 -0.6849  1.1558
 7124TIP3    H221337   4.982   0.690   1.677 -0.7038  0.4376 -1.3233
 7125TIP3   OH221338   5.751   1.095   1.079 -0.1983  0.2557 -0.0541
 7125TIP3    H121339   5.788   1.058   1.159  0.8751 -0.2966 -0.7828
 7125TIP3    H221340   5.689   1.162   1.110 -0.3990 -0.4909  1.2347
 7126TIP3   OH221341   6.218   0.145   5.615  0.5140  0.0947  0.0073
 7126TIP3    H121342   6.259   0.068   5.576  1.1995 -0.1154  1.0951
 7126TIP3    H221343   6.242   0.140   5.708 -1.9055 -0.0023  0.6899
 7127TIP3   OH221344   5.376   2.429   2.875 -0.4945  0.1494  0.4695
 7127TIP3    H121345   5.359   2.519   2.850 -0.5421  0.7786  2.6211
 7127TIP3    H221346   5.318   2.377   2.818  0.0832  1.3647 -1.3217
 7128TIP3   OH221347   5.343   0.876   1.754 -0.4517 -0.2110  0.5673
 7128TIP3    H121348   5.306   0.802   1.802  0.6097  0.1749  2.0528
 7128TIP3    H221349   5.428   0.843   1.723  0.0240  0.3554  1.2326
 7129TIP3   OH221350   2.984   3.373   1.410  0.0619 -0.2933  0.5406
 7129TIP3    H121351   2.923   3.447   1.401 -0.2231 -0.7887 -4.2271
 7129TIP3    H221352   3.067   3.406   1.375  0.5249 -1.5613  0.3838
 7130TIP3   OH221353   6.368   3.040   4.303  0.4995 -0.3830 -0.1059
 7130TIP3    H121354   6.307   2.979   4.261  0.8124 -0.9612  0.2680
 7130TIP3    H221355   6.416   3.080   4.231  2.2280 -2.6189 -0.2717
 7131TIP3   OH221356   0.961   5.754   1.001 -0.2669 -0.1786 -0.5215
 7131TIP3    H121357   0.904   5.830   1.009  1.8491  1.3664  1.1850
 7131TIP3    H221358   1.036   5.774   1.057  1.4007 -2.6083 -1.6926
 7132TIP3   OH221359   6.113   0.864   4.329  0.0711  0.3813 -0.5308
 7132TIP3    H121360   6.140   0.792   4.387  0.2742  0.7969 -0.1015
 7132TIP3    H221361   6.034   0.898   4.369  0.9287  1.5230  0.2585
 7133TIP3   OH221362   4.451   3.244   2.133  0.0114  0.5591 -0.1453
 7133TIP3    H121363   4.470   3.226   2.226  0.9506  1.7925 -0.0601
 7133TIP3    H221364   4.536   3.270   2.097 -0.3542  0.0903 -1.3537
 7134TIP3   OH221365   0.999   5.788   3.011 -0.1469 -0.4634 -0.5157
 7134TIP3    H121366   0.966   5.740   3.086 -1.5076 -0.0407 -0.8103
 7134TIP3    H221367   0.920   5.824   2.969  0.7330  1.2435 -0.8214
 7135TIP3   OH221368   5.500   6.023   1.269  0.1593  0.3210 -0.3021
 7135TIP3    H121369   5.471   6.039   1.179 -1.1796  0.4056  0.1204
 7135TIP3    H221370   5.438   5.959   1.303  0.4245  0.5770  0.6834
 7136TIP3   OH221371   5.283   2.036   4.948  0.8956  0.0627  0.0021
 7136TIP3    H121372   5.374   2.063   4.965  1.0142 -0.2360 -0.1434
 7136TIP3    H221373   5.233   2.071   5.022  0.8618  1.6128 -0.7195
 7137TIP3   OH221374   6.418   0.481   1.170 -0.1453 -0.6454 -0.0596
 7137TIP3    H121375   6.422   0.386   1.168 -2.6737 -0.8091 -0.7887
 7137TIP3    H221376   6.347   0.503   1.110  0.2104  1.6950  0.2841
 7138TIP3   OH221377   3.324   3.933   1.458 -0.3592 -0.0421  0.5562
 7138TIP3    H121378   3.324   3.937   1.554 -2.5564 -0.8995  0.6613
 7138TIP3    H221379   3.284   4.015   1.431  1.7804  0.9394  0.2607
 7139TIP3   OH221380   0.772   2.292   5.149 -0.0983  0.1803 -0.0592
 7139TIP3    H121381   0.800   2.202   5.134 -1.8732 -0.2520 -1.1379
 7139TIP3    H221382   0.829   2.324   5.219  0.8539 -1.6224  0.0531
 7140TIP3   OH221383   5.594   0.321   4.738 -0.0480  0.0386  0.1654
 7140TIP3    H121384   5.631   0.379   4.805 -2.4004  1.7653  0.0850
 7140TIP3    H221385   5.621   0.361   4.655  1.1979 -0.9870  0.0431
 7141TIP3   OH221386   3.037   1.159   3.783  0.4486 -0.0678 -0.0678
 7141TIP3    H121387   3.027   1.202   3.698  0.9780 -1.2549 -0.7523
 7141TIP3    H221388   2.950   1.163   3.822 -0.2478 -1.1058 -1.4545
 7142TIP3   OH221389   0.320   0.442   3.062 -0.3339 -0.6789 -0.2825
 7142TIP3    H121390   0.277   0.438   2.976 -1.5936 -1.4049  0.3483
 7142TIP3    H221391   0.409   0.412   3.046 -0.2728  0.0880 -1.4970
 7143TIP3   OH221392   4.803   3.195   3.499  0.0917  0.6900  0.1973
 7143TIP3    H121393   4.832   3.134   3.431  0.7163  1.2983 -0.0875
 7143TIP3    H221394   4.884   3.234   3.533 -0.1620  0.0772  1.6053
 7144TIP3   OH221395   2.134   5.651   0.868 -0.1549 -0.7518 -0.3127
 7144TIP3    H121396   2.080   5.576   0.845  2.0928 -2.2352 -1.0965
 7144TIP3    H221397   2.112   5.717   0.803 -0.6888 -1.4844 -0.9011
 7145TIP3   OH221398   6.465   0.537   2.756  0.3149 -0.0614  0.0830
 7145TIP3    H121399   6.394   0.594   2.725 -0.6687 -0.7981  0.9032
 7145TIP3    H221400   6.420   0.469   2.807  1.4051 -1.8173 -1.1990
 7146TIP3   OH221401   3.909   0.442   0.387 -0.3384  0.4730  0.1821
 7146TIP3    H121402   3.881   0.443   0.296 -1.9715 -0.2410  0.6305
 7146TIP3    H221403   3.934   0.351   0.405  1.8222  0.9727 -0.0283
 7147TIP3   OH221404   6.750   0.780   5.007  0.2864 -0.0814 -0.0702
 7147TIP3    H121405   6.732   0.726   5.084 -1.1011 -0.5924 -0.7183
 7147TIP3    H221406   6.803   0.723   4.951  0.3653 -0.1040  0.0253
 7148TIP3   OH221407   3.980   2.454   0.394  0.3848  0.2203 -0.2715
 7148TIP3    H121408   4.071   2.463   0.422 -0.0061  0.9607  0.8349
 7148TIP3    H221409   3.929   2.469   0.474 -0.6852 -1.6081 -0.5593
 7149TIP3   OH221410   5.792   0.206   3.266 -0.1835 -0.0416 -0.0929
 7149TIP3    H121411   5.799   0.254   3.348 -1.3175  2.0879 -1.1514
 7149TIP3    H221412   5.827   0.119   3.285 -0.0188  0.5324  2.4946
 7150TIP3   OH221413   6.999   2.156   1.970 -0.0837 -0.1449  0.1225
 7150TIP3    H121414   7.076   2.171   1.915  0.3851 -1.3647  0.3976
 7150TIP3    H221415   6.930   2.207   1.930  1.4272  3.0736  1.2936
 7151TIP3   OH221416   2.838   0.189   0.580 -0.4410 -0.3763 -0.3138
 7151TIP3    H121417   2.833   0.203   0.675  3.2437 -0.8784  0.1283
 7151TIP3    H221418   2.822   0.095   0.569  1.7735 -0.9026  0.2870
 7152TIP3   OH221419   1.059   5.980   4.762  0.0928  0.4367 -0.0672
 7152TIP3    H121420   1.077   5.900   4.713  0.4046  1.3283 -1.4520
 7152TIP3    H221421   0.998   5.952   4.831 -1.3654 -0.6558 -1.6853
 7153TIP3   OH221422   1.120   0.533   5.692  0.0016 -0.0570 -0.1907
 7153TIP3    H121423   1.039   0.582   5.699 -0.5554 -0.8997 -0.5768
 7153TIP3    H221424   1.185   0.598   5.664 -0.3230  0.8120  1.0079
 7154TIP3   OH221425   4.208   6.253   4.612  0.1443  0.2894  0.1871
 7154TIP3    H121426   4.291   6.253   4.564 -0.5747  0.8138 -1.1260
 7154TIP3    H221427   4.172   6.341   4.597 -0.8482 -0.0797  0.3366
 7155TIP3   OH221428   7.049   5.754   4.006 -0.0644 -0.3043  0.5819
 7155TIP3    H121429   7.092   5.829   3.964 -0.9902  0.8780  1.6369
 7155TIP3    H221430   7.120   5.694   4.028  0.5518 -0.5285 -1.7430
 7156TIP3   OH221431   5.253   0.055   4.109  0.1792  0.3809  0.0308
 7156TIP3    H121432   5.319   0.004   4.063 -0.5829  0.2533 -0.9557
 7156TIP3    H221433   5.207   0.103   4.040 -1.0749  0.1047  0.6360
 7157TIP3   OH221434   6.037   1.626   2.383  0.7482 -0.3494  0.5264
 7157TIP3    H121435   6.070   1.703   2.337 -0.1685 -0.1513  0.1897
 7157TIP3    H221436   6.043   1.650   2.476  1.5967 -0.3464  0.4839
 7158TIP3   OH221437   5.541   4.895   5.598  0.1118 -0.0060 -0.5989
 7158TIP3    H121438   5.445   4.892   5.589 -0.0978 -0.4656  1.3062
 7158TIP3    H221439   5.570   4.809   5.567 -0.1106  0.0444 -0.9560
 7159TIP3   OH221440   4.975   1.192   2.163 -0.1934 -0.5004 -0.9604
 7159TIP3    H121441   4.935   1.115   2.202  0.4427  0.4441  1.7744
 7159TIP3    H221442   4.902   1.243   2.128 -0.9378 -0.8876  0.0119
 7160TIP3   OH221443   4.504   0.098   2.717 -0.3168 -0.1031  0.1659
 7160TIP3    H121444   4.478   0.159   2.648  0.6263  2.0195  1.5445
 7160TIP3    H221445   4.436   0.107   2.784 -0.0316 -0.3556  0.4965
 7161TIP3   OH221446   0.891   2.226   4.099  0.0121 -0.1783  0.4297
 7161TIP3    H121447   0.982   2.248   4.120 -0.0997  0.6459  0.0570
 7161TIP3    H221448   0.863   2.295   4.039 -1.1954  0.1564  1.3589
 7162TIP3   OH221449   5.371   5.873   2.426 -0.2946 -0.6592  0.7895
 7162TIP3    H121450   5.291   5.924   2.417 -0.1359 -0.4500  0.5650
 7162TIP3    H221451   5.433   5.914   2.366 -0.6111 -2.0103 -0.5144
 7163TIP3   OH221452   1.118   1.686   3.291 -0.3000  0.1928  0.3324
 7163TIP3    H121453   1.086   1.776   3.299 -0.6894  0.0315  0.5558
 7163TIP3    H221454   1.166   1.686   3.207 -0.4256  0.5664  0.2570
 7164TIP3   OH221455   5.069   5.827   2.500 -0.6086  0.2512 -0.1021
 7164TIP3    H121456   5.047   5.755   2.440  0.9474 -0.5694  0.2493
 7164TIP3    H221457   5.019   5.902   2.468 -2.9167 -1.1562 -0.0184
 7165TIP3   OH221458   3.930   4.677   3.983  0.0225  0.2295  0.1402
 7165TIP3    H121459   3.894   4.608   4.038  0.7073 -0.1007  0.1713
 7165TIP3    H221460   4.006   4.709   4.030 -1.0987  2.0188  0.8527
 7166TIP3   OH221461   2.445   1.201   5.120  0.9889 -0.5376 -0.1396
 7166TIP3    H121462   2.391   1.231   5.047 -0.8048 -0.1305  1.2879
 7166TIP3    H221463   2.472   1.113   5.095  0.1718 -0.5114 -1.1839
 7167TIP3   OH221464   4.306   2.218   0.295  0.0407  0.1616  0.4288
 7167TIP3    H121465   4.358   2.161   0.239  2.5494  3.1061 -0.5575
 7167TIP3    H221466   4.348   2.212   0.381 -1.7923 -1.8683  1.2801
 7168TIP3   OH221467   0.384   3.943   3.869  0.3362  0.1627 -0.0408
 7168TIP3    H121468   0.440   3.936   3.791  0.8761  0.4570  0.3083
 7168TIP3    H221469   0.420   3.878   3.930 -0.2307 -0.2304 -0.1215
 7169TIP3   OH221470   6.731   0.010   2.811  0.2105 -0.0365 -0.0772
 7169TIP3    H121471   6.728   0.095   2.767 -0.0121 -0.0405 -0.0704
 7169TIP3    H221472   6.642  -0.023   2.805  0.0248  0.2292  0.8943
 7170TIP3   OH221473   4.254   1.933   4.705  0.5122 -0.1710 -0.1211
 7170TIP3    H121474   4.339   1.969   4.727  0.7066 -0.6254 -0.1189
 7170TIP3    H221475   4.225   1.985   4.629  0.4915  0.4182  0.2843
 7171TIP3   OH221476   1.565   6.210   4.585  0.2070  0.1980  0.4129
 7171TIP3    H121477   1.584   6.118   4.602  0.4232  0.5847  2.6756
 7171TIP3    H221478   1.642   6.257   4.617  0.2680  1.1705 -1.0708
 7172TIP3   OH221479   3.623   2.333   4.456 -0.6802 -0.1620 -0.1619
 7172TIP3    H121480   3.626   2.315   4.362  1.6537  2.0405 -0.6386
 7172TIP3    H221481   3.696   2.393   4.471 -1.1021 -0.2671  3.0553
 7173TIP3   OH221482   4.633   1.861   3.790  0.0402  0.4119 -0.3521
 7173TIP3    H121483   4.651   1.767   3.796 -0.0781  0.4906  1.9687
 7173TIP3    H221484   4.719   1.902   3.783  0.0796  0.1496 -1.7132
 7174TIP3   OH221485   4.032   4.288   3.896  0.1494  0.1676 -0.4261
 7174TIP3    H121486   3.980   4.240   3.960  1.4357  1.1940  1.4988
 7174TIP3    H221487   4.060   4.222   3.833 -0.7094 -0.9904  0.3634
 7175TIP3   OH221488   2.955   5.072   1.018  0.1650 -1.0954  0.2279
 7175TIP3    H121489   2.965   4.977   1.017 -0.0678 -1.1170  0.0111
 7175TIP3    H221490   2.875   5.088   0.968  1.8892 -0.5734 -2.5437
 7176TIP3   OH221491   2.655   2.469   2.059  0.4291 -0.7463  0.7515
 7176TIP3    H121492   2.657   2.551   2.010  1.4146 -0.7963  0.6714
 7176TIP3    H221493   2.626   2.404   1.995 -1.4177 -0.3113  1.0989
 7177TIP3   OH221494   5.792   1.128   1.526 -0.5394  0.0755 -0.1156
 7177TIP3    H121495   5.880   1.102   1.499 -0.7949 -1.4703  0.4299
 7177TIP3    H221496   5.803   1.163   1.615 -0.0947  2.6077 -1.1022
 7178TIP3   OH221497   2.672   5.724   0.627  0.1386 -0.2449 -0.1876
 7178TIP3    H121498   2.625   5.669   0.689  1.0782 -0.9805 -0.1043
 7178TIP3    H221499   2.760   5.732   0.664  0.5052 -0.0992 -1.0686
 7179TIP3   OH221500   0.164   6.240   0.718  0.2083 -0.0619 -0.4496
 7179TIP3    H121501   0.246   6.282   0.691  0.6533 -0.4460  0.2592
 7179TIP3    H221502   0.154   6.264   0.810 -0.5618  0.1081 -0.5730
 7180TIP3   OH221503   2.926   3.115   4.666  0.2453  0.4191 -0.5056
 7180TIP3    H121504   2.839   3.115   4.626  0.5480  2.0972 -1.2349
 7180TIP3    H221505   2.912   3.077   4.753 -1.2507  0.7901 -0.5617
 7181TIP3   OH221506   3.776   1.512   3.086 -0.0783  0.1337  0.0542
 7181TIP3    H121507   3.699   1.560   3.057  1.3620  1.7069 -1.3632
 7181TIP3    H221508   3.745   1.421   3.096 -2.0634  0.6919 -0.5498
 7182TIP3   OH221509   6.378   5.316   3.264 -0.1203  0.4500 -0.3158
 7182TIP3    H121510   6.468   5.289   3.247  0.1435 -0.4134  2.0277
 7182TIP3    H221511   6.325   5.259   3.208  0.6740 -1.6959  0.9930
 7183TIP3   OH221512   6.728   6.674   2.896 -0.4967 -0.0232 -0.1866
 7183TIP3    H121513   6.815   6.642   2.869 -0.3906 -0.8362  1.0446
 7183TIP3    H221514   6.717   6.756   2.849  1.6405  0.9251  0.8433
 7184TIP3   OH221515   1.933   4.709   1.619  0.2714  0.5408 -0.1407
 7184TIP3    H121516   2.007   4.748   1.572  0.9555 -1.1736 -0.5720
 7184TIP3    H221517   1.952   4.727   1.711  1.0958  0.3705 -0.2633
 7185TIP3   OH221518   3.422   5.134   3.704  0.0632  0.0382  0.0846
 7185TIP3    H121519   3.407   5.199   3.636 -0.6571  0.8372  0.9730
 7185TIP3    H221520   3.511   5.151   3.735 -1.0449  2.5956  2.2797
 7186TIP3   OH221521   3.249   3.835   0.339 -0.0420  0.4912 -0.4768
 7186TIP3    H121522   3.328   3.865   0.293 -0.7654  1.1321 -1.3402
 7186TIP3    H221523   3.249   3.740   0.328 -0.1473  0.6221 -1.7444
 7187TIP3   OH221524   6.523   1.498   4.293 -0.4011  0.0268  0.2464
 7187TIP3    H121525   6.490   1.444   4.222 -0.8536 -1.1536  1.3015
 7187TIP3    H221526   6.448   1.507   4.353 -0.2583  1.6098  0.2452
 7188TIP3   OH221527   2.121   0.638   0.781 -0.1272  0.3512  0.1061
 7188TIP3    H121528   2.146   0.726   0.810  0.2700  0.4286 -0.4486
 7188TIP3    H221529   2.026   0.642   0.772 -0.2452  0.3698  1.2218
 7189TIP3   OH221530   0.779   6.150   2.898 -0.0148  0.8126  0.3203
 7189TIP3    H121531   0.723   6.074   2.882  0.6656  0.4121 -0.2279
 7189TIP3    H221532   0.719   6.217   2.931 -0.5425 -0.1093  1.2869
 7190TIP3   OH221533   1.935   4.447   0.677 -0.4121 -0.0646  0.1715
 7190TIP3    H121534   1.983   4.368   0.700 -1.5757 -0.3758  1.7317
 7190TIP3    H221535   1.843   4.425   0.693 -0.8599  1.2759 -0.3435
 7191TIP3   OH221536   6.245   3.475   3.386  0.4967  0.0162 -0.3114
 7191TIP3    H121537   6.161   3.511   3.357 -0.2236 -0.5345  1.0181
 7191TIP3    H221538   6.239   3.382   3.366  0.5301 -0.1332  0.3432
 7192TIP3   OH221539   4.026   1.590   0.580  0.3408 -0.2575 -0.0585
 7192TIP3    H121540   4.052   1.681   0.596  0.4062 -0.5917  2.0033
 7192TIP3    H221541   3.981   1.563   0.660 -4.3189 -0.5282 -2.3890
 7193TIP3   OH221542   6.400   2.382   1.750  0.0910  0.0278 -0.1549
 7193TIP3    H121543   6.358   2.462   1.719 -0.1560  0.1671  0.5147
 7193TIP3    H221544   6.414   2.397   1.844 -1.1314 -1.2163  0.2493
 7194TIP3   OH221545   4.026   3.443   3.003 -0.2000  0.1504  0.8980
 7194TIP3    H121546   3.980   3.417   3.082 -0.3575 -0.0023  0.7563
 7194TIP3    H221547   3.957   3.450   2.936  0.1388 -1.3586  0.3543
 7195TIP3   OH221548   2.848   3.732   5.478 -0.0496  0.4247  0.3089
 7195TIP3    H121549   2.833   3.639   5.495  0.1764  0.4626  0.7320
 7195TIP3    H221550   2.918   3.756   5.539  2.6206 -0.0258 -2.3799
 7196TIP3   OH221551   6.746   5.707   5.449  0.2712  0.3760 -0.0565
 7196TIP3    H121552   6.653   5.727   5.456  0.2639  0.5577 -0.5909
 7196TIP3    H221553   6.790   5.779   5.494  0.1247 -0.2199  1.0640
 7197TIP3   OH221554   6.970   2.523   2.315  0.6141  0.1674  0.3173
 7197TIP3    H121555   6.979   2.455   2.248 -2.0879 -0.2435  0.2602
 7197TIP3    H221556   7.036   2.501   2.381  1.2530 -1.2190 -0.7289
 7198TIP3   OH221557   0.840   2.336   2.389 -0.0219 -0.1125 -0.1405
 7198TIP3    H121558   0.775   2.406   2.376 -1.7818 -1.6088  0.1050
 7198TIP3    H221559   0.906   2.375   2.446  0.5444  2.1950 -2.1628
 7199TIP3   OH221560   5.204   6.029   1.616  0.4023 -0.3085  0.4278
 7199TIP3    H121561   5.190   5.962   1.683  0.8486  0.7308  1.5996
 7199TIP3    H221562   5.117   6.047   1.581  0.3371 -1.8614 -0.2999
 7200TIP3   OH221563   0.529   5.346   4.499  0.2233  0.1837  0.1429
 7200TIP3    H121564   0.593   5.356   4.429  0.1512 -3.2028 -0.5789
 7200TIP3    H221565   0.580   5.354   4.579  0.9530  0.6211 -0.3502
 7201TIP3   OH221566   4.257   3.580   1.011  0.2166 -0.4757  0.1046
 7201TIP3    H121567   4.261   3.513   0.943  0.0089  0.1733 -0.5643
 7201TIP3    H221568   4.250   3.532   1.093  1.4767 -1.3008 -0.2423
 7202TIP3   OH221569   2.518   0.905   2.587 -0.1879  0.0587 -0.1084
 7202TIP3    H121570   2.573   0.931   2.662 -0.1098  0.1178 -0.1867
 7202TIP3    H221571   2.552   0.820   2.561 -2.5445 -1.7978  2.2750
 7203TIP3   OH221572   1.148   0.038   5.698  0.4559  0.9669  0.4061
 7203TIP3    H121573   1.075   0.029   5.636  1.4576  0.9804 -0.8295
 7203TIP3    H221574   1.212  -0.027   5.668 -0.1609 -1.1575  3.2086
 7204TIP3   OH221575   1.482   5.630   0.231 -0.3551 -0.5675 -0.3064
 7204TIP3    H121576   1.459   5.661   0.143  0.2593 -1.6977 -0.8921
 7204TIP3    H221577   1.561   5.679   0.254 -1.7789  1.4111  0.6141
 7205TIP3   OH221578   1.843   1.959   3.632  0.0690 -0.4398  0.0457
 7205TIP3    H121579   1.830   1.999   3.546  1.4447  1.0942  0.5117
 7205TIP3    H221580   1.837   2.032   3.694 -2.7644 -1.7500  1.5178
 7206TIP3   OH221581   4.628   0.432   1.239 -0.1422 -0.0605  0.5736
 7206TIP3    H121582   4.556   0.454   1.298  0.5601 -0.5107  1.6451
 7206TIP3    H221583   4.707   0.451   1.291  0.5783  2.1811 -1.1796
 7207TIP3   OH221584   0.820   5.929   3.717  0.3916  1.0270 -1.0543
 7207TIP3    H121585   0.866   5.885   3.646  2.8657  0.9099  0.5104
 7207TIP3    H221586   0.885   5.989   3.754 -1.2452  2.0663  0.2922
 7208TIP3   OH221587   4.573   3.773   0.456  0.0216 -0.2339  0.0165
 7208TIP3    H121588   4.573   3.681   0.429 -0.2690  0.3476 -2.1333
 7208TIP3    H221589   4.664   3.791   0.480  0.1643 -0.9431  0.0363
 7209TIP3   OH221590   4.469   6.324   1.210  0.3344 -0.1590  0.2101
 7209TIP3    H121591   4.489   6.231   1.197 -0.8182 -0.3719 -0.1225
 7209TIP3    H221592   4.527   6.351   1.280 -1.0069 -1.7648  2.0332
 7210TIP3   OH221593   6.653   4.094   0.118 -0.5303 -0.4060  0.2569
 7210TIP3    H121594   6.693   4.156   0.179  0.9704 -0.1349 -0.9342
 7210TIP3    H221595   6.661   4.009   0.163  0.6758 -0.2331  0.4236
 7211TIP3   OH221596   3.124   0.494   5.090 -0.3611  0.0254 -0.0023
 7211TIP3    H121597   3.167   0.411   5.111  0.3490  0.1920 -0.7847
 7211TIP3    H221598   3.094   0.484   5.000  1.6868  1.3983 -0.9009
 7212TIP3   OH221599   1.477   1.714   5.195  0.3040 -0.3501  0.7881
 7212TIP3    H121600   1.567   1.683   5.201 -0.0042 -1.3775  0.3390
 7212TIP3    H221601   1.482   1.790   5.137  0.7947 -0.8016  0.2234
 7213TIP3   OH221602   2.615   1.698   5.138 -0.1037 -0.2943  0.6173
 7213TIP3    H121603   2.556   1.737   5.074  1.3139  0.5550 -0.2304
 7213TIP3    H221604   2.701   1.736   5.119  0.5283 -0.6096  2.5286
 7214TIP3   OH221605   3.638   1.260   5.392 -0.1448 -0.3701  0.2985
 7214TIP3    H121606   3.725   1.267   5.351 -0.6730 -2.4575 -1.3489
 7214TIP3    H221607   3.655   1.220   5.477  0.4655 -1.6353 -0.3918
 7215TIP3   OH221608   3.989   1.420   5.025 -0.3366  0.4983 -0.2318
 7215TIP3    H121609   3.921   1.480   4.995 -0.3873  0.4045 -0.3036
 7215TIP3    H221610   3.977   1.341   4.972  1.2270  1.2578 -1.8293
 7216TIP3   OH221611   2.604   4.888   5.156  0.0768  0.7976 -0.0520
 7216TIP3    H121612   2.628   4.803   5.118  0.0915  0.4935  0.6121
 7216TIP3    H221613   2.688   4.929   5.176  0.0835  0.2586  1.1335
 7217TIP3   OH221614   2.639   4.599   4.305  0.2777 -0.5763  0.0433
 7217TIP3    H121615   2.635   4.600   4.209 -0.1911 -0.2952  0.0628
 7217TIP3    H221616   2.602   4.683   4.331 -0.1707 -0.9088  0.4927
 7218TIP3   OH221617   0.877   4.903   3.948 -0.6680 -0.1947  0.0288
 7218TIP3    H121618   0.843   4.846   4.017  0.4286  0.2317  0.9493
 7218TIP3    H221619   0.955   4.943   3.986  0.0313 -0.0346 -1.5025
 7219TIP3   OH221620   5.652   4.324   0.231 -0.6793 -0.0784  0.1604
 7219TIP3    H121621   5.683   4.300   0.144 -1.2904 -1.9938  0.4287
 7219TIP3    H221622   5.590   4.255   0.255  0.5305 -0.4177  2.6984
 7220TIP3   OH221623   2.253   1.710   3.519 -0.5577  1.0846 -0.1397
 7220TIP3    H121624   2.161   1.687   3.528 -0.4531  0.6645 -0.1202
 7220TIP3    H221625   2.293   1.632   3.481 -0.5623  1.9295 -2.0008
 7221TIP3   OH221626   3.196   3.228   0.032  0.4904  0.4445  0.4855
 7221TIP3    H121627   3.154   3.143   0.018  0.3238  0.4647  0.8361
 7221TIP3    H221628   3.179   3.277  -0.048 -0.9646  0.7840  0.9654
 7222TIP3   OH221629   2.214   0.908   2.987 -0.0399  0.2696  0.3031
 7222TIP3    H121630   2.287   0.935   3.041  0.3540  1.0554 -0.5932
 7222TIP3    H221631   2.195   0.984   2.932 -1.0791 -0.1586  0.0430
 7223TIP3   OH221632   6.961   2.069   3.165  0.0253 -0.6402  0.5027
 7223TIP3    H121633   6.868   2.067   3.143 -0.2317  0.9417  1.3703
 7223TIP3    H221634   6.965   2.102   3.255  1.4080 -1.0311  0.6130
 7224TIP3   OH221635   3.031   4.437   4.821 -0.0440 -0.2726  0.2930
 7224TIP3    H121636   2.971   4.488   4.875  0.4175 -1.0658  1.5941
 7224TIP3    H221637   3.111   4.489   4.819 -0.1993 -0.0433  0.0158
 7225TIP3   OH221638   2.449   5.882   3.182 -0.6958 -0.4972  0.1018
 7225TIP3    H121639   2.511   5.884   3.109 -2.0494  0.7650 -1.0988
 7225TIP3    H221640   2.377   5.938   3.153 -1.9476 -1.1228  1.8424
 7226TIP3   OH221641   3.834   6.701   3.782  0.2675 -0.2345  0.1490
 7226TIP3    H121642   3.847   6.700   3.687  1.2338  1.6212  0.2192
 7226TIP3    H221643   3.788   6.783   3.799  0.1760 -0.5122  1.2912
 7227TIP3   OH221644   0.536   0.106   0.267 -0.4712 -0.2321  0.4777
 7227TIP3    H121645   0.579   0.187   0.237  1.5592 -0.4375  2.5257
 7227TIP3    H221646   0.463   0.137   0.321  0.5758  0.3148  1.6453
 7228TIP3   OH221647   1.905   1.959   0.859 -0.8125  0.1051 -0.2835
 7228TIP3    H121648   1.912   1.874   0.817  0.0858 -0.2972  0.6632
 7228TIP3    H221649   1.825   1.954   0.911  1.0461 -1.4894  2.6281
 7229TIP3   OH221650   6.395   3.495   0.450  0.6548 -0.4562 -0.1022
 7229TIP3    H121651   6.345   3.491   0.369 -0.5255 -0.4101  0.6122
 7229TIP3    H221652   6.352   3.563   0.502  1.4973 -0.3683  0.5029
 7230TIP3   OH221653   2.558   1.835   0.753  0.2386  0.4198  0.7337
 7230TIP3    H121654   2.481   1.883   0.723 -1.1515 -1.7622  0.6080
 7230TIP3    H221655   2.524   1.775   0.819  1.2819 -2.3861 -1.0981
 7231TIP3   OH221656   6.029   6.661   5.471 -0.2153 -0.6175  0.5957
 7231TIP3    H121657   6.092   6.652   5.400  2.2277  1.3929  2.3579
 7231TIP3    H221658   6.007   6.570   5.496  1.3002 -1.3534 -0.6268
 7232TIP3   OH221659   4.002   2.513   1.957  0.5932 -0.1053 -0.2260
 7232TIP3    H121660   3.948   2.549   1.886 -1.1827 -2.3858 -0.1356
 7232TIP3    H221661   4.042   2.434   1.919  2.0490  0.2771  0.4465
 7233TIP3   OH221662   3.700   3.668   4.264  0.0917  0.1971 -0.3325
 7233TIP3    H121663   3.642   3.612   4.213 -1.6935  0.2866  1.4717
 7233TIP3    H221664   3.681   3.646   4.355  1.2023  1.9296  0.3740
 7234TIP3   OH221665   4.113   5.407   4.815  0.4851 -0.3912 -0.2369
 7234TIP3    H121666   4.027   5.446   4.797  0.4704  0.8613  2.0696
 7234TIP3    H221667   4.092   5.322   4.855  0.2278  0.2908  1.1518
 7235TIP3   OH221668   2.352   6.257   1.084  0.3181 -0.2871 -0.1436
 7235TIP3    H121669   2.444   6.237   1.101  0.3441  0.8376  1.2349
 7235TIP3    H221670   2.308   6.172   1.090  1.1137 -0.6762  0.3983
 7236TIP3   OH221671   2.138   3.692   3.685 -0.3404 -0.3862 -0.3094
 7236TIP3    H121672   2.135   3.779   3.726  0.3479 -0.3351 -0.3540
 7236TIP3    H221673   2.061   3.647   3.720 -1.9002  0.9345 -1.8764
 7237TIP3   OH221674   3.647   3.442   4.873  0.0541  0.0795 -0.0970
 7237TIP3    H121675   3.576   3.453   4.935  1.0886 -1.4618  1.4674
 7237TIP3    H221676   3.704   3.517   4.888 -1.1917  1.3385 -1.3799
 7238TIP3   OH221677   1.869   6.529   2.301  0.7848  0.1049 -0.4380
 7238TIP3    H121678   1.924   6.575   2.365  2.0305 -0.4527 -1.0722
 7238TIP3    H221679   1.793   6.501   2.351  1.0490  0.9221  0.4627
 7239TIP3   OH221680   7.023   6.075   0.740 -0.0556  0.1074  0.4828
 7239TIP3    H121681   7.003   6.012   0.672 -0.7241 -0.2043  0.9557
 7239TIP3    H221682   7.072   6.145   0.695  1.4045 -1.1062  0.1136
 7240TIP3   OH221683   0.068   0.375   5.139 -0.2952 -0.0074  0.0239
 7240TIP3    H121684  -0.018   0.415   5.134 -0.1792  0.5442  1.6870
 7240TIP3    H221685   0.059   0.291   5.094 -1.8681 -0.2198  0.6807
 7241TIP3   OH221686   0.641   6.728   0.742 -0.1892 -0.7721  0.6302
 7241TIP3    H121687   0.599   6.732   0.656  0.2805 -1.6439  0.3445
 7241TIP3    H221688   0.586   6.781   0.798  0.1141  0.7445 -0.4540
 7242TIP3   OH221689   4.955   6.517   4.175 -0.2956  0.3732  0.3080
 7242TIP3    H121690   4.898   6.522   4.251  0.5857 -1.5078  1.1475
 7242TIP3    H221691   5.013   6.593   4.184 -1.2901  1.1309  0.5471
 7243TIP3   OH221692   1.395   4.909   0.498  0.1945  0.4612 -0.3015
 7243TIP3    H121693   1.439   4.861   0.568  0.7627  0.1560 -0.8539
 7243TIP3    H221694   1.304   4.915   0.526  0.3943  0.2395  0.4059
 7244TIP3   OH221695   0.967   3.350   3.572  0.1779  0.4297  0.1706
 7244TIP3    H121696   0.963   3.373   3.479  1.8409  0.3684  0.0545
 7244TIP3    H221697   1.017   3.422   3.612  2.0440 -0.9435  0.4755
 7245TIP3   OH221698   1.170   4.122   4.703  0.8487  0.2291  0.1373
 7245TIP3    H121699   1.114   4.200   4.702  1.1681  0.4822  1.1057
 7245TIP3    H221700   1.134   4.066   4.634  0.6677  1.2665 -0.6441
 7246TIP3   OH221701   2.671   0.933   0.351 -0.0801 -0.0175 -0.3267
 7246TIP3    H121702   2.698   0.951   0.441 -0.3042  1.1195 -0.4678
 7246TIP3    H221703   2.739   0.874   0.316  0.0284 -0.4292  0.5614
 7247TIP3   OH221704   2.376   1.578   2.440  0.3842  0.2077 -0.0384
 7247TIP3    H121705   2.307   1.572   2.374 -0.0631  0.2008  0.4307
 7247TIP3    H221706   2.344   1.525   2.513  0.4105  1.0590  0.5999
 7248TIP3   OH221707   4.019   5.330   5.809 -0.6264 -0.1381 -0.1888
 7248TIP3    H121708   3.959   5.305   5.879  0.0657  2.8883  1.6682
 7248TIP3    H221709   3.988   5.416   5.780  1.8461  0.8196 -0.2247
 7249TIP3   OH221710   2.611   0.539   3.558  0.8105 -0.0721 -0.3530
 7249TIP3    H121711   2.682   0.508   3.614  0.2457 -0.5817  0.1065
 7249TIP3    H221712   2.653   0.567   3.477  1.5374 -0.2780 -0.0490
 7250TIP3   OH221713   4.985   1.296   2.420  0.0316 -0.2595  0.0653
 7250TIP3    H121714   4.948   1.270   2.504  0.9924 -1.1598  0.2260
 7250TIP3    H221715   4.963   1.225   2.360 -0.5152  0.3034 -0.4155
 7251TIP3   OH221716   5.767   4.915   5.171 -0.0917 -0.0851 -0.3930
 7251TIP3    H121717   5.702   4.900   5.102 -0.9014 -0.6884  0.4626
 7251TIP3    H221718   5.840   4.959   5.127 -1.0860  0.6314 -1.3881
 7252TIP3   OH221719   0.802   4.784   0.056 -0.1280 -0.3874  0.0860
 7252TIP3    H121720   0.828   4.693   0.067  1.8050 -0.2412 -2.2698
 7252TIP3    H221721   0.707   4.781   0.047 -0.1856 -2.0439  0.8985
 7253TIP3   OH221722   3.672   0.545   3.986  0.7843 -0.1319 -0.1736
 7253TIP3    H121723   3.643   0.613   3.925 -2.1298 -1.0444  0.0454
 7253TIP3    H221724   3.608   0.474   3.975  2.4797 -1.9793  1.1245
 7254TIP3   OH221725   0.761   1.668   3.555  0.0092 -0.0498  0.1272
 7254TIP3    H121726   0.722   1.713   3.629 -2.0920  0.8061 -1.3929
 7254TIP3    H221727   0.734   1.577   3.565  0.9654 -0.2445  1.1344
 7255TIP3   OH221728   4.138   2.321   3.477  0.1161 -0.3007 -0.7931
 7255TIP3    H121729   4.169   2.231   3.474 -1.6619 -0.9341 -0.7689
 7255TIP3    H221730   4.043   2.315   3.478 -0.0503  1.5441  0.2451
 7256TIP3   OH221731   3.767   2.956   1.721  0.6602 -0.2403  0.0128
 7256TIP3    H121732   3.750   2.881   1.663 -2.7551 -0.1603  0.7006
 7256TIP3    H221733   3.716   3.028   1.683  1.9344  1.0869  0.7040
 7257TIP3   OH221734   6.557   5.084   3.761 -0.0825  0.4224  0.3184
 7257TIP3    H121735   6.493   5.145   3.797 -2.5139 -2.2014  0.7518
 7257TIP3    H221736   6.506   5.025   3.706  2.2829 -0.7644 -0.7555
 7258TIP3   OH221737   0.493   6.131   1.117 -0.1243 -0.4528 -0.3255
 7258TIP3    H121738   0.423   6.070   1.092 -0.5435 -0.6567  1.2413
 7258TIP3    H221739   0.505   6.116   1.211  1.6975 -0.0684 -0.4657
 7259TIP3   OH221740   4.799   1.186   0.718 -0.1152 -0.3371 -0.2561
 7259TIP3    H121741   4.850   1.267   0.725  1.0522 -1.0662  0.0541
 7259TIP3    H221742   4.712   1.214   0.690 -0.0017  1.1148  0.7308
 7260TIP3   OH221743   0.817   4.371   3.431  0.1564 -0.0249 -0.2600
 7260TIP3    H121744   0.820   4.285   3.389  0.0909 -0.6392  0.9448
 7260TIP3    H221745   0.894   4.372   3.488  1.0394  1.3526 -1.4064
 7261TIP3   OH221746   4.144   5.598   2.087  0.1944 -0.0304  0.0356
 7261TIP3    H121747   4.117   5.536   2.020 -0.4196  0.6234 -0.3360
 7261TIP3    H221748   4.113   5.559   2.169  0.8293 -0.7631 -0.0688
 7262TIP3   OH221749   2.580   4.949   4.831 -0.1452  0.6184  0.3768
 7262TIP3    H121750   2.500   4.964   4.881 -0.9750  0.4726 -0.8702
 7262TIP3    H221751   2.628   5.032   4.838  0.5662  0.0815  2.7563
 7263TIP3   OH221752   3.803   5.558   1.065  0.4250  0.0034  0.3444
 7263TIP3    H121753   3.739   5.623   1.096 -0.5321 -1.1463  0.8613
 7263TIP3    H221754   3.775   5.538   0.976  0.6726  0.2501  0.2126
 7264TIP3   OH221755   2.518   2.582   3.001 -0.6012 -0.0024  0.1510
 7264TIP3    H121756   2.579   2.516   2.967 -1.3161 -1.3992  1.4785
 7264TIP3    H221757   2.537   2.586   3.095 -0.6413  1.6557  0.1281
 7265TIP3   OH221758   4.391   0.865   0.973  0.1109 -0.9091  0.2606
 7265TIP3    H121759   4.440   0.881   1.053 -1.8094 -1.8922  1.6927
 7265TIP3    H221760   4.387   0.951   0.930  0.0649 -0.0778  1.8667
 7266TIP3   OH221761   2.724   1.689   0.985 -0.0223  0.0447  0.4079
 7266TIP3    H121762   2.726   1.655   0.896 -1.0346  3.0590 -0.8942
 7266TIP3    H221763   2.813   1.720   1.001  0.3137 -1.0361  0.7256
 7267TIP3   OH221764   1.207   1.413   2.409  0.0474 -0.1724 -0.0232
 7267TIP3    H121765   1.263   1.416   2.332 -0.0169  1.9122 -0.0298
 7267TIP3    H221766   1.228   1.329   2.451 -0.7993 -1.9804 -2.9030
 7268TIP3   OH221767   4.268   1.445   0.621 -0.1814  0.3210 -0.0107
 7268TIP3    H121768   4.194   1.505   0.611  0.1623  0.9310  1.0419
 7268TIP3    H221769   4.309   1.443   0.534  0.3692  2.3638  0.1577
 7269TIP3   OH221770   6.826   4.775   1.294  0.0655 -0.5099 -0.8703
 7269TIP3    H121771   6.794   4.820   1.372  0.1213  0.6050 -1.4689
 7269TIP3    H221772   6.898   4.720   1.325  0.3508  0.2362 -0.2047
 7270TIP3   OH221773   4.495   1.219   3.821 -0.1934 -0.3773  0.1311
 7270TIP3    H121774   4.416   1.165   3.814 -0.4037 -0.1822  0.8545
 7270TIP3    H221775   4.533   1.219   3.733 -1.0475 -0.4035 -0.2448
 7271TIP3   OH221776   0.272   3.421   3.959 -0.0353  0.3456 -0.4120
 7271TIP3    H121777   0.327   3.443   3.884  0.9005  4.1525  1.1514
 7271TIP3    H221778   0.182   3.427   3.925  0.3848  0.4818 -1.5540
 7272TIP3   OH221779   2.103   0.762   5.813  0.4079  0.1041  0.6530
 7272TIP3    H121780   2.080   0.762   5.906 -0.8100  0.2442  0.3704
 7272TIP3    H221781   2.179   0.704   5.807  1.2070  0.9619  1.8908
 7273TIP3   OH221782   4.244   5.448   1.763  0.7482 -0.2804  0.0424
 7273TIP3    H121783   4.334   5.432   1.735  0.7951  0.3662 -0.1906
 7273TIP3    H221784   4.195   5.370   1.735  1.2947 -0.7829  0.4679
 7274TIP3   OH221785   6.107   2.421   3.463  0.1271 -0.4792 -0.0123
 7274TIP3    H121786   6.076   2.441   3.551 -0.3006 -0.9917 -0.0406
 7274TIP3    H221787   6.056   2.345   3.436 -0.3596  0.1908 -1.0476
 7275TIP3   OH221788   3.972   5.731   3.102  0.2894  0.1183  0.2858
 7275TIP3    H121789   3.886   5.743   3.141  0.0177 -0.2139 -0.2016
 7275TIP3    H221790   3.993   5.639   3.117  0.7976  0.3302  0.8779
 7276TIP3   OH221791   1.221   3.395   1.530  0.2224  0.9365  0.6946
 7276TIP3    H121792   1.197   3.311   1.569 -0.9664 -0.0385 -1.9368
 7276TIP3    H221793   1.145   3.451   1.545  0.6722  1.3034  1.6921
 7277TIP3   OH221794   3.582   1.147   2.834  0.3040  0.1149 -0.3150
 7277TIP3    H121795   3.567   1.066   2.786  2.3462  0.3584 -1.4820
 7277TIP3    H221796   3.614   1.209   2.768  0.4041  1.3636  0.8533
 7278TIP3   OH221797   6.428   2.295   2.021  0.2834  0.0809  0.2200
 7278TIP3    H121798   6.445   2.202   2.010 -0.4449 -0.1864  1.2708
 7278TIP3    H221799   6.334   2.305   2.005  0.2657  0.5535  0.5788
 7279TIP3   OH221800   5.835   2.358   2.460  0.5693 -0.3130  0.0945
 7279TIP3    H121801   5.808   2.450   2.453  0.5601 -0.3430 -0.2915
 7279TIP3    H221802   5.774   2.311   2.404  0.4482 -0.5815  0.4522
 7280TIP3   OH221803   5.993   2.955   3.456 -0.2084  0.2018  0.1073
 7280TIP3    H121804   5.993   2.932   3.364  1.2763 -2.0841  0.5979
 7280TIP3    H221805   6.068   3.013   3.467 -1.1591  1.5629 -0.2967
 7281TIP3   OH221806   4.790   5.689   3.037 -0.1529 -0.3565  0.5571
 7281TIP3    H121807   4.856   5.627   3.006  1.5089  1.1509  0.9559
 7281TIP3    H221808   4.774   5.747   2.962 -0.5630 -0.3243  0.6667
 7282TIP3   OH221809   4.909   5.248   2.882  0.1639 -0.2465  0.1091
 7282TIP3    H121810   4.880   5.280   2.967  0.0077 -0.9914  0.3432
 7282TIP3    H221811   4.886   5.155   2.882  0.3015 -0.2885 -0.6857
 7283TIP3   OH221812   6.409   5.654   4.511 -0.0263  0.2357 -0.0116
 7283TIP3    H121813   6.361   5.605   4.578  0.5800  1.1456  1.1327
 7283TIP3    H221814   6.495   5.671   4.550  0.4477  0.5437 -1.1423
 7284TIP3   OH221815   6.879   6.146   2.604  0.0791 -0.3799  0.2216
 7284TIP3    H121816   6.877   6.073   2.542  0.7835 -1.7118  1.6912
 7284TIP3    H221817   6.788   6.175   2.609 -0.1952 -1.0681 -0.4798
 7285TIP3   OH221818   5.757   4.344   4.724 -0.5864 -0.5942 -0.2342
 7285TIP3    H121819   5.668   4.356   4.692 -0.5896 -1.4414 -0.5907
 7285TIP3    H221820   5.800   4.291   4.656 -0.6658 -2.6957  1.2432
 7286TIP3   OH221821   4.929   3.100   5.032 -0.7163 -0.3461  0.1205
 7286TIP3    H121822   4.965   3.040   5.097  0.0988 -0.9080 -0.8303
 7286TIP3    H221823   4.871   3.046   4.978 -2.0750  0.2946  0.8734
 7287TIP3   OH221824   1.139   0.219   3.845  0.0163  0.1538 -0.4222
 7287TIP3    H121825   1.105   0.250   3.929 -0.3028  0.1814 -0.5603
 7287TIP3    H221826   1.061   0.192   3.796  0.3800 -2.7018  0.3930
 7288TIP3   OH221827   3.730   3.837   2.239  0.0231  0.0684 -0.2403
 7288TIP3    H121828   3.716   3.779   2.314  0.5824 -0.6338 -0.6704
 7288TIP3    H221829   3.715   3.781   2.162 -0.2188  0.6945 -0.6577
 7289TIP3   OH221830   4.576   0.882   3.133  0.1088  0.3530 -0.0584
 7289TIP3    H121831   4.625   0.839   3.202 -0.7057  1.0813  1.0168
 7289TIP3    H221832   4.520   0.813   3.096  0.0420  0.1170  0.4857
 7290TIP3   OH221833   3.818   3.672   4.923  0.0278  0.5049  0.1751
 7290TIP3    H121834   3.825   3.719   5.006 -1.9073  0.2657  0.5167
 7290TIP3    H221835   3.783   3.737   4.862 -0.1506  0.2238 -0.0224
 7291TIP3   OH221836   3.228   5.439   2.511 -0.7996  0.1368 -0.4815
 7291TIP3    H121837   3.299   5.383   2.540  0.0059  1.7325  0.7532
 7291TIP3    H221838   3.156   5.421   2.572 -0.9929 -0.4529 -0.8724
 7292TIP3   OH221839   4.381   6.256   5.261  1.1313  0.8941 -0.3289
 7292TIP3    H121840   4.462   6.297   5.289  2.5045 -3.7805  4.1030
 7292TIP3    H221841   4.408   6.181   5.208 -0.3971  0.1085 -0.0730
 7293TIP3   OH221842   6.033   2.175   5.053  0.5817 -0.2917  0.2850
 7293TIP3    H121843   6.091   2.249   5.066  0.8758 -0.5509  0.4643
 7293TIP3    H221844   6.091   2.103   5.029  0.1793 -0.1214 -1.3192
 7294TIP3   OH221845   6.358   5.020   0.841 -0.0572  0.6815  0.1385
 7294TIP3    H121846   6.411   4.969   0.903  1.7544  2.8548  0.5043
 7294TIP3    H221847   6.309   4.954   0.792  1.2914 -1.3385  1.3364
 7295TIP3   OH221848   1.566   6.469   1.401 -0.5421  0.2593  0.1148
 7295TIP3    H121849   1.549   6.423   1.319 -1.8619  0.8408  0.0403
 7295TIP3    H221850   1.595   6.401   1.462  0.8500 -0.1242 -0.9181
 7296TIP3   OH221851   1.317   3.514   4.830  0.1333 -0.0244  0.1062
 7296TIP3    H121852   1.290   3.458   4.902 -0.9295 -0.2577 -0.4501
 7296TIP3    H221853   1.408   3.490   4.813  0.9851  1.2277  2.4552
 7297TIP3   OH221854   7.206   2.474   4.497 -0.2107  0.4966 -0.3300
 7297TIP3    H121855   7.145   2.404   4.522 -1.5229  1.4396 -0.7722
 7297TIP3    H221856   7.278   2.429   4.453 -1.3853 -0.5260 -1.2621
 7298TIP3   OH221857   5.378   5.615   2.506  0.1766  0.1009  0.0625
 7298TIP3    H121858   5.376   5.622   2.602  2.5815  1.9026  0.0781
 7298TIP3    H221859   5.383   5.705   2.476 -1.1111 -0.4047 -1.8544
 7299TIP3   OH221860   3.410   6.512   3.651  0.0355 -0.5827 -0.2435
 7299TIP3    H121861   3.328   6.481   3.690  0.1320  0.5998  0.9512
 7299TIP3    H221862   3.382   6.576   3.585  0.0179  0.6330  0.9227
 7300TIP3   OH221863   0.743   3.542   5.290 -0.3768  0.3974 -0.2053
 7300TIP3    H121864   0.682   3.562   5.362  0.3594  0.9381  0.2840
 7300TIP3    H221865   0.691   3.556   5.211 -1.5027 -1.1940  0.1999
 7301TIP3   OH221866   5.305   5.717   4.864 -0.0265 -0.3312  0.0928
 7301TIP3    H121867   5.313   5.810   4.885  1.2304  0.3630 -2.9501
 7301TIP3    H221868   5.210   5.701   4.862 -0.3954  1.6330 -1.9558
 7302TIP3   OH221869   2.046   1.919   2.454 -0.0250  0.3325 -0.0586
 7302TIP3    H121870   2.131   1.903   2.495 -0.5323 -0.0384  0.9005
 7302TIP3    H221871   2.045   1.864   2.376 -0.6406 -2.2684  1.6699
 7303TIP3   OH221872   3.253   2.280   0.976  0.0020  0.0350  0.2179
 7303TIP3    H121873   3.177   2.250   1.026  1.1271  0.9181  2.5857
 7303TIP3    H221874   3.250   2.375   0.982  1.5238  0.0705  0.7666
 7304TIP3   OH221875   4.685   4.972   3.087  0.1399  0.2241 -0.7960
 7304TIP3    H121876   4.680   4.877   3.078  1.6273  0.1383 -0.9939
 7304TIP3    H221877   4.722   5.001   3.004  0.6013  0.8750 -0.3661
 7305TIP3   OH221878   0.469   4.551   4.790  0.2009 -0.0981 -0.0456
 7305TIP3    H121879   0.526   4.508   4.854  0.4368 -0.2141 -0.3340
 7305TIP3    H221880   0.500   4.642   4.788  2.4457 -0.7955 -2.4521
 7306TIP3   OH221881   5.304   4.667   4.997  0.0539  0.1090 -0.4008
 7306TIP3    H121882   5.367   4.621   4.942  1.4327 -0.5915  1.6711
 7306TIP3    H221883   5.261   4.598   5.048 -1.9775  0.6365 -1.2863
 7307TIP3   OH221884   6.418   4.267   5.843 -0.5812  0.0722  0.2088
 7307TIP3    H121885   6.372   4.185   5.825  1.8910 -1.2354 -0.7002
 7307TIP3    H221886   6.411   4.317   5.761  0.7326 -0.7437 -0.4316
 7308TIP3   OH221887   2.539   4.145   2.447  0.0804 -0.3727  0.2798
 7308TIP3    H121888   2.555   4.062   2.491 -0.7596 -1.0708 -0.6665
 7308TIP3    H221889   2.512   4.120   2.358 -0.7452  0.8763  0.1465
 7309TIP3   OH221890   1.116   1.108   5.589 -0.3670 -0.4305  0.5027
 7309TIP3    H121891   1.078   1.023   5.612 -0.3093 -0.3034  1.0731
 7309TIP3    H221892   1.125   1.154   5.672  2.2763 -0.9624  0.5790
 7310TIP3   OH221893   6.074   1.926   2.077 -0.3299 -0.1366  0.1886
 7310TIP3    H121894   6.124   1.857   2.119  2.6662  1.9650  0.4111
 7310TIP3    H221895   6.066   1.994   2.143 -0.9063  0.7728 -0.7798
 7311TIP3   OH221896   1.850   3.288   5.092  0.0849  0.0667 -0.5347
 7311TIP3    H121897   1.875   3.209   5.045 -0.6301 -0.8302  0.5496
 7311TIP3    H221898   1.754   3.285   5.097 -0.1334  1.9801 -2.1095
 7312TIP3   OH221899   5.874   6.445   4.815  0.0242  0.4813  0.4938
 7312TIP3    H121900   5.932   6.425   4.742  1.6168  2.1639  1.2123
 7312TIP3    H221901   5.800   6.492   4.776 -1.4973 -2.5309 -0.5713
 7313TIP3   OH221902   7.064   5.663   4.816 -0.3552  0.2161 -0.1910
 7313TIP3    H121903   7.116   5.583   4.807 -0.6990  0.1520 -2.0910
 7313TIP3    H221904   7.127   5.730   4.843  0.3751 -0.2403 -0.7315
 7314TIP3   OH221905   4.201   1.681   1.542  0.6532 -0.1553  0.0976
 7314TIP3    H121906   4.167   1.749   1.483  3.4695  2.3808  1.0782
 7314TIP3    H221907   4.146   1.687   1.620  0.9322  1.1688  0.2223
 7315TIP3   OH221908   5.028   3.420   3.077 -0.1339  0.6768 -0.4619
 7315TIP3    H121909   4.997   3.330   3.063  0.9003  0.1844  0.3336
 7315TIP3    H221910   4.979   3.451   3.152 -0.4996  0.7864 -0.7433
 7316TIP3   OH221911   1.095   5.600   4.898 -0.6364  0.2984 -0.5060
 7316TIP3    H121912   1.005   5.621   4.872 -0.8707  0.6344  0.5121
 7316TIP3    H221913   1.094   5.607   4.994 -0.0699 -1.8271 -0.2882
 7317TIP3   OH221914   2.780   0.087   3.471 -0.8512 -0.0631 -0.2845
 7317TIP3    H121915   2.791   0.157   3.407  1.0260 -0.7341 -0.7485
 7317TIP3    H221916   2.756   0.131   3.552 -0.3167  1.0488 -0.7227
 7318TIP3   OH221917   1.597   5.097   1.521 -0.4240 -0.2945  0.0553
 7318TIP3    H121918   1.562   5.163   1.461  1.0726  1.7163  1.2961
 7318TIP3    H221919   1.678   5.067   1.479 -0.5564 -0.5846  0.0021
 7319TIP3   OH221920   7.169   4.114   0.804  1.2306 -0.1214 -0.3818
 7319TIP3    H121921   7.196   4.059   0.730 -0.6866  0.0708 -1.2796
 7319TIP3    H221922   7.141   4.196   0.764 -1.1569 -0.4967  0.3525
 7320TIP3   OH221923   2.173   6.636   0.823  0.2018  0.3538  0.3806
 7320TIP3    H121924   2.084   6.667   0.807 -0.1110 -0.4904  0.4696
 7320TIP3    H221925   2.162   6.549   0.861  1.0785 -0.8471 -1.9131
 7321TIP3   OH221926   3.642   1.910   1.060 -0.2975 -0.1058  0.7485
 7321TIP3    H121927   3.570   1.972   1.046  0.2325  0.3490 -0.0623
 7321TIP3    H221928   3.710   1.939   1.000  0.6825 -0.3602  1.7092
 7322TIP3   OH221929   1.912   3.529   3.746 -0.7233  0.0960 -0.0839
 7322TIP3    H121930   1.886   3.463   3.682  2.8652 -0.8676 -0.7583
 7322TIP3    H221931   1.879   3.496   3.830 -1.2378 -1.2137 -0.7775
 7323TIP3   OH221932   0.899   6.738   0.650  0.0351 -0.9430 -0.3087
 7323TIP3    H121933   0.808   6.767   0.652 -0.3655 -1.8778 -2.2942
 7323TIP3    H221934   0.909   6.686   0.729 -1.2482 -1.0756 -0.2061
 7324TIP3   OH221935   1.906   0.005   3.406 -0.1176  0.1460 -0.4682
 7324TIP3    H121936   1.913   0.095   3.375 -2.1057  0.8482  0.9089
 7324TIP3    H221937   1.996  -0.027   3.410  0.5372  1.6504 -2.1133
 7325TIP3   OH221938   3.260   4.457   4.158  0.2405  0.7859  0.2239
 7325TIP3    H121939   3.172   4.445   4.122  1.1115 -2.0412 -1.2549
 7325TIP3    H221940   3.298   4.528   4.106 -1.0329  1.9255  0.7646
 7326TIP3   OH221941   2.684   3.314   0.173 -0.0136  0.3137 -0.6404
 7326TIP3    H121942   2.714   3.336   0.084 -1.0528 -0.6047 -1.2523
 7326TIP3    H221943   2.590   3.331   0.171 -0.4709 -1.8406 -0.4460
 7327TIP3   OH221944   0.559   0.062   0.811  0.3347 -0.1637 -0.1695
 7327TIP3    H121945   0.616   0.004   0.861  0.3975  0.5152  0.5758
 7327TIP3    H221946   0.592   0.150   0.830 -0.2635  0.1668 -0.6219
 7328TIP3   OH221947   6.680   4.423   1.602  0.1060 -0.3551 -0.7861
 7328TIP3    H121948   6.761   4.373   1.590 -0.9419 -2.2543 -0.4397
 7328TIP3    H221949   6.614   4.373   1.554 -0.9121  1.0197 -0.8552
 7329TIP3   OH221950   5.981   6.813   1.756  0.0224  0.9402 -0.2946
 7329TIP3    H121951   5.980   6.841   1.664  0.8190  1.3391 -0.1821
 7329TIP3    H221952   5.961   6.719   1.752  0.0691  0.9495 -0.8749
 7330TIP3   OH221953   6.524   4.490   0.956  0.4231  0.8969 -0.4070
 7330TIP3    H121954   6.616   4.465   0.958  0.1421 -0.4554 -2.0285
 7330TIP3    H221955   6.502   4.510   1.047  1.9212 -0.2955  0.2602
 7331TIP3   OH221956   2.064   5.054   0.386 -0.1014 -0.5017  0.3926
 7331TIP3    H121957   2.001   5.097   0.328  0.4310  0.5266  0.5383
 7331TIP3    H221958   2.105   4.987   0.333 -0.6303 -0.5243  0.0067
 7332TIP3   OH221959   5.146   4.063   1.547  0.2232  0.0825  0.2423
 7332TIP3    H121960   5.204   4.130   1.512 -0.0719  0.7841  1.0389
 7332TIP3    H221961   5.203   3.988   1.564  0.8076  0.5867  0.5508
 7333TIP3   OH221962   4.304   0.382   1.149 -0.0172 -0.4917 -0.1310
 7333TIP3    H121963   4.385   0.418   1.185  0.1528 -0.7956 -0.2013
 7333TIP3    H221964   4.247   0.370   1.226 -0.6857  1.4039 -0.2787
 7334TIP3   OH221965   5.622   2.785   1.918  0.3792  0.6903 -0.8192
 7334TIP3    H121966   5.545   2.815   1.870 -1.1942 -0.1260  1.0453
 7334TIP3    H221967   5.595   2.703   1.959  0.7857  2.2138  3.0161
 7335TIP3   OH221968   2.664   4.447   1.577 -0.4600 -0.2765 -0.5823
 7335TIP3    H121969   2.602   4.478   1.512 -1.1323  0.3555  0.3282
 7335TIP3    H221970   2.611   4.396   1.638  0.1345 -0.7591 -0.4566
 7336TIP3   OH221971   3.675   4.616   0.942  0.3010  0.1225 -0.0240
 7336TIP3    H121972   3.721   4.611   0.858  1.6818  1.0609  0.6401
 7336TIP3    H221973   3.632   4.702   0.940 -0.6905 -0.3641 -0.2519
 7337TIP3   OH221974   6.697   4.240   4.764  0.8084 -0.4425 -0.2160
 7337TIP3    H121975   6.763   4.284   4.817  0.7287  1.0540 -1.2924
 7337TIP3    H221976   6.747   4.178   4.710  0.9636 -1.4613  1.0546
 7338TIP3   OH221977   4.304   4.785   2.527 -0.0920  0.1369 -0.0582
 7338TIP3    H121978   4.236   4.738   2.576 -0.7448  1.8356  0.7425
 7338TIP3    H221979   4.367   4.813   2.594  2.7861 -3.3405 -0.9777
 7339TIP3   OH221980   3.390   0.343   1.624 -0.0594 -0.0523 -0.2062
 7339TIP3    H121981   3.339   0.262   1.627 -1.1077  0.5888  2.3150
 7339TIP3    H221982   3.436   0.345   1.708 -0.9496  2.4466  0.3149
 7340TIP3   OH221983   6.035   2.631   5.219 -0.4066  0.6701  0.1849
 7340TIP3    H121984   6.121   2.594   5.237 -0.7156  0.7914  2.1203
 7340TIP3    H221985   6.051   2.724   5.203 -0.1360  0.5947  0.0072
 7341TIP3   OH221986   5.968   5.590   1.331  0.3809 -0.3458 -0.2869
 7341TIP3    H121987   5.907   5.557   1.265  0.7653 -0.0442 -0.8059
 7341TIP3    H221988   5.989   5.679   1.301  1.0182 -0.4217 -0.0778
 7342TIP3   OH221989   1.252   3.606   1.204 -0.0019 -0.0296 -0.5340
 7342TIP3    H121990   1.277   3.620   1.295  0.6635 -1.6777 -0.4379
 7342TIP3    H221991   1.233   3.512   1.198 -1.5367  0.3081 -1.7412
 7343TIP3   OH221992   0.891   6.110   2.200  0.3896 -0.2708 -0.3527
 7343TIP3    H121993   0.856   6.162   2.127  0.3477 -0.1141 -0.2214
 7343TIP3    H221994   0.912   6.025   2.161  3.4819  0.8033 -1.3266
 7344TIP3   OH221995   3.283   2.559   3.179 -0.2889 -0.2291 -0.2740
 7344TIP3    H121996   3.239   2.474   3.175 -0.0800 -0.3326 -0.4166
 7344TIP3    H221997   3.351   2.547   3.244 -1.4571  0.4036  1.1089
 7345TIP3   OH221998   1.389   5.181   5.752  0.3199 -0.7074  0.2703
 7345TIP3    H121999   1.352   5.096   5.727 -1.1196 -0.0845  0.1435
 7345TIP3    H222000   1.372   5.237   5.676  0.5810 -0.1237  0.6375
 7346TIP3   OH222001   0.556   5.467   1.831  0.0777 -0.1385  0.3628
 7346TIP3    H122002   0.599   5.402   1.886  1.1801  1.4945  1.5116
 7346TIP3    H222003   0.493   5.510   1.890  1.0693  1.4344  0.3468
 7347TIP3   OH222004   3.521   2.596   4.572  0.4994 -0.6399  0.1665
 7347TIP3    H122005   3.500   2.579   4.664 -2.2840 -2.1656 -0.6427
 7347TIP3    H222006   3.559   2.514   4.540 -0.6996 -0.9362 -0.5618
 7348TIP3   OH222007   2.832   0.463   3.748 -0.2060  0.5096 -0.1283
 7348TIP3    H122008   2.780   0.520   3.805 -0.4723  0.7299 -0.5813
 7348TIP3    H222009   2.922   0.492   3.761 -0.1396 -0.1641  0.9893
 7349TIP3   OH222010   5.278   4.966   5.505  0.1856  0.1544  0.3581
 7349TIP3    H122011   5.263   4.962   5.411 -0.1478 -0.3873  0.4268
 7349TIP3    H222012   5.191   4.978   5.543  0.0970 -1.2993  0.6766
 7350TIP3   OH222013   0.427   4.543   1.439 -0.5137 -0.7635  0.3917
 7350TIP3    H122014   0.364   4.549   1.368 -1.5098  2.4771  1.3923
 7350TIP3    H222015   0.377   4.506   1.512 -0.8937  0.4787  0.7756
 7351TIP3   OH222016   2.648   0.479   4.317 -0.1749  0.1480 -0.1620
 7351TIP3    H122017   2.589   0.403   4.311 -0.1923  0.2209 -1.1896
 7351TIP3    H222018   2.735   0.443   4.298  0.1297  0.0430  1.3415
 7352TIP3   OH222019   1.503   3.245   0.304  0.0627 -0.4375  0.1561
 7352TIP3    H122020   1.456   3.303   0.244  0.4287 -0.0910  0.1980
 7352TIP3    H222021   1.462   3.160   0.292 -1.1303  0.0276  0.8038
 7353TIP3   OH222022   0.125   0.426   4.800 -0.0005 -0.1250 -0.8223
 7353TIP3    H122023   0.051   0.486   4.804  0.6156  0.5811  1.1575
 7353TIP3    H222024   0.195   0.471   4.847  0.4640 -2.4170  0.8394
 7354TIP3   OH222025   3.528   3.996   1.178  0.2782  0.5101  0.3447
 7354TIP3    H122026   3.547   3.904   1.196 -1.0166  0.1068 -0.2518
 7354TIP3    H222027   3.444   4.012   1.221 -0.4252  0.8844 -1.1005
 7355TIP3   OH222028   5.345   1.000   0.950 -0.0881  0.2822  0.7373
 7355TIP3    H122029   5.439   1.001   0.969 -0.1308 -0.3549  1.0243
 7355TIP3    H222030   5.334   1.061   0.877  0.7374 -0.6377 -0.1831
 7356TIP3   OH222031   3.982   4.244   3.435  0.3972  0.4353  0.4016
 7356TIP3    H122032   3.980   4.166   3.380 -0.3688 -1.0449  2.3879
 7356TIP3    H222033   4.064   4.287   3.412  0.0286  0.0132 -1.9764
 7357TIP3   OH222034   6.134   2.496   1.319 -0.1866  0.0594  0.3576
 7357TIP3    H122035   6.110   2.588   1.326  1.5679  0.4452  2.2500
 7357TIP3    H222036   6.124   2.476   1.226 -0.9375  2.0397 -0.0467
 7358TIP3   OH222037   1.600   6.407   2.411 -0.3638  0.0582  0.2000
 7358TIP3    H122038   1.543   6.336   2.441 -1.3301  0.5510 -0.4062
 7358TIP3    H222039   1.546   6.486   2.421  0.3908  0.5960  0.0597
 7359TIP3   OH222040   4.393   0.479   1.382  0.5326  0.6805 -0.0925
 7359TIP3    H122041   4.350   0.562   1.361 -2.0653 -0.7399 -0.7983
 7359TIP3    H222042   4.360   0.456   1.469 -0.4792 -0.6045 -0.7856
 7360TIP3   OH222043   5.004   5.643   1.912  0.0212 -0.0545 -0.1214
 7360TIP3    H122044   5.032   5.685   1.993  1.1928  2.2770 -1.6459
 7360TIP3    H222045   4.918   5.606   1.933 -0.1710  1.3698  1.8752
 7361TIP3   OH222046   5.753   2.862   3.548 -0.3425 -0.1542 -0.6409
 7361TIP3    H122047   5.842   2.879   3.517  0.0188 -0.0570  0.4045
 7361TIP3    H222048   5.729   2.779   3.507  0.7530 -0.8709  0.1010
 7362TIP3   OH222049   0.317   2.008   0.372 -0.2683 -0.5962  0.3760
 7362TIP3    H122050   0.341   1.918   0.392  0.3509 -0.6169 -0.3924
 7362TIP3    H222051   0.318   2.053   0.457  4.8145 -0.0520  0.3857
 7363TIP3   OH222052   7.043   5.012   5.047  0.1435 -0.3497  0.1143
 7363TIP3    H122053   7.021   4.943   4.984 -1.6244  1.2540 -1.1359
 7363TIP3    H222054   7.034   4.970   5.132 -1.9343 -1.4381 -0.5693
 7364TIP3   OH222055   4.462   0.652   2.281 -0.3872  0.0228 -0.1829
 7364TIP3    H122056   4.553   0.666   2.254 -0.2110 -1.2085 -0.2728
 7364TIP3    H222057   4.434   0.576   2.230 -1.7725  0.9288 -0.8297
 7365TIP3   OH222058   1.422   3.904   0.198  0.6191 -0.1216 -0.4468
 7365TIP3    H122059   1.443   3.987   0.155 -0.8402  0.1150 -0.7784
 7365TIP3    H222060   1.495   3.847   0.179  1.1626  0.7704 -1.1082
 7366TIP3   OH222061   0.613   2.455   4.593  0.1281  0.3184  0.7015
 7366TIP3    H122062   0.532   2.492   4.559 -0.1187  0.2924  1.2579
 7366TIP3    H222063   0.594   2.434   4.684  0.8323  0.5325  0.9070
 7367TIP3   OH222064   5.010   1.432   0.680  0.2881 -0.3736  0.0126
 7367TIP3    H122065   5.033   1.523   0.660 -1.4622  0.8668  2.8514
 7367TIP3    H222066   4.990   1.393   0.596  1.4851  1.7381 -1.3581
 7368TIP3   OH222067   3.098   0.497   4.007 -0.1616  0.5768 -0.2236
 7368TIP3    H122068   3.105   0.529   4.097 -1.3084  0.1804  0.0106
 7368TIP3    H222069   3.164   0.427   4.001 -0.2123  0.4778  0.3584
 7369TIP3   OH222070   6.817   0.073   1.621  0.0217 -0.5260 -0.2983
 7369TIP3    H122071   6.773   0.009   1.677 -0.1498 -1.6525 -1.6804
 7369TIP3    H222072   6.760   0.151   1.625 -0.1224 -0.6681  0.8579
 7370TIP3   OH222073   6.771   2.386   4.913  0.2155 -0.1003  0.1836
 7370TIP3    H122074   6.685   2.421   4.935  1.0136  2.9681 -1.0821
 7370TIP3    H222075   6.754   2.323   4.843 -1.0010  0.4943 -0.0819
 7371TIP3   OH222076   5.766   5.573   2.491  0.1613  0.3924  0.5276
 7371TIP3    H122077   5.695   5.510   2.488 -0.2929  0.9280 -0.3970
 7371TIP3    H222078   5.846   5.520   2.486 -0.2253 -0.0819 -1.4139
 7372TIP3   OH222079   0.465   6.528   1.805  0.0751  0.2539  0.2388
 7372TIP3    H122080   0.487   6.593   1.872  2.1636  2.0830 -2.0270
 7372TIP3    H222081   0.403   6.572   1.748 -0.8025 -0.8742  0.2785
 7373TIP3   OH222082   2.522   6.229   0.558  0.4161 -0.3727 -0.1082
 7373TIP3    H122083   2.554   6.303   0.507  0.9346 -0.8061 -0.4274
 7373TIP3    H222084   2.539   6.253   0.649  0.4031 -0.0155 -0.2001
 7374TIP3   OH222085   6.948   4.914   5.718  0.1814  0.2913 -0.0553
 7374TIP3    H122086   6.905   4.870   5.645  0.7677  0.4781 -0.5146
 7374TIP3    H222087   6.891   4.989   5.738 -0.0320  0.1804 -0.2414
 7375TIP3   OH222088   3.502   1.233   0.459  0.4792 -0.1495 -0.7094
 7375TIP3    H122089   3.510   1.292   0.384  0.2979 -0.0133 -0.6213
 7375TIP3    H222090   3.421   1.260   0.502  0.2071 -0.7055 -0.8775
 7376TIP3   OH222091   0.263   3.148   3.301 -0.6179  0.4668  0.3183
 7376TIP3    H122092   0.225   3.093   3.232 -0.5249 -0.0286  0.6533
 7376TIP3    H222093   0.205   3.224   3.306 -2.6582 -1.0518  2.0034
 7377TIP3   OH222094   6.216   4.037   5.855 -0.2070 -0.0988 -0.2037
 7377TIP3    H122095   6.186   4.036   5.946  1.2745 -0.6524  0.3178
 7377TIP3    H222096   6.267   3.957   5.847  1.1611  0.8214 -0.9909
 7378TIP3   OH222097   5.737   5.865   1.314  0.2188  0.0511 -0.1627
 7378TIP3    H122098   5.661   5.897   1.265 -0.7455  1.4832  2.0898
 7378TIP3    H222099   5.715   5.774   1.336 -1.1393  0.5969  0.8977
 7379TIP3   OH222100   2.985   2.933   1.131 -0.0029 -0.0918  0.3718
 7379TIP3    H122101   2.897   2.960   1.105 -0.2760 -0.1186  1.2249
 7379TIP3    H222102   3.043   2.988   1.079 -0.5016 -0.5906 -0.7521
 7380TIP3   OH222103   0.865   4.892   0.886  0.3353 -0.5114 -0.2932
 7380TIP3    H122104   0.802   4.833   0.845 -1.1338  0.2343  0.7878
 7380TIP3    H222105   0.848   4.884   0.980 -0.3417  1.9838 -0.1070
 7381TIP3   OH222106   6.450   6.757   3.245 -0.8512 -0.8595 -0.1103
 7381TIP3    H122107   6.402   6.815   3.186 -2.0968 -0.7328  0.9746
 7381TIP3    H222108   6.488   6.816   3.311 -0.7342 -1.1144  0.0514
 7382TIP3   OH222109   0.205   1.981   3.659  0.3135 -0.3581 -0.8931
 7382TIP3    H122110   0.227   1.942   3.574  1.9924  0.4693 -0.8735
 7382TIP3    H222111   0.207   1.907   3.720  1.3094 -0.6087 -1.2131
 7383TIP3   OH222112   3.144   1.097   4.775  0.2742  0.0090  0.2619
 7383TIP3    H122113   3.084   1.025   4.798 -1.1690  0.9952 -0.2586
 7383TIP3    H222114   3.188   1.118   4.857 -2.2155  1.1370  1.4164
 7384TIP3   OH222115   4.226   6.115   4.984 -0.1120 -0.6466  0.2755
 7384TIP3    H122116   4.225   6.211   4.992  0.1279 -0.6521  0.3828
 7384TIP3    H222117   4.138   6.093   4.953  0.2783 -0.2664 -1.2067
 7385TIP3   OH222118   1.277   4.923   2.506 -0.4661  0.2699  0.4469
 7385TIP3    H122119   1.262   5.016   2.524 -2.2786 -0.1951  1.6318
 7385TIP3    H222120   1.282   4.918   2.411 -1.1494  1.4897  0.3259
 7386TIP3   OH222121   2.051   2.469   0.090  0.0269 -0.0880 -0.2199
 7386TIP3    H122122   2.095   2.444   0.009  0.3124  0.3670 -0.2090
 7386TIP3    H222123   1.958   2.464   0.070  0.0757 -0.9508 -0.2780
 7387TIP3   OH222124   4.942   5.681   0.476 -0.3018 -0.1156 -0.0116
 7387TIP3    H122125   4.964   5.645   0.390 -0.2414 -0.4847  0.1564
 7387TIP3    H222126   4.896   5.763   0.456  0.7287  0.3952 -0.3675
 7388TIP3   OH222127   4.176   4.651   1.475  0.3121 -0.1616  0.2505
 7388TIP3    H122128   4.245   4.612   1.421 -0.5113  0.1359 -1.0634
 7388TIP3    H222129   4.205   4.742   1.487  0.0557  0.0297 -0.5029
 7389TIP3   OH222130   3.882   6.492   0.324  0.8416  0.2644 -0.0504
 7389TIP3    H122131   3.938   6.438   0.380  0.7035  0.5507  0.3729
 7389TIP3    H222132   3.815   6.432   0.293  1.1683  0.0038 -0.2626
 7390TIP3   OH222133   0.116   2.705   3.913  0.3697  0.0658 -0.0874
 7390TIP3    H122134   0.064   2.780   3.885 -1.3093 -0.3072  1.7991
 7390TIP3    H222135   0.100   2.698   4.007  0.3484 -2.7278 -0.2180
 7391TIP3   OH222136   3.739   1.248   1.497  0.0719 -0.4908  0.2680
 7391TIP3    H122137   3.682   1.256   1.574  0.3058  0.0301  0.3864
 7391TIP3    H222138   3.683   1.275   1.424  0.3874  0.8034  0.4779
 7392TIP3   OH222139   0.756   3.539   5.670  0.0231  0.2923 -0.7724
 7392TIP3    H122140   0.702   3.554   5.593 -2.3436 -0.7537  0.5647
 7392TIP3    H222141   0.734   3.450   5.698  3.0385 -0.4949 -0.5313
 7393TIP3   OH222142   1.175   6.177   0.714  0.0764  0.6917 -0.6808
 7393TIP3    H122143   1.220   6.245   0.765  1.3349  1.5167 -2.7886
 7393TIP3    H222144   1.210   6.186   0.626 -1.6586 -1.0227 -1.6086
 7394TIP3   OH222145   3.195   4.121   3.025 -0.3067 -1.0450 -0.4438
 7394TIP3    H122146   3.178   4.213   3.041 -1.1970 -1.2948  0.1446
 7394TIP3    H222147   3.159   4.104   2.938  0.1110 -0.7805 -0.6696
 7395TIP3   OH222148   0.055   3.434   0.745  0.3199 -0.0207  0.2842
 7395TIP3    H122149   0.106   3.514   0.748 -1.5402  1.2248  0.3671
 7395TIP3    H222150   0.115   3.366   0.776  1.3575  1.6673  2.2570
 7396TIP3   OH222151   5.513   0.960   4.291  1.1809  0.6939 -0.2498
 7396TIP3    H122152   5.518   0.887   4.229 -0.0974  0.3124  0.0657
 7396TIP3    H222153   5.598   1.004   4.284  2.4414 -1.4818  0.3385
 7397TIP3   OH222154   3.531   0.997   1.852  0.5081  0.6364  0.4673
 7397TIP3    H122155   3.512   0.903   1.854  1.3137  0.4629  2.7994
 7397TIP3    H222156   3.456   1.035   1.807  0.8192 -1.2066 -1.8579
 7398TIP3   OH222157   7.023   3.779   2.495 -0.0095  0.8426 -0.1352
 7398TIP3    H122158   6.954   3.797   2.559  0.5346 -0.8020  0.9737
 7398TIP3    H222159   7.072   3.861   2.488 -0.5760  1.2876  0.9609
 7399TIP3   OH222160   2.928   4.504   1.692 -0.3271 -0.0778  0.1008
 7399TIP3    H122161   2.840   4.505   1.653 -0.4717 -0.9019  0.3970
 7399TIP3    H222162   2.939   4.593   1.726  0.8103  1.5707 -3.9781
 7400TIP3   OH222163   0.196   5.052   1.445 -0.1353 -0.0659  0.2760
 7400TIP3    H122164   0.172   5.043   1.537  2.1294  1.0285  1.0277
 7400TIP3    H222165   0.166   4.970   1.405 -1.6978 -0.3139  1.8141
 7401TIP3   OH222166   3.461   6.150   2.037  0.0085  0.0856  0.0533
 7401TIP3    H122167   3.513   6.229   2.054 -0.1958 -0.2555  2.5408
 7401TIP3    H222168   3.520   6.077   2.057 -0.8184 -0.3211  1.0951
 7402TIP3   OH222169   6.136   5.342   1.997  0.1314 -0.3483  0.3413
 7402TIP3    H122170   6.228   5.332   2.020  0.1855 -1.0309 -0.1525
 7402TIP3    H222171   6.135   5.354   1.902 -0.2981 -0.5947  0.3089
 7403TIP3   OH222172   2.561   5.762   1.361  0.1831  0.5135 -0.1964
 7403TIP3    H122173   2.550   5.771   1.456 -0.0068 -3.0285  0.2479
 7403TIP3    H222174   2.631   5.698   1.351 -0.3714  0.1753 -2.4504
 7404TIP3   OH222175   2.772   5.125   3.841  0.3374  0.0072 -0.3860
 7404TIP3    H122176   2.850   5.131   3.787 -0.4306 -0.3500 -1.5855
 7404TIP3    H222177   2.768   5.034   3.869  1.0799  0.3247  0.8691
 7405TIP3   OH222178   1.516   2.459   1.795 -0.0790 -0.5508  0.1935
 7405TIP3    H122179   1.423   2.470   1.778  0.0177 -0.3182 -0.2080
 7405TIP3    H222180   1.528   2.491   1.885 -0.5025 -1.2575  0.5064
 7406TIP3   OH222181   0.569   1.359   5.225 -0.6248 -0.6352 -0.3803
 7406TIP3    H122182   0.495   1.414   5.200 -0.2574 -0.7077 -1.7112
 7406TIP3    H222183   0.571   1.364   5.321 -2.1772 -0.4313 -0.3277
 7407TIP3   OH222184   5.527   1.897   1.359 -0.4159  0.2485 -0.0325
 7407TIP3    H122185   5.577   1.826   1.399 -2.4626 -1.7383 -0.7751
 7407TIP3    H222186   5.492   1.860   1.278 -3.0054  1.4912  0.4010
 7408TIP3   OH222187   2.006   0.467   3.973 -0.0471 -0.0234  0.0447
 7408TIP3    H122188   1.995   0.562   3.981 -0.6048 -0.1119  0.3533
 7408TIP3    H222189   1.918   0.431   3.983  0.3493 -0.6769  1.4923
 7409TIP3   OH222190   3.032   4.332   3.414 -0.1886 -0.0161  0.0800
 7409TIP3    H122191   2.990   4.405   3.368  0.1674  1.7727  2.4112
 7409TIP3    H222192   2.981   4.322   3.494  0.7350 -1.2944  0.5349
 7410TIP3   OH222193   4.248   6.708   4.294  0.1710  0.4691  0.1555
 7410TIP3    H122194   4.214   6.748   4.214 -1.1513 -0.2984  0.3160
 7410TIP3    H222195   4.329   6.665   4.267 -0.1820  0.3506 -0.7382
 7411TIP3   OH222196   7.100   0.101   0.822 -0.7013 -0.1907 -0.2357
 7411TIP3    H122197   7.084   0.102   0.917  1.3742  0.4485  0.1563
 7411TIP3    H222198   7.138   0.015   0.806  1.7858  0.7843  0.0925
 7412TIP3   OH222199   5.399   0.482   4.026 -0.1229 -0.1107  0.0212
 7412TIP3    H122200   5.418   0.388   4.020  1.9041  0.3224 -1.3804
 7412TIP3    H222201   5.484   0.523   4.041 -1.1213  1.4683  1.9554
 7413TIP3   OH222202   6.035   5.779   0.521  0.0943  0.5747  0.2844
 7413TIP3    H122203   6.080   5.812   0.598  1.4641 -0.5641  0.0197
 7413TIP3    H222204   5.943   5.772   0.548  0.3829  1.1396  1.4772
 7414TIP3   OH222205   6.294   6.080   1.465  0.5261  0.8334  0.3249
 7414TIP3    H122206   6.231   6.144   1.432 -0.6043 -0.7432 -0.6835
 7414TIP3    H222207   6.327   6.037   1.387 -1.9089 -2.7238  1.0249
 7415TIP3   OH222208   6.691   3.727   1.101  0.2525  0.6408  0.1117
 7415TIP3    H122209   6.688   3.763   1.013  1.5730 -0.3053 -0.3447
 7415TIP3    H222210   6.603   3.691   1.115  0.0029  0.8923 -0.7591
 7416TIP3   OH222211   4.330   6.148   3.174 -0.2345  0.1700 -0.3574
 7416TIP3    H122212   4.297   6.059   3.184  0.1655  0.0539 -0.0581
 7416TIP3    H222213   4.270   6.189   3.111  0.0089 -0.5230 -1.0556
 7417TIP3   OH222214   4.685   1.707   2.813 -0.4371 -0.2800 -0.5050
 7417TIP3    H122215   4.691   1.633   2.753 -0.8972  1.3872 -2.7307
 7417TIP3    H222216   4.671   1.783   2.756 -0.6665  1.4401  1.7178
 7418TIP3   OH222217   0.869   6.232   1.456 -0.5309 -0.6316 -0.5638
 7418TIP3    H122218   0.932   6.304   1.454 -1.6727  0.4033 -0.6423
 7418TIP3    H222219   0.914   6.162   1.504  0.4243  0.3157 -0.0288
 7419TIP3   OH222220   1.189   0.577   0.379 -0.4889 -0.0147  0.0054
 7419TIP3    H122221   1.181   0.673   0.373 -0.5513  0.0120  0.5108
 7419TIP3    H222222   1.173   0.557   0.471  1.0984 -0.3573  0.2288
 7420TIP3   OH222223   2.567   0.823   1.273 -0.8504  0.1604 -0.2820
 7420TIP3    H122224   2.495   0.785   1.325 -0.0956 -0.1185  0.5830
 7420TIP3    H222225   2.579   0.911   1.310 -0.5771  0.1091 -0.2495
 7421TIP3   OH222226   2.411   4.117   2.202 -0.5018  0.2035  0.1042
 7421TIP3    H122227   2.382   4.206   2.222 -2.9021 -0.4709 -0.0296
 7421TIP3    H222228   2.481   4.129   2.138 -0.0852  2.0031  0.8273
 7422TIP3   OH222229   6.358   4.383   4.950 -0.0659  0.7209  0.5221
 7422TIP3    H122230   6.320   4.467   4.926  1.2978  0.9789 -0.8410
 7422TIP3    H222231   6.370   4.337   4.867 -0.3324 -0.6367  1.2033
 7423TIP3   OH222232   2.122   4.244   0.768 -0.0463 -0.3382  0.4926
 7423TIP3    H122233   2.136   4.176   0.702  0.2821 -1.1925  1.4217
 7423TIP3    H222234   2.078   4.199   0.840 -2.3629  1.0278  0.0347
 7424TIP3   OH222235   3.795   5.156   1.550 -0.3549 -0.6015  0.1619
 7424TIP3    H122236   3.799   5.206   1.468 -0.6984 -0.4831  0.2125
 7424TIP3    H222237   3.737   5.082   1.529 -0.1504 -0.7715  0.1951
 7425TIP3   OH222238   3.114   6.040   4.305  0.5934 -0.2260  0.3473
 7425TIP3    H122239   3.064   5.992   4.371 -1.2220 -1.3382 -1.7365
 7425TIP3    H222240   3.049   6.089   4.256  2.0203  1.3888 -0.0510
 7426TIP3   OH222241   0.750   3.321   0.817  0.1689  0.2390  0.1854
 7426TIP3    H122242   0.670   3.291   0.861  0.7284  0.5689  1.4593
 7426TIP3    H222243   0.720   3.348   0.730 -0.9005 -0.7751  0.2067
 7427TIP3   OH222244   2.043   0.191   5.610  0.0567 -0.1960  0.0674
 7427TIP3    H122245   1.964   0.245   5.616  0.4961  0.6757 -1.4668
 7427TIP3    H222246   2.098   0.221   5.683  0.6938  2.2059 -1.2806
 7428TIP3   OH222247   3.856   0.466   1.584  0.0061 -0.5795  0.2198
 7428TIP3    H122248   3.796   0.540   1.576  0.0737 -0.6706 -1.6126
 7428TIP3    H222249   3.811   0.394   1.538  1.2709 -0.7826 -0.7637
 7429TIP3   OH222250   1.780   1.052   1.109 -0.1351  0.3713  0.1575
 7429TIP3    H122251   1.812   1.009   1.189 -3.0049  1.4824  2.0566
 7429TIP3    H222252   1.745   0.981   1.055  1.0537 -0.3016  0.2305
 7430TIP3   OH222253   1.503   1.024   3.779 -0.4125 -0.0455  0.2190
 7430TIP3    H122254   1.541   1.103   3.818  1.1536 -1.0832  0.8849
 7430TIP3    H222255   1.554   0.952   3.816 -0.8141 -1.2816 -1.5196
 7431TIP3   OH222256   6.520   3.162   4.941 -0.3607  0.0207 -0.2758
 7431TIP3    H122257   6.531   3.253   4.970  0.5370 -0.4168  0.8786
 7431TIP3    H222258   6.476   3.119   5.015  2.1156 -1.1667  0.6479
 7432TIP3   OH222259   5.940   2.569   5.506  0.6808 -0.2297  0.6597
 7432TIP3    H122260   5.939   2.550   5.412  0.0915  0.2136  0.5744
 7432TIP3    H222261   6.029   2.545   5.534  1.5111  1.4706 -0.3876
 7433TIP3   OH222262   3.608   0.705   0.954  0.0734 -0.2946 -0.0701
 7433TIP3    H122263   3.694   0.738   0.928  0.1118 -1.2201 -1.1814
 7433TIP3    H222264   3.624   0.615   0.981 -0.5193 -0.4124 -0.0941
 7434TIP3   OH222265   1.589   1.535   4.880 -0.1430 -0.2252 -0.0945
 7434TIP3    H122266   1.636   1.487   4.949 -1.3500 -0.3256  0.7086
 7434TIP3    H222267   1.498   1.533   4.909 -0.6601 -0.1345 -1.6458
 7435TIP3   OH222268   1.847   1.469   5.478 -0.3826 -0.6135  0.4933
 7435TIP3    H122269   1.854   1.537   5.545 -0.8988  2.0215 -1.9377
 7435TIP3    H222270   1.782   1.408   5.513 -0.0057  0.1591  2.7272
 7436TIP3   OH222271   3.061   0.560   1.573  0.0173  0.1587  0.1022
 7436TIP3    H122272   3.012   0.519   1.502  0.6200  1.6794 -1.2369
 7436TIP3    H222273   3.071   0.490   1.638 -1.1666 -1.0662 -0.9643
 7437TIP3   OH222274   6.323   2.565   2.213 -0.2886  0.1934  0.3959
 7437TIP3    H122275   6.302   2.474   2.193 -1.1822  0.6888 -0.9953
 7437TIP3    H222276   6.362   2.561   2.301  0.6847 -1.6486 -0.0569
 7438TIP3   OH222277   4.827   2.736   0.112 -0.2061 -0.3282  0.3002
 7438TIP3    H122278   4.757   2.725   0.048  1.2236 -0.7829 -1.2442
 7438TIP3    H222279   4.873   2.815   0.084 -0.5791  0.4548  1.8011
 7439TIP3   OH222280   6.054   4.340   1.328 -0.6662  0.2578  0.4948
 7439TIP3    H122281   6.053   4.281   1.252  0.0356  1.9019 -0.8491
 7439TIP3    H222282   5.985   4.306   1.385 -0.2714 -1.8759 -0.1882
 7440TIP3   OH222283   2.180   5.680   5.446 -0.3533  0.3710 -0.2161
 7440TIP3    H122284   2.153   5.718   5.530  0.2363 -1.4382  0.8537
 7440TIP3    H222285   2.137   5.594   5.444  0.5170 -0.0624 -1.2625
 7441TIP3   OH222286   4.714   2.654   5.557 -0.4991 -0.1372 -0.1379
 7441TIP3    H122287   4.788   2.603   5.590 -1.3399 -0.5767  1.1571
 7441TIP3    H222288   4.687   2.708   5.631 -1.7557 -0.3302 -0.4266
 7442TIP3   OH222289   2.581   3.203   0.503  0.0964 -0.1386 -0.2763
 7442TIP3    H122290   2.598   3.146   0.578  3.4998 -1.5784 -1.9170
 7442TIP3    H222291   2.525   3.151   0.446 -1.5562  0.5158  0.6913
 7443TIP3   OH222292   3.186   1.210   5.760 -0.4625  0.3256  0.4119
 7443TIP3    H122293   3.157   1.162   5.838 -0.9539  1.6453  1.0675
 7443TIP3    H222294   3.203   1.299   5.791  1.4074  0.3650 -0.5735
 7444TIP3   OH222295   0.421   3.903   0.754 -0.1503 -0.5175 -0.2005
 7444TIP3    H122296   0.366   3.979   0.775  0.7493  0.5135 -1.3916
 7444TIP3    H222297   0.455   3.875   0.838 -1.8415 -0.6924  0.4719
 7445TIP3   OH222298   0.430   3.639   2.588  0.4610  0.4504 -0.0690
 7445TIP3    H122299   0.389   3.681   2.665  0.5890  1.3750 -0.4878
 7445TIP3    H222300   0.519   3.619   2.617  0.5127  0.8023  0.0289
 7446TIP3   OH222301   6.825   0.728   3.069 -0.3117 -0.0537 -0.0120
 7446TIP3    H122302   6.908   0.714   3.023 -0.5102  0.4074 -0.5211
 7446TIP3    H222303   6.758   0.716   3.002 -0.5611  1.9009 -0.1765
 7447TIP3   OH222304   1.922   1.439   5.202 -0.0123  0.5604 -0.1390
 7447TIP3    H122305   1.903   1.456   5.294 -1.5519 -1.4760 -0.0029
 7447TIP3    H222306   1.983   1.365   5.203 -0.3977  0.2200 -0.7451
 7448TIP3   OH222307   1.841   4.947   0.549  0.7566  0.5122 -0.2121
 7448TIP3    H122308   1.864   4.972   0.638  1.1953  3.5107 -1.0260
 7448TIP3    H222309   1.925   4.939   0.503  0.5074  1.1895 -0.8185
 7449TIP3   OH222310   3.055   1.151   0.531  0.0165  0.5841  0.4545
 7449TIP3    H122311   3.091   1.208   0.598  1.0525  0.2469  0.2077
 7449TIP3    H222312   2.966   1.182   0.518  0.9979  3.1646 -0.7899
 7450TIP3   OH222313   0.884   4.012   4.333 -0.8890  0.2871 -0.0594
 7450TIP3    H122314   0.895   4.106   4.349 -0.4487  0.3970 -0.9473
 7450TIP3    H222315   0.948   3.971   4.391 -2.9409  0.3308  2.4236
 7451TIP3   OH222316   6.395   3.119   1.669  0.0155 -0.2875  0.6795
 7451TIP3    H122317   6.354   3.169   1.597 -1.3282  1.0380  2.2794
 7451TIP3    H222318   6.327   3.059   1.698  0.3238 -0.3692  1.2463
 7452TIP3   OH222319   2.442   2.429   4.308  0.8079 -0.0206 -0.2587
 7452TIP3    H122320   2.443   2.361   4.375  1.4355 -1.5075 -1.7167
 7452TIP3    H222321   2.373   2.489   4.336 -0.9515 -2.1575  0.2199
 7453TIP3   OH222322   6.784   2.555   0.139 -0.0038 -0.0209  0.3043
 7453TIP3    H122323   6.825   2.582   0.057  0.7179 -1.1611  0.2641
 7453TIP3    H222324   6.805   2.626   0.200  0.1508  0.4510 -0.2855
 7454TIP3   OH222325   5.181   6.430   3.143  0.3005  0.0113  0.1200
 7454TIP3    H122326   5.204   6.379   3.221  2.8051 -0.2697 -0.7119
 7454TIP3    H222327   5.234   6.392   3.073 -1.9067  0.2208 -1.7851
 7455TIP3   OH222328   4.628   5.249   3.896  0.0112  0.1727  0.4312
 7455TIP3    H122329   4.681   5.280   3.969  0.0418 -1.8731  1.3368
 7455TIP3    H222330   4.553   5.206   3.937 -0.9194  0.5591 -0.7892
 7456TIP3   OH222331   2.094   6.667   3.001  0.7036  0.7526  0.0594
 7456TIP3    H122332   2.030   6.712   3.056  0.3272 -0.0987  0.3288
 7456TIP3    H222333   2.072   6.574   3.008  1.2002  0.5511 -0.8311
 7457TIP3   OH222334   0.490   3.703   3.952 -0.2034  0.7323 -0.0827
 7457TIP3    H122335   0.539   3.635   3.907 -0.3171  0.3100  0.4307
 7457TIP3    H222336   0.435   3.657   4.014  0.8213  1.3621  1.3516
 7458TIP3   OH222337   1.065   4.323   5.762 -0.5358 -0.3215 -0.2881
 7458TIP3    H122338   1.022   4.265   5.825 -0.0047  1.7764  2.2001
 7458TIP3    H222339   0.993   4.364   5.714 -1.0729 -0.7187  0.1558
 7459TIP3   OH222340   3.696   2.561   2.435 -0.1065  0.5752  0.0414
 7459TIP3    H122341   3.768   2.617   2.465  0.1873 -0.6768  1.8595
 7459TIP3    H222342   3.659   2.525   2.515 -1.6956 -0.1325 -0.9623
 7460TIP3   OH222343   3.648   1.078   1.006 -0.5530 -0.2653  0.2756
 7460TIP3    H122344   3.660   1.004   1.065  0.7228 -0.5905 -0.3437
 7460TIP3    H222345   3.670   1.155   1.059 -0.1819 -0.4884  0.4513
 7461TIP3   OH222346   5.543   2.320   0.847 -0.2454  0.4490 -0.1851
 7461TIP3    H122347   5.627   2.362   0.830 -0.5843  0.7616 -1.1575
 7461TIP3    H222348   5.563   2.249   0.908  0.5098  1.2974  0.5645
 7462TIP3   OH222349   0.297   0.740   5.555  0.3915  0.0092 -0.1871
 7462TIP3    H122350   0.363   0.732   5.624  0.0592  0.3495  0.1746
 7462TIP3    H222351   0.274   0.650   5.533 -0.7191 -0.1218  1.3348
 7463TIP3   OH222352   1.544   5.925   0.634 -0.3753 -0.5205 -0.3215
 7463TIP3    H122353   1.592   5.851   0.671  1.1848 -0.5931 -2.3051
 7463TIP3    H222354   1.575   6.001   0.683  0.2461 -0.8355 -0.2175
 7464TIP3   OH222355   4.398   4.730  -0.018 -0.1329 -0.0504 -0.0896
 7464TIP3    H122356   4.402   4.824  -0.001 -0.0795 -0.0234 -0.2494
 7464TIP3    H222357   4.365   4.692   0.064 -0.4428  0.1372 -0.1247
 7465TIP3   OH222358   0.297   4.937   2.802 -0.0964  0.1483 -0.0670
 7465TIP3    H122359   0.283   5.031   2.801  1.4396  0.4011 -0.7230
 7465TIP3    H222360   0.246   4.904   2.728  1.5198  0.8580 -1.5733
 7466TIP3   OH222361   1.297   5.318   0.610  0.3996 -0.0200  0.4821
 7466TIP3    H122362   1.303   5.411   0.586  1.4626 -0.5461 -1.5932
 7466TIP3    H222363   1.369   5.305   0.672 -0.3435  0.7259  1.5181
 7467TIP3   OH222364   6.933   1.034   4.749 -0.3389  0.0185 -0.2022
 7467TIP3    H122365   6.896   1.122   4.739 -0.0043  0.1006 -0.7483
 7467TIP3    H222366   6.952   1.027   4.842  0.3810  0.8364 -0.2688
 7468TIP3   OH222367   2.262   0.561   5.658 -0.7645  0.4113  0.8890
 7468TIP3    H122368   2.351   0.594   5.667 -0.5758  0.0385  0.4467
 7468TIP3    H222369   2.232   0.594   5.573 -0.3073 -1.1202  0.0923
 7469TIP3   OH222370   2.411   5.208   2.592 -0.3771  0.0213  0.6964
 7469TIP3    H122371   2.471   5.134   2.598 -0.0866  0.1696 -0.2343
 7469TIP3    H222372   2.396   5.219   2.498 -0.8461  0.8004  0.8572
 7470TIP3   OH222373   1.672   4.210   5.118 -0.2189 -0.2969 -0.5319
 7470TIP3    H122374   1.654   4.293   5.074  0.6271 -0.0044 -0.3535
 7470TIP3    H222375   1.723   4.235   5.195  0.2033 -0.9984 -0.5784
 7471TIP3   OH222376   3.970   3.292   3.242 -0.4959  0.3488 -0.0924
 7471TIP3    H122377   3.948   3.316   3.332  1.0288 -0.2787  0.4760
 7471TIP3    H222378   3.931   3.205   3.231  1.5435 -0.7500  0.9028
 7472TIP3   OH222379   6.663   0.958   2.118  0.1969  0.8314  0.2284
 7472TIP3    H122380   6.635   0.867   2.118  0.2275  0.8104 -0.6839
 7472TIP3    H222381   6.648   0.988   2.208 -1.6504  0.4894  0.0841
 7473TIP3   OH222382   6.674   1.097   2.693 -0.0571 -0.5717 -0.4690
 7473TIP3    H122383   6.629   1.178   2.717  3.3955  0.8720  1.7750
 7473TIP3    H222384   6.681   1.047   2.774 -0.4168 -2.3048 -1.4368
 7474TIP3   OH222385   4.158   1.011   4.616 -0.8221 -0.2011 -0.1635
 7474TIP3    H122386   4.062   1.010   4.615 -0.8635  0.2301 -2.6492
 7474TIP3    H222387   4.180   1.040   4.705 -2.9495 -1.0209  0.7186
 7475TIP3   OH222388   4.117   1.637   2.957 -0.0801  1.0479 -0.0500
 7475TIP3    H122389   4.108   1.665   2.866  0.7706  1.0066 -0.1478
 7475TIP3    H222390   4.157   1.712   3.002  1.0667  0.4535 -0.0617
 7476TIP3   OH222391   1.152   2.570   0.259  0.3297  0.5878  0.5347
 7476TIP3    H122392   1.229   2.605   0.212 -1.0899  2.3278 -0.6440
 7476TIP3    H222393   1.121   2.644   0.312 -0.4585 -0.1273  1.0883
 7477TIP3   OH222394   5.703   2.611   3.376  0.0451 -0.5757 -0.3155
 7477TIP3    H122395   5.790   2.593   3.343  0.0165 -1.2667 -0.0418
 7477TIP3    H222396   5.644   2.561   3.319 -0.2153  0.2960 -0.8176
 7478TIP3   OH222397   2.320   4.978   0.169  0.3088  0.0430  0.1828
 7478TIP3    H122398   2.402   4.964   0.121  0.4000 -0.5623  0.5057
 7478TIP3    H222399   2.342   5.044   0.235  1.3019 -2.0356  2.0629
 7479TIP3   OH222400   2.049   4.910   2.481 -0.4174 -0.9975 -0.0872
 7479TIP3    H122401   2.136   4.896   2.518 -0.6845  2.2768  2.1859
 7479TIP3    H222402   2.064   4.944   2.394  0.7912  1.5900  1.0402
 7480TIP3   OH222403   4.893   0.402   1.321 -0.6685  0.6322  0.0977
 7480TIP3    H122404   4.987   0.407   1.337 -0.8118  0.8457  0.9435
 7480TIP3    H222405   4.872   0.309   1.336 -0.4992  0.4623 -0.6855
 7481TIP3   OH222406   4.877   0.831   0.914  0.6203 -0.1015  0.2292
 7481TIP3    H122407   4.818   0.845   0.840  1.2997  0.9004 -0.1481
 7481TIP3    H222408   4.825   0.783   0.978 -0.1211 -0.5773 -0.7132
 7482TIP3   OH222409   6.409   0.964   3.450 -0.6845  0.2441 -0.2153
 7482TIP3    H122410   6.476   0.953   3.518  0.2266  1.2682 -0.9211
 7482TIP3    H222411   6.326   0.966   3.499 -0.1450 -0.1957  0.7483
 7483TIP3   OH222412   6.913   2.848   5.541 -0.1095 -0.3345 -0.4287
 7483TIP3    H122413   6.903   2.792   5.464 -0.1593 -1.4172  0.3385
 7483TIP3    H222414   6.887   2.935   5.511  0.1156 -0.6850 -1.6925
 7484TIP3   OH222415   3.379   0.121   0.999 -0.2320  0.2576 -0.2207
 7484TIP3    H122416   3.351   0.030   0.984 -0.1288 -0.0480  1.2801
 7484TIP3    H222417   3.379   0.160   0.912 -1.7133 -0.7689 -0.7339
 7485TIP3   OH222418   3.182   1.900   0.377  0.3827 -0.0187  0.1546
 7485TIP3    H122419   3.155   1.865   0.292  0.8741  2.8484 -1.3014
 7485TIP3    H222420   3.261   1.851   0.400  1.5808  0.6879 -2.2175
 7486TIP3   OH222421   6.530   2.134   2.735 -0.3049 -0.0952 -0.4019
 7486TIP3    H122422   6.470   2.068   2.770 -1.7787  2.1848  1.7481
 7486TIP3    H222423   6.492   2.157   2.650 -3.4053  2.0953  1.3569
 7487TIP3   OH222424   3.316   5.790   5.308  0.4612  0.4028  0.0883
 7487TIP3    H122425   3.397   5.809   5.263  1.0879 -0.9065  0.6012
 7487TIP3    H222426   3.250   5.785   5.239  0.9761  0.6347 -0.4265
 7488TIP3   OH222427   3.947   0.630   2.573 -0.6477 -0.5901  0.6820
 7488TIP3    H122428   4.005   0.588   2.511 -1.1005 -1.1404  0.6237
 7488TIP3    H222429   3.894   0.690   2.520 -1.8633 -1.9245  0.3100
 7489TIP3   OH222430   7.023   4.167   5.049  0.2040 -0.5090  0.0616
 7489TIP3    H122431   7.029   4.216   5.131 -0.2149 -0.0184 -0.1978
 7489TIP3    H222432   6.930   4.145   5.041  0.0874  0.2412 -0.7397
 7490TIP3   OH222433   6.200   4.712   1.881  0.1228 -0.3210  0.3032
 7490TIP3    H122434   6.233   4.754   1.801 -2.1588  2.0790  0.4619
 7490TIP3    H222435   6.111   4.685   1.859 -0.5399  0.3567  1.9655
 7491TIP3   OH222436  -0.009   5.296   2.132 -0.8982 -0.2013  0.3922
 7491TIP3    H122437   0.047   5.232   2.175 -1.8583 -0.3304  1.4987
 7491TIP3    H222438   0.048   5.371   2.114 -0.7240  0.4257  3.1482
 7492TIP3   OH222439   6.144   3.473   1.494  0.4757 -0.0293  0.0959
 7492TIP3    H122440   6.178   3.560   1.475 -0.3680  0.0781 -1.0084
 7492TIP3    H222441   6.049   3.481   1.481  0.4244 -1.1839 -0.3416
 7493TIP3   OH222442   3.691   4.477   1.763 -0.3364  0.2426  0.8684
 7493TIP3    H122443   3.751   4.506   1.831 -0.0500  1.6439  0.0519
 7493TIP3    H222444   3.747   4.449   1.690 -0.6313 -1.5490  1.2892
 7494TIP3   OH222445   5.830   3.486   5.406 -0.0573  0.1232 -0.5338
 7494TIP3    H122446   5.889   3.434   5.351  0.2344  1.4505 -1.5158
 7494TIP3    H222447   5.744   3.475   5.365  0.0362  0.5521 -0.8474
 7495TIP3   OH222448   5.321   6.410   4.333  0.4879 -0.6343  0.4394
 7495TIP3    H122449   5.416   6.414   4.323  0.3095  1.0714 -0.9734
 7495TIP3    H222450   5.286   6.450   4.254 -1.4324 -1.3724  0.8551
 7496TIP3   OH222451   6.985   5.126   0.079 -0.4867  0.1284 -0.0927
 7496TIP3    H122452   7.017   5.211   0.047 -3.3023  1.3435  0.0943
 7496TIP3    H222453   6.950   5.083   0.001  1.0873 -1.0338 -0.2227
 7497TIP3   OH222454   5.699   6.064   4.978  0.3780  0.2184  0.1225
 7497TIP3    H122455   5.775   6.108   5.017  2.3173 -1.0760 -1.9352
 7497TIP3    H222456   5.721   5.971   4.982 -1.6403 -0.2767  0.4728
 7498TIP3   OH222457   1.351   2.768   2.777  0.5229 -0.2105  0.5752
 7498TIP3    H122458   1.297   2.809   2.710 -1.4557  0.1540  2.2759
 7498TIP3    H222459   1.441   2.781   2.748 -0.0461 -4.3827 -4.5833
 7499TIP3   OH222460   0.808   4.453   2.388 -0.2636  0.0014 -0.0968
 7499TIP3    H122461   0.747   4.379   2.395 -2.2415  1.5724  0.1318
 7499TIP3    H222462   0.879   4.431   2.449 -1.7875 -0.8071  1.4846
 7500TIP3   OH222463   0.632   2.558   2.448 -0.0498  0.0734 -0.4153
 7500TIP3    H122464   0.595   2.492   2.507  0.0576  0.9389  0.6589
 7500TIP3    H222465   0.561   2.579   2.388  0.4554 -2.3225 -2.0017
 7501TIP3   OH222466   1.904   3.141   0.224 -0.7355 -0.3049 -0.0820
 7501TIP3    H122467   1.864   3.160   0.309 -0.8457  2.5608 -0.6662
 7501TIP3    H222468   1.935   3.226   0.193 -1.7288 -1.0202 -3.4171
 7502TIP3   OH222469   2.187   0.574   1.530 -0.2928  0.1710  0.1339
 7502TIP3    H122470   2.192   0.666   1.506 -0.8715 -0.1524 -1.3463
 7502TIP3    H222471   2.202   0.527   1.448 -0.2845 -1.0472  0.8111
 7503TIP3   OH222472   5.332   5.858   1.415 -0.2831 -0.4818  0.8054
 7503TIP3    H122473   5.281   5.918   1.469  1.2699  1.2018  0.4826
 7503TIP3    H222474   5.371   5.797   1.478 -1.6992 -1.0830  1.1547
 7504TIP3   OH222475   0.374   6.287   1.708  1.0078  0.2538 -0.8846
 7504TIP3    H122476   0.279   6.298   1.704  0.8312 -0.7651  0.1174
 7504TIP3    H222477   0.407   6.371   1.737  0.5327  0.9885 -2.3637
 7505TIP3   OH222478   0.511   0.131   2.231 -0.1568 -0.0207  0.0449
 7505TIP3    H122479   0.494   0.041   2.257  0.9189  0.0627  1.1482
 7505TIP3    H222480   0.598   0.150   2.267  0.4150  0.8920 -1.6942
 7506TIP3   OH222481   2.554   4.427   3.042 -0.3172 -0.5273 -0.1416
 7506TIP3    H122482   2.600   4.459   2.964  0.5214  0.3913  0.7045
 7506TIP3    H222483   2.487   4.368   3.008 -0.1759  0.1131 -1.5752
 7507TIP3   OH222484   3.976   5.601   1.323 -0.1293 -0.6315  0.3413
 7507TIP3    H122485   3.899   5.646   1.358 -0.0542  0.2361 -0.5649
 7507TIP3    H222486   3.951   5.580   1.233  1.1448  0.8265 -0.3963
 7508TIP3   OH222487   2.838   2.768   2.343 -0.3845  0.3925 -0.4525
 7508TIP3    H122488   2.879   2.780   2.428 -1.6479 -0.1467  0.2606
 7508TIP3    H222489   2.786   2.688   2.352  0.4343 -0.3909 -2.1279
 7509TIP3   OH222490   4.244   3.646   1.754  0.8751  0.2700 -0.4179
 7509TIP3    H122491   4.271   3.600   1.834  2.6056  1.9361  0.0348
 7509TIP3    H222492   4.161   3.605   1.730  0.8565 -1.0456  1.5965
 7510TIP3   OH222493   5.095   0.332   0.222 -0.4107  0.4696 -0.6142
 7510TIP3    H122494   5.158   0.272   0.181  0.0128  0.2034  0.4045
 7510TIP3    H222495   5.074   0.395   0.153  0.6530  0.3106 -1.1046
 7511TIP3   OH222496   5.538   0.387   5.334  0.2333 -0.2979 -0.2902
 7511TIP3    H122497   5.624   0.346   5.338 -0.5131 -2.4847 -3.2563
 7511TIP3    H222498   5.483   0.324   5.287 -2.4382  1.9353 -0.4393
 7512TIP3   OH222499   6.008   0.344   3.735 -0.1196 -0.1828  0.4183
 7512TIP3    H122500   6.003   0.255   3.771  0.9350 -1.4484 -2.2463
 7512TIP3    H222501   6.100   0.369   3.746 -0.2241  0.2209  0.3932
 7513TIP3   OH222502   1.667   4.681   1.632 -0.5066  0.0804  0.1463
 7513TIP3    H122503   1.630   4.746   1.572 -0.7391 -1.5105 -1.5378
 7513TIP3    H222504   1.762   4.686   1.616 -0.2549  1.6407  1.8163
 7514TIP3   OH222505   1.547   6.385   5.629 -0.3504 -0.1643 -0.4375
 7514TIP3    H122506   1.627   6.334   5.641 -0.4913  0.0790  2.2696
 7514TIP3    H222507   1.576   6.464   5.584  0.6034 -0.8146 -1.0107
 7515TIP3   OH222508   4.539   3.939   5.778 -0.1058  0.4785  0.1081
 7515TIP3    H122509   4.514   3.848   5.794  1.1981 -0.2309 -1.6225
 7515TIP3    H222510   4.613   3.954   5.836 -0.1609  0.3495  0.2128
 7516TIP3   OH222511   2.553   1.196   2.503 -0.1127 -0.7347 -0.4197
 7516TIP3    H122512   2.539   1.103   2.489 -2.8449 -0.3785 -0.5142
 7516TIP3    H222513   2.591   1.227   2.421  0.8773 -1.7463 -0.3613
 7517TIP3   OH222514   3.582   0.784   5.693  0.0137  0.6571 -0.0249
 7517TIP3    H122515   3.653   0.830   5.648  1.0982  0.1962  1.1356
 7517TIP3    H222516   3.621   0.757   5.776 -1.5648  0.4656  0.6845
 7518TIP3   OH222517   1.780   0.017   2.569 -0.5958  0.5859 -0.1717
 7518TIP3    H122518   1.770   0.083   2.638  1.0604  0.6501  0.0305
 7518TIP3    H222519   1.874   0.010   2.555 -0.5201 -2.9067  0.9963
 7519TIP3   OH222520   6.921   2.431   1.684  0.0327 -0.7321  0.4372
 7519TIP3    H122521   7.010   2.423   1.650 -0.1287 -1.7922  0.2461
 7519TIP3    H222522   6.868   2.373   1.629 -1.0664  0.9824 -0.4140
 7520TIP3   OH222523   5.419   0.478   0.219 -0.0704  0.0411 -0.4578
 7520TIP3    H122524   5.500   0.430   0.202  1.6625  2.2994  0.7478
 7520TIP3    H222525   5.429   0.559   0.169 -1.7794  0.2250 -0.5612
 7521TIP3   OH222526   6.856   3.318   3.823 -0.4370 -0.0947  0.6797
 7521TIP3    H122527   6.826   3.330   3.733  1.9597  0.3599 -0.1236
 7521TIP3    H222528   6.868   3.407   3.856  0.9963 -0.2514  0.6069
 7522TIP3   OH222529   6.342   1.357   4.637 -0.1290 -0.5593  0.4665
 7522TIP3    H122530   6.328   1.376   4.730 -0.0621  3.3521 -0.1226
 7522TIP3    H222531   6.255   1.343   4.602 -0.3797  0.0692  0.8156
 7523TIP3   OH222532   0.843   5.847   1.321  0.0692 -0.1258 -0.5306
 7523TIP3    H122533   0.884   5.816   1.402 -0.0452 -0.6665 -0.6730
 7523TIP3    H222534   0.775   5.782   1.302 -1.1183  0.9596 -0.0975
 7524TIP3   OH222535   4.710   0.614   0.713  0.3635 -0.2374 -0.0547
 7524TIP3    H122536   4.776   0.617   0.643  1.7535 -1.9755  1.0870
 7524TIP3    H222537   4.667   0.700   0.709  1.6541  0.3869 -1.8354
 7525TIP3   OH222538   7.188   4.711   4.207 -0.0934  0.5595  0.1271
 7525TIP3    H122539   7.212   4.804   4.202  1.0551  0.2652 -0.1111
 7525TIP3    H222540   7.103   4.706   4.164  1.0925  1.0689 -2.4241
 7526TIP3   OH222541   7.032   5.201   0.428  1.3506  0.2171  0.0864
 7526TIP3    H122542   7.092   5.144   0.380  1.2157  0.2238 -0.0958
 7526TIP3    H222543   7.078   5.284   0.435  1.1073  0.4280 -0.6387
 7527TIP3   OH222544   3.285   4.532   5.298  0.0882 -0.1377 -0.0642
 7527TIP3    H122545   3.359   4.535   5.237 -1.1225  0.8733 -1.5618
 7527TIP3    H222546   3.212   4.499   5.246 -1.1215  1.2986  0.6549
 7528TIP3   OH222547   6.566   6.309   5.721 -0.0249  0.1409  0.1055
 7528TIP3    H122548   6.492   6.251   5.704 -0.6184  1.0023 -0.3613
 7528TIP3    H222549   6.610   6.317   5.636 -0.0118  0.4534  0.1405
 7529TIP3   OH222550   4.450   1.763   1.433  0.2733 -0.4934 -0.1535
 7529TIP3    H122551   4.478   1.794   1.519 -1.1261  2.7130 -0.6931
 7529TIP3    H222552   4.376   1.705   1.450  0.7003 -0.7644  0.8137
 7530TIP3   OH222553   6.512   6.703   1.456 -1.0385  0.0642  0.5777
 7530TIP3    H122554   6.454   6.638   1.415  0.4606 -1.0561  0.1579
 7530TIP3    H222555   6.528   6.669   1.544 -1.2966  0.5680  0.8266
 7531TIP3   OH222556   5.139   3.610   4.059 -0.5429  0.0299  0.3958
 7531TIP3    H122557   5.121   3.559   3.980 -1.0731 -1.0012  1.1497
 7531TIP3    H222558   5.196   3.553   4.112  1.2634  1.4193  0.0204
 7532TIP3   OH222559   4.892   4.816   5.473 -0.1581 -0.8101 -0.6454
 7532TIP3    H122560   4.799   4.794   5.482  0.1232 -1.6824  0.3221
 7532TIP3    H222561   4.914   4.859   5.555  0.0165  0.5197 -1.3687
 7533TIP3   OH222562   7.008   6.176   5.826 -0.3413  0.1436 -0.1252
 7533TIP3    H122563   6.982   6.152   5.737 -0.8694  1.5450 -0.3743
 7533TIP3    H222564   6.949   6.126   5.883  0.4966 -1.3354 -0.5144
 7534TIP3   OH222565   3.526   2.291   1.386  0.9529  0.2555  0.0525
 7534TIP3    H122566   3.521   2.349   1.311 -0.2006 -1.7491 -1.5384
 7534TIP3    H222567   3.447   2.310   1.437  0.3687 -0.1625 -0.6811
 7535TIP3   OH222568   0.440   2.338   5.571  0.4798  0.5684 -0.1375
 7535TIP3    H122569   0.417   2.303   5.657  0.9253 -0.1168 -0.2918
 7535TIP3    H222570   0.406   2.428   5.571 -2.9272 -0.5741 -0.6249
 7536TIP3   OH222571   0.154   4.292   1.369  0.0104 -0.0474  0.3528
 7536TIP3    H122572   0.243   4.261   1.354 -0.1089  0.1503 -0.9550
 7536TIP3    H222573   0.099   4.217   1.348 -0.1398 -0.1733  1.1725
 7537TIP3   OH222574   2.362   2.768   1.769  0.7347  0.2441 -0.2341
 7537TIP3    H122575   2.336   2.768   1.677  0.1711 -2.9883 -0.1861
 7537TIP3    H222576   2.407   2.685   1.782 -0.2794  0.0170  2.6731
 7538TIP3   OH222577   2.528   1.467   4.304 -0.0432  0.2013  0.4400
 7538TIP3    H122578   2.553   1.536   4.242 -0.9440 -0.7342 -1.0486
 7538TIP3    H222579   2.538   1.507   4.390  2.0947  1.2898 -0.2365
 7539TIP3   OH222580   2.225   1.602   4.607 -0.2269  0.4117 -0.5473
 7539TIP3    H122581   2.315   1.595   4.576 -0.2019  0.0402 -0.3989
 7539TIP3    H222582   2.178   1.645   4.536  0.2177  1.2902 -0.3284
 7540TIP3   OH222583   0.979   4.661   0.532 -0.5418 -1.0455 -0.1261
 7540TIP3    H122584   0.918   4.594   0.562 -0.2968 -0.5012  1.6493
 7540TIP3    H222585   0.925   4.735   0.505 -0.7375 -1.3853 -0.6957
 7541TIP3   OH222586   1.530   4.716   5.086  0.4178 -0.1495  0.4065
 7541TIP3    H122587   1.439   4.716   5.116 -0.5358  1.3834 -2.1558
 7541TIP3    H222588   1.555   4.809   5.086  1.3860 -0.3946 -0.5516
 7542TIP3   OH222589   5.669   2.864   3.882 -0.1427 -0.1948 -0.1051
 7542TIP3    H122590   5.756   2.892   3.910  0.2031 -0.3793 -0.9391
 7542TIP3    H222591   5.669   2.878   3.787 -1.2213  0.3207 -0.0455
 7543TIP3   OH222592   6.900   4.841   0.725 -0.1052 -0.2884  0.7771
 7543TIP3    H122593   6.822   4.890   0.700  0.6699 -0.2105 -1.8358
 7543TIP3    H222594   6.878   4.800   0.808 -2.2359  1.2059  1.0154
 7544TIP3   OH222595   0.409   5.914   4.493 -0.4480  0.1016  0.1860
 7544TIP3    H122596   0.470   5.910   4.420 -0.0240 -0.4109  0.5614
 7544TIP3    H222597   0.334   5.963   4.459  0.9620  2.4897  0.3056
 7545TIP3   OH222598   4.458   6.241   0.415 -0.1529 -0.0332  0.0529
 7545TIP3    H122599   4.417   6.310   0.364  1.8412  1.1124 -0.0807
 7545TIP3    H222600   4.419   6.249   0.502 -1.7748 -0.4196 -0.5988
 7546TIP3   OH222601   4.316   0.147   2.266 -0.2142  0.7283  0.0215
 7546TIP3    H122602   4.371   0.116   2.194  0.4201  0.9195  0.4187
 7546TIP3    H222603   4.248   0.199   2.222  0.8186  1.7969 -0.3795
 7547TIP3   OH222604   5.910   2.825   1.034  0.1995 -0.0092 -0.4251
 7547TIP3    H122605   5.859   2.791   0.961  2.7246 -0.3381 -2.1985
 7547TIP3    H222606   5.918   2.919   1.016  2.2245 -0.3328 -1.6690
 7548TIP3   OH222607   0.111   1.025   2.244  0.2660 -0.3262  0.0974
 7548TIP3    H122608   0.175   0.971   2.196  2.7466  1.5436  1.0720
 7548TIP3    H222609   0.137   1.115   2.226 -1.4309  0.5012  1.4719
 7549TIP3   OH222610   1.544   4.757   2.148 -0.5625  0.3576  0.3083
 7549TIP3    H122611   1.618   4.773   2.207 -0.8584  0.0024  0.7747
 7549TIP3    H222612   1.476   4.817   2.177 -0.5999  0.4038  0.1288
 7550TIP3   OH222613   2.382   1.139   0.782  0.6230  0.2185  0.0519
 7550TIP3    H122614   2.411   1.048   0.793 -0.4966 -0.3201 -1.2146
 7550TIP3    H222615   2.314   1.134   0.716 -0.6586  1.7539  1.1863
 7551TIP3   OH222616   3.962   6.279   5.029 -0.3644  0.6903  0.1321
 7551TIP3    H122617   3.890   6.222   5.053 -0.5974  1.3619  1.0670
 7551TIP3    H222618   3.957   6.285   4.933  0.0939 -1.3811 -0.0567
 7552TIP3   OH222619   5.048   0.656   1.508 -0.0082  0.1145 -0.0358
 7552TIP3    H122620   5.060   0.570   1.469 -1.7356  0.1459 -0.7064
 7552TIP3    H222621   5.122   0.708   1.476  0.8627 -1.0072  0.1098
 7553TIP3   OH222622   1.306   1.966   4.794  0.3387 -0.4862 -0.1483
 7553TIP3    H122623   1.273   2.056   4.797  1.1032 -0.1912 -0.3959
 7553TIP3    H222624   1.237   1.913   4.834  0.4070  0.3591  1.1159
 7554TIP3   OH222625   5.863   2.552   1.437  0.5972 -0.6384 -0.2896
 7554TIP3    H122626   5.829   2.568   1.349  0.8015  2.1776  0.0463
 7554TIP3    H222627   5.951   2.590   1.436 -0.7269  2.9688  2.0437
 7555TIP3   OH222628   1.691   2.284   3.723  0.5137 -0.0073 -0.0329
 7555TIP3    H122629   1.627   2.250   3.785 -1.2233 -0.3486 -1.9050
 7555TIP3    H222630   1.774   2.283   3.771 -0.7463 -0.0568  2.3168
 7556TIP3   OH222631   0.356   3.775   0.419  0.5761 -0.5337 -0.1656
 7556TIP3    H122632   0.324   3.862   0.395 -3.6311 -1.7273  0.3006
 7556TIP3    H222633   0.399   3.788   0.504  0.4083  1.1337 -0.2992
 7557TIP3   OH222634   2.096   1.607   0.436 -0.1212  0.0522 -0.1074
 7557TIP3    H122635   2.183   1.598   0.397 -0.2259  1.6462 -0.7799
 7557TIP3    H222636   2.113   1.630   0.527  0.1271 -1.3475  0.2286
 7558TIP3   OH222637   2.391   1.708   3.118  0.1628 -0.1586  0.2112
 7558TIP3    H122638   2.342   1.788   3.135  0.6105  0.2786 -0.5007
 7558TIP3    H222639   2.459   1.734   3.057 -1.0100 -1.4966 -1.8066
 7559TIP3   OH222640   0.727   3.698   4.546  0.2215  0.6222 -0.2212
 7559TIP3    H122641   0.675   3.760   4.495 -1.0097 -0.6838 -0.6099
 7559TIP3    H222642   0.663   3.648   4.596  1.1785 -0.3861  0.0362
 7560TIP3   OH222643   2.933   0.387  -0.012 -0.4212 -0.0206  0.2093
 7560TIP3    H122644   2.883   0.388   0.069 -0.9287  0.4552 -0.1056
 7560TIP3    H222645   3.017   0.348   0.012 -1.0938 -1.2489  0.6388
 7561TIP3   OH222646   5.000   0.903   3.111  0.7581 -0.2073 -0.0546
 7561TIP3    H122647   5.061   0.912   3.184 -1.2538  0.9294  1.5810
 7561TIP3    H222648   4.943   0.830   3.135 -0.6656  0.9086  0.1587
 7562TIP3   OH222649   4.217   1.453   5.202  1.0886 -0.1424 -0.4524
 7562TIP3    H122650   4.180   1.530   5.245  1.2816 -0.3672  0.1154
 7562TIP3    H222651   4.149   1.425   5.140  0.8444  0.2254 -0.3516
 7563TIP3   OH222652   5.348   0.183   3.127 -0.3072 -0.6025 -0.1485
 7563TIP3    H122653   5.432   0.205   3.087 -1.4461  0.7607 -1.9220
 7563TIP3    H222654   5.296   0.147   3.055 -1.8220  0.2331  0.4810
 7564TIP3   OH222655   1.631   4.295   1.895  0.4389  0.3074 -0.4340
 7564TIP3    H122656   1.641   4.315   1.802  0.4049 -0.0330 -0.5088
 7564TIP3    H222657   1.682   4.363   1.939  0.0138  0.7901 -0.6778
 7565TIP3   OH222658   5.804   3.214   3.100 -0.3001 -0.2465  0.4874
 7565TIP3    H122659   5.858   3.293   3.094 -0.0028 -0.5033 -0.3342
 7565TIP3    H222660   5.718   3.241   3.068 -0.3465 -0.1263  0.7102
 7566TIP3   OH222661   4.047   2.247   1.875 -0.0944  0.3561 -0.7025
 7566TIP3    H122662   3.974   2.185   1.875 -0.0571  0.2659 -2.2107
 7566TIP3    H222663   4.095   2.229   1.956 -2.5940  1.4946  1.1662
 7567TIP3   OH222664   2.218   2.694   2.671  0.2316 -0.1184  0.3756
 7567TIP3    H122665   2.263   2.615   2.702  0.2769  0.3208  1.4555
 7567TIP3    H222666   2.133   2.692   2.715  0.4819  0.7673  0.9206
 7568TIP3   OH222667   3.010   1.533   3.050 -0.1599 -0.2210 -0.3265
 7568TIP3    H122668   2.982   1.607   3.103  0.1151  0.3232 -0.9278
 7568TIP3    H222669   2.931   1.503   3.006 -0.1688  0.0560 -0.4983
 7569TIP3   OH222670   4.001   3.005   2.925 -0.3633  0.1872 -0.3124
 7569TIP3    H122671   4.000   3.065   2.851  3.9262  1.5259  0.3973
 7569TIP3    H222672   4.065   2.937   2.900  0.4314  0.1243  1.7043
 7570TIP3   OH222673   0.173   6.728   0.659 -0.1195  0.0368 -0.8890
 7570TIP3    H122674   0.242   6.675   0.619 -0.3738 -2.5730  1.7958
 7570TIP3    H222675   0.092   6.679   0.642 -0.6615  0.6263 -0.0787
 7571TIP3   OH222676   2.431   6.064   1.953  0.1397 -0.1818  0.3026
 7571TIP3    H122677   2.382   6.116   2.016  1.6556 -0.1800  1.5480
 7571TIP3    H222678   2.377   5.986   1.939 -0.8708  0.4582  0.5146
 7572TIP3   OH222679   7.023   4.016   1.227 -0.2738  0.4482 -0.4230
 7572TIP3    H122680   7.028   4.048   1.317  1.6878 -0.5037 -0.1340
 7572TIP3    H222681   7.106   4.044   1.188 -1.0247  0.6821 -1.8811
 7573TIP3   OH222682   3.369   0.206   5.526  0.9726  0.1154 -0.0187
 7573TIP3    H122683   3.396   0.221   5.436 -0.0875  2.1528 -0.0566
 7573TIP3    H222684   3.277   0.183   5.521  0.4172  1.9959  0.5885
 7574TIP3   OH222685   2.193   0.125   4.175 -0.0261  0.5725 -0.3777
 7574TIP3    H122686   2.269   0.121   4.118  0.2258  0.1145 -0.0121
 7574TIP3    H222687   2.127   0.070   4.133 -0.6300  2.0098 -1.3792
 7575TIP3   OH222688   1.780   3.495   2.515  0.0992  0.0751  0.0967
 7575TIP3    H122689   1.692   3.463   2.531 -0.1089  1.2448  1.5381
 7575TIP3    H222690   1.779   3.523   2.423 -0.6820 -0.9229 -0.2128
 7576TIP3   OH222691   6.562   6.439   5.458  0.1546  0.4349  0.6899
 7576TIP3    H122692   6.467   6.444   5.446  0.2459 -0.6383 -0.7814
 7576TIP3    H222693   6.587   6.527   5.488 -1.3046  0.7103  1.1425
 7577TIP3   OH222694   3.699   4.508   2.956 -0.4524  0.5333  0.2791
 7577TIP3    H122695   3.787   4.476   2.974 -0.6885 -0.4979 -0.3215
 7577TIP3    H222696   3.642   4.456   3.012 -0.8139  0.1136 -0.4611
 7578TIP3   OH222697   0.232   2.399   1.931  0.0946  0.4029 -0.1028
 7578TIP3    H122698   0.318   2.359   1.918 -0.2424 -0.3771  0.0263
 7578TIP3    H222699   0.213   2.385   2.024 -0.3002  0.3158 -0.1954
 7579TIP3   OH222700   0.605   4.915   4.389 -0.4686 -0.6010 -0.0413
 7579TIP3    H122701   0.542   4.975   4.348 -1.4521  0.3147  2.6275
 7579TIP3    H222702   0.564   4.829   4.380 -0.0252 -0.6542 -2.0581
 7580TIP3   OH222703   2.125   5.114   5.571 -0.0066  0.0980  0.6312
 7580TIP3    H122704   2.207   5.118   5.523 -0.2479 -0.0183  0.2053
 7580TIP3    H222705   2.068   5.058   5.518 -0.2102 -0.1982  1.1546
 7581TIP3   OH222706   6.030   0.248   5.448 -0.1786 -0.5737  0.5812
 7581TIP3    H122707   6.000   0.312   5.512 -0.3953  1.5270 -1.4583
 7581TIP3    H222708   6.110   0.212   5.485 -0.3643  0.4578  2.0799
 7582TIP3   OH222709   6.745   5.417   3.734  0.1310  0.0188 -0.1979
 7582TIP3    H122710   6.750   5.405   3.829 -0.2430 -0.3751 -0.2252
 7582TIP3    H222711   6.758   5.511   3.721  2.6836 -0.2118  0.0568
 7583TIP3   OH222712   4.913   3.494   0.443 -0.1583  0.2506  0.3500
 7583TIP3    H122713   4.943   3.439   0.516 -1.5855 -0.8091  0.1676
 7583TIP3    H222714   4.921   3.438   0.366 -3.4072 -0.4545  0.4060
 7584TIP3   OH222715   4.644   1.149   4.613  0.3302 -0.3942  0.2275
 7584TIP3    H122716   4.631   1.054   4.615 -0.8973 -0.2718 -0.6406
 7584TIP3    H222717   4.563   1.183   4.576  1.5900  0.8475 -1.5273
 7585TIP3   OH222718   5.475   5.137   2.574  0.5146 -0.1849 -0.0298
 7585TIP3    H122719   5.449   5.087   2.652  0.5358  1.4349  1.0747
 7585TIP3    H222720   5.413   5.110   2.507 -0.1341 -0.9168  0.8294
 7586TIP3   OH222721   6.525   6.170   1.022 -0.0305 -0.2313 -0.6775
 7586TIP3    H122722   6.598   6.136   0.970  0.5476  1.0469 -0.7445
 7586TIP3    H222723   6.566   6.224   1.090 -0.7990 -1.4684  0.8291
 7587TIP3   OH222724   2.263   3.689   2.025 -0.8220  0.7295  0.5369
 7587TIP3    H122725   2.286   3.779   2.003  2.2248 -0.2104 -0.8061
 7587TIP3    H222726   2.327   3.664   2.092 -1.4955 -0.4690  0.7571
 7588TIP3   OH222727   0.799   1.092   3.714 -0.3239 -0.0332  0.0479
 7588TIP3    H122728   0.850   1.140   3.779 -0.6483 -0.3277  0.5195
 7588TIP3    H222729   0.708   1.105   3.739 -0.3969 -1.4093  0.5525
 7589TIP3   OH222730   2.735   0.754   1.036  0.0523 -0.1967 -0.3599
 7589TIP3    H122731   2.690   0.800   1.106  0.2576 -0.7146  0.1180
 7589TIP3    H222732   2.828   0.774   1.049  0.1481 -0.7726 -0.1236
 7590TIP3   OH222733   5.491   5.656   0.437 -0.0600 -0.6924  0.2999
 7590TIP3    H122734   5.586   5.667   0.447  0.0347 -0.9842 -0.2621
 7590TIP3    H222735   5.480   5.617   0.351 -0.7169 -0.3707  0.2282
 7591TIP3   OH222736   0.057   3.026   4.351 -0.1586  0.1272 -0.1091
 7591TIP3    H122737   0.090   2.986   4.271 -1.7954  2.4241 -2.0708
 7591TIP3    H222738  -0.018   2.973   4.376  0.3899 -0.6258 -0.0129
 7592TIP3   OH222739   5.983   3.702   3.647 -0.2350 -0.3899  0.7171
 7592TIP3    H122740   5.939   3.706   3.732 -2.8164 -1.2579 -0.4671
 7592TIP3    H222741   5.981   3.792   3.615 -0.5348 -0.2976  0.9867
 7593TIP3   OH222742   2.845   6.288   0.519  0.1854  0.3397 -0.0005
 7593TIP3    H122743   2.822   6.204   0.560  3.6813  0.3690  2.5008
 7593TIP3    H222744   2.769   6.344   0.534 -1.6190 -1.8739 -0.3566
 7594TIP3   OH222745   7.028   3.335   2.109  0.3071  0.0437 -0.1167
 7594TIP3    H122746   7.026   3.381   2.024 -2.1924  0.3971  0.0448
 7594TIP3    H222747   7.033   3.242   2.086  1.4200  0.2125 -0.5844
 7595TIP3   OH222748   5.841   2.778   2.157 -0.5897  0.0393 -0.0496
 7595TIP3    H122749   5.827   2.822   2.073  0.6117 -0.7577 -0.7079
 7595TIP3    H222750   5.896   2.838   2.207  0.5142 -0.3903 -0.6993
 7596TIP3   OH222751   3.523   6.594   1.789  0.4630  0.3819  0.3059
 7596TIP3    H122752   3.569   6.653   1.730  0.7160  0.3144  0.4340
 7596TIP3    H222753   3.510   6.514   1.738  2.8011 -0.5791  1.0608
 7597TIP3   OH222754   5.430   3.783   2.789 -0.5981  0.5656 -0.5976
 7597TIP3    H122755   5.495   3.739   2.843  0.4987  0.8547 -1.6318
 7597TIP3    H222756   5.349   3.735   2.804 -0.2630  0.4630  1.0446
 7598TIP3   OH222757   6.691   2.267   5.193  0.3934 -0.3640  0.2292
 7598TIP3    H122758   6.768   2.293   5.143 -0.7849 -0.4469 -1.7374
 7598TIP3    H222759   6.617   2.309   5.148 -0.6259  1.4118  3.2299
 7599TIP3   OH222760   2.396   2.642   1.180 -0.1232 -0.4352  0.0584
 7599TIP3    H122761   2.401   2.646   1.084  3.7692 -1.0447  0.1005
 7599TIP3    H222762   2.332   2.709   1.203  0.0168  0.8609 -2.8904
 7600TIP3   OH222763   5.063   3.952   5.145  0.5026  0.0385  0.0958
 7600TIP3    H122764   5.011   3.968   5.067  1.1990 -1.0392 -0.6078
 7600TIP3    H222765   5.135   3.897   5.115  0.2934 -1.1543  1.6574
 7601TIP3   OH222766   0.454   5.968   1.614 -0.1490  0.1419 -0.7484
 7601TIP3    H122767   0.527   5.910   1.594 -0.9299 -0.5700 -1.5418
 7601TIP3    H222768   0.377   5.912   1.616 -0.9809  1.1928 -1.9072
 7602TIP3   OH222769   3.098   1.505   3.332  0.2825 -0.0389  0.0074
 7602TIP3    H122770   3.044   1.568   3.379  1.7340  0.5329  1.0126
 7602TIP3    H222771   3.092   1.425   3.385  1.1957  0.3331  0.7032
 7603TIP3   OH222772   4.313   3.913   1.695  0.5875  0.0949  0.2017
 7603TIP3    H122773   4.256   3.840   1.719 -0.9704  1.1696 -0.0408
 7603TIP3    H222774   4.350   3.943   1.778 -0.5416  0.4269  0.5967
 7604TIP3   OH222775   3.330   4.569   1.037 -0.7595 -0.4441  0.3080
 7604TIP3    H122776   3.374   4.636   1.089  1.3064 -1.4752  0.0124
 7604TIP3    H222777   3.364   4.582   0.948 -0.5044 -1.7046  0.2017
 7605TIP3   OH222778   7.015   2.233   2.761 -0.1560  1.1593 -0.0463
 7605TIP3    H122779   7.094   2.262   2.808  0.6586  0.2456 -0.7879
 7605TIP3    H222780   6.946   2.234   2.827  0.6604  1.2228  0.8319
 7606TIP3   OH222781   3.152   4.949   0.115 -0.3080 -0.7071 -0.1447
 7606TIP3    H122782   3.219   5.014   0.136 -0.2653 -0.4646 -1.0014
 7606TIP3    H222783   3.178   4.871   0.165 -0.4223 -0.0479  0.9792
 7607TIP3   OH222784   1.907   6.539   1.532 -0.5682  0.2557  0.0575
 7607TIP3    H122785   1.828   6.502   1.571 -0.6101  1.5643  1.2943
 7607TIP3    H222786   1.950   6.586   1.604  0.1385  1.5015 -1.1233
 7608TIP3   OH222787   5.688   0.518   0.620 -0.0444 -0.2292  0.5969
 7608TIP3    H122788   5.716   0.457   0.552  0.0387 -0.7990  1.1341
 7608TIP3    H222789   5.605   0.553   0.589  0.1347 -0.2701  0.0708
 7609TIP3   OH222790   4.798   4.009   4.264 -0.2772  0.0952  0.3640
 7609TIP3    H122791   4.807   3.962   4.346  0.7333 -0.8750 -0.2812
 7609TIP3    H222792   4.717   4.059   4.274  0.6661  1.3254  2.5882
 7610TIP3   OH222793   4.340   3.431   2.755 -0.2527 -0.2099  0.1276
 7610TIP3    H122794   4.250   3.433   2.723  0.1733 -1.1512 -1.2055
 7610TIP3    H222795   4.349   3.344   2.796  0.8703 -1.3879 -2.4158
 7611TIP3   OH222796   3.522   4.925   0.674 -0.1067 -0.1168  0.2457
 7611TIP3    H122797   3.539   5.019   0.666 -2.6974  0.4359  0.5820
 7611TIP3    H222798   3.532   4.907   0.768 -0.1615 -0.0576  0.2632
 7612TIP3   OH222799   3.293   5.247   1.966 -0.3177  0.1166  0.1553
 7612TIP3    H122800   3.243   5.217   1.890 -0.0343  0.0329 -0.0003
 7612TIP3    H222801   3.377   5.202   1.958  0.2779  1.2684 -0.3016
 7613TIP3   OH222802   3.381   3.852   2.207  0.1537 -0.5935  0.2059
 7613TIP3    H122803   3.386   3.870   2.113 -1.0072 -0.7848  0.0900
 7613TIP3    H222804   3.467   3.874   2.241  0.5146 -0.3131 -0.8737
 7614TIP3   OH222805   0.207   5.618   1.571  0.0202 -0.6693 -0.6529
 7614TIP3    H122806   0.262   5.549   1.608  1.3756  0.5360 -0.3146
 7614TIP3    H222807   0.144   5.572   1.515  0.3984 -2.2127  0.1477
 7615TIP3   OH222808   6.684   5.027   2.638  0.6279  0.2729  0.5124
 7615TIP3    H122809   6.746   5.095   2.667 -0.4101  1.0709  0.9234
 7615TIP3    H222810   6.607   5.041   2.692 -0.1005 -0.4088 -0.3288
 7616TIP3   OH222811   2.479   1.637   1.390  0.3403  0.2516  0.5935
 7616TIP3    H122812   2.530   1.695   1.332  2.1896 -0.6636  1.2126
 7616TIP3    H222813   2.526   1.554   1.387 -1.1534 -0.6563  1.2430
 7617TIP3   OH222814   4.463   2.706   4.102 -0.0278 -0.0447 -0.4583
 7617TIP3    H122815   4.438   2.772   4.038  1.5936 -0.6662 -1.8221
 7617TIP3    H222816   4.536   2.659   4.060  1.4782 -0.1358  2.0538
 7618TIP3   OH222817   4.555   0.869   1.202  0.1160 -0.2285 -0.0449
 7618TIP3    H122818   4.577   0.902   1.289  0.7938  1.2565 -0.7295
 7618TIP3    H222819   4.620   0.801   1.184  0.4863  0.0351  0.2855
 7619TIP3   OH222820   6.766   3.012   0.308 -0.1622 -0.3037 -0.6880
 7619TIP3    H122821   6.779   3.066   0.230 -0.0906  0.2521 -0.3005
 7619TIP3    H222822   6.716   3.068   0.367  0.6509 -0.3334  0.0566
 7620TIP3   OH222823   5.756   0.723   0.334  0.0962 -0.2471  0.5156
 7620TIP3    H122824   5.747   0.805   0.383 -0.7683  0.9438 -1.4904
 7620TIP3    H222825   5.690   0.665   0.371 -2.0653  1.3663 -0.5240
 7621TIP3   OH222826   5.683   4.711   2.164  0.0782  0.2299 -1.1031
 7621TIP3    H122827   5.674   4.806   2.163  1.8197  0.4196 -2.0834
 7621TIP3    H222828   5.597   4.679   2.136 -0.2448  1.5363 -1.7071
 7622TIP3   OH222829   5.541   5.687   4.001 -0.0884 -0.0267 -0.4297
 7622TIP3    H122830   5.626   5.660   4.036 -0.2717  1.4110  1.2490
 7622TIP3    H222831   5.478   5.663   4.068 -0.5065  2.3776  0.1280
 7623TIP3   OH222832   3.633   1.428   4.448  0.6150  0.0806  0.6588
 7623TIP3    H122833   3.551   1.406   4.493 -0.2594  1.9567  0.0618
 7623TIP3    H222834   3.620   1.517   4.416  2.3347 -0.1318 -0.7690
 7624TIP3   OH222835   0.168   5.856   5.317  0.1645  0.0374 -0.5189
 7624TIP3    H122836   0.223   5.853   5.239 -0.9172 -2.5822 -1.2972
 7624TIP3    H222837   0.079   5.845   5.284 -0.4529  0.3193  0.9834
 7625TIP3   OH222838   2.375   4.893   3.397 -0.2569  0.0881  0.2249
 7625TIP3    H122839   2.399   4.800   3.395  0.7404  0.3491 -0.1768
 7625TIP3    H222840   2.389   4.923   3.307  1.6056  1.1672  0.8399
 7626TIP3   OH222841   1.900   2.079   2.255  0.5184  0.0327 -0.0498
 7626TIP3    H122842   1.971   2.028   2.295 -0.2326 -0.5680  0.5651
 7626TIP3    H222843   1.875   2.141   2.323  1.0715  0.8910 -0.6080
 7627TIP3   OH222844   4.741   2.486   1.532  0.4026 -0.4666 -0.8173
 7627TIP3    H122845   4.685   2.561   1.509  2.3441  1.1740 -0.4658
 7627TIP3    H222846   4.680   2.413   1.544 -1.8125  1.5155  0.8742
 7628TIP3   OH222847   0.520   3.515   4.617  0.1895 -0.1845  0.7487
 7628TIP3    H122848   0.479   3.546   4.697 -0.1327 -0.6805  0.7789
 7628TIP3    H222849   0.483   3.571   4.548 -2.1838 -1.9637  0.4776
 7629TIP3   OH222850   6.464   2.049   0.935 -0.4362  0.2425 -0.4249
 7629TIP3    H122851   6.545   2.061   0.985 -0.0416  0.3944 -1.0969
 7629TIP3    H222852   6.440   1.958   0.951  1.2229 -0.5680 -2.2034
 7630TIP3   OH222853   3.425   3.258   2.287 -0.5153 -0.0418  0.7038
 7630TIP3    H122854   3.474   3.179   2.264  0.1236  0.0749  1.6112
 7630TIP3    H222855   3.441   3.319   2.215  1.0679  0.1553  1.1821
 7631TIP3   OH222856   4.904   4.266   4.477 -0.8079  1.2090  0.2190
 7631TIP3    H122857   4.968   4.230   4.417 -1.5096  0.0090  0.1697
 7631TIP3    H222858   4.853   4.328   4.424 -0.0661  1.7416  0.1233
 7632TIP3   OH222859   5.741   6.113   3.739 -0.2707 -0.1887  0.3270
 7632TIP3    H122860   5.730   6.029   3.783 -0.9936 -0.3094 -0.0706
 7632TIP3    H222861   5.691   6.104   3.658 -1.9064  1.2511  1.1127
 7633TIP3   OH222862   0.143   4.672   1.025  0.1825  0.1871 -0.5467
 7633TIP3    H122863   0.049   4.671   1.010 -0.0265  1.0340  0.5895
 7633TIP3    H222864   0.181   4.700   0.941 -0.8606  3.7796  0.0308
 7634TIP3   OH222865   0.476   5.208   3.110 -0.1033  0.5219  0.2564
 7634TIP3    H122866   0.382   5.199   3.094 -0.6074  1.7545  2.2279
 7634TIP3    H222867   0.483   5.236   3.201  2.1842  0.6263  0.1179
 7635TIP3   OH222868   3.867   1.490   3.776 -0.7517  0.4528 -0.0987
 7635TIP3    H122869   3.783   1.453   3.805 -1.0114  0.3753 -0.9156
 7635TIP3    H222870   3.933   1.437   3.821 -1.1203 -1.0307 -1.2218
 7636TIP3   OH222871   3.235   5.487   5.073  0.1049 -0.2520 -0.0082
 7636TIP3    H122872   3.236   5.448   4.985  0.1941  0.4039 -0.3031
 7636TIP3    H222873   3.319   5.532   5.080  0.1958 -0.4959  0.5058
 7637TIP3   OH222874   6.852   5.028   2.154  0.2348 -0.1368 -0.1804
 7637TIP3    H122875   6.863   5.110   2.105  0.2133  0.8739  1.4565
 7637TIP3    H222876   6.763   5.032   2.187  0.5691 -0.3342  0.7675
 7638TIP3   OH222877   2.099   5.585   2.252  0.4522  0.4797 -0.9487
 7638TIP3    H122878   2.167   5.630   2.302  0.2297  0.7321 -0.8686
 7638TIP3    H222879   2.024   5.644   2.256 -0.7659 -1.0650  1.4496
 7639TIP3   OH222880   0.962   1.624   2.776  0.3550  0.2243 -0.3739
 7639TIP3    H122881   0.994   1.714   2.778 -0.1713  0.4719  2.7617
 7639TIP3    H222882   1.026   1.575   2.829 -0.1983 -0.9139 -0.7236
 7640TIP3   OH222883   4.186   2.264   4.190 -0.3826  0.3150 -0.3360
 7640TIP3    H122884   4.149   2.284   4.104 -2.1098  1.4398  0.6061
 7640TIP3    H222885   4.274   2.301   4.187 -0.6596  0.9363 -1.4135
 7641TIP3   OH222886   2.822   4.728   0.207 -0.3439 -0.2207  0.0087
 7641TIP3    H122887   2.851   4.758   0.293  2.7636 -1.5086 -0.4778
 7641TIP3    H222888   2.732   4.697   0.222 -0.1244  0.1682  2.6403
 7642TIP3   OH222889   3.618   6.681   4.740  0.1022  0.3345  0.6410
 7642TIP3    H122890   3.558   6.729   4.798  0.2179 -2.4543  3.2737
 7642TIP3    H222891   3.695   6.738   4.734 -0.9616  1.8889  1.0221
 7643TIP3   OH222892   0.591   0.366   3.078 -0.2907 -0.2277  0.2254
 7643TIP3    H122893   0.653   0.420   3.028  0.3689 -1.3494 -0.2024
 7643TIP3    H222894   0.636   0.282   3.089 -0.9671 -0.4442  1.5712
 7644TIP3   OH222895   2.341   4.775   0.489  0.2026 -0.3002 -0.5561
 7644TIP3    H122896   2.274   4.742   0.429 -1.2506  2.2802 -0.4878
 7644TIP3    H222897   2.410   4.709   0.486 -1.2391 -1.8464 -2.5663
 7645TIP3   OH222898   6.192   1.643   5.475 -0.1312  0.1333 -0.2120
 7645TIP3    H122899   6.171   1.661   5.567 -0.7412 -0.0656 -0.3094
 7645TIP3    H222900   6.156   1.718   5.428  0.2947  0.2976 -0.2791
 7646TIP3   OH222901   5.668   5.911   5.627  0.4891 -0.1574  0.0577
 7646TIP3    H122902   5.754   5.951   5.637  0.6988 -0.8318  1.0698
 7646TIP3    H222903   5.671   5.866   5.543  0.6952  0.8439 -0.4804
 7647TIP3   OH222904   5.259   3.825   4.749 -0.3971 -0.5637 -0.3479
 7647TIP3    H122905   5.183   3.779   4.785 -0.9596  0.3434 -0.3665
 7647TIP3    H222906   5.294   3.764   4.684 -1.5691 -0.6799 -0.8953
 7648TIP3   OH222907   0.373   2.138   2.162 -0.6306  0.0913 -0.0891
 7648TIP3    H122908   0.309   2.111   2.228  0.6965 -0.1125  1.1750
 7648TIP3    H222909   0.405   2.056   2.125 -0.4977  0.1510 -0.1055
 7649TIP3   OH222910   5.007   2.189   1.882  0.0122  0.0315  0.5570
 7649TIP3    H122911   5.029   2.106   1.924 -3.2438 -1.0095  0.4904
 7649TIP3    H222912   4.969   2.241   1.952  0.1659  0.6915  0.1554
 7650TIP3   OH222913   7.064   6.371   0.754 -0.1262 -0.3591 -0.0697
 7650TIP3    H122914   7.121   6.320   0.812 -0.0042 -0.0128  0.1130
 7650TIP3    H222915   6.977   6.361   0.792 -0.1545 -0.7095 -0.2251
 7651TIP3   OH222916   6.424   5.020   2.078 -0.1911  0.1085 -0.4483
 7651TIP3    H122917   6.435   5.016   2.173  0.2000  1.4016 -0.4263
 7651TIP3    H222918   6.425   4.928   2.050 -1.8839 -0.3829  0.9488
 7652TIP3   OH222919   1.656   3.990   1.035  0.2172  0.7516  0.1964
 7652TIP3    H122920   1.684   3.917   0.980 -0.1248  0.5447  0.2905
 7652TIP3    H222921   1.622   3.949   1.115  0.0191  1.0127  0.2492
 7653TIP3   OH222922   6.916   2.305   5.519  0.2199 -0.1093  0.3406
 7653TIP3    H122923   6.953   2.356   5.591 -0.0443 -1.5208  1.5176
 7653TIP3    H222924   6.991   2.274   5.470  0.4778 -0.3322  0.8663
 7654TIP3   OH222925   5.391   5.488   2.142  0.4016  1.0316 -0.1168
 7654TIP3    H122926   5.334   5.429   2.192  0.3098  0.8357 -0.4452
 7654TIP3    H222927   5.454   5.521   2.206  1.0239 -0.1287 -0.0864
 7655TIP3   OH222928   7.199   0.609   3.602 -0.5249  0.0266 -0.0372
 7655TIP3    H122929   7.184   0.519   3.573  1.2369 -0.6290  0.9437
 7655TIP3    H222930   7.128   0.626   3.664 -1.1236 -0.5046 -0.5566
 7656TIP3   OH222931   7.166   0.693   4.617  0.0038 -0.1574  0.0382
 7656TIP3    H122932   7.170   0.673   4.710 -1.5901  0.9364  0.3758
 7656TIP3    H222933   7.072   0.698   4.597  0.2973 -0.7484 -1.7154
 7657TIP3   OH222934   3.972   5.601   4.540 -0.4101 -0.6174 -0.2416
 7657TIP3    H122935   4.045   5.636   4.593 -1.9826  0.9151  1.0643
 7657TIP3    H222936   3.974   5.507   4.556  0.9132 -0.5355  0.2546
 7658TIP3   OH222937   2.077   3.104   4.038  0.6316  0.2206  0.0549
 7658TIP3    H122938   1.999   3.156   4.019  0.6286  0.2034  0.0187
 7658TIP3    H222939   2.142   3.132   3.974  1.1985  1.3935  1.1107
 7659TIP3   OH222940   6.584   0.070   3.557  0.0747  0.1864 -0.1285
 7659TIP3    H122941   6.535   0.003   3.510 -1.5506  0.5965  0.8837
 7659TIP3    H222942   6.517   0.117   3.607  1.4773  1.0528  0.9961
 7660TIP3   OH222943   4.781   1.940   5.188  0.0058  0.2718  0.2684
 7660TIP3    H122944   4.775   2.020   5.135  0.3212 -0.3346 -0.7158
 7660TIP3    H222945   4.864   1.901   5.163 -0.5121 -0.7685  0.1413
 7661TIP3   OH222946   6.108   3.441   5.757  0.1425 -0.3115 -0.2173
 7661TIP3    H122947   6.179   3.498   5.729 -1.0033  1.1759 -0.1779
 7661TIP3    H222948   6.085   3.473   5.844  0.2092 -1.5717  0.2885
 7662TIP3   OH222949   1.033   5.629   2.784 -0.0031  0.1456  0.1576
 7662TIP3    H122950   0.975   5.674   2.723  0.4829 -0.1522 -0.5287
 7662TIP3    H222951   1.040   5.690   2.858  1.6368  1.8444 -1.2769
 7663TIP3   OH222952   3.511   5.768   2.328  0.3600 -0.2374 -0.1403
 7663TIP3    H122953   3.475   5.857   2.325  1.7189  0.3090 -1.5254
 7663TIP3    H222954   3.438   5.714   2.358  0.0001  1.5644  2.6310
 7664TIP3   OH222955   2.878   5.150   2.292 -0.1633  0.5760  0.6925
 7664TIP3    H122956   2.928   5.222   2.253  1.6670 -0.3887  1.1552
 7664TIP3    H222957   2.943   5.096   2.335 -1.3151 -1.9639 -0.5127
 7665TIP3   OH222958   1.354   0.968   1.116  0.5417 -0.0190  0.3216
 7665TIP3    H122959   1.314   0.947   1.201  0.1137  0.3794  0.2177
 7665TIP3    H222960   1.358   0.883   1.071 -1.7112  0.1578 -0.3170
 7666TIP3   OH222961   6.687   5.354   5.861  0.3280 -0.3287 -0.1291
 7666TIP3    H122962   6.627   5.419   5.824  2.2448  1.8082  0.2293
 7666TIP3    H222963   6.765   5.405   5.884  0.4596 -2.0001  3.9822
 7667TIP3   OH222964   5.621   1.064   5.406 -0.1376  0.2379 -0.1114
 7667TIP3    H122965   5.650   1.099   5.322  0.8401 -1.6145 -0.6006
 7667TIP3    H222966   5.619   0.969   5.393  0.6442 -0.1442  2.1197
 7668TIP3   OH222967   6.267   2.503   4.543 -0.3330 -0.1473  0.1244
 7668TIP3    H122968   6.340   2.539   4.593 -1.0309  0.9061  0.4128
 7668TIP3    H222969   6.300   2.496   4.453  0.1827  0.1196  0.2896
 7669TIP3   OH222970   2.298   4.322   3.518  0.0674  0.1321  0.4802
 7669TIP3    H122971   2.296   4.319   3.613  2.0641 -2.2518  0.5447
 7669TIP3    H222972   2.359   4.393   3.497 -1.5372  1.6884  0.8716
 7670TIP3   OH222973   0.961   1.501   3.410  0.7919  0.2099  0.1064
 7670TIP3    H122974   0.894   1.555   3.453  0.1038  1.8103 -2.7604
 7670TIP3    H222975   1.020   1.563   3.369  0.7962 -1.1642 -2.1447
 7671TIP3   OH222976   3.663   4.332   5.839 -0.2823  0.0347 -0.1707
 7671TIP3    H122977   3.759   4.339   5.844 -0.3368  0.3368  0.5817
 7671TIP3    H222978   3.635   4.321   5.930 -0.8267 -1.9157 -0.5272
 7672TIP3   OH222979   4.739   4.949   3.405 -0.0034  0.3641 -0.1909
 7672TIP3    H122980   4.736   4.854   3.395  1.4409  0.4564 -2.2211
 7672TIP3    H222981   4.684   4.982   3.334 -0.9719  1.0763  0.8573
 7673TIP3   OH222982   1.061   4.294   3.556 -0.1719  0.2893  0.4352
 7673TIP3    H122983   1.059   4.200   3.572  2.5773  0.1632  0.4645
 7673TIP3    H222984   1.111   4.304   3.475 -1.3585  1.7015 -0.1712
 7674TIP3   OH222985   6.527   1.807   2.142 -0.0781  0.1222  0.2653
 7674TIP3    H122986   6.589   1.880   2.152 -0.7071  0.7954 -0.5994
 7674TIP3    H222987   6.570   1.734   2.186  0.8150  0.8709  0.6908
 7675TIP3   OH222988   5.369   3.186   5.010  0.1147 -0.5467 -0.2784
 7675TIP3    H122989   5.327   3.116   5.060  0.0485 -0.8216 -0.7112
 7675TIP3    H222990   5.356   3.161   4.918 -0.9967  0.6560 -0.4860
 7676TIP3   OH222991   5.650   0.493   4.480 -0.0081  0.0908 -0.5336
 7676TIP3    H122992   5.605   0.577   4.490 -2.1729 -0.9749 -0.6512
 7676TIP3    H222993   5.734   0.515   4.439 -1.0397  2.0874 -1.7525
 7677TIP3   OH222994   3.503   4.634   3.167  0.1225 -0.4565 -0.2105
 7677TIP3    H122995   3.524   4.704   3.105  0.6175  0.4360  0.9248
 7677TIP3    H222996   3.576   4.572   3.159  0.4198 -0.1117 -0.1939
 7678TIP3   OH222997   6.506   2.880   0.125 -0.0329  0.7813  0.3948
 7678TIP3    H122998   6.459   2.797   0.131  1.1293  0.1713  1.6978
 7678TIP3    H222999   6.521   2.905   0.216  1.5183  1.3145  0.0144
 7679TIP3   OH223000   0.905   3.390   1.040  0.2460  0.4442 -0.7091
 7679TIP3    H123001   0.883   3.373   0.948  0.8662 -0.6676 -0.6684
 7679TIP3    H223002   0.825   3.426   1.078  0.0833  1.2333 -1.7610
 7680TIP3   OH223003   0.458   4.305   2.603  0.0214  0.4009 -0.1224
 7680TIP3    H123004   0.375   4.337   2.568 -1.0035 -1.1173  0.7618
 7680TIP3    H223005   0.516   4.301   2.527 -0.4528  2.2224 -0.6203
 7681TIP3   OH223006   4.890   5.990   4.121 -0.1736 -1.0685 -0.5712
 7681TIP3    H123007   4.852   6.069   4.158 -0.3302 -1.9210  1.2068
 7681TIP3    H223008   4.955   6.021   4.058  0.1213  0.4849  0.4588
 7682TIP3   OH223009   7.196   5.042   0.264  0.3606 -0.1348  0.2564
 7682TIP3    H123010   7.267   4.989   0.228 -1.1061 -1.2474 -1.1397
 7682TIP3    H223011   7.145   5.069   0.188 -1.0107  0.1744  1.2403
 7683TIP3   OH223012   5.513   4.152   3.961 -0.0682 -0.1938  0.4323
 7683TIP3    H123013   5.523   4.190   3.874 -2.3149 -0.3675  0.0356
 7683TIP3    H223014   5.579   4.196   4.014 -0.7768  2.3026 -0.6158
 7684TIP3   OH223015   4.377   0.711   5.558  0.1227 -0.5213  0.0207
 7684TIP3    H123016   4.335   0.678   5.638  1.4728  1.1316  1.4813
 7684TIP3    H223017   4.378   0.806   5.569  1.4544 -0.3464 -1.3825
 7685TIP3   OH223018   4.064   3.274   0.734 -0.3185 -0.5690  0.2212
 7685TIP3    H123019   4.087   3.185   0.706 -0.7200 -0.1525 -1.5733
 7685TIP3    H223020   4.054   3.268   0.829  1.0134 -2.1282  0.3135
 7686TIP3   OH223021   4.147   5.228   1.637 -0.3017 -0.3619  0.3411
 7686TIP3    H123022   4.137   5.133   1.649  2.1581 -0.6652  0.7064
 7686TIP3    H223023   4.109   5.245   1.551 -0.2488 -1.8107 -0.0079
 7687TIP3   OH223024   4.928   2.242   4.881 -0.2797  0.0064  0.0377
 7687TIP3    H123025   4.982   2.240   4.960 -1.4855  0.5738  0.9156
 7687TIP3    H223026   4.922   2.150   4.853  0.4829 -0.1484  0.3712
 7688TIP3   OH223027   1.317   3.171   0.977  0.5541 -0.1425 -0.4471
 7688TIP3    H123028   1.286   3.122   1.053  0.6909 -0.5617 -0.6584
 7688TIP3    H223029   1.264   3.138   0.905  1.9660 -1.4136 -0.9602
 7689TIP3   OH223030   6.197   4.401   0.965 -0.8853  0.2769 -1.0241
 7689TIP3    H123031   6.190   4.496   0.956 -0.3561  0.2646 -1.5953
 7689TIP3    H223032   6.249   4.373   0.890 -0.9821 -0.4601 -0.8261
 7690TIP3   OH223033   1.816   6.644   3.373  0.2568 -0.0322  0.8807
 7690TIP3    H123034   1.730   6.616   3.404 -0.5408 -0.4677 -1.5090
 7690TIP3    H223035   1.876   6.614   3.441 -1.5160  1.1198  3.0735
 7691TIP3   OH223036   6.824   4.821   5.193  0.0538 -0.2142 -0.2641
 7691TIP3    H123037   6.834   4.893   5.256 -0.3390 -0.4539  0.0795
 7691TIP3    H223038   6.810   4.865   5.109  0.3688  0.1104 -0.1483
 7692TIP3   OH223039   2.039   3.963   5.799  0.3350  0.6312 -0.4528
 7692TIP3    H123040   2.034   3.882   5.850  0.4646  1.6342  1.2207
 7692TIP3    H223041   1.998   3.941   5.715 -0.5726 -0.8736  0.3447
 7693TIP3   OH223042   6.009   4.069   2.995 -0.1746  0.1491 -0.4844
 7693TIP3    H123043   6.048   4.127   2.929  0.3469  0.1214 -0.2056
 7693TIP3    H223044   5.924   4.046   2.958 -0.5006  1.2819 -0.4991
 7694TIP3   OH223045   2.074   1.898   4.162 -0.1149  0.2673 -0.4295
 7694TIP3    H123046   2.042   1.983   4.192 -0.0095  0.1696 -0.0396
 7694TIP3    H223047   2.110   1.916   4.075  0.4696  0.7435 -0.0966
 7695TIP3   OH223048   5.618   2.097   0.586  0.3230 -0.2281 -0.2466
 7695TIP3    H123049   5.640   2.146   0.665 -0.0941 -0.7758  0.2185
 7695TIP3    H223050   5.685   2.029   0.580 -0.9697 -1.6925  0.9904
 7696TIP3   OH223051   5.160   6.005   3.366  0.3096  0.5255  0.0216
 7696TIP3    H123052   5.205   5.994   3.450  0.2634  0.3641  0.0272
 7696TIP3    H223053   5.229   5.995   3.300  0.0717 -1.1806 -0.0274
 7697TIP3   OH223054   0.365   0.521   2.083  0.3361 -0.2241 -0.8706
 7697TIP3    H123055   0.278   0.483   2.072 -0.0214  0.1290  0.5036
 7697TIP3    H223056   0.361   0.565   2.168  1.9172 -0.3856 -0.6811
 7698TIP3   OH223057   2.841   3.529   4.542  0.3681  0.5553 -0.5934
 7698TIP3    H123058   2.871   3.608   4.586 -0.5564  1.0516 -0.8325
 7698TIP3    H223059   2.800   3.477   4.610  0.0013  0.7792 -0.6444
 7699TIP3   OH223060   2.518   4.116   5.409 -0.0667 -0.1532  0.1663
 7699TIP3    H123061   2.487   4.142   5.323 -0.8003  0.3815  0.5892
 7699TIP3    H223062   2.597   4.169   5.423 -0.3345  0.2564  0.1156
 7700TIP3   OH223063   2.723   3.675   5.211  0.0029 -0.2795  0.0098
 7700TIP3    H123064   2.797   3.663   5.270  1.8565  1.4687 -1.7807
 7700TIP3    H223065   2.735   3.763   5.176 -0.6503 -1.3869 -3.3478
 7701TIP3   OH223066   6.428   5.673   4.243 -0.2875  0.0613 -0.2185
 7701TIP3    H123067   6.405   5.653   4.333 -1.0489  0.6387 -0.2755
 7701TIP3    H223068   6.512   5.717   4.249  0.4997 -1.4159  0.0558
 7702TIP3   OH223069   3.674   6.501   2.552 -0.1068  0.0332  0.4979
 7702TIP3    H123070   3.708   6.473   2.638 -0.3419 -1.3906  0.1431
 7702TIP3    H223071   3.582   6.520   2.568  0.0363  0.5546  0.7258
 7703TIP3   OH223072   1.691   5.608   1.882 -0.2946  0.4760 -0.0548
 7703TIP3    H123073   1.650   5.552   1.948 -0.1899  0.6020  0.1154
 7703TIP3    H223074   1.736   5.676   1.932  0.0322  0.4020 -0.2449
 7704TIP3   OH223075   4.842   1.990   1.739 -0.3778 -0.5499  0.1551
 7704TIP3    H123076   4.901   1.924   1.703 -0.0868  0.5217 -1.4157
 7704TIP3    H223077   4.899   2.051   1.786 -0.5020 -0.7011  0.5082
 7705TIP3   OH223078   2.838   5.866   1.487 -0.0367 -0.0156  0.2876
 7705TIP3    H123079   2.924   5.823   1.485  0.3760  0.7864  0.3320
 7705TIP3    H223080   2.797   5.835   1.568  0.3796 -0.0874  0.4728
 7706TIP3   OH223081   0.376   2.816   0.311  0.1011  0.2356  0.0089
 7706TIP3    H123082   0.444   2.778   0.255  0.4811 -0.1872  0.7358
 7706TIP3    H223083   0.370   2.755   0.385 -2.0478 -0.4688 -0.6893
 7707TIP3   OH223084   1.122   1.310   5.801  0.3300  0.5486 -0.2850
 7707TIP3    H123085   1.128   1.358   5.884 -0.6598 -1.0899  0.7764
 7707TIP3    H223086   1.060   1.361   5.749 -1.9148 -0.2638  1.4085
 7708TIP3   OH223087   2.879   4.059   5.209 -0.4437 -0.2250 -0.2155
 7708TIP3    H123088   2.941   4.013   5.153 -0.9024 -1.3311  0.1549
 7708TIP3    H223089   2.914   4.047   5.298  0.4526  1.7815 -0.2428
 7709TIP3   OH223090   6.901   0.402   1.918 -0.3059 -0.4164 -0.5514
 7709TIP3    H123091   6.896   0.463   1.991 -0.3622 -0.3033 -0.6492
 7709TIP3    H223092   6.906   0.458   1.840 -1.2985 -0.5309 -0.7083
 7710TIP3   OH223093   5.797   3.420   2.819  0.4377  0.6839  1.0964
 7710TIP3    H123094   5.716   3.399   2.867 -0.0177 -0.8556 -0.2428
 7710TIP3    H223095   5.863   3.433   2.887 -0.3733 -0.5959  2.1755
 7711TIP3   OH223096   5.076   2.849   3.174 -0.2895 -0.1742  0.0759
 7711TIP3    H123097   5.068   2.762   3.212  0.2080 -0.6074 -0.7753
 7711TIP3    H223098   5.152   2.888   3.216 -0.3209 -0.2712  0.2227
 7712TIP3   OH223099   5.262   2.809   3.377  0.1345  0.2022  0.5661
 7712TIP3    H123100   5.323   2.736   3.388  0.7887  0.5993 -0.2643
 7712TIP3    H223101   5.191   2.791   3.438  0.0525 -1.3691  0.0484
 7713TIP3   OH223102   0.997   5.377   3.759  0.1825  0.1154  0.1122
 7713TIP3    H123103   0.924   5.335   3.714  1.1621 -1.1395 -0.3484
 7713TIP3    H223104   1.063   5.309   3.767  1.3186  1.2240  0.5093
 7714TIP3   OH223105   2.041   4.017   3.155  0.2083 -0.7243 -0.0478
 7714TIP3    H123106   1.962   3.982   3.112  0.6318  0.8971 -2.3444
 7714TIP3    H223107   2.112   3.998   3.093  1.0305  0.9036  0.3489
 7715TIP3   OH223108   6.577   2.388   4.161  0.0790  0.0656  0.3923
 7715TIP3    H123109   6.600   2.448   4.090  1.4553 -0.3858  0.4192
 7715TIP3    H223110   6.518   2.325   4.121  1.2280 -0.4731 -0.5049
 7716TIP3   OH223111   4.451   2.025   3.088  0.0009  0.5177  0.1761
 7716TIP3    H123112   4.485   1.938   3.066  0.1830  0.7578 -0.5147
 7716TIP3    H223113   4.494   2.084   3.026  0.5183  1.2260  1.1704
 7717TIP3   OH223114   1.357   6.583   0.281 -0.0414  0.0801  0.3202
 7717TIP3    H123115   1.365   6.542   0.367  3.2921 -2.4526 -1.0028
 7717TIP3    H223116   1.411   6.662   0.287 -1.1005  0.7989  0.9102
 7718TIP3   OH223117   3.587   2.811   2.891 -0.1581 -0.3996 -0.2745
 7718TIP3    H123118   3.674   2.805   2.932 -0.0145 -1.0715 -0.6625
 7718TIP3    H223119   3.603   2.852   2.806 -0.1495 -0.9130 -0.5273
 7719TIP3   OH223120   1.585   1.513   0.871 -0.5012  0.1052 -0.4613
 7719TIP3    H123121   1.551   1.550   0.953 -0.7176  0.3818 -0.6753
 7719TIP3    H223122   1.629   1.433   0.898 -2.4723 -0.9836 -0.3249
 7720TIP3   OH223123   1.876   6.308   1.109  0.1809  0.1709  0.3144
 7720TIP3    H123124   1.906   6.332   1.196 -0.8806  0.2488  0.6765
 7720TIP3    H223125   1.837   6.388   1.073 -0.7670 -0.2423  0.3879
 7721TIP3   OH223126   3.752   6.210   0.334 -0.7168  0.0214  0.5721
 7721TIP3    H123127   3.763   6.231   0.427 -0.2021  0.9731  0.3069
 7721TIP3    H223128   3.834   6.168   0.309 -1.1963 -1.0588  0.7495
 7722TIP3   OH223129   0.332   4.247   5.166  0.1209  0.2949  0.5710
 7722TIP3    H123130   0.378   4.277   5.088 -0.6716  0.2305  0.0676
 7722TIP3    H223131   0.247   4.290   5.162 -0.3844 -0.6559  0.7525
 7723TIP3   OH223132   2.148   2.938   5.299 -0.8653 -0.0032  0.8467
 7723TIP3    H123133   2.171   3.027   5.322 -0.7502  0.8849 -2.2239
 7723TIP3    H223134   2.226   2.903   5.256 -1.7315 -0.6706 -0.2495
 7724TIP3   OH223135   4.277   4.305   0.729  0.2709 -0.5533 -0.6735
 7724TIP3    H123136   4.246   4.378   0.675  1.2138  0.9611  0.7485
 7724TIP3    H223137   4.210   4.237   0.717 -1.4363  1.0749 -0.9121
 7725TIP3   OH223138   4.693   6.298   1.419  0.2519  0.4859 -0.5270
 7725TIP3    H123139   4.651   6.286   1.504  0.7089  1.9397 -0.0569
 7725TIP3    H223140   4.713   6.210   1.389  2.0671 -0.0150  1.8939
 7726TIP3   OH223141   6.829   2.655   4.260 -0.2262  0.1232  0.5457
 7726TIP3    H123142   6.804   2.685   4.172 -1.8232  3.1708  1.9087
 7726TIP3    H223143   6.845   2.561   4.249 -1.6520  0.1214 -2.7345
 7727TIP3   OH223144   3.074   6.764   3.337 -0.3834 -0.0061 -0.1893
 7727TIP3    H123145   3.097   6.824   3.408  1.1615  0.3016 -0.9034
 7727TIP3    H223146   2.990   6.796   3.304 -0.7401  0.3041  0.9846
 7728TIP3   OH223147   6.375   2.162   0.013  0.6196  0.3049 -0.1299
 7728TIP3    H123148   6.425   2.236   0.049  1.4818 -0.0714 -0.5346
 7728TIP3    H223149   6.283   2.190   0.019  0.7962  0.6116  1.5373
 7729TIP3   OH223150   6.851   4.494   3.692  0.3520  0.3377 -0.1466
 7729TIP3    H123151   6.884   4.577   3.728  0.3340 -0.3086  1.4329
 7729TIP3    H223152   6.895   4.426   3.744 -0.0850 -0.6379 -1.0131
 7730TIP3   OH223153   1.101   5.824   4.324 -0.7170  0.5219  0.2153
 7730TIP3    H123154   1.030   5.776   4.366  0.7538 -0.4070  1.7786
 7730TIP3    H223155   1.156   5.854   4.396  0.8752  0.5368 -0.9467
 7731TIP3   OH223156   2.325   4.181   2.893  0.0490 -0.4966 -0.7519
 7731TIP3    H123157   2.382   4.246   2.852 -0.7279  0.6750 -0.0246
 7731TIP3    H223158   2.373   4.099   2.885  2.1126  0.5304  0.3041
 7732TIP3   OH223159   6.148   0.503   4.386  0.5711  0.4028 -0.3548
 7732TIP3    H123160   6.183   0.574   4.439  1.8416  0.1928 -0.8737
 7732TIP3    H223161   6.142   0.429   4.445  0.4266  0.6019 -0.1177
 7733TIP3   OH223162   1.963   6.281   3.384  0.6742 -0.0834 -0.5321
 7733TIP3    H123163   1.989   6.212   3.324  2.7784 -1.6209  1.9443
 7733TIP3    H223164   1.871   6.263   3.403  0.6214 -0.9355 -1.5515
 7734TIP3   OH223165   1.389   5.075   1.819  0.0061 -0.4031 -0.1490
 7734TIP3    H123166   1.317   5.096   1.879  0.4935 -1.8582  0.9934
 7734TIP3    H223167   1.420   4.989   1.847  1.5391 -0.2567 -1.2605
 7735TIP3   OH223168   5.319   1.293   2.300  0.2750  0.4043 -0.2898
 7735TIP3    H123169   5.245   1.300   2.360 -0.2414  0.9450 -0.9750
 7735TIP3    H223170   5.281   1.256   2.220  1.1533 -1.3372  0.0386
 7736TIP3   OH223171   5.156   4.190   3.621  0.5752  0.2081  0.2383
 7736TIP3    H123172   5.182   4.213   3.532 -0.8314 -0.3380 -0.3491
 7736TIP3    H223173   5.148   4.094   3.619  0.5001  0.1972  0.9364
 7737TIP3   OH223174   4.704   0.866   5.398 -0.3631 -0.1747  0.1739
 7737TIP3    H123175   4.616   0.880   5.365 -1.1644 -1.1279  1.7701
 7737TIP3    H223176   4.761   0.879   5.322 -2.0828 -2.4468 -1.6364
 7738TIP3   OH223177   3.461   2.038   5.294 -0.7624  0.4069 -0.6101
 7738TIP3    H123178   3.381   2.079   5.260 -1.5070 -0.6929 -0.2452
 7738TIP3    H223179   3.453   2.048   5.389  0.5840  2.1511 -0.6247
 7739TIP3   OH223180   3.085   1.984   0.668 -0.8273 -0.1362  0.5679
 7739TIP3    H123181   3.054   2.028   0.589  0.4350 -1.1038 -0.5156
 7739TIP3    H223182   3.008   1.979   0.725 -1.7959  0.4821 -0.6457
 7740TIP3   OH223183   5.649   5.921   3.196  0.0452 -0.1254 -0.0704
 7740TIP3    H123184   5.684   5.980   3.130  0.2269 -0.9748 -0.7447
 7740TIP3    H223185   5.717   5.855   3.209 -1.5522 -2.3421 -2.0586
 7741TIP3   OH223186   6.989   1.596   5.781  0.3050  0.1099 -0.6718
 7741TIP3    H123187   7.000   1.684   5.745  1.0218 -0.2016 -1.2252
 7741TIP3    H223188   7.036   1.599   5.865 -2.4486  1.2258  0.9748
 7742TIP3   OH223189   0.620   5.260   0.522  0.8239  0.0926 -0.8318
 7742TIP3    H123190   0.641   5.181   0.571 -1.9572 -3.0906 -4.1787
 7742TIP3    H223191   0.553   5.304   0.575  1.0510 -0.7948  0.2269
 7743TIP3   OH223192   5.142   2.513   5.006  0.6150  0.7470  0.1160
 7743TIP3    H123193   5.050   2.532   4.990  0.4432  0.0525  0.2393
 7743TIP3    H223194   5.177   2.488   4.921  0.0378 -1.5690  0.4888
 7744TIP3   OH223195   5.220   4.683   2.471 -0.1289  0.1356 -1.0886
 7744TIP3    H123196   5.310   4.712   2.455 -0.5327  1.0340 -1.8593
 7744TIP3    H223197   5.181   4.676   2.384 -0.0836 -2.8277 -0.9659
 7745TIP3   OH223198   4.212   4.148   3.152 -0.3005 -0.0418  0.1783
 7745TIP3    H123199   4.146   4.099   3.202  1.0860 -1.4560  0.6955
 7745TIP3    H223200   4.266   4.081   3.111  0.6832  1.0866 -0.4350
 7746TIP3   OH223201   4.317   1.457   1.127 -0.4394 -0.6548 -0.8815
 7746TIP3    H123202   4.336   1.422   1.214  0.4116  0.5848 -0.5523
 7746TIP3    H223203   4.297   1.549   1.141 -0.0576 -0.3816 -2.0278
 7747TIP3   OH223204   6.168   4.416   2.943 -0.2351 -0.2074  0.8868
 7747TIP3    H123205   6.117   4.466   2.880  0.8649 -1.8549 -1.4564
 7747TIP3    H223206   6.230   4.479   2.980 -0.6982  0.7470  0.0775
 7748TIP3   OH223207   6.635   6.635   2.044  0.4396 -0.5234  0.5407
 7748TIP3    H123208   6.656   6.648   1.951 -0.3995 -1.7938  0.1487
 7748TIP3    H223209   6.628   6.723   2.079 -2.2583  0.1343 -1.3227
 7749TIP3   OH223210   3.370   5.668   0.602 -0.9365  0.1630  0.5681
 7749TIP3    H123211   3.356   5.688   0.509  0.6474 -2.2783 -0.2882
 7749TIP3    H223212   3.327   5.584   0.616  1.8235 -1.3045  1.0214
 7750TIP3   OH223213   4.980   2.510   0.161  0.2164 -0.1706  0.3535
 7750TIP3    H123214   4.917   2.442   0.185 -1.2654  0.9791 -0.0943
 7750TIP3    H223215   4.926   2.587   0.142  1.5323  0.1138 -2.7446
 7751TIP3   OH223216   5.528   3.795   3.197  0.5070  0.5809 -0.5436
 7751TIP3    H123217   5.587   3.784   3.271  0.3560 -1.0607 -0.6336
 7751TIP3    H223218   5.475   3.872   3.219 -0.7123 -0.8601  1.8724
 7752TIP3   OH223219   0.155   5.528   2.107  0.3621  0.5781  0.0162
 7752TIP3    H123220   0.120   5.580   2.034  0.9554  0.1617 -0.5744
 7752TIP3    H223221   0.122   5.572   2.186 -0.8410  0.6517 -0.5023
 7753TIP3   OH223222   2.783   2.344   1.445 -0.0240  0.4582  0.0142
 7753TIP3    H123223   2.821   2.370   1.362 -0.3791  1.8353  0.2636
 7753TIP3    H223224   2.706   2.400   1.455 -0.6701 -0.5146  0.7110
 7754TIP3   OH223225   1.249   6.158   2.808 -0.2454  0.0879 -0.5691
 7754TIP3    H123226   1.324   6.162   2.749  0.3403  1.0750  0.2096
 7754TIP3    H223227   1.287   6.144   2.895 -0.9064  1.1331 -0.0880
 7755TIP3   OH223228   3.934   4.398   3.025  0.6415 -0.5773  0.1501
 7755TIP3    H123229   3.921   4.303   3.017  0.3934 -0.5476  0.1985
 7755TIP3    H223230   4.028   4.408   3.036  0.7493 -0.7721 -0.5635
 7756TIP3   OH223231   2.290   0.205   0.685  0.0654 -0.0723 -0.0654
 7756TIP3    H123232   2.350   0.195   0.759  0.2284  1.2182  0.0011
 7756TIP3    H223233   2.297   0.297   0.661  1.0171 -0.6924 -2.5576
 7757TIP3   OH223234   3.132   4.156   5.357 -0.3826 -0.2952 -0.3924
 7757TIP3    H123235   3.092   4.207   5.427  2.3421  3.5794 -1.3407
 7757TIP3    H223236   3.153   4.220   5.289  1.2996 -3.1010 -2.7691
 7758TIP3   OH223237   0.554   4.435   0.428  0.1520 -0.1610 -0.0135
 7758TIP3    H123238   0.460   4.445   0.439 -0.3342 -2.4485 -1.5329
 7758TIP3    H223239   0.576   4.354   0.475  0.9512 -0.8240 -1.4650
 7759TIP3   OH223240   2.800   3.025   1.421  0.1502  0.0236  0.3961
 7759TIP3    H123241   2.816   2.994   1.510 -0.0477 -1.5703 -0.0928
 7759TIP3    H223242   2.884   3.061   1.392  0.0401  1.1684  1.4404
 7760TIP3   OH223243   3.287   2.378   1.495 -0.3692  0.0826 -0.6810
 7760TIP3    H123244   3.209   2.407   1.447  0.4848  1.9354 -1.0256
 7760TIP3    H223245   3.306   2.449   1.556 -0.6787 -1.6689  1.5915
 7761TIP3   OH223246   6.561   1.225   0.099  0.2775 -0.0491  0.3775
 7761TIP3    H123247   6.568   1.157   0.032 -0.9423 -0.4347  0.6210
 7761TIP3    H223248   6.512   1.295   0.056  0.5797  0.2287  0.4801
 7762TIP3   OH223249   6.265   5.170   4.528  0.1643 -0.0215  0.5981
 7762TIP3    H123250   6.193   5.147   4.469  1.3373 -0.3963 -0.7559
 7762TIP3    H223251   6.233   5.147   4.615 -1.3366 -0.1819  0.0429
 7763TIP3   OH223252   3.030   5.047   4.422 -0.3729  0.4490 -0.1569
 7763TIP3    H123253   2.946   5.083   4.391 -0.1382  1.3495  0.2113
 7763TIP3    H223254   3.056   4.986   4.353 -1.4322 -0.0143 -0.1782
 7764TIP3   OH223255   1.491   5.124   2.381  0.1135  0.1620  0.0894
 7764TIP3    H123256   1.427   5.078   2.326 -0.3354  1.1849 -0.2727
 7764TIP3    H223257   1.570   5.070   2.376 -0.9504 -1.5716  1.2283
 7765TIP3   OH223258   6.460   1.214   3.077 -0.1082  0.7316 -0.0759
 7765TIP3    H123259   6.551   1.196   3.054  0.1998  1.9433  0.1161
 7765TIP3    H223260   6.458   1.308   3.095 -0.7987  0.2611  2.6856
 7766TIP3   OH223261   6.367   1.910   1.335  0.3483  0.1375 -0.2916
 7766TIP3    H123262   6.340   1.927   1.425 -1.0201  1.3548 -0.8894
 7766TIP3    H223263   6.447   1.961   1.324  0.2120  0.4320  0.0744
 7767TIP3   OH223264   2.010   2.414   4.304  0.5936 -0.0070 -0.0714
 7767TIP3    H123265   1.970   2.343   4.354 -0.2544  0.7676  0.3674
 7767TIP3    H223266   1.946   2.485   4.306  0.7035  0.1911 -1.9425
 7768TIP3   OH223267   4.809   0.334   0.033 -0.0180 -0.3815  0.1697
 7768TIP3    H123268   4.756   0.384  -0.029  1.1694  1.3293  0.4921
 7768TIP3    H223269   4.897   0.369   0.025  0.3788 -0.8066  2.0981
 7769TIP3   OH223270   1.875   0.775   1.249 -0.0716 -0.3772 -0.1270
 7769TIP3    H123271   1.875   0.703   1.186 -0.4853  2.7875 -4.1464
 7769TIP3    H223272   1.957   0.821   1.234 -0.9567  1.4790  0.4126
 7770TIP3   OH223273   7.005   6.443   5.874 -0.0390  0.5372 -0.1240
 7770TIP3    H123274   6.921   6.478   5.843 -0.6371 -1.6672 -1.2103
 7770TIP3    H223275   7.001   6.350   5.853  2.4657  0.2566  0.3488
 7771TIP3   OH223276   1.516   1.348   4.572 -0.0564  0.2276  0.3181
 7771TIP3    H123277   1.509   1.433   4.529  0.3284  0.1461  0.0878
 7771TIP3    H223278   1.447   1.349   4.638 -0.7403  0.2988 -0.3920
 7772TIP3   OH223279   1.231   2.085   0.407  0.2291  0.7266 -0.5836
 7772TIP3    H123280   1.177   2.138   0.347  0.8673  2.4040  0.2563
 7772TIP3    H223281   1.194   1.997   0.400  0.0423  0.9184 -3.1380
 7773TIP3   OH223282   0.231   4.917   5.143 -0.0343 -0.0569  0.5591
 7773TIP3    H123283   0.288   4.852   5.185  0.4526 -0.5732 -0.8600
 7773TIP3    H223284   0.227   4.989   5.206  2.2195  0.0191  0.6816
 7774TIP3   OH223285   5.718   3.914   5.306 -0.1714  0.0562  0.1800
 7774TIP3    H123286   5.662   3.867   5.245 -1.6203  0.0904  1.4124
 7774TIP3    H223287   5.760   3.982   5.253 -1.0559 -0.1842 -0.8576
 7775TIP3   OH223288   6.773   0.718   3.666 -0.2087  0.4514  0.1375
 7775TIP3    H123289   6.804   0.783   3.602 -0.3483  2.2905  1.8392
 7775TIP3    H223290   6.680   0.706   3.645 -0.4643  1.6847  0.4797
 7776TIP3   OH223291   0.251   4.034   0.449 -0.6595 -0.1510 -0.3875
 7776TIP3    H123292   0.167   4.026   0.494 -0.3752 -0.8638  0.0268
 7776TIP3    H223293   0.227   4.044   0.356 -1.2935  2.4249 -0.0261
 7777TIP3   OH223294   3.742   6.267   1.883  0.1955  0.5870 -0.4309
 7777TIP3    H123295   3.814   6.258   1.945  0.1931  0.5904 -0.4277
 7777TIP3    H223296   3.673   6.312   1.932  0.6841  1.8239 -0.8295
 7778TIP3   OH223297   2.235   1.885   3.297  0.2872  0.3101 -0.6028
 7778TIP3    H123298   2.184   1.814   3.336 -0.4349  1.8389  1.3700
 7778TIP3    H223299   2.169   1.945   3.263  0.7413  1.7370  0.9241
 7779TIP3   OH223300   1.601   6.246   4.083 -0.1067  0.1807  0.6547
 7779TIP3    H123301   1.535   6.192   4.126  0.6514 -1.5100 -0.2195
 7779TIP3    H223302   1.655   6.184   4.033  1.2660  1.6652  0.1948
 7780TIP3   OH223303   3.935   0.489   4.369 -0.0488 -0.4891 -0.2727
 7780TIP3    H123304   3.850   0.510   4.330  0.4102  0.7508 -0.6606
 7780TIP3    H223305   3.913   0.452   4.455 -0.9835 -0.1856 -0.3717
 7781TIP3   OH223306   4.832   0.270   2.382 -0.2342  0.4840 -0.0470
 7781TIP3    H123307   4.737   0.275   2.382 -0.3347 -0.8973 -0.3852
 7781TIP3    H223308   4.858   0.298   2.294 -0.3836  0.1259 -0.2056
 7782TIP3   OH223309   2.644   0.338   3.198 -0.4188 -0.3178  0.3610
 7782TIP3    H123310   2.677   0.357   3.110 -0.6588 -3.1029 -0.4314
 7782TIP3    H223311   2.720   0.346   3.255  0.1475 -0.2228 -0.3940
 7783TIP3   OH223312   3.140   3.658   2.076 -0.7622  0.2527  0.2700
 7783TIP3    H123313   3.062   3.711   2.060 -2.0740 -1.5613  0.4967
 7783TIP3    H223314   3.110   3.568   2.076  1.1308 -0.4522  1.5584
 7784TIP3   OH223315   4.273   4.984   5.357  0.0662  0.0248  0.0092
 7784TIP3    H123316   4.286   5.078   5.370 -1.9928  0.3101  0.3947
 7784TIP3    H223317   4.349   4.956   5.306  1.6012  1.5442  1.3237
 7785TIP3   OH223318   0.019   3.879   1.834 -0.2434  0.0989 -0.2913
 7785TIP3    H123319  -0.042   3.861   1.763  2.4825 -3.3845 -2.0474
 7785TIP3    H223320   0.035   3.794   1.875  0.5962  1.5135  2.5984
 7786TIP3   OH223321   5.098   5.923   0.908 -0.3830 -0.8605  0.0852
 7786TIP3    H123322   5.168   5.873   0.867  1.2348  2.4503 -1.5418
 7786TIP3    H223323   5.026   5.919   0.845  0.7602  1.0798 -1.4450
 7787TIP3   OH223324   0.969   0.705   1.212 -0.1457  0.0557 -0.0788
 7787TIP3    H123325   1.047   0.757   1.233  0.6033 -0.5867 -1.1761
 7787TIP3    H223326   0.989   0.617   1.244 -0.9864  0.1948  0.8531
 7788TIP3   OH223327   5.524   6.440   1.639 -0.2749  0.2441  0.8048
 7788TIP3    H123328   5.610   6.401   1.654  1.0737  2.8455  0.3573
 7788TIP3    H223329   5.471   6.368   1.605  1.9709 -1.2488  0.2276
 7789TIP3   OH223330   4.533   3.986   0.720 -0.0315  0.3327 -0.0044
 7789TIP3    H123331   4.619   4.027   0.710  0.1890 -0.1543 -0.1577
 7789TIP3    H223332   4.507   4.007   0.810  1.1343 -1.1199  0.7280
 7790TIP3   OH223333   2.702   2.377   5.234 -0.5517 -0.4733 -0.0565
 7790TIP3    H123334   2.657   2.351   5.154 -1.5012  0.4159  0.1810
 7790TIP3    H223335   2.654   2.333   5.305  0.0932 -1.0059  0.0666
 7791TIP3   OH223336   5.884   1.574   0.162 -0.1704  0.0362 -0.0760
 7791TIP3    H123337   5.961   1.537   0.120  0.1349  0.4580  0.1044
 7791TIP3    H223338   5.821   1.502   0.166 -0.3288  0.0607 -1.5425
 7792TIP3   OH223339   5.703   5.797   0.258 -0.3887  0.1966  0.6093
 7792TIP3    H123340   5.788   5.837   0.241  0.2463 -1.3967 -0.1072
 7792TIP3    H223341   5.640   5.861   0.224  0.4775  1.5608  1.4930
 7793TIP3   OH223342   6.404   6.141   0.070 -0.1632  0.0781  0.3578
 7793TIP3    H123343   6.434   6.232   0.067 -0.5451  0.3158  2.3366
 7793TIP3    H223344   6.481   6.090   0.045  0.3852  0.8887  0.3437
 7794TIP3   OH223345   6.733   5.507   3.141  0.3232 -0.0549  0.1488
 7794TIP3    H123346   6.756   5.598   3.125 -1.3762  0.5426  0.9753
 7794TIP3    H223347   6.818   5.463   3.152  1.3027  0.8807 -2.7188
 7795TIP3   OH223348   7.020   5.241   3.425  0.7229 -0.0423  0.1271
 7795TIP3    H123349   7.113   5.257   3.437  0.8286 -0.3964 -0.1813
 7795TIP3    H223350   6.999   5.176   3.492  0.7929 -0.2761 -0.0768
 7796TIP3   OH223351   0.802   5.125   0.695 -1.2921  0.1581  0.9461
 7796TIP3    H123352   0.853   5.198   0.662 -0.2029 -0.4347  1.2671
 7796TIP3    H223353   0.829   5.050   0.642 -1.2857 -0.3080  1.5865
 7797TIP3   OH223354   3.551   0.410   0.096 -0.2076  0.3207  0.0115
 7797TIP3    H123355   3.589   0.495   0.120 -1.5586  1.2028 -0.8415
 7797TIP3    H223356   3.606   0.380   0.023  0.7021  0.1112  0.7666
 7798TIP3   OH223357   6.738   4.962   1.507  0.3439 -0.2752 -0.1985
 7798TIP3    H123358   6.650   4.999   1.496  0.2883  0.0068  1.0741
 7798TIP3    H223359   6.778   5.016   1.575  1.5750 -0.2993 -0.8769
 7799TIP3   OH223360   1.701   2.244   4.941  0.1034 -0.0993  0.3087
 7799TIP3    H123361   1.696   2.317   5.003  0.1570  0.1377  0.0384
 7799TIP3    H223362   1.759   2.277   4.872 -0.5798 -0.0735 -0.2522
 7800TIP3   OH223363   3.565   5.488   2.728 -0.1332  0.0869 -0.1503
 7800TIP3    H123364   3.644   5.470   2.778 -0.9814  0.5237  1.4180
 7800TIP3    H223365   3.583   5.570   2.682 -0.4085  1.3940  1.9503
 7801TIP3   OH223366   0.546   3.969   4.800  0.1826 -0.3644  0.0297
 7801TIP3    H123367   0.530   3.987   4.708 -0.4733 -0.3434  0.1401
 7801TIP3    H223368   0.622   4.022   4.823 -1.2497  1.7767  0.1640
 7802TIP3   OH223369   1.284   1.339   4.736  0.1676  0.1353  0.0628
 7802TIP3    H123370   1.238   1.328   4.820  1.2489  0.8936  0.7780
 7802TIP3    H223371   1.248   1.419   4.699  0.9272  0.7570  0.6469
 7803TIP3   OH223372   7.190   3.448   3.967  0.0092 -0.2718  0.7510
 7803TIP3    H123373   7.141   3.510   4.022  0.1730  0.3041  0.2634
 7803TIP3    H223374   7.132   3.433   3.892  0.1965 -0.2898  0.6094
 7804TIP3   OH223375   0.234   2.155   5.690 -0.6882 -0.1167  0.0981
 7804TIP3    H123376   0.168   2.214   5.655 -0.9751 -1.2114 -1.2953
 7804TIP3    H223377   0.200   2.067   5.673 -0.6835 -0.7416  2.8915
 7805TIP3   OH223378   4.072   5.965   3.285  0.4869  0.1692 -0.6292
 7805TIP3    H123379   4.129   5.888   3.280  1.6359  1.0074 -0.9133
 7805TIP3    H223380   4.001   5.946   3.224  0.3884 -0.9430 -0.1934
 7806TIP3   OH223381   4.018   4.110   1.242 -0.2378 -0.4377  0.8382
 7806TIP3    H123382   4.000   4.017   1.228  0.7847 -0.7515  1.5107
 7806TIP3    H223383   4.081   4.133   1.173  1.8147 -1.0246  2.4080
 7807TIP3   OH223384   2.028   3.029   1.179  0.6259 -0.1964  0.1535
 7807TIP3    H123385   1.972   3.005   1.105  1.1054 -0.3681 -0.1635
 7807TIP3    H223386   2.113   2.991   1.157  1.5275  2.0119 -0.5530
 7808TIP3   OH223387   3.742   5.493   4.902 -0.0724  0.0697 -0.0646
 7808TIP3    H123388   3.700   5.434   4.965  1.6957  0.0349  1.1372
 7808TIP3    H223389   3.749   5.577   4.947  0.2459  0.3460 -0.6137
 7809TIP3   OH223390   5.042   6.636   3.552  0.7162 -0.1044 -0.3103
 7809TIP3    H123391   4.966   6.602   3.504  0.5417 -0.5249  0.2538
 7809TIP3    H223392   5.004   6.693   3.619  0.9648  0.5693 -0.7325
 7810TIP3   OH223393   2.562   1.070   1.363 -0.0953  0.1157 -0.0065
 7810TIP3    H123394   2.512   1.139   1.407  1.7434  2.2027 -0.9657
 7810TIP3    H223395   2.584   1.108   1.278 -0.1388 -2.2233 -1.1304
 7811TIP3   OH223396   0.692   6.508   5.818 -0.2639 -0.1591 -0.6391
 7811TIP3    H123397   0.644   6.519   5.736 -2.4015 -0.9684  0.4232
 7811TIP3    H223398   0.770   6.563   5.808 -2.4615  3.0982 -1.6404
 7812TIP3   OH223399   6.681   6.367   3.290 -0.5483  0.2266  0.4093
 7812TIP3    H123400   6.632   6.417   3.356  0.2848  1.5224  0.0881
 7812TIP3    H223401   6.664   6.413   3.208 -0.8668 -0.8613 -0.1601
 7813TIP3   OH223402   0.105   4.462   3.173 -0.0768  0.0521 -0.1990
 7813TIP3    H123403   0.154   4.544   3.183 -0.0050  0.0716 -0.6830
 7813TIP3    H223404   0.014   4.487   3.189  0.1138 -0.0942  1.2888
 7814TIP3   OH223405   1.290   1.084   3.171 -0.1857  0.3490 -0.2629
 7814TIP3    H123406   1.236   1.126   3.105  0.3676 -0.3811 -1.2009
 7814TIP3    H223407   1.271   1.132   3.252  0.6460  2.6171 -1.3066
 7815TIP3   OH223408   5.200   1.342   4.978  0.0088  0.2447  0.1535
 7815TIP3    H123409   5.222   1.254   4.948 -0.2887  0.5399 -0.9629
 7815TIP3    H223410   5.175   1.389   4.899  1.2353  1.6658  0.5759
 7816TIP3   OH223411   4.731   3.666   2.473  0.6022 -0.7610  0.2079
 7816TIP3    H123412   4.751   3.756   2.500  0.8444 -0.5471 -0.6550
 7816TIP3    H223413   4.650   3.673   2.424  0.6685 -1.0024  0.0628
 7817TIP3   OH223414   0.782   4.127   2.707  0.0179 -0.2391 -0.9154
 7817TIP3    H123415   0.727   4.051   2.687  0.5307 -1.3706  1.5375
 7817TIP3    H223416   0.738   4.169   2.782 -0.0560  1.7164 -1.9795
 7818TIP3   OH223417   2.896   5.992   3.804  0.3653 -0.0105  0.5360
 7818TIP3    H123418   2.988   5.970   3.787  0.5303  0.8052  0.3147
 7818TIP3    H223419   2.885   5.978   3.898  0.0050 -2.5753  0.1890
 7819TIP3   OH223420   1.250   3.952   4.907  0.3826 -0.0808 -0.0181
 7819TIP3    H123421   1.226   4.012   4.837 -0.1584 -0.3106 -0.0362
 7819TIP3    H223422   1.298   3.882   4.863  1.0887  0.3758  0.0159
 7820TIP3   OH223423   0.393   4.954   5.400  0.0621 -0.3277 -0.2626
 7820TIP3    H123424   0.397   5.025   5.464  0.7451 -0.7092  0.1273
 7820TIP3    H223425   0.419   4.996   5.317  1.8035 -0.3958  0.2167
 7821TIP3   OH223426   5.125   1.838   5.726  0.4195 -0.0366  0.0123
 7821TIP3    H123427   5.102   1.884   5.645 -1.2839 -0.9700 -0.0925
 7821TIP3    H223428   5.089   1.894   5.795  0.7152  0.1112  0.0465
 7822TIP3   OH223429   0.470   5.033   0.215 -0.3235 -0.1425  0.3870
 7822TIP3    H123430   0.512   5.102   0.164 -1.3725  2.4650  2.7467
 7822TIP3    H223431   0.542   4.978   0.247  0.5381 -0.1977 -1.5543
 7823TIP3   OH223432   3.720   1.302   1.134 -0.3848 -0.3840 -0.1304
 7823TIP3    H123433   3.786   1.372   1.126 -0.3162 -0.4134  0.1742
 7823TIP3    H223434   3.656   1.337   1.196  0.3290 -1.1072  1.0577
 7824TIP3   OH223435   4.068   0.961   3.904 -0.5674 -0.1487  0.2976
 7824TIP3    H123436   4.036   1.020   3.836  0.3159  1.2137  1.0393
 7824TIP3    H223437   4.034   0.875   3.877 -1.5749  0.6001 -0.9934
 7825TIP3   OH223438   0.016   2.421   3.341  0.0501 -1.3322  0.2275
 7825TIP3    H123439  -0.036   2.347   3.373 -0.1330 -0.8232  1.1472
 7825TIP3    H223440   0.092   2.424   3.399 -0.0771 -0.6425  0.3671
 7826TIP3   OH223441   0.967   2.971   0.198 -0.0053 -0.1761 -0.6265
 7826TIP3    H123442   0.960   2.882   0.234 -0.2353 -0.0382 -0.3230
 7826TIP3    H223443   1.028   2.962   0.125  0.0455 -0.5680 -0.5425
 7827TIP3   OH223444   0.446   1.849   1.567  0.0308  0.5941 -0.1939
 7827TIP3    H123445   0.540   1.827   1.571  0.2987  1.6699 -0.2764
 7827TIP3    H223446   0.402   1.764   1.563  1.0105  0.0731 -0.3127
 7828TIP3   OH223447   6.705   2.924   5.887 -0.0530 -0.2398  0.1452
 7828TIP3    H123448   6.683   2.998   5.831  0.5159  0.2037  0.4935
 7828TIP3    H223449   6.795   2.942   5.916 -0.1972 -0.6561  0.8772
 7829TIP3   OH223450   4.869   3.844   4.462  0.0948  0.3294  0.1369
 7829TIP3    H123451   4.833   3.755   4.464  3.2174 -1.1124 -1.1364
 7829TIP3    H223452   4.954   3.834   4.418  0.0195  4.1834 -1.1997
 7830TIP3   OH223453   6.112   2.784   3.696  0.0448 -0.0091  0.2313
 7830TIP3    H123454   6.118   2.858   3.757  0.5405  0.0616  0.0985
 7830TIP3    H223455   6.059   2.818   3.624 -0.6714 -0.1417  0.6857
 7831TIP3   OH223456   2.776   4.473   4.616  0.3923 -0.5116  0.0616
 7831TIP3    H123457   2.730   4.554   4.594 -1.7076 -1.4850  0.6856
 7831TIP3    H223458   2.737   4.444   4.698  1.5379 -1.8609  0.1751
 7832TIP3   OH223459   2.014   2.550   5.642 -0.4743  0.3049 -0.4239
 7832TIP3    H123460   2.093   2.498   5.650 -1.7784 -1.6738  0.3640
 7832TIP3    H223461   2.026   2.601   5.561  1.8748  0.6656  0.0976
 7833TIP3   OH223462   5.432   3.402   1.618  0.3442  0.5205 -0.2405
 7833TIP3    H123463   5.521   3.394   1.586  0.9463 -0.3081  1.5346
 7833TIP3    H223464   5.431   3.485   1.665  0.1392  0.5863 -0.3586
 7834TIP3   OH223465   0.120   3.608   5.283  0.4678 -0.0129  0.6887
 7834TIP3    H123466   0.146   3.697   5.260 -1.2753  0.6040  0.9368
 7834TIP3    H223467   0.088   3.615   5.373  0.3383 -0.8958  0.7170
 7835TIP3   OH223468   3.974   4.609   4.286 -0.2347  0.3125 -0.5675
 7835TIP3    H123469   3.959   4.658   4.367  0.1878 -0.0152 -0.2891
 7835TIP3    H223470   4.023   4.670   4.231 -0.4113  0.4912 -0.5292
 7836TIP3   OH223471   5.214   5.211   2.814  1.0212  0.2350  0.7887
 7836TIP3    H123472   5.122   5.215   2.841  0.3262 -0.6154 -1.2168
 7836TIP3    H223473   5.241   5.302   2.806 -0.1140  0.5323  0.0462
 7837TIP3   OH223474   3.200   1.287   5.451  0.2518 -0.4391 -0.5725
 7837TIP3    H123475   3.113   1.316   5.475 -0.4881 -3.0011  0.1355
 7837TIP3    H223476   3.242   1.262   5.533  1.0181 -0.8189 -1.0577
 7838TIP3   OH223477   6.035   1.163   4.110 -0.3336 -0.1491 -0.0913
 7838TIP3    H123478   6.024   1.195   4.199  0.0659 -0.9170  0.2419
 7838TIP3    H223479   6.106   1.216   4.073 -1.1470  0.8382 -0.2985
 7839TIP3   OH223480   4.659   4.624   0.574 -0.1492 -0.1449 -0.1412
 7839TIP3    H123481   4.641   4.530   0.579 -1.3228  0.0919  0.5353
 7839TIP3    H223482   4.606   4.662   0.644  2.6097  0.7080  1.6501
 7840TIP3   OH223483   2.369   3.007   0.419 -0.7061 -0.5536 -0.0428
 7840TIP3    H123484   2.420   2.944   0.470  1.7768  2.1147  0.9823
 7840TIP3    H223485   2.318   3.055   0.485  2.9132  3.2777  0.3567
 7841TIP3   OH223486   1.003   4.260   0.929 -0.8244 -0.2781 -0.1213
 7841TIP3    H123487   0.968   4.349   0.919  0.0654  0.7694  4.0054
 7841TIP3    H223488   1.082   4.259   0.874 -1.7763  0.8259 -1.5899
 7842TIP3   OH223489   0.350   6.489   4.226  0.8552 -0.4036 -0.0540
 7842TIP3    H123490   0.310   6.492   4.139  0.8222  0.9622 -0.0053
 7842TIP3    H223491   0.343   6.397   4.251 -0.3093 -0.5979 -0.9560
 7843TIP3   OH223492   6.521   2.625   0.885 -0.3250 -0.2691 -0.2744
 7843TIP3    H123493   6.598   2.585   0.845 -1.8109 -0.3909 -3.3335
 7843TIP3    H223494   6.540   2.719   0.886  0.5359 -0.4401  0.6857
 7844TIP3   OH223495   6.967   6.744   3.409  0.1606 -0.4286 -0.5691
 7844TIP3    H123496   6.960   6.713   3.319 -0.8640  1.4600 -1.1996
 7844TIP3    H223497   6.966   6.840   3.402  1.3808 -0.2104  1.3742
 7845TIP3   OH223498   1.138   0.313   2.310  0.2286  0.3831  0.0546
 7845TIP3    H123499   1.223   0.328   2.268 -0.1960 -0.6595 -1.2189
 7845TIP3    H223500   1.081   0.380   2.272 -0.0046 -0.1713 -0.5745
 7846TIP3   OH223501   0.428   1.795   0.475  0.1518  0.2734  0.0605
 7846TIP3    H123502   0.402   1.779   0.566  0.9714 -0.1962  0.2206
 7846TIP3    H223503   0.517   1.830   0.482  0.5980 -0.6940 -0.6075
 7847TIP3   OH223504   6.592   2.776   1.480  0.4664  0.1810  0.3983
 7847TIP3    H123505   6.583   2.703   1.541 -0.1513 -0.7498 -0.7585
 7847TIP3    H223506   6.507   2.783   1.437  0.4606  1.7220  0.6172
 7848TIP3   OH223507   0.070   2.436   4.115  0.2898 -0.5904  0.8529
 7848TIP3    H123508   0.143   2.439   4.054 -0.0238 -0.6433  0.4684
 7848TIP3    H223509   0.071   2.522   4.158 -0.1746 -0.1155 -0.0525
 7849TIP3   OH223510   1.380   1.606   4.475  0.0036 -0.0484 -0.0132
 7849TIP3    H123511   1.374   1.687   4.527 -0.2163  1.9516 -2.9101
 7849TIP3    H223512   1.435   1.629   4.401  0.0130 -2.6444 -0.9179
 7850TIP3   OH223513   5.100   3.315   2.757  0.4874  0.1813  0.2262
 7850TIP3    H123514   5.164   3.259   2.714 -0.0799  0.1314 -0.5714
 7850TIP3    H223515   5.104   3.289   2.850  0.6580 -0.7561 -0.0322
 7851TIP3   OH223516   2.451   1.036   2.130 -0.5595  0.0835  0.1162
 7851TIP3    H123517   2.535   1.072   2.158 -1.1506  0.2708  1.7430
 7851TIP3    H223518   2.414   0.998   2.209 -1.7518 -0.5323 -0.7123
 7852TIP3   OH223519   1.881   1.907   5.683 -0.1390 -0.0559  0.6950
 7852TIP3    H123520   1.806   1.946   5.727  1.6952  1.7391  2.4625
 7852TIP3    H223521   1.895   1.961   5.605 -1.2362 -1.0347 -0.2189
 7853TIP3   OH223522   0.619   4.959   2.777  0.1566 -0.8880 -0.4910
 7853TIP3    H123523   0.527   4.957   2.803  0.7259 -0.9790  1.7232
 7853TIP3    H223524   0.656   4.878   2.812  1.6306  0.4020  1.0821
 7854TIP3   OH223525   4.340   5.900   0.646 -0.2887 -0.1883  0.0002
 7854TIP3    H123526   4.368   5.823   0.695 -0.7969 -0.8140 -0.6875
 7854TIP3    H223527   4.301   5.866   0.566  0.2676  0.8129 -0.7308
 7855TIP3   OH223528   4.222   3.940   2.623 -0.1829 -0.5322 -0.1874
 7855TIP3    H123529   4.302   3.895   2.651 -0.3254 -0.2755  0.6445
 7855TIP3    H223530   4.251   4.026   2.593 -0.1928 -0.2723  0.5362
 7856TIP3   OH223531   0.233   4.905   0.118  0.0914  0.0945 -0.0375
 7856TIP3    H123532   0.314   4.931   0.162 -0.7471  0.4804  1.3518
 7856TIP3    H223533   0.214   4.977   0.058  1.4247 -0.5883 -1.3314
 7857TIP3   OH223534   1.766   0.156   0.914  0.2669  0.6689  0.4680
 7857TIP3    H123535   1.804   0.130   0.830 -0.5461  0.2956  0.2081
 7857TIP3    H223536   1.746   0.249   0.903  2.1057  1.1684  0.9967
 7858TIP3   OH223537   0.487   2.093   3.568 -0.2850 -0.3324  0.4294
 7858TIP3    H123538   0.494   2.064   3.476  0.0311  1.0652 -0.0096
 7858TIP3    H223539   0.409   2.148   3.569 -0.0447 -0.0044  0.9102
 7859TIP3   OH223540   5.241   3.923   1.132 -0.4896  0.0297  0.0355
 7859TIP3    H123541   5.166   3.957   1.182 -0.1058  0.2600  0.4600
 7859TIP3    H223542   5.303   3.996   1.129 -0.2308 -0.1992 -0.2138
 7860TIP3   OH223543   4.337   3.478   1.926  0.7347 -0.2535 -0.0467
 7860TIP3    H123544   4.362   3.517   2.010 -0.4708 -1.7475  1.0888
 7860TIP3    H223545   4.369   3.388   1.931 -1.4621 -1.1146 -0.0760
 7861TIP3   OH223546   1.447   6.261   1.094 -0.0698  0.2781  0.2430
 7861TIP3    H123547   1.484   6.349   1.103  0.7838  0.2791 -2.3661
 7861TIP3    H223548   1.352   6.275   1.096  0.0279  1.4707 -1.2745
 7862TIP3   OH223549   0.444   3.188   3.940 -0.2627 -0.4188 -0.3199
 7862TIP3    H123550   0.434   3.172   3.846  1.1002  0.2546 -0.6110
 7862TIP3    H223551   0.424   3.281   3.950 -0.7822 -0.5762  0.1255
 7863TIP3   OH223552   4.630   5.847   2.846  0.2368  0.0520 -0.1380
 7863TIP3    H123553   4.625   5.903   2.923 -0.1646 -0.4319  0.1938
 7863TIP3    H223554   4.539   5.827   2.825  0.3862 -0.6530 -0.1210
 7864TIP3   OH223555   1.412   2.482   2.957 -0.0185  0.0755 -0.2640
 7864TIP3    H123556   1.353   2.432   3.014  0.5271 -0.6659 -0.3471
 7864TIP3    H223557   1.467   2.416   2.916  2.6397  0.8772  1.7633
 7865TIP3   OH223558   2.006   5.023   3.379 -0.0307  0.1589  0.2465
 7865TIP3    H123559   2.051   5.101   3.413  0.8199 -0.7000  1.1351
 7865TIP3    H223560   2.048   5.006   3.295 -0.4168  0.8059 -0.0931
 7866TIP3   OH223561   5.602   1.425   0.116  0.5612  0.2736  0.2912
 7866TIP3    H123562   5.579   1.518   0.116 -2.2956 -0.3447 -1.1268
 7866TIP3    H223563   5.534   1.383   0.168  1.3424 -1.1363  0.2218
 7867TIP3   OH223564   1.050   6.130   0.986  0.1890  0.0778  0.1491
 7867TIP3    H123565   1.028   6.147   0.894 -0.1013 -0.0931  0.1864
 7867TIP3    H223566   0.971   6.092   1.023  0.0589  0.8202  0.6565
 7868TIP3   OH223567   1.742   3.235   1.453  0.1001 -0.0478 -0.5564
 7868TIP3    H123568   1.722   3.148   1.420 -1.1368  0.5586 -1.5143
 7868TIP3    H223569   1.800   3.273   1.387  0.4687 -0.0691 -0.2471
 7869TIP3   OH223570   5.618   4.326   2.858 -0.1817  0.1077 -0.4179
 7869TIP3    H123571   5.523   4.315   2.857 -0.3495  1.3704 -1.2352
 7869TIP3    H223572   5.640   4.341   2.950 -1.0689  1.8511 -0.4460
 7870TIP3   OH223573   5.931   1.569   3.375 -0.3106 -0.4875  0.1372
 7870TIP3    H123574   5.998   1.507   3.346 -0.5248 -0.4819 -0.3827
 7870TIP3    H223575   5.849   1.521   3.369 -0.3151 -0.6599  1.2608
 7871TIP3   OH223576   2.386   3.661   3.909 -0.0424  0.2121  0.1077
 7871TIP3    H123577   2.367   3.609   3.831 -4.0373  1.1666  0.1980
 7871TIP3    H223578   2.300   3.688   3.940  1.4067  0.4982  4.4868
 7872TIP3   OH223579   7.174   5.437   0.353  0.1782  0.7326 -0.4756
 7872TIP3    H123580   7.141   5.494   0.422 -2.0363  2.7944 -3.0035
 7872TIP3    H223581   7.254   5.480   0.323 -0.4452  1.4723 -1.1020
 7873TIP3   OH223582   3.557   6.421   2.004 -0.8006 -0.0908  0.4867
 7873TIP3    H123583   3.559   6.485   2.075  1.2009 -0.7269  1.0529
 7873TIP3    H223584   3.559   6.474   1.924 -2.8537  0.6209  0.8273
 7874TIP3   OH223585   2.777   2.830   4.465  0.3898 -0.7479  0.0491
 7874TIP3    H123586   2.744   2.848   4.553  0.2746 -1.8133  0.2327
 7874TIP3    H223587   2.852   2.772   4.479  0.2203 -1.1210 -0.5688
 7875TIP3   OH223588   5.753   3.706   1.341 -0.1510 -0.3578  0.1565
 7875TIP3    H123589   5.680   3.767   1.349 -0.9377 -1.2703  0.0936
 7875TIP3    H223590   5.831   3.761   1.348 -0.8219  0.4343  1.8361
 7876TIP3   OH223591   6.382   6.047   4.075 -0.3043  0.0649 -0.1227
 7876TIP3    H123592   6.326   6.088   4.142 -0.7070  0.8067 -0.8970
 7876TIP3    H223593   6.469   6.045   4.115 -0.0981  2.3939 -0.3200
 7877TIP3   OH223594   5.378   4.775   4.733 -0.6247  0.8381 -0.0689
 7877TIP3    H123595   5.327   4.754   4.811 -1.5498  2.0758 -0.3185
 7877TIP3    H223596   5.388   4.870   4.735 -0.3420  0.8522 -1.2604
 7878TIP3   OH223597   1.924   3.150   2.294  0.2375  0.6666 -0.2343
 7878TIP3    H123598   2.010   3.110   2.284 -0.0494 -0.3538  1.0077
 7878TIP3    H223599   1.892   3.163   2.205  0.6985 -1.1638 -0.7161
 7879TIP3   OH223600   5.166   6.615   0.344  0.3395  0.1100  0.9164
 7879TIP3    H123601   5.075   6.630   0.319  0.3560 -1.1048  0.0664
 7879TIP3    H223602   5.196   6.700   0.377 -0.7371  0.8412  0.0788
 7880TIP3   OH223603   6.682   2.902   2.636  0.3973 -0.1546 -0.4910
 7880TIP3    H123604   6.729   2.965   2.690 -0.9337  0.0378  0.5229
 7880TIP3    H223605   6.647   2.839   2.699 -1.2298  0.0952 -1.0992
 7881TIP3   OH223606   6.771   2.649   4.684 -0.3271 -0.1550  0.6282
 7881TIP3    H123607   6.731   2.676   4.767  0.6957  0.5242  0.9156
 7881TIP3    H223608   6.862   2.678   4.690 -0.2867  0.1061 -0.8368
 7882TIP3   OH223609   4.153   3.631   4.272 -0.6632 -0.2458 -0.5189
 7882TIP3    H123610   4.112   3.559   4.318 -0.3604  1.4221  2.6702
 7882TIP3    H223611   4.192   3.592   4.194 -3.4476 -2.8172 -0.7744
 7883TIP3   OH223612   4.530   5.261   4.498 -0.7533 -0.2776 -0.6868
 7883TIP3    H123613   4.456   5.246   4.440 -0.9818  0.3880 -0.5854
 7883TIP3    H223614   4.606   5.266   4.440 -0.8854 -0.2942 -0.8600
 7884TIP3   OH223615   6.727   6.759   1.084  0.6033 -0.2380 -0.6423
 7884TIP3    H123616   6.640   6.724   1.065  1.1297 -1.2147 -1.3498
 7884TIP3    H223617   6.749   6.812   1.008  0.4920  0.2892 -0.3096
 7885TIP3   OH223618   2.990   3.308   5.671  0.1990  0.3022  0.3117
 7885TIP3    H123619   2.968   3.306   5.764 -0.2957 -0.2121  0.1847
 7885TIP3    H223620   2.971   3.220   5.640  2.1234 -0.1042  0.1219
 7886TIP3   OH223621   2.961   2.303   5.365  0.6802  0.3629 -0.2837
 7886TIP3    H123622   2.893   2.342   5.310  0.2958  1.5771  1.0293
 7886TIP3    H223623   3.024   2.267   5.302 -0.8263 -0.2390 -1.5223
 7887TIP3   OH223624   1.256   1.228   2.600 -0.0685  1.1252 -0.1925
 7887TIP3    H123625   1.342   1.223   2.642  0.4066 -0.7045 -1.2846
 7887TIP3    H223626   1.194   1.240   2.672  0.9545  0.7058  0.7730
 7888TIP3   OH223627   0.272   3.189   3.596 -0.3834 -0.2724  0.3900
 7888TIP3    H123628   0.301   3.128   3.527  1.3889 -0.2849  1.0958
 7888TIP3    H223629   0.243   3.132   3.667  0.6601 -0.3172  0.7986
 7889TIP3   OH223630   4.430   4.141   2.735  0.1456  0.8209  0.1405
 7889TIP3    H123631   4.370   4.183   2.673  0.3174 -1.1867 -1.4800
 7889TIP3    H223632   4.512   4.189   2.724 -0.3328  1.6957  0.2320
 7890TIP3   OH223633   2.932   2.781   5.842 -0.3375 -0.2308  0.2683
 7890TIP3    H123634   2.876   2.712   5.807 -1.3671  1.4075 -1.5536
 7890TIP3    H223635   3.021   2.748   5.830 -0.7953 -2.2077  1.7255
 7891TIP3   OH223636   1.749   3.955   3.935 -0.1498  0.2056  0.1181
 7891TIP3    H123637   1.837   3.973   3.903 -0.6104  0.5504 -0.9842
 7891TIP3    H223638   1.724   3.872   3.895 -0.7098  0.6109 -0.3842
 7892TIP3   OH223639   5.325   1.794   0.910 -0.4775 -0.1813  0.4801
 7892TIP3    H123640   5.281   1.871   0.947 -1.7883 -0.4116 -0.5275
 7892TIP3    H223641   5.265   1.763   0.842  0.1778 -1.9089  0.6462
 7893TIP3   OH223642   1.683   4.016   1.942 -0.0834  0.6165  0.4539
 7893TIP3    H123643   1.646   4.102   1.922  0.1097  0.0691 -2.7085
 7893TIP3    H223644   1.606   3.960   1.955 -0.2700  0.6345 -0.5494
 7894TIP3   OH223645   4.097   3.758   0.353  0.1871 -0.0381  0.9906
 7894TIP3    H123646   4.023   3.815   0.372  0.1124  0.0732  0.4004
 7894TIP3    H223647   4.059   3.679   0.315  0.3924  0.1817  0.3198
 7895TIP3   OH223648   5.828   1.345   0.526  0.1430 -0.4552  0.2877
 7895TIP3    H123649   5.833   1.385   0.613  0.8681 -3.0424  1.5424
 7895TIP3    H223650   5.734   1.343   0.506  0.0563  1.3491  0.3862
 7896TIP3   OH223651   5.426   3.109   0.448 -0.0864  0.5614  0.1509
 7896TIP3    H123652   5.338   3.146   0.458 -0.4898  0.1694 -1.6317
 7896TIP3    H223653   5.416   3.017   0.473 -0.3390  0.3645 -0.6535
 7897TIP3   OH223654   6.696   1.942   3.717 -0.0374  0.0012 -0.1129
 7897TIP3    H123655   6.612   1.925   3.759  0.5514 -5.0030 -0.3467
 7897TIP3    H223656   6.675   1.954   3.625 -0.5450 -1.0826 -0.1478
 7898TIP3   OH223657   6.767   5.799   0.410  0.2976 -0.0485  0.2214
 7898TIP3    H123658   6.697   5.798   0.475  0.3880  0.3109  0.3288
 7898TIP3    H223659   6.761   5.715   0.366 -1.0538  0.4972 -0.6722
 7899TIP3   OH223660   3.533   0.189   1.217  0.0079 -0.5870 -0.0188
 7899TIP3    H123661   3.624   0.167   1.198  0.1841  0.4839 -0.4523
 7899TIP3    H223662   3.488   0.184   1.132  0.5708  3.0974 -0.6887
 7900TIP3   OH223663   2.181   1.208   1.380 -0.1994 -0.0745 -0.0880
 7900TIP3    H123664   2.164   1.152   1.455  0.6187 -1.4755 -0.9042
 7900TIP3    H223665   2.263   1.253   1.402  2.3522 -3.4949 -1.6634
 7901TIP3   OH223666   5.573   0.745   1.692  0.4108 -0.3349 -0.4704
 7901TIP3    H123667   5.620   0.716   1.770  2.0147 -2.2094 -2.0371
 7901TIP3    H223668   5.557   0.665   1.642  1.7093  1.0223 -3.2685
 7902TIP3   OH223669   4.623   2.550   4.917 -0.2112 -0.4344 -0.1944
 7902TIP3    H123670   4.605   2.629   4.866 -0.6878 -0.5048 -0.1398
 7902TIP3    H223671   4.676   2.580   4.991  0.8975 -0.4073 -0.9869
 7903TIP3   OH223672   0.569   4.094   5.129 -0.7268  0.1548 -0.4073
 7903TIP3    H123673   0.584   4.011   5.175  0.1651  1.1413  1.1833
 7903TIP3    H223674   0.475   4.108   5.136 -0.8856 -0.7028 -0.6819
 7904TIP3   OH223675   4.330   4.221   1.913 -0.2515  0.0272 -0.0340
 7904TIP3    H123676   4.251   4.245   1.865 -0.5187 -0.1874  0.2904
 7904TIP3    H223677   4.390   4.293   1.898 -0.8093  0.5983  0.4071
 7905TIP3   OH223678   6.784   0.000   3.317 -0.2558 -0.3250  0.1260
 7905TIP3    H123679   6.742   0.073   3.362 -3.0555 -1.8775  0.2360
 7905TIP3    H223680   6.800   0.033   3.228 -0.3393  0.7960  0.5077
 7906TIP3   OH223681   0.843   0.008   4.661  0.2923  0.0470 -0.3829
 7906TIP3    H123682   0.852   0.056   4.579  1.7461 -0.8180 -0.7668
 7906TIP3    H223683   0.928   0.018   4.704  0.1854 -1.0878  0.1244
 7907TIP3   OH223684   6.428   0.006   2.557 -0.1844 -0.6700  0.3792
 7907TIP3    H123685   6.348   0.054   2.578 -0.9397 -1.6605 -0.1008
 7907TIP3    H223686   6.457   0.043   2.474  0.1345  0.0174  0.7897
 7908TIP3   OH223687   3.761   4.124   3.944  0.3436 -0.5034 -0.1619
 7908TIP3    H123688   3.779   4.041   3.987 -0.4123 -1.0151 -0.7958
 7908TIP3    H223689   3.718   4.100   3.862 -1.5388  0.5316  0.4474
 7909TIP3   OH223690   4.328   1.450   0.339 -0.2574  0.3257  0.5288
 7909TIP3    H123691   4.349   1.531   0.292 -0.0118  0.7183  1.2997
 7909TIP3    H223692   4.305   1.388   0.270  1.9222  0.3183 -0.2917
 7910TIP3   OH223693   2.962   6.391   3.120 -0.1807  0.3704 -0.0147
 7910TIP3    H123694   3.007   6.466   3.082  2.7343 -1.4408 -0.4960
 7910TIP3    H223695   2.892   6.370   3.058  0.3876  1.3291 -1.0146
 7911TIP3   OH223696   3.896   6.407   0.907 -0.1794 -0.1004  0.1189
 7911TIP3    H123697   3.937   6.489   0.880 -1.0406 -0.3236 -2.0579
 7911TIP3    H223698   3.835   6.386   0.836 -0.6247 -2.1779  1.0413
 7912TIP3   OH223699   1.693   1.552   2.492  0.4988  0.4945 -0.0240
 7912TIP3    H123700   1.789   1.555   2.499  0.5675 -0.3985 -0.4763
 7912TIP3    H223701   1.676   1.484   2.427 -0.4422  0.8478 -0.1596
 7913TIP3   OH223702   3.750   4.898   5.525 -0.0549  0.1208 -0.3195
 7913TIP3    H123703   3.677   4.885   5.586  1.1802  0.3038  1.2548
 7913TIP3    H223704   3.745   4.990   5.500  0.2615  0.3933  0.6193
 7914TIP3   OH223705   6.794   5.568   0.622 -0.0978  0.2431  0.4185
 7914TIP3    H123706   6.728   5.513   0.664 -0.1308  1.0968  1.5495
 7914TIP3    H223707   6.781   5.655   0.660  0.0543  1.0171 -1.2135
 7915TIP3   OH223708   0.758   2.485   2.725 -0.4753 -0.1240  0.0686
 7915TIP3    H123709   0.838   2.433   2.716  0.6132  1.4093  0.5824
 7915TIP3    H223710   0.690   2.420   2.742  0.4377 -1.5675 -1.4441
 7916TIP3   OH223711   6.995   4.592   2.862  0.5158 -0.2710 -0.1707
 7916TIP3    H123712   7.087   4.617   2.863 -0.1944  2.7383 -0.8296
 7916TIP3    H223713   6.969   4.591   2.954  1.0707 -0.7635 -0.0097
 7917TIP3   OH223714   3.222   4.918   3.669  0.5455 -0.1653 -0.5557
 7917TIP3    H123715   3.190   4.889   3.754 -2.6482  0.7450 -1.2934
 7917TIP3    H223716   3.286   4.986   3.689 -1.2464  1.1395  1.2198
 7918TIP3   OH223717   6.939   5.172   2.949  0.1843 -0.0202 -0.1457
 7918TIP3    H123718   7.028   5.142   2.931 -0.5761 -2.3672 -0.4690
 7918TIP3    H223719   6.894   5.163   2.865 -0.8506 -0.9309  0.4858
 7919TIP3   OH223720   2.891   4.017   5.489 -0.1886 -0.1341  0.8204
 7919TIP3    H123721   2.841   3.936   5.483 -0.9085  0.3765 -0.3477
 7919TIP3    H223722   2.978   3.989   5.517 -0.3943 -1.3161  0.3397
 7920TIP3   OH223723   3.136   4.438   0.885  0.0909  0.0138 -0.2387
 7920TIP3    H123724   3.131   4.355   0.933 -0.0078  0.3878  0.3982
 7920TIP3    H223725   3.178   4.498   0.945 -1.2025  0.8424 -0.1360
 7921TIP3   OH223726   1.626   1.656   5.455 -0.5802 -0.0001 -0.1087
 7921TIP3    H123727   1.651   1.567   5.479  0.1906 -0.2422 -1.6363
 7921TIP3    H223728   1.549   1.644   5.399 -1.5536  0.4397  1.1106
 7922TIP3   OH223729   3.671   6.065   0.639 -0.1245  0.0973 -0.2835
 7922TIP3    H123730   3.601   6.013   0.680  0.4747  0.7308  1.6346
 7922TIP3    H223731   3.716   6.003   0.581 -0.9027 -0.8815  0.1260
 7923TIP3   OH223732   4.488   2.216   3.720  0.7260  0.3184  0.3309
 7923TIP3    H123733   4.576   2.240   3.748  0.3793  1.8579  0.1897
 7923TIP3    H223734   4.489   2.223   3.625  0.3379  0.7518  0.3558
 7924TIP3   OH223735   1.167   4.852   3.816  0.4072  0.1601 -0.4421
 7924TIP3    H123736   1.260   4.874   3.826  0.4272  0.3506 -1.0105
 7924TIP3    H223737   1.126   4.885   3.896  1.0421 -1.2049  0.5000
 7925TIP3   OH223738   7.061   6.103   4.665  0.0031 -0.2908  0.3983
 7925TIP3    H123739   7.065   6.199   4.656  1.0114 -0.2582  1.0005
 7925TIP3    H223740   7.001   6.075   4.596 -0.8345  0.8308  0.6411
 7926TIP3   OH223741   0.142   2.078   5.047  0.6534  1.1191 -0.1123
 7926TIP3    H123742   0.105   1.992   5.061  0.0966  0.8301 -2.8230
 7926TIP3    H223743   0.187   2.099   5.129 -1.8360 -0.3409  1.7570
 7927TIP3   OH223744  -0.019   5.146   2.762 -0.9172  0.3137 -0.3383
 7927TIP3    H123745  -0.050   5.236   2.768 -0.1742  0.5763 -0.4037
 7927TIP3    H223746   0.076   5.153   2.760 -0.7877 -0.5756  1.3550
 7928TIP3   OH223747   2.570   2.492   1.452  0.7431 -0.8637  0.0643
 7928TIP3    H123748   2.496   2.491   1.513 -1.0900  0.4983 -1.9831
 7928TIP3    H223749   2.597   2.584   1.449 -0.0501 -0.6379 -2.0082
 7929TIP3   OH223750   4.787   5.244   0.728 -0.0050  0.3352  0.1233
 7929TIP3    H123751   4.826   5.328   0.704  0.0347  0.1847 -0.3359
 7929TIP3    H223752   4.859   5.181   0.721 -0.0000  0.2799  0.6013
 7930TIP3   OH223753   5.223   5.886   5.154 -0.1378 -0.1745  0.1451
 7930TIP3    H123754   5.307   5.847   5.181 -0.3807 -0.6188  0.2649
 7930TIP3    H223755   5.200   5.945   5.225  0.3105  0.3140 -0.1088
 7931TIP3   OH223756   6.624   6.203   4.766  0.8954 -0.0801 -0.1329
 7931TIP3    H123757   6.659   6.288   4.740  0.2940  0.5075  0.8777
 7931TIP3    H223758   6.634   6.202   4.861 -1.1308 -0.1725  0.1262
 7932TIP3   OH223759   2.724   1.021   0.597  0.0366  0.0729 -0.4165
 7932TIP3    H123760   2.688   1.092   0.651 -0.0470  0.4398 -0.9489
 7932TIP3    H223761   2.778   0.970   0.658 -1.8846 -0.8912  0.5482
 7933TIP3   OH223762   4.053   3.707   1.495 -0.4287 -0.1015  0.1406
 7933TIP3    H123763   4.069   3.615   1.519  1.6637 -0.2537 -1.5187
 7933TIP3    H223764   3.991   3.738   1.561  0.5948 -2.0525  2.1882
 7934TIP3   OH223765   6.899   1.291   2.813 -0.0047  0.0943 -0.2347
 7934TIP3    H123766   6.914   1.306   2.719 -2.2016 -0.3342 -0.6989
 7934TIP3    H223767   6.812   1.327   2.829  0.1112 -0.3420  1.5457
 7935TIP3   OH223768   2.051   4.068   0.510 -0.1843  0.1846 -0.1909
 7935TIP3    H123769   2.005   4.141   0.470  0.1887  0.8573  0.5797
 7935TIP3    H223770   1.983   4.019   0.557 -1.0068 -1.7371 -3.1191
 7936TIP3   OH223771   5.467   6.587   0.752  0.1830  0.1213 -0.1774
 7936TIP3    H123772   5.400   6.545   0.699  0.3606  1.8239 -1.8384
 7936TIP3    H223773   5.422   6.660   0.795  0.3654 -0.4057  0.9622
 7937TIP3   OH223774   5.573   2.654   3.019 -0.1181 -0.4955  0.1161
 7937TIP3    H123775   5.497   2.703   3.052 -0.5811 -0.6426 -0.7107
 7937TIP3    H223776   5.556   2.644   2.926  1.3621  0.2470 -0.2463
 7938TIP3   OH223777   3.953   3.224   3.791 -0.0737  0.3890  0.2603
 7938TIP3    H123778   3.879   3.282   3.811  0.1917  0.5150  0.9040
 7938TIP3    H223779   3.924   3.172   3.717 -0.8026  0.4466  0.5041
 7939TIP3   OH223780   3.166   4.978   2.717 -0.1798  0.1444 -0.0803
 7939TIP3    H123781   3.233   4.913   2.736  1.5956  2.2432  1.3661
 7939TIP3    H223782   3.192   5.014   2.632  0.0533  0.4021  0.1002
 7940TIP3   OH223783   4.767   2.157   3.156  0.3238 -0.0011 -0.4021
 7940TIP3    H123784   4.788   2.063   3.155  1.2538  0.1222  1.3945
 7940TIP3    H223785   4.761   2.182   3.064 -0.4337 -1.9201 -0.9152
 7941TIP3   OH223786   2.799   2.872   3.393  0.4337  0.0019  0.6027
 7941TIP3    H123787   2.816   2.880   3.487  1.9536  1.7037  0.2352
 7941TIP3    H223788   2.846   2.945   3.354  0.7052 -1.2779 -1.6038
 7942TIP3   OH223789   1.977   5.758   0.360 -0.0971 -0.8894  0.7425
 7942TIP3    H123790   1.968   5.665   0.383  1.7667 -1.5541 -0.8930
 7942TIP3    H223791   2.069   5.767   0.335 -0.6757  0.9812 -0.9385
 7943TIP3   OH223792   6.793   5.094   3.890 -0.0174 -0.1382 -0.7839
 7943TIP3    H123793   6.710   5.081   3.844  0.1648  0.1584 -1.2101
 7943TIP3    H223794   6.784   5.180   3.932 -0.9902 -1.3015  1.5249
 7944TIP3   OH223795   4.063   1.693   5.242  0.1421  0.8608  0.3453
 7944TIP3    H123796   4.020   1.762   5.192  0.7373  1.3813  0.5467
 7944TIP3    H223797   4.014   1.689   5.324  0.2168  1.1692  0.4065
 7945TIP3   OH223798   5.104   0.535   4.618 -0.1541  0.4187 -0.3342
 7945TIP3    H123799   5.134   0.519   4.707  0.6906  1.1484 -0.4741
 7945TIP3    H223800   5.009   0.520   4.621 -0.1070  0.2898  0.6425
 7946TIP3   OH223801   4.728   2.412   3.268 -0.0427 -0.3673  0.2075
 7946TIP3    H123802   4.752   2.447   3.183 -0.7266 -1.0495 -0.2844
 7946TIP3    H223803   4.718   2.318   3.253  1.3833 -0.7457  1.4069
 7947TIP3   OH223804   6.578   3.580   0.021 -0.1358  0.2667  0.1918
 7947TIP3    H123805   6.566   3.538   0.106  0.2203  0.0452  0.1372
 7947TIP3    H223806   6.522   3.531  -0.039  0.5905 -0.4109  0.0441
 7948TIP3   OH223807   1.167   2.040   5.081  0.0312 -0.0302  0.4046
 7948TIP3    H123808   1.248   2.092   5.078  0.1573 -0.2799 -1.5207
 7948TIP3    H223809   1.195   1.950   5.064 -0.4039 -0.5125  2.0340
 7949TIP3   OH223810   3.739   0.800   2.883  0.5077 -0.5562  0.0245
 7949TIP3    H123811   3.809   0.863   2.865  0.4336  0.3123  2.4437
 7949TIP3    H223812   3.745   0.783   2.977 -1.0311 -2.3346 -0.1268
 7950TIP3   OH223813   2.238   3.442   4.311  0.3146  0.3301  0.2226
 7950TIP3    H123814   2.233   3.527   4.354  0.9575  0.2218  0.5189
 7950TIP3    H223815   2.210   3.380   4.377  0.5411  0.2427  0.2383
 7951TIP3   OH223816   5.183   3.591   1.433  0.3867 -0.0067 -0.2976
 7951TIP3    H123817   5.214   3.597   1.342 -0.8999 -0.6205 -0.8066
 7951TIP3    H223818   5.091   3.567   1.425  0.3761 -0.5498  1.1965
 7952TIP3   OH223819   1.260   3.816   1.715 -0.3383 -0.0286 -0.0842
 7952TIP3    H123820   1.237   3.905   1.689  1.9307  0.6749  0.0379
 7952TIP3    H223821   1.303   3.826   1.800  0.3818 -1.1417 -0.2918
 7953TIP3   OH223822   6.949   0.162   2.532 -0.3945 -0.1049 -0.1292
 7953TIP3    H123823   6.949   0.159   2.628 -4.3224 -0.3991  0.0191
 7953TIP3    H223824   7.019   0.102   2.506  1.1240  0.3815  2.5081
 7954TIP3   OH223825   2.889   3.855   2.051  0.2198 -0.2929 -0.4797
 7954TIP3    H123826   2.961   3.894   2.101 -0.6088 -1.7961  2.1261
 7954TIP3    H223827   2.871   3.918   1.982  1.2363  2.2241  1.3766
 7955TIP3   OH223828   2.827   2.648   3.045  0.2569  0.3858 -0.3068
 7955TIP3    H123829   2.782   2.678   2.967  0.2658  0.6556 -0.2091
 7955TIP3    H223830   2.897   2.712   3.058  0.6164  0.0180 -0.4106
 7956TIP3   OH223831   1.619   1.771   3.440 -0.9199 -0.0863  0.4245
 7956TIP3    H123832   1.586   1.699   3.387  0.4867 -0.3992 -0.0566
 7956TIP3    H223833   1.598   1.850   3.389  1.6022 -0.4450 -1.3747
 7957TIP3   OH223834   5.858   0.998   3.996 -0.1483 -0.3533  0.0004
 7957TIP3    H123835   5.868   0.998   3.901 -1.5117 -1.1592 -0.1668
 7957TIP3    H223836   5.925   1.059   4.027 -2.2787  3.2636 -1.7812
 7958TIP3   OH223837   4.299   0.473   2.463 -0.1500 -0.1108 -0.0807
 7958TIP3    H123838   4.364   0.531   2.423  1.6941 -0.8187  1.7094
 7958TIP3    H223839   4.216   0.500   2.425  0.6924  3.3116  0.1912
 7959TIP3   OH223840   6.407   3.597   0.927  0.0765  0.1318 -0.3185
 7959TIP3    H123841   6.379   3.673   0.875  0.3719 -0.9991 -2.2522
 7959TIP3    H223842   6.358   3.604   1.009  0.1109  2.3968 -0.4210
 7960TIP3   OH223843   5.320   1.749   3.293  0.0779 -0.2336 -0.1319
 7960TIP3    H123844   5.374   1.819   3.257 -1.5773  0.9112 -0.5180
 7960TIP3    H223845   5.297   1.695   3.217  1.0453 -1.0088  0.1080
 7961TIP3   OH223846   2.297   2.849   2.365 -0.3398 -0.7042  0.5704
 7961TIP3    H123847   2.204   2.829   2.378 -0.4412 -0.6177  0.0275
 7961TIP3    H223848   2.344   2.780   2.413 -0.6839 -0.6865  0.9329
 7962TIP3   OH223849   6.576   4.381   2.847  0.2959 -0.4321  0.4221
 7962TIP3    H123850   6.558   4.412   2.759  1.3112 -0.3995  0.2183
 7962TIP3    H223851   6.665   4.346   2.843  0.7628  0.5110  1.6645
 7963TIP3   OH223852   2.665   0.869   1.900  0.0736 -0.2363  0.1903
 7963TIP3    H123853   2.655   0.900   1.990 -0.0843 -1.4666  0.6133
 7963TIP3    H223854   2.620   0.785   1.899  1.8958 -1.2396 -0.4827
 7964TIP3   OH223855   5.926   0.073   4.956  0.0355 -0.7930 -0.1943
 7964TIP3    H123856   5.850   0.131   4.963  0.6976  0.1717 -0.6851
 7964TIP3    H223857   5.912   0.007   5.024  0.6997  1.6642  2.5662
 7965TIP3   OH223858   2.875   6.131   1.752  0.4156 -0.4088 -0.2940
 7965TIP3    H123859   2.788   6.151   1.786  0.6100  1.3800 -0.7299
 7965TIP3    H223860   2.889   6.039   1.772 -1.3489 -0.5753  0.2736
 7966TIP3   OH223861   3.552   2.137   3.819 -0.2147  0.7016  0.4794
 7966TIP3    H123862   3.545   2.091   3.903 -1.5057  0.1696  0.0968
 7966TIP3    H223863   3.513   2.077   3.755  4.0360 -0.6496 -1.2629
 7967TIP3   OH223864   2.091   0.860   5.538 -0.5054 -0.5696  0.4663
 7967TIP3    H123865   2.082   0.952   5.565  0.1165 -0.0254 -1.0940
 7967TIP3    H223866   2.081   0.811   5.619  0.3259  0.9386  1.5442
 7968TIP3   OH223867   3.899   3.451   1.735  0.3349  0.1350  0.0311
 7968TIP3    H123868   3.905   3.371   1.787  0.5610  0.1942  0.0951
 7968TIP3    H223869   3.958   3.437   1.661  1.7615  0.9489  0.9774
 7969TIP3   OH223870   2.431   1.322   1.500  0.3054 -0.7688  0.1227
 7969TIP3    H123871   2.454   1.358   1.414 -1.7688  0.0687 -0.1316
 7969TIP3    H223872   2.511   1.329   1.551  0.9088  1.0318 -0.9882
 7970TIP3   OH223873   4.958   5.807   2.787 -0.3100  0.4756 -0.3092
 7970TIP3    H123874   4.978   5.714   2.798 -2.6416 -0.0253  0.2092
 7970TIP3    H223875   4.972   5.824   2.694 -0.9198 -0.6788 -0.6277
 7971TIP3   OH223876   6.468   3.526   2.779  0.4786 -1.0627 -0.2652
 7971TIP3    H123877   6.444   3.494   2.692  1.2966 -1.9047 -0.1994
 7971TIP3    H223878   6.526   3.458   2.814  2.1851  0.4554 -0.0575
 7972TIP3   OH223879   7.026   4.367   2.685 -0.0365  0.4534  0.5355
 7972TIP3    H123880   7.081   4.356   2.608 -1.6492  0.8074 -0.7253
 7972TIP3    H223881   6.982   4.451   2.670 -1.9479 -0.4592  0.7808
 7973TIP3   OH223882   2.323   0.218   5.536 -0.1894  0.2594 -0.2819
 7973TIP3    H123883   2.320   0.311   5.560 -0.5700  0.3316 -0.6014
 7973TIP3    H223884   2.268   0.212   5.457 -2.9360 -0.7943  1.5717
 7974TIP3   OH223885   2.998   3.807   2.450 -0.4393  0.0154  0.4646
 7974TIP3    H123886   2.998   3.825   2.544  1.7562  2.4525  0.1257
 7974TIP3    H223887   3.070   3.747   2.436 -0.8440 -0.4471  0.3367
 7975TIP3   OH223888   5.321   0.513   3.762  0.0022  0.0076 -0.4602
 7975TIP3    H123889   5.341   0.526   3.855  1.7087  0.2625 -0.8334
 7975TIP3    H223890   5.247   0.572   3.745 -0.9345 -0.7100  0.9179
 7976TIP3   OH223891   4.878   2.948   4.460 -0.3891 -0.4468 -0.6758
 7976TIP3    H123892   4.845   2.880   4.402  2.0219 -2.3945  0.0393
 7976TIP3    H223893   4.972   2.930   4.467  0.0548  1.9800  0.8845
 7977TIP3   OH223894   6.496   1.635   1.503 -0.4233 -0.0518  0.8376
 7977TIP3    H123895   6.534   1.695   1.567  0.3473 -0.0323  0.3726
 7977TIP3    H223896   6.407   1.620   1.535  0.1517 -0.5762  2.2878
 7978TIP3   OH223897   0.191   6.593   3.235  0.0714 -0.4839  0.5895
 7978TIP3    H123898   0.111   6.597   3.182 -0.3148 -1.9848  1.0186
 7978TIP3    H223899   0.190   6.673   3.286  0.2866  0.8676 -1.4068
 7979TIP3   OH223900   3.384   5.062   3.178  0.1163  0.4066  0.1622
 7979TIP3    H123901   3.348   5.081   3.265 -0.2653 -0.3160  0.1651
 7979TIP3    H223902   3.478   5.069   3.189  0.2452 -2.1096  1.2560
 7980TIP3   OH223903   0.117   3.034   5.222 -0.7489  0.9352  0.3472
 7980TIP3    H123904   0.065   3.061   5.146 -0.0881 -1.3415 -1.0119
 7980TIP3    H223905   0.053   3.001   5.285 -1.1202 -0.5901 -0.7716
 7981TIP3   OH223906   0.333   2.315   3.490  0.6487  0.3843 -0.1202
 7981TIP3    H123907   0.291   2.255   3.429  1.6224  0.5699 -1.0021
 7981TIP3    H223908   0.265   2.381   3.509 -0.0750 -0.3846  0.0197
 7982TIP3   OH223909   5.537   1.520   4.154  0.1928  0.2816 -0.2014
 7982TIP3    H123910   5.530   1.425   4.159 -0.8234  0.3868  0.6281
 7982TIP3    H223911   5.524   1.550   4.244 -2.6729  1.3825 -0.8738
 7983TIP3   OH223912   5.274   2.772   5.026  0.2504  0.4395  0.0773
 7983TIP3    H123913   5.211   2.818   4.971  1.9908  1.7677 -0.9002
 7983TIP3    H223914   5.235   2.686   5.040 -1.2808  0.8477 -1.3551
 7984TIP3   OH223915   3.119   2.006   4.352  0.0052  0.2989 -0.0795
 7984TIP3    H123916   3.171   1.926   4.354  1.3429  1.1483  2.3504
 7984TIP3    H223917   3.044   1.988   4.409 -1.2957 -0.1520 -1.8293
 7985TIP3   OH223918   4.847   0.459   4.664  0.1449 -0.2000  0.4095
 7985TIP3    H123919   4.775   0.497   4.714 -1.1105 -1.6973 -0.1881
 7985TIP3    H223920   4.887   0.396   4.724  0.0554 -0.3843  0.2773
 7986TIP3   OH223921   1.484   2.591   0.514  0.6597 -0.0451 -0.5220
 7986TIP3    H123922   1.562   2.619   0.465 -1.1926 -0.1982 -3.8411
 7986TIP3    H223923   1.419   2.659   0.498 -0.4197 -0.6944  0.8415
 7987TIP3   OH223924   4.080   3.556   2.112  0.4869 -0.3401 -0.4224
 7987TIP3    H123925   4.046   3.557   2.023 -0.6734 -0.0366 -0.0009
 7987TIP3    H223926   4.119   3.642   2.123 -1.5702  0.5945  0.1269
 7988TIP3   OH223927   2.943   5.927   4.492  0.3130  0.3185 -0.2642
 7988TIP3    H123928   2.849   5.914   4.501  0.1807  0.3966 -1.3393
 7988TIP3    H223929   2.982   5.845   4.522  0.0620  1.0853  2.3546
 7989TIP3   OH223930   3.301   4.751   4.995  0.4522  0.0151  0.6836
 7989TIP3    H123931   3.210   4.734   5.017 -0.1109 -0.8785 -1.9838
 7989TIP3    H223932   3.351   4.689   5.047 -0.7630 -1.9480 -0.3849
 7990TIP3   OH223933   0.759   3.925   0.344 -0.1514 -0.1705 -0.6940
 7990TIP3    H123934   0.683   3.963   0.299 -0.6894  0.0729  0.3974
 7990TIP3    H223935   0.731   3.914   0.435  1.4973  1.0087  0.0044
 7991TIP3   OH223936   6.950   5.466   0.155 -0.0764 -0.4068 -0.2266
 7991TIP3    H123937   6.971   5.513   0.074  1.6011  0.2381  0.5430
 7991TIP3    H223938   7.028   5.475   0.209 -1.0798 -1.0171  1.3921
 7992TIP3   OH223939   0.932   5.829   5.296 -0.3679 -0.5624 -0.6765
 7992TIP3    H123940   0.955   5.852   5.386  0.1530  1.7963 -1.3336
 7992TIP3    H223941   0.838   5.814   5.297 -0.2087 -1.6710  0.4267
 7993TIP3   OH223942   1.462   5.015   5.445  0.2644  0.3809  0.1605
 7993TIP3    H123943   1.404   4.942   5.421  0.3353  0.1979  0.5338
 7993TIP3    H223944   1.408   5.093   5.434  0.4205  0.3457 -0.9968
 7994TIP3   OH223945   4.537   4.027   1.012 -0.0501  0.3998 -0.0198
 7994TIP3    H123946   4.629   4.055   1.014 -0.4782  2.0948 -1.8788
 7994TIP3    H223947   4.503   4.053   1.098  0.7818  1.3741  0.0379
 7995TIP3   OH223948   0.433   2.332   3.033 -0.1105  0.0795 -0.3786
 7995TIP3    H123949   0.369   2.266   3.006 -0.1571  0.7006 -1.8614
 7995TIP3    H223950   0.382   2.412   3.043  0.2117  0.2648 -0.2112
 7996TIP3   OH223951   3.833   4.157   4.368 -0.1292 -0.0616 -0.0203
 7996TIP3    H123952   3.768   4.124   4.306 -1.1089  2.0436 -0.2333
 7996TIP3    H223953   3.898   4.201   4.314  0.0471  0.1135  0.3295
 7997TIP3   OH223954   1.035   4.153   1.184  0.0485 -0.0881  0.2090
 7997TIP3    H123955   1.056   4.159   1.091  0.1831  0.2719  0.2600
 7997TIP3    H223956   0.946   4.118   1.186 -0.4749  1.1753 -0.1011
 7998TIP3   OH223957   1.714   2.222   0.072  0.1938 -0.3264 -0.0640
 7998TIP3    H123958   1.645   2.195   0.011 -0.2522  0.3398  0.1260
 7998TIP3    H223959   1.794   2.223   0.019  0.2814 -2.1675 -0.0277
 7999TIP3   OH223960   0.895   2.770   5.460  0.1821 -0.3119  0.0086
 7999TIP3    H123961   0.970   2.744   5.513  0.2278 -0.5203 -0.1565
 7999TIP3    H223962   0.819   2.736   5.507  0.0142  1.6122  1.2390
 8000TIP3   OH223963   5.197   1.999   2.691  0.5067 -0.3140  0.5917
 8000TIP3    H123964   5.253   1.978   2.766 -1.1412  1.3643  2.3917
 8000TIP3    H223965   5.141   1.922   2.680  1.4429 -0.9859  0.3612
 8001TIP3   OH223966   2.819   3.810   1.572 -0.0926  0.3244  0.6576
 8001TIP3    H123967   2.743   3.865   1.557  1.7267  2.5028 -1.5408
 8001TIP3    H223968   2.806   3.735   1.513  0.3470  1.7218 -1.3014
 8002TIP3   OH223969   5.535   2.129   2.524  0.1765  0.0763 -0.1721
 8002TIP3    H123970   5.630   2.116   2.516  0.7481  2.0181  2.2782
 8002TIP3    H223971   5.500   2.041   2.538  1.6713 -0.6106 -0.5278
 8003TIP3   OH223972   4.445   6.419   2.357  0.4390  0.3433  0.4558
 8003TIP3    H123973   4.359   6.436   2.395  0.2731  0.1651  0.1683
 8003TIP3    H223974   4.504   6.412   2.432 -0.4420 -3.4536  1.0065
 8004TIP3   OH223975   1.787   3.482   0.390  0.1848 -0.2334  0.4436
 8004TIP3    H123976   1.700   3.456   0.419 -1.3857  1.8101 -1.9733
 8004TIP3    H223977   1.833   3.399   0.374 -2.1984 -1.4468 -0.5537
 8005TIP3   OH223978   0.426   4.472   5.422  0.0950 -0.2711 -0.0773
 8005TIP3    H123979   0.425   4.377   5.430  1.5603 -0.2146  1.3066
 8005TIP3    H223980   0.516   4.497   5.440  0.1470  1.2932 -2.1392
 8006TIP3   OH223981   4.099   2.986   0.761  0.5323  0.2942 -0.0747
 8006TIP3    H123982   4.160   2.932   0.812 -0.0746  1.7105  2.2967
 8006TIP3    H223983   4.046   2.923   0.713  3.0061 -1.0223 -1.3006
 8007TIP3   OH223984   6.813   1.681   0.344 -0.1300  0.2795  0.2939
 8007TIP3    H123985   6.820   1.718   0.432 -3.0085  0.5525  0.5041
 8007TIP3    H223986   6.816   1.586   0.357  2.4542  0.2723  0.2642
 8008TIP3   OH223987   1.974   1.584   2.560 -0.0255  0.4539 -0.5409
 8008TIP3    H123988   2.029   1.587   2.638 -0.0945  0.1188 -0.4788
 8008TIP3    H223989   2.000   1.504   2.515 -1.8348 -0.7793  0.5102
 8009TIP3   OH223990   0.371   0.928   5.063  0.4095  0.7594  0.1468
 8009TIP3    H123991   0.405   1.013   5.037  2.1349 -0.0525 -0.4093
 8009TIP3    H223992   0.405   0.914   5.151  0.9291  0.2514 -0.1278
 8010TIP3   OH223993   1.679   1.144   2.546 -0.2709  0.4533  0.3832
 8010TIP3    H123994   1.731   1.177   2.473 -1.4035  0.5405 -0.4074
 8010TIP3    H223995   1.637   1.221   2.583 -0.1146  0.3387  0.8080
 8011TIP3   OH223996   5.411   6.411   2.096  0.4783 -0.7284  0.2202
 8011TIP3    H123997   5.355   6.366   2.159 -1.2216  1.0998  0.1301
 8011TIP3    H223998   5.360   6.411   2.014  0.1585  1.6911  0.3505
 8012TIP3   OH223999   0.807   1.380   3.859  0.5981 -0.3882 -0.0013
 8012TIP3    H124000   0.832   1.316   3.925 -0.2398 -1.1253 -0.3677
 8012TIP3    H224001   0.886   1.395   3.808  0.5536 -2.0373 -0.6366
 8013TIP3   OH224002   2.234   3.930   4.523  0.4491  0.4894  0.2793
 8013TIP3    H124003   2.152   3.980   4.518  0.5505  0.6355  0.1001
 8013TIP3    H224004   2.300   3.988   4.484  0.5142  0.1005 -0.1832
 8014TIP3   OH224005   1.773   3.021   1.898  0.3194  0.0363 -0.2316
 8014TIP3    H124006   1.848   2.966   1.923 -0.6943 -1.0413  0.5651
 8014TIP3    H224007   1.784   3.102   1.948  1.3101  0.1771 -0.6538
 8015TIP3   OH224008   0.922   5.265   4.436 -0.3598 -0.1244 -0.7939
 8015TIP3    H124009   0.926   5.170   4.442 -0.3249 -0.0588  0.6586
 8015TIP3    H224010   0.848   5.283   4.379 -1.5339 -1.0177  0.3927
 8016TIP3   OH224011   4.985   0.644   4.060  0.0903  0.4015 -0.6486
 8016TIP3    H124012   5.032   0.575   4.107 -0.1377  0.7958  0.1930
 8016TIP3    H224013   4.893   0.618   4.066 -0.0605  1.0764  0.2226
 8017TIP3   OH224014   4.486   6.400   2.978  0.1716  0.3664 -0.6676
 8017TIP3    H124015   4.455   6.349   2.903 -0.1640  0.9946 -0.9681
 8017TIP3    H224016   4.449   6.487   2.964  0.0122  0.4609  0.2888
 8018TIP3   OH224017   3.835   3.372   0.604  0.0832 -0.3747  0.2234
 8018TIP3    H124018   3.923   3.336   0.606  0.3719  0.2581 -0.5977
 8018TIP3    H224019   3.807   3.372   0.696  0.5820 -1.4140  0.3823
 8019TIP3   OH224020   3.290   4.768   2.402  0.2141 -0.5416  0.1652
 8019TIP3    H124021   3.262   4.724   2.482  1.0997 -2.4383 -0.5272
 8019TIP3    H224022   3.350   4.837   2.432 -0.4814 -0.3602  1.1957
 8020TIP3   OH224023   1.682   2.208   2.359  0.3085 -0.0808 -0.1825
 8020TIP3    H124024   1.664   2.137   2.421 -1.8911  0.0595 -0.6081
 8020TIP3    H224025   1.606   2.211   2.302  0.1236  2.8504  0.0497
 8021TIP3   OH224026   6.990   0.147   1.928 -0.1243 -0.0071 -0.1971
 8021TIP3    H124027   6.952   0.129   1.842 -1.6905 -1.5827  0.7567
 8021TIP3    H224028   6.978   0.242   1.940 -0.7423  0.0732 -1.3246
 8022TIP3   OH224029   6.505   0.535   3.077  0.1538  0.0397  0.4398
 8022TIP3    H124030   6.437   0.486   3.122  0.6236 -1.8239 -0.7510
 8022TIP3    H224031   6.458   0.583   3.008 -0.3140  1.3443  1.6315
 8023TIP3   OH224032   5.480   5.361   1.423  0.0414  0.3396 -0.5123
 8023TIP3    H124033   5.541   5.355   1.349  1.9050  2.6314  0.6813
 8023TIP3    H224034   5.473   5.272   1.456  1.0301 -0.3385 -2.0352
 8024TIP3   OH224035   0.486   0.643   4.704  0.1336  0.5493 -0.2096
 8024TIP3    H124036   0.436   0.649   4.785  1.0769  2.2423  0.2952
 8024TIP3    H224037   0.466   0.555   4.670  0.0121 -0.3512  2.0294
 8025TIP3   OH224038   1.733   3.202   3.145 -1.0254 -0.7156  0.3670
 8025TIP3    H124039   1.754   3.223   3.054 -0.1237  1.9391  1.1038
 8025TIP3    H224040   1.648   3.242   3.161  0.1527  1.5367  1.4538
 8026TIP3   OH224041   2.836   1.644   4.517  0.2676 -0.3050  0.3816
 8026TIP3    H124042   2.858   1.585   4.445 -0.9681 -1.3778  0.8305
 8026TIP3    H224043   2.769   1.702   4.481 -1.3175 -1.6835  0.9631
 8027TIP3   OH224044   6.133   2.400   1.077 -0.4532  0.0166  0.1889
 8027TIP3    H124045   6.160   2.316   1.039  0.5432  0.4175 -0.0223
 8027TIP3    H224046   6.184   2.465   1.029 -1.5306  0.7815  0.0631
 8028TIP3   OH224047   1.752   5.388   3.794  0.0830 -0.2432 -0.4576
 8028TIP3    H124048   1.812   5.390   3.719 -1.1151 -1.4473 -1.4922
 8028TIP3    H224049   1.741   5.480   3.819  2.2926  0.0101 -0.2559
 8029TIP3   OH224050   0.116   6.367   1.791 -0.1425 -0.1947  0.2660
 8029TIP3    H124051   0.119   6.456   1.755 -1.0283 -0.2680 -0.0172
 8029TIP3    H224052   0.049   6.323   1.739  1.5520 -1.5906 -0.8426
 8030TIP3   OH224053   3.177   0.489   2.024 -0.3407  0.6372 -0.5313
 8030TIP3    H124054   3.094   0.452   1.993 -0.4219 -0.2951  0.6911
 8030TIP3    H224055   3.156   0.528   2.109  0.1698  1.7951 -0.9105
 8031TIP3   OH224056   4.483   6.641   4.511 -0.5750 -0.1269  0.2237
 8031TIP3    H124057   4.433   6.722   4.519  0.1244  0.6501 -2.3975
 8031TIP3    H224058   4.427   6.581   4.463  0.5695  0.4601 -1.9747
 8032TIP3   OH224059   3.648   1.122   4.703 -0.6210  0.8094  0.1115
 8032TIP3    H124060   3.601   1.042   4.729 -0.2582  0.3204 -0.6890
 8032TIP3    H224061   3.584   1.192   4.714 -1.7230  0.0916 -1.4038
 8033TIP3   OH224062   6.995   3.853   1.666 -0.9949 -0.2364 -0.1694
 8033TIP3    H124063   6.914   3.802   1.658 -1.1187 -0.0022 -0.4192
 8033TIP3    H224064   6.980   3.930   1.611 -0.5965 -0.1990 -0.2263
 8034TIP3   OH224065   2.788   4.918   3.998  0.0957 -0.1239 -0.2766
 8034TIP3    H124066   2.793   4.829   3.962 -0.2935 -0.3541  0.2313
 8034TIP3    H224067   2.875   4.935   4.033  0.1305 -0.3548 -0.2510
 8035TIP3   OH224068   3.280   6.583   1.925  0.1864 -0.2337  0.7285
 8035TIP3    H124069   3.299   6.512   1.986  1.0698 -0.8723 -0.2410
 8035TIP3    H224070   3.366   6.611   1.893 -0.1502  1.3090  1.1101
 8036TIP3   OH224071   5.661   3.143   2.004 -0.4774 -0.7107 -0.1950
 8036TIP3    H124072   5.589   3.206   1.995 -1.1941 -1.5870 -0.6599
 8036TIP3    H224073   5.736   3.197   2.030 -1.2546  0.2356  0.1522
 8037TIP3   OH224074   6.549   2.061   4.787  0.0920  0.3959  0.0493
 8037TIP3    H124075   6.560   2.089   4.696  0.8858  0.8457  0.2783
 8037TIP3    H224076   6.635   2.029   4.813  0.1743  1.3189  0.9882
 8038TIP3   OH224077   2.862   5.629   0.235 -0.1687  0.3382 -0.2692
 8038TIP3    H124078   2.953   5.598   0.231 -0.9649 -2.5645  1.3283
 8038TIP3    H224079   2.852   5.660   0.325 -0.8810  0.2574 -0.3174
 8039TIP3   OH224080   0.250   3.827   5.541  0.9087 -0.1733  0.0995
 8039TIP3    H124081   0.194   3.763   5.586 -0.6628 -0.6490 -2.3302
 8039TIP3    H224082   0.206   3.911   5.553 -0.1588 -0.4761 -1.4140
 8040TIP3   OH224083   2.470   3.450   2.648  0.1756  0.2037  0.3268
 8040TIP3    H124084   2.457   3.527   2.704  0.5830 -1.4812  2.9050
 8040TIP3    H224085   2.394   3.395   2.664 -0.1440  0.0433 -1.5410
 8041TIP3   OH224086   0.336   5.116   1.776 -0.2886 -0.5742 -0.1093
 8041TIP3    H124087   0.374   5.065   1.848 -0.9478 -1.1829 -0.1785
 8041TIP3    H224088   0.243   5.091   1.776 -0.7719  1.1016  0.2515
 8042TIP3   OH224089   4.133   1.970   1.106  0.2432  0.6660 -0.0475
 8042TIP3    H124090   4.176   2.024   1.172 -0.8050  0.4202  0.8670
 8042TIP3    H224091   4.050   1.944   1.146  0.1151 -0.4920 -0.9950
 8043TIP3   OH224092   0.199   2.901   4.802 -0.1054  0.0829 -0.1710
 8043TIP3    H124093   0.226   2.925   4.713  1.9774  2.2569  0.9520
 8043TIP3    H224094   0.240   2.815   4.816 -1.0148 -0.6096 -1.4899
 8044TIP3   OH224095   1.128   1.120   3.631 -0.6564  0.2201 -0.1718
 8044TIP3    H124096   1.190   1.138   3.701 -1.1947 -0.7690  0.5720
 8044TIP3    H224097   1.123   1.025   3.626 -2.0690  0.2669 -0.2462
 8045TIP3   OH224098   0.055   0.019   4.517  0.6494  0.3154 -0.6394
 8045TIP3    H124099   0.037   0.046   4.428  0.3733 -0.0974 -0.7111
 8045TIP3    H224100  -0.025   0.037   4.565  0.3954 -0.5295 -0.7282
 8046TIP3   OH224101   0.656   3.341   0.545  0.2281  0.2509  0.1591
 8046TIP3    H124102   0.572   3.296   0.559 -0.4187  1.0267 -0.9954
 8046TIP3    H224103   0.688   3.305   0.462  1.3774 -0.5140  0.9172
 8047TIP3   OH224104   1.237   1.048   2.401  0.6016 -0.3292  0.9387
 8047TIP3    H124105   1.145   1.046   2.374  0.9367  1.1347 -0.4213
 8047TIP3    H224106   1.240   1.113   2.471  0.8659  0.9714 -0.2394
 8048TIP3   OH224107   5.968   0.397   5.655  0.0161  0.0793  0.4952
 8048TIP3    H124108   5.906   0.469   5.645  0.9456  0.5594 -3.8914
 8048TIP3    H224109   6.054   0.440   5.660  0.4911 -0.6126 -1.0286
 8049TIP3   OH224110   0.618   2.905   1.126 -0.0523  0.0260  0.0825
 8049TIP3    H124111   0.626   2.836   1.192 -1.7566  0.6744  1.0113
 8049TIP3    H224112   0.524   2.912   1.109  0.1364  1.6874 -0.4590
 8050TIP3   OH224113   2.497   4.592   2.006  0.0159 -0.1587  0.0345
 8050TIP3    H124114   2.474   4.567   1.916 -1.9740  2.3896 -0.2758
 8050TIP3    H224115   2.499   4.688   2.005  1.2138 -0.0713  2.4644
 8051TIP3   OH224116   2.517   1.593   2.820 -1.0436 -0.5244  0.2634
 8051TIP3    H124117   2.504   1.518   2.878  1.2208 -1.1618  0.0552
 8051TIP3    H224118   2.570   1.559   2.749  0.0656  1.2638  0.1687
 8052TIP3   OH224119   6.746   2.027   2.104  0.4286  0.3765  0.4707
 8052TIP3    H124120   6.832   2.036   2.062  0.1674 -3.1295 -1.1504
 8052TIP3    H224121   6.684   2.057   2.037  0.2455 -1.0149 -0.0213
 8053TIP3   OH224122   4.416   2.917   2.926  0.0500 -0.2356  0.0778
 8053TIP3    H124123   4.506   2.888   2.912  0.2126  0.8534 -1.3291
 8053TIP3    H224124   4.363   2.838   2.917  0.9315 -1.1154  2.1401
 8054TIP3   OH224125   4.009   1.978   1.950  0.3735  0.7916  0.4563
 8054TIP3    H124126   3.917   1.959   1.971 -0.1103  3.4512  1.0761
 8054TIP3    H224127   4.059   1.932   2.017 -0.4793 -0.5556  0.2118
 8055TIP3   OH224128   3.521   2.978   0.903 -0.0620 -0.4493 -0.4444
 8055TIP3    H124129   3.540   3.063   0.943 -0.5449 -1.4737  2.2049
 8055TIP3    H224130   3.481   2.999   0.819 -0.8121  1.9889  0.4383
 8056TIP3   OH224131   2.896   3.311   3.221  0.5599 -0.1181 -0.3565
 8056TIP3    H124132   2.840   3.345   3.151 -1.3613 -1.0958  0.6344
 8056TIP3    H224133   2.953   3.384   3.243 -1.6132  1.6174 -0.1158
 8057TIP3   OH224134   5.972   5.685   4.454 -0.0456  0.5679 -0.5701
 8057TIP3    H124135   5.888   5.718   4.422  1.2178  2.5819 -2.0471
 8057TIP3    H224136   5.985   5.603   4.407 -2.2921 -1.1799  1.6009
 8058TIP3   OH224137   4.294   0.801   0.333  0.5300 -0.5650 -0.3407
 8058TIP3    H124138   4.261   0.803   0.423  0.5315  0.5347 -0.3544
 8058TIP3    H224139   4.326   0.890   0.318  0.0205 -0.5844 -1.6173
 8059TIP3   OH224140   5.327   0.962   2.513 -0.0355 -0.0194  0.1069
 8059TIP3    H124141   5.395   0.940   2.577  0.5076  1.0693 -0.0713
 8059TIP3    H224142   5.375   1.001   2.441 -0.7337 -0.4667 -0.6136
 8060TIP3   OH224143   5.841   6.347   5.479 -0.1057  0.1331 -0.4976
 8060TIP3    H124144   5.803   6.260   5.484 -1.5654  0.8033  0.8215
 8060TIP3    H224145   5.817   6.378   5.391 -1.6776  0.1024 -0.1075
 8061TIP3   OH224146   1.563   0.414   0.877  0.2482 -0.1320  0.3623
 8061TIP3    H124147   1.470   0.423   0.896 -0.2309  0.3221 -1.9656
 8061TIP3    H224148   1.567   0.369   0.793  2.1426 -0.0147  0.3353
 8062TIP3   OH224149   6.896   2.310   0.196 -0.0435  0.1810 -0.2040
 8062TIP3    H124150   6.847   2.390   0.176 -0.8915 -0.4178 -0.5603
 8062TIP3    H224151   6.928   2.323   0.285 -1.8141  0.1236  0.4718
 8063TIP3   OH224152   3.183   2.778   5.650 -0.0532 -0.0841 -0.6243
 8063TIP3    H124153   3.108   2.800   5.594  0.4467 -1.4813 -1.9052
 8063TIP3    H224154   3.248   2.740   5.590  0.5692 -1.5098  0.8695
 8064TIP3   OH224155   6.756   0.403   2.822  0.0382 -0.6421 -0.1280
 8064TIP3    H124156   6.683   0.363   2.774  0.4118 -0.3093 -0.9814
 8064TIP3    H224157   6.735   0.496   2.825  0.1229 -0.6312  0.1741
 8065TIP3   OH224158   4.730   3.374   0.824  0.0837  0.5789 -0.1372
 8065TIP3    H124159   4.669   3.387   0.897 -0.5029 -0.4469 -0.4293
 8065TIP3    H224160   4.757   3.283   0.832 -0.5337  0.2385 -1.5982
 8066TIP3   OH224161   0.069   3.076   2.418  0.0530 -0.0528  0.4066
 8066TIP3    H124162   0.060   3.158   2.370  1.7044  0.5598  1.0502
 8066TIP3    H224163   0.139   3.093   2.481 -0.9561 -1.3326  1.9453
 8067TIP3   OH224164   5.058   5.601   5.172  0.3027 -0.1769 -0.0696
 8067TIP3    H124165   5.005   5.600   5.251 -1.3913  1.1783 -1.1238
 8067TIP3    H224166   5.082   5.693   5.161  0.8518 -0.4125 -0.9178
 8068TIP3   OH224167   0.287   5.195   3.385  0.5638  0.2169  0.2097
 8068TIP3    H124168   0.330   5.280   3.375 -0.1112  0.6727  1.0230
 8068TIP3    H224169   0.222   5.209   3.454 -0.6006 -0.5655 -0.7028
 8069TIP3   OH224170   3.620   6.536   0.812 -0.3651 -0.4886 -0.0797
 8069TIP3    H124171   3.583   6.569   0.730 -0.1438 -0.1180 -0.0319
 8069TIP3    H224172   3.544   6.523   0.869 -0.5216 -0.7674 -0.3473
 8070TIP3   OH224173   6.802   3.893   3.371 -0.3382 -0.1714  0.3561
 8070TIP3    H124174   6.829   3.899   3.279 -0.6708  1.0175  0.3197
 8070TIP3    H224175   6.751   3.812   3.376 -0.5832 -0.0850 -0.5712
 8071TIP3   OH224176   5.039   2.680   1.734 -0.5120  0.1255 -0.6193
 8071TIP3    H124177   4.983   2.735   1.680 -2.6320 -0.0240  1.2348
 8071TIP3    H224178   5.021   2.591   1.704 -1.6335  0.0476  0.2227
 8072TIP3   OH224179   5.179   5.227   5.023  0.2478 -0.8550 -0.3317
 8072TIP3    H124180   5.261   5.228   4.974 -0.3226  0.0014 -1.3094
 8072TIP3    H224181   5.127   5.298   4.985 -0.9735 -1.4207  0.2112
 8073TIP3   OH224182   5.320   5.756   0.836  1.2775 -0.2669  0.2003
 8073TIP3    H124183   5.297   5.665   0.815  1.4055 -0.5984  1.4337
 8073TIP3    H224184   5.343   5.795   0.751 -0.5599 -0.8459 -0.6284
 8074TIP3   OH224185   4.717   4.828   0.406 -0.6239  0.0983 -0.0771
 8074TIP3    H124186   4.704   4.766   0.478 -1.0330  0.9988  0.6359
 8074TIP3    H224187   4.695   4.778   0.327 -0.2154 -0.8840  0.4195
 8075TIP3   OH224188   3.804   5.726   5.032 -0.1587  0.1437 -0.2098
 8075TIP3    H124189   3.789   5.773   5.114 -1.9492 -0.8121  0.0551
 8075TIP3    H224190   3.899   5.714   5.028 -0.1712 -2.0021  3.0270
 8076TIP3   OH224191   4.195   5.728   2.934  0.3749 -0.3883  0.7341
 8076TIP3    H124192   4.189   5.736   3.029  1.7533 -0.9466  0.8905
 8076TIP3    H224193   4.115   5.770   2.902 -0.5666 -0.9876  2.1658
 8077TIP3   OH224194   3.025   0.185   4.207 -0.4629 -0.0835 -0.8982
 8077TIP3    H124195   3.092   0.206   4.271 -1.4611 -0.3315  0.2560
 8077TIP3    H224196   3.073   0.178   4.124  0.7598  0.8029 -0.3019
 8078TIP3   OH224197   6.446   1.035   1.850 -0.1835  0.6552  0.9482
 8078TIP3    H124198   6.540   1.053   1.841 -0.1009 -0.4252 -0.6426
 8078TIP3    H224199   6.405   1.086   1.780 -0.5291 -0.6427  0.1742
 8079TIP3   OH224200   2.186   5.261   2.804 -0.6422 -0.0822  0.7041
 8079TIP3    H124201   2.130   5.184   2.809 -0.2173 -0.4865 -0.4028
 8079TIP3    H224202   2.251   5.238   2.737 -1.5699  1.9078 -0.9839
 8080TIP3   OH224203   5.321   2.308   3.911  0.0840  0.3728 -0.0064
 8080TIP3    H124204   5.376   2.385   3.924 -0.7463  1.3017 -1.7112
 8080TIP3    H224205   5.313   2.269   3.998 -2.1854  4.0547  1.6603
 8081TIP3   OH224206   2.155   6.754   5.032 -0.0435  0.1916  0.0032
 8081TIP3    H124207   2.154   6.738   5.126  0.4994  0.9326  0.1414
 8081TIP3    H224208   2.184   6.845   5.023  0.0177  0.0936 -0.8821
 8082TIP3   OH224209   2.907   4.606   5.444 -0.0294 -0.0879  0.3333
 8082TIP3    H124210   2.838   4.598   5.379  1.0817  3.4677 -1.5198
 8082TIP3    H224211   2.978   4.651   5.398  1.4991  1.0509  3.5344
 8083TIP3   OH224212   4.238   3.965   0.192  0.0345  0.3786  0.6716
 8083TIP3    H124213   4.236   3.914   0.112  0.2165  0.7349  0.4365
 8083TIP3    H224214   4.202   3.907   0.259  0.3019 -0.0766  0.4228
 8084TIP3   OH224215   3.012   2.439   1.749 -0.5807  0.5660  0.3023
 8084TIP3    H124216   2.953   2.490   1.804  0.2653 -0.8730  2.7209
 8084TIP3    H224217   3.040   2.499   1.681 -0.1127  3.1435  2.6165
 8085TIP3   OH224218   1.228   0.715   1.636  0.5394  0.3128 -0.8422
 8085TIP3    H124219   1.319   0.728   1.661  0.6354 -1.8121  0.1026
 8085TIP3    H224220   1.196   0.646   1.694 -1.0430 -0.5099 -2.5511
 8086TIP3   OH224221   7.029   2.509   2.645  0.7198 -0.1118  0.1855
 8086TIP3    H124222   7.106   2.477   2.598  0.0428 -0.9650 -0.3640
 8086TIP3    H224223   6.970   2.434   2.650  0.0108  0.4621  0.8050
 8087TIP3   OH224224   7.204   3.835   0.338 -0.5475 -0.1048 -0.3571
 8087TIP3    H124225   7.213   3.740   0.349 -1.7744 -0.1425  0.5780
 8087TIP3    H224226   7.199   3.847   0.243 -1.8584 -1.1588 -0.4529
 8088TIP3   OH224227   1.025   0.738   5.067 -0.2294  0.0725  0.5489
 8088TIP3    H124228   1.038   0.712   4.976 -1.3580  1.9093 -0.1862
 8088TIP3    H224229   0.959   0.677   5.100 -0.1295 -0.3377  0.0101
 8089TIP3   OH224230   6.397   5.231   0.124  0.3753 -0.3413 -0.4462
 8089TIP3    H124231   6.389   5.323   0.101  0.6074 -0.0536  0.5520
 8089TIP3    H224232   6.328   5.216   0.188  0.1376 -0.9466 -0.8372
 8090TIP3   OH224233   4.690   1.316   0.464 -0.2810  0.6950 -0.0627
 8090TIP3    H124234   4.786   1.316   0.469 -0.1858  0.6737 -1.3630
 8090TIP3    H224235   4.662   1.368   0.538  0.7186  0.2760  0.6381
 8091TIP3   OH224236   0.812   5.609   2.397  0.2846  0.2839  0.4524
 8091TIP3    H124237   0.849   5.647   2.318  1.2442 -0.1539  0.6693
 8091TIP3    H224238   0.847   5.663   2.468 -1.2198  1.1768  0.5467
 8092TIP3   OH224239   0.732   2.156   1.991 -0.0839 -0.1105 -0.6237
 8092TIP3    H124240   0.669   2.228   1.993  1.2056  1.0311  0.5393
 8092TIP3    H224241   0.743   2.136   1.898 -0.8864  0.7961 -0.9249
 8093TIP3   OH224242   5.219   0.064   2.907 -0.0911 -0.2347  0.0664
 8093TIP3    H124243   5.223   0.150   2.866 -1.0947  0.1350  0.6952
 8093TIP3    H224244   5.202   0.003   2.835  0.9010  0.0457 -0.4165
 8094TIP3   OH224245   2.084   4.496   2.007 -0.6127 -0.2554 -1.1499
 8094TIP3    H124246   2.003   4.541   1.980 -1.7091 -1.0678  0.6151
 8094TIP3    H224247   2.057   4.404   2.017  0.6218 -0.5914 -0.8118
 8095TIP3   OH224248   4.590   2.892   3.296  0.6116 -0.0347 -0.5502
 8095TIP3    H124249   4.588   2.916   3.203 -1.0450 -1.6843 -1.0103
 8095TIP3    H224250   4.550   2.805   3.299 -1.3067  0.8218  1.9466
 8096TIP3   OH224251   1.888   1.211   0.555  0.3204 -0.6225  0.4419
 8096TIP3    H124252   1.801   1.238   0.527  0.5747 -0.0592  0.1750
 8096TIP3    H224253   1.947   1.246   0.488  0.5937 -2.7705 -0.5320
 8097TIP3   OH224254   3.146   6.447   1.507 -0.7478  0.3416 -0.0581
 8097TIP3    H124255   3.096   6.518   1.465 -0.0440  1.5003  1.0159
 8097TIP3    H224256   3.115   6.446   1.597 -0.3890 -0.3935  0.0595
 8098TIP3   OH224257   2.317   2.847   3.240  0.1547  0.3014  0.1506
 8098TIP3    H124258   2.353   2.804   3.318 -0.1670  1.2841  0.8661
 8098TIP3    H224259   2.223   2.826   3.243  0.3495 -0.7528 -0.7124
 8099TIP3   OH224260   3.459   0.024   4.867  0.3289  0.0043 -0.1322
 8099TIP3    H124261   3.446   0.114   4.837  0.2424  0.4137  1.0595
 8099TIP3    H224262   3.486  -0.024   4.789  0.9157  1.1803 -0.6783
 8100TIP3   OH224263   6.260   1.965   1.583 -0.2992  0.1851 -0.1069
 8100TIP3    H124264   6.227   1.916   1.658 -2.1685 -0.4563 -1.2722
 8100TIP3    H224265   6.243   2.057   1.606  1.7777  0.2645  1.4091
 8101TIP3   OH224266   2.268   5.601   3.028  0.1939 -0.1556 -0.0420
 8101TIP3    H124267   2.189   5.556   3.057 -0.4592  0.9803 -0.0302
 8101TIP3    H224268   2.237   5.672   2.973  1.3144 -1.1285 -2.0526
 8102TIP3   OH224269   6.848   2.733   4.006  0.1358 -0.0439 -0.4431
 8102TIP3    H124270   6.761   2.725   3.967 -0.9236 -1.0705  1.9429
 8102TIP3    H224271   6.896   2.656   3.974 -0.3205 -0.2373 -0.6708
 8103TIP3   OH224272   1.652   3.734   0.916  0.5082  0.2214 -0.3077
 8103TIP3    H124273   1.730   3.745   0.861  0.3407 -0.7681 -0.7749
 8103TIP3    H224274   1.621   3.646   0.895 -0.1365  0.2075  0.6482
 8104TIP3   OH224275   5.564   6.764   5.701  0.6057 -0.3716 -0.0484
 8104TIP3    H124276   5.631   6.737   5.638  0.0007 -0.2489 -0.7639
 8104TIP3    H224277   5.554   6.858   5.687 -1.3775 -0.7548 -1.6408
 8105TIP3   OH224278   7.149   1.019   5.384  0.3118  0.1825  0.0195
 8105TIP3    H124279   7.134   1.104   5.342  1.8408 -0.2760 -1.6031
 8105TIP3    H224280   7.244   1.006   5.377  0.4560 -0.5656  2.4941
 8106TIP3   OH224281   5.479   3.791   0.472  0.0322 -0.0667 -0.3810
 8106TIP3    H124282   5.500   3.817   0.383  0.2869 -1.2308 -0.6697
 8106TIP3    H224283   5.557   3.747   0.504  0.4855  1.5798  0.9429
 8107TIP3   OH224284   4.042   3.906   4.859  0.0093 -0.0433 -0.4920
 8107TIP3    H124285   4.105   3.922   4.789  0.1658  0.7407 -0.1856
 8107TIP3    H224286   3.956   3.908   4.817  0.1006  0.4555 -0.6586
 8108TIP3   OH224287   1.572   0.321   0.196 -0.1274  0.2138  0.4758
 8108TIP3    H124288   1.512   0.396   0.191 -0.3240 -0.0450 -2.3367
 8108TIP3    H224289   1.516   0.244   0.192  0.2695 -0.0328 -0.9835
 8109TIP3   OH224290   1.334   2.821   0.513  0.0221  0.0340  0.1440
 8109TIP3    H124291   1.255   2.812   0.460  0.3772  0.7852 -0.5099
 8109TIP3    H224292   1.375   2.902   0.484  0.2452  0.4614  1.5370
 8110TIP3   OH224293   4.977   3.510   2.109 -0.2573  0.1770  0.8458
 8110TIP3    H124294   5.065   3.532   2.139  0.7889 -0.3423 -1.5491
 8110TIP3    H224295   4.935   3.594   2.092  0.2866  0.4206  0.6973
 8111TIP3   OH224296   0.624   5.898   2.522 -0.1732 -0.3506 -0.7351
 8111TIP3    H124297   0.651   5.986   2.549  0.1294 -0.5982 -0.2128
 8111TIP3    H224298   0.559   5.913   2.454  1.0336  0.2621 -1.7891
 8112TIP3   OH224299   1.167   6.452   2.262 -0.0959 -0.0412 -0.2535
 8112TIP3    H124300   1.163   6.414   2.174 -0.6136  0.0632 -0.2778
 8112TIP3    H224301   1.256   6.487   2.269 -0.7975  2.2345 -1.6990
 8113TIP3   OH224302   4.976   1.698   2.452 -0.2359  0.8291  0.2302
 8113TIP3    H124303   5.055   1.725   2.405 -0.2716  0.0063 -0.3181
 8113TIP3    H224304   4.929   1.642   2.390  0.1787 -1.0794  1.5518
 8114TIP3   OH224305   3.083   1.016   3.192  0.8918  0.0460  0.2174
 8114TIP3    H124306   3.136   0.976   3.122 -1.3282 -0.0861 -1.5074
 8114TIP3    H224307   3.107   1.109   3.190  3.5231 -0.5017  1.8694
 8115TIP3   OH224308   1.461   4.092   3.161 -0.1669  0.1243  0.2601
 8115TIP3    H124309   1.404   4.151   3.112  0.5197  0.9801  0.4573
 8115TIP3    H224310   1.478   4.020   3.101  0.0472  0.7814 -0.4925
 8116TIP3   OH224311   0.629   6.570   5.269 -0.2979  0.0091 -0.2467
 8116TIP3    H124312   0.723   6.570   5.251 -0.4682 -1.7236 -1.3765
 8116TIP3    H224313   0.596   6.492   5.224 -1.9992 -0.4325  1.6155
 8117TIP3   OH224314   0.398   2.440   5.270 -0.2821 -0.3820 -0.2268
 8117TIP3    H124315   0.386   2.417   5.362 -0.6251 -0.4701 -0.2920
 8117TIP3    H224316   0.456   2.516   5.272 -1.7359  0.7674  0.1653
 8118TIP3   OH224317   5.333   3.203   5.779  0.0102  0.1261 -0.4847
 8118TIP3    H124318   5.357   3.227   5.869 -1.0010  2.5764 -0.7807
 8118TIP3    H224319   5.280   3.277   5.748 -2.1531 -1.9705 -2.1386
 8119TIP3   OH224320   3.241   0.943   1.901 -0.3184  0.2964  0.4330
 8119TIP3    H124321   3.200   0.972   1.819  0.9367  0.8975  0.0039
 8119TIP3    H224322   3.242   0.848   1.894  3.1482  0.3251 -2.0410
 8120TIP3   OH224323   5.993   1.893   0.687 -0.5667 -0.3386  0.0409
 8120TIP3    H124324   5.906   1.924   0.663 -1.5488 -2.5903  0.4459
 8120TIP3    H224325   6.010   1.931   0.773 -0.7933  0.7013 -0.3563
 8121TIP3   OH224326   6.655   4.828   3.673  0.1383 -0.0483  0.4690
 8121TIP3    H124327   6.748   4.811   3.659  0.1997  0.0691  0.7379
 8121TIP3    H224328   6.626   4.871   3.592  0.2569 -0.3173  0.2805
 8122TIP3   OH224329   0.751   6.150   2.563  0.0744  0.0377  0.1764
 8122TIP3    H124330   0.818   6.154   2.494 -0.8842  0.7303 -0.7474
 8122TIP3    H224331   0.795   6.186   2.640  1.5419 -1.8636  0.2830
 8123TIP3   OH224332   2.509   0.476   2.111  0.2135 -0.2418  0.5868
 8123TIP3    H124333   2.425   0.468   2.157  0.2305 -0.2971  0.6083
 8123TIP3    H224334   2.496   0.547   2.049  1.3947  2.7895  3.4562
 8124TIP3   OH224335   6.962   0.973   5.784 -0.3553  0.4905 -0.4227
 8124TIP3    H124336   6.882   0.929   5.813 -1.3727  1.1600 -2.0774
 8124TIP3    H224337   7.016   0.904   5.746 -1.5324  0.4639 -2.1415
 8125TIP3   OH224338   5.549   3.727   1.640 -0.3640  0.2408  0.0870
 8125TIP3    H124339   5.637   3.735   1.605 -0.3686  0.1325  0.0506
 8125TIP3    H224340   5.558   3.672   1.717 -0.3813  0.3305  0.1540
 8126TIP3   OH224341   0.518   6.149   3.601  0.0653 -0.0209  0.3257
 8126TIP3    H124342   0.457   6.212   3.640 -0.9907 -1.4142  1.0048
 8126TIP3    H224343   0.575   6.123   3.673  0.0133 -0.3992  0.2335
 8127TIP3   OH224344   5.248   0.890   3.972  0.0686  0.4215 -0.5285
 8127TIP3    H124345   5.174   0.841   3.935  2.2138 -1.5251 -2.5991
 8127TIP3    H224346   5.276   0.838   4.047  1.2206 -0.6658 -1.6520
 8128TIP3   OH224347   1.178   2.082   1.856 -0.1570  0.7581 -0.0110
 8128TIP3    H124348   1.195   1.993   1.826 -1.9848 -0.3232  1.8955
 8128TIP3    H224349   1.261   2.128   1.844  0.9557 -1.3138 -0.6643
 8129TIP3   OH224350   3.386   0.418   3.988 -0.3261  0.1758 -0.3448
 8129TIP3    H124351   3.372   0.327   4.013 -0.5289  0.7720  1.9999
 8129TIP3    H224352   3.375   0.467   4.070 -1.5119  2.4464 -1.7602
 8130TIP3   OH224353   3.940   4.123   2.988 -0.1898  0.1013  0.4088
 8130TIP3    H124354   3.868   4.078   3.033 -0.6673  0.1421 -0.2950
 8130TIP3    H224355   3.935   4.091   2.898  0.0438  0.8667  0.1206
 8131TIP3   OH224356   0.970   0.672   2.767 -0.1993  0.3941 -0.0740
 8131TIP3    H124357   1.035   0.606   2.742 -0.8094  0.0950 -0.9139
 8131TIP3    H224358   1.002   0.706   2.851  0.3133 -0.7153  0.2046
 8132TIP3   OH224359   5.546   6.094   3.479 -0.0910  0.3162 -0.4756
 8132TIP3    H124360   5.585   6.180   3.459  1.4459 -0.1248  0.4629
 8132TIP3    H224361   5.618   6.032   3.466 -1.3853 -0.9744 -1.9577
 8133TIP3   OH224362   3.435   1.073   0.815 -0.1512  0.4041 -0.0380
 8133TIP3    H124363   3.510   1.050   0.870  1.2298  0.1603 -1.9177
 8133TIP3    H224364   3.460   1.157   0.775 -1.2791  0.7692  0.0070
 8134TIP3   OH224365   4.607   1.471   0.686  0.0176  0.0139 -0.1666
 8134TIP3    H124366   4.517   1.451   0.662 -0.1344 -0.8623  1.0798
 8134TIP3    H224367   4.610   1.461   0.781  0.7028  3.0261  0.2235
 8135TIP3   OH224368   6.625   6.237   2.861  0.9742  0.1630 -0.1294
 8135TIP3    H124369   6.590   6.274   2.942  1.9152  1.2395 -0.1780
 8135TIP3    H224370   6.565   6.267   2.792  0.0720 -0.9025  0.1686
 8136TIP3   OH224371   7.056   2.252   4.147  0.2121  0.4734 -0.5609
 8136TIP3    H124372   6.990   2.300   4.196  1.6155 -0.0867  2.0781
 8136TIP3    H224373   7.128   2.315   4.134  0.3093  0.2924 -0.9293
 8137TIP3   OH224374   6.344   3.263   2.661  0.2570  0.5592  0.0202
 8137TIP3    H124375   6.331   3.177   2.699 -1.1600  0.0985 -1.3862
 8137TIP3    H224376   6.438   3.277   2.665  0.5863 -1.3152 -0.2718
 8138TIP3   OH224377   6.138   5.086   3.315 -0.3143  0.1398 -0.6501
 8138TIP3    H124378   6.182   5.081   3.231 -1.5140  0.3655 -1.3241
 8138TIP3    H224379   6.092   5.170   3.313  0.6347  0.7307  0.7584
 8139TIP3   OH224380   2.696   0.921   3.012 -0.2031 -0.2832  0.2793
 8139TIP3    H124381   2.701   0.826   2.998 -3.4949 -0.4888 -0.3531
 8139TIP3    H224382   2.760   0.939   3.080  1.3115 -2.7652 -0.3729
 8140TIP3   OH224383   5.239   1.776   4.645  0.0334  0.6907 -0.4141
 8140TIP3    H124384   5.307   1.772   4.578  0.2262 -3.1379 -0.1692
 8140TIP3    H224385   5.284   1.754   4.727 -1.0882  0.2850  0.1181
 8141TIP3   OH224386   2.996   0.113   5.734  0.1736  0.5512 -0.1450
 8141TIP3    H124387   2.961   0.031   5.700 -0.7464  0.1007  1.7167
 8141TIP3    H224388   2.923   0.175   5.724  1.1618  1.4271 -2.3672
 8142TIP3   OH224389   1.070   0.956   4.852 -0.2712  0.3485  0.0597
 8142TIP3    H124390   1.027   0.871   4.838 -0.5989  0.4479  0.4315
 8142TIP3    H224391   1.049   0.978   4.942  0.3996  0.5008  0.1810
 8143TIP3   OH224392   1.969   2.362   1.485 -0.3576  0.5158 -0.0499
 8143TIP3    H124393   1.935   2.284   1.528 -0.6852 -1.8669 -4.1589
 8143TIP3    H224394   1.891   2.414   1.466 -0.7140 -0.4161 -1.2523
 8144TIP3   OH224395   2.256   3.335   2.753  0.6681 -0.2171  0.0280
 8144TIP3    H124396   2.183   3.373   2.801  0.0877 -0.0006 -1.0040
 8144TIP3    H224397   2.240   3.240   2.756  1.1127 -0.2773  0.9940
 8145TIP3   OH224398   5.006   4.462   4.638 -0.1392 -0.2866 -0.4330
 8145TIP3    H124399   4.950   4.394   4.600 -1.3751 -0.0371  0.8541
 8145TIP3    H224400   5.077   4.472   4.575 -0.3043 -2.2576 -1.0158
 8146TIP3   OH224401   4.176   4.454   1.015 -0.2558  0.3959 -0.6565
 8146TIP3    H124402   4.091   4.497   1.006 -0.3163  0.5576  0.5484
 8146TIP3    H224403   4.180   4.393   0.941 -1.2846  0.5942 -0.8932
 8147TIP3   OH224404   6.371   6.785   0.365  0.3240 -0.3107 -0.0585
 8147TIP3    H124405   6.375   6.869   0.410 -0.6075  0.1846 -0.8541
 8147TIP3    H224406   6.292   6.743   0.400 -0.2316 -0.0542 -0.9514
 8148TIP3   OH224407   3.724   4.490   4.183  0.1506 -0.1118 -0.3196
 8148TIP3    H124408   3.819   4.488   4.195  0.1134 -0.6803 -0.1043
 8148TIP3    H224409   3.689   4.483   4.272 -0.0893  1.1888 -0.2928
 8149TIP3   OH224410   1.546   1.424   2.694 -1.0478  0.7058  0.4173
 8149TIP3    H124411   1.592   1.482   2.634 -1.5176 -0.6806 -1.4047
 8149TIP3    H224412   1.456   1.457   2.697 -1.8692 -0.9620 -2.2721
 8150TIP3   OH224413   0.915   6.227   3.823 -0.1994  0.3899 -0.2878
 8150TIP3    H124414   0.986   6.190   3.876 -1.2494 -1.2897  0.0116
 8150TIP3    H224415   0.960   6.273   3.752  1.2010 -0.1265  0.2332
 8151TIP3   OH224416   3.081   0.963   5.104  0.3737 -0.0651  0.1308
 8151TIP3    H124417   3.147   0.898   5.084  2.1698  2.0425 -1.2629
 8151TIP3    H224418   3.130   1.037   5.139 -1.6193  0.4361  2.0652
 8152TIP3   OH224419   2.421   2.736   2.071 -0.4495  0.1129 -0.1816
 8152TIP3    H124420   2.355   2.667   2.062  1.1249 -1.3861 -0.9492
 8152TIP3    H224421   2.453   2.726   2.161  0.4205 -0.8298 -0.5717
 8153TIP3   OH224422   2.571   2.329   5.857  0.4357 -0.3342  0.0507
 8153TIP3    H124423   2.590   2.253   5.801  2.4279 -0.5969  0.9843
 8153TIP3    H224424   2.602   2.404   5.807  1.6635 -0.5117  0.5040
 8154TIP3   OH224425   0.246   4.650   1.710  0.2534 -0.1422 -0.0766
 8154TIP3    H124426   0.210   4.561   1.711  1.5800 -0.7055  0.6664
 8154TIP3    H224427   0.311   4.649   1.780  0.5575  1.3108 -0.3252
 8155TIP3   OH224428   1.970   2.988   4.571 -0.1824 -0.1498  0.2174
 8155TIP3    H124429   2.008   2.921   4.515  0.4778 -1.2466  1.9052
 8155TIP3    H224430   2.015   3.069   4.545 -0.4907 -0.4569 -1.3638
 8156TIP3   OH224431   5.498   1.805   4.877  0.3916 -0.2540 -0.6412
 8156TIP3    H124432   5.435   1.865   4.915  1.6945 -0.1911  1.6065
 8156TIP3    H224433   5.534   1.851   4.802 -1.9192 -0.1636 -1.7697
 8157TIP3   OH224434   6.498   6.597   1.727  0.1802 -0.2799  0.2840
 8157TIP3    H124435   6.441   6.523   1.751  1.6829 -2.2724 -1.8275
 8157TIP3    H224436   6.586   6.567   1.750  0.9385  0.3790 -1.5892
 8158TIP3   OH224437   6.651   3.578   2.423 -0.0888  0.0157 -0.2137
 8158TIP3    H124438   6.687   3.597   2.510  1.7315 -1.0979 -0.6667
 8158TIP3    H224439   6.556   3.582   2.435  0.1253  0.3357  1.7157
 8159TIP3   OH224440   4.076   0.790   3.030  0.3349  0.2911 -0.0228
 8159TIP3    H124441   4.119   0.862   2.983  0.5264 -0.4992 -1.1107
 8159TIP3    H224442   4.001   0.831   3.073 -0.0121  1.0119 -1.2602
 8160TIP3   OH224443   6.637   2.408   1.550  0.4317  0.0815 -0.0745
 8160TIP3    H124444   6.622   2.473   1.618 -0.3899 -2.5887  2.4956
 8160TIP3    H224445   6.556   2.405   1.499 -0.6562 -0.8548  1.6238
 8161TIP3   OH224446   5.857   3.544   4.112  0.0710 -0.6196  0.1584
 8161TIP3    H124447   5.948   3.539   4.082  0.2363 -1.1349  0.7416
 8161TIP3    H224448   5.848   3.474   4.176 -0.2804  0.4672  1.3313
 8162TIP3   OH224449   3.506   6.136   3.355  0.4814  1.0558  0.4881
 8162TIP3    H124450   3.554   6.183   3.423  0.9233  0.0725  0.8814
 8162TIP3    H224451   3.573   6.089   3.306  0.2488  2.3346 -1.1280
 8163TIP3   OH224452   6.275   2.997   0.922 -0.9531  0.1883 -0.4161
 8163TIP3    H124453   6.335   3.041   0.862  0.5070 -0.0769  0.7828
 8163TIP3    H224454   6.232   2.930   0.869  0.0758  0.1586 -1.2331
 8164TIP3   OH224455   5.457   2.550   4.294 -0.0338  0.0041  0.2204
 8164TIP3    H124456   5.497   2.594   4.219  0.0618  0.1330  0.3459
 8164TIP3    H224457   5.447   2.619   4.360  1.3906 -0.4378  0.9390
 8165TIP3   OH224458   5.242   2.067   0.983  0.2295  0.1472  0.2908
 8165TIP3    H124459   5.266   2.114   0.904  1.3088  0.3263  0.7095
 8165TIP3    H224460   5.317   2.077   1.041  0.3570 -1.8344  0.5182
 8166TIP3   OH224461   6.976   5.686   0.891  0.0413 -0.1677 -0.6172
 8166TIP3    H124462   6.883   5.700   0.871 -0.3606 -1.2839  0.4059
 8166TIP3    H224463   6.983   5.592   0.908  1.1809  0.0555  0.2326
 8167TIP3   OH224464   1.736   1.284   0.343  0.1278  0.7627 -0.2042
 8167TIP3    H124465   1.793   1.347   0.298  0.1304  0.9696  0.0907
 8167TIP3    H224466   1.766   1.198   0.311  2.5845  0.6223  2.0946
 8168TIP3   OH224467   7.148   6.617   0.858  0.0578  0.0281  0.5899
 8168TIP3    H124468   7.130   6.532   0.818  0.1413 -0.1353  0.8932
 8168TIP3    H224469   7.108   6.681   0.799  1.3276 -0.1156 -0.4569
 8169TIP3   OH224470   1.089   1.928   0.923  0.2450  0.3666  0.2349
 8169TIP3    H124471   1.171   1.929   0.873  1.6141 -0.0314  2.3653
 8169TIP3    H224472   1.025   1.891   0.862  2.0454 -1.0231 -0.9413
 8170TIP3   OH224473   5.956   5.379   5.232  0.1098 -0.0798  0.1123
 8170TIP3    H124474   6.050   5.392   5.219  0.1221  0.5846  0.8098
 8170TIP3    H224475   5.928   5.326   5.157  0.9792 -0.0159 -0.2620
 8171TIP3   OH224476   4.856   0.810   2.022  0.0769 -0.6203 -0.0844
 8171TIP3    H124477   4.915   0.885   2.028  0.0154 -0.5410 -0.4363
 8171TIP3    H224478   4.870   0.776   1.933 -0.4996 -0.5226 -0.2182
 8172TIP3   OH224479   4.238   6.013   3.777 -0.0943 -0.8478 -0.2895
 8172TIP3    H124480   4.152   6.019   3.736  0.7442  0.5269 -1.9894
 8172TIP3    H224481   4.253   5.918   3.786 -1.8512 -1.1132  0.2959
 8173TIP3   OH224482   1.598   3.089   0.683 -0.2820 -0.0774  0.0374
 8173TIP3    H124483   1.591   3.142   0.763 -0.2246 -1.2281  0.8258
 8173TIP3    H224484   1.508   3.082   0.651 -0.1401  1.5865 -0.8300
 8174TIP3   OH224485   6.515   3.293   1.841 -0.3881 -0.0285  0.8353
 8174TIP3    H124486   6.486   3.228   1.776  0.1026  0.7775 -0.2347
 8174TIP3    H224487   6.594   3.255   1.880  0.8376  0.5529 -0.9258
 8175TIP3   OH224488   1.067   2.103   0.688  0.2887  0.0243 -0.2847
 8175TIP3    H124489   0.980   2.091   0.727  0.4186 -0.8098 -0.2262
 8175TIP3    H224490   1.065   2.051   0.608  1.0862 -0.9431  0.2866
 8176TIP3   OH224491   3.364   1.696   4.106 -0.4183  0.3809  0.1515
 8176TIP3    H124492   3.410   1.620   4.071 -2.0437 -0.8193  0.4732
 8176TIP3    H224493   3.389   1.768   4.049 -0.1332 -0.7503 -1.1980
 8177TIP3   OH224494   3.101   0.653   3.792  0.2116  0.3977 -0.0314
 8177TIP3    H124495   3.104   0.604   3.874 -2.7919 -0.1473 -0.1083
 8177TIP3    H224496   3.124   0.743   3.817 -0.0857  0.1222  1.3061
 8178TIP3   OH224497   1.184   3.605   0.293  0.1884  0.1542 -0.3207
 8178TIP3    H124498   1.147   3.651   0.217 -3.0704 -2.5285 -0.6200
 8178TIP3    H224499   1.110   3.598   0.354  0.8472 -3.3225  0.2529
 8179TIP3   OH224500   3.564   2.345   0.240 -0.1330  0.0667  0.2547
 8179TIP3    H124501   3.595   2.303   0.320 -2.0000 -0.6379  0.6552
 8179TIP3    H224502   3.643   2.359   0.188  0.7142 -3.2342  0.4180
 8180TIP3   OH224503   7.067   3.150   0.466 -0.0645 -0.6284 -0.0208
 8180TIP3    H124504   7.001   3.137   0.534 -1.1802  0.4157 -0.8490
 8180TIP3    H224505   7.056   3.075   0.408 -1.6970  0.3086 -1.0255
 8181TIP3   OH224506   0.706   3.319   4.725 -0.0114 -0.0923  0.3437
 8181TIP3    H124507   0.633   3.362   4.680 -1.0004 -0.8389  1.1841
 8181TIP3    H224508   0.675   3.229   4.740  0.9578 -0.3277  1.0113
 8182TIP3   OH224509   2.826   3.128   3.634 -0.3307 -0.1279 -0.1816
 8182TIP3    H124510   2.880   3.189   3.684 -1.0767 -0.6432  1.3135
 8182TIP3    H224511   2.875   3.113   3.554  0.9323  0.7098  0.4026
 8183TIP3   OH224512   0.796   4.610   3.179 -0.4407  0.0064 -0.2130
 8183TIP3    H124513   0.713   4.597   3.224 -0.0134 -0.6258  0.4084
 8183TIP3    H224514   0.792   4.550   3.104 -0.4165 -0.2370 -0.0174
 8184TIP3   OH224515   5.250   3.068   2.083  0.0521 -0.0273  0.3683
 8184TIP3    H124516   5.331   3.016   2.083 -0.7968 -1.3987  0.2267
 8184TIP3    H224517   5.190   3.018   2.027 -0.6645  1.3473 -0.1267
 8185TIP3   OH224518   3.247   3.356   4.767 -0.0720 -0.0847 -0.0105
 8185TIP3    H124519   3.289   3.440   4.789 -0.1471 -0.0728  0.0901
 8185TIP3    H224520   3.179   3.380   4.705 -0.9355  0.1105  0.9759
 8186TIP3   OH224521   1.479   2.693   1.217  0.1543 -0.2902 -0.3785
 8186TIP3    H124522   1.389   2.722   1.202 -0.0312 -1.3041 -1.3007
 8186TIP3    H224523   1.474   2.641   1.297 -0.0968 -0.4251 -0.4807
 8187TIP3   OH224524   4.599   4.101   3.190  0.0931  0.2015 -0.1444
 8187TIP3    H124525   4.625   4.183   3.149 -0.4955  0.9020  0.8485
 8187TIP3    H224526   4.521   4.074   3.142 -0.3262  0.7764  0.2047
 8188TIP3   OH224527   4.695   5.033   1.571  0.2531 -0.0850  0.5479
 8188TIP3    H124528   4.666   5.097   1.506 -0.2894  0.5646  1.4153
 8188TIP3    H224529   4.634   5.043   1.644  0.8687 -0.7805  1.1782
 8189TIP3   OH224530   1.440   6.672   3.936  0.0957 -0.4514 -0.1168
 8189TIP3    H124531   1.389   6.592   3.925  0.0953 -0.3627 -0.7545
 8189TIP3    H224532   1.514   6.645   3.990 -0.6534 -0.5649  0.8953
 8190TIP3   OH224533   6.905   3.215   3.057  0.2855 -0.5604 -0.4411
 8190TIP3    H124534   6.946   3.279   3.000 -0.4996 -0.0568 -0.4628
 8190TIP3    H224535   6.965   3.141   3.058  0.4813 -0.4305 -1.6277
 8191TIP3   OH224536   4.763   3.157   0.648  0.4021  0.7202 -0.1431
 8191TIP3    H124537   4.739   3.073   0.686 -1.3641  1.9780  1.7413
 8191TIP3    H224538   4.768   3.140   0.554 -0.5487 -1.3409  0.1287
 8192TIP3   OH224539   3.226   2.523   3.672 -0.3162  0.1351 -0.4221
 8192TIP3    H124540   3.221   2.433   3.704  0.9317 -0.1483 -0.9645
 8192TIP3    H224541   3.158   2.570   3.720 -0.6984 -1.0016  0.1751
 8193TIP3   OH224542   1.770   5.250   5.245  0.1622  0.1504  0.3965
 8193TIP3    H124543   1.729   5.293   5.320  0.6162  0.3334  0.5400
 8193TIP3    H224544   1.779   5.319   5.179 -2.3783 -0.4750 -0.7594
 8194TIP3   OH224545   5.746   3.731   2.117  1.0035 -0.3445  0.4226
 8194TIP3    H124546   5.806   3.771   2.180  0.4551  2.2976 -0.5988
 8194TIP3    H224547   5.661   3.731   2.162  1.0014 -0.3334  0.4186
 8195TIP3   OH224548   4.932   6.430   5.843  0.1936  0.1755 -0.2862
 8195TIP3    H124549   4.941   6.355   5.902 -1.2142  0.9895  1.0305
 8195TIP3    H224550   4.846   6.466   5.863  0.0082  0.9803 -2.3037
 8196TIP3   OH224551   2.894   4.205   5.795 -0.4850  0.2369 -0.0530
 8196TIP3    H124552   2.939   4.149   5.857  1.1329 -0.7557 -1.9875
 8196TIP3    H224553   2.818   4.154   5.767  0.2963 -0.5103 -0.8780
 8197TIP3   OH224554   0.691   2.900   0.414 -0.2968  0.3407 -0.3957
 8197TIP3    H124555   0.625   2.900   0.483 -0.3587 -1.1004 -0.4132
 8197TIP3    H224556   0.693   2.809   0.383  0.6626  0.6766 -1.3868
 8198TIP3   OH224557   4.686   3.677   3.155  0.7905  0.2303 -0.1528
 8198TIP3    H124558   4.745   3.601   3.151 -0.7933 -1.0416 -0.4575
 8198TIP3    H224559   4.702   3.723   3.073 -1.4844 -2.4105 -2.2706
 8199TIP3   OH224560   0.579   6.564   3.938  0.1396  0.1698 -0.0938
 8199TIP3    H124561   0.490   6.534   3.957 -0.4957  1.0662 -1.4701
 8199TIP3    H224562   0.609   6.507   3.867  0.7688 -0.2812  0.5222
 8200TIP3   OH224563   2.615   1.104   5.850 -0.0959  0.3804 -0.3392
 8200TIP3    H124564   2.703   1.141   5.846  0.0908  0.1222  0.9628
 8200TIP3    H224565   2.627   1.010   5.836 -0.3799  0.5464 -1.9015
 8201TIP3   OH224566   5.261   5.319   4.020 -0.3570 -0.1406 -0.1465
 8201TIP3    H124567   5.297   5.402   4.053  1.5721 -1.3583  1.0323
 8201TIP3    H224568   5.259   5.262   4.097  1.8091 -2.2870 -1.5352
 8202TIP3   OH224569   1.100   2.348   0.494 -0.1415 -0.6006 -0.0427
 8202TIP3    H124570   1.183   2.322   0.454  0.7625  0.7998  0.8363
 8202TIP3    H224571   1.125   2.411   0.562 -1.9622  0.1293  0.0055
 8203TIP3   OH224572   1.190   6.556   5.875  0.4277  0.2946  0.1378
 8203TIP3    H124573   1.260   6.594   5.822  0.8825  2.2145  1.9690
 8203TIP3    H224574   1.111   6.563   5.821  0.9435  1.7983 -0.4615
 8204TIP3   OH224575   1.861   2.555   4.625  0.2665  0.1512 -0.0277
 8204TIP3    H124576   1.805   2.588   4.696 -1.8220 -0.7639 -1.1622
 8204TIP3    H224577   1.870   2.461   4.644  1.4546  0.2854  0.1345
 8205TIP3   OH224578   4.731   0.612   2.970 -0.8544  0.0122 -0.4765
 8205TIP3    H124579   4.785   0.602   2.892 -1.4547 -1.3828 -0.7371
 8205TIP3    H224580   4.793   0.637   3.039  0.3785 -2.6940 -0.4836
 8206TIP3   OH224581   2.426   1.497   1.883  0.1640  0.2287 -0.1373
 8206TIP3    H124582   2.480   1.553   1.828  1.4444 -0.2872  0.5627
 8206TIP3    H224583   2.376   1.444   1.821  0.7673  0.4277 -0.8034
 8207TIP3   OH224584   2.311   0.821   3.578  0.3591  0.3543  0.0343
 8207TIP3    H124585   2.219   0.843   3.565  0.0863 -0.2770  0.7989
 8207TIP3    H224586   2.353   0.903   3.605 -0.3575  0.2699  1.5075
 8208TIP3   OH224587   1.009   1.225   1.783 -0.1696 -0.1289  0.7155
 8208TIP3    H124588   0.929   1.211   1.733 -0.0301 -2.8642  1.0985
 8208TIP3    H224589   0.983   1.279   1.857 -1.3148  0.2793  0.0375
 8209TIP3   OH224590   1.412   1.695   3.913  0.2098 -0.1843 -0.2614
 8209TIP3    H124591   1.372   1.663   3.832 -2.4093 -1.0152  1.2410
 8209TIP3    H224592   1.407   1.790   3.907  1.6300 -0.1424 -1.7345
 8210TIP3   OH224593   3.763   6.767   0.893  0.0562 -0.2584  0.5520
 8210TIP3    H124594   3.719   6.831   0.836 -1.6001  0.5617  2.5919
 8210TIP3    H224595   3.732   6.682   0.862  1.4101 -0.0592 -1.4966
 8211TIP3   OH224596   3.716   1.234   3.068 -0.3634 -0.0527 -0.2436
 8211TIP3    H124597   3.803   1.231   3.029 -0.6695 -0.3200 -0.9269
 8211TIP3    H224598   3.656   1.221   2.994 -1.0247  1.1791  0.0419
 8212TIP3   OH224599   3.788   4.041   1.965 -0.1425  0.4719  0.0874
 8212TIP3    H124600   3.849   3.994   1.909  0.1674  2.8969 -1.7829
 8212TIP3    H224601   3.703   3.999   1.948  0.4001 -0.6167 -0.0323
 8213TIP3   OH224602   5.999   0.450   0.711 -0.6911  0.2893 -0.4447
 8213TIP3    H124603   6.075   0.492   0.670 -1.3608  0.0516 -2.0314
 8213TIP3    H224604   5.936   0.521   0.723 -0.6252  0.2981 -0.1590
 8214TIP3   OH224605   4.289   3.236   5.321 -0.1682  0.3695  0.1443
 8214TIP3    H124606   4.221   3.290   5.360 -0.7118 -0.2765  0.1057
 8214TIP3    H224607   4.359   3.297   5.299 -0.2660  0.8787  1.2166
 8215TIP3   OH224608   6.985   2.607   0.747 -0.4453 -0.8836  0.0451
 8215TIP3    H124609   7.025   2.622   0.662  0.1587 -2.2907  0.0532
 8215TIP3    H224610   6.979   2.694   0.786  1.0563 -0.4180 -0.6656
 8216TIP3   OH224611   6.877   1.171   4.347 -0.4937  0.1672 -0.2988
 8216TIP3    H124612   6.799   1.201   4.394 -1.6390 -1.6810 -0.9038
 8216TIP3    H224613   6.852   1.085   4.312  1.9096 -0.6006 -0.3072
 8217TIP3   OH224614   3.052   6.747   1.982  0.0882  0.0599  0.0335
 8217TIP3    H124615   3.064   6.742   2.077  0.7917 -0.4321 -0.0739
 8217TIP3    H224616   3.129   6.703   1.946 -0.6810 -0.6735 -0.7529
 8218TIP3   OH224617   4.226   3.444   0.564 -1.2757 -0.0336  0.4244
 8218TIP3    H124618   4.231   3.421   0.472 -0.8107  0.4444  0.3257
 8218TIP3    H224619   4.168   3.379   0.602 -1.8251  0.0253 -0.2882
 8219TIP3   OH224620   4.507   5.601   4.475  0.1368  0.4516  0.0539
 8219TIP3    H124621   4.492   5.534   4.541 -0.7578  0.7068  0.1149
 8219TIP3    H224622   4.602   5.601   4.463  0.0562 -2.1006 -1.2983
 8220TIP3   OH224623   1.555   3.930   4.155  0.5130 -0.2911  0.0345
 8220TIP3    H124624   1.626   3.966   4.101  0.1932 -2.2468 -1.8348
 8220TIP3    H224625   1.487   3.907   4.092 -1.4417  0.6477  1.6865
 8221TIP3   OH224626   0.195   3.517   2.827 -0.0489 -0.3050  0.2043
 8221TIP3    H124627   0.205   3.612   2.833  1.5856 -0.1882 -2.6891
 8221TIP3    H224628   0.283   3.482   2.839 -0.5139 -1.4324  0.4786
 8222TIP3   OH224629   6.936   3.270   0.246 -0.7902 -0.2909  0.1470
 8222TIP3    H124630   6.867   3.332   0.271 -0.7965 -0.7400  1.2876
 8222TIP3    H224631   6.989   3.259   0.325 -0.5897 -1.4885 -0.1295
 8223TIP3   OH224632   6.664   1.898   1.610 -0.0413  0.0426  0.0166
 8223TIP3    H124633   6.625   1.979   1.643 -0.2503  0.2128 -0.6279
 8223TIP3    H224634   6.756   1.904   1.634 -0.3062 -0.1286  1.1083
 8224TIP3   OH224635   0.909   5.183   2.167  0.4249 -0.0724  0.3536
 8224TIP3    H124636   0.878   5.097   2.140  2.0822 -0.5279 -0.1999
 8224TIP3    H224637   0.903   5.182   2.263 -0.8658 -0.2648  0.2902
 8225TIP3   OH224638   0.837   6.457   2.731 -0.9050  0.0756 -0.1751
 8225TIP3    H124639   0.931   6.441   2.716 -1.0020 -0.9888  0.2958
 8225TIP3    H224640   0.811   6.514   2.658  0.1381  0.5113 -0.2300
 8226TIP3   OH224641   5.785   5.839   0.882 -0.0900  0.3069 -0.4205
 8226TIP3    H124642   5.809   5.779   0.811  0.8714  0.4153 -0.2047
 8226TIP3    H224643   5.701   5.807   0.913 -0.4024  0.1022 -1.4420
 8227TIP3   OH224644   2.483   3.817   5.350 -0.2520  0.8859 -0.1975
 8227TIP3    H124645   2.546   3.821   5.278  0.4254  1.4013  0.4057
 8227TIP3    H224646   2.469   3.909   5.374 -0.7701  0.7382  0.0766
 8228TIP3   OH224647   0.721   1.770   3.006 -0.4390 -0.1632  0.2864
 8228TIP3    H124648   0.714   1.743   2.914 -1.2656  0.5508  0.1296
 8228TIP3    H224649   0.693   1.692   3.055  0.8731 -0.8553 -0.0141
 8229TIP3   OH224650   3.068   2.853   3.091 -0.6437  0.1775  0.0535
 8229TIP3    H124651   3.051   2.937   3.048 -0.2151  0.1107 -0.2576
 8229TIP3    H224652   3.150   2.822   3.052 -1.0199 -0.5962 -0.1544
 8230TIP3   OH224653   5.020   5.894   3.643  0.3750 -0.1461 -0.4791
 8230TIP3    H124654   5.062   5.964   3.592 -0.2910  0.7727  0.1934
 8230TIP3    H224655   5.000   5.935   3.727 -1.4231 -0.6603 -0.6081
 8231TIP3   OH224656   7.073   1.031   0.857  0.4201 -0.4203 -0.0985
 8231TIP3    H124657   7.067   0.997   0.767 -0.7194 -0.4042 -0.0368
 8231TIP3    H224658   7.164   1.014   0.882  0.6412 -0.8167 -1.0996
 8232TIP3   OH224659   6.784   4.391   4.063  0.1684  0.0516 -0.0017
 8232TIP3    H124660   6.832   4.328   4.009  0.9760 -0.2551  1.0491
 8232TIP3    H224661   6.851   4.435   4.114 -0.6491 -0.4101  1.5271
 8233TIP3   OH224662   2.319   6.309   2.508  0.0013 -0.0888 -0.3830
 8233TIP3    H124663   2.380   6.373   2.470 -0.3842  0.6084  0.1580
 8233TIP3    H224664   2.283   6.352   2.585  0.5471 -1.3826  0.6223
 8234TIP3   OH224665   0.895   6.202   4.664 -0.2570  0.3782  0.3787
 8234TIP3    H124666   0.814   6.183   4.711  0.6769  1.7281  2.7492
 8234TIP3    H224667   0.955   6.133   4.694 -0.4109 -0.4412 -1.1324
 8235TIP3   OH224668   1.041   1.589   2.257  0.5879 -0.1112  0.1318
 8235TIP3    H124669   1.114   1.542   2.298  2.9121  0.7687 -2.6428
 8235TIP3    H224670   1.067   1.598   2.166 -1.6289  2.9183 -0.3699
 8236TIP3   OH224671   5.359   4.286   3.407 -0.1818 -0.0657  0.0549
 8236TIP3    H124672   5.334   4.355   3.347 -1.6146 -1.4916 -1.0566
 8236TIP3    H224673   5.410   4.331   3.475 -0.2297  1.8900 -1.1274
 8237TIP3   OH224674   1.726   3.131   1.119  0.0528  0.5465 -0.2765
 8237TIP3    H124675   1.695   3.068   1.184  0.0224 -0.2172 -1.0140
 8237TIP3    H224676   1.794   3.181   1.165 -0.4968  0.5413  0.5675
 8238TIP3   OH224677   6.661   3.226   0.463  0.0621  0.8404 -0.5418
 8238TIP3    H124678   6.685   3.264   0.548  0.5518  0.8200 -0.6664
 8238TIP3    H224679   6.573   3.191   0.477  0.4197  0.1933  0.1785
 8239TIP3   OH224680   5.642   0.566   4.997  0.0046  0.0842 -0.3118
 8239TIP3    H124681   5.684   0.628   5.057  2.0040 -0.3740 -1.1756
 8239TIP3    H224682   5.708   0.548   4.930 -1.9485  0.1826 -2.4089
 8240TIP3   OH224683   2.230   5.973   0.246  0.3058  0.1594 -0.1215
 8240TIP3    H124684   2.282   6.046   0.212 -0.0537  0.9183  0.8967
 8240TIP3    H224685   2.267   5.956   0.333 -0.0227 -0.4447 -0.0957
 8241TIP3   OH224686   6.342   2.461   0.389  0.4768 -0.3883 -0.0417
 8241TIP3    H124687   6.364   2.409   0.466  0.2942 -0.4177 -0.0082
 8241TIP3    H224688   6.257   2.500   0.410  0.6354 -0.0306 -0.0432
 8242TIP3   OH224689   3.857   3.033   4.148 -0.2514  0.1349 -0.0889
 8242TIP3    H124690   3.803   3.059   4.073  1.5598  0.5346 -1.3166
 8242TIP3    H224691   3.854   2.938   4.148  1.9235 -0.0367 -2.4762
 8243TIP3   OH224692   4.614   6.773   3.489 -0.0079  0.1573  0.3052
 8243TIP3    H124693   4.599   6.858   3.530  1.0238  0.2325  0.5333
 8243TIP3    H224694   4.530   6.751   3.449 -0.2613  1.3119  0.1839
 8244TIP3   OH224695   6.099   2.692   5.810  0.0576 -0.1222  0.3006
 8244TIP3    H124696   6.190   2.664   5.803  0.1689 -0.1250  1.5551
 8244TIP3    H224697   6.080   2.734   5.726  1.6284  1.0787  0.5121
 8245TIP3   OH224698   6.023   1.622   0.665  0.1961  0.1360 -0.1229
 8245TIP3    H124699   5.955   1.586   0.722  0.1028  0.0673 -0.2767
 8245TIP3    H224700   6.022   1.716   0.683  0.7414  0.0046  0.5954
 8246TIP3   OH224701   6.354   4.215   2.849 -0.0442  1.0427  0.6333
 8246TIP3    H124702   6.430   4.273   2.856 -0.1988  1.3825 -0.3958
 8246TIP3    H224703   6.290   4.251   2.910 -0.2514  2.1407 -0.2098
 8247TIP3   OH224704   1.511   5.922   0.915  0.5073 -0.4621  0.2832
 8247TIP3    H124705   1.448   5.934   0.844 -0.1293  0.7408  1.0069
 8247TIP3    H224706   1.580   5.985   0.896  1.1254 -1.2554 -0.1105
 8248TIP3   OH224707   3.027   5.464   4.556 -0.2232 -0.5563  0.4661
 8248TIP3    H124708   2.932   5.449   4.563 -0.4083  0.2217 -0.1532
 8248TIP3    H224709   3.067   5.380   4.581 -1.0993 -1.1637 -0.1073
 8249TIP3   OH224710   1.356   3.036   2.326 -0.1992 -0.3647 -0.1345
 8249TIP3    H124711   1.416   2.962   2.322  0.4243  0.1557 -0.6935
 8249TIP3    H224712   1.313   3.038   2.241  0.4842  0.4605 -0.4854
 8250TIP3   OH224713   2.404   0.228   0.956  0.2422  0.0501  0.1599
 8250TIP3    H124714   2.354   0.163   1.007  0.2312  0.7062  0.9953
 8250TIP3    H224715   2.352   0.308   0.961  0.2814  0.1592 -0.8307
 8251TIP3   OH224716   1.757   3.986   3.114  0.0473 -0.4105  0.5502
 8251TIP3    H124717   1.716   4.058   3.162 -1.3326 -0.2392 -0.8137
 8251TIP3    H224718   1.723   3.907   3.157 -0.6891 -0.2562  0.2629
 8252TIP3   OH224719   2.261   0.036   1.067 -0.0776 -0.3703  0.0002
 8252TIP3    H124720   2.195   0.014   1.133 -2.2470  2.2509 -1.1220
 8252TIP3    H224721   2.309  -0.046   1.053 -0.5968 -1.4711  3.5398
 8253TIP3   OH224722   1.400   3.715   4.307 -0.4370 -0.2575  0.2501
 8253TIP3    H124723   1.443   3.791   4.269 -1.5179  1.2887  1.9261
 8253TIP3    H224724   1.341   3.683   4.239  0.5686 -0.0893 -0.7282
 8254TIP3   OH224725   3.060   6.153   2.889 -0.7774  0.4991 -0.3047
 8254TIP3    H124726   2.998   6.132   2.820 -0.4718 -1.3885 -0.0656
 8254TIP3    H224727   3.014   6.130   2.970 -0.5827  1.2522  0.0279
 8255TIP3   OH224728   4.108   2.407   5.380  0.2087  0.5509 -0.2843
 8255TIP3    H124729   4.016   2.431   5.392  0.4486  1.1470  0.4067
 8255TIP3    H224730   4.138   2.383   5.467  1.1958  2.1288 -0.1617
 8256TIP3   OH224731   6.120   4.478   2.175  0.2983 -0.2890 -0.4859
 8256TIP3    H124732   6.039   4.489   2.125 -1.2607 -1.8152  1.5417
 8256TIP3    H224733   6.095   4.422   2.249  3.4204 -1.6441 -0.3028
 8257TIP3   OH224734   3.716   3.212   4.758  0.3314  0.1263  0.1727
 8257TIP3    H124735   3.648   3.172   4.704  0.9110 -0.7982  0.1189
 8257TIP3    H224736   3.678   3.296   4.785 -0.1898  0.3691 -1.2128
 8258TIP3   OH224737   1.041   4.799   5.438  0.6819 -0.3518 -0.4632
 8258TIP3    H124738   1.056   4.745   5.516  1.3177 -0.5998 -0.7475
 8258TIP3    H224739   0.985   4.870   5.468 -0.0841 -1.1163 -0.0600
 8259TIP3   OH224740   1.161   0.915   3.978 -0.1193 -0.2379  0.0508
 8259TIP3    H124741   1.181   0.832   3.936  0.1259  0.5364 -1.4326
 8259TIP3    H224742   1.067   0.909   3.999 -0.1784 -0.7535 -0.3490
 8260TIP3   OH224743   4.852   2.969   3.311 -0.0296  0.0013 -0.0508
 8260TIP3    H124744   4.766   2.940   3.280  0.2008  0.0995 -0.7917
 8260TIP3    H224745   4.915   2.916   3.262  0.4261  1.9673 -1.7556
 8261TIP3   OH224746   3.602   1.861   0.719 -0.3770  0.5282 -0.2267
 8261TIP3    H124747   3.631   1.847   0.629  1.6857  0.0942  0.4577
 8261TIP3    H224748   3.668   1.918   0.758 -0.9129  0.2397  1.1806
 8262TIP3   OH224749   6.005   1.413   5.588  0.3161  0.2733 -0.4602
 8262TIP3    H124750   6.038   1.326   5.564 -0.7028 -0.6773  1.3304
 8262TIP3    H224751   6.030   1.469   5.515  2.6976 -1.1025 -0.8078
 8263TIP3   OH224752   6.462   4.082   5.609 -0.2340  0.1835 -0.1589
 8263TIP3    H124753   6.524   4.155   5.615  0.4509 -0.4027  0.0180
 8263TIP3    H224754   6.380   4.123   5.582  0.0812  1.0487  0.1544
 8264TIP3   OH224755   6.258   1.921   3.435 -0.4626  0.0137  0.3338
 8264TIP3    H124756   6.262   1.911   3.340 -0.9303 -1.3360  0.4337
 8264TIP3    H224757   6.166   1.904   3.456  0.0477 -1.9127  1.2213
 8265TIP3   OH224758   1.195   0.143   4.199  0.1334 -0.4520  0.6084
 8265TIP3    H124759   1.123   0.122   4.259 -0.0587  0.7930  0.8429
 8265TIP3    H224760   1.177   0.232   4.171  0.6898 -0.7195 -0.6571
 8266TIP3   OH224761   6.487   5.423   3.888 -0.0577 -0.4879 -0.0224
 8266TIP3    H124762   6.569   5.394   3.927  0.5952  2.4400  1.0123
 8266TIP3    H224763   6.506   5.434   3.795  0.4367 -0.7392  0.0474
 8267TIP3   OH224764   3.054   2.461   1.373 -0.2216 -0.5136 -0.0536
 8267TIP3    H124765   3.031   2.525   1.440  1.1746  0.4803 -0.4797
 8267TIP3    H224766   2.994   2.479   1.301  0.0140  0.1997 -0.0847
 8268TIP3   OH224767   3.918   4.952   3.972 -0.1248 -0.0086  0.0633
 8268TIP3    H124768   3.846   4.995   4.018  0.1940  0.2651  0.3058
 8268TIP3    H224769   3.887   4.863   3.958 -0.4759  0.0818  0.2461
 8269TIP3   OH224770   4.280   1.347   4.686 -0.4465  0.1294 -0.1741
 8269TIP3    H124771   4.296   1.305   4.602 -2.8070  0.0318 -0.6385
 8269TIP3    H224772   4.234   1.280   4.738 -0.0740  0.5907  0.7783
 8270TIP3   OH224773   6.180   3.999   2.362  0.4538 -0.2557  0.3049
 8270TIP3    H124774   6.123   4.018   2.436  1.9250  0.0731  1.4161
 8270TIP3    H224775   6.144   3.919   2.324 -0.2045 -0.5851  1.5478
 8271TIP3   OH224776   3.394   0.921   2.393  0.0898 -0.1311 -0.3276
 8271TIP3    H124777   3.476   0.900   2.349  1.6669  4.5587 -0.1978
 8271TIP3    H224778   3.341   0.963   2.326 -0.3249  0.8704  0.6035
 8272TIP3   OH224779   3.854   0.480   2.787  0.4141  0.5269  0.1799
 8272TIP3    H124780   3.848   0.389   2.759  2.5054 -0.5682  2.7775
 8272TIP3    H224781   3.901   0.524   2.717  1.1269 -0.8969 -0.2775
 8273TIP3   OH224782   0.458   1.659   2.351  0.2006 -0.1538  0.0442
 8273TIP3    H124783   0.478   1.651   2.258  1.0843  0.6786  0.1386
 8273TIP3    H224784   0.419   1.575   2.375 -1.1469  0.0339 -1.3266
 8274TIP3   OH224785   1.107   6.118   5.297  0.0637  0.8331  0.0024
 8274TIP3    H124786   1.105   6.026   5.270 -0.3714  0.5534  0.9166
 8274TIP3    H224787   1.197   6.146   5.281  0.9106 -0.4868  1.9942
 8275TIP3   OH224788   4.682   3.564   2.739 -0.2935 -0.3525 -0.0604
 8275TIP3    H124789   4.734   3.486   2.720  0.1113  0.3464 -2.0337
 8275TIP3    H224790   4.677   3.611   2.656 -0.4695  1.7736  1.0770
 8276TIP3   OH224791   1.660   4.499   2.149 -0.1800 -1.3470 -0.4191
 8276TIP3    H124792   1.607   4.565   2.194  0.8628 -1.0232  0.3596
 8276TIP3    H224793   1.596   4.446   2.101 -0.9901  0.7311 -1.7646
 8277TIP3   OH224794   3.461   4.737   4.538 -0.0614 -0.2919  0.1515
 8277TIP3    H124795   3.460   4.766   4.630 -2.4975  0.3739  0.0005
 8277TIP3    H224796   3.368   4.729   4.515  0.4798 -0.0418 -2.3996
 8278TIP3   OH224797   1.022   5.992   0.266  0.3047  0.2498 -0.0606
 8278TIP3    H124798   0.963   5.924   0.235  0.4369  0.6245 -1.1774
 8278TIP3    H224799   1.046   6.041   0.187  1.4853  0.5863  0.4804
 8279TIP3   OH224800   4.599   5.490   2.270  0.1475 -0.0154  0.4406
 8279TIP3    H124801   4.528   5.535   2.224  0.3150 -0.6802 -0.4841
 8279TIP3    H224802   4.591   5.520   2.361 -1.3507 -0.1021  0.3670
 8280TIP3   OH224803   1.315   3.006   5.377  0.2933 -0.1255  0.9044
 8280TIP3    H124804   1.361   2.922   5.375 -0.2336 -0.4117  0.0758
 8280TIP3    H224805   1.223   2.983   5.362  0.4237  0.7483 -1.7932
 8281TIP3   OH224806   5.383   2.044   3.351 -0.5492 -0.1171  0.4023
 8281TIP3    H124807   5.358   2.136   3.359 -0.9054  0.0546 -1.8939
 8281TIP3    H224808   5.438   2.027   3.427 -0.0678  2.1288  0.6294
 8282TIP3   OH224809   3.778   3.901   4.112 -0.1368  0.8739  0.3612
 8282TIP3    H124810   3.836   3.831   4.083 -1.2810 -0.2798  0.7263
 8282TIP3    H224811   3.728   3.862   4.184 -0.5394  2.2054  0.8427
 8283TIP3   OH224812   2.069   5.421   5.532 -0.2537 -0.3686 -0.1737
 8283TIP3    H124813   2.048   5.434   5.625  1.4449  0.1975  0.1753
 8283TIP3    H224814   2.145   5.363   5.533  0.4000  0.4345 -1.1392
 8284TIP3   OH224815   4.800   3.358   2.307 -0.4082  0.3490  0.1381
 8284TIP3    H124816   4.825   3.441   2.348  0.1558  0.7501 -0.9717
 8284TIP3    H224817   4.705   3.354   2.316 -0.2091 -0.1503  2.4942
 8285TIP3   OH224818   4.565   2.202   2.628 -0.2775  0.2518  0.1308
 8285TIP3    H124819   4.599   2.289   2.610  0.1842 -0.2002 -1.3120
 8285TIP3    H224820   4.499   2.186   2.560 -0.4799 -0.4484  0.4788
 8286TIP3   OH224821   7.077   3.213   3.572  0.0773  0.5387 -0.3051
 8286TIP3    H124822   7.081   3.147   3.502  1.6906  0.4594 -0.1607
 8286TIP3    H224823   7.167   3.240   3.585 -0.3440  1.4194  0.9531
 8287TIP3   OH224824   6.524   1.587   1.220 -0.7349 -0.0988 -0.0040
 8287TIP3    H124825   6.519   1.604   1.314 -0.0699 -0.4622  0.1067
 8287TIP3    H224826   6.618   1.584   1.201 -0.8234  1.7243 -1.0132
 8288TIP3   OH224827   1.374   3.370   2.804 -0.3371 -0.2744 -0.2016
 8288TIP3    H124828   1.299   3.311   2.797 -0.3579 -0.2124 -0.5087
 8288TIP3    H224829   1.341   3.445   2.854 -0.2555 -0.6083  0.3647
 8289TIP3   OH224830  -0.023   2.830   3.645  0.1374  0.4577 -0.4141
 8289TIP3    H124831   0.054   2.880   3.672  0.6287 -0.5113  0.0732
 8289TIP3    H224832  -0.011   2.814   3.552  0.0723  1.0684 -0.5284
 8290TIP3   OH224833   5.236   3.857   3.077  0.3469 -0.3979 -0.2220
 8290TIP3    H124834   5.143   3.842   3.094  0.0116 -0.1089 -1.6783
 8290TIP3    H224835   5.264   3.781   3.026  0.8825 -0.4289  0.1117
 8291TIP3   OH224836   0.554   3.612   0.337  0.4741 -0.0005  0.1897
 8291TIP3    H124837   0.519   3.525   0.350  0.6227 -0.0133  0.5330
 8291TIP3    H224838   0.478   3.670   0.341  0.1610 -0.2412 -1.6134
 8292TIP3   OH224839   6.900   0.222   0.604 -0.2777 -0.0217 -0.3380
 8292TIP3    H124840   6.824   0.178   0.641 -0.3569 -0.2371 -0.7520
 8292TIP3    H224841   6.923   0.289   0.668  0.3860 -1.2303  0.7423
 8293TIP3   OH224842   3.818   0.961   4.865 -0.2261 -0.4106 -0.3694
 8293TIP3    H124843   3.802   1.044   4.819 -1.8779 -0.2432  0.4502
 8293TIP3    H224844   3.868   0.987   4.943  0.1926 -0.3406 -0.6557
 8294TIP3   OH224845   0.922   1.451   5.645 -0.1770 -0.4061  0.0104
 8294TIP3    H124846   0.849   1.405   5.685 -0.9770  1.7200  1.1412
 8294TIP3    H224847   0.886   1.491   5.566  0.0612 -0.3003 -0.0471
 8295TIP3   OH224848   4.517   5.222   5.577  0.4216  0.3326 -0.2667
 8295TIP3    H124849   4.562   5.278   5.640  0.7494 -1.4301  1.1439
 8295TIP3    H224850   4.429   5.210   5.613  0.6956 -0.9015  0.0241
 8296TIP3   OH224851   2.973   6.065   4.779 -0.3136  0.0981 -0.1378
 8296TIP3    H124852   2.961   5.998   4.713 -1.3619 -0.4682  0.6005
 8296TIP3    H224853   2.915   6.136   4.752  2.3502  1.7334 -2.1143
 8297TIP3   OH224854   0.835   1.547   5.335 -0.2607  0.0948 -0.1675
 8297TIP3    H124855   0.831   1.641   5.350  1.0142 -0.0340  1.1365
 8297TIP3    H224856   0.766   1.510   5.390  0.6158  0.1125  0.9702
 8298TIP3   OH224857   4.303   0.904   4.421  0.0502 -0.6616  0.2564
 8298TIP3    H124858   4.248   0.916   4.344 -0.8780 -2.2678  0.6205
 8298TIP3    H224859   4.254   0.946   4.492  1.4274  1.8188 -0.1532
 8299TIP3   OH224860   3.846   5.201   3.248  0.0425 -0.2569  0.4108
 8299TIP3    H124861   3.911   5.136   3.224 -1.6373 -1.4030 -1.3441
 8299TIP3    H224862   3.762   5.157   3.235 -1.1428  1.8037  0.6052
 8300TIP3   OH224863   2.871   3.549   4.242 -0.4390  0.3115 -0.1070
 8300TIP3    H124864   2.847   3.466   4.200  0.5004  0.0430 -0.1265
 8300TIP3    H224865   2.830   3.545   4.328 -0.5634 -0.0888 -0.1821
 8301TIP3   OH224866   4.706   5.530   1.928 -0.1257 -0.0373  0.1777
 8301TIP3    H124867   4.641   5.572   1.984 -1.9899 -1.1368 -1.0403
 8301TIP3    H224868   4.669   5.444   1.909  0.3471  0.3109 -2.7591
 8302TIP3   OH224869   5.969   2.486   3.693 -0.5710  0.2586 -0.4039
 8302TIP3    H124870   5.883   2.512   3.659 -1.2136  1.1158  1.7070
 8302TIP3    H224871   6.006   2.567   3.728  0.3616 -0.4375  0.2525
 8303TIP3   OH224872   5.176   0.087   2.371  0.2179  0.0001  0.1735
 8303TIP3    H124873   5.214   0.136   2.445  0.8416 -0.0896 -0.0801
 8303TIP3    H224874   5.095   0.051   2.406  0.7929 -0.5375  1.0107
 8304TIP3   OH224875   2.213   2.188   0.746  0.1280 -0.5567  0.5988
 8304TIP3    H124876   2.286   2.247   0.766  0.0074  0.7637 -2.4558
 8304TIP3    H224877   2.156   2.194   0.823  0.8186  2.2304  0.9819
 8305TIP3   OH224878   5.820   5.530   1.776 -0.2955  0.2087  0.1066
 8305TIP3    H124879   5.743   5.587   1.788  0.3518  0.9924  0.6770
 8305TIP3    H224880   5.886   5.568   1.834  0.1895 -1.0798  0.4132
 8306TIP3   OH224881   0.277   0.868   1.404  0.3016  0.5081 -0.0956
 8306TIP3    H124882   0.321   0.953   1.405 -0.1234  0.7325 -0.0195
 8306TIP3    H224883   0.184   0.890   1.414 -0.0171  0.1630 -2.0088
 8307TIP3   OH224884   6.197   4.006   5.397  0.1563 -0.5863  0.9693
 8307TIP3    H124885   6.197   4.095   5.362 -0.3048 -0.8764  0.2030
 8307TIP3    H224886   6.246   3.955   5.332 -0.2577 -1.0363  1.0106
 8308TIP3   OH224887   6.559   5.080   4.486  0.1799  0.8005  0.3065
 8308TIP3    H124888   6.541   5.017   4.556  0.0447  2.5918  1.9590
 8308TIP3    H224889   6.485   5.140   4.489  0.8319  1.6610 -0.5043
 8309TIP3   OH224890   1.548   6.747   4.269 -0.1103  0.0950 -0.6355
 8309TIP3    H124891   1.482   6.787   4.212 -0.3330  2.4648  1.1059
 8309TIP3    H224892   1.628   6.796   4.251  0.0540  0.2158  0.3527
 8310TIP3   OH224893   3.560   3.251   5.195 -0.2313 -0.0757 -0.8417
 8310TIP3    H124894   3.634   3.309   5.213  1.1587 -1.4672 -1.8092
 8310TIP3    H224895   3.513   3.294   5.124  0.8205 -0.1289 -1.6010
 8311TIP3   OH224896   4.351   1.192   0.452  0.3432 -0.5711  0.7536
 8311TIP3    H124897   4.332   1.264   0.392 -0.3854 -0.0904  1.5416
 8311TIP3    H224898   4.415   1.138   0.406  0.7075  0.4443  0.0567
 8312TIP3   OH224899   6.723   5.759   4.688 -0.5346  0.2196 -0.4940
 8312TIP3    H124900   6.689   5.742   4.776 -0.7507  0.9565 -0.4215
 8312TIP3    H224901   6.671   5.834   4.657  0.4548  0.8299 -0.7082
 8313TIP3   OH224902   3.635   3.239   0.948 -0.1963  0.4266  0.6250
 8313TIP3    H124903   3.621   3.291   0.869  0.5458  1.2340  1.0197
 8313TIP3    H224904   3.730   3.235   0.958 -0.0658 -2.8954 -0.6430
 8314TIP3   OH224905   5.311   0.720   4.171 -0.1295  0.5761  0.2162
 8314TIP3    H124906   5.317   0.646   4.111 -2.7083  0.2602  0.2309
 8314TIP3    H224907   5.294   0.681   4.256 -1.9646  1.1540  0.1482
 8315TIP3   OH224908   3.536   4.686   4.147  0.1044 -0.2501  0.1328
 8315TIP3    H124909   3.598   4.619   4.177 -1.4318 -2.1893 -0.7594
 8315TIP3    H224910   3.474   4.638   4.092 -1.4484  1.8279 -0.0527
 8316TIP3   OH224911   4.169   1.139   4.866 -0.6092 -0.4221  0.3084
 8316TIP3    H124912   4.157   1.063   4.924 -2.8090 -1.3274 -1.1793
 8316TIP3    H224913   4.080   1.173   4.854  0.2279  1.7834  0.0854
 8317TIP3   OH224914   2.502   3.257   0.956  0.1261  0.1430  0.5561
 8317TIP3    H124915   2.447   3.289   1.027 -0.0883 -0.0036  0.4579
 8317TIP3    H224916   2.585   3.304   0.966 -0.3154  1.0246  0.1751
 8318TIP3   OH224917   0.058   4.961   5.698  0.0207 -0.3679 -0.8680
 8318TIP3    H124918  -0.035   4.968   5.675 -0.8700 -3.1443  1.2290
 8318TIP3    H224919   0.057   4.931   5.789  3.0802  2.3485  0.2604
 8319TIP3   OH224920   6.983   4.366   1.210  0.0123  0.6978  1.0278
 8319TIP3    H124921   6.997   4.436   1.275 -0.6449  2.5452 -0.7156
 8319TIP3    H224922   7.072   4.344   1.180  0.1477  2.4699 -0.0287
 8320TIP3   OH224923   3.776   6.315   0.681  0.1495 -0.1379 -0.0569
 8320TIP3    H124924   3.702   6.375   0.679  1.3068  1.3464  0.3942
 8320TIP3    H224925   3.736   6.228   0.683 -1.5753  0.6308  0.7384
 8321TIP3   OH224926   4.129   4.843   0.058 -0.2507 -0.3126 -0.1385
 8321TIP3    H124927   4.216   4.883   0.054 -0.2842 -0.0381  1.2132
 8321TIP3    H224928   4.080   4.885  -0.013 -0.2319  1.9996  1.0958
 8322TIP3   OH224929   4.793   5.014   2.823  0.4382  0.3705 -0.1573
 8322TIP3    H124930   4.701   5.019   2.796  0.5253 -0.2218 -0.5588
 8322TIP3    H224931   4.839   4.980   2.747  0.8222 -0.4238  0.4154
 8323TIP3   OH224932   1.629   0.935   2.726  0.2139 -0.1594 -0.2361
 8323TIP3    H124933   1.648   0.974   2.641  0.5556  0.4176  0.0966
 8323TIP3    H224934   1.702   0.875   2.743 -0.9791 -2.0334 -1.3603
 8324TIP3   OH224935   1.437   4.719   2.455 -0.3213 -0.1146 -0.2858
 8324TIP3    H124936   1.377   4.773   2.507  0.0269 -0.2384  0.2597
 8324TIP3    H224937   1.486   4.782   2.403 -0.9359 -0.0149 -0.7552
 8325TIP3   OH224938   3.521   3.922   0.291  0.4288  0.1393 -0.3802
 8325TIP3    H124939   3.568   3.843   0.263  0.3152 -1.0845  2.5228
 8325TIP3    H224940   3.589   3.980   0.323  0.3691  0.4910 -0.8902
 8326TIP3   OH224941   6.810   1.990   4.890 -0.0175  0.3643  0.2134
 8326TIP3    H124942   6.817   2.009   4.983 -1.1340  2.1322 -0.0036
 8326TIP3    H224943   6.897   1.958   4.865  0.6563  0.9909  1.6293
 8327TIP3   OH224944   3.818   3.327   0.112 -0.1345 -0.1865 -0.3826
 8327TIP3    H124945   3.728   3.310   0.139 -0.5592 -0.3063 -1.8066
 8327TIP3    H224946   3.864   3.245   0.130  0.6866  0.9595  3.9110
 8328TIP3   OH224947   1.332   2.748   0.167 -0.2840 -0.3625  0.0179
 8328TIP3    H124948   1.423   2.723   0.153  0.1655  1.1678  0.1055
 8328TIP3    H224949   1.336   2.826   0.222 -1.5598  0.9495 -1.6395
 8329TIP3   OH224950   1.286   0.474   3.161  0.2261 -0.1409 -0.4756
 8329TIP3    H124951   1.282   0.400   3.223 -1.3147  0.5229  0.2888
 8329TIP3    H224952   1.223   0.451   3.093  0.7389 -0.1291 -0.9600
 8330TIP3   OH224953   1.218   3.596   2.928 -0.2553  0.1042  0.2534
 8330TIP3    H124954   1.224   3.676   2.981  0.2138 -0.7729  1.5635
 8330TIP3    H224955   1.186   3.627   2.843 -0.1109  1.6846  0.7292
 8331TIP3   OH224956   4.110   0.442   0.965 -0.4077 -0.0897 -0.0626
 8331TIP3    H124957   4.192   0.422   1.011 -0.7479 -2.7360 -0.4403
 8331TIP3    H224958   4.111   0.537   0.954  1.3267  0.2659  2.3087
 8332TIP3   OH224959   1.408   2.440   0.982 -0.4304  0.0296 -0.3042
 8332TIP3    H124960   1.423   2.517   0.928  4.2062 -1.2692 -1.3461
 8332TIP3    H224961   1.394   2.369   0.919 -0.5666 -0.6066  0.4287
 8333TIP3   OH224962   4.426   4.733   1.874 -0.5275 -0.8076 -0.4385
 8333TIP3    H124963   4.491   4.709   1.941  1.2751 -1.0240 -2.1561
 8333TIP3    H224964   4.407   4.651   1.829 -0.0357 -0.3382 -1.5486
 8334TIP3   OH224965   4.069   0.439   4.149 -0.6739 -0.1830  0.6359
 8334TIP3    H124966   4.099   0.529   4.137  0.4816 -0.2172  2.7736
 8334TIP3    H224967   4.013   0.443   4.227 -0.9171 -1.2584  0.5308
 8335TIP3   OH224968   3.852   0.882   4.301  0.2227 -0.1178  0.1259
 8335TIP3    H124969   3.879   0.825   4.229  0.7775 -0.6177  0.7159
 8335TIP3    H224970   3.771   0.923   4.270  0.2640 -0.5887 -0.6376
 8336TIP3   OH224971   4.912   2.373   0.816  0.1596  0.0557 -0.3281
 8336TIP3    H124972   4.886   2.318   0.889 -2.3697 -0.1451 -1.2655
 8336TIP3    H224973   4.898   2.463   0.847  0.8013  0.0544 -0.0113
 8337TIP3   OH224974   4.621   2.146   2.210 -0.2000  0.3951  0.6908
 8337TIP3    H124975   4.541   2.199   2.210 -0.1663  0.4499  0.1464
 8337TIP3    H224976   4.610   2.086   2.136  0.9736  1.5062 -0.4343
 8338TIP3   OH224977   3.059   0.209   2.805 -0.0861  0.2484  0.4571
 8338TIP3    H124978   3.096   0.165   2.881 -0.1373  1.1655  1.0196
 8338TIP3    H224979   2.973   0.168   2.792  0.1491 -0.2803  0.5517
 8339TIP3   OH224980   0.587   2.664   3.045  0.0661 -0.2020 -0.5426
 8339TIP3    H124981   0.657   2.608   3.081 -1.2946 -1.2559  0.5878
 8339TIP3    H224982   0.521   2.603   3.014 -1.1800  0.7493  0.1286
 8340TIP3   OH224983   3.317   5.349   3.566  0.5736  0.0053  0.0882
 8340TIP3    H124984   3.286   5.435   3.535 -0.9461 -0.7023 -0.4867
 8340TIP3    H224985   3.274   5.286   3.507  3.0804 -1.1060 -0.6844
 8341TIP3   OH224986   5.468   4.651   0.608 -0.1159 -0.4681 -0.7357
 8341TIP3    H124987   5.378   4.629   0.584 -0.1114 -0.8386 -0.4201
 8341TIP3    H224988   5.520   4.620   0.535 -0.3408  0.7662 -1.4508
 8342TIP3   OH224989   4.345   0.276   3.496  0.3757 -0.5301 -0.0409
 8342TIP3    H124990   4.263   0.255   3.451 -0.2021  1.0033  0.2489
 8342TIP3    H224991   4.413   0.251   3.434 -0.3734  0.2290 -1.2104
 8343TIP3   OH224992   6.644   6.032   3.529  0.2969 -0.1709 -0.2094
 8343TIP3    H124993   6.614   5.985   3.607  1.7822  0.6305  0.9140
 8343TIP3    H224994   6.565   6.049   3.478 -0.9765  0.7388  1.9419
 8344TIP3   OH224995   2.378   6.016   2.562  0.5374 -0.5562  0.5161
 8344TIP3    H124996   2.378   6.037   2.469 -0.4847  0.2641  0.6957
 8344TIP3    H224997   2.309   6.070   2.600 -0.4103 -2.3155  1.4255
 8345TIP3   OH224998   6.452   5.335   4.632 -0.3108 -0.2215  0.4736
 8345TIP3    H124999   6.432   5.343   4.726 -0.8870  2.4142  0.2173
 8345TIP3    H225000   6.370   5.308   4.592 -0.2260 -0.7555  0.6548
 8346TIP3   OH225001   0.877   2.070   5.057 -0.0644 -0.0603 -0.4122
 8346TIP3    H125002   0.971   2.062   5.043  0.0135  1.4643 -0.9332
 8346TIP3    H225003   0.839   2.057   4.971  0.0636  4.1105 -1.3089
 8347TIP3   OH225004   2.242   0.969   1.631 -0.4256 -0.0225  0.4306
 8347TIP3    H125005   2.175   1.030   1.662  0.1821  0.1852  1.3862
 8347TIP3    H225006   2.315   0.981   1.692  0.5524 -0.1237 -0.6724
 8348TIP3   OH225007   6.769   0.922   4.251 -0.3739  0.0848 -0.4265
 8348TIP3    H125008   6.742   0.836   4.281 -0.7900  0.9644  1.9425
 8348TIP3    H225009   6.695   0.955   4.201 -0.3268 -0.7930 -1.0913
 8349TIP3   OH225010   2.307   6.810   1.623 -0.1414  0.5949  0.9511
 8349TIP3    H125011   2.364   6.811   1.700 -0.1615 -1.2530  1.0542
 8349TIP3    H225012   2.356   6.759   1.558 -0.2880  1.8114 -0.1424
 8350TIP3   OH225013   0.540   0.028   1.750 -0.0444  0.0397 -0.1862
 8350TIP3    H125014   0.585   0.075   1.680 -0.5324 -0.3318 -0.7571
 8350TIP3    H225015   0.511  -0.054   1.710  0.5294 -0.6234  0.7148
 8351TIP3   OH225016   1.700   6.109   1.492 -0.3028  0.3344  0.9766
 8351TIP3    H125017   1.719   6.015   1.500 -0.4086  0.3120  0.9633
 8351TIP3    H225018   1.688   6.123   1.398 -3.5188 -0.2854  1.1582
 8352TIP3   OH225019   6.449   4.379   5.608  0.9120  0.3872 -0.1492
 8352TIP3    H125020   6.515   4.357   5.542 -1.3940 -1.4871 -1.9957
 8352TIP3    H225021   6.423   4.469   5.588 -0.5008 -0.4859 -2.5859
 8353TIP3   OH225022   0.117   2.959   0.175 -0.0296  0.4640 -0.0257
 8353TIP3    H125023   0.036   2.914   0.197  0.1431  0.2278  0.1332
 8353TIP3    H225024   0.149   2.914   0.097  0.0770  0.3958  0.0577
 8354TIP3   OH225025   4.067   5.292   3.925  0.6477  0.0978  0.4228
 8354TIP3    H125026   4.110   5.214   3.890  1.2109  0.0105  1.2915
 8354TIP3    H225027   4.085   5.360   3.860 -2.4111 -1.1069 -1.9709
 8355TIP3   OH225028   4.702   2.398   1.935 -0.4194 -0.1949 -0.2283
 8355TIP3    H125029   4.684   2.324   1.878  0.6014 -0.5035 -0.1723
 8355TIP3    H225030   4.767   2.365   1.998 -1.7657  0.0253  1.3424
 8356TIP3   OH225031   6.964   1.566   2.948 -0.3853 -0.1319  0.0483
 8356TIP3    H125032   7.001   1.603   2.869  1.4823 -0.8596  0.5290
 8356TIP3    H225033   7.005   1.479   2.955 -1.5760 -0.6438  1.0676
 8357TIP3   OH225034   0.197   6.300   4.888  0.1682 -0.2302  0.4094
 8357TIP3    H125035   0.277   6.283   4.837  0.4671 -0.5534  0.9779
 8357TIP3    H225036   0.132   6.240   4.852 -0.3857  1.3160 -1.3305
 8358TIP3   OH225037   4.478   3.262   0.359 -0.4717 -0.2675  0.7568
 8358TIP3    H125038   4.472   3.255   0.454  2.5000 -0.4850  1.0326
 8358TIP3    H225039   4.397   3.306   0.333 -1.7395 -0.9238  3.2596
 8359TIP3   OH225040   4.381   2.308   3.980 -0.2526 -0.5629 -0.8336
 8359TIP3    H125041   4.466   2.301   4.022 -0.5947 -3.7219 -0.4427
 8359TIP3    H225042   4.400   2.344   3.893  1.5628 -1.6342 -0.9221
 8360TIP3   OH225043   5.982   4.311   3.525  0.0681 -0.3510  0.3213
 8360TIP3    H125044   6.042   4.385   3.514 -1.2245  0.9693  1.5825
 8360TIP3    H225045   5.924   4.339   3.596 -1.1582 -2.1436  0.0704
 8361TIP3   OH225046   0.220   5.252   5.257  0.1648 -0.3204  0.1177
 8361TIP3    H125047   0.154   5.227   5.321 -0.2043 -1.0101 -0.5182
 8361TIP3    H225048   0.169   5.282   5.181  0.5692 -1.1657 -0.4975
 8362TIP3   OH225049   5.721   6.635   1.645  0.7219  0.2382  0.1425
 8362TIP3    H125050   5.641   6.601   1.686  1.2170 -0.1861  0.7732
 8362TIP3    H225051   5.692   6.715   1.599 -0.0948 -0.0171  0.1978
 8363TIP3   OH225052   0.349   0.065   4.994  0.5743 -0.1550 -0.5122
 8363TIP3    H125053   0.279   0.024   4.945  0.1989 -0.3150  0.1502
 8363TIP3    H225054   0.417   0.082   4.929  1.1620 -2.7013 -0.6658
 8364TIP3   OH225055   6.250   1.599   3.174 -0.0062  0.4358  0.4304
 8364TIP3    H125056   6.238   1.530   3.240 -1.0877  1.0671  0.9148
 8364TIP3    H225057   6.338   1.584   3.140 -0.6486 -2.0143 -0.4103
 8365TIP3   OH225058   1.616   3.194   1.714 -0.7379 -0.3383  0.1296
 8365TIP3    H125059   1.672   3.117   1.723 -0.7131 -0.2636  0.6801
 8365TIP3    H225060   1.634   3.227   1.626  1.7785  1.0126  1.0582
 8366TIP3   OH225061   4.332   2.833   0.074 -0.4194  0.7068 -0.2990
 8366TIP3    H125062   4.374   2.888   0.140 -0.4807  0.8581 -0.3863
 8366TIP3    H225063   4.281   2.894   0.021  2.2568  1.1538 -2.6180
 8367TIP3   OH225064   4.234   5.792   0.986  0.0792 -0.6423 -0.4231
 8367TIP3    H125065   4.296   5.783   0.914  0.6333 -0.1571 -0.0100
 8367TIP3    H225066   4.234   5.706   1.028  0.0478 -0.8085 -0.7580
 8368TIP3   OH225067   3.282   1.414   0.605 -0.1066  0.3794  0.1518
 8368TIP3    H125068   3.367   1.404   0.648 -1.1717 -2.1511  1.8760
 8368TIP3    H225069   3.221   1.365   0.660 -2.6130  1.5758 -1.3665
 8369TIP3   OH225070   0.922   3.570   0.035  0.2826 -0.7053  0.2486
 8369TIP3    H125071   0.992   3.630   0.063 -1.0017  0.9322  0.1232
 8369TIP3    H225072   0.853   3.582   0.101 -0.8444 -0.4265 -0.9412
 8370TIP3   OH225073   0.052   0.851   0.083 -0.2037 -0.9291  0.0473
 8370TIP3    H125074  -0.005   0.784   0.045 -1.0901 -0.9788  1.3845
 8370TIP3    H225075   0.052   0.922   0.018 -1.7615 -0.9543 -0.0287
 8371TIP3   OH225076   6.221   6.358   3.949  0.3115 -0.4385  0.0002
 8371TIP3    H125077   6.292   6.415   3.979  1.3254 -1.4599 -0.3562
 8371TIP3    H225078   6.183   6.403   3.874  0.5608  0.1327  0.2135
 8372TIP3   OH225079   5.205   0.620   4.384  0.2803  0.6037 -0.2439
 8372TIP3    H125080   5.167   0.598   4.470  1.6741 -0.0453  0.2424
 8372TIP3    H225081   5.158   0.564   4.322 -2.1607  2.5150 -0.2528
 8373TIP3   OH225082   1.176   3.238   5.552 -0.4013  0.9582  0.6092
 8373TIP3    H125083   1.113   3.175   5.588  0.2793 -1.4107 -1.9444
 8373TIP3    H225084   1.160   3.235   5.457  3.1707  0.5910 -0.1144
 8374TIP3   OH225085   5.843   1.862   1.582 -0.1948  0.0087 -0.2902
 8374TIP3    H125086   5.749   1.867   1.601 -0.2155 -1.9122  0.4148
 8374TIP3    H225087   5.884   1.912   1.651 -0.5991 -1.7897  1.3546
 8375TIP3   OH225088   4.235   5.708   4.503 -0.3591 -0.7914  0.4579
 8375TIP3    H125089   4.276   5.735   4.420 -0.5819  1.0335  0.8948
 8375TIP3    H225090   4.286   5.632   4.532 -0.8027 -2.0231 -1.7449
 8376TIP3   OH225091   0.630   6.466   3.677  0.1465  0.1087  0.1359
 8376TIP3    H125092   0.717   6.433   3.658  0.5688  0.2904  1.5945
 8376TIP3    H225093   0.578   6.388   3.695 -0.1083 -0.0243 -1.1212
 8377TIP3   OH225094   3.233   3.103   4.864 -0.3267 -0.3848 -0.3697
 8377TIP3    H125095   3.170   3.123   4.933 -0.6642 -1.9243 -0.1990
 8377TIP3    H225096   3.244   3.185   4.817 -1.4098  0.2546  0.4497
 8378TIP3   OH225097   1.063   5.611   0.480 -0.6126 -0.7352 -0.4304
 8378TIP3    H125098   1.074   5.706   0.481 -1.2219 -0.6180  2.3355
 8378TIP3    H225099   1.151   5.576   0.466 -0.4210  0.1873 -1.7460
 8379TIP3   OH225100   1.790   6.593   2.010  0.0551 -0.0217  1.0740
 8379TIP3    H125101   1.795   6.512   1.959  0.0902  0.9120 -0.4499
 8379TIP3    H225102   1.836   6.573   2.092  0.8342 -1.2604  0.3613
 8380TIP3   OH225103   1.236   4.189   0.815 -0.1352 -0.1430 -0.3414
 8380TIP3    H125104   1.285   4.133   0.876 -0.3791  0.0228  0.0155
 8380TIP3    H225105   1.303   4.238   0.768  0.1099 -1.2970 -1.2144
 8381TIP3   OH225106   2.563   4.929   0.622 -0.5520 -0.5280 -0.0521
 8381TIP3    H125107   2.560   4.918   0.527 -1.4354  1.8892 -0.4051
 8381TIP3    H225108   2.486   4.881   0.654 -1.1964 -0.0117 -0.7790
 8382TIP3   OH225109   4.185   2.362   5.646 -0.5412  0.1817 -0.0651
 8382TIP3    H125110   4.193   2.457   5.654 -0.5542  0.3052 -1.2427
 8382TIP3    H225111   4.258   2.327   5.697 -0.2570  0.8427 -0.0114
 8383TIP3   OH225112   4.224   5.003   0.517 -0.0314  0.5725  0.6193
 8383TIP3    H125113   4.224   5.098   0.502 -2.4454  0.6374  0.5932
 8383TIP3    H225114   4.191   4.994   0.607  1.4601 -0.2337  1.1173
 8384TIP3   OH225115   5.780   0.635   0.858  0.3120  0.3259  0.0293
 8384TIP3    H125116   5.768   0.599   0.770  1.0998  0.9507 -0.3498
 8384TIP3    H225117   5.706   0.601   0.908 -0.6437  0.6533 -1.0934
 8385TIP3   OH225118   2.643   5.927   2.746 -0.3952  0.3685 -0.2091
 8385TIP3    H125119   2.565   5.921   2.692  0.0016  0.2614 -0.7796
 8385TIP3    H225120   2.618   5.983   2.819 -0.3143  2.3164 -1.6221
 8386TIP3   OH225121   5.453   0.604   3.451  0.3793  0.0929 -0.3298
 8386TIP3    H125122   5.400   0.679   3.476  0.7788  0.2081  0.1942
 8386TIP3    H225123   5.534   0.614   3.501 -0.3356 -1.7447  1.3510
 8387TIP3   OH225124   2.792   5.168   2.749 -0.6481  0.5075  0.3264
 8387TIP3    H125125   2.730   5.096   2.764 -0.6568  0.7050  1.3159
 8387TIP3    H225126   2.775   5.196   2.659 -0.7789 -0.5978 -0.0091
 8388TIP3   OH225127   6.027   6.127   0.061  0.6889  0.0672  0.0479
 8388TIP3    H125128   6.077   6.188   0.116  1.6159  0.1348 -0.8554
 8388TIP3    H225129   6.090   6.060   0.035  0.6049  0.6900 -1.9281
 8389TIP3   OH225130   0.693   2.058   3.793  0.1130  0.1046  0.0103
 8389TIP3    H125131   0.645   2.059   3.710  0.7027 -1.2360 -0.3612
 8389TIP3    H225132   0.627   2.079   3.859 -0.6669 -0.2281 -0.6494
 8390TIP3   OH225133   2.418   6.743   0.895  0.1140  0.0095  0.0488
 8390TIP3    H125134   2.468   6.786   0.826  0.8669  0.9154  1.1382
 8390TIP3    H225135   2.341   6.709   0.850  0.6516  0.4521 -1.2651
 8391TIP3   OH225136   0.388   3.297   1.441 -0.1989 -0.1347 -0.5737
 8391TIP3    H125137   0.397   3.237   1.515 -2.2994 -0.6191 -0.6486
 8391TIP3    H225138   0.451   3.264   1.376  1.5834  0.2220  0.8789
 8392TIP3   OH225139   3.687   4.217   4.749 -0.0020 -0.2790 -0.5017
 8392TIP3    H125140   3.761   4.275   4.735  0.0978 -0.0734  0.7781
 8392TIP3    H225141   3.648   4.207   4.662  0.7388  0.6635 -0.9634
 8393TIP3   OH225142   0.044   2.785   1.909 -0.1911 -0.7047  0.3604
 8393TIP3    H125143   0.059   2.862   1.964  1.9706 -0.9405  0.1785
 8393TIP3    H225144   0.002   2.721   1.967 -0.8046  0.1238  0.8556
 8394TIP3   OH225145   3.484   6.329   4.615  0.0685  0.5504  0.2230
 8394TIP3    H125146   3.530   6.246   4.629 -2.1029 -1.0245 -1.1952
 8394TIP3    H225147   3.454   6.356   4.702  1.3110  0.1754  0.7797
 8395TIP3   OH225148   2.718   2.063   2.502 -0.0753  0.8122  0.0735
 8395TIP3    H125149   2.771   2.069   2.581  0.2371  1.5051 -0.1722
 8395TIP3    H225150   2.641   2.012   2.527 -0.2731  1.5309  0.9903
 8396TIP3   OH225151   1.955   0.323   1.709 -0.0912 -0.5327  1.0577
 8396TIP3    H125152   2.009   0.299   1.784 -0.6787 -0.4681  1.4996
 8396TIP3    H225153   1.866   0.300   1.734 -0.3456 -0.1384  0.5422
 8397TIP3   OH225154   2.660   2.641   5.248 -0.3883 -0.3448 -0.1881
 8397TIP3    H125155   2.676   2.554   5.282  1.7769  0.2244  0.4204
 8397TIP3    H225156   2.730   2.654   5.183  1.5889  2.1385  2.1843
 8398TIP3   OH225157   4.880   0.421   2.129  0.5503  0.0663 -0.2459
 8398TIP3    H125158   4.858   0.405   2.037  1.3384 -0.7326 -0.3074
 8398TIP3    H225159   4.819   0.490   2.156  0.1259  0.1248 -1.2860
 8399TIP3   OH225160   6.050   5.215   2.660  0.4521 -0.1978 -0.0335
 8399TIP3    H125161   6.058   5.310   2.671  0.4232 -0.0950 -0.8420
 8399TIP3    H225162   6.139   5.182   2.669  0.3360 -0.2088  1.2049
 8400TIP3   OH225163   3.942   5.592   5.388  0.1312  0.4255  0.5109
 8400TIP3    H125164   4.022   5.626   5.427  0.1339  1.1217 -0.0619
 8400TIP3    H225165   3.876   5.602   5.456  0.6676 -0.8502  1.2494
 8401TIP3   OH225166   0.692   1.741   2.678  0.3810  0.7530  0.0149
 8401TIP3    H125167   0.771   1.691   2.698  0.2257 -0.2601 -1.6772
 8401TIP3    H225168   0.622   1.677   2.681  0.0045  1.0939 -1.0224
 8402TIP3   OH225169   6.106   6.410   0.988  0.4153  0.5309 -0.4950
 8402TIP3    H125170   6.067   6.479   1.041  1.9990  1.0629  0.0295
 8402TIP3    H225171   6.092   6.330   1.038 -1.8099  0.3623 -1.3077
 8403TIP3   OH225172   2.048   2.812   3.276 -0.1185  0.0536  0.0462
 8403TIP3    H125173   1.990   2.784   3.347 -1.6165 -0.5290 -1.3384
 8403TIP3    H225174   2.038   2.743   3.210 -1.3439  2.1698 -2.1060
 8404TIP3   OH225175   2.719   4.801   0.815 -0.3355 -0.0250 -0.4899
 8404TIP3    H125176   2.645   4.849   0.778 -1.7421 -1.5547  0.2231
 8404TIP3    H225177   2.682   4.716   0.841  1.8693 -1.1629 -0.9011
 8405TIP3   OH225178   5.943   4.689   2.310  0.1102  0.1788  0.7379
 8405TIP3    H125179   6.009   4.731   2.255  0.0317  0.4689  0.8609
 8405TIP3    H225180   5.862   4.697   2.260  0.6473 -2.9496 -0.8960
 8406TIP3   OH225181   1.670   0.412   3.813 -0.0028  0.0607  0.2097
 8406TIP3    H125182   1.588   0.365   3.831 -0.0289  0.7482  2.1628
 8406TIP3    H225183   1.642   0.498   3.781  0.0214 -0.4496 -1.2634
 8407TIP3   OH225184   1.896   0.456   5.002  0.5963 -0.9503 -0.2175
 8407TIP3    H125185   1.862   0.394   4.938 -2.5756  0.4370 -0.0680
 8407TIP3    H225186   1.910   0.404   5.081 -1.7934 -1.6212 -0.1541
 8408TIP3   OH225187   5.876   6.543   1.841  1.0118  0.1927 -0.0882
 8408TIP3    H125188   5.834   6.553   1.756 -0.8010  0.0385  0.7264
 8408TIP3    H225189   5.807   6.564   1.904  2.1428 -0.2298  1.3573
 8409TIP3   OH225190   0.078   6.135   5.154 -0.2943 -0.2325  0.1109
 8409TIP3    H125191  -0.011   6.140   5.188  0.1806  1.6852  1.2079
 8409TIP3    H225192   0.067   6.114   5.061 -1.9633  1.0007 -0.0162
 8410TIP3   OH225193   5.042   2.255   0.067 -0.2563  0.3568  0.3083
 8410TIP3    H125194   5.098   2.241   0.144  0.2024 -2.6152 -0.4450
 8410TIP3    H225195   5.066   2.184   0.007 -2.1861  1.2626 -1.6537
 8411TIP3   OH225196   1.610   2.103   0.648  0.3706 -0.2339 -0.1378
 8411TIP3    H125197   1.685   2.053   0.616  0.8033  0.8716 -0.9295
 8411TIP3    H225198   1.642   2.147   0.726  0.1973 -0.6264  0.1606
 8412TIP3   OH225199   4.121   3.125   4.166  0.0432  0.2899  0.5296
 8412TIP3    H125200   4.037   3.083   4.153  0.6431 -1.4413  1.9153
 8412TIP3    H225201   4.155   3.139   4.077 -1.5131  0.6997 -0.0243
 8413TIP3   OH225202   4.259   0.950   0.587 -0.4806  0.0925  0.1685
 8413TIP3    H125203   4.176   0.969   0.630 -1.0441 -0.2474 -0.7445
 8413TIP3    H225204   4.290   1.035   0.555 -0.3153  0.2655  0.7698
 8414TIP3   OH225205   2.744   6.311   4.440 -0.3040  0.0250  0.0552
 8414TIP3    H125206   2.746   6.386   4.381 -1.4195  1.0724  1.3043
 8414TIP3    H225207   2.657   6.273   4.428  0.0061 -0.6752 -0.0623
 8415TIP3   OH225208   2.261   2.490   0.865  0.7158  0.0683  0.4533
 8415TIP3    H125209   2.348   2.457   0.841  0.7831  1.3437 -1.2630
 8415TIP3    H225210   2.276   2.582   0.888 -0.1131  0.1769  0.5941
 8416TIP3   OH225211   5.869   5.058   0.607  0.0683  0.4325 -0.6096
 8416TIP3    H125212   5.791   5.003   0.593  0.1122  0.0308  0.5867
 8416TIP3    H225213   5.900   5.033   0.694  1.3839  0.7885 -0.9588
 8417TIP3   OH225214   3.491   2.471   4.127 -0.1268  0.0952 -0.0853
 8417TIP3    H125215   3.571   2.490   4.175  0.0280  0.2792 -0.4159
 8417TIP3    H225216   3.515   2.476   4.035 -0.1683 -1.3347 -0.2009
 8418TIP3   OH225217   2.560   3.725   1.832  0.1906  0.2463  0.6003
 8418TIP3    H125218   2.635   3.679   1.870  1.0593  1.5116  0.4855
 8418TIP3    H225219   2.484   3.675   1.862  1.1191 -2.1890 -0.8432
 8419TIP3   OH225220   6.264   3.628   2.990  0.2510  0.1222  0.7298
 8419TIP3    H125221   6.334   3.580   2.945 -0.9464  0.1767 -1.3410
 8419TIP3    H225222   6.183   3.588   2.958 -0.7057  0.8416  2.1388
 8420TIP3   OH225223   0.828   3.363   0.189  0.0535  0.2226  0.3012
 8420TIP3    H125224   0.879   3.368   0.269  1.7012 -0.9125 -0.6224
 8420TIP3    H225225   0.772   3.286   0.201 -0.3179  0.5504  0.6896
 8421TIP3   OH225226   6.103   6.264   1.429  0.2482  0.2721 -0.0695
 8421TIP3    H125227   6.023   6.212   1.440  0.7215 -0.2784  0.8293
 8421TIP3    H225228   6.112   6.312   1.511  0.1402  1.3405 -0.6664
 8422TIP3   OH225229   3.548   5.448   1.194  0.0010  0.2950  0.0575
 8422TIP3    H125230   3.559   5.452   1.289  0.8435 -0.7925  0.0337
 8422TIP3    H225231   3.527   5.538   1.168  0.9543  0.8600  1.1332
 8423TIP3   OH225232   5.357   3.928   2.313 -0.3145 -0.6246 -0.0740
 8423TIP3    H125233   5.281   3.931   2.255 -1.4143  0.4506  1.3490
 8423TIP3    H225234   5.423   3.981   2.268 -0.8788 -0.4300 -0.6948
 8424TIP3   OH225235   6.020   4.670   5.585 -0.0140  0.2799 -0.0799
 8424TIP3    H125236   5.979   4.692   5.669 -0.3282 -1.4223  0.2694
 8424TIP3    H225237   5.951   4.685   5.520 -0.2316  0.2594  0.1438
 8425TIP3   OH225238   3.198   6.144   2.634  0.3513 -0.3329  0.9087
 8425TIP3    H125239   3.133   6.160   2.702  0.4681  0.5560  0.8269
 8425TIP3    H225240   3.199   6.049   2.623 -1.4750 -0.3293  0.3786
 8426TIP3   OH225241   4.656   4.925   5.324  0.2395  0.3619  0.0351
 8426TIP3    H125242   4.585   4.988   5.336  0.0709  0.3540 -0.8781
 8426TIP3    H225243   4.612   4.840   5.318  0.4231  0.2170  0.6905
 8427TIP3   OH225244   2.262   0.360   3.079  0.3499  0.2912 -0.4945
 8427TIP3    H125245   2.193   0.392   3.137 -0.0955  2.2240 -1.9933
 8427TIP3    H225246   2.337   0.417   3.096  0.3491  0.6121 -1.4580
 8428TIP3   OH225247   5.045   5.754   3.275  0.2407 -0.0342 -0.1163
 8428TIP3    H125248   5.087   5.704   3.346  0.5607 -0.0481 -0.3126
 8428TIP3    H225249   5.082   5.842   3.283 -0.7341  0.3338  0.5749
 8429TIP3   OH225250   0.575   5.933   3.846 -0.3471  0.0258  0.4222
 8429TIP3    H125251   0.652   5.909   3.795  1.2299 -0.7868  3.0028
 8429TIP3    H225252   0.599   6.016   3.888 -1.1449  0.0954  0.7556
 8430TIP3   OH225253   2.380   2.996   2.574  0.7268  0.0623  0.2223
 8430TIP3    H125254   2.339   2.939   2.509  1.9998 -2.1393  1.2439
 8430TIP3    H225255   2.314   3.006   2.642 -0.1982  1.4693 -0.8083
 8431TIP3   OH225256   6.478   5.635   5.041  0.0577  0.2718  0.0575
 8431TIP3    H125257   6.506   5.603   5.126 -0.0652  1.2037  0.4568
 8431TIP3    H225258   6.533   5.588   4.978 -0.2534 -0.8482  0.6091
 8432TIP3   OH225259   1.650   6.514   0.156 -0.2650 -0.0352  0.1091
 8432TIP3    H125260   1.705   6.559   0.221 -0.2829 -1.3945  1.1125
 8432TIP3    H225261   1.615   6.438   0.203 -1.0144 -0.5638 -1.2500
 8433TIP3   OH225262   1.299   6.457   3.161  0.1577  0.7003  0.2390
 8433TIP3    H125263   1.308   6.470   3.255  0.5942  2.0031  0.0373
 8433TIP3    H225264   1.241   6.527   3.132  1.8805  1.8037 -0.7800
 8434TIP3   OH225265   3.332   3.337   0.470  0.0372  0.3353  0.0131
 8434TIP3    H125266   3.314   3.246   0.448 -0.4986  0.8202 -1.6926
 8434TIP3    H225267   3.388   3.332   0.548  0.4028 -1.4531 -0.3125
 8435TIP3   OH225268   6.056   3.719   5.347 -0.3554  0.2969  0.5798
 8435TIP3    H125269   6.148   3.709   5.373 -0.1426  1.0458  0.1682
 8435TIP3    H225270   6.061   3.760   5.260 -1.0553 -1.3352 -0.2553
 8436TIP3   OH225271   5.362   5.927   3.172 -0.7860  0.2254 -0.8334
 8436TIP3    H125272   5.391   5.839   3.149 -0.8147  0.1091 -0.4235
 8436TIP3    H225273   5.441   5.971   3.203 -0.9662  0.0256 -0.0735
 8437TIP3   OH225274   5.856   4.751   3.812 -0.0401 -0.1164  0.1572
 8437TIP3    H125275   5.784   4.690   3.831 -1.1953  1.5230  1.3277
 8437TIP3    H225276   5.840   4.825   3.870  1.7195  0.9989 -0.7128
 8438TIP3   OH225277   2.631   0.130   5.831 -0.2166  0.2164  0.4993
 8438TIP3    H125278   2.549   0.103   5.791  0.4617 -1.2426  0.0333
 8438TIP3    H225279   2.667   0.196   5.771 -1.8136  2.1865  1.5706
 8439TIP3   OH225280   1.483   3.871   3.009  0.5475 -0.4231  0.0061
 8439TIP3    H125281   1.475   3.798   3.070 -1.8123 -1.2920 -1.1851
 8439TIP3    H225282   1.398   3.873   2.965  1.4632  1.4391 -1.8032
 8440TIP3   OH225283   5.867   1.382   1.008 -0.8252  0.2232  0.3804
 8440TIP3    H125284   5.824   1.396   1.093  0.1167 -0.0805  0.9337
 8440TIP3    H225285   5.946   1.435   1.013 -0.3340 -0.4559  0.0394
 8441TIP3   OH225286   6.560   4.415   3.627  0.6883 -0.0716  0.0008
 8441TIP3    H125287   6.655   4.428   3.637  0.4355  0.5831  2.0710
 8441TIP3    H225288   6.521   4.484   3.682 -0.9458 -1.8202  1.1597
 8442TIP3   OH225289   3.180   1.573   3.878 -0.5119  0.3299 -0.2693
 8442TIP3    H125290   3.273   1.594   3.893 -0.5180 -0.1254  0.4327
 8442TIP3    H225291   3.173   1.481   3.901 -1.7181  1.0189  2.4295
 8443TIP3   OH225292   0.076   6.176   2.181 -0.6400  0.2190  0.4026
 8443TIP3    H125293   0.144   6.242   2.170 -0.2361 -0.2845 -0.1955
 8443TIP3    H225294   0.058   6.144   2.093 -0.4903 -0.7953  0.7224
 8444TIP3   OH225295   5.156   5.676   3.501 -0.3431  0.2688  0.1269
 8444TIP3    H125296   5.130   5.753   3.551  0.9834  0.3574  0.7285
 8444TIP3    H225297   5.113   5.603   3.546 -1.4605  0.6111 -0.3427
 8445TIP3   OH225298   7.024   1.675   4.312 -0.4451  0.1743  0.5289
 8445TIP3    H125299   6.969   1.751   4.296  0.6868  1.1339  1.0437
 8445TIP3    H225300   6.963   1.603   4.325 -1.5684  1.1752  0.9119
 8446TIP3   OH225301   6.914   1.148   2.420  0.7929  0.0336  1.0479
 8446TIP3    H125302   6.917   1.226   2.475  0.2717 -0.0508  1.1975
 8446TIP3    H225303   6.822   1.137   2.397  0.6541 -1.2251  2.0398
 8447TIP3   OH225304   1.906   5.317   0.193  0.2689 -0.3587 -0.0414
 8447TIP3    H125305   1.857   5.234   0.200  0.7045 -0.6492 -0.3525
 8447TIP3    H225306   1.914   5.348   0.283 -2.0914  0.6537 -0.0960
 8448TIP3   OH225307   4.422   4.089   0.489 -0.2229  0.0992  0.2858
 8448TIP3    H125308   4.450   4.032   0.560 -0.9612 -0.4759  0.1284
 8448TIP3    H225309   4.328   4.101   0.503 -0.0136  1.5828  0.5204
 8449TIP3   OH225310   3.957   0.743   4.782 -0.5402 -0.4132  0.1622
 8449TIP3    H125311   3.918   0.828   4.802 -0.8445 -0.3119 -0.7894
 8449TIP3    H225312   3.982   0.749   4.690 -1.0911 -1.5476 -0.0867
 8450TIP3   OH225313   2.932   6.386   0.787  0.6609 -0.1321 -0.3293
 8450TIP3    H125314   2.981   6.329   0.846 -0.8889 -1.5970 -0.3839
 8450TIP3    H225315   2.949   6.352   0.700  1.6261  1.0039 -0.6018
 8451TIP3   OH225316   3.624   0.272   3.826  0.4050 -0.4968 -0.6977
 8451TIP3    H125317   3.555   0.322   3.783 -0.0845  2.9096  3.3299
 8451TIP3    H225318   3.704   0.296   3.780 -0.2800  1.4082 -1.0000
 8452TIP3   OH225319   0.289   5.995   1.874 -0.2578  0.3931  0.0109
 8452TIP3    H125320   0.283   5.911   1.828  0.5957 -1.3579  2.8953
 8452TIP3    H225321   0.210   6.042   1.846 -0.3507 -0.9648 -2.3053
 8453TIP3   OH225322   3.703   5.482   4.434  0.6246 -0.3078 -0.4713
 8453TIP3    H125323   3.656   5.483   4.517  1.5069 -0.4639  0.0490
 8453TIP3    H225324   3.658   5.417   4.381 -0.2311  0.1282 -0.2926
 8454TIP3   OH225325   4.430   4.070   4.490  0.2879 -0.5339 -0.4621
 8454TIP3    H125326   4.484   4.002   4.529  1.2113  0.6683  0.4425
 8454TIP3    H225327   4.494   4.131   4.451 -0.5022 -0.0691 -1.0598
 8455TIP3   OH225328   0.531   4.673   4.421 -0.0480  0.0595 -0.4522
 8455TIP3    H125329   0.586   4.609   4.465 -1.8596 -1.3889 -0.1683
 8455TIP3    H225330   0.516   4.635   4.334 -0.6956  0.3565 -0.4750
 8456TIP3   OH225331   2.755   3.196   2.459  0.2821  0.0530  0.1713
 8456TIP3    H125332   2.738   3.271   2.516 -0.4084  0.1752 -0.1724
 8456TIP3    H225333   2.667   3.162   2.438  0.5300 -0.1665 -0.5605
 8457TIP3   OH225334   6.568   3.435   4.964  0.5426  0.3772 -0.1621
 8457TIP3    H125335   6.617   3.468   4.889  1.4887 -0.0603  0.2409
 8457TIP3    H225336   6.605   3.482   5.039 -0.0521  0.4545  0.0836
 8458TIP3   OH225337   4.179   0.658   2.759 -0.0390 -0.2641 -0.4963
 8458TIP3    H125338   4.142   0.663   2.848  1.5572 -0.1675  0.1989
 8458TIP3    H225339   4.103   0.666   2.701 -0.8558  3.0194  0.8002
 8459TIP3   OH225340   5.510   4.137   1.718 -0.8125  0.3648  0.8671
 8459TIP3    H125341   5.435   4.095   1.760  0.6747 -0.5323  2.7727
 8459TIP3    H225342   5.522   4.089   1.636 -0.9817 -0.9472  1.5966
 8460TIP3   OH225343   1.747   4.028   2.552 -0.0724 -0.3031 -0.0963
 8460TIP3    H125344   1.799   3.973   2.494 -0.9801 -0.3089 -0.9505
 8460TIP3    H225345   1.735   3.976   2.631 -0.6085 -1.2076 -0.7472
 8461TIP3   OH225346   3.143   4.422   2.127  0.0054  0.3694 -0.0688
 8461TIP3    H125347   3.228   4.466   2.138  0.1020 -0.1856  1.7119
 8461TIP3    H225348   3.080   4.480   2.171 -0.0851 -0.5220  1.0255
 8462TIP3   OH225349   0.033   3.993   4.499  0.1741  0.1378 -0.3357
 8462TIP3    H125350   0.070   3.996   4.411  1.4276  0.1383  0.1625
 8462TIP3    H225351   0.022   4.085   4.524 -0.5978  0.1379 -0.6414
 8463TIP3   OH225352   2.329   1.099   0.507  0.4270  0.5389 -0.3048
 8463TIP3    H125353   2.408   1.138   0.469 -0.2307  0.1104 -2.2287
 8463TIP3    H225354   2.339   1.005   0.491 -0.2853  0.4423 -0.2148
 8464TIP3   OH225355   5.066   0.862   4.504  0.5245  0.2310 -0.0139
 8464TIP3    H125356   5.076   0.770   4.480  0.5688 -0.3228  1.9586
 8464TIP3    H225357   5.052   0.907   4.420 -0.5658 -1.6881 -0.9473
 8465TIP3   OH225358   4.890   2.096   2.712  0.0970 -0.5999  0.0973
 8465TIP3    H125359   4.933   2.046   2.782  1.5890 -1.1251 -1.1192
 8465TIP3    H225360   4.806   2.052   2.699 -0.5837  0.0148  2.0719
 8466TIP3   OH225361   2.975   5.172   5.543 -0.0544 -0.0176  0.0323
 8466TIP3    H125362   2.964   5.154   5.450 -0.0232 -2.2217  0.4144
 8466TIP3    H225363   2.897   5.135   5.584 -0.4344  1.5932  0.8494
 8467TIP3   OH225364   0.249   3.662   3.190  0.3813 -0.1769  0.5962
 8467TIP3    H125365   0.228   3.573   3.219 -0.2504  0.2712  1.6005
 8467TIP3    H225366   0.218   3.718   3.262 -1.2461  1.0139 -0.9516
 8468TIP3   OH225367   3.995   3.540   0.217  0.1965 -0.6139 -0.0634
 8468TIP3    H125368   3.928   3.473   0.204  0.5637 -0.9817 -0.0611
 8468TIP3    H225369   3.982   3.601   0.144  1.2577 -1.8422 -1.3396
 8469TIP3   OH225370   3.058   4.825   0.777 -0.5838  0.5842 -0.2496
 8469TIP3    H125371   3.015   4.901   0.739 -1.6733  0.0042 -0.2178
 8469TIP3    H225372   3.033   4.828   0.870 -0.1981  0.4832 -0.1430
 8470TIP3   OH225373   0.925   1.192   4.009 -0.2183 -0.8177  0.3158
 8470TIP3    H125374   0.931   1.098   3.992  2.4814 -0.7685  0.5972
 8470TIP3    H225375   0.962   1.203   4.096  2.9765  0.8271 -1.1099
 8471TIP3   OH225376   1.493   0.339   2.293 -0.1604  0.3814  0.0257
 8471TIP3    H125377   1.437   0.318   2.219 -1.9027 -0.1583  1.4261
 8471TIP3    H225378   1.576   0.296   2.273 -1.9219 -3.5578  0.3259
 8472TIP3   OH225379   0.331   5.805   1.276  0.1013 -0.0475 -0.1272
 8472TIP3    H125380   0.274   5.744   1.230  2.9723 -1.3575 -2.2077
 8472TIP3    H225381   0.313   5.890   1.235 -2.0078  0.0893  0.9583
 8473TIP3   OH225382   2.240   0.018   1.964 -0.0657  0.0845 -0.2432
 8473TIP3    H125383   2.256   0.044   1.873 -0.0383  1.7640  0.2008
 8473TIP3    H225384   2.322   0.040   2.009 -0.7118  1.0457  0.5151
 8474TIP3   OH225385   3.257   6.022   0.014 -0.6806 -0.4223 -0.4653
 8474TIP3    H125386   3.174   6.027   0.062 -1.2620 -0.7674 -1.3999
 8474TIP3    H225387   3.263   5.931  -0.013  1.2075 -1.0074  1.6090
 8475TIP3   OH225388   2.176   1.453   1.600  0.3508 -0.2764 -0.1081
 8475TIP3    H125389   2.245   1.388   1.613 -0.3115 -1.2437 -1.2547
 8475TIP3    H225390   2.177   1.471   1.505 -1.3875 -0.8189 -0.2679
 8476TIP3   OH225391   1.314   6.699   5.146 -0.3878 -0.6752  0.1733
 8476TIP3    H125392   1.300   6.695   5.241  2.1049  1.0134  0.7212
 8476TIP3    H225393   1.394   6.648   5.132  0.2746  0.5547 -0.7090
 8477TIP3   OH225394   0.192   3.017   1.351  0.1390 -0.4048 -0.0046
 8477TIP3    H125395   0.104   3.050   1.335 -0.0965 -0.6437  0.7407
 8477TIP3    H225396   0.227   2.999   1.264 -0.5071 -0.2076 -0.3144
 8478TIP3   OH225397   0.085   1.228   5.531 -0.0460 -0.0980 -0.4481
 8478TIP3    H125398   0.015   1.258   5.589 -0.4764 -1.0079 -0.4822
 8478TIP3    H225399   0.121   1.151   5.576  0.1952 -0.2902 -0.9664
 8479TIP3   OH225400   3.578   3.517   2.398 -0.3360 -0.2432  0.2454
 8479TIP3    H125401   3.599   3.609   2.416 -1.1888 -0.1935  1.0766
 8479TIP3    H225402   3.652   3.468   2.434 -0.0033  0.0968  0.0376
 8480TIP3   OH225403   3.540   4.132   4.512  0.7238 -0.1826  0.0913
 8480TIP3    H125404   3.551   4.158   4.421  0.1110  1.1226  0.3627
 8480TIP3    H225405   3.505   4.043   4.508 -1.4851  0.6626 -1.0224
 8481TIP3   OH225406   6.715   4.709   3.338  0.1627 -0.3957 -0.2502
 8481TIP3    H125407   6.642   4.707   3.400  1.0737  0.9378  0.9084
 8481TIP3    H225408   6.693   4.779   3.277  0.9910  0.8509  0.8236
 8482TIP3   OH225409   6.493   3.824   5.701 -0.8150 -0.2921 -0.8370
 8482TIP3    H125410   6.490   3.917   5.681  2.6058 -0.6146 -3.7795
 8482TIP3    H225411   6.552   3.817   5.777  0.2127 -0.1093 -1.6012
 8483TIP3   OH225412   7.194   5.765   1.054 -0.3796  0.0958  0.3140
 8483TIP3    H125413   7.278   5.743   1.015 -0.1087  2.9128 -0.9784
 8483TIP3    H225414   7.129   5.739   0.989 -0.4701 -1.2782  0.9322
 8484TIP3   OH225415   1.697   1.589   1.542  0.5037  0.4794 -0.0389
 8484TIP3    H125416   1.775   1.600   1.487  0.6264  0.7032  0.1778
 8484TIP3    H225417   1.677   1.496   1.537  0.1010  0.5985 -1.0245
 8485TIP3   OH225418   1.488   2.498   4.060  0.0170 -0.0048  0.3537
 8485TIP3    H125419   1.495   2.437   4.134  0.9790 -0.2986  0.0399
 8485TIP3    H225420   1.394   2.505   4.043 -0.1043 -1.7279  0.1468
 8486TIP3   OH225421   4.017   2.923   3.191 -0.1712 -0.3641 -0.0868
 8486TIP3    H125422   3.925   2.899   3.176  0.1533 -0.3359 -2.5184
 8486TIP3    H225423   4.045   2.964   3.109  1.9211  0.0133  0.7451
 8487TIP3   OH225424   3.669   4.444   5.251 -0.1957 -0.4611  0.2782
 8487TIP3    H125425   3.742   4.395   5.289 -0.8955 -0.7044  1.3561
 8487TIP3    H225426   3.592   4.414   5.299 -1.0411 -0.3400 -0.9588
 8488TIP3   OH225427   3.723   6.191   2.767 -0.7589  0.2078 -0.2486
 8488TIP3    H125428   3.647   6.215   2.820 -1.9189 -0.2120 -1.6584
 8488TIP3    H225429   3.769   6.274   2.753 -1.8058  0.7472 -0.6326
 8489TIP3   OH225430   1.884   5.857   1.105 -0.3903 -0.1482  0.2186
 8489TIP3    H125431   1.961   5.867   1.049 -1.2063  0.9042 -0.7578
 8489TIP3    H225432   1.921   5.840   1.192  0.9242 -0.4452 -0.3647
 8490TIP3   OH225433   7.172   1.877   1.297 -0.3587 -0.7272 -0.3250
 8490TIP3    H125434   7.116   1.914   1.229 -0.1883 -0.8868 -0.5569
 8490TIP3    H225435   7.230   1.817   1.250  0.0453 -0.5214 -0.0978
 8491TIP3   OH225436   0.637   3.170   0.299 -0.0196  0.1507  0.0656
 8491TIP3    H125437   0.674   3.083   0.314  1.0364  0.3292 -1.2921
 8491TIP3    H225438   0.560   3.154   0.244  0.0066  0.0462  0.0581
 8492TIP3   OH225439   1.894   3.315   1.232 -0.3070 -0.1670  0.1468
 8492TIP3    H125440   1.947   3.394   1.232 -0.8993  0.2704  1.3483
 8492TIP3    H225441   1.920   3.268   1.153 -1.0061  1.9365 -1.4371
 8493TIP3   OH225442   6.363   2.980   2.753 -0.3757 -0.1815  0.7548
 8493TIP3    H125443   6.364   2.906   2.692 -1.8530  0.5483 -0.1870
 8493TIP3    H225444   6.275   2.979   2.791 -0.2570  0.8207  1.0755
 8494TIP3   OH225445   6.968   0.741   2.609  0.0457  0.1333 -0.1357
 8494TIP3    H125446   6.967   0.836   2.617 -1.0814  0.0303  1.5184
 8494TIP3    H225447   6.876   0.717   2.597 -0.0535 -0.8698  2.0384
 8495TIP3   OH225448   6.314   3.434   4.844 -0.5878 -0.2813 -0.0720
 8495TIP3    H125449   6.288   3.342   4.836 -5.0708  0.5885  1.5811
 8495TIP3    H225450   6.398   3.430   4.891 -0.1522 -3.4849 -0.8339
 8496TIP3   OH225451   3.574   3.224   2.873 -0.0619  0.1928 -0.3478
 8496TIP3    H125452   3.496   3.186   2.832 -1.5442  1.3093  1.3293
 8496TIP3    H225453   3.593   3.166   2.947 -0.2272  0.7950  0.1655
 8497TIP3   OH225454   1.826   4.399   4.093  0.2436 -0.6180 -0.4151
 8497TIP3    H125455   1.767   4.350   4.150 -1.4512 -1.1850 -2.5148
 8497TIP3    H225456   1.814   4.490   4.121 -2.4773 -0.5807 -1.3547
 8498TIP3   OH225457   5.146   4.960   4.169 -0.4420  0.2308  0.1161
 8498TIP3    H125458   5.075   4.918   4.216 -0.3910  0.8862  0.7951
 8498TIP3    H225459   5.105   4.992   4.088 -1.0640  1.0607  0.7337
 8499TIP3   OH225460   2.828   1.323   3.639  0.4848 -0.4486  0.3824
 8499TIP3    H125461   2.893   1.392   3.651  0.7408 -0.8862  1.6478
 8499TIP3    H225462   2.854   1.279   3.558  0.0615  1.1852 -0.6761
 8500TIP3   OH225463   4.871   0.036   5.692  0.2596  0.3579  1.2138
 8500TIP3    H125464   4.834   0.010   5.776 -0.0227  1.1728  1.3551
 8500TIP3    H225465   4.962   0.058   5.711 -0.0646  1.4935  1.5123
 8501TIP3   OH225466   1.506   6.647   2.456 -0.2265  0.2674 -0.0937
 8501TIP3    H125467   1.461   6.632   2.539 -0.8694 -1.9336 -0.7581
 8501TIP3    H225468   1.440   6.687   2.400 -1.4636 -2.7806 -1.0065
 8502TIP3   OH225469   3.369   0.846   5.860 -0.1250 -0.3754 -0.3177
 8502TIP3    H125470   3.413   0.829   5.776  1.5418 -0.2165  0.4767
 8502TIP3    H225471   3.329   0.763   5.883 -2.8043  0.1959 -2.4319
 8503TIP3   OH225472   4.395   0.714   3.843 -0.5773  0.3581  0.3208
 8503TIP3    H125473   4.351   0.736   3.762  0.9960 -0.9688 -0.9750
 8503TIP3    H225474   4.413   0.798   3.885 -0.4213  1.1483 -1.2591
 8504TIP3   OH225475   4.495   1.653   5.725  0.0927 -0.1111 -0.2039
 8504TIP3    H125476   4.422   1.700   5.685  0.4097  0.8496  0.3282
 8504TIP3    H225477   4.571   1.708   5.709  1.3592 -2.4475 -3.3623
 8505TIP3   OH225478   0.417   6.619   1.143  0.7274  0.1632  0.6060
 8505TIP3    H125479   0.411   6.690   1.208  0.6179  0.8131 -0.1080
 8505TIP3    H225480   0.348   6.639   1.079  1.7707  0.3450 -0.4921
 8506TIP3   OH225481   5.111   6.275   3.403 -0.3139 -0.2412  0.1415
 8506TIP3    H125482   5.119   6.180   3.391  0.2111  0.0428 -2.2064
 8506TIP3    H225483   5.198   6.304   3.429  0.1201 -0.1640 -1.3210
 8507TIP3   OH225484   6.574   2.091   4.511 -0.7330 -0.0411  0.4197
 8507TIP3    H125485   6.495   2.046   4.479 -0.0757 -1.0654  0.2065
 8507TIP3    H225486   6.631   2.021   4.540  0.5734  0.6293 -0.4649
 8508TIP3   OH225487   0.179   4.578   2.139  0.2532 -0.5127 -0.0763
 8508TIP3    H125488   0.214   4.513   2.199  0.8236  1.5789  1.9985
 8508TIP3    H225489   0.111   4.623   2.189 -0.4464  0.1838 -1.5963
 8509TIP3   OH225490   6.926   5.903   5.732 -0.1914 -0.1831  0.5550
 8509TIP3    H125491   6.834   5.881   5.745 -0.2741  0.0327  0.3487
 8509TIP3    H225492   6.928   5.948   5.648 -0.0136  0.5096  0.9208
 8510TIP3   OH225493   0.707   0.672   0.025 -0.4379  0.3238  0.1292
 8510TIP3    H125494   0.705   0.680   0.120  0.4133 -0.9350  0.2713
 8510TIP3    H225495   0.793   0.704  -0.000 -0.3426 -0.1299 -0.1324
 8511TIP3   OH225496   0.199   0.136   1.284  0.8590 -0.4043  0.2357
 8511TIP3    H125497   0.138   0.139   1.357  1.0803 -0.1674  0.4125
 8511TIP3    H225498   0.158   0.077   1.221 -0.4730  1.1568 -0.4441
 8512TIP3   OH225499   5.040   2.105   1.395  0.4684 -0.3004 -0.1663
 8512TIP3    H125500   5.020   2.026   1.345  0.9363  0.4421 -1.5702
 8512TIP3    H225501   4.955   2.146   1.411  0.1233 -1.5412  1.4052
 8513TIP3   OH225502   0.650   1.524   0.498  0.2466 -0.6111  0.3559
 8513TIP3    H125503   0.613   1.565   0.419  0.4063  1.2442  1.1830
 8513TIP3    H225504   0.675   1.436   0.470  0.3139  0.0017 -1.6758
 8514TIP3   OH225505   3.784   5.061   0.604  0.2892  0.7237  0.3761
 8514TIP3    H125506   3.766   4.970   0.578  1.1663  0.6154  0.1123
 8514TIP3    H225507   3.830   5.098   0.528  0.4383  1.2224  0.7090
 8515TIP3   OH225508   1.980   3.466   4.168  0.8990  0.0928 -0.2599
 8515TIP3    H125509   2.049   3.454   4.234  1.0851 -1.6050 -0.7108
 8515TIP3    H225510   1.915   3.399   4.189 -0.8636  1.9204  0.3938
 8516TIP3   OH225511   0.725   1.641   3.951  0.1564  0.0949  0.1531
 8516TIP3    H125512   0.670   1.674   3.880  0.4978  0.1773 -0.0755
 8516TIP3    H225513   0.729   1.547   3.937  1.2622  0.2548 -0.6866
 8517TIP3   OH225514   5.483   0.268   1.811 -0.2878  0.5157 -0.3456
 8517TIP3    H125515   5.567   0.225   1.796  0.1279  1.4127 -0.6461
 8517TIP3    H225516   5.419   0.209   1.773  0.2840  0.2041 -0.8416
 8518TIP3   OH225517   6.907   3.627   5.768  0.0663  0.1576 -0.1044
 8518TIP3    H125518   6.835   3.615   5.705  0.3089  2.2224 -0.8467
 8518TIP3    H225519   6.864   3.629   5.853 -0.5642 -0.2016 -0.4060
 8519TIP3   OH225520   4.533   6.073   3.017  0.2703 -0.0147 -0.2652
 8519TIP3    H125521   4.473   6.128   3.068  1.9745  1.1669  0.5476
 8519TIP3    H225522   4.577   6.135   2.958  1.3924 -0.6825 -0.1516
 8520TIP3   OH225523   0.979   5.113   1.732 -0.4098 -0.0425 -0.1079
 8520TIP3    H125524   0.936   5.198   1.739  1.4036  0.8537  0.8214
 8520TIP3    H225525   0.986   5.097   1.638 -1.4763  0.4429 -0.2850
 8521TIP3   OH225526   1.028   0.321   5.562 -0.5628 -0.4635 -0.1697
 8521TIP3    H125527   0.954   0.289   5.613 -1.0199  0.5207 -0.1876
 8521TIP3    H225528   1.062   0.395   5.611  0.1195 -0.6051 -0.4063
 8522TIP3   OH225529   4.707   4.940   1.175  0.5375 -0.5207  0.1051
 8522TIP3    H125530   4.784   4.965   1.226  0.8114 -1.2072  0.0350
 8522TIP3    H225531   4.742   4.909   1.091  0.1881 -0.9149  0.1006
 8523TIP3   OH225532   2.611   2.875   5.737 -0.2172 -0.0554 -0.3314
 8523TIP3    H125533   2.629   2.936   5.808  0.5996 -1.4186  0.6736
 8523TIP3    H225534   2.695   2.831   5.721 -1.0060 -1.6601 -0.2960
 8524TIP3   OH225535   0.873   6.244   5.717 -0.3754  0.0667 -0.1078
 8524TIP3    H125536   0.801   6.180   5.714  1.1367 -1.6940 -1.4853
 8524TIP3    H225537   0.829   6.328   5.728 -2.6070 -0.9823 -0.2345
 8525TIP3   OH225538   5.561   1.224   2.659 -0.0508  0.1319  0.2614
 8525TIP3    H125539   5.466   1.231   2.666  0.1114  1.9274  1.2386
 8525TIP3    H225540   5.590   1.311   2.631  1.2404 -0.7236 -1.2593
 8526TIP3   OH225541   1.565   3.930   5.833  0.3677 -0.2126  0.8875
 8526TIP3    H125542   1.535   3.904   5.746  1.2894 -0.5232  0.6463
 8526TIP3    H225543   1.576   4.025   5.827  1.3193 -0.3378  0.3574
 8527TIP3   OH225544   4.521   5.672   3.547  0.2218  0.0990 -0.7151
 8527TIP3    H125545   4.430   5.648   3.525  0.1919  0.3954 -0.9137
 8527TIP3    H225546   4.512   5.751   3.600  0.2846 -0.6504  0.4713
 8528TIP3   OH225547   1.324   6.182   2.416 -0.2743  0.2249  0.1256
 8528TIP3    H125548   1.338   6.128   2.339 -1.6387 -0.6315  0.4426
 8528TIP3    H225549   1.257   6.245   2.390 -0.2933  0.3316  0.4255
 8529TIP3   OH225550   3.403   1.151   4.061  0.3122  0.2607 -0.1364
 8529TIP3    H125551   3.368   1.187   3.980 -0.0223  0.8567  0.2623
 8529TIP3    H225552   3.416   1.227   4.118 -0.7853 -0.2722  0.8716
 8530TIP3   OH225553   7.146   5.696   4.440 -0.7351  0.1594  0.2121
 8530TIP3    H125554   7.062   5.670   4.479 -1.1354 -0.9392 -1.3104
 8530TIP3    H225555   7.164   5.629   4.374  0.5839  1.2226 -0.5605
 8531TIP3   OH225556   6.641   5.220   0.872  0.5435  0.2132  0.2569
 8531TIP3    H125557   6.684   5.203   0.788 -0.3389 -0.1815 -0.1234
 8531TIP3    H225558   6.688   5.163   0.934 -0.1912 -1.1353 -0.3826
 8532TIP3   OH225559   3.784   6.130   2.395  0.1504 -0.3529  1.0528
 8532TIP3    H125560   3.731   6.195   2.348 -0.3817  0.1852  2.3440
 8532TIP3    H225561   3.825   6.078   2.326 -3.2613 -1.8355 -0.0885
 8533TIP3   OH225562   4.864   0.621   4.433  0.2099  0.1656  0.1284
 8533TIP3    H125563   4.813   0.582   4.362 -2.1628  1.3959  1.0459
 8533TIP3    H225564   4.833   0.576   4.512  0.0282  1.4295  0.7936
 8534TIP3   OH225565   0.785   1.182   5.495 -0.1797  0.5490  0.5176
 8534TIP3    H125566   0.845   1.239   5.447  0.2096 -0.3477 -0.0963
 8534TIP3    H225567   0.786   1.100   5.446 -0.0983 -0.2635  1.8150
 8535TIP3   OH225568   2.920   4.823   1.530 -0.3624  0.1733 -0.1343
 8535TIP3    H125569   2.949   4.745   1.483  0.1006  0.6344 -0.6263
 8535TIP3    H225570   2.946   4.808   1.621 -1.8868 -1.0353  0.1535
 8536TIP3   OH225571   6.410   5.301   2.042  0.0832 -0.0111 -0.1943
 8536TIP3    H125572   6.484   5.329   2.096 -1.3323  1.6126  0.9995
 8536TIP3    H225573   6.421   5.206   2.034  1.9172  0.0967  0.4867
 8537TIP3   OH225574   7.072   6.276   4.959 -0.2330  0.2259  0.1529
 8537TIP3    H125575   7.061   6.282   4.864  0.8510  0.4522  0.0293
 8537TIP3    H225576   7.167   6.281   4.973 -0.4573  1.8967  1.3521
 8538TIP3   OH225577   3.692   0.145   0.145  0.1642 -0.2042  0.0044
 8538TIP3    H125578   3.641   0.222   0.172  1.0584 -0.5206  2.9936
 8538TIP3    H225579   3.690   0.088   0.221  0.8321 -2.4850 -1.6021
 8539TIP3   OH225580   5.481   4.704   5.407  0.2598  0.7236  0.1181
 8539TIP3    H125581   5.496   4.626   5.355  0.7584 -0.2595  1.6733
 8539TIP3    H225582   5.407   4.748   5.364 -0.4470 -0.9186 -0.4186
 8540TIP3   OH225583   7.022   3.506   0.649  0.1995  0.4672  0.5196
 8540TIP3    H125584   7.002   3.598   0.668  0.0065  0.0543  2.5568
 8540TIP3    H225585   7.113   3.495   0.675  0.5861  0.3092 -0.7956
 8541TIP3   OH225586   0.216   2.396   4.780  0.3046 -0.3662 -0.3373
 8541TIP3    H125587   0.144   2.335   4.794  0.5408 -0.1292  2.2939
 8541TIP3    H225588   0.181   2.482   4.803  1.1569 -0.1099  0.0518
 8542TIP3   OH225589   2.684   0.478   5.059  0.1034  0.0260  0.2446
 8542TIP3    H125590   2.749   0.412   5.037  0.2333  0.3127 -0.2314
 8542TIP3    H225591   2.691   0.488   5.154  1.5423  0.8595  0.0895
 8543TIP3   OH225592   3.860   2.789   2.501  0.0472 -0.3099 -0.1346
 8543TIP3    H125593   3.929   2.727   2.480 -0.0845 -0.1629 -1.0551
 8543TIP3    H225594   3.899   2.875   2.486  0.4031 -0.1161  1.6612
 8544TIP3   OH225595   2.748   4.962   1.834 -0.0423  0.1554 -0.1269
 8544TIP3    H125596   2.762   4.967   1.929  1.5549  0.8441 -0.3592
 8544TIP3    H225597   2.836   4.965   1.797 -0.6743  0.7768 -1.6699
 8545TIP3   OH225598   5.250   6.569   4.811  0.2417  0.1715 -0.0714
 8545TIP3    H125599   5.309   6.641   4.786  0.5486 -0.9637 -2.9891
 8545TIP3    H225600   5.168   6.590   4.767 -0.2426 -0.3527  0.5780
 8546TIP3   OH225601   1.271   4.490   5.770 -0.0588  0.3936  0.2981
 8546TIP3    H125602   1.207   4.419   5.773 -0.9570  1.2185  1.2149
 8546TIP3    H225603   1.340   4.464   5.830 -0.4858  0.3846  0.7863
 8547TIP3   OH225604   1.962   2.070   1.329  0.4233 -0.1727  0.1572
 8547TIP3    H125605   1.885   2.013   1.335  1.0799 -1.0551  0.4670
 8547TIP3    H225606   1.937   2.149   1.377 -0.4159 -0.3057 -0.0510
 8548TIP3   OH225607   5.078   6.224   4.328 -0.2984 -0.3103  0.6639
 8548TIP3    H125608   5.108   6.250   4.241  0.6975 -1.3974  0.6553
 8548TIP3    H225609   5.115   6.290   4.387 -2.2047  1.3115  0.1843
 8549TIP3   OH225610   4.109   6.772   5.843  0.2678  0.5400 -0.1688
 8549TIP3    H125611   4.200   6.767   5.871 -0.0247 -0.3773  0.6693
 8549TIP3    H225612   4.076   6.682   5.852 -0.6909  0.8376 -0.5642
 8550TIP3   OH225613   5.186   5.701   3.014 -0.5262  0.5511  0.2395
 8550TIP3    H125614   5.282   5.699   3.022 -0.3355 -0.9861 -1.6380
 8550TIP3    H225615   5.154   5.688   3.103  0.9844  1.1770  0.9144
 8551TIP3   OH225616   3.534   6.559   0.545  0.2282  0.5858  0.2770
 8551TIP3    H125617   3.621   6.591   0.523  0.4165 -0.2198 -0.1837
 8551TIP3    H225618   3.503   6.516   0.465 -0.8141  1.3192  0.2606
 8552TIP3   OH225619   5.984   3.952   5.560  0.1183 -0.4214  0.5656
 8552TIP3    H125620   6.057   3.942   5.498 -1.7585 -1.6373 -1.6380
 8552TIP3    H225621   5.983   4.045   5.582  1.3768 -0.1042 -0.5720
 8553TIP3   OH225622   4.826   4.601   0.858 -0.5544  0.2148  0.3344
 8553TIP3    H125623   4.788   4.551   0.786 -2.3979  3.7965 -1.4567
 8553TIP3    H225624   4.753   4.614   0.919 -0.0730  0.5577  0.8474
 8554TIP3   OH225625   1.122   2.838   0.010  0.6490 -0.1961 -0.2130
 8554TIP3    H125626   1.089   2.751  -0.013 -1.5753 -0.1219  2.2773
 8554TIP3    H225627   1.210   2.822   0.045 -0.3800 -1.7401  1.8501
 8555TIP3   OH225628   2.593   5.622   3.667 -0.3304  0.7782 -0.3888
 8555TIP3    H125629   2.563   5.713   3.665 -1.7927  0.3107 -2.1551
 8555TIP3    H225630   2.513   5.570   3.664  0.5103 -0.5404 -1.7872
 8556TIP3   OH225631   3.553   4.704   0.538 -0.2755 -0.1684  0.4199
 8556TIP3    H125632   3.480   4.706   0.476 -0.0228 -2.5363 -0.0326
 8556TIP3    H225633   3.552   4.791   0.579 -0.8776  1.2827 -2.3778
 8557TIP3   OH225634   4.390   4.983   0.060  0.5658 -0.6456  0.3001
 8557TIP3    H125635   4.479   4.978   0.095  0.9447 -0.1441 -0.5645
 8557TIP3    H225636   4.354   5.062   0.100  0.6950 -0.5471  0.2219
 8558TIP3   OH225637   5.076   5.805   5.803 -0.5597 -0.0837  0.3490
 8558TIP3    H125638   4.986   5.796   5.835 -1.0916  1.3859 -0.6516
 8558TIP3    H225639   5.068   5.805   5.708  0.3730  1.1189  0.2419
 8559TIP3   OH225640   4.024   5.248   1.389 -0.5939 -0.1831  1.0440
 8559TIP3    H125641   3.955   5.310   1.413 -0.9940 -0.6720  1.1750
 8559TIP3    H225642   3.982   5.190   1.325 -0.1337 -0.1377  0.6902
 8560TIP3   OH225643   2.748   3.493   3.061  0.1356 -0.1909  0.0283
 8560TIP3    H125644   2.679   3.513   3.124  0.1612  0.4866 -0.1543
 8560TIP3    H225645   2.807   3.567   3.066 -0.4913  0.4600 -1.6535
 8561TIP3   OH225646   3.276   6.125   3.701  0.6235  0.6095  0.0307
 8561TIP3    H125647   3.224   6.187   3.753  0.4191  1.2362 -0.9079
 8561TIP3    H225648   3.250   6.142   3.611 -0.7059 -2.0196 -0.1586
 8562TIP3   OH225649   6.473   1.590   0.254  0.6940 -0.1247 -0.3348
 8562TIP3    H125650   6.529   1.524   0.294 -2.1962 -2.6921 -0.0906
 8562TIP3    H225651   6.429   1.632   0.327 -0.3271 -0.7344 -0.5738
 8563TIP3   OH225652   0.236   6.137   1.490  0.2077  0.0090 -0.3389
 8563TIP3    H125653   0.321   6.166   1.522  0.1142 -0.8099  0.6970
 8563TIP3    H225654   0.221   6.053   1.533 -0.0400 -1.0540 -2.3896
 8564TIP3   OH225655   2.785   5.013   5.683 -0.1790 -0.5024  0.2153
 8564TIP3    H125656   2.713   4.950   5.682 -0.2645 -0.4054 -0.0678
 8564TIP3    H225657   2.763   5.074   5.753 -1.8789  1.2130 -1.6758
 8565TIP3   OH225658   3.784   0.452   1.225 -0.4597  0.4931  0.1070
 8565TIP3    H125659   3.767   0.538   1.262 -1.1502  0.5278 -0.2819
 8565TIP3    H225660   3.763   0.391   1.296 -1.4116  0.5762 -0.0915
 8566TIP3   OH225661   5.234   2.484   0.083 -0.2237 -0.5037 -0.1072
 8566TIP3    H125662   5.281   2.422   0.137  0.4850  0.3749  0.3095
 8566TIP3    H225663   5.142   2.463   0.096 -0.0114 -1.0289  0.5470
 8567TIP3   OH225664   2.622   2.882   4.046 -0.2518 -0.3598 -0.0560
 8567TIP3    H125665   2.702   2.906   4.093 -0.9849 -0.4517  1.2906
 8567TIP3    H225666   2.608   2.955   3.985 -0.2960  0.7594  1.2247
 8568TIP3   OH225667   3.345   3.623   1.876 -0.2769 -0.3491 -0.3812
 8568TIP3    H125668   3.390   3.547   1.913  2.4951  0.8461 -1.0389
 8568TIP3    H225669   3.285   3.652   1.945  0.3772 -1.7029  0.7941
 8569TIP3   OH225670   3.020   1.881   2.176 -0.3420  0.0007 -0.3488
 8569TIP3    H125671   3.093   1.913   2.122 -1.2588  0.9379 -1.0782
 8569TIP3    H225672   2.943   1.895   2.121 -1.3266  1.1089  1.2547
 8570TIP3   OH225673   5.378   2.887   2.900 -0.4277 -0.0001  0.1143
 8570TIP3    H125674   5.444   2.944   2.860  0.0627  0.1226  1.0635
 8570TIP3    H225675   5.403   2.883   2.993  0.5407 -2.9943 -0.1378
 8571TIP3   OH225676   6.665   2.151   3.387 -0.6944  0.6088  0.5100
 8571TIP3    H125677   6.601   2.116   3.449 -0.8429 -0.5201 -0.2449
 8571TIP3    H225678   6.742   2.095   3.398 -0.7173  0.4041 -0.2854
 8572TIP3   OH225679   4.735   4.367   4.073  0.2050 -0.1860  0.0760
 8572TIP3    H125680   4.828   4.379   4.089  0.6422  0.2114 -2.3577
 8572TIP3    H225681   4.709   4.444   4.022 -1.2054 -0.8229 -0.2346
 8573TIP3   OH225682   5.989   0.680   2.548  0.0373 -0.5902  0.2671
 8573TIP3    H125683   6.041   0.600   2.547  0.1665 -0.5403  1.6393
 8573TIP3    H225684   6.011   0.723   2.465  0.8115 -1.4341  0.0147
 8574TIP3   OH225685   0.365   1.126   1.817  0.3409  0.0657  0.2553
 8574TIP3    H125686   0.335   1.050   1.868  1.2388 -0.7406 -0.3655
 8574TIP3    H225687   0.410   1.087   1.742 -0.9317  1.2301 -1.1596
 8575TIP3   OH225688   4.460   0.391   4.265  0.1997  0.3373 -0.0926
 8575TIP3    H125689   4.416   0.473   4.244  2.5449  1.6833 -0.1245
 8575TIP3    H225690   4.425   0.366   4.351 -1.5130  0.6158 -0.6726
 8576TIP3   OH225691   1.991   3.863   0.061  0.3399 -0.0439  0.3757
 8576TIP3    H125692   2.058   3.902   0.117 -0.3525  0.0531  1.1608
 8576TIP3    H225693   1.933   3.936   0.038 -0.7829 -0.5176  1.5886
 8577TIP3   OH225694   5.886   5.860   3.042  0.5877  0.1381  0.2023
 8577TIP3    H125695   5.861   5.771   3.067 -0.5482  0.3221 -0.2364
 8577TIP3    H225696   5.982   5.858   3.043  0.6129 -1.3575 -0.6716
 8578TIP3   OH225697   3.654   0.460   5.431 -0.0619  0.0848  0.0365
 8578TIP3    H125698   3.715   0.387   5.416 -0.4084 -0.2986  0.4891
 8578TIP3    H225699   3.592   0.455   5.358 -0.2068 -0.1974  0.1795
 8579TIP3   OH225700   0.612   1.901   0.127  1.5836 -0.5624 -0.6346
 8579TIP3    H125701   0.644   1.972   0.183  1.0556 -0.4449 -0.4754
 8579TIP3    H225702   0.600   1.942   0.041 -1.0333  0.2103 -0.0079
 8580TIP3   OH225703   5.134   6.187   0.182 -0.1729  0.2277 -0.3378
 8580TIP3    H125704   5.226   6.160   0.174 -0.1348 -0.1429  1.1606
 8580TIP3    H225705   5.134   6.279   0.157  0.9725  0.7772  1.5272
 8581TIP3   OH225706   0.171   0.420   2.547  0.6883  0.4533  0.5585
 8581TIP3    H125707   0.254   0.395   2.505  0.4726  0.9724 -0.1897
 8581TIP3    H225708   0.170   0.515   2.544  0.4622  0.4804  1.3625
 8582TIP3   OH225709   1.965   4.481   2.677  0.1550  0.3691 -0.1953
 8582TIP3    H125710   1.949   4.390   2.702  1.3410 -0.1908 -1.3651
 8582TIP3    H225711   1.948   4.483   2.583 -0.0498  1.4195 -0.1458
 8583TIP3   OH225712   4.876   2.795   1.549  0.2222  0.4172  0.3616
 8583TIP3    H125713   4.945   2.761   1.492  1.3544  1.2224  1.2013
 8583TIP3    H225714   4.798   2.747   1.522  0.6127  0.9983 -2.0899
 8584TIP3   OH225715   6.537   2.375   0.132 -0.2063  0.1892 -0.0692
 8584TIP3    H125716   6.592   2.450   0.109 -0.2210  0.0420 -0.5871
 8584TIP3    H225717   6.494   2.401   0.213 -1.1629  1.2482 -0.8931
 8585TIP3   OH225718   2.700   3.786   2.824 -0.3789 -0.4238  0.3484
 8585TIP3    H125719   2.699   3.710   2.766 -1.0893 -0.0748 -0.1116
 8585TIP3    H225720   2.749   3.756   2.901 -0.6878 -1.3593  0.1992
 8586TIP3   OH225721   7.050   4.591   3.172  0.9494 -0.1390 -0.5025
 8586TIP3    H125722   6.988   4.567   3.241  2.3245  1.1810  1.2790
 8586TIP3    H225723   7.042   4.686   3.164  2.7553  0.0718 -0.1911
 8587TIP3   OH225724   2.578   1.799   1.189  0.0122  0.2563  0.3300
 8587TIP3    H125725   2.570   1.883   1.143  0.2015 -0.3366 -0.8294
 8587TIP3    H225726   2.647   1.752   1.141 -1.1255 -1.1498 -0.0079
 8588TIP3   OH225727   1.609   0.024   1.086 -0.4734  0.1549  0.0639
 8588TIP3    H125728   1.669   0.088   1.048 -3.2038  1.5270 -2.2757
 8588TIP3    H225729   1.637  -0.060   1.049  1.1106  0.4049  0.5810
 8589TIP3   OH225730   3.981   1.181   2.966 -0.6011  0.4758  0.5243
 8589TIP3    H125731   4.059   1.156   3.015 -0.3740  0.4637  0.1597
 8589TIP3    H225732   3.957   1.103   2.917 -0.3545  0.7240 -0.0016
 8590TIP3   OH225733   6.935   2.878   2.225 -0.4903  0.2681 -0.3633
 8590TIP3    H125734   6.953   2.785   2.235 -0.1574  0.2136 -1.3210
 8590TIP3    H225735   6.973   2.919   2.303  0.5518 -0.2614 -0.5669
 8591TIP3   OH225736   5.259   4.863   1.472 -0.3884  0.2081  0.4749
 8591TIP3    H125737   5.213   4.908   1.543  1.7929  1.4528  1.2121
 8591TIP3    H225738   5.271   4.773   1.504  0.6620  0.7830  1.7955
 8592TIP3   OH225739   1.132   6.752   3.612 -0.1671 -0.2155 -0.4043
 8592TIP3    H125740   1.202   6.814   3.633 -1.2364  0.2509  2.1805
 8592TIP3    H225741   1.177   6.669   3.599  0.9149  0.0877  1.1541
 8593TIP3   OH225742   4.504   4.417   3.201 -0.1782  0.6876  0.4629
 8593TIP3    H125743   4.567   4.379   3.139 -0.3300  2.8256 -1.1278
 8593TIP3    H225744   4.523   4.373   3.283 -0.0596 -2.4239 -1.0740
 8594TIP3   OH225745   6.020   5.724   2.275 -0.6785 -0.5753  0.0942
 8594TIP3    H125746   6.031   5.665   2.350  0.2219 -0.9917 -0.3548
 8594TIP3    H225747   5.934   5.765   2.290  0.3862  1.0244  2.5442
 8595TIP3   OH225748   2.263   4.473   1.292  0.2005  0.0549  0.2052
 8595TIP3    H125749   2.343   4.500   1.336  0.6017  0.5663 -0.8172
 8595TIP3    H225750   2.203   4.450   1.363  0.7007  1.2281  1.0332
 8596TIP3   OH225751   4.580   0.531   3.806  0.4000 -0.4128 -0.1447
 8596TIP3    H125752   4.509   0.592   3.786  1.0067  0.4794  0.3289
 8596TIP3    H225753   4.540   0.462   3.858 -0.4520 -0.8175 -1.3037
 8597TIP3   OH225754   5.429   3.274   2.088  0.3253 -0.2030 -0.3042
 8597TIP3    H125755   5.367   3.201   2.085  0.8469 -0.6270 -1.3088
 8597TIP3    H225756   5.387   3.343   2.037 -0.1978  0.2306  0.7031
 8598TIP3   OH225757   5.358   4.125   4.469  0.1712  0.5091  0.0327
 8598TIP3    H125758   5.344   4.058   4.403  1.1271  0.4933 -0.1706
 8598TIP3    H225759   5.309   4.094   4.546 -0.8563  0.4810 -0.6160
 8599TIP3   OH225760   3.060   1.394   4.981  0.3509 -0.1800  0.1114
 8599TIP3    H125761   2.997   1.345   5.034  1.7764 -1.4109  0.7234
 8599TIP3    H225762   3.006   1.437   4.914 -1.3740  0.5408  1.8640
 8600TIP3   OH225763   3.294   4.449   0.456  0.2076 -0.8129 -0.2819
 8600TIP3    H125764   3.252   4.524   0.414  0.8110  1.3483  2.6724
 8600TIP3    H225765   3.386   4.455   0.428  0.4715  0.2209  0.7516
 8601TIP3   OH225766   5.504   0.188   0.527  0.0746  0.2820  0.1387
 8601TIP3    H125767   5.442   0.261   0.526 -1.2063 -0.7669  0.1261
 8601TIP3    H225768   5.533   0.183   0.618 -0.0745  0.6054  0.2072
 8602TIP3   OH225769   0.131   0.936   5.672  0.1354 -0.3216 -0.2353
 8602TIP3    H125770   0.200   0.891   5.623 -0.6444 -0.9652 -0.7641
 8602TIP3    H225771   0.176   0.976   5.746  1.3341  0.6528 -1.4538
 8603TIP3   OH225772   5.084   2.415   0.564 -0.1237  0.1573  0.1560
 8603TIP3    H125773   5.048   2.330   0.538 -0.5902  0.3810  0.0564
 8603TIP3    H225774   5.041   2.435   0.647 -1.4908  1.1836 -0.7605
 8604TIP3   OH225775   5.759   6.745   5.504 -0.1759 -0.4205  0.2193
 8604TIP3    H125776   5.708   6.804   5.448 -0.7057 -0.5505  0.5481
 8604TIP3    H225777   5.850   6.759   5.479  0.0888  2.9069  2.4811
 8605TIP3   OH225778   2.751   4.589   2.565 -0.1515 -0.1982 -0.3267
 8605TIP3    H125779   2.770   4.584   2.659 -0.7848  0.3102 -0.1653
 8605TIP3    H225780   2.756   4.499   2.534  1.1755 -0.2466 -0.0308
 8606TIP3   OH225781   5.642   6.186   5.380 -0.7554  0.1471  0.1474
 8606TIP3    H125782   5.588   6.150   5.310  0.2254  1.1021 -1.1586
 8606TIP3    H225783   5.716   6.126   5.386  0.3661  1.2887 -1.3350
 8607TIP3   OH225784   3.123   1.450   4.272  0.1964 -0.2857  0.2189
 8607TIP3    H125785   3.067   1.486   4.203 -0.7217 -1.1563  0.4876
 8607TIP3    H225786   3.104   1.503   4.349  1.8572  1.2605 -0.3394
 8608TIP3   OH225787   1.211   4.569   3.854  0.0660 -0.0875  0.5597
 8608TIP3    H125788   1.159   4.649   3.856 -0.9718 -0.6394 -1.8235
 8608TIP3    H225789   1.277   4.585   3.787 -0.3461 -1.3084 -0.1650
 8609TIP3   OH225790   4.416   0.190   0.192 -0.1881  0.1458 -0.1823
 8609TIP3    H125791   4.481   0.133   0.233  0.2194 -1.0239 -2.2990
 8609TIP3    H225792   4.336   0.137   0.190 -0.8142  0.9937  0.9676
 8610TIP3   OH225793   5.949   6.005   5.063 -0.2497 -0.0100  0.4216
 8610TIP3    H125794   5.947   6.011   4.967 -2.4633  0.3479  0.4179
 8610TIP3    H225795   6.027   5.954   5.083  0.2759 -0.0688 -1.5732
 8611TIP3   OH225796   0.195   0.579   1.191 -0.7262 -0.0046  0.4797
 8611TIP3    H125797   0.278   0.555   1.149 -1.9041 -1.5042 -1.1291
 8611TIP3    H225798   0.221   0.635   1.264  1.7117 -0.6205  0.1831
 8612TIP3   OH225799   6.071   6.173   5.731 -0.4903 -0.1141 -0.4734
 8612TIP3    H125800   6.048   6.082   5.714  1.8769 -1.4296  2.4319
 8612TIP3    H225801   6.059   6.184   5.826  2.7263  1.3714 -0.0894
 8613TIP3   OH225802   5.505   0.957   2.710  0.4160 -0.2531 -0.2831
 8613TIP3    H125803   5.590   0.922   2.681  0.5784  0.2168 -0.3814
 8613TIP3    H225804   5.514   1.052   2.701 -0.6225 -0.2587 -1.6911
 8614TIP3   OH225805   1.058   2.169   4.717 -0.0897 -0.0303  0.1276
 8614TIP3    H125806   1.107   2.224   4.655  0.1014  0.3807  0.6336
 8614TIP3    H225807   0.994   2.123   4.663  1.7196 -1.6214 -0.7810
 8615TIP3   OH225808   1.387   5.886   0.386 -0.6409 -0.8644 -0.6700
 8615TIP3    H125809   1.437   5.934   0.320 -0.1033 -1.1190 -0.4521
 8615TIP3    H225810   1.438   5.896   0.467 -2.4813  1.4744  0.3117
 8616TIP3   OH225811   4.957   0.706   5.685  0.2781 -0.0629  0.4295
 8616TIP3    H125812   5.051   0.705   5.703  0.2838  1.8834  0.6937
 8616TIP3    H225813   4.931   0.797   5.697 -1.3624 -0.2613 -1.1995
 8617TIP3   OH225814   4.750   4.591   4.625 -0.2862  0.4757  0.7893
 8617TIP3    H125815   4.682   4.524   4.633  0.0382  0.0217 -0.0684
 8617TIP3    H225816   4.819   4.562   4.684 -0.3503  0.3133  0.7849
 8618TIP3   OH225817   1.553   4.949   2.835 -0.2916  0.4745  0.1863
 8618TIP3    H125818   1.536   4.877   2.896 -3.0172  0.1994 -0.7540
 8618TIP3    H225819   1.594   4.907   2.760 -0.5036  0.1257  0.2607
 8619TIP3   OH225820   6.393   3.519   4.576 -0.1488 -0.4816 -0.1052
 8619TIP3    H125821   6.474   3.468   4.571 -0.3066 -0.8411  0.7783
 8619TIP3    H225822   6.421   3.603   4.612 -0.0642 -0.3699 -0.4350
 8620TIP3   OH225823   5.799   4.697   5.798  0.0502 -0.0779 -0.2159
 8620TIP3    H125824   5.740   4.621   5.803 -1.0772  0.8157  0.5748
 8620TIP3    H225825   5.741   4.771   5.779  1.3161  0.3907 -2.8011
 8621TIP3   OH225826   1.675   2.915   5.775  0.1382  0.1482 -0.9470
 8621TIP3    H125827   1.606   2.968   5.814  0.5972 -0.1784  0.3454
 8621TIP3    H225828   1.740   2.904   5.844  1.9274  1.1613 -2.3761
 8622TIP3   OH225829   3.973   2.193   2.836  0.8058  0.4642  0.0836
 8622TIP3    H125830   3.923   2.214   2.757  2.2206  1.6468 -0.5650
 8622TIP3    H225831   3.924   2.233   2.908 -2.2296 -3.2580  0.4038
 8623TIP3   OH225832   6.223   4.984   5.018 -0.2245 -0.4094 -0.1578
 8623TIP3    H125833   6.159   4.999   5.087 -0.0446 -0.3037 -0.0149
 8623TIP3    H225834   6.306   4.970   5.064 -0.1949 -0.8183 -0.3299
 8624TIP3   OH225835   0.781   1.436   0.755 -0.0456  0.1468  0.1617
 8624TIP3    H125836   0.748   1.454   0.667 -0.2424  1.1053  0.4233
 8624TIP3    H225837   0.834   1.513   0.777 -0.7449  0.3327  1.2401
 8625TIP3   OH225838   2.605   0.313   0.499 -0.4732 -0.5180  0.8469
 8625TIP3    H125839   2.614   0.275   0.586  0.6545 -0.0444  0.9534
 8625TIP3    H225840   2.660   0.258   0.443 -0.4738 -0.2829  0.6140
 8626TIP3   OH225841   3.484   4.235   2.033 -0.3594  0.5596  0.5435
 8626TIP3    H125842   3.537   4.210   2.109 -2.3813  1.1569  2.2347
 8626TIP3    H225843   3.424   4.162   2.020  0.4765  0.0921 -1.0777
 8627TIP3   OH225844   2.334   6.572   4.107 -0.9485 -0.0506 -0.2503
 8627TIP3    H125845   2.392   6.579   4.184 -1.6139  1.1580  0.1633
 8627TIP3    H225846   2.260   6.630   4.127 -3.6185 -3.3596  0.3531
 8628TIP3   OH225847   1.102   1.755   4.544 -0.1278  0.4669 -0.2580
 8628TIP3    H125848   1.010   1.731   4.531  0.3728 -1.3229 -0.8565
 8628TIP3    H225849   1.113   1.837   4.497 -1.4931  0.8586  0.0816
 8629TIP3   OH225850   2.308   0.148   5.284 -0.3512 -0.2050  0.0206
 8629TIP3    H125851   2.339   0.063   5.252  2.1025  0.3704  0.6614
 8629TIP3    H225852   2.298   0.201   5.205  1.5914 -0.0537 -0.1656
 8630TIP3   OH225853   0.084   3.460   4.321 -0.2970  0.5749 -0.3688
 8630TIP3    H125854   0.006   3.407   4.337  0.8099 -0.9259  0.3128
 8630TIP3    H225855   0.068   3.542   4.367 -0.9021 -0.2520  0.9257
 8631TIP3   OH225856   3.494   2.656   5.710 -0.0033 -0.4492 -0.3451
 8631TIP3    H125857   3.571   2.692   5.754 -0.9464  2.1087 -0.6364
 8631TIP3    H225858   3.474   2.576   5.758  2.1870 -0.6206  0.3902
 8632TIP3   OH225859   5.008   5.092   0.750 -0.3808  0.8244 -0.5541
 8632TIP3    H125860   4.999   5.109   0.844  1.9055 -1.8466  0.2655
 8632TIP3    H225861   5.090   5.136   0.725  0.1959 -0.3179 -0.7402
 8633TIP3   OH225862   6.659   2.147   1.675 -0.0809 -0.3376  0.1278
 8633TIP3    H125863   6.741   2.174   1.717  0.6346 -1.2186 -0.6628
 8633TIP3    H225864   6.657   2.197   1.593 -1.1011  0.8092  0.8106
 8634TIP3   OH225865   5.749   5.844   2.458 -0.6311 -0.1308  0.2211
 8634TIP3    H125866   5.804   5.894   2.519 -0.7590  0.2836  0.0063
 8634TIP3    H225867   5.758   5.753   2.486  0.6708 -0.1529 -0.2024
 8635TIP3   OH225868   0.789   2.028   1.105 -0.1705 -0.1786 -0.5906
 8635TIP3    H125869   0.874   1.994   1.135  0.8462  0.8252 -2.1477
 8635TIP3    H225870   0.756   2.080   1.177  1.2754  0.6383 -0.4906
 8636TIP3   OH225871   0.877   0.813   0.559 -0.1432  0.2741 -0.2053
 8636TIP3    H125872   0.931   0.790   0.635 -1.8392  0.5542  1.1499
 8636TIP3    H225873   0.808   0.746   0.557 -1.9734  2.0441  0.4836
 8637TIP3   OH225874   0.270   2.321   0.688 -0.1150  0.4494 -0.2948
 8637TIP3    H125875   0.192   2.275   0.718 -0.3830 -0.5157 -2.3520
 8637TIP3    H225876   0.337   2.253   0.684  0.7258  1.1579  0.8888
 8638TIP3   OH225877   7.089   4.816   5.281  0.0088  0.7793  0.7777
 8638TIP3    H125878   7.000   4.786   5.262 -0.0368  0.5304  1.3596
 8638TIP3    H225879   7.138   4.735   5.296  0.7925  0.7777 -1.3521
 8639TIP3   OH225880   4.129   3.905   4.256  0.2889  0.2701 -0.0186
 8639TIP3    H125881   4.151   3.816   4.281 -1.8388 -0.2194  0.2462
 8639TIP3    H225882   4.036   3.902   4.233  0.0778  2.4745  0.3295
 8640TIP3   OH225883   2.248   2.120   0.461  0.0062 -0.1507 -0.2727
 8640TIP3    H125884   2.228   2.144   0.552  1.4397  0.5434 -0.1127
 8640TIP3    H225885   2.182   2.167   0.409  0.6287  1.4129  0.2799
 8641TIP3   OH225886   1.167   1.130   1.582 -0.0939 -0.1714  0.4482
 8641TIP3    H125887   1.253   1.129   1.625 -0.0071 -0.7620  0.2707
 8641TIP3    H225888   1.108   1.165   1.648  0.6748  2.5149 -0.1934
 8642TIP3   OH225889   6.640   2.581   2.036  0.6650  0.2888 -0.5801
 8642TIP3    H125890   6.618   2.662   2.082  0.3591 -0.0038 -0.2108
 8642TIP3    H225891   6.730   2.594   2.006  0.2771  1.1776 -1.4109
 8643TIP3   OH225892   6.631   0.261   1.631  0.0903 -0.1427  0.7727
 8643TIP3    H125893   6.537   0.250   1.620  0.4377 -0.4032 -3.3962
 8643TIP3    H225894   6.645   0.355   1.620  0.3817 -0.2562  0.0945
 8644TIP3   OH225895   4.650   6.415   2.560 -0.4626  0.2911 -0.1114
 8644TIP3    H125896   4.620   6.473   2.630 -1.5738  0.9387 -1.0709
 8644TIP3    H225897   4.729   6.374   2.594 -0.6041  1.0936  1.2527
 8645TIP3   OH225898   5.900   6.417   2.756 -0.4829 -0.2613  0.1687
 8645TIP3    H125899   5.902   6.497   2.809 -3.9916  1.0844 -1.4524
 8645TIP3    H225900   5.879   6.348   2.818 -0.4441  0.5661  1.1325
 8646TIP3   OH225901   6.753   6.096   3.282 -0.0718 -0.3694  0.6730
 8646TIP3    H125902   6.745   6.192   3.284 -2.2452 -0.5029  1.4925
 8646TIP3    H225903   6.725   6.068   3.370 -1.1519 -1.8099 -0.0809
 8647TIP3   OH225904   3.039   6.580   0.345 -0.1159 -0.2020 -0.0389
 8647TIP3    H125905   3.123   6.624   0.363  0.3167 -1.1099  0.2489
 8647TIP3    H225906   2.977   6.621   0.406  0.6111 -0.9837  1.2834
 8648TIP3   OH225907   2.125   2.806   0.881  0.4085  0.2476  0.2475
 8648TIP3    H125908   2.129   2.751   0.802  0.9338  0.6972 -0.0462
 8648TIP3    H225909   2.197   2.867   0.871  0.5640  0.2250  1.1535
 8649TIP3   OH225910   6.739   2.500   0.777 -0.2828  0.1393 -0.0414
 8649TIP3    H125911   6.725   2.474   0.686  0.6098 -1.5255  0.2580
 8649TIP3    H225912   6.834   2.516   0.783 -0.3563  0.3680  0.5657
 8650TIP3   OH225913   1.875   0.309   1.207  0.8089 -0.2786 -0.4034
 8650TIP3    H125914   1.850   0.390   1.163 -0.2938 -0.3644  0.0378
 8650TIP3    H225915   1.929   0.263   1.143 -1.8541 -1.0474 -2.2506
 8651TIP3   OH225916   4.131   5.109   2.938  0.6547  0.4188 -0.4789
 8651TIP3    H125917   4.168   5.062   2.863 -1.4614  1.5507 -2.3484
 8651TIP3    H225918   4.081   5.043   2.986  0.0062  0.1554 -1.4921
 8652TIP3   OH225919   4.994   3.469   0.706 -0.1743  0.3219  0.0183
 8652TIP3    H125920   5.007   3.527   0.781 -1.0514 -0.5628  0.8917
 8652TIP3    H225921   4.908   3.428   0.722 -0.3474  0.0636 -1.4335
 8653TIP3   OH225922   5.808   2.025   4.135 -0.9819  0.1542  0.1427
 8653TIP3    H125923   5.745   1.961   4.167 -0.1884 -0.5291  0.3759
 8653TIP3    H225924   5.884   1.973   4.108 -0.9255  0.8626 -1.1518
 8654TIP3   OH225925   2.719   2.521   2.375 -0.0775  0.1956  0.4540
 8654TIP3    H125926   2.651   2.519   2.308  2.0844  1.3555 -1.9265
 8654TIP3    H225927   2.680   2.475   2.449 -4.1464  2.4401  0.0010
 8655TIP3   OH225928   5.355   2.609   1.482  0.0718 -0.5096 -0.0700
 8655TIP3    H125929   5.289   2.600   1.551  0.2981 -0.1763  0.1915
 8655TIP3    H225930   5.328   2.686   1.432 -0.5160 -1.1946 -0.8255
 8656TIP3   OH225931   2.371   5.063   1.607 -0.5067 -0.0925  0.1396
 8656TIP3    H125932   2.381   5.073   1.513  1.0616  2.1578  0.4745
 8656TIP3    H225933   2.323   5.142   1.635  1.0909  0.4695  1.4743
 8657TIP3   OH225934   4.886   5.630   5.391  0.1164  0.2176 -0.2573
 8657TIP3    H125935   4.864   5.541   5.417 -0.1401 -0.3293 -2.1713
 8657TIP3    H225936   4.802   5.675   5.385  0.0213 -0.1040 -1.5676
 8658TIP3   OH225937   6.723   1.400   0.526  0.6758  0.4301 -0.6844
 8658TIP3    H125938   6.733   1.401   0.431  1.1638  0.3296 -0.6389
 8658TIP3    H225939   6.629   1.409   0.541  0.7062  1.7465 -1.1571
 8659TIP3   OH225940   1.338   5.631   3.100  0.7527  0.3906  0.0281
 8659TIP3    H125941   1.301   5.718   3.112 -0.3773 -0.0729  0.0657
 8659TIP3    H225942   1.319   5.585   3.182  3.0800  0.6769  0.7957
 8660TIP3   OH225943   4.479   3.679   2.214  0.0485 -0.0753 -0.0064
 8660TIP3    H125944   4.407   3.736   2.189  0.6517  0.4155 -0.6353
 8660TIP3    H225945   4.448   3.637   2.295 -1.3732 -0.6786 -0.8168
 8661TIP3   OH225946   4.303   0.730   1.228 -0.2089 -0.4364 -0.5266
 8661TIP3    H125947   4.374   0.792   1.235  0.0683 -0.7703 -0.3235
 8661TIP3    H225948   4.265   0.745   1.142 -1.8064  1.7837  0.4861
 8662TIP3   OH225949   2.681   0.533   2.321 -0.6724  0.2432  0.2867
 8662TIP3    H125950   2.746   0.469   2.290  0.8467  1.9801 -0.2915
 8662TIP3    H225951   2.621   0.543   2.247  2.2628  3.4831 -1.9456
 8663TIP3   OH225952   0.567   3.605   1.891  0.2805 -0.1824  0.1566
 8663TIP3    H125953   0.499   3.577   1.830  0.5715  1.5643 -1.0226
 8663TIP3    H225954   0.578   3.698   1.874  1.3853  0.0441  1.9108
 8664TIP3   OH225955   6.214   5.283   3.657  0.0120 -0.2058  0.2990
 8664TIP3    H125956   6.294   5.334   3.649  0.5394 -0.8132  1.3689
 8664TIP3    H225957   6.168   5.322   3.731 -2.4101  2.3184 -2.3604
 8665TIP3   OH225958   0.272   0.049   3.297 -0.4424 -0.1584 -0.5785
 8665TIP3    H125959   0.316   0.014   3.374  1.7546  1.2962 -1.0819
 8665TIP3    H225960   0.179   0.040   3.316  0.0515 -0.9921  1.6731
 8666TIP3   OH225961   3.431   0.427   1.351  0.0347  0.7296  0.0417
 8666TIP3    H125962   3.380   0.393   1.424 -2.7444  2.4030 -0.9301
 8666TIP3    H225963   3.479   0.352   1.317 -0.7030 -0.6533  1.8964
 8667TIP3   OH225964   5.488   3.366   2.656 -0.3303 -0.1929 -0.6939
 8667TIP3    H125965   5.547   3.330   2.590 -0.1098  0.5505 -0.9202
 8667TIP3    H225966   5.400   3.353   2.620 -0.4027 -2.2688  0.1286
 8668TIP3   OH225967   3.647   0.792   2.593  0.5224 -0.1806 -0.0363
 8668TIP3    H125968   3.706   0.786   2.667  1.0144 -0.8349 -0.4761
 8668TIP3    H225969   3.703   0.778   2.516 -0.2151 -0.9324 -0.4496
 8669TIP3   OH225970   4.824   4.883   0.933 -0.8799  0.5000  0.0173
 8669TIP3    H125971   4.814   4.797   0.892 -1.5405 -0.0981  1.3756
 8669TIP3    H225972   4.917   4.888   0.956 -0.9238 -0.0303  0.3158
 8670TIP3   OH225973   1.001   1.212   4.265 -0.1739  0.3122 -0.0435
 8670TIP3    H125974   1.029   1.303   4.280  1.0823 -0.3763  2.1398
 8670TIP3    H225975   1.075   1.159   4.292 -1.0723 -1.4024 -0.8252
 8671TIP3   OH225976   5.781   1.127   3.266  0.5018  0.2230  0.0804
 8671TIP3    H125977   5.770   1.096   3.176 -0.7637  0.5288  0.1130
 8671TIP3    H225978   5.697   1.109   3.308  1.0429  0.1821  1.1777
 8672TIP3   OH225979   3.798   0.276   0.672 -0.2549 -0.2012  0.0855
 8672TIP3    H125980   3.844   0.357   0.650 -0.7581  0.0817  0.0461
 8672TIP3    H225981   3.705   0.300   0.666 -0.4527 -0.0358  2.7040
 8673TIP3   OH225982   3.030   2.196   2.823  0.6678  0.3510 -0.0469
 8673TIP3    H125983   2.970   2.161   2.757  0.2040 -1.1724  1.1387
 8673TIP3    H225984   2.994   2.282   2.844 -0.4367 -0.0545 -0.2147
 8674TIP3   OH225985   3.386   1.569   5.109  0.5698  0.3521  0.2244
 8674TIP3    H125986   3.398   1.480   5.141  1.5992 -0.5837 -2.5001
 8674TIP3    H225987   3.317   1.606   5.164  0.4906 -1.9145  1.7532
 8675TIP3   OH225988   5.256   6.721   4.493  0.1516  0.3957 -0.3809
 8675TIP3    H125989   5.206   6.646   4.523  0.9207  0.4844  1.2103
 8675TIP3    H225990   5.301   6.753   4.571  0.6578  1.8751 -1.2422
 8676TIP3   OH225991   2.107   4.045   4.263  0.3665 -1.0469 -0.7619
 8676TIP3    H125992   2.057   4.056   4.344 -0.3059 -2.4362 -0.9723
 8676TIP3    H225993   2.074   4.115   4.206 -0.6861 -1.3553 -0.5627
 8677TIP3   OH225994   3.210   5.081   4.041  0.7782  0.4087  0.6642
 8677TIP3    H125995   3.281   5.071   4.104  0.8983 -0.3990  0.4141
 8677TIP3    H225996   3.177   4.992   4.028 -1.2633  0.9390  1.8849
 8678TIP3   OH225997   3.628   1.035   4.209 -0.2225  0.2184 -0.5706
 8678TIP3    H125998   3.580   1.106   4.167 -0.6094  0.2021 -0.1661
 8678TIP3    H225999   3.565   0.962   4.212  0.2848 -0.2669 -1.3220
 8679TIP3   OH226000   0.810   5.371   3.986  0.1954 -0.1213 -0.1414
 8679TIP3    H126001   0.905   5.364   3.987  0.1110 -1.5363  0.5572
 8679TIP3    H226002   0.783   5.315   3.913 -0.1099  0.1282 -0.2223
 8680TIP3   OH226003   4.175   2.164   1.306 -0.3340  0.3715  0.1771
 8680TIP3    H126004   4.247   2.224   1.327  0.1350  0.3416 -1.2084
 8680TIP3    H226005   4.099   2.221   1.295  0.2743  0.8966 -1.9410
 8681TIP3   OH226006   3.817   3.160   5.381 -0.5136 -0.7445  0.1751
 8681TIP3    H126007   3.795   3.252   5.365 -0.3039 -0.9129 -1.2412
 8681TIP3    H226008   3.832   3.124   5.293  1.1533 -1.6921  0.8164
 8682TIP3   OH226009   5.750   4.767   3.316  0.2539 -0.2171  0.2135
 8682TIP3    H126010   5.758   4.849   3.365 -0.7601  0.4700 -0.6960
 8682TIP3    H226011   5.661   4.770   3.279  0.1752 -1.7587  0.1931
 8683TIP3   OH226012   6.912   3.578   3.900 -0.2377 -0.1815 -0.0662
 8683TIP3    H126013   6.868   3.616   3.824 -0.0267 -1.3968 -0.8299
 8683TIP3    H226014   6.902   3.643   3.969  1.6947  2.1118 -1.7753
 8684TIP3   OH226015   4.595   6.415   5.653 -0.3384 -0.0880  0.3367
 8684TIP3    H126016   4.585   6.384   5.743 -0.2190 -0.6235  0.1689
 8684TIP3    H226017   4.614   6.508   5.662  0.2430 -0.2551  0.8902
 8685TIP3   OH226018   3.430   2.462   5.490 -0.3482 -0.6084 -0.0510
 8685TIP3    H126019   3.478   2.494   5.566  0.6932 -1.4118 -0.3527
 8685TIP3    H226020   3.346   2.432   5.526  0.1844 -1.1059  0.7983
 8686TIP3   OH226021   1.079   3.576   5.842 -0.0059 -0.0649  0.4298
 8686TIP3    H126022   1.030   3.494   5.849  0.6459 -0.3530  1.9370
 8686TIP3    H226023   1.014   3.640   5.810  0.1338 -1.6975 -3.8271
 8687TIP3   OH226024   6.524   0.170   5.661  0.1313  0.3072  0.0158
 8687TIP3    H126025   6.543   0.105   5.729 -0.7516 -0.6734 -0.6381
 8687TIP3    H226026   6.610   0.192   5.625  0.6249  0.9894  1.5587
 8688TIP3   OH226027   1.659   2.966   5.133 -0.0009 -0.4716 -0.8267
 8688TIP3    H126028   1.707   2.964   5.216 -1.8819  0.1393  0.3432
 8688TIP3    H226029   1.726   2.986   5.068  1.2883  0.7965  0.7692
 8689TIP3   OH226030   2.745   5.040   2.099 -0.2814  0.0390  0.0352
 8689TIP3    H126031   2.775   5.084   2.179 -1.3632  0.0071  0.4855
 8689TIP3    H226032   2.725   5.112   2.039 -0.3858  0.0987  0.1409
 8690TIP3   OH226033   0.082   3.357   1.084 -0.1972  0.0830 -0.3835
 8690TIP3    H126034  -0.006   3.321   1.076 -0.7604  1.1236  0.8764
 8690TIP3    H226035   0.133   3.310   1.017 -1.4277 -1.3401 -0.3724
 8691TIP3   OH226036   3.744   2.992   4.951  0.2084 -0.1820  0.3027
 8691TIP3    H126037   3.777   2.917   4.901  0.4197  1.0028 -1.4075
 8691TIP3    H226038   3.719   3.056   4.885 -3.0894  0.0390  1.5788
 8692TIP3   OH226039   1.028   3.502   5.231  0.1944 -0.7542 -0.0224
 8692TIP3    H126040   0.935   3.509   5.253 -0.0302 -0.2059 -1.0925
 8692TIP3    H226041   1.038   3.555   5.152  1.3872 -0.9441 -0.0138
 8693TIP3   OH226042   1.801   5.356   2.253 -0.6606  0.3347  0.1894
 8693TIP3    H126043   1.868   5.424   2.267 -0.3676  0.1521 -0.3032
 8693TIP3    H226044   1.744   5.363   2.329  1.5927 -1.4708  2.2078
 8694TIP3   OH226045   2.207   3.183   5.395 -0.0817 -0.0133  0.4166
 8694TIP3    H126046   2.293   3.222   5.409 -0.0522 -0.2921  1.0340
 8694TIP3    H226047   2.174   3.164   5.483 -1.2213  1.0477  0.2495
 8695TIP3   OH226048   0.157   0.655   0.675 -0.3096  0.2383  0.6882
 8695TIP3    H126049   0.245   0.642   0.639 -0.3668  1.7145 -0.1050
 8695TIP3    H226050   0.146   0.586   0.740  0.9895 -0.6707 -0.0230
 8696TIP3   OH226051   6.391   1.215   1.656  0.3604 -0.0985  0.3464
 8696TIP3    H126052   6.403   1.210   1.562 -0.9577  0.0439  0.1505
 8696TIP3    H226053   6.447   1.288   1.684 -0.0868  0.5871 -0.4936
 8697TIP3   OH226054   1.150   5.700   1.835 -0.1703  0.0959 -0.7964
 8697TIP3    H126055   1.215   5.722   1.902  0.4055 -2.1710 -0.5277
 8697TIP3    H226056   1.093   5.636   1.878 -0.8870 -0.0410 -1.9229
 8698TIP3   OH226057   1.330   4.918   2.223 -0.3114  0.0046 -0.4596
 8698TIP3    H126058   1.273   4.994   2.209 -1.2941 -0.4174  0.9725
 8698TIP3    H226059   1.278   4.843   2.193  0.2052 -0.2174 -0.8066
 8699TIP3   OH226060   4.726   2.081   0.335 -0.2188  0.0163 -0.0625
 8699TIP3    H126061   4.726   2.020   0.408 -1.7737 -0.1014 -0.1229
 8699TIP3    H226062   4.808   2.064   0.290  0.3860 -0.4734  1.1868
 8700TIP3   OH226063   5.897   4.101   2.220  0.5345 -0.0794 -0.1086
 8700TIP3    H126064   5.915   4.137   2.134 -1.4470  0.4006 -0.3656
 8700TIP3    H226065   5.947   4.019   2.223  0.2350 -0.3651 -1.9164
 8701TIP3   OH226066   7.008   2.338   3.027 -0.8143 -0.5608  0.3673
 8701TIP3    H126067   6.934   2.360   3.084  0.0069  0.7679  0.9851
 8701TIP3    H226068   7.062   2.279   3.080  0.0663  0.8550  1.1202
 8702TIP3   OH226069   0.824   1.386   2.734 -0.4048  0.3524 -0.6676
 8702TIP3    H126070   0.767   1.392   2.658  0.2878 -0.3663 -1.2661
 8702TIP3    H226071   0.869   1.470   2.739 -2.7849  1.6258  0.8808
 8703TIP3   OH226072   6.955   1.592   0.692  0.2414  0.4977 -0.1954
 8703TIP3    H126073   6.993   1.546   0.768  0.6318 -0.3294 -0.8734
 8703TIP3    H226074   6.915   1.523   0.640 -0.8384  1.1784 -0.2957
 8704TIP3   OH226075   0.051   6.765   5.153  0.4604  0.1357  0.1724
 8704TIP3    H126076   0.031   6.750   5.060  2.2104  0.5242 -0.3059
 8704TIP3    H226077   0.103   6.689   5.179  0.8769  0.5370  0.5291
 8705TIP3   OH226078   2.777   1.219   4.647 -0.4210  0.0674 -0.4737
 8705TIP3    H126079   2.701   1.168   4.620 -1.1037  1.5527 -1.5145
 8705TIP3    H226080   2.834   1.220   4.570 -0.8470  1.5881 -0.8053
 8706TIP3   OH226081   1.089   2.492   3.179  0.0999  0.0269  0.4239
 8706TIP3    H126082   1.158   2.557   3.164 -0.0137 -0.1037 -0.7519
 8706TIP3    H226083   1.115   2.448   3.259  2.1895 -1.0265 -0.7384
 8707TIP3   OH226084   2.310   2.585   3.912  0.5259 -0.4128 -0.5416
 8707TIP3    H126085   2.300   2.675   3.943 -0.0145 -1.0949  1.4469
 8707TIP3    H226086   2.271   2.585   3.825  1.5806  1.5190 -1.0730
 8708TIP3   OH226087   5.622   5.659   2.262  0.4398 -0.3047  0.0519
 8708TIP3    H126088   5.644   5.650   2.355  0.3195 -0.8634  0.0299
 8708TIP3    H226089   5.609   5.753   2.249  1.7343 -0.0745  0.3074
 8709TIP3   OH226090   2.030   4.954   4.240  0.0209 -0.2440  0.4565
 8709TIP3    H126091   2.077   4.924   4.162 -0.7906 -0.8658  0.1820
 8709TIP3    H226092   2.006   5.045   4.220  1.5217  0.2510  0.8194
 8710TIP3   OH226093   4.268   4.887   3.236 -0.4479  0.0831  0.0053
 8710TIP3    H126094   4.317   4.966   3.259 -0.7827  0.6436 -1.1488
 8710TIP3    H226095   4.312   4.854   3.157  0.1998 -1.3532  0.9226
 8711TIP3   OH226096   3.737   4.850   4.964  0.5812 -0.3619  0.0726
 8711TIP3    H126097   3.687   4.823   5.041 -0.3449  0.9338 -0.0428
 8711TIP3    H226098   3.810   4.901   4.998 -0.3985  1.0795  0.0693
 8712TIP3   OH226099   2.632   5.275   5.616 -0.0075 -0.4287  0.0519
 8712TIP3    H126100   2.627   5.289   5.711  0.7082 -1.3409  0.2333
 8712TIP3    H226101   2.558   5.218   5.596 -1.6904  1.7721 -0.3681
 8713TIP3   OH226102   1.570   6.644   5.494  0.2557 -0.4509  0.2530
 8713TIP3    H126103   1.506   6.694   5.443  0.1158 -0.4490  0.4281
 8713TIP3    H226104   1.655   6.670   5.458  0.2964  1.0602  1.3002
 8714TIP3   OH226105   5.416   3.765   1.976 -0.2019 -0.0721 -0.0019
 8714TIP3    H126106   5.461   3.783   2.059 -1.8976 -0.4601  1.0398
 8714TIP3    H226107   5.486   3.739   1.916  0.9303 -1.0672  1.6639
 8715TIP3   OH226108   0.734   0.045   5.031 -0.5617  0.0848  0.2977
 8715TIP3    H126109   0.732   0.116   4.967  1.8903  0.6908  0.8062
 8715TIP3    H226110   0.686   0.079   5.106  0.4056  1.1466  0.4534
 8716TIP3   OH226111   4.597   5.860   4.916  0.6202 -0.0401  0.3438
 8716TIP3    H126112   4.607   5.778   4.867  0.9644  0.9630 -1.3684
 8716TIP3    H226113   4.565   5.923   4.850  1.6636  1.5278  1.2668
 8717TIP3   OH226114   5.562   1.667   0.817 -0.2617 -0.3394  0.2313
 8717TIP3    H126115   5.550   1.704   0.730 -0.4101  1.1483  0.8387
 8717TIP3    H226116   5.483   1.695   0.865 -0.6315 -1.9288  0.5951
 8718TIP3   OH226117   2.639   4.356   0.703 -0.2474  0.4603 -0.1944
 8718TIP3    H126118   2.666   4.283   0.759 -2.1186 -0.9432 -0.9972
 8718TIP3    H226119   2.650   4.323   0.614 -0.3941  1.4432 -0.5947
 8719TIP3   OH226120   4.750   6.441   1.901  0.5733  0.0253 -0.0634
 8719TIP3    H126121   4.682   6.442   1.968  0.0933 -0.1240 -0.5449
 8719TIP3    H226122   4.767   6.534   1.884  0.4332  0.0632 -0.0012
 8720TIP3   OH226123   6.440   3.160   0.037  0.0317  0.8740  0.1531
 8720TIP3    H126124   6.469   3.069   0.044  0.5681  0.5405 -3.8782
 8720TIP3    H226125   6.521   3.210   0.026 -0.3831  1.3443 -0.9126
 8721TIP3   OH226126   6.532   5.470   0.681 -0.3873  0.0439  0.1233
 8721TIP3    H126127   6.505   5.499   0.594 -1.2380  0.9451  0.6592
 8721TIP3    H226128   6.470   5.400   0.703  0.1997 -0.5921 -0.2283
 8722TIP3   OH226129   6.514   4.023   3.461 -0.3267 -0.4067 -0.5431
 8722TIP3    H126130   6.575   4.067   3.402  0.6167 -0.3707  0.4226
 8722TIP3    H226131   6.431   4.067   3.447  0.0835  0.1592 -1.2366
 8723TIP3   OH226132   3.725   6.684   5.203 -0.2218 -0.1055  0.1850
 8723TIP3    H126133   3.664   6.614   5.226  1.7272 -1.6580  0.9151
 8723TIP3    H226134   3.751   6.663   5.113 -0.9208  0.7174 -0.2290
 8724TIP3   OH226135   5.002   4.216   3.878 -0.4607 -0.3339  0.6221
 8724TIP3    H126136   4.999   4.311   3.886  1.3270 -0.2902  1.2359
 8724TIP3    H226137   5.070   4.200   3.813 -2.2714 -1.1914 -1.1870
 8725TIP3   OH226138   2.025   1.384   1.080  0.0984 -0.2998 -0.2654
 8725TIP3    H126139   1.984   1.394   0.994 -0.4183 -1.7124 -0.2221
 8725TIP3    H226140   2.097   1.322   1.065  1.7866  1.5694 -0.1924
 8726TIP3   OH226141   4.072   4.827   0.344 -0.4837  0.2723  0.3332
 8726TIP3    H126142   4.117   4.823   0.259 -0.5457 -1.5666  0.3372
 8726TIP3    H226143   4.115   4.899   0.390  1.7142 -0.6797 -0.1023
 8727TIP3   OH226144   6.359   4.189   2.273  0.5666  0.1362 -0.3278
 8727TIP3    H126145   6.300   4.139   2.329 -1.5701  2.0428 -0.6843
 8727TIP3    H226146   6.317   4.275   2.265  3.2427  1.4985 -0.9791
 8728TIP3   OH226147   3.159   1.282   3.150  0.4001 -0.0222  0.5394
 8728TIP3    H126148   3.117   1.368   3.138  0.3938 -0.2965 -1.8748
 8728TIP3    H226149   3.242   1.290   3.103  0.8128 -1.0784  1.0659
 8729TIP3   OH226150   1.104   2.770   1.872 -0.0039  0.4447  0.6102
 8729TIP3    H126151   1.030   2.722   1.836  0.9798  0.6038 -1.8044
 8729TIP3    H226152   1.064   2.839   1.925 -1.5386  0.0465  0.0262
 8730TIP3   OH226153   5.149   0.191   0.596 -0.0267 -0.1342 -0.2772
 8730TIP3    H126154   5.229   0.242   0.607 -0.7269  0.7808  0.7195
 8730TIP3    H226155   5.084   0.255   0.568 -0.9441 -0.4250  1.0974
 8731TIP3   OH226156   6.602   0.257   0.693 -0.5161 -0.2118 -0.1589
 8731TIP3    H126157   6.582   0.342   0.655 -2.0531 -0.9608 -1.1431
 8731TIP3    H226158   6.556   0.255   0.777 -0.3185  0.0080 -0.0477
 8732TIP3   OH226159   5.376   1.157   3.975 -0.4644  0.2898 -0.0742
 8732TIP3    H126160   5.373   1.068   4.010 -1.9537  0.3456  0.0064
 8732TIP3    H226161   5.336   1.150   3.888  0.5474  0.6673 -0.5785
 8733TIP3   OH226162   6.156   0.607   3.603 -0.4664  0.0869 -0.3395
 8733TIP3    H126163   6.135   0.529   3.552 -1.1228  0.2511 -0.3203
 8733TIP3    H226164   6.163   0.677   3.538 -2.3565  0.5159 -0.1237
 8734TIP3   OH226165   6.200   0.671   3.345 -0.4968 -0.4470  0.5601
 8734TIP3    H126166   6.189   0.585   3.304  0.3953 -0.8412  1.1161
 8734TIP3    H226167   6.294   0.679   3.358 -0.6188  0.4051  0.9759
 8735TIP3   OH226168   2.525   0.618   0.606 -0.0279  0.7746 -0.0964
 8735TIP3    H126169   2.449   0.562   0.617 -1.3510  2.4743 -0.0960
 8735TIP3    H226170   2.591   0.582   0.664 -0.6203 -1.0705 -0.5154
 8736TIP3   OH226171   5.105   0.240   4.731 -0.0900  0.3412 -0.2100
 8736TIP3    H126172   5.168   0.298   4.774 -1.4500  0.8979  1.1584
 8736TIP3    H226173   5.032   0.236   4.792 -0.7367 -1.5240 -1.0370
 8737TIP3   OH226174   4.197   2.009   1.715 -0.0543 -0.2717  0.5784
 8737TIP3    H126175   4.177   2.044   1.802 -0.8740 -1.4220  0.8719
 8737TIP3    H226176   4.254   1.934   1.731 -0.3124 -0.5691  0.1368
 8738TIP3   OH226177   1.704   0.906   3.974 -0.5632 -0.2428 -0.5371
 8738TIP3    H126178   1.745   0.822   3.954 -0.1015 -0.4626  1.1854
 8738TIP3    H226179   1.771   0.971   3.953  0.2098 -0.5187  0.9906
 8739TIP3   OH226180   2.812   0.311   5.661 -0.3028  0.2501 -0.2578
 8739TIP3    H126181   2.727   0.302   5.619 -0.2064  0.6809 -0.5452
 8739TIP3    H226182   2.847   0.393   5.627  0.9253 -0.7025 -1.3964
 8740TIP3   OH226183   4.701   3.588   1.495  0.3448 -0.0475  0.3713
 8740TIP3    H126184   4.607   3.592   1.512  0.4638  0.7647  0.9112
 8740TIP3    H226185   4.708   3.565   1.402 -0.4598  2.5896 -0.4579
 8741TIP3   OH226186   3.493   4.494   1.484  0.4161 -0.0824 -0.5530
 8741TIP3    H126187   3.580   4.461   1.507 -0.5460 -2.1552  0.3647
 8741TIP3    H226188   3.468   4.445   1.406  0.6598  1.6539 -1.7863
 8742TIP3   OH226189   4.757   3.753   5.037  0.3382  0.0375  0.0863
 8742TIP3    H126190   4.728   3.669   5.071  1.1966 -0.2450  0.1448
 8742TIP3    H226191   4.685   3.783   4.982  0.3475 -1.1118 -0.5751
 8743TIP3   OH226192   4.408   0.554   3.406 -0.0245  0.2335  0.5478
 8743TIP3    H126193   4.364   0.565   3.321 -1.0911  0.4112  1.1041
 8743TIP3    H226194   4.411   0.460   3.419  2.3865  0.0359 -0.7902
 8744TIP3   OH226195   6.246   5.704   3.267 -0.5825 -0.5898  0.2674
 8744TIP3    H126196   6.325   5.675   3.313 -0.1000 -0.3256 -0.3861
 8744TIP3    H226197   6.212   5.776   3.320 -0.8446 -1.2297  0.9896
 8745TIP3   OH226198   3.680   2.698   5.254 -0.4004  0.0533 -0.5396
 8745TIP3    H126199   3.641   2.782   5.228  0.4615  0.5353 -0.3331
 8745TIP3    H226200   3.771   2.705   5.226 -0.1433 -0.5323  0.1235
 8746TIP3   OH226201   2.501   3.460   2.382  0.2087 -0.0046 -0.1684
 8746TIP3    H126202   2.517   3.473   2.476 -0.0663 -1.5892  0.1271
 8746TIP3    H226203   2.450   3.379   2.378 -0.6152  0.5560 -1.6389
 8747TIP3   OH226204   2.877   3.746   3.042 -0.4096 -0.7557  0.4506
 8747TIP3    H126205   2.967   3.779   3.040  0.2720 -2.2358  2.6499
 8747TIP3    H226206   2.826   3.819   3.076  0.0597 -0.1561 -0.0833
 8748TIP3   OH226207   6.465   6.400   0.057 -0.4142  0.1767 -0.2967
 8748TIP3    H126208   6.377   6.436   0.072 -0.9111 -1.3024  0.4764
 8748TIP3    H226209   6.516   6.430   0.133  0.1769  2.1663 -1.3909
 8749TIP3   OH226210   1.892   6.164   2.696 -0.5239  0.4020  0.1242
 8749TIP3    H126211   1.840   6.225   2.748  0.4483  0.2668  1.2879
 8749TIP3    H226212   1.845   6.157   2.613 -0.8116  2.5279  0.0497
 8750TIP3   OH226213   4.002   3.849   2.138  0.1245  0.1728 -0.2654
 8750TIP3    H126214   3.916   3.827   2.173  0.0790  0.1238 -0.4079
 8750TIP3    H226215   3.991   3.846   2.043  0.8188 -1.9947 -0.3163
 8751TIP3   OH226216   5.222   5.202   4.530 -0.0387  0.5231  0.1329
 8751TIP3    H126217   5.151   5.235   4.586  0.4598  2.2139 -0.1795
 8751TIP3    H226218   5.178   5.142   4.470 -1.1823  1.3259  0.1296
 8752TIP3   OH226219   5.385   2.584   5.375 -0.3242 -0.1201 -0.2240
 8752TIP3    H126220   5.406   2.615   5.463 -1.9372  2.3603 -0.6220
 8752TIP3    H226221   5.439   2.638   5.317  1.0184 -1.9871 -0.8371
 8753TIP3   OH226222   7.129   0.452   1.402  0.1441  0.1834  0.0220
 8753TIP3    H126223   7.214   0.496   1.415  1.2032 -1.7552  0.0133
 8753TIP3    H226224   7.131   0.424   1.310 -0.9266  0.8880 -0.2358
 8754TIP3   OH226225   6.765   4.773   2.477  0.0338  0.2975  0.2572
 8754TIP3    H126226   6.726   4.852   2.442  3.1230  1.6735 -0.3878
 8754TIP3    H226227   6.791   4.796   2.566  2.9950  0.9339 -0.6518
 8755TIP3   OH226228   6.343   4.384   2.008  0.3855 -0.3807 -0.6078
 8755TIP3    H126229   6.257   4.422   1.991  0.0886 -0.5436  0.4110
 8755TIP3    H226230   6.389   4.451   2.059  0.0109 -1.1610  0.8369
 8756TIP3   OH226231   2.048   2.177   4.090  0.2006 -0.6190  0.1094
 8756TIP3    H126232   2.094   2.260   4.078  0.2811 -0.7958 -0.8759
 8756TIP3    H226233   2.012   2.182   4.179 -1.6923  1.3952 -0.6797
 8757TIP3   OH226234   7.141   0.721   3.266  0.1424 -0.1409  0.7443
 8757TIP3    H126235   7.147   0.634   3.305 -0.7455 -0.5822 -0.0742
 8757TIP3    H226236   7.105   0.706   3.179  1.4443  0.8931 -0.0109
 8758TIP3   OH226237   6.840   5.502   1.789 -0.1223  0.0791 -0.1432
 8758TIP3    H126238   6.751   5.468   1.789 -0.0302 -0.2219 -1.3815
 8758TIP3    H226239   6.833   5.588   1.747  0.5306 -1.1490 -3.0299
 8759TIP3   OH226240   4.023   0.973   3.416  0.3730 -0.1434 -0.3439
 8759TIP3    H126241   4.003   0.960   3.509 -0.0135  1.5109 -0.1784
 8759TIP3    H226242   4.090   0.907   3.398 -1.4575 -2.3401  0.3855
 8760TIP3   OH226243   1.896   0.702   4.053 -0.0520 -0.0130  0.5330
 8760TIP3    H126244   1.970   0.748   4.094 -1.4727  1.2139  1.8103
 8760TIP3    H226245   1.838   0.680   4.126 -1.6160  0.3032 -0.5699
 8761TIP3   OH226246   5.385   1.137   0.704  0.6886 -0.6259 -0.0480
 8761TIP3    H126247   5.337   1.211   0.666  2.3373  0.3258 -0.3397
 8761TIP3    H226248   5.447   1.176   0.765  2.5803 -1.6115 -1.2365
 8762TIP3   OH226249   3.265   1.581   2.077 -0.0075 -0.4397  0.2280
 8762TIP3    H126250   3.268   1.563   1.983 -0.6293  0.1328  0.0900
 8762TIP3    H226251   3.344   1.632   2.094 -0.6795  0.8469 -0.3099
 8763TIP3   OH226252   3.308   2.263   3.454  0.2419  0.4314  0.7370
 8763TIP3    H126253   3.259   2.278   3.535  1.0670  1.1237  1.1176
 8763TIP3    H226254   3.258   2.195   3.408 -0.5986  0.5124  1.5110
 8764TIP3   OH226255   4.173   5.511   3.805 -0.1004 -0.0474  0.1808
 8764TIP3    H126256   4.266   5.503   3.781 -0.1130 -0.2142  0.1890
 8764TIP3    H226257   4.158   5.606   3.808 -0.3281 -0.0187 -1.3627
 8765TIP3   OH226258   0.871   0.093   3.345  0.2780 -0.0460 -0.3206
 8765TIP3    H126259   0.850   0.001   3.363  0.6638 -0.4431 -1.8035
 8765TIP3    H226260   0.948   0.111   3.399  0.2951 -0.6300 -0.1457
 8766TIP3   OH226261   2.285   1.737   2.789  1.1273 -0.2550 -0.1281
 8766TIP3    H126262   2.354   1.678   2.820  0.5470 -1.3337 -0.8022
 8766TIP3    H226263   2.260   1.787   2.867  1.3394 -1.2170  0.5787
 8767TIP3   OH226264   5.172   5.499   2.384  0.0164  0.0148 -0.2145
 8767TIP3    H126265   5.243   5.543   2.432 -0.4484  1.7972 -1.0830
 8767TIP3    H226266   5.210   5.416   2.356  1.7286  0.8459 -0.5038
 8768TIP3   OH226267   2.093   5.357   5.122 -0.7940 -0.1942  0.0823
 8768TIP3    H126268   2.138   5.321   5.046  1.8405  2.2101  0.3449
 8768TIP3    H226269   2.127   5.308   5.197 -2.8004 -2.0247 -0.1155
 8769TIP3   OH226270   5.370   2.255   2.332  0.7979 -0.4742  0.3013
 8769TIP3    H126271   5.306   2.183   2.331 -0.5565  0.5765  2.8400
 8769TIP3    H226272   5.426   2.237   2.408 -0.1412  1.5414  1.5480
 8770TIP3   OH226273   6.142   0.035   0.123 -0.1015  0.0270  0.1112
 8770TIP3    H126274   6.139  -0.014   0.041 -1.3202  2.2541 -1.2561
 8770TIP3    H226275   6.066   0.094   0.119  1.6944  2.5920  1.2756
 8771TIP3   OH226276   3.662   0.334   3.200 -0.4959  1.0408 -0.2084
 8771TIP3    H126277   3.710   0.296   3.274  0.8321  1.6141 -0.7312
 8771TIP3    H226278   3.717   0.316   3.124 -2.9437 -1.6002 -1.5310
 8772TIP3   OH226279   3.275   0.521   2.296  0.0534  0.0185 -0.4425
 8772TIP3    H126280   3.241   0.610   2.302  0.1912  0.0411  0.0264
 8772TIP3    H226281   3.356   0.523   2.347  0.6858 -0.0760 -1.4187
 8773TIP3   OH226282   3.100   2.188   2.473 -0.0948 -0.1429  0.1711
 8773TIP3    H126283   3.183   2.173   2.427 -0.4389 -0.3937 -0.3740
 8773TIP3    H226284   3.097   2.119   2.539  0.1329 -0.1230  0.2054
 8774TIP3   OH226285   3.763   3.423   5.251 -0.2073 -0.0437  0.0117
 8774TIP3    H126286   3.854   3.434   5.224  0.5392  0.0283  2.2993
 8774TIP3    H226287   3.728   3.512   5.255  0.2799  0.1200  1.0724
 8775TIP3   OH226288   1.394   1.407   1.292  0.4345  0.3907 -0.5943
 8775TIP3    H126289   1.487   1.429   1.282  0.5283  0.1591 -0.2391
 8775TIP3    H226290   1.379   1.411   1.386 -0.0818  1.0883 -0.7004
 8776TIP3   OH226291   0.084   1.535   2.968  0.5436  0.2290  0.8540
 8776TIP3    H126292   0.111   1.468   2.905 -1.6165  1.3582 -1.4286
 8776TIP3    H226293   0.016   1.492   3.020 -0.5702  0.4548 -0.3553
 8777TIP3   OH226294   2.071   4.314   3.347 -0.8864 -0.0045 -0.0306
 8777TIP3    H126295   2.038   4.225   3.357  0.6652 -0.8978 -2.1142
 8777TIP3    H226296   2.142   4.320   3.411  0.2798 -0.9942 -1.1810
 8778TIP3   OH226297   1.742   2.649   1.184  0.3922 -0.5268  0.3269
 8778TIP3    H126298   1.652   2.668   1.211  0.0555 -0.4711 -0.7907
 8778TIP3    H226299   1.785   2.618   1.264 -0.6852 -0.7945  0.8208
 8779TIP3   OH226300   0.226   2.163   1.017 -0.1928  0.1746 -0.0870
 8779TIP3    H126301   0.177   2.196   0.941 -1.5926  0.8459  1.0582
 8779TIP3    H226302   0.221   2.068   1.008 -0.7220  0.2397 -0.6173
 8780TIP3   OH226303   2.691   4.459   3.418 -0.1272 -0.2074 -0.1146
 8780TIP3    H126304   2.614   4.509   3.443  0.3297  0.0035  0.8937
 8780TIP3    H226305   2.707   4.400   3.492  0.4768 -0.4947 -0.4657
 8781TIP3   OH226306   4.090   6.665   1.249  0.2901  0.0184  0.4737
 8781TIP3    H126307   4.153   6.662   1.177 -1.1307 -1.5611 -0.7777
 8781TIP3    H226308   4.131   6.613   1.319  1.2338  0.6987  0.4326
 8782TIP3   OH226309   4.506   1.565   4.157  0.0678 -0.3789  0.2518
 8782TIP3    H126310   4.465   1.479   4.148  0.4790 -0.7449  1.5787
 8782TIP3    H226311   4.490   1.590   4.248 -1.7429  1.8665 -0.5901
 8783TIP3   OH226312   6.933   1.349   5.417 -0.3959  0.1961  0.2280
 8783TIP3    H126313   6.857   1.408   5.427 -2.0675 -1.6875 -0.6681
 8783TIP3    H226314   6.951   1.319   5.506  0.3194  1.8165  0.6631
 8784TIP3   OH226315   5.766   3.878   2.595 -0.4017  0.2338 -0.2580
 8784TIP3    H126316   5.674   3.903   2.586 -1.0388 -2.2159 -1.5122
 8784TIP3    H226317   5.769   3.824   2.674 -0.0816  0.0903 -0.3653
 8785TIP3   OH226318   4.580   3.214   3.640  0.1650  0.5451 -0.3253
 8785TIP3    H126319   4.655   3.230   3.583  0.6733 -2.0634 -0.5214
 8785TIP3    H226320   4.508   3.262   3.600  0.5371 -1.0778 -3.1680
 8786TIP3   OH226321   0.567   0.175   4.408 -0.4276 -0.2226 -0.3444
 8786TIP3    H126322   0.523   0.109   4.463  0.8260  0.4103  1.5130
 8786TIP3    H226323   0.506   0.189   4.335 -2.0518 -1.3246  0.7154
 8787TIP3   OH226324   2.888   4.580   0.802 -0.2185 -0.1438  0.1542
 8787TIP3    H126325   2.843   4.663   0.817 -1.0959 -0.5900  0.0560
 8787TIP3    H226326   2.980   4.599   0.820 -0.4570  0.7601  0.4721
 8788TIP3   OH226327   1.238   5.173   0.364  0.2821 -0.6477  0.1272
 8788TIP3    H126328   1.243   5.205   0.453  0.3340  0.0740 -0.1321
 8788TIP3    H226329   1.320   5.127   0.350  1.0768  0.8140 -0.1485
 8789TIP3   OH226330   6.323   6.586   5.389 -0.6196  0.1175 -0.0488
 8789TIP3    H126331   6.357   6.660   5.340 -1.0941 -0.4348 -1.2455
 8789TIP3    H226332   6.245   6.558   5.340  0.7647 -2.5355 -0.9227
 8790TIP3   OH226333   5.101   5.610   3.781  0.3737 -0.4588 -0.0911
 8790TIP3    H126334   5.056   5.683   3.824  0.4269 -1.7145  2.2476
 8790TIP3    H226335   5.192   5.640   3.771  0.3595 -0.1444  0.6961
 8791TIP3   OH226336   6.897   1.884   0.995 -0.0289 -0.4087 -0.1409
 8791TIP3    H126337   6.818   1.830   1.000  0.1911 -0.7204  0.0322
 8791TIP3    H226338   6.865   1.973   0.978 -0.4049 -0.5610 -0.2348
 8792TIP3   OH226339   4.528   1.170   0.656 -0.3996 -0.2374  0.2355
 8792TIP3    H126340   4.483   1.183   0.573  0.9737 -1.6955 -0.8036
 8792TIP3    H226341   4.497   1.084   0.686  0.9141 -0.8359 -0.0359
 8793TIP3   OH226342   2.393   6.715   0.002  0.1806  0.0836  0.0474
 8793TIP3    H126343   2.310   6.699   0.047  0.3631 -3.0492 -0.4848
 8793TIP3    H226344   2.454   6.735   0.073 -0.4928 -0.2041  0.7287
 8794TIP3   OH226345   2.362   3.294   1.719  0.4577 -0.0227  0.1321
 8794TIP3    H126346   2.291   3.356   1.735  0.2265 -0.5936  1.3983
 8794TIP3    H226347   2.425   3.312   1.788 -0.3131 -2.2004  1.4883
 8795TIP3   OH226348   3.099   5.501   0.404  0.5510 -0.1985  0.5454
 8795TIP3    H126349   3.132   5.470   0.488 -0.2349 -0.8735  0.6168
 8795TIP3    H226350   3.117   5.429   0.343  3.4810  1.2628 -0.4955
 8796TIP3   OH226351   6.663   0.005   0.630 -0.5453  0.4160 -0.2204
 8796TIP3    H126352   6.656  -0.050   0.708 -1.6092  1.4794  0.4792
 8796TIP3    H226353   6.638   0.092   0.660  1.5020  1.3956 -1.2078
 8797TIP3   OH226354   3.445   2.022   4.604 -0.0753 -0.3293 -0.0593
 8797TIP3    H126355   3.523   2.015   4.549  0.4423 -1.6981  0.7642
 8797TIP3    H226356   3.407   2.107   4.583 -0.8884 -1.4616 -3.7683
 8798TIP3   OH226357   0.720   6.138   3.975  0.1937 -0.2317 -0.1715
 8798TIP3    H126358   0.775   6.184   3.911  0.2364 -1.5478 -1.1379
 8798TIP3    H226359   0.712   6.199   4.048  2.5615  0.2079 -0.1703
 8799TIP3   OH226360   6.560   2.155   0.693  0.0108  0.2524 -0.0533
 8799TIP3    H126361   6.531   2.109   0.773 -1.4479 -0.8376 -1.1379
 8799TIP3    H226362   6.551   2.089   0.624 -1.4687  1.9517 -1.5736
 8800TIP3   OH226363   3.535   3.287   5.756  0.5420 -0.5352  0.3747
 8800TIP3    H126364   3.563   3.224   5.689  1.9977 -0.1757  0.5980
 8800TIP3    H226365   3.441   3.274   5.764  0.3275 -0.6083 -1.7135
 8801TIP3   OH226366   4.305   4.892   1.533  0.0605  0.0950 -0.5794
 8801TIP3    H126367   4.367   4.960   1.559  0.6331 -0.8236  0.5572
 8801TIP3    H226368   4.219   4.934   1.542  0.4260  0.8557 -0.5116
 8802TIP3   OH226369   5.576   0.785   4.492 -0.1624 -0.8965  0.0811
 8802TIP3    H126370   5.524   0.819   4.565  1.4913 -0.5864  1.1635
 8802TIP3    H226371   5.543   0.833   4.416 -2.2648 -1.5779  0.4683
 8803TIP3   OH226372   6.753   0.577   0.929 -0.3726  0.0648 -0.1422
 8803TIP3    H126373   6.813   0.643   0.894 -0.7317  0.8992  0.7885
 8803TIP3    H226374   6.666   0.616   0.919 -0.8773 -1.3931 -2.0742
 8804TIP3   OH226375   3.743   4.302   0.822  0.4453  0.1695 -0.0672
 8804TIP3    H126376   3.704   4.313   0.909  1.3020 -0.9359  0.4845
 8804TIP3    H226377   3.723   4.383   0.776 -2.1679 -0.1849  0.3023
 8805TIP3   OH226378   4.391   4.676   4.157 -0.2080  0.1702 -0.2944
 8805TIP3    H126379   4.445   4.698   4.233 -0.9298 -0.2410  0.3583
 8805TIP3    H226380   4.351   4.592   4.179  0.5329 -0.5834 -1.6719
 8806TIP3   OH226381   2.501   5.234   5.054 -0.5117  0.9871  0.1284
 8806TIP3    H126382   2.462   5.147   5.039  1.0954 -0.0574  1.5828
 8806TIP3    H226383   2.516   5.237   5.149  0.3781  2.4675 -0.0296
 8807TIP3   OH226384   1.824   0.364   0.291 -0.7928  0.4063 -1.2114
 8807TIP3    H126385   1.730   0.350   0.280 -1.1037 -0.0038  1.2999
 8807TIP3    H226386   1.862   0.277   0.280 -0.5846  0.6828 -2.9027
 8808TIP3   OH226387   3.145   1.588   0.775  0.0186 -1.3296  0.4077
 8808TIP3    H126388   3.211   1.652   0.748 -0.0591 -0.3165  2.4344
 8808TIP3    H226389   3.064   1.618   0.733 -0.0392  0.0315  1.3926
 8809TIP3   OH226390   5.199   6.437   1.877  0.4558  0.3537  0.5330
 8809TIP3    H126391   5.105   6.435   1.898  0.4729  1.6399  0.8256
 8809TIP3    H226392   5.202   6.447   1.782  0.3378 -1.3667  0.3131
 8810TIP3   OH226393   4.253   1.648   2.085  0.1991 -0.1302 -0.0066
 8810TIP3    H126394   4.297   1.628   2.168 -0.2549  0.4531  0.3876
 8810TIP3    H226395   4.258   1.567   2.035  1.3092 -0.2124  0.2104
 8811TIP3   OH226396   1.986   1.629   2.127 -0.3068  0.1792 -0.1425
 8811TIP3    H126397   1.896   1.598   2.114 -0.2143 -0.2929  0.3418
 8811TIP3    H226398   2.023   1.634   2.039 -0.8381  0.4671 -0.3524
 8812TIP3   OH226399   0.405   3.088   1.618 -0.0287  0.2742 -0.3037
 8812TIP3    H126400   0.410   3.134   1.702 -0.7389 -0.0346 -0.0836
 8812TIP3    H226401   0.352   3.010   1.637  0.4458 -0.1905 -0.8674
 8813TIP3   OH226402   5.033   6.039   1.286  0.3983  0.5142 -0.5204
 8813TIP3    H126403   5.034   6.135   1.280  2.9265  0.4940 -1.4364
 8813TIP3    H226404   4.999   6.021   1.374  1.6737  2.3300  0.4060
 8814TIP3   OH226405   0.246   0.618   3.252  0.3661 -0.2147 -0.0896
 8814TIP3    H126406   0.299   0.572   3.186  1.4943 -1.2889  1.4884
 8814TIP3    H226407   0.160   0.577   3.247  0.7122 -0.9305 -0.2571
 8815TIP3   OH226408   3.620   3.169   1.630  0.3356  0.0553 -0.3855
 8815TIP3    H126409   3.597   3.186   1.721  0.9259 -0.4499 -0.1331
 8815TIP3    H226410   3.618   3.254   1.588 -0.3893  0.2341 -0.0034
 8816TIP3   OH226411   4.072   6.391   1.918  0.1376  0.1130 -0.0056
 8816TIP3    H126412   4.046   6.402   2.010  0.8570  0.0184  0.2159
 8816TIP3    H226413   4.044   6.302   1.896 -1.1117  0.5448 -0.2533
 8817TIP3   OH226414   0.669   1.150   2.437 -0.0627  0.4387  0.4219
 8817TIP3    H126415   0.702   1.063   2.416 -1.2056 -0.1866  1.1194
 8817TIP3    H226416   0.593   1.162   2.379  1.7814  2.2479 -1.8572
 8818TIP3   OH226417   1.089   6.344   2.013  0.0567 -0.2539  0.0186
 8818TIP3    H126418   0.999   6.314   2.023 -0.0986  0.7722  2.2699
 8818TIP3    H226419   1.082   6.421   1.957 -0.4702 -0.1940  0.1580
 8819TIP3   OH226420   6.492   4.301   4.605 -0.5546  0.2738 -0.1154
 8819TIP3    H126421   6.451   4.218   4.579 -0.9023  0.2784  0.4099
 8819TIP3    H226422   6.570   4.275   4.654  0.0152  0.2659 -0.9948
 8820TIP3   OH226423   3.954   5.893   4.835  0.1008 -0.2114  0.9242
 8820TIP3    H126424   3.899   5.840   4.893  0.8429 -2.3070 -0.1761
 8820TIP3    H226425   4.038   5.847   4.833  0.2354  0.0164 -1.4275
 8821TIP3   OH226426   2.604   0.270   5.505  0.2388  0.1206 -0.0573
 8821TIP3    H126427   2.627   0.223   5.425 -0.8469 -0.0629 -0.2762
 8821TIP3    H226428   2.511   0.252   5.517 -0.0083  1.5527  0.2996
 8822TIP3   OH226429   4.050   4.690   1.743  0.3639  0.2100 -0.0555
 8822TIP3    H126430   4.064   4.676   1.650  0.0886 -1.9045  0.1829
 8822TIP3    H226431   3.986   4.761   1.747  2.4261  2.2856 -1.3545
 8823TIP3   OH226432   1.247   0.134   3.561 -0.1782  0.4526 -0.2221
 8823TIP3    H126433   1.227   0.183   3.641  2.0360 -0.2381  0.8162
 8823TIP3    H226434   1.243   0.200   3.491  1.0155  1.7804  0.9005
 8824TIP3   OH226435   0.316   3.867   2.374 -0.0926 -0.4455 -0.0742
 8824TIP3    H126436   0.264   3.822   2.441  0.0120  0.1366  0.4092
 8824TIP3    H226437   0.283   3.956   2.374  0.8372 -0.0821  0.1894
 8825TIP3   OH226438   4.206   3.463   1.291 -0.4870 -0.1270 -0.1208
 8825TIP3    H126439   4.168   3.381   1.261 -0.5556  0.1599 -0.8253
 8825TIP3    H226440   4.209   3.454   1.386 -0.4981 -0.9426 -0.1884
 8826TIP3   OH226441   3.923   1.055   2.505 -0.3034  0.1235  0.4956
 8826TIP3    H126442   3.935   1.141   2.545 -1.5239  1.1684 -1.2419
 8826TIP3    H226443   3.828   1.047   2.494 -0.0615 -0.2228 -1.8074
 8827TIP3   OH226444   0.155   4.315   3.927 -0.2180  0.8005 -0.2731
 8827TIP3    H126445   0.236   4.291   3.882 -1.3495 -0.7113 -1.6271
 8827TIP3    H226446   0.139   4.406   3.901  1.8242  1.6922  1.3216
 8828TIP3   OH226447   2.225   4.874   1.237 -0.1130 -0.0296  0.0217
 8828TIP3    H126448   2.144   4.923   1.225  0.2073  1.2807  2.5722
 8828TIP3    H226449   2.295   4.935   1.213  0.2492 -1.3503 -2.8040
 8829TIP3   OH226450   5.591   6.797   0.934  0.6842 -0.3525  0.3181
 8829TIP3    H126451   5.646   6.834   0.865 -0.7468 -1.7600 -1.6874
 8829TIP3    H226452   5.629   6.711   0.952  1.0533  0.0040  1.3477
 8830TIP3   OH226453   4.647   4.040   4.935 -0.7455  0.1472 -0.5515
 8830TIP3    H126454   4.626   4.095   4.860 -1.8857 -1.0584 -1.1729
 8830TIP3    H226455   4.742   4.045   4.943 -0.4572 -0.5080 -2.7713
 8831TIP3   OH226456   5.171   5.172   3.345  0.5328 -0.1988 -0.4785
 8831TIP3    H126457   5.146   5.080   3.348 -0.3834  0.0555  0.0847
 8831TIP3    H226458   5.166   5.201   3.436 -0.6306  0.7696 -0.8269
 8832TIP3   OH226459   0.877   5.390   5.335 -0.0449  0.2381 -0.1024
 8832TIP3    H126460   0.888   5.374   5.241 -0.2900 -0.2023 -0.0612
 8832TIP3    H226461   0.843   5.307   5.369 -0.6604  0.6271  0.2478
 8833TIP3   OH226462   3.538   2.508   4.851  1.0207  0.0634  0.1468
 8833TIP3    H126463   3.621   2.545   4.882  0.9870 -0.9165  1.5158
 8833TIP3    H226464   3.501   2.464   4.928 -0.2159 -0.5076 -0.7307
 8834TIP3   OH226465   3.003   0.153   2.049  0.0536 -0.4694 -0.5207
 8834TIP3    H126466   3.065   0.152   2.122 -0.6284 -0.3885  0.0679
 8834TIP3    H226467   2.983   0.246   2.036  0.4900 -0.4495 -1.0917
 8835TIP3   OH226468   3.984   3.102   0.151  0.4781  0.0002 -0.7530
 8835TIP3    H126469   3.932   3.025   0.129  1.3784 -1.0075  0.5169
 8835TIP3    H226470   4.038   3.117   0.073 -2.3068  1.7206 -2.5665
 8836TIP3   OH226471   3.384   1.284   2.171  0.1303  0.1741  0.0886
 8836TIP3    H126472   3.477   1.307   2.163 -0.2094  1.5061 -0.2612
 8836TIP3    H226473   3.338   1.352   2.122 -1.0361 -0.5519  0.1323
 8837TIP3   OH226474   2.968   0.545   5.331 -0.0321  0.7259 -0.0325
 8837TIP3    H126475   3.038   0.610   5.336 -1.7835  2.8153 -0.9250
 8837TIP3    H226476   2.990   0.493   5.253  1.5921 -0.1187  0.9153
 8838TIP3   OH226477   4.254   5.590   3.527 -0.1649  0.7952  0.4083
 8838TIP3    H126478   4.259   5.516   3.467 -0.2531  2.3654 -1.6417
 8838TIP3    H226479   4.215   5.554   3.607 -1.2942 -1.1056 -0.9290
 8839TIP3   OH226480   4.007   6.670   0.848 -0.0553  0.2004  0.2110
 8839TIP3    H126481   4.075   6.700   0.908 -0.8809 -0.5378  1.5685
 8839TIP3    H226482   3.931   6.725   0.868 -0.8781 -1.2078  1.1241
 8840TIP3   OH226483   7.006   0.603   3.800  0.1504 -0.0226 -0.2973
 8840TIP3    H126484   6.991   0.574   3.890 -1.1395 -1.5690 -0.9514
 8840TIP3    H226485   6.925   0.648   3.775  1.1182  1.8846 -0.1963
 8841TIP3   OH226486   5.735   0.733   3.178 -0.0630  0.6181  0.5992
 8841TIP3    H126487   5.653   0.686   3.164  1.2493 -2.0788  1.3225
 8841TIP3    H226488   5.717   0.791   3.252 -1.0847 -0.6575  1.3955
 8842TIP3   OH226489   4.835   1.306   3.552 -0.3320  1.0765 -0.3191
 8842TIP3    H126490   4.743   1.303   3.580 -0.2324  1.4940  0.0617
 8842TIP3    H226491   4.843   1.389   3.507 -0.6982  0.0586 -2.3879
 8843TIP3   OH226492   4.793  -0.031   3.496 -0.5430 -0.2541 -0.5268
 8843TIP3    H126493   4.727   0.036   3.514 -0.6129 -0.0351 -1.5361
 8843TIP3    H226494   4.873   0.019   3.477 -0.2025 -0.5055  0.2089
 8844TIP3   OH226495   3.349   5.109   0.211 -0.0493 -0.1712 -0.6192
 8844TIP3    H126496   3.368   5.073   0.298  1.0743  0.6951 -0.4864
 8844TIP3    H226497   3.434   5.139   0.179 -0.3730 -0.8166 -2.1882
 8845TIP3   OH226498   7.042   0.286   3.224  0.1747  0.0831 -0.0922
 8845TIP3    H126499   7.060   0.245   3.139 -0.5544  0.1946 -0.3037
 8845TIP3    H226500   6.953   0.260   3.245  0.6654 -0.7373  1.1046
 8846TIP3   OH226501   2.044   0.731   3.074  0.1755  0.5296  0.7303
 8846TIP3    H126502   2.021   0.768   3.160 -3.6060  1.3718 -0.4657
 8846TIP3    H226503   2.104   0.795   3.036  1.2408  0.5612  2.3471
 8847TIP3   OH226504   4.422   2.247   1.413  0.2541 -0.7386 -0.1824
 8847TIP3    H126505   4.483   2.239   1.486  0.2351 -0.5482 -0.1443
 8847TIP3    H226506   4.431   2.165   1.365  1.2162 -0.3504 -0.7010
 8848TIP3   OH226507   2.553   3.006   0.802  0.0053 -0.2350  0.3243
 8848TIP3    H126508   2.601   3.056   0.868 -0.1675 -0.5261  0.6750
 8848TIP3    H226509   2.461   3.015   0.828 -0.0088 -0.9180  0.5220
 8849TIP3   OH226510   3.906   4.491   1.102 -0.3344 -0.1217 -0.2706
 8849TIP3    H126511   3.847   4.543   1.046  0.7064 -0.2611 -1.5622
 8849TIP3    H226512   3.849   4.428   1.144 -1.1399 -0.2516 -1.4892
 8850TIP3   OH226513   2.036   0.553   1.873  0.0845 -0.2204 -0.1080
 8850TIP3    H126514   2.072   0.626   1.822 -1.3550  0.0807 -0.7755
 8850TIP3    H226515   2.059   0.475   1.822  0.3360 -0.0887 -0.1969
 8851TIP3   OH226516   1.269   2.731   3.372 -0.7125  0.0934  0.2367
 8851TIP3    H126517   1.267   2.827   3.374 -0.7138  0.1065 -0.3103
 8851TIP3    H226518   1.338   2.710   3.309 -0.5800 -0.2689  0.4985
 8852TIP3   OH226519   0.591   5.726   4.793 -0.2053 -0.3422 -0.2349
 8852TIP3    H126520   0.561   5.701   4.881 -0.6714 -4.3184 -1.2864
 8852TIP3    H226521   0.511   5.755   4.748 -0.2426  0.2587  0.2068
 8853TIP3   OH226522   3.981   0.433   1.827 -0.2889  0.3257  0.2982
 8853TIP3    H126523   3.933   0.354   1.853 -0.6900  0.6499  0.5758
 8853TIP3    H226524   3.946   0.456   1.741  0.8500 -0.5986 -0.4356
 8854TIP3   OH226525   5.387   0.651   1.343 -0.0551 -0.1445  0.1572
 8854TIP3    H126526   5.368   0.657   1.249 -0.8416  0.8001  0.3579
 8854TIP3    H226527   5.464   0.593   1.349 -0.4708 -0.8446 -0.9997
 8855TIP3   OH226528   5.738   2.357   4.611  0.5674  0.2534  0.6859
 8855TIP3    H126529   5.679   2.349   4.536 -0.6001  0.5702  1.5465
 8855TIP3    H226530   5.822   2.382   4.573 -0.4883  2.4504 -0.3899
 8856TIP3   OH226531   1.676   4.424   0.115 -0.4366 -0.4122 -0.3978
 8856TIP3    H126532   1.640   4.512   0.121 -0.8773 -0.5211 -1.3706
 8856TIP3    H226533   1.600   4.367   0.107 -0.2151 -1.0018  1.2671
 8857TIP3   OH226534   5.739   4.959   3.978 -0.7500 -0.1197 -0.5020
 8857TIP3    H126535   5.658   5.010   3.988 -0.2376  0.6123  0.0781
 8857TIP3    H226536   5.719   4.874   4.018 -0.9332  0.3990  0.5501
 8858TIP3   OH226537   5.416   1.880   2.571  0.2052  0.3520  0.9750
 8858TIP3    H126538   5.467   1.811   2.526  2.7183  1.1477  2.3954
 8858TIP3    H226539   5.328   1.843   2.578  0.3790 -0.9753 -1.9693
 8859TIP3   OH226540   6.012   4.110   3.883 -0.1618 -0.3518  0.1789
 8859TIP3    H126541   6.033   4.028   3.928 -0.2271 -0.3719  0.1720
 8859TIP3    H226542   6.098   4.145   3.857 -0.0495  0.1653  1.1930
 8860TIP3   OH226543   1.432   0.413   0.564 -0.6699  0.3309  0.0022
 8860TIP3    H126544   1.340   0.425   0.586 -0.4891  1.9567 -0.0247
 8860TIP3    H226545   1.472   0.499   0.577  1.0789 -0.5655  1.0548
 8861TIP3   OH226546   4.117   2.171   0.723 -0.7978  0.1035  0.1749
 8861TIP3    H126547   4.169   2.142   0.798  0.0601 -0.1328 -0.4960
 8861TIP3    H226548   4.179   2.214   0.665 -1.4610  0.3350 -0.3846
 8862TIP3   OH226549   2.208   4.260   0.198 -0.0810 -0.2992  0.1611
 8862TIP3    H126550   2.266   4.322   0.241 -2.2795  1.5478  0.6788
 8862TIP3    H226551   2.137   4.314   0.162 -0.4035 -2.1682 -2.3684
 8863TIP3   OH226552   1.549   0.680   2.557  0.1954 -0.2166 -0.4847
 8863TIP3    H126553   1.522   0.593   2.587  2.4327 -0.5271  0.8993
 8863TIP3    H226554   1.469   0.733   2.560 -0.9737 -1.9264 -0.2154
 8864TIP3   OH226555   6.511   1.293   2.019 -0.4925 -0.5259 -0.2471
 8864TIP3    H126556   6.477   1.204   2.005 -1.8665  0.1203 -1.3090
 8864TIP3    H226557   6.606   1.284   2.012 -0.5945 -1.9220 -0.2152
 8865TIP3   OH226558   6.468   5.449   3.587  0.1139 -0.7734 -0.2991
 8865TIP3    H126559   6.466   5.522   3.524  2.0235 -0.7798 -0.4166
 8865TIP3    H226560   6.553   5.408   3.573  0.8680 -0.4490  2.6635
 8866TIP3   OH226561   6.082   1.156   0.732  0.0672 -0.5188 -0.2821
 8866TIP3    H126562   6.131   1.076   0.752  1.7511  1.0312  2.5714
 8866TIP3    H226563   6.146   1.213   0.688  0.4010  0.8044  1.7413
 8867TIP3   OH226564   3.646   1.674   4.756 -0.0941  0.1180 -0.3229
 8867TIP3    H126565   3.559   1.662   4.796 -0.5922  2.6606 -0.4810
 8867TIP3    H226566   3.690   1.735   4.814  0.5764  0.9526 -1.6693
 8868TIP3   OH226567   0.568   2.301   4.030  0.0299 -0.2205  0.0858
 8868TIP3    H126568   0.608   2.378   4.071  1.5566 -1.7753  1.6710
 8868TIP3    H226569   0.590   2.229   4.088 -1.4054 -1.8809 -1.3265
 8869TIP3   OH226570   5.093   1.901   4.299  0.3167 -0.6638 -0.0358
 8869TIP3    H126571   5.175   1.939   4.331  0.2650 -0.1572 -0.4882
 8869TIP3    H226572   5.090   1.814   4.339  1.9288 -1.3869 -1.3592
 8870TIP3   OH226573   1.934   3.751   1.481 -0.6962  0.0116  0.8706
 8870TIP3    H126574   1.922   3.817   1.412  1.0736  0.7602  1.2280
 8870TIP3    H226575   1.945   3.668   1.433  1.1224  0.6134  0.1557
 8871TIP3   OH226576   3.437   4.451   1.868 -0.0909  0.2065  0.0532
 8871TIP3    H126577   3.515   4.484   1.825 -0.5527  2.2554  0.6876
 8871TIP3    H226578   3.464   4.367   1.907  1.7461  0.8199  0.1630
 8872TIP3   OH226579   2.877   3.029   2.644  0.0783 -0.1049 -0.4162
 8872TIP3    H126580   2.785   3.007   2.659 -0.2461  2.6134  2.6049
 8872TIP3    H226581   2.876   3.089   2.569 -0.5529 -0.3255 -0.5925
 8873TIP3   OH226582   5.957   2.951   2.354 -0.3961 -0.7396  0.0553
 8873TIP3    H126583   5.970   2.957   2.449  1.1743 -0.1842 -0.1652
 8873TIP3    H226584   5.942   3.041   2.326 -0.2473 -0.8219 -0.2996
 8874TIP3   OH226585   0.431   4.037   2.692  0.3602 -0.6188  0.2156
 8874TIP3    H126586   0.431   4.128   2.661  0.2677 -0.1768  1.4501
 8874TIP3    H226587   0.508   3.998   2.651 -0.0103 -0.2010 -0.9164
 8875TIP3   OH226588   2.106   4.823   0.697 -0.0523 -0.3181 -0.3263
 8875TIP3    H126589   2.084   4.831   0.789  3.3869 -0.5058  0.6495
 8875TIP3    H226590   2.109   4.913   0.664  1.3960 -0.0348  0.5210
 8876TIP3   OH226591   4.132   0.923   5.874 -0.2385  0.2009  0.0985
 8876TIP3    H126592   4.136   0.856   5.943  1.6639  0.5511  0.4085
 8876TIP3    H226593   4.098   0.877   5.798  0.0562 -0.8807  0.5920
 8877TIP3   OH226594   5.779   2.125   4.822  0.1486  0.1690  0.6301
 8877TIP3    H126595   5.772   2.194   4.756  0.4720 -2.6902 -2.6906
 8877TIP3    H226596   5.867   2.136   4.858  0.3751  1.2054 -0.1855
 8878TIP3   OH226597   2.452   4.913   5.597 -0.1970  0.1365 -0.1366
 8878TIP3    H126598   2.372   4.861   5.590 -0.2545 -0.0061  1.2287
 8878TIP3    H226599   2.472   4.939   5.508 -2.8092  1.7475 -0.3462
 8879TIP3   OH226600   2.495   6.675   1.471  0.2144 -0.0733 -0.2043
 8879TIP3    H126601   2.536   6.757   1.441  0.9866  0.0282  1.0455
 8879TIP3    H226602   2.434   6.652   1.402 -1.1043  2.3403  0.0264
 8880TIP3   OH226603   6.012   2.243   2.630 -0.0656  0.0662 -0.0051
 8880TIP3    H126604   5.964   2.196   2.698  0.1027  0.4422  0.3847
 8880TIP3    H226605   5.945   2.291   2.582 -0.4915 -2.0276 -1.6547
 8881TIP3   OH226606   6.889   0.660   2.010 -0.2215 -0.8299  0.5023
 8881TIP3    H126607   6.819   0.708   1.966  1.7967  2.5997  0.7181
 8881TIP3    H226608   6.898   0.702   2.095  1.6980 -1.5465  0.7190
 8882TIP3   OH226609   1.200   5.154   2.260  0.0260  0.0574  0.0813
 8882TIP3    H126610   1.174   5.192   2.344  0.7506 -0.2417  0.4536
 8882TIP3    H226611   1.221   5.229   2.205  1.2274  0.2202  0.7348
 8883TIP3   OH226612   2.220   6.719   2.258  0.7489 -0.2413 -0.1214
 8883TIP3    H126613   2.143   6.662   2.266 -0.6754  1.7208  1.3829
 8883TIP3    H226614   2.292   6.660   2.236 -0.9512 -2.3369 -0.4270
 8884TIP3   OH226615   3.494   0.157   2.844  0.1659 -0.3577 -0.1789
 8884TIP3    H126616   3.436   0.104   2.788 -1.5638  0.2776  0.9328
 8884TIP3    H226617   3.447   0.164   2.927  2.5347 -1.0004  1.2784
 8885TIP3   OH226618   6.027   5.834   5.418 -0.4949  0.3949  0.3874
 8885TIP3    H126619   6.063   5.843   5.330  2.2478 -0.2516  1.3416
 8885TIP3    H226620   6.033   5.740   5.437 -0.8665  0.5486  1.3300
 8886TIP3   OH226621   2.630   1.343   1.663  0.3113 -0.3349 -0.3630
 8886TIP3    H126622   2.650   1.271   1.724 -0.5805 -0.6948 -0.4923
 8886TIP3    H226623   2.627   1.420   1.719  1.8855 -0.2716 -0.3045
 8887TIP3   OH226624   4.125   6.164   2.265 -0.0870  0.0148  0.3828
 8887TIP3    H126625   4.174   6.204   2.336 -1.9779  1.3858  0.9760
 8887TIP3    H226626   4.102   6.236   2.207  0.7209 -0.9631 -1.2405
 8888TIP3   OH226627   6.707   6.628   0.803 -0.3585 -0.5887  0.4442
 8888TIP3    H126628   6.764   6.667   0.737 -1.3111 -2.3270 -1.5239
 8888TIP3    H226629   6.619   6.651   0.775 -0.7621 -0.6284  1.6338
 8889TIP3   OH226630   0.310   2.818   4.286 -0.3065  0.4447 -0.6197
 8889TIP3    H126631   0.395   2.779   4.306 -0.7772 -1.2978 -1.7863
 8889TIP3    H226632   0.332   2.896   4.234  0.5938 -0.3789 -1.5312
 8890TIP3   OH226633   3.131   6.678   0.948 -0.2988 -0.0299 -0.8225
 8890TIP3    H126634   3.147   6.684   0.854 -1.8250 -0.2907 -1.1155
 8890TIP3    H226635   3.102   6.766   0.973  1.2342  0.3672 -0.3470
 8891TIP3   OH226636   1.566   3.512   3.391 -0.4852  0.4228 -0.0680
 8891TIP3    H126637   1.552   3.491   3.299  1.0443 -0.2301 -0.1897
 8891TIP3    H226638   1.639   3.456   3.417 -1.2597  0.1864  1.7128
 8892TIP3   OH226639   3.750   0.080   2.885  0.2323 -0.7291 -0.3837
 8892TIP3    H126640   3.796   0.139   2.825  0.3923  2.5188  2.6055
 8892TIP3    H226641   3.659   0.108   2.882  0.1998 -0.6699  0.6858
 8893TIP3   OH226642   2.676   1.419   5.742  0.2519  0.8550  0.0013
 8893TIP3    H126643   2.622   1.466   5.805 -0.8593 -0.0683 -0.2474
 8893TIP3    H226644   2.738   1.369   5.796 -0.9043 -0.1882  0.3951
 8894TIP3   OH226645   5.990   3.750   0.814  0.1628 -0.8035 -0.2007
 8894TIP3    H126646   6.018   3.841   0.804  0.0539 -0.7647 -0.1536
 8894TIP3    H226647   5.911   3.743   0.761  0.3591 -0.9599 -0.4757
 8895TIP3   OH226648   6.862   5.765   2.654 -0.3129 -0.0662  0.2079
 8895TIP3    H126649   6.776   5.753   2.695 -0.4725 -1.7087 -0.5242
 8895TIP3    H226650   6.924   5.761   2.726 -0.8120  0.7050  0.6931
 8896TIP3   OH226651   5.609   0.912   0.956 -0.3701 -0.0201  0.4973
 8896TIP3    H126652   5.670   0.967   1.005  0.2138  1.3066 -1.5568
 8896TIP3    H226653   5.657   0.832   0.938  0.4613  0.6375 -0.3040
 8897TIP3   OH226654   2.580   6.082   1.159  0.1988  0.5012 -0.0448
 8897TIP3    H126655   2.518   6.010   1.149 -0.2237  0.7639  0.6183
 8897TIP3    H226656   2.584   6.097   1.253 -0.1584  1.7098 -0.1969
 8898TIP3   OH226657   5.724   0.967   3.021 -0.3505  0.2569  0.3728
 8898TIP3    H126658   5.754   0.884   3.058 -0.0555 -0.4710 -1.3876
 8898TIP3    H226659   5.653   0.942   2.962 -0.0281  1.2090 -0.4452
 8899TIP3   OH226660   6.495   3.928   5.371  0.2535  0.4024 -0.0372
 8899TIP3    H126661   6.589   3.928   5.354  0.5743 -0.7923  1.4818
 8899TIP3    H226662   6.485   3.977   5.453 -0.4978  0.8239 -0.3699
 8900TIP3   OH226663   2.398   5.499   2.609 -0.3573  0.4473 -0.4041
 8900TIP3    H126664   2.400   5.532   2.519 -0.8951 -0.4717 -0.7648
 8900TIP3    H226665   2.418   5.406   2.602  1.4464  0.7004  0.6396
 8901TIP3   OH226666   6.591   3.868   1.780  0.4518  0.4402  0.4483
 8901TIP3    H126667   6.638   3.804   1.726 -0.5636 -0.3237  0.4265
 8901TIP3    H226668   6.577   3.823   1.864  0.2230  0.8506  0.6354
 8902TIP3   OH226669   4.221   2.073   3.878 -0.2609  0.0708  0.3263
 8902TIP3    H126670   4.165   2.102   3.806  3.2470  0.7882 -2.4001
 8902TIP3    H226671   4.264   2.153   3.908 -0.2454 -0.5259  1.9850
 8903TIP3   OH226672   0.824   1.351   5.067 -0.2750 -0.3702  0.8040
 8903TIP3    H126673   0.743   1.399   5.082 -0.7450 -0.6467 -0.6756
 8903TIP3    H226674   0.889   1.418   5.047 -1.3613 -0.2207 -3.2844
 8904TIP3   OH226675   3.078   2.799   4.678  0.0032  0.0193 -0.2430
 8904TIP3    H126676   3.155   2.850   4.703  0.2430  0.1985 -1.3164
 8904TIP3    H226677   3.112   2.710   4.667  0.2128  0.2305 -1.4053
 8905TIP3   OH226678   2.552   0.564   5.666 -0.0066  0.8431 -0.5791
 8905TIP3    H126679   2.640   0.557   5.627 -0.3629 -1.3369 -1.1194
 8905TIP3    H226680   2.563   0.530   5.754 -0.5735 -1.0359 -1.1822
 8906TIP3   OH226681   2.422   4.158   0.741 -0.5757 -0.0114  0.3391
 8906TIP3    H126682   2.510   4.145   0.776 -1.3656 -0.4802  2.2521
 8906TIP3    H226683   2.397   4.246   0.768 -1.9791 -1.1043  2.9182
 8907TIP3   OH226684   4.208   5.177   2.335 -0.2556  0.1054 -0.3452
 8907TIP3    H126685   4.116   5.172   2.362  0.1147 -3.2281  0.8571
 8907TIP3    H226686   4.226   5.090   2.299  2.2918  0.8839 -1.1098
 8908TIP3   OH226687   5.558   2.118   3.555  0.1443  0.2141 -0.7026
 8908TIP3    H126688   5.609   2.126   3.474 -1.1528  0.6118 -1.4903
 8908TIP3    H226689   5.575   2.200   3.602  1.6247 -0.3860 -0.1010
 8909TIP3   OH226690   2.478   5.860   3.755 -0.6962  0.3077 -0.8011
 8909TIP3    H126691   2.481   5.945   3.712  1.3000  0.7777  0.1688
 8909TIP3    H226692   2.425   5.875   3.834  1.9990  1.4833  0.9076
 8910TIP3   OH226693   4.214   0.893   2.047 -0.3815 -0.4164  0.1794
 8910TIP3    H126694   4.251   0.908   2.135 -0.2490  1.3587 -0.1422
 8910TIP3    H226695   4.123   0.922   2.055 -0.6222 -1.1022 -0.0488
 8911TIP3   OH226696   5.558   2.697   5.812 -0.3302  0.3140  0.1762
 8911TIP3    H126697   5.646   2.668   5.789  0.2272  1.4501  0.7881
 8911TIP3    H226698   5.571   2.763   5.880 -1.7286 -0.4976  1.3157
 8912TIP3   OH226699   6.431   1.806   5.702 -0.0202  0.0200  0.0554
 8912TIP3    H126700   6.527   1.801   5.698 -0.1219 -2.7938 -0.7666
 8912TIP3    H226701   6.411   1.896   5.678  2.4132  0.7592  0.4923
 8913TIP3   OH226702   6.780   3.501   1.821  0.0670  0.2241  0.1777
 8913TIP3    H126703   6.835   3.567   1.861 -1.3384 -0.0264  2.7846
 8913TIP3    H226704   6.820   3.417   1.847  0.8713  0.0077 -1.6446
 8914TIP3   OH226705   1.016   6.469   1.389 -0.0912  0.8217  0.5434
 8914TIP3    H126706   1.038   6.559   1.363  1.3409  1.1043  2.5026
 8914TIP3    H226707   1.066   6.414   1.329 -1.6559  1.2486 -1.2531
 8915TIP3   OH226708   0.154   5.738   1.874  0.3282  0.1141 -0.3261
 8915TIP3    H126709   0.171   5.723   1.781  0.5849 -0.6745 -0.1617
 8915TIP3    H226710   0.073   5.789   1.876  0.4375  0.3182 -0.9860
 8916TIP3   OH226711   3.063   6.054   2.358  0.0789  0.2683  0.5310
 8916TIP3    H126712   3.056   6.132   2.412  0.2205  1.3433 -0.9548
 8916TIP3    H226713   3.158   6.042   2.345  0.0266  0.3715  0.0312
 8917TIP3   OH226714   4.998   1.609   4.923  0.2677 -0.2677 -0.2284
 8917TIP3    H126715   4.915   1.638   4.960  0.4168 -1.1035  0.7955
 8917TIP3    H226716   4.978   1.590   4.831 -0.2327  1.2727 -0.4786
 8918TIP3   OH226717   4.411   6.363   4.035 -0.3203  0.0855 -0.1202
 8918TIP3    H126718   4.335   6.407   3.997 -0.1225  0.9354  0.4357
 8918TIP3    H226719   4.470   6.349   3.961  0.2202  2.0519 -0.1334
 8919TIP3   OH226720   6.695   5.477   0.214 -0.4137  0.4090  0.2498
 8919TIP3    H126721   6.788   5.469   0.192 -0.6598 -0.7337 -0.4783
 8919TIP3    H226722   6.662   5.541   0.150 -0.2795  0.2345  0.0014
 8920TIP3   OH226723   5.165   0.402   1.456 -0.3801 -0.3010 -0.3063
 8920TIP3    H126724   5.173   0.310   1.481  0.6483 -0.5083 -1.3164
 8920TIP3    H226725   5.239   0.418   1.397 -0.5998  1.1479 -0.2352
 8921TIP3   OH226726   2.248   6.444   1.520  0.4676 -0.2511 -0.0067
 8921TIP3    H126727   2.342   6.434   1.538  0.5172  1.8067  1.1804
 8921TIP3    H226728   2.244   6.476   1.430  0.6434 -3.3518 -1.2550
 8922TIP3   OH226729   5.729   5.542   5.261 -0.4334 -0.1517 -0.5241
 8922TIP3    H126730   5.644   5.515   5.225 -0.5875 -0.4681  0.0644
 8922TIP3    H226731   5.791   5.478   5.226 -0.5289 -0.2659 -0.4858
 8923TIP3   OH226732   0.971   6.040   2.744 -0.1678  0.2355 -0.2560
 8923TIP3    H126733   0.920   6.079   2.815 -0.7917 -1.5710  0.3693
 8923TIP3    H226734   1.062   6.056   2.768 -0.3998  1.2356 -0.0104
 8924TIP3   OH226735   5.385   5.918   5.678  0.1219 -0.1624 -0.0327
 8924TIP3    H126736   5.365   5.874   5.760 -1.3458  1.4849  0.5548
 8924TIP3    H226737   5.480   5.912   5.670  0.0664 -2.6006  0.4246
 8925TIP3   OH226738   5.438   5.039   2.834 -0.2118 -0.1415 -0.2881
 8925TIP3    H126739   5.359   5.093   2.837 -0.3522 -0.3407 -0.3651
 8925TIP3    H226740   5.405   4.949   2.833  0.0351 -0.2744  1.0508
 8926TIP3   OH226741   1.500   1.003   0.366 -0.0047  0.0173 -0.1974
 8926TIP3    H126742   1.557   0.957   0.428  0.7908  0.0703 -0.8817
 8926TIP3    H226743   1.514   1.096   0.386 -1.2277  0.0035  0.8416
 8927TIP3   OH226744   3.405   0.128   3.405 -0.4160  0.0465 -0.9515
 8927TIP3    H126745   3.329   0.072   3.390 -1.5310  1.1790  0.2678
 8927TIP3    H226746   3.442   0.095   3.487  0.0543 -0.1124 -1.2263
 8928TIP3   OH226747   5.613   2.661   0.209 -0.4484 -0.1755 -0.1603
 8928TIP3    H126748   5.609   2.571   0.178 -0.6826 -0.7386  1.3953
 8928TIP3    H226749   5.537   2.704   0.170 -1.2125 -1.0734  0.2966
 8929TIP3   OH226750   0.496   2.284   1.861 -0.1264  0.4558  0.0103
 8929TIP3    H126751   0.438   2.214   1.832 -0.7893  1.1501 -0.3903
 8929TIP3    H226752   0.488   2.352   1.794  0.2691  1.0341  0.5289
 8930TIP3   OH226753   6.513   3.978   4.423  0.5190 -0.5251 -0.6458
 8930TIP3    H126754   6.431   4.024   4.439  1.0771  0.7661 -1.3388
 8930TIP3    H226755   6.533   3.935   4.506  0.3196  1.0707  0.2715
 8931TIP3   OH226756   7.083   2.831   1.426 -0.0489 -0.0947 -0.0317
 8931TIP3    H126757   6.994   2.796   1.424 -0.1044  0.0806 -0.7103
 8931TIP3    H226758   7.139   2.753   1.417 -0.1248 -0.2083  0.4281
 8932TIP3   OH226759   2.261   4.557   1.797  0.3605  0.2646 -0.1004
 8932TIP3    H126760   2.233   4.472   1.763 -0.0575  1.3149 -2.5673
 8932TIP3    H226761   2.191   4.583   1.857 -0.4833 -0.3063 -0.8042
 8933TIP3   OH226762   5.384   2.569   3.435  0.4268  0.7548 -0.0158
 8933TIP3    H126763   5.338   2.501   3.386  0.7954  1.0779 -0.8206
 8933TIP3    H226764   5.477   2.549   3.424  0.5150  0.0078  1.7470
 8934TIP3   OH226765   4.725   4.534   5.274 -0.1389 -0.1032  0.3936
 8934TIP3    H126766   4.751   4.590   5.201 -0.6846 -1.6249 -1.0226
 8934TIP3    H226767   4.637   4.563   5.296  0.6611  1.5516  1.7148
 8935TIP3   OH226768   5.489   2.503   2.259 -0.1949 -0.3293 -0.4271
 8935TIP3    H126769   5.456   2.537   2.176 -0.4318 -1.4370 -0.8066
 8935TIP3    H226770   5.436   2.424   2.275 -0.1898 -0.1078  0.7999
 8936TIP3   OH226771   4.131   2.690   4.037 -0.1832 -0.0659 -0.3845
 8936TIP3    H126772   4.072   2.746   4.088 -0.9972 -0.8832 -0.3950
 8936TIP3    H226773   4.175   2.750   3.977  0.8708  0.9344  1.3133
 8937TIP3   OH226774   0.606   3.024   3.234 -0.0195 -0.2683 -0.5124
 8937TIP3    H126775   0.642   2.948   3.280 -0.6137 -0.4484 -0.3309
 8937TIP3    H226776   0.632   3.099   3.288  1.7156 -0.1790 -1.3851
 8938TIP3   OH226777   1.650   5.953   5.191 -0.1570 -0.1662 -0.5103
 8938TIP3    H126778   1.733   5.971   5.147  0.4474 -1.8664 -0.1197
 8938TIP3    H226779   1.585   6.000   5.138  1.0453  1.4062 -0.6749
 8939TIP3   OH226780   3.317   4.044   3.383  0.0010  0.0920  0.1919
 8939TIP3    H126781   3.227   4.014   3.381 -0.4379  1.0834  2.5786
 8939TIP3    H226782   3.314   4.132   3.347  0.2317 -0.2327 -0.6699
 8940TIP3   OH226783   1.954   3.430   5.367  0.2603  0.0865  0.3542
 8940TIP3    H126784   1.895   3.477   5.308  1.4456 -0.1380 -1.0795
 8940TIP3    H226785   1.921   3.340   5.367  1.4823 -0.4585 -1.8205
 8941TIP3   OH226786   2.299   5.386   0.343 -0.5230 -0.1702 -0.2103
 8941TIP3    H126787   2.322   5.294   0.352  2.1998  0.4710  0.3835
 8941TIP3    H226788   2.320   5.425   0.428  1.5430  1.5173 -1.3863
 8942TIP3   OH226789   2.133   1.150   2.836  0.0466  0.2439  0.4822
 8942TIP3    H126790   2.225   1.133   2.818 -0.4561 -0.6501 -1.5612
 8942TIP3    H226791   2.128   1.246   2.844  0.8960  0.5024 -1.3808
 8943TIP3   OH226792   4.502   0.803   0.645 -0.4401 -0.2303 -0.3707
 8943TIP3    H126793   4.422   0.848   0.619 -1.6306 -2.2941 -0.4180
 8943TIP3    H226794   4.481   0.760   0.727  0.5589 -0.9323 -0.4538
 8944TIP3   OH226795   6.070   2.704   3.961  0.2068  0.1162 -0.4810
 8944TIP3    H126796   6.090   2.709   3.868  0.7994  0.1098 -0.3578
 8944TIP3    H226797   6.137   2.647   3.997  0.0947  0.2699 -0.0177
 8945TIP3   OH226798   0.987   4.235   0.160  0.1899  0.1494 -0.2748
 8945TIP3    H126799   0.968   4.290   0.236 -2.2677  0.4893 -1.0290
 8945TIP3    H226800   1.012   4.151   0.197  1.0966  0.8877  0.8877
 8946TIP3   OH226801   5.959   3.087   0.976 -0.2337  0.5008 -0.0075
 8946TIP3    H126802   6.003   3.146   1.038 -2.0203  3.7056 -1.5447
 8946TIP3    H226803   5.981   3.122   0.890 -1.0083 -1.4436 -1.0600
 8947TIP3   OH226804   0.088   2.439   2.318 -0.5231  0.0382 -0.1560
 8947TIP3    H126805   0.088   2.363   2.259  1.0858  0.5301 -0.8321
 8947TIP3    H226806   0.131   2.408   2.397 -0.4717  0.0591 -0.1759
 8948TIP3   OH226807   6.618   4.790   0.700  0.0100  0.1419  0.4176
 8948TIP3    H126808   6.652   4.757   0.617 -1.1654 -1.1257  0.3912
 8948TIP3    H226809   6.575   4.872   0.677  1.0761  0.6178  0.0727
 8949TIP3   OH226810   2.939   0.581   0.327  0.1850  0.1330  0.2978
 8949TIP3    H126811   2.927   0.565   0.421  3.2716  0.0342  0.7967
 8949TIP3    H226812   2.899   0.505   0.284 -1.3932  0.2470  1.5066
 8950TIP3   OH226813   4.862   3.644   5.588 -0.5027  0.3365  0.3278
 8950TIP3    H126814   4.876   3.677   5.499  1.7860 -1.1844  0.0301
 8950TIP3    H226815   4.869   3.721   5.644  0.6163  0.9800 -0.6322
 8951TIP3   OH226816   1.807   2.498   1.796 -0.4051 -1.1013  0.0001
 8951TIP3    H126817   1.821   2.548   1.716 -0.3849 -1.6493 -0.3426
 8951TIP3    H226818   1.719   2.461   1.786 -0.3741 -1.2308  0.1971
 8952TIP3   OH226819   0.941   6.629   2.260 -0.6122 -0.0239 -0.1341
 8952TIP3    H126820   0.863   6.573   2.256 -0.2468 -0.7859  1.8705
 8952TIP3    H226821   1.014   6.568   2.265 -0.0157  0.6672 -0.2538
 8953TIP3   OH226822   1.307   0.835   5.880 -0.2526  0.1196 -0.8750
 8953TIP3    H126823   1.351   0.842   5.795  2.2390 -1.0953  0.2089
 8953TIP3    H226824   1.215   0.823   5.858  0.1332  1.0066 -3.3543
 8954TIP3   OH226825   4.850   0.916   5.181  0.1307  0.0115  0.2741
 8954TIP3    H126826   4.849   0.937   5.088 -0.6155  2.1110  0.6889
 8954TIP3    H226827   4.920   0.971   5.217  0.0869 -0.4011  1.0226
 8955TIP3   OH226828   6.147   4.863   2.984 -0.1948 -0.3205  0.2098
 8955TIP3    H126829   6.189   4.941   3.020  1.4728 -0.8150 -0.5627
 8955TIP3    H226830   6.123   4.811   3.061  0.5292  0.0338  0.6886
 8956TIP3   OH226831   3.099   3.615   5.033  0.2370 -1.1095 -0.3365
 8956TIP3    H126832   3.187   3.632   4.998  0.4367 -0.6451  0.3575
 8956TIP3    H226833   3.058   3.559   4.968  2.1746 -4.0719  0.8057
 8957TIP3   OH226834   5.117   2.886   1.907  0.2080  0.3903  0.0191
 8957TIP3    H126835   5.060   2.953   1.870 -0.0123 -0.3544 -1.0451
 8957TIP3    H226836   5.090   2.805   1.864  1.7122 -0.0758 -0.1232
 8958TIP3   OH226837   5.542   4.980   1.879  0.1198  0.0517  0.2261
 8958TIP3    H126838   5.537   4.992   1.974 -1.7218 -0.1244  0.1801
 8958TIP3    H226839   5.501   5.058   1.843  3.9041  1.9165 -0.6289
 8959TIP3   OH226840   6.248   3.044   3.480  0.6400 -0.0433 -0.6834
 8959TIP3    H126841   6.268   3.029   3.573  0.6409 -2.0051 -0.9685
 8959TIP3    H226842   6.284   2.968   3.435 -0.3214  0.3501 -2.1813
 8960TIP3   OH226843   2.394   0.832   5.562  0.4876 -0.8644 -0.2928
 8960TIP3    H126844   2.413   0.829   5.468  1.5193 -2.1063 -0.0777
 8960TIP3    H226845   2.299   0.844   5.567  0.5356  0.2619 -1.4769
 8961TIP3   OH226846   0.793   5.418   5.049 -0.0329 -0.3188 -0.6202
 8961TIP3    H126847   0.756   5.342   5.003 -0.7209  0.4490 -1.3518
 8961TIP3    H226848   0.842   5.465   4.981  1.0039 -0.4813 -0.0069
 8962TIP3   OH226849   7.048   2.043   5.103 -0.2128 -0.1615  0.2353
 8962TIP3    H126850   7.046   2.134   5.076 -1.8554 -0.2862 -0.2137
 8962TIP3    H226851   7.100   1.999   5.036 -0.5492  0.2506 -0.3130
 8963TIP3   OH226852   1.557   5.845   4.699  0.1764 -0.2544  0.0222
 8963TIP3    H126853   1.610   5.797   4.635  0.5681 -0.4800  0.5022
 8963TIP3    H226854   1.523   5.777   4.758  0.2301 -0.0053  0.3450
 8964TIP3   OH226855   2.963   4.803   0.455  0.4330  0.3590  0.2276
 8964TIP3    H126856   3.043   4.812   0.403  0.9464  0.8742  1.0999
 8964TIP3    H226857   2.946   4.891   0.488 -1.1746  0.5249 -0.9045
 8965TIP3   OH226858   4.592   3.362   2.971 -0.0568  0.3348 -0.1438
 8965TIP3    H126859   4.605   3.443   2.922  1.0225  0.1259 -0.2134
 8965TIP3    H226860   4.656   3.301   2.935 -1.6306 -0.9469 -0.9026
 8966TIP3   OH226861   3.863   0.221   2.638  0.1343 -0.3768  0.0621
 8966TIP3    H126862   3.927   0.230   2.568  1.2714 -0.2547  1.0815
 8966TIP3    H226863   3.799   0.158   2.605  0.5736 -0.2322 -1.1127
 8967TIP3   OH226864   4.649   0.655   5.601 -0.7546  0.1593  0.4953
 8967TIP3    H126865   4.690   0.741   5.592  0.0688 -0.3270 -0.6306
 8967TIP3    H226866   4.555   0.673   5.595 -0.5597  0.7508 -2.5187
 8968TIP3   OH226867   1.836   4.541   4.898  0.1743 -0.3156 -0.3714
 8968TIP3    H126868   1.845   4.631   4.866  0.8080  0.7159  2.4060
 8968TIP3    H226869   1.763   4.545   4.960 -1.0759 -2.2302 -1.5909
 8969TIP3   OH226870   6.957   0.226   4.937  0.2597 -0.1289  0.2706
 8969TIP3    H126871   6.902   0.270   5.002 -0.1924 -0.7552  0.3210
 8969TIP3    H226872   6.895   0.185   4.876  0.6741  0.6995 -0.7343
 8970TIP3   OH226873   2.589   1.170   3.368 -0.4291  0.3071 -0.0695
 8970TIP3    H126874   2.545   1.184   3.284 -0.3100 -2.7413 -0.7772
 8970TIP3    H226875   2.682   1.176   3.347 -0.3934 -0.6505 -0.2569
 8971TIP3   OH226876   0.908   4.897   1.534 -0.0941 -0.1427  0.7211
 8971TIP3    H126877   0.995   4.902   1.493 -0.8453  0.6729 -0.8865
 8971TIP3    H226878   0.898   4.806   1.559  0.5949 -0.5903 -0.5529
 8972TIP3   OH226879   3.266   0.096   5.838  0.1436  0.0218  0.2330
 8972TIP3    H126880   3.223   0.063   5.916 -0.3696 -3.2573 -1.2689
 8972TIP3    H226881   3.195   0.119   5.779  0.5010  0.4223 -0.0497
 8973TIP3   OH226882   1.911   1.856   4.870 -0.1402 -0.4402 -0.0284
 8973TIP3    H126883   1.927   1.807   4.951 -0.5328  0.2603  0.4810
 8973TIP3    H226884   1.822   1.833   4.845 -0.6607  0.7000  0.7134
 8974TIP3   OH226885   0.145   3.660   0.079  0.1042  0.0004 -0.1303
 8974TIP3    H126886   0.209   3.589   0.089 -1.0477 -1.3619 -1.8100
 8974TIP3    H226887   0.192   3.728   0.030  0.3032 -0.9677 -1.3172
 8975TIP3   OH226888   5.382   6.772   3.921 -0.0286  0.4910 -0.0142
 8975TIP3    H126889   5.368   6.799   3.830  1.5241 -0.6296 -0.6331
 8975TIP3    H226890   5.436   6.693   3.914  0.7471  0.7972  1.9049
 8976TIP3   OH226891   4.738   6.203   2.111  0.3818 -0.1351 -0.0769
 8976TIP3    H126892   4.703   6.291   2.094  1.4184  0.5825  1.3001
 8976TIP3    H226893   4.811   6.195   2.049  1.3671  0.6918  0.9374
 8977TIP3   OH226894   3.434   6.005   5.814  0.6898  0.1722  0.2709
 8977TIP3    H126895   3.476   5.957   5.743 -1.9474 -0.8150 -0.7200
 8977TIP3    H226896   3.426   5.941   5.885 -0.6819 -0.2091 -0.1968
 8978TIP3   OH226897   1.379   1.503   5.401 -0.1951  0.2049  0.4015
 8978TIP3    H126898   1.291   1.479   5.430 -0.2109 -0.2743 -0.0334
 8978TIP3    H226899   1.437   1.463   5.466 -0.3039  0.9306  0.9676
 8979TIP3   OH226900   6.681   2.267   2.903  0.4162 -0.2685  0.6138
 8979TIP3    H126901   6.617   2.338   2.907  1.4167  0.6543  0.8441
 8979TIP3    H226902   6.653   2.213   2.829  0.2962  1.0357 -0.3297
 8980TIP3   OH226903   5.663   0.510   2.927 -1.0286  0.1192 -0.3435
 8980TIP3    H126904   5.623   0.595   2.946 -1.4194  0.4095 -2.1895
 8980TIP3    H226905   5.718   0.528   2.850  1.5100 -0.5926  1.2103
 8981TIP3   OH226906   3.215   1.017   3.438  0.0178  0.5187  0.1287
 8981TIP3    H126907   3.152   0.949   3.415 -0.2534  0.6377  0.4997
 8981TIP3    H226908   3.284   1.009   3.373  1.2170 -1.7381  1.5250
 8982TIP3   OH226909   5.224   2.572   0.409 -0.3204  0.4538  0.0476
 8982TIP3    H126910   5.159   2.523   0.459 -1.4321  2.2156  0.3794
 8982TIP3    H226911   5.207   2.547   0.318  0.1715 -0.9333  0.2987
 8983TIP3   OH226912   2.949   3.594   0.194 -0.3373  0.0866 -0.4309
 8983TIP3    H126913   2.913   3.579   0.107 -3.8214  1.8856  0.5165
 8983TIP3    H226914   2.896   3.538   0.252 -0.9838  1.9974  0.9367
 8984TIP3   OH226915   6.776   6.085   0.363 -0.5189 -0.0168 -0.5862
 8984TIP3    H126916   6.756   5.994   0.385  0.4870 -0.3436 -0.9508
 8984TIP3    H226917   6.869   6.095   0.382 -0.4740  0.7598 -1.1311
 8985TIP3   OH226918   3.172   1.874   3.443  0.0802 -0.1908 -0.4167
 8985TIP3    H126919   3.105   1.807   3.451 -0.2468  0.0740 -0.8890
 8985TIP3    H226920   3.140   1.933   3.375 -0.7228  1.7400  1.5222
 8986TIP3   OH226921   6.444   0.679   5.533 -0.0513  0.2590 -0.1380
 8986TIP3    H126922   6.498   0.758   5.528 -1.1189  1.1525  1.5468
 8986TIP3    H226923   6.355   0.710   5.520 -0.5407 -0.5721  1.0308
 8987TIP3   OH226924   2.186   6.136   4.556 -0.0642  0.0784 -0.6431
 8987TIP3    H126925   2.196   6.195   4.630 -0.6368 -0.2889 -0.2607
 8987TIP3    H226926   2.200   6.049   4.593 -0.5854 -0.1261 -0.9136
 8988TIP3   OH226927   6.331   5.242   2.484  0.5006 -0.4675 -0.3020
 8988TIP3    H126928   6.241   5.233   2.451  0.1074 -0.6641  0.7550
 8988TIP3    H226929   6.329   5.196   2.568  1.3798  0.2182  0.1037
 8989TIP3   OH226930   2.698   0.442   1.774 -0.6265 -0.1916 -0.7807
 8989TIP3    H126931   2.681   0.522   1.725  1.0670  0.9208  0.3203
 8989TIP3    H226932   2.624   0.384   1.754 -2.1405  1.8180 -1.2314
 8990TIP3   OH226933   5.803   2.779   4.561  0.8892  0.2346  0.1320
 8990TIP3    H126934   5.877   2.747   4.510  1.6903  0.7711  0.9270
 8990TIP3    H226935   5.834   2.778   4.652 -0.5911 -0.9455  0.6623
 8991TIP3   OH226936   4.636   5.029   0.194 -0.0245  0.2076 -0.2522
 8991TIP3    H126937   4.589   5.068   0.267  1.7482  1.3457  0.3556
 8991TIP3    H226938   4.695   4.966   0.235  0.5042  0.3606 -0.7677
 8992TIP3   OH226939   1.289   4.734   4.650 -0.1849  0.3592  0.6238
 8992TIP3    H126940   1.379   4.754   4.675  0.8079 -0.2598 -2.0181
 8992TIP3    H226941   1.263   4.661   4.707  1.3526 -0.0607  0.8248
 8993TIP3   OH226942   6.178   4.712   2.593 -0.2706 -0.0893  0.6956
 8993TIP3    H126943   6.245   4.771   2.626 -0.1115  1.1816 -1.6977
 8993TIP3    H226944   6.114   4.706   2.665  0.7781  1.2389  1.8023
 8994TIP3   OH226945   4.701   2.725   2.242 -0.4294  0.5646  0.0234
 8994TIP3    H126946   4.658   2.728   2.157 -1.4981 -0.0345  0.5271
 8994TIP3    H226947   4.645   2.669   2.296  1.4836 -1.1147  0.4147
 8995TIP3   OH226948   7.038   4.691   0.549  0.4859  0.2239 -0.1817
 8995TIP3    H126949   6.996   4.762   0.599 -1.1808 -1.1618  0.5017
 8995TIP3    H226950   7.106   4.735   0.499 -2.5356  2.9233 -2.3709
 8996TIP3   OH226951   3.244   4.580   3.161 -0.1178  0.0174  0.2803
 8996TIP3    H126952   3.191   4.660   3.153  0.6228  0.5418  0.5803
 8996TIP3    H226953   3.330   4.605   3.127 -0.7117 -1.5402 -2.7615
 8997TIP3   OH226954   2.380   6.450   2.202 -0.0171  0.0842 -0.9105
 8997TIP3    H126955   2.300   6.399   2.186 -0.0819 -1.4357  2.9388
 8997TIP3    H226956   2.443   6.418   2.138 -1.1416 -2.3329 -0.9338
 8998TIP3   OH226957   0.700   4.715   4.889 -0.3544  0.1475 -0.4775
 8998TIP3    H126958   0.672   4.760   4.810  0.6409  0.2019 -0.8110
 8998TIP3    H226959   0.788   4.749   4.907 -0.9657  0.9642  1.2837
 8999TIP3   OH226960   4.796   1.352   2.048 -0.3612 -0.0995 -0.5119
 8999TIP3    H126961   4.808   1.356   1.953 -1.6817 -1.7244 -0.7850
 8999TIP3    H226962   4.702   1.363   2.061 -0.2724 -0.4928  0.5721
 9000TIP3   OH226963   3.516   0.544   4.651 -0.4004  0.0662  0.5599
 9000TIP3    H126964   3.539   0.562   4.560  0.7112 -1.3199  0.5257
 9000TIP3    H226965   3.426   0.577   4.660 -1.0626 -0.9738 -1.4390
 9001TIP3   OH226966   1.851   6.630   5.216 -0.7843  0.0453 -0.2022
 9001TIP3    H126967   1.942   6.605   5.202 -1.1277 -0.3240 -2.1940
 9001TIP3    H226968   1.853   6.693   5.288  0.5027 -3.2563  2.9448
 9002TIP3   OH226969   5.087   4.128   3.101  0.3249 -0.0505  0.1208
 9002TIP3    H126970   5.017   4.087   3.152 -0.8361  0.0771 -1.2762
 9002TIP3    H226971   5.041   4.167   3.026  1.8608  0.3992 -0.6223
 9003TIP3   OH226972   3.248   3.915   5.268 -0.4359 -0.4275  0.1337
 9003TIP3    H126973   3.333   3.915   5.312  0.0758 -1.4596 -0.7707
 9003TIP3    H226974   3.199   3.986   5.308  0.7877  0.0550  0.8176
 9004TIP3   OH226975   0.744   3.329   2.895 -0.0922 -1.0267  0.1949
 9004TIP3    H126976   0.776   3.239   2.893 -1.1833 -1.4353  0.3588
 9004TIP3    H226977   0.819   3.381   2.924  0.0857 -2.0857  1.7610
 9005TIP3   OH226978   3.029   3.850   5.119  0.4056 -0.4192  0.0831
 9005TIP3    H126979   3.018   3.757   5.097  0.5802 -0.8692  1.7738
 9005TIP3    H226980   3.111   3.853   5.169  0.6116  0.7221 -0.2980
 9006TIP3   OH226981   4.401   1.411   5.639  0.3759 -0.2399  0.2576
 9006TIP3    H126982   4.434   1.496   5.669  0.1651 -0.5437  1.3801
 9006TIP3    H226983   4.414   1.352   5.713 -0.0918 -1.0349 -0.2765
 9007TIP3   OH226984   1.108   4.777   2.146  0.0963  0.3518 -0.3442
 9007TIP3    H126985   1.057   4.809   2.072 -1.3913  0.5943  0.7290
 9007TIP3    H226986   1.044   4.769   2.217  1.5259  0.4533  1.0031
 9008TIP3   OH226987   3.485   0.392   5.042  0.8125  0.1110 -0.1006
 9008TIP3    H126988   3.525   0.320   5.091  1.5023 -0.5355 -1.5321
 9008TIP3    H226989   3.435   0.441   5.107  2.3919 -0.1758  1.4113
 9009TIP3   OH226990   4.301   1.992   4.322 -0.2164 -0.1280 -0.7988
 9009TIP3    H126991   4.239   2.026   4.257 -1.9360 -0.3866  0.6391
 9009TIP3    H226992   4.286   2.045   4.400 -0.6349 -2.0084  0.4516
 9010TIP3   OH226993   4.475   6.601   2.709 -0.2019  0.0940  0.6172
 9010TIP3    H126994   4.425   6.602   2.627  1.3036  1.0888 -0.3519
 9010TIP3    H226995   4.443   6.676   2.758  1.2587  1.6258 -0.6466
 9011TIP3   OH226996   1.986   4.816   5.883  0.1201 -0.6218  0.1750
 9011TIP3    H126997   1.943   4.769   5.811 -1.8579  2.1572 -0.6395
 9011TIP3    H226998   1.983   4.908   5.856  2.3715  0.1838  2.3524
 9012TIP3   OH226999   4.570   3.841   4.227 -0.1488 -0.0741  0.0884
 9012TIP3    H127000   4.553   3.772   4.291  0.6599 -3.0756 -2.6706
 9012TIP3    H227001   4.657   3.821   4.192 -0.5232  1.4197 -1.8935
 9013TIP3   OH227002   6.266   0.015   2.895 -0.8535  0.3125  0.4152
 9013TIP3    H127003   6.180   0.020   2.854 -0.4692 -0.9262 -0.6205
 9013TIP3    H227004   6.250  -0.027   2.979 -1.0713 -1.7216 -0.5715
 9014TIP3   OH227005   4.315   2.903   1.997  0.4550 -0.6037  0.0485
 9014TIP3    H127006   4.404   2.911   1.962  0.2256 -2.2457 -1.0228
 9014TIP3    H227007   4.285   2.993   2.007  1.8631 -0.0377 -0.5788
 9015TIP3   OH227008   0.751   6.332   0.998  0.0611 -0.1080 -0.2441
 9015TIP3    H127009   0.748   6.300   1.088 -0.4849  0.0457 -0.2019
 9015TIP3    H227010   0.740   6.254   0.944  0.9650 -0.2818 -0.2014
 9016TIP3   OH227011   5.789   1.488   1.251  0.1544  0.6587 -0.0730
 9016TIP3    H127012   5.795   1.455   1.341 -2.9303 -1.5695 -0.5218
 9016TIP3    H227013   5.773   1.582   1.261  2.2638  0.9411  1.5205
 9017TIP3   OH227014   6.951   4.072   1.487 -0.2011  0.3137  0.0058
 9017TIP3    H127015   6.870   4.080   1.537 -0.2823  1.4270 -0.2661
 9017TIP3    H227016   6.984   4.162   1.483  1.5769 -0.2480  0.9812
 9018TIP3   OH227017   0.425   5.280   1.064 -0.1169  0.6389  0.0139
 9018TIP3    H127018   0.469   5.208   1.018  0.8974  1.1898  0.0932
 9018TIP3    H227019   0.448   5.267   1.156 -0.0825  0.9547  0.0514
 9019TIP3   OH227020   5.043   3.130   1.755 -0.1213  0.2568 -0.1860
 9019TIP3    H127021   5.097   3.203   1.786 -0.7364  0.5216  0.2834
 9019TIP3    H227022   4.972   3.123   1.819  0.3241 -1.2333  0.1815
 9020TIP3   OH227023   2.500   3.354   4.319 -0.0872 -0.1653 -0.3743
 9020TIP3    H127024   2.411   3.380   4.297  0.4461  1.4718 -0.7204
 9020TIP3    H227025   2.555   3.422   4.282  1.3130 -1.0475  0.0023
 9021TIP3   OH227026   1.491   2.010   3.588 -0.2347  0.6752 -0.2902
 9021TIP3    H127027   1.479   2.017   3.494  0.7478 -0.2375 -0.5080
 9021TIP3    H227028   1.570   1.956   3.598 -0.8831 -0.0724  1.0600
 9022TIP3   OH227029   6.574   0.665   2.118  0.2709  0.3482 -0.0832
 9022TIP3    H127030   6.557   0.621   2.035  0.8811  0.5019 -0.2882
 9022TIP3    H227031   6.622   0.601   2.170  1.8978  1.0402 -0.6827
 9023TIP3   OH227032   0.223   4.613   4.241  0.4373 -0.4768  0.4811
 9023TIP3    H127033   0.297   4.674   4.240  1.1939 -1.3746  0.1120
 9023TIP3    H227034   0.146   4.667   4.222  1.2116  0.2070 -0.8160
 9024TIP3   OH227035   4.846   2.607   5.207 -0.0111 -0.2671  0.0301
 9024TIP3    H127036   4.920   2.597   5.266  1.1768 -0.4724 -1.4303
 9024TIP3    H227037   4.808   2.692   5.230  1.1657  0.2078  0.2734
 9025TIP3   OH227038   1.877   1.024   4.384  0.4201  0.1908  0.7502
 9025TIP3    H127039   1.844   1.073   4.308  0.9864  1.0620  1.0441
 9025TIP3    H227040   1.820   1.051   4.456  0.2857 -0.1419  0.7694
 9026TIP3   OH227041   1.873   2.839   0.990  0.1272  0.2633 -0.0385
 9026TIP3    H127042   1.956   2.810   0.952  0.6799  0.2916  1.1211
 9026TIP3    H227043   1.862   2.786   1.069 -1.2245 -0.1071 -0.4373
 9027TIP3   OH227044   0.381   3.697   1.482  0.0896 -0.3954  0.3807
 9027TIP3    H127045   0.302   3.643   1.479 -1.1994  1.4595 -1.5944
 9027TIP3    H227046   0.387   3.725   1.573 -2.4871  0.6576  0.3317
 9028TIP3   OH227047   3.677   1.538   5.465 -0.0561  0.2280 -0.1509
 9028TIP3    H127048   3.660   1.445   5.479  0.5187  0.2550  0.8190
 9028TIP3    H227049   3.600   1.569   5.417 -0.0815 -0.8189 -0.8091
 9029TIP3   OH227050   5.053   6.109   2.731  0.4374 -0.2220 -0.6462
 9029TIP3    H127051   5.069   6.035   2.790  1.7590  1.3579  1.1287
 9029TIP3    H227052   5.139   6.150   2.721 -0.6419  2.6523  0.7430
 9030TIP3   OH227053   6.897   2.134   1.475  0.0072  0.5510 -0.4785
 9030TIP3    H127054   6.984   2.114   1.440  0.0283  0.8089 -0.5807
 9030TIP3    H227055   6.838   2.078   1.426  0.1815 -0.1374  0.0727
 9031TIP3   OH227056   4.037   4.471   4.766 -0.5196  0.4014 -0.1153
 9031TIP3    H127057   3.958   4.523   4.779 -1.3055 -0.4099 -1.4279
 9031TIP3    H227058   4.027   4.433   4.679  1.6164  0.7779 -0.5810
 9032TIP3   OH227059   3.175   4.342   5.121  0.3739 -0.1615 -0.3320
 9032TIP3    H127060   3.252   4.317   5.069  0.2797 -1.0646 -0.0422
 9032TIP3    H227061   3.117   4.385   5.058  1.1604  0.6468 -0.5292
 9033TIP3   OH227062   3.516   1.006   3.717  0.2404 -0.0654 -0.1102
 9033TIP3    H127063   3.529   0.967   3.630  0.3696 -0.4528  0.0788
 9033TIP3    H227064   3.425   1.036   3.716 -0.2962 -1.5553  0.1787
 9034TIP3   OH227065   4.499   2.636   4.594  0.3172  0.2008 -0.2732
 9034TIP3    H127066   4.560   2.676   4.656 -0.4163  2.2279 -0.7799
 9034TIP3    H227067   4.511   2.684   4.513 -1.7599  0.5319 -0.4530
 9035TIP3   OH227068   4.377   6.389   4.419 -0.5048 -0.7942  0.0968
 9035TIP3    H127069   4.442   6.332   4.378 -1.1813 -0.5388 -1.3915
 9035TIP3    H227070   4.294   6.359   4.383 -0.9025  0.9478 -0.4886
 9036TIP3   OH227071   7.193   6.540   0.566 -0.0806 -0.3014  0.0548
 9036TIP3    H127072   7.142   6.473   0.611  0.2123 -0.3540  0.3159
 9036TIP3    H227073   7.249   6.492   0.506  1.2021 -0.4250  1.3010
 9037TIP3   OH227074   3.235   5.174   3.361  0.6816 -0.5106 -0.4489
 9037TIP3    H127075   3.184   5.095   3.381  1.1462 -1.0675 -1.4055
 9037TIP3    H227076   3.191   5.213   3.285  2.0851 -1.4228 -1.7855
 9038TIP3   OH227077   6.232   4.237   3.141 -0.0977  0.0683 -0.0181
 9038TIP3    H127078   6.193   4.314   3.098 -0.3220 -0.0596 -0.0480
 9038TIP3    H227079   6.195   4.238   3.229 -1.8145 -1.2151 -0.6761
 9039TIP3   OH227080   1.637   0.710   5.495 -0.0190 -0.1152  0.0206
 9039TIP3    H127081   1.569   0.642   5.500  0.1442 -0.3822 -1.2562
 9039TIP3    H227082   1.719   0.664   5.513  0.0248 -0.1418 -0.2462
 9040TIP3   OH227083   0.256   4.293   4.832 -0.0924  0.7516  0.2658
 9040TIP3    H127084   0.340   4.295   4.878 -0.0084  0.6105  0.1170
 9040TIP3    H227085   0.238   4.200   4.819  0.3109  0.8058 -0.7766
 9041TIP3   OH227086   5.953   4.708   0.970 -0.2409 -0.5120  0.2610
 9041TIP3    H127087   5.996   4.676   1.050  1.0456  2.0050  0.6597
 9041TIP3    H227088   5.859   4.697   0.988  0.0443 -0.5879  1.8766
 9042TIP3   OH227089   2.125   1.444   3.203  0.5910 -0.0687  0.5081
 9042TIP3    H127090   2.051   1.501   3.182 -1.7841 -2.9032  0.5050
 9042TIP3    H227091   2.151   1.405   3.119  1.2128 -0.0904  0.7042
 9043TIP3   OH227092   1.004   0.544   2.265 -0.4187 -0.0068  0.3816
 9043TIP3    H127093   0.974   0.578   2.350  0.3826 -0.0516  0.6964
 9043TIP3    H227094   0.976   0.609   2.202  1.1986  1.3772  0.9922
 9044TIP3   OH227095   6.324   5.927   4.511  0.2696  0.4814 -0.2217
 9044TIP3    H127096   6.232   5.936   4.534  0.7652 -1.5205  3.2397
 9044TIP3    H227097   6.333   5.836   4.483  1.5006 -0.0923  1.8068
 9045TIP3   OH227098   1.363   4.052   1.005  0.2603 -0.1491  0.1209
 9045TIP3    H127099   1.323   3.977   1.050  1.3017 -1.4497 -1.0649
 9045TIP3    H227100   1.455   4.050   1.031  0.4422  0.3159 -0.4600
 9046TIP3   OH227101   4.037   3.147   4.727  0.4984 -0.6008  0.3289
 9046TIP3    H127102   3.949   3.177   4.705 -0.1934 -1.0155  2.3481
 9046TIP3    H227103   4.057   3.080   4.661 -1.6091 -2.0701  1.0782
 9047TIP3   OH227104   2.218   6.062   3.522  0.2977 -0.3550 -0.6273
 9047TIP3    H127105   2.203   6.111   3.441 -0.2809 -0.4506 -0.5848
 9047TIP3    H227106   2.291   6.107   3.564  0.2141  0.0616 -0.9199
 9048TIP3   OH227107   2.508   0.930   5.318 -0.5339 -0.7267  0.0093
 9048TIP3    H127108   2.591   0.969   5.343 -0.6385  0.2870 -1.1258
 9048TIP3    H227109   2.518   0.908   5.225 -1.4749 -0.7238 -0.1111
 9049TIP3   OH227110   0.107   0.825   4.920  0.3907 -0.2616  0.3233
 9049TIP3    H127111   0.019   0.827   4.956  0.7576 -0.9201  1.3043
 9049TIP3    H227112   0.162   0.864   4.988  0.7480  1.0618 -0.6751
 9050TIP3   OH227113   1.748   1.927   0.302  0.1174 -0.2131 -0.1497
 9050TIP3    H127114   1.808   1.970   0.241  1.1707  0.2620  1.1700
 9050TIP3    H227115   1.790   1.936   0.387 -2.2297  0.9226  0.9919
 9051TIP3   OH227116   0.856   3.289   2.275 -0.0404  0.1054  0.2535
 9051TIP3    H127117   0.807   3.288   2.357  0.6562  1.1939  0.7066
 9051TIP3    H227118   0.827   3.369   2.231  0.8064  0.3886  0.2038
 9052TIP3   OH227119   5.343   4.139   5.450  0.2517 -0.0739  0.2253
 9052TIP3    H127120   5.295   4.060   5.473  0.4458  0.1794  1.5489
 9052TIP3    H227121   5.435   4.116   5.465  0.2776  0.5250  1.0042
 9053TIP3   OH227122   4.290   1.866   0.292  0.3962  0.2011  0.4389
 9053TIP3    H127123   4.346   1.902   0.223  0.0439 -0.1406 -0.0341
 9053TIP3    H227124   4.217   1.825   0.245 -0.7553  1.4449  1.0507
 9054TIP3   OH227125   1.362   1.978   2.258 -0.4609  0.0679 -0.1364
 9054TIP3    H127126   1.274   2.001   2.289 -1.0031 -2.0438  0.0351
 9054TIP3    H227127   1.415   1.972   2.337  0.2274  2.5850 -0.3223
 9055TIP3   OH227128   3.671   3.113   2.438  0.0054  0.5876 -1.1524
 9055TIP3    H127129   3.605   3.043   2.436 -1.8269  2.1530 -0.0164
 9055TIP3    H227130   3.647   3.171   2.366 -0.4565  1.6427 -0.1767
 9056TIP3   OH227131   5.590   6.495   5.039 -0.0254 -0.6190 -0.0315
 9056TIP3    H127132   5.549   6.432   4.980  0.3998  0.8544 -1.9944
 9056TIP3    H227133   5.600   6.574   4.987  1.9594  0.2333  1.4980
 9057TIP3   OH227134   5.830   1.857   3.674 -0.5174 -0.2979  0.2515
 9057TIP3    H127135   5.829   1.948   3.702 -1.5369 -1.1218  3.2729
 9057TIP3    H227136   5.756   1.817   3.719 -0.7168 -2.4618 -1.7595
 9058TIP3   OH227137   6.940   2.029   2.340 -0.0675 -0.3323 -0.1027
 9058TIP3    H127138   6.853   2.016   2.303  0.2512 -1.0620 -0.6167
 9058TIP3    H227139   6.926   2.086   2.416 -0.7887  0.9753 -1.1572
 9059TIP3   OH227140   6.582   2.571   3.457  0.2213 -0.3115  0.3613
 9059TIP3    H127141   6.588   2.666   3.446  1.4717 -0.5432 -1.3208
 9059TIP3    H227142   6.490   2.551   3.444  0.2127  0.5148 -1.0972
 9060TIP3   OH227143   3.853   4.814   0.498  0.3552  0.2987  0.0687
 9060TIP3    H127144   3.793   4.781   0.432  1.2018 -1.8401  0.2801
 9060TIP3    H227145   3.936   4.825   0.452  0.0035  2.8179 -0.1219
 9061TIP3   OH227146   2.776   5.820   3.084 -0.1287  0.2759 -0.2089
 9061TIP3    H127147   2.780   5.748   3.148 -1.1329  0.3523 -0.0407
 9061TIP3    H227148   2.750   5.777   3.002  0.2038  0.3142 -0.3340
 9062TIP3   OH227149   5.575   3.969   3.637 -0.0863 -0.1494  0.3567
 9062TIP3    H127150   5.667   3.997   3.638  0.3207 -1.4330  0.5506
 9062TIP3    H227151   5.556   3.948   3.729 -0.4551 -0.2776  0.2512
 9063TIP3   OH227152   3.920   1.227   4.777  0.7357 -0.2151  0.4532
 9063TIP3    H127153   3.963   1.294   4.724 -0.1862 -1.4977 -2.1166
 9063TIP3    H227154   3.827   1.239   4.761  0.2964  0.1540  2.9203
 9064TIP3   OH227155   1.502   2.333   4.280  0.3525  0.3242 -0.5184
 9064TIP3    H127156   1.428   2.305   4.334  0.0172  0.3781 -0.9532
 9064TIP3    H227157   1.555   2.386   4.340  1.3118 -1.6838  0.4953
 9065TIP3   OH227158   4.454   0.111   3.727 -0.0398 -0.1820 -0.5818
 9065TIP3    H127159   4.408   0.167   3.665 -0.4599  0.2229  0.0852
 9065TIP3    H227160   4.497   0.171   3.787 -0.8636 -0.5529  0.4113
 9066TIP3   OH227161   5.214   3.056   3.797 -0.1337  0.1286 -0.9872
 9066TIP3    H127162   5.228   3.068   3.703  2.6674  0.4267 -0.6362
 9066TIP3    H227163   5.303   3.058   3.834 -1.1934  0.4814  1.7284
 9067TIP3   OH227164   3.758   1.888   2.848 -0.7028  0.2979  0.3693
 9067TIP3    H127165   3.754   1.935   2.931 -2.0165  1.5150 -0.3533
 9067TIP3    H227166   3.758   1.956   2.781 -3.1475 -0.6620 -0.7264
 9068TIP3   OH227167   2.408   4.709   5.015 -0.0149 -0.5851  0.1708
 9068TIP3    H127168   2.502   4.693   5.003  0.4626  0.0646  2.6151
 9068TIP3    H227169   2.376   4.629   5.056 -1.2079 -1.9813 -3.1405
 9069TIP3   OH227170   1.776   0.511   0.534  0.3747 -0.5315  0.0554
 9069TIP3    H127171   1.724   0.575   0.486  1.8948  1.0396  0.3896
 9069TIP3    H227172   1.814   0.455   0.467  0.0089 -0.3029 -0.3424
 9070TIP3   OH227173   3.553   4.874   5.700  0.4725  0.4654 -0.2829
 9070TIP3    H127174   3.544   4.786   5.735  0.3197  0.2462 -0.8569
 9070TIP3    H227175   3.538   4.932   5.775 -1.0802  0.0377 -0.2217
 9071TIP3   OH227176   5.535   5.424   2.765 -0.1300 -0.4080 -0.1186
 9071TIP3    H127177   5.590   5.347   2.779  1.3554  0.3318 -1.5156
 9071TIP3    H227178   5.591   5.498   2.790 -1.2862  0.2817  0.5517
 9072TIP3   OH227179   4.917   0.850   4.774  0.0285 -1.2449 -0.2982
 9072TIP3    H127180   4.955   0.850   4.686  0.2021  2.4998 -0.3809
 9072TIP3    H227181   4.980   0.801   4.827  1.1261 -1.5370 -1.7970
 9073TIP3   OH227182   7.102   1.836   3.393 -0.0625 -0.0317  0.3600
 9073TIP3    H127183   7.092   1.779   3.469  1.1235  1.1798  1.4816
 9073TIP3    H227184   7.160   1.788   3.335 -0.1748 -0.5502  0.6648
 9074TIP3   OH227185   1.776   6.072   0.949  0.4708  0.2818  0.1756
 9074TIP3    H127186   1.807   5.985   0.977 -0.1937 -0.4077 -1.1227
 9074TIP3    H227187   1.844   6.132   0.980  2.2092 -0.9683 -0.9767
 9075TIP3   OH227188   2.949   0.811   1.671 -0.4106 -0.4868 -0.0448
 9075TIP3    H127189   2.867   0.843   1.634  0.4542  0.4643 -1.2268
 9075TIP3    H227190   2.957   0.721   1.637 -0.5928 -0.3132 -0.5538
 9076TIP3   OH227191   1.384   4.427   0.243 -0.5879  0.0236 -0.1801
 9076TIP3    H127192   1.388   4.332   0.254 -1.8451  0.0692  0.7910
 9076TIP3    H227193   1.426   4.462   0.322  1.2835  0.3086 -1.2308
 9077TIP3   OH227194   1.194   4.182   2.666  0.2982  0.5729  0.1743
 9077TIP3    H127195   1.272   4.148   2.622  0.2512  0.8057 -0.0950
 9077TIP3    H227196   1.139   4.105   2.682  0.0892  0.5463 -0.6305
 9078TIP3   OH227197   6.905   2.656   5.336  0.1618 -0.2246  0.1863
 9078TIP3    H127198   6.991   2.620   5.315 -0.3085  0.0139 -2.6745
 9078TIP3    H227199   6.845   2.609   5.278 -1.5477  0.1143  1.5974
 9079TIP3   OH227200   1.352   3.491   2.360  0.4991 -0.3321 -0.6037
 9079TIP3    H127201   1.273   3.530   2.398  0.2481  0.0171 -1.4649
 9079TIP3    H227202   1.419   3.502   2.428 -0.0586 -0.1717 -0.0656
 9080TIP3   OH227203   6.574   4.385   5.160 -0.3164  0.1096 -0.6933
 9080TIP3    H127204   6.658   4.423   5.136 -0.1875  0.5898  0.4598
 9080TIP3    H227205   6.512   4.422   5.098 -0.5217  3.6581  1.4028
 9081TIP3   OH227206   5.294   3.251   3.047  0.7444 -0.3520 -0.0605
 9081TIP3    H127207   5.295   3.185   3.116  0.2801  0.7618  1.0660
 9081TIP3    H227208   5.215   3.302   3.064  1.0591  0.4548 -0.9219
 9082TIP3   OH227209   3.589   3.347   5.458  0.2697 -0.5825  0.6913
 9082TIP3    H127210   3.525   3.418   5.449  1.7567  0.7910  0.5088
 9082TIP3    H227211   3.578   3.295   5.378  0.2742  0.3989  0.0316
 9083TIP3   OH227212   0.307   6.364   1.166 -0.2913 -0.0017  0.5360
 9083TIP3    H127213   0.351   6.444   1.138 -0.5558 -0.0961 -0.1812
 9083TIP3    H227214   0.358   6.294   1.125  0.8396 -0.3139  2.3574
 9084TIP3   OH227215   1.748   3.737   3.689  0.4574  0.0618 -0.0427
 9084TIP3    H127216   1.799   3.779   3.619 -0.6775  1.3923 -0.1028
 9084TIP3    H227217   1.806   3.668   3.722  2.1274  1.2337 -0.3837
 9085TIP3   OH227218   1.814   3.239   2.848  0.3449  0.1940  0.0704
 9085TIP3    H127219   1.878   3.249   2.778 -1.5201  1.6141 -1.5552
 9085TIP3    H227220   1.747   3.181   2.811 -0.1943  0.1797  1.0415
 9086TIP3   OH227221   2.169   0.324   3.584 -0.0494 -0.1419  0.1881
 9086TIP3    H127222   2.197   0.407   3.544  0.1535 -0.4969 -0.4189
 9086TIP3    H227223   2.199   0.330   3.675  0.8595  0.0418 -0.1072
 9087TIP3   OH227224   4.083   5.630   4.269  0.6352  0.0026 -0.4062
 9087TIP3    H127225   4.036   5.632   4.353  0.2741 -0.2131 -0.6015
 9087TIP3    H227226   4.165   5.677   4.286  0.6669 -0.2416  0.1321
 9088TIP3   OH227227   0.448   5.002   1.240 -0.0901  0.2552 -0.3328
 9088TIP3    H127228   0.372   5.009   1.298  0.4022 -0.7774  0.4682
 9088TIP3    H227229   0.477   4.911   1.249  2.9550  1.2666  1.6087
 9089TIP3   OH227230   2.337   3.967   3.376 -0.7958 -0.4850 -0.2233
 9089TIP3    H127231   2.307   3.905   3.311  1.5774 -0.9958 -0.9262
 9089TIP3    H227232   2.357   4.047   3.326 -1.3308 -0.0322  0.2702
 9090TIP3   OH227233   0.031   2.940   0.761 -0.0390 -0.1301 -0.1350
 9090TIP3    H127234  -0.064   2.946   0.773 -0.1412 -0.5224 -0.7177
 9090TIP3    H227235   0.064   3.024   0.793 -0.5780 -0.0024  0.1021
 9091TIP3   OH227236   0.680   1.510   3.127  0.0824  0.7814 -0.7698
 9091TIP3    H127237   0.625   1.470   3.059 -1.4032  0.4055  0.6107
 9091TIP3    H227238   0.686   1.443   3.196  1.1230  1.3579 -0.2790
 9092TIP3   OH227239   6.421   5.713   2.704  0.6384 -0.1729  0.3871
 9092TIP3    H127240   6.466   5.786   2.663  2.4382 -1.1684  0.5263
 9092TIP3    H227241   6.449   5.715   2.795  1.1354 -1.3487  0.2744
 9093TIP3   OH227242   1.403   4.477   2.334  0.0800  0.2377  0.0284
 9093TIP3    H127243   1.377   4.424   2.410  2.3758  0.5631  1.1598
 9093TIP3    H227244   1.418   4.564   2.370 -0.1453  0.7527 -1.0952
 9094TIP3   OH227245   1.236   2.146   3.662 -0.2293 -0.0087 -0.0399
 9094TIP3    H127246   1.178   2.161   3.588 -0.4555  0.0366  0.1431
 9094TIP3    H227247   1.298   2.080   3.631 -0.2740  0.0670 -0.2935
 9095TIP3   OH227248   4.721   0.242   0.809 -0.0299 -0.0874 -0.1663
 9095TIP3    H127249   4.634   0.216   0.778 -0.0090  0.4788 -0.7228
 9095TIP3    H227250   4.768   0.268   0.729  0.6860 -0.4916  0.1189
 9096TIP3   OH227251   2.051   5.926   2.529 -0.1736  0.3512 -0.1460
 9096TIP3    H127252   1.998   5.936   2.608 -0.0369  0.5599 -0.0801
 9096TIP3    H227253   2.042   6.010   2.484 -0.8967 -0.0395 -0.7503
 9097TIP3   OH227254   1.554   1.716   5.716  0.2607 -0.0861  0.9032
 9097TIP3    H127255   1.465   1.686   5.701  0.5113 -0.8151  0.8464
 9097TIP3    H227256   1.604   1.683   5.641  0.3603  1.3067  0.3224
 9098TIP3   OH227257   2.245   3.795   4.894  0.3783  0.4462  0.6440
 9098TIP3    H127258   2.323   3.808   4.839  0.5367  0.9588  0.9767
 9098TIP3    H227259   2.240   3.701   4.906  0.6267  0.3635  0.1538
 9099TIP3   OH227260   7.098   3.824   4.938  0.4196  0.1004 -0.4385
 9099TIP3    H127261   7.047   3.849   5.015 -0.4891  0.1435 -1.0369
 9099TIP3    H227262   7.159   3.896   4.925 -0.3858  0.7766 -0.5833
 9100TIP3   OH227263   3.949   3.976   4.580  0.1417 -0.5545  0.8764
 9100TIP3    H127264   3.932   3.894   4.534 -1.2946 -0.0456  0.4580
 9100TIP3    H227265   3.922   4.044   4.519 -1.6049  0.1471  2.3433
 9101TIP3   OH227266   0.347   4.435   3.540 -0.3369  0.2265  0.0130
 9101TIP3    H127267   0.432   4.476   3.525 -1.1021  1.4392 -1.2896
 9101TIP3    H227268   0.365   4.362   3.599  1.8746 -0.6186 -1.5826
 9102TIP3   OH227269   3.859   1.646   2.803 -0.1905  0.5509 -0.0915
 9102TIP3    H127270   3.808   1.726   2.815 -2.4461 -0.9893  1.5461
 9102TIP3    H227271   3.908   1.636   2.886 -0.8482 -0.3280  0.2087
 9103TIP3   OH227272   3.148   0.222   3.916 -0.0044 -0.0427 -0.1199
 9103TIP3    H127273   3.148   0.243   3.823 -0.1487 -0.1110 -0.1340
 9103TIP3    H227274   3.083   0.153   3.926 -0.7098  0.6484  0.1838
 9104TIP3   OH227275   0.387   5.593   0.504 -0.1807  0.1342 -0.3098
 9104TIP3    H127276   0.399   5.680   0.543 -2.6038  1.2538 -1.7870
 9104TIP3    H227277   0.464   5.581   0.449  0.8369  0.7390  0.9250
 9105TIP3   OH227278   4.754   4.331   3.665 -0.0303  0.2929  0.4094
 9105TIP3    H127279   4.724   4.256   3.717 -0.7596  1.5249  1.8433
 9105TIP3    H227280   4.827   4.368   3.716  0.0584  0.7864 -0.0659
 9106TIP3   OH227281   3.144   2.812   1.837 -0.1881 -0.2686  0.1755
 9106TIP3    H127282   3.156   2.895   1.884 -3.7768  1.0842 -0.8937
 9106TIP3    H227283   3.094   2.758   1.898 -2.9312  0.6727 -1.0628
 9107TIP3   OH227284   6.033   5.925   3.391 -0.0513  0.0831 -0.2158
 9107TIP3    H127285   6.018   5.934   3.485 -0.5928 -0.3032 -0.2578
 9107TIP3    H227286   5.995   5.840   3.369  1.1725 -0.3797 -0.5706
 9108TIP3   OH227287   6.321   3.279   1.451  0.0888 -0.5580 -0.3708
 9108TIP3    H127288   6.275   3.356   1.486  1.4131  0.4652 -0.7947
 9108TIP3    H227289   6.288   3.270   1.362  0.6357  0.1489 -0.6609
 9109TIP3   OH227290   1.876   2.556   2.047  0.1307  0.0809  0.3043
 9109TIP3    H127291   1.860   2.470   2.086 -0.7298  0.5650  1.0564
 9109TIP3    H227292   1.852   2.545   1.955 -0.1084 -0.4579  0.4288
 9110TIP3   OH227293   1.674   2.499   5.465 -0.4747  0.8662 -0.3253
 9110TIP3    H127294   1.602   2.474   5.407 -0.5425  1.4503 -0.4989
 9110TIP3    H227295   1.657   2.452   5.547 -0.1387 -0.3081 -0.9155
 9111TIP3   OH227296   3.391   5.312   5.845  0.2248 -0.1020  0.2775
 9111TIP3    H127297   3.300   5.307   5.815 -0.1463  1.7073  0.9571
 9111TIP3    H227298   3.421   5.222   5.846 -1.1856 -0.6340 -1.1015
 9112TIP3   OH227299   2.912   4.030   4.270 -0.0851 -0.2721  0.1509
 9112TIP3    H127300   2.994   4.031   4.320  0.5142  1.0296 -0.7677
 9112TIP3    H227301   2.857   3.966   4.313  0.3472  0.8817  2.5717
 9113TIP3   OH227302   5.470   4.587   1.397 -0.0585  0.5738  0.0385
 9113TIP3    H127303   5.466   4.536   1.316  0.0832  0.3582  0.1653
 9113TIP3    H227304   5.380   4.616   1.412 -0.1232  0.4414 -0.0872
 9114TIP3   OH227305   2.126   1.965   5.788  0.5636  0.0736 -0.3058
 9114TIP3    H127306   2.173   1.882   5.801  1.5431  0.9155  2.1801
 9114TIP3    H227307   2.033   1.940   5.787  0.6854 -0.9425  2.7495
 9115TIP3   OH227308   1.991   3.019   0.733  0.0219  0.2301  0.1576
 9115TIP3    H127309   2.031   2.932   0.732  1.3223  0.7657  1.3996
 9115TIP3    H227310   1.931   3.017   0.808  0.7261  0.6621  0.7459
 9116TIP3   OH227311   4.698   0.677   1.040 -0.4794  0.5442 -0.0539
 9116TIP3    H127312   4.735   0.613   1.101 -1.8015  0.7888  1.0668
 9116TIP3    H227313   4.631   0.629   0.992 -0.7413  0.8200  0.0329
 9117TIP3   OH227314   0.242   2.564   5.578 -0.0767  0.4216 -0.2720
 9117TIP3    H127315   0.218   2.563   5.670  0.9286  0.2182 -0.0038
 9117TIP3    H227316   0.216   2.650   5.547 -1.6380  0.0273 -0.1461
 9118TIP3   OH227317   5.865   0.596   4.339 -0.6845  0.5141 -0.4606
 9118TIP3    H127318   5.943   0.546   4.362 -1.6896 -0.4796  0.9913
 9118TIP3    H227319   5.868   0.672   4.397 -0.8142  0.4543 -0.3757
 9119TIP3   OH227320   5.915   2.940   3.997 -0.1561  0.6980  0.1607
 9119TIP3    H127321   5.926   2.948   4.091  0.4902  0.8698  0.0744
 9119TIP3    H227322   5.947   2.852   3.977 -0.9687  0.3833  0.1927
 9120TIP3   OH227323   5.715   5.772   5.407 -0.1836  0.5918 -0.2305
 9120TIP3    H127324   5.713   5.688   5.362 -2.2855  0.6117 -0.2324
 9120TIP3    H227325   5.808   5.796   5.407  0.2610 -0.9349 -1.6595
 9121TIP3   OH227326   1.344   2.510   4.951  0.1792  0.0316 -0.0842
 9121TIP3    H127327   1.349   2.605   4.962  0.9635  0.0279 -0.3166
 9121TIP3    H227328   1.251   2.490   4.954  0.0939  0.3812  3.3928
 9122TIP3   OH227329   3.965   4.820   1.018 -0.1962 -0.1015  0.6589
 9122TIP3    H127330   4.039   4.792   1.072  0.7358  0.4331 -0.2933
 9122TIP3    H227331   3.949   4.746   0.959  0.4681  0.2810 -0.0207
 9123TIP3   OH227332   0.123   3.213   4.712 -0.2684 -0.0493  0.0760
 9123TIP3    H127333   0.176   3.171   4.644 -0.4756  1.3969 -1.0137
 9123TIP3    H227334   0.139   3.307   4.701 -0.7350  0.2581  1.6908
 9124TIP3   OH227335   4.245   4.924   2.289 -0.2260  0.3709  0.4805
 9124TIP3    H127336   4.189   4.864   2.241 -0.0598  0.9406 -0.4556
 9124TIP3    H227337   4.250   4.887   2.377 -1.4636 -0.0863  0.3838
 9125TIP3   OH227338   3.494   1.709   5.714  0.8787 -0.1610 -0.5066
 9125TIP3    H127339   3.553   1.768   5.667 -2.0147  2.7053 -0.8652
 9125TIP3    H227340   3.473   1.640   5.651 -0.3473  1.7870 -2.3244
 9126TIP3   OH227341   1.267   0.341   1.581 -0.3732 -0.2876  0.1996
 9126TIP3    H127342   1.308   0.369   1.499  0.2107 -1.0703  0.2150
 9126TIP3    H227343   1.339   0.307   1.634 -1.0711 -2.1259  0.0522
 9127TIP3   OH227344   4.913   6.392   3.705 -0.7309  0.2653 -0.2459
 9127TIP3    H127345   4.874   6.479   3.717  0.4666  1.4044 -3.4700
 9127TIP3    H227346   4.903   6.374   3.611  2.1761 -1.5175 -0.3324
 9128TIP3   OH227347   0.772   5.672   5.886 -0.2988 -0.8278 -0.4687
 9128TIP3    H127348   0.860   5.709   5.900 -0.4373 -0.6342 -0.1119
 9128TIP3    H227349   0.743   5.711   5.804 -1.4998  1.9292  1.1444
 9129TIP3   OH227350   0.149   4.984   1.081  0.4362 -0.2147  0.3855
 9129TIP3    H127351   0.232   4.968   1.036 -0.2290 -0.6976 -0.7132
 9129TIP3    H227352   0.146   4.919   1.151 -0.0660 -1.7949 -1.0468
 9130TIP3   OH227353   5.137   2.637   4.003 -0.5496 -0.2116  0.4388
 9130TIP3    H127354   5.139   2.623   3.909 -3.5871  0.2233  0.1982
 9130TIP3    H227355   5.090   2.720   4.015  0.6501  0.2628  2.3202
 9131TIP3   OH227356   0.984   0.222   1.090  0.1530 -0.4621  0.0140
 9131TIP3    H127357   0.969   0.132   1.062  1.4578 -0.8014  0.3395
 9131TIP3    H227358   0.906   0.245   1.141 -0.0252 -1.5219  0.2400
 9132TIP3   OH227359   6.397   1.863   5.332 -0.1776  0.1570  0.4021
 9132TIP3    H127360   6.419   1.885   5.423  1.6985 -2.4463  0.6991
 9132TIP3    H227361   6.472   1.892   5.281  0.1661 -1.1184  0.1537
 9133TIP3   OH227362   2.137   4.329   1.716 -0.0412  0.0174  0.3543
 9133TIP3    H127363   2.078   4.262   1.751  0.5293 -1.3184 -1.1156
 9133TIP3    H227364   2.216   4.281   1.692  1.2468  1.6043  1.2661
 9134TIP3   OH227365   6.721   2.053   3.057  0.3571 -0.0863 -0.4597
 9134TIP3    H127366   6.640   2.025   3.100 -0.5393  1.9565 -0.6570
 9134TIP3    H227367   6.693   2.126   3.001  2.4063  0.9423 -0.2154
 9135TIP3   OH227368   4.818   0.075   2.065 -0.5750  0.7774  0.1109
 9135TIP3    H127369   4.895   0.044   2.114 -0.7635  0.9097  0.4908
 9135TIP3    H227370   4.743   0.047   2.117 -0.7824  0.7871 -0.1804
 9136TIP3   OH227371   5.926   4.097   5.215 -0.0514  0.1873 -0.3721
 9136TIP3    H127372   5.972   4.013   5.212  1.7550  1.1083  0.2936
 9136TIP3    H227373   5.988   4.160   5.178 -1.0133  1.3951 -0.0037
 9137TIP3   OH227374   0.880   1.046   0.393 -0.3590 -0.1002  0.2769
 9137TIP3    H127375   0.881   0.977   0.460  1.1813 -0.1594  0.2191
 9137TIP3    H227376   0.873   0.999   0.310 -0.1912 -0.1398  0.2851
 9138TIP3   OH227377   4.671   4.871   5.023 -0.1032 -0.0849  0.3756
 9138TIP3    H127378   4.690   4.912   5.107  1.2585  1.1877 -0.5013
 9138TIP3    H227379   4.747   4.815   5.006  0.5384  1.1270 -0.8542
 9139TIP3   OH227380   1.729   3.204   0.445  0.0052 -0.0323 -0.0930
 9139TIP3    H127381   1.686   3.160   0.519  0.1917  0.8162  0.5358
 9139TIP3    H227382   1.660   3.213   0.379 -0.7021  0.9511  0.7484
 9140TIP3   OH227383   1.964   6.416   5.580  0.3536  0.2842 -0.3310
 9140TIP3    H127384   1.907   6.370   5.641 -0.7461  0.6353 -1.0510
 9140TIP3    H227385   1.929   6.505   5.577 -0.9887 -0.2179 -3.0125
 9141TIP3   OH227386   3.378   1.284   4.458 -0.3930  0.7493 -0.4461
 9141TIP3    H127387   3.296   1.296   4.505 -1.0230 -2.0100 -0.6960
 9141TIP3    H227388   3.415   1.204   4.494  1.2703  0.9421 -1.6303
 9142TIP3   OH227389   0.280   1.906   4.611 -0.5752  0.1159  0.2942
 9142TIP3    H127390   0.185   1.902   4.598 -0.6685  1.1182  0.6409
 9142TIP3    H227391   0.316   1.914   4.523 -0.7715 -0.7374  0.1221
 9143TIP3   OH227392   3.481   2.119   0.987  0.9168 -0.0517 -0.0252
 9143TIP3    H127393   3.532   2.196   0.960  1.5290 -0.7637 -0.9752
 9143TIP3    H227394   3.391   2.151   0.993  1.3524  1.0673  0.9937
 9144TIP3   OH227395   0.379   1.271   3.748  0.4513 -0.3243 -0.0254
 9144TIP3    H127396   0.405   1.258   3.657  0.9376  0.5954 -0.0273
 9144TIP3    H227397   0.284   1.254   3.749  0.4213 -0.2031 -0.7289
 9145TIP3   OH227398   2.664   4.096   0.819 -0.3968  0.0293 -0.6645
 9145TIP3    H127399   2.738   4.093   0.759 -1.0155  0.4878 -1.4770
 9145TIP3    H227400   2.675   4.020   0.875 -0.8437 -1.5578 -2.6168
 9146TIP3   OH227401   1.142   3.360   1.164  0.1956 -0.4714  0.2732
 9146TIP3    H127402   1.130   3.268   1.189  1.7269 -0.5368  0.8811
 9146TIP3    H227403   1.062   3.383   1.117 -0.4453 -1.9543  0.5904
 9147TIP3   OH227404   2.911   2.639   1.938  0.1455 -0.2174 -0.1264
 9147TIP3    H127405   2.827   2.684   1.931  0.2737  0.4109  1.7191
 9147TIP3    H227406   2.891   2.557   1.984  0.5799  0.1480  0.7471
 9148TIP3   OH227407   6.052   6.155   3.976  0.5233  0.1018 -0.1847
 9148TIP3    H127408   6.050   6.128   3.884 -0.9598  1.9051 -0.7448
 9148TIP3    H227409   6.129   6.212   3.983 -0.4572  1.5879 -0.8777
 9149TIP3   OH227410   3.020   4.544   0.171  0.3872 -0.2903  0.3504
 9149TIP3    H127411   2.965   4.622   0.165 -0.1030 -0.5781  0.8864
 9149TIP3    H227412   3.108   4.578   0.187  0.1828  0.1563  0.5569
 9150TIP3   OH227413   5.880   4.763   4.760 -0.3668 -0.1941 -0.3131
 9150TIP3    H127414   5.827   4.816   4.700 -0.1871 -2.3981 -2.5958
 9150TIP3    H227415   5.821   4.693   4.788  0.0321 -0.0754  0.8753
 9151TIP3   OH227416   0.491   1.539   2.753  0.2614  0.9704  0.1536
 9151TIP3    H127417   0.433   1.469   2.724  0.9133 -0.2245  1.6070
 9151TIP3    H227418   0.440   1.586   2.819  0.3630  0.9271  0.2630
 9152TIP3   OH227419   3.758   1.998   3.111 -0.2135  0.2969 -0.3647
 9152TIP3    H127420   3.789   1.934   3.175 -0.3776  0.6884  0.1137
 9152TIP3    H227421   3.778   2.083   3.151  1.5705  0.5700 -1.7438
 9153TIP3   OH227422   0.182   2.486   5.837 -0.0357  0.3842  0.3679
 9153TIP3    H127423   0.262   2.435   5.828  0.6777  1.7231 -1.8134
 9153TIP3    H227424   0.122   2.429   5.885  2.1472 -0.6879  1.9764
 9154TIP3   OH227425   0.297   3.184   2.567  0.0862 -0.3075  0.0444
 9154TIP3    H127426   0.288   3.275   2.537 -1.7881  0.3151  2.1650
 9154TIP3    H227427   0.375   3.185   2.622  1.0509 -0.4364 -1.2747
 9155TIP3   OH227428   3.629   4.356   1.066 -0.0533 -0.0625 -0.0073
 9155TIP3    H127429   3.590   4.437   1.033 -1.3981 -0.9906 -0.7712
 9155TIP3    H227430   3.573   4.330   1.139  0.1459 -0.5212 -0.0138
 9156TIP3   OH227431   5.545   2.464   3.218  0.7433 -0.1179  0.6719
 9156TIP3    H127432   5.529   2.511   3.137 -1.7151  0.5768  1.4547
 9156TIP3    H227433   5.523   2.373   3.198 -2.7288  0.4540  1.1043
 9157TIP3   OH227434   2.817   1.584   0.739 -0.3888 -0.0882 -0.1000
 9157TIP3    H127435   2.855   1.654   0.686 -0.3058 -0.3511 -0.3902
 9157TIP3    H227436   2.803   1.512   0.678 -1.2848 -0.0207  0.0182
 9158TIP3   OH227437   3.065   5.777   4.198 -0.1587 -0.0592 -0.3126
 9158TIP3    H127438   3.082   5.698   4.147 -1.3122 -0.7991  0.4116
 9158TIP3    H227439   3.141   5.786   4.255 -1.0596 -2.0716  1.3366
 9159TIP3   OH227440   0.490   1.356   4.868  0.0607  0.1420  0.2181
 9159TIP3    H127441   0.466   1.299   4.941 -1.2863  0.0774 -0.2390
 9159TIP3    H227442   0.459   1.310   4.790  2.3786 -0.2797 -0.5359
 9160TIP3   OH227443   1.626   0.696   3.307  0.2944 -0.5054  0.0571
 9160TIP3    H127444   1.543   0.670   3.346  0.0837  1.1870  0.8416
 9160TIP3    H227445   1.602   0.759   3.240  0.9367  0.0466  0.3340
 9161TIP3   OH227446   0.945   1.893   1.560 -0.0769  0.5002  0.1539
 9161TIP3    H127447   0.987   1.822   1.512 -0.0964  0.0066  0.8616
 9161TIP3    H227448   0.983   1.973   1.522 -2.1099  0.2999 -2.6199
 9162TIP3   OH227449   3.089   0.403   1.152 -0.2882  0.1022 -0.2250
 9162TIP3    H127450   3.086   0.485   1.203  1.5280  0.2567 -0.2834
 9162TIP3    H227451   3.159   0.418   1.088  2.5229 -2.5858  1.8806
 9163TIP3   OH227452   4.576   1.120   5.056  0.0499  0.0583 -0.6053
 9163TIP3    H127453   4.658   1.117   5.006 -0.1724  2.3970 -1.2368
 9163TIP3    H227454   4.603   1.110   5.147  0.7672 -1.4157 -0.9553
 9164TIP3   OH227455   7.063   6.140   0.372  0.0275 -0.1277 -0.5009
 9164TIP3    H127456   7.144   6.090   0.372  1.1941  1.6214 -1.6763
 9164TIP3    H227457   7.075   6.204   0.302 -2.1431  0.5688 -0.3105
 9165TIP3   OH227458   2.946   0.899   4.883 -0.4086  0.0150  0.8222
 9165TIP3    H127459   2.858   0.929   4.902 -0.1980  1.1667  0.0764
 9165TIP3    H227460   2.997   0.922   4.961 -0.5664  0.2090  0.8661
 9166TIP3   OH227461   1.674   5.350   5.786  0.0889 -0.0453 -0.1756
 9166TIP3    H127462   1.602   5.404   5.818  0.1329 -0.2873  0.3480
 9166TIP3    H227463   1.644   5.260   5.796  0.2653 -0.1342 -0.4349
 9167TIP3   OH227464   2.043   4.457   1.480 -0.2818 -0.2531  0.1910
 9167TIP3    H127465   1.976   4.525   1.479 -0.1550 -0.0946  1.1705
 9167TIP3    H227466   2.072   4.453   1.571  3.6372  2.2493 -0.7038
 9168TIP3   OH227467   2.301   4.201   1.942  0.3717 -0.2975  0.1321
 9168TIP3    H127468   2.341   4.224   2.026 -0.5269  0.4287  0.3868
 9168TIP3    H227469   2.356   4.244   1.876  0.5951 -0.1613  0.4056
 9169TIP3   OH227470   0.922   2.269   5.530 -0.0943  0.2705 -0.4923
 9169TIP3    H127471   0.941   2.325   5.455 -0.4632  1.1563  0.0612
 9169TIP3    H227472   0.833   2.237   5.515 -0.6441  1.4359  0.1490
 9170TIP3   OH227473   1.746   2.324   2.096 -0.2269  0.0919  0.6050
 9170TIP3    H127474   1.651   2.313   2.097 -0.4909  2.0570  0.9786
 9170TIP3    H227475   1.776   2.280   2.176 -0.6704 -1.4029 -0.0110
 9171TIP3   OH227476   0.390   3.094   0.153  0.0180 -0.0346 -0.2842
 9171TIP3    H127477   0.404   3.082   0.059 -0.2625 -1.3970 -0.1712
 9171TIP3    H227478   0.344   3.015   0.181 -2.4930  1.5509  0.4868
 9172TIP3   OH227479   4.193   3.218   3.096 -0.1589 -0.1326 -0.0771
 9172TIP3    H127480   4.169   3.199   3.006 -2.5979 -1.5884  0.7522
 9172TIP3    H227481   4.113   3.254   3.135  0.7025  0.0998  1.5807
 9173TIP3   OH227482   0.654   2.787   3.360 -0.5437 -0.2843 -0.3316
 9173TIP3    H127483   0.747   2.764   3.364 -0.6276 -0.5221  0.4129
 9173TIP3    H227484   0.608   2.703   3.363 -0.7788 -0.1930 -1.1220
 9174TIP3   OH227485   5.092   1.397   4.410 -1.4069 -0.2082 -0.1159
 9174TIP3    H127486   5.091   1.419   4.317 -0.7215 -2.3262 -0.6664
 9174TIP3    H227487   5.034   1.321   4.419 -0.7385 -0.6217  1.0184
 9175TIP3   OH227488   1.218   3.914   2.924 -0.1441  0.2369  0.0648
 9175TIP3    H127489   1.203   3.941   3.015 -0.9966 -1.8261  0.5979
 9175TIP3    H227490   1.135   3.931   2.881 -0.4222 -0.7433  0.2058
 9176TIP3   OH227491   6.885   6.780   3.135  0.1680 -0.0433  0.4384
 9176TIP3    H127492   6.871   6.873   3.117 -0.3748 -0.2748 -0.3663
 9176TIP3    H227493   6.828   6.734   3.073  0.8440 -0.9211  0.4382
 9177TIP3   OH227494   1.475   0.470   1.802 -0.3698 -0.6356 -0.3029
 9177TIP3    H127495   1.476   0.555   1.758 -0.0231 -0.5215 -0.0801
 9177TIP3    H227496   1.383   0.458   1.828 -0.3305 -0.0928  0.1112
 9178TIP3   OH227497   5.845   3.447   3.687  0.1058  0.1603  0.2908
 9178TIP3    H127498   5.908   3.482   3.624 -1.2558  3.4635  0.5728
 9178TIP3    H227499   5.799   3.524   3.720 -2.9014 -1.9177  1.3836
 9179TIP3   OH227500   4.520   2.063   0.995  0.3147 -0.6977 -0.8205
 9179TIP3    H127501   4.445   2.029   0.948  0.6617 -2.2524 -0.2985
 9179TIP3    H227502   4.596   2.035   0.944  0.5603  1.2196 -1.5746
 9180TIP3   OH227503   4.149   0.303   2.098 -0.6322 -0.1290  0.5260
 9180TIP3    H127504   4.104   0.378   2.059 -0.0813  0.3600  0.8143
 9180TIP3    H227505   4.131   0.231   2.038  0.0145  0.5537 -0.5224
 9181TIP3   OH227506   4.871   3.760   5.316 -0.1992  0.5830  0.4131
 9181TIP3    H127507   4.778   3.744   5.306  0.1749 -1.6434  0.0874
 9181TIP3    H227508   4.900   3.792   5.231 -0.2847 -0.9330 -0.2107
 9182TIP3   OH227509   3.215   3.277   3.354  0.0075 -0.0989 -0.0043
 9182TIP3    H127510   3.250   3.320   3.432 -1.0155  1.5281 -0.4022
 9182TIP3    H227511   3.186   3.348   3.297 -0.4518 -1.2812 -1.3256
 9183TIP3   OH227512   2.452   5.471   2.883  1.0440  0.9636 -0.4519
 9183TIP3    H127513   2.428   5.480   2.791  1.9619  1.9783 -0.6191
 9183TIP3    H227514   2.381   5.514   2.931  0.2061 -0.1904 -0.6229
 9184TIP3   OH227515   3.156   3.234   1.803 -0.4327 -0.5354  0.0246
 9184TIP3    H127516   3.074   3.282   1.795 -0.7778 -0.7665  1.8984
 9184TIP3    H227517   3.153   3.194   1.890  2.3942  0.8395  0.8570
 9185TIP3   OH227518   3.217   0.943   3.715  0.0210 -0.3965 -0.3305
 9185TIP3    H127519   3.215   0.986   3.629 -2.7424  1.9909  0.8005
 9185TIP3    H227520   3.148   0.985   3.765  2.8480 -0.2057  3.8578
 9186TIP3   OH227521   5.925   3.307   3.908 -0.2496 -0.3423  0.0078
 9186TIP3    H127522   5.899   3.361   3.834 -0.2148  0.9233  0.8854
 9186TIP3    H227523   6.016   3.333   3.926 -0.0847 -1.0080  0.1709
 9187TIP3   OH227524   0.015   1.170   4.862 -0.5487 -0.1653  0.0907
 9187TIP3    H127525   0.026   1.114   4.785 -1.6320 -0.6870  0.2940
 9187TIP3    H227526   0.053   1.254   4.836  1.5114 -1.0711 -0.0730
 9188TIP3   OH227527   6.638   1.210   4.607  0.1636  0.0361 -0.0585
 9188TIP3    H127528   6.547   1.241   4.611 -0.0581 -0.7064  1.1123
 9188TIP3    H227529   6.686   1.269   4.666  0.9529  1.8788 -2.3451
 9189TIP3   OH227530   2.566   6.377   0.788 -0.1617  0.6823 -0.3126
 9189TIP3    H127531   2.618   6.376   0.868  0.2144  0.3907 -0.5552
 9189TIP3    H227532   2.478   6.402   0.816 -0.3824 -0.7952  0.4070
 9190TIP3   OH227533   5.185   6.215   4.071 -0.3458 -0.4387  0.0688
 9190TIP3    H127534   5.134   6.168   4.005  0.2529  0.9161 -1.4422
 9190TIP3    H227535   5.276   6.200   4.047 -0.1241  0.3510  0.3656
 9191TIP3   OH227536   2.679   3.760   2.236 -0.0876  0.0927 -0.0991
 9191TIP3    H127537   2.743   3.691   2.255  1.1812  1.2865  0.2002
 9191TIP3    H227538   2.733   3.837   2.216 -1.4434  1.1448  0.1630
 9192TIP3   OH227539   5.376   3.475   4.375  0.0024  0.1702 -0.4873
 9192TIP3    H127540   5.437   3.487   4.301 -0.5485 -0.4966 -1.0673
 9192TIP3    H227541   5.363   3.380   4.379  0.4003  0.1590  0.7887
 9193TIP3   OH227542   5.442   0.281   3.418  0.0417 -0.4729 -0.2176
 9193TIP3    H127543   5.440   0.270   3.323 -0.4692  0.8944 -0.3873
 9193TIP3    H227544   5.462   0.374   3.431 -2.0661 -0.0993  0.9530
 9194TIP3   OH227545   0.341   3.289   3.027  0.1778  0.3728 -1.1614
 9194TIP3    H127546   0.254   3.260   3.057  0.0696  1.1150 -0.7187
 9194TIP3    H227547   0.391   3.300   3.108  1.3030 -1.8315 -1.4802
 9195TIP3   OH227548   2.916   5.652   1.094  0.6732 -0.5833  0.9316
 9195TIP3    H127549   3.008   5.660   1.069  0.3898  1.9794  0.4863
 9195TIP3    H227550   2.912   5.682   1.185  0.3644 -1.4146  1.2066
 9196TIP3   OH227551   5.264   2.988   5.173  0.0610 -0.4200  0.7329
 9196TIP3    H127552   5.179   2.954   5.146  0.0140  0.9849 -1.0341
 9196TIP3    H227553   5.327   2.921   5.146 -0.3009 -0.5014  0.0725
 9197TIP3   OH227554   6.627   1.689   4.483 -0.1872  0.7138 -0.3013
 9197TIP3    H127555   6.602   1.628   4.414  0.2178 -3.0892  2.6230
 9197TIP3    H227556   6.557   1.683   4.548  1.4718  0.7464  1.5957
 9198TIP3   OH227557   0.200   4.651   0.204  0.2953 -0.1186  0.6427
 9198TIP3    H127558   0.203   4.744   0.181 -0.7892 -0.5626 -1.5015
 9198TIP3    H227559   0.131   4.615   0.148 -0.4637 -1.9180  2.6139
 9199TIP3   OH227560   5.408   4.577   3.076  0.3895 -0.1653  0.4120
 9199TIP3    H127561   5.502   4.570   3.089  0.3596 -1.5614  0.0042
 9199TIP3    H227562   5.397   4.650   3.014  1.2075 -0.1705  0.2594
 9200TIP3   OH227563   2.030   0.093   5.245  0.3045 -0.7250  0.6180
 9200TIP3    H127564   2.115   0.136   5.259  0.5605 -0.8534 -0.4680
 9200TIP3    H227565   2.007   0.116   5.155 -0.2666 -1.6419  0.5267
 9201TIP3   OH227566   5.364   6.048   4.471 -0.1074  0.2174  0.0453
 9201TIP3    H127567   5.395   6.033   4.560 -0.5178  1.4968  0.4207
 9201TIP3    H227568   5.313   6.128   4.476  1.1100  1.1604 -1.6324
 9202TIP3   OH227569   6.148   3.920   3.179  0.1008  0.0225  0.2922
 9202TIP3    H127570   6.118   4.003   3.141 -0.1321 -0.7064 -1.1923
 9202TIP3    H227571   6.241   3.916   3.156  0.0292 -0.2769  0.0388
 9203TIP3   OH227572   6.879   0.462   4.650 -0.0975  0.4178 -0.2218
 9203TIP3    H127573   6.913   0.548   4.625  1.9067  0.0435  0.9183
 9203TIP3    H227574   6.923   0.401   4.591  0.6825 -0.0256  0.7825
 9204TIP3   OH227575   0.730   3.649   0.897 -0.0570  0.2994 -0.2923
 9204TIP3    H127576   0.689   3.622   0.815  1.0455 -0.6071 -0.5758
 9204TIP3    H227577   0.691   3.591   0.963  0.9166 -0.7606 -0.6053
 9205TIP3   OH227578   1.361   5.492   2.339  0.3703  0.1395 -0.5261
 9205TIP3    H127579   1.333   5.547   2.412  1.3432  0.3603 -0.3022
 9205TIP3    H227580   1.307   5.521   2.265  0.5288  1.0758 -0.2973
 9206TIP3   OH227581   6.451   4.883   0.447  0.0907 -0.1263  0.0481
 9206TIP3    H127582   6.404   4.889   0.364 -1.4785  1.6946  0.9751
 9206TIP3    H227583   6.482   4.972   0.464 -0.3976 -0.2544  1.8086
 9207TIP3   OH227584   5.260   6.251   2.948  0.2323 -0.0994  0.0003
 9207TIP3    H127585   5.335   6.236   3.006  1.0318  1.6741 -0.5089
 9207TIP3    H227586   5.299   6.255   2.860 -0.7103 -0.8838 -0.4684
 9208TIP3   OH227587   4.422   2.328   5.464 -0.2057  0.1167 -0.3714
 9208TIP3    H127588   4.335   2.351   5.430 -0.7136 -0.5766  0.3965
 9208TIP3    H227589   4.482   2.390   5.422 -0.6819 -1.0885 -2.9863
 9209TIP3   OH227590   3.381   3.001   4.423  0.2308 -0.3145 -0.6368
 9209TIP3    H127591   3.431   3.000   4.341  0.1967  0.3226 -0.6680
 9209TIP3    H227592   3.301   3.049   4.401  0.8996  1.2228  0.1547
 9210TIP3   OH227593   3.399   2.736   4.318  0.0196 -0.1989 -0.4334
 9210TIP3    H127594   3.349   2.812   4.348 -0.8383 -0.7310 -0.4748
 9210TIP3    H227595   3.433   2.697   4.399  0.9980  0.5614 -0.4505
 9211TIP3   OH227596   4.687   4.479   4.891 -0.3167 -0.3539 -0.2302
 9211TIP3    H127597   4.727   4.402   4.851 -0.0501  0.5937 -1.8913
 9211TIP3    H227598   4.595   4.472   4.868 -0.5738 -0.9136  0.8981
 9212TIP3   OH227599   3.445   4.715   1.254  0.4014 -0.0622  0.4560
 9212TIP3    H127600   3.356   4.737   1.280  0.0723 -0.8507  0.0231
 9212TIP3    H227601   3.492   4.706   1.337 -0.0601 -0.2192  0.7027
 9213TIP3   OH227602   1.256   2.294   5.426 -0.1422  0.2205 -0.6139
 9213TIP3    H127603   1.254   2.354   5.500 -0.5448  0.6209 -0.9388
 9213TIP3    H227604   1.338   2.313   5.382 -0.3983  0.7509 -0.8807
 9214TIP3   OH227605   4.456   6.288   0.736  0.1408 -0.3254 -0.0572
 9214TIP3    H127606   4.387   6.353   0.749 -0.1125 -0.7100  0.5660
 9214TIP3    H227607   4.422   6.208   0.777  0.6396 -0.7287 -0.4128
 9215TIP3   OH227608   4.678   3.469   5.078  0.6165  0.3446  0.3348
 9215TIP3    H127609   4.663   3.465   4.984 -0.1949 -0.2304  0.4753
 9215TIP3    H227610   4.774   3.466   5.087  0.6711 -0.9892 -0.4189
 9216TIP3   OH227611   3.303   4.432   4.413  0.4961 -0.4824 -0.3582
 9216TIP3    H127612   3.297   4.438   4.318  1.8067 -0.2788 -0.4567
 9216TIP3    H227613   3.214   4.444   4.444  0.0502 -0.5419 -1.5594
 9217TIP3   OH227614   4.412   1.388   5.027  0.0062 -0.4919 -0.3509
 9217TIP3    H127615   4.467   1.325   5.074  0.4163 -0.4646 -0.7906
 9217TIP3    H227616   4.352   1.422   5.094 -1.5088 -2.7383 -0.4874
 9218TIP3   OH227617   1.943   3.865   4.131 -0.3864 -0.7282 -0.3848
 9218TIP3    H127618   1.998   3.922   4.186  0.1193 -2.3072  0.8487
 9218TIP3    H227619   1.862   3.915   4.118  0.9420  1.2872 -1.4937
 9219TIP3   OH227620   5.530   0.155   1.012 -0.2072  0.1829  1.0679
 9219TIP3    H127621   5.481   0.178   1.091 -1.3337  0.8034  0.2117
 9219TIP3    H227622   5.465   0.158   0.941  0.9452  0.4597 -0.0168
 9220TIP3   OH227623   2.363   5.531   0.599  0.1154 -0.1733  0.0705
 9220TIP3    H127624   2.315   5.463   0.646 -1.6151  1.3001  0.5719
 9220TIP3    H227625   2.437   5.552   0.656 -0.1410 -0.6317  0.5782
 9221TIP3   OH227626   2.777   2.272   5.588  0.0329 -0.0586 -0.2668
 9221TIP3    H127627   2.838   2.262   5.661  0.5768 -0.0228 -0.7096
 9221TIP3    H227628   2.833   2.290   5.513 -0.5459  0.2580 -0.6261
 9222TIP3   OH227629   0.559   4.325   1.752 -0.5076  0.1018 -0.3681
 9222TIP3    H127630   0.562   4.395   1.817  0.3936 -0.7474  0.5345
 9222TIP3    H227631   0.626   4.349   1.688 -1.6659  1.1454 -1.2519
 9223TIP3   OH227632   2.628   3.932   5.121 -0.1022 -0.1215 -0.2102
 9223TIP3    H127633   2.703   3.964   5.171 -0.9337  0.8095  0.4931
 9223TIP3    H227634   2.605   4.005   5.063 -0.9860 -0.0690  0.1950
 9224TIP3   OH227635   0.760   1.818   4.174 -0.3922 -0.0229  0.0660
 9224TIP3    H127636   0.765   1.761   4.098  2.2812 -0.3129  0.3776
 9224TIP3    H227637   0.839   1.872   4.171 -0.6506  0.5977  2.1308
 9225TIP3   OH227638   5.164   6.538   0.838 -0.1211  0.2009 -0.0174
 9225TIP3    H127639   5.202   6.534   0.750 -1.9747 -1.1449 -0.8471
 9225TIP3    H227640   5.107   6.615   0.836  0.7626  0.8763  0.4365
 9226TIP3   OH227641   6.482   4.782   0.940  0.3158 -0.3727  0.1684
 9226TIP3    H127642   6.517   4.786   0.851  1.0731  0.2836  0.4906
 9226TIP3    H227643   6.435   4.699   0.942  1.1781 -0.9017 -0.5258
 9227TIP3   OH227644   1.843   4.522   3.305  0.0101 -0.2617  0.4532
 9227TIP3    H127645   1.749   4.537   3.313  0.1515  1.2246 -0.4582
 9227TIP3    H227646   1.871   4.502   3.394 -0.9618  0.4893  0.9481
 9228TIP3   OH227647   5.229   4.307   1.429  0.6790 -0.1107 -0.6321
 9228TIP3    H127648   5.215   4.311   1.335 -3.3466 -0.2632 -0.2181
 9228TIP3    H227649   5.259   4.395   1.453 -0.1717  0.5400 -1.8662
 9229TIP3   OH227650   4.461   6.423   4.704 -0.5568 -0.8418  0.0267
 9229TIP3    H127651   4.453   6.450   4.612 -0.8301 -1.6873 -0.2086
 9229TIP3    H227652   4.373   6.436   4.740 -0.1260  0.8153  0.5628
 9230TIP3   OH227653   5.741   1.113   4.236  0.6896 -0.1177 -0.3849
 9230TIP3    H127654   5.764   1.204   4.218  0.8299 -0.0862 -0.0357
 9230TIP3    H227655   5.751   1.069   4.151 -1.6205  0.6474 -1.1192
 9231TIP3   OH227656   0.951   6.009   1.661 -0.3074 -0.1683 -0.1563
 9231TIP3    H127657   1.040   6.033   1.688 -0.6428  0.3132  0.5376
 9231TIP3    H227658   0.956   5.916   1.641  0.6424  0.1038 -1.3310
 9232TIP3   OH227659   4.329   0.522   0.739  0.0379 -0.0629  0.1592
 9232TIP3    H127660   4.262   0.538   0.672 -0.9268  1.5717  1.4185
 9232TIP3    H227661   4.353   0.430   0.728 -0.6208 -0.0433 -1.9187
 9233TIP3   OH227662   5.248   6.348   1.342 -0.0929  0.2536 -0.5056
 9233TIP3    H127663   5.153   6.334   1.351 -0.0107 -0.9467 -1.3125
 9233TIP3    H227664   5.258   6.395   1.259 -0.0125  1.0254 -0.0736
 9234TIP3   OH227665   5.292   1.753   1.754  0.7162  0.2524 -0.1009
 9234TIP3    H127666   5.260   1.695   1.685 -1.4614  1.5562 -0.3134
 9234TIP3    H227667   5.336   1.824   1.708  1.3887 -0.0859  0.0142
 9235TIP3   OH227668   6.246   0.250   1.984  0.3761  0.0722 -0.6062
 9235TIP3    H127669   6.179   0.318   1.975 -1.6288 -1.9020 -1.4995
 9235TIP3    H227670   6.266   0.224   1.894  2.6935  0.8819 -0.3707
 9236TIP3   OH227671   6.295   2.075   3.784  0.7784 -0.6473  0.6644
 9236TIP3    H127672   6.212   2.043   3.818  0.9453 -2.3738 -0.4351
 9236TIP3    H227673   6.272   2.153   3.734 -0.1356 -0.9414  0.6093
 9237TIP3   OH227674   3.300   6.365   3.328 -0.4360 -0.0970 -0.1834
 9237TIP3    H127675   3.225   6.341   3.382 -0.2171  0.2561  0.2900
 9237TIP3    H227676   3.365   6.297   3.345 -0.9282 -0.8544 -1.2150
 9238TIP3   OH227677   5.025   0.139   3.461  0.6555 -0.2936 -0.5501
 9238TIP3    H127678   5.071   0.182   3.534 -1.2477  0.0627  0.5138
 9238TIP3    H227679   5.031   0.201   3.389  0.2185  0.6077  0.1649
 9239TIP3   OH227680   1.385   0.666   4.119 -0.1933  0.1740  0.1411
 9239TIP3    H127681   1.333   0.665   4.039 -0.3091  0.2809  0.2131
 9239TIP3    H227682   1.394   0.574   4.144  0.6937  0.0743 -0.5368
 9240TIP3   OH227683   4.771   4.043   3.962 -0.6567  0.0703 -0.0694
 9240TIP3    H127684   4.835   4.107   3.932  0.8256 -1.8950 -1.3861
 9240TIP3    H227685   4.795   4.027   4.054  0.5819 -0.3600 -0.4367
 9241TIP3   OH227686   4.896   3.881   5.776 -0.0510 -0.2541  0.0687
 9241TIP3    H127687   4.880   3.948   5.709 -0.2257  0.0731  0.4337
 9241TIP3    H227688   4.850   3.913   5.853  0.1072 -0.6564  0.3327
 9242TIP3   OH227689   5.327   6.415   5.879  0.0310 -0.7606 -0.6720
 9242TIP3    H127690   5.415   6.394   5.846 -0.5486 -0.5270 -2.4912
 9242TIP3    H227691   5.295   6.482   5.819 -1.0528 -0.1711  0.5313
 9243TIP3   OH227692   4.011   3.991   3.305  0.0571 -0.0381  0.1644
 9243TIP3    H127693   4.101   3.977   3.333 -0.1682 -0.0513  0.8848
 9243TIP3    H227694   3.993   3.916   3.248  0.5474  0.0479 -0.1142
 9244TIP3   OH227695   5.570   6.041   2.335 -0.2902  0.4594  0.7341
 9244TIP3    H127696   5.643   5.997   2.378 -0.2454 -0.1302  0.0580
 9244TIP3    H227697   5.521   6.082   2.407 -0.2050 -0.4939  1.3483
 9245TIP3   OH227698   2.944   2.410   2.535  0.1953  0.0067 -0.1732
 9245TIP3    H127699   2.878   2.406   2.466 -0.6187 -0.0294  0.5881
 9245TIP3    H227700   2.988   2.325   2.530 -0.5633 -0.4103  0.0196
 9246TIP3   OH227701   2.296   3.018   0.919  0.1447 -0.0643 -0.0108
 9246TIP3    H127702   2.300   3.000   1.013 -0.2246  0.3043  0.0755
 9246TIP3    H227703   2.230   3.087   0.910  0.5215  0.2446 -0.4865
 9247TIP3   OH227704   4.817   5.250   5.144 -0.0858  0.3478  0.3635
 9247TIP3    H127705   4.844   5.172   5.192 -4.4112 -1.9912 -0.5027
 9247TIP3    H227706   4.770   5.303   5.208 -0.8121  0.0818  0.0695
 9248TIP3   OH227707   4.710   5.748   0.024 -0.2393 -0.0109  0.6388
 9248TIP3    H127708   4.695   5.821   0.084  0.4469  1.3885 -0.8156
 9248TIP3    H227709   4.805   5.742   0.017 -0.2891  0.8406 -1.3960
 9249TIP3   OH227710   2.166   5.226   0.109 -0.1727  0.0219 -0.1548
 9249TIP3    H127711   2.107   5.284   0.158  0.3118 -0.2138  0.7268
 9249TIP3    H227712   2.127   5.221   0.022 -1.1350  0.3406  0.2403
 9250TIP3   OH227713   0.768   5.347   4.641  0.3267  0.0831  0.0690
 9250TIP3    H127714   0.778   5.307   4.728  0.8330  1.4411  0.6603
 9250TIP3    H227715   0.855   5.338   4.601  0.5905  1.0317  0.4104
 9251TIP3   OH227716   6.639   2.678   3.843  0.8331 -0.7502  0.3329
 9251TIP3    H127717   6.647   2.583   3.854 -2.0232 -1.4005 -2.0597
 9251TIP3    H227718   6.589   2.689   3.763  0.5705  2.8163  0.8264
 9252TIP3   OH227719   6.921   0.622   1.443 -0.0343 -0.4103  0.1765
 9252TIP3    H127720   6.946   0.672   1.365  0.2098  0.9664  1.0899
 9252TIP3    H227721   7.004   0.589   1.478 -0.1639 -1.1961 -0.2533
 9253TIP3   OH227722   1.694   2.703   0.389 -0.3199  0.1057  0.0306
 9253TIP3    H127723   1.775   2.652   0.393 -0.0987  0.5246  1.5834
 9253TIP3    H227724   1.722   2.792   0.411 -1.1941  0.2528  0.5835
 9254TIP3   OH227725   4.306   0.276   5.446  0.2490  0.2648  0.2587
 9254TIP3    H127726   4.250   0.351   5.465 -0.1054 -0.5912  3.0972
 9254TIP3    H227727   4.373   0.277   5.515  1.9472 -0.4653 -1.2887
 9255TIP3   OH227728   3.958   6.379   1.390 -0.4090 -0.8783 -0.0258
 9255TIP3    H127729   4.038   6.377   1.338 -0.3506 -2.8958  0.0499
 9255TIP3    H227730   3.888   6.360   1.327 -0.5016 -1.8625  0.3538
 9256TIP3   OH227731   0.882   2.048   1.784  0.0165 -0.0497  0.0987
 9256TIP3    H127732   0.890   1.972   1.726 -0.1903  0.3400 -0.4441
 9256TIP3    H227733   0.933   2.116   1.741  0.8202 -0.0903  0.9590
 9257TIP3   OH227734   5.264   6.571   2.615  0.1881  0.1803 -0.2891
 9257TIP3    H127735   5.218   6.617   2.685  0.1229 -0.2262 -0.0632
 9257TIP3    H227736   5.310   6.640   2.567 -0.2639  0.5319 -0.2217
 9258TIP3   OH227737   6.255   5.660   1.775  0.6243  0.0546  0.4866
 9258TIP3    H127738   6.189   5.694   1.715  2.2106 -1.9097 -2.6267
 9258TIP3    H227739   6.207   5.640   1.856 -1.9867  1.1970 -0.6699
 9259TIP3   OH227740   4.499   0.132   3.322 -0.2091  0.0241 -0.3936
 9259TIP3    H127741   4.581   0.153   3.277  0.0079  1.3374  0.5568
 9259TIP3    H227742   4.510   0.040   3.348  0.7284  0.0143 -0.7512
 9260TIP3   OH227743   4.308   4.470   1.710 -0.5309  0.5429  0.4431
 9260TIP3    H127744   4.278   4.541   1.654  0.6134  0.7914  0.1221
 9260TIP3    H227745   4.232   4.413   1.719 -1.0870  1.1366 -0.3574
 9261TIP3   OH227746   1.821   0.201   5.391  0.1366  0.1218  0.0097
 9261TIP3    H127747   1.905   0.164   5.362  0.8298  1.0379  0.7589
 9261TIP3    H227748   1.806   0.276   5.333  0.3772  0.5825  0.5273
 9262TIP3   OH227749   0.634   6.007   0.319  0.6190 -0.0855 -0.3221
 9262TIP3    H127750   0.680   6.031   0.400  1.2322  2.1090 -1.2385
 9262TIP3    H227751   0.703   5.987   0.257  0.2069 -0.3270 -0.7059
 9263TIP3   OH227752   0.507   1.109   2.889  0.2549 -0.3415  0.0392
 9263TIP3    H127753   0.483   1.036   2.945 -0.3725  1.1656  1.8457
 9263TIP3    H227754   0.557   1.168   2.946 -0.5023  1.3149 -0.9374
 9264TIP3   OH227755   5.315   5.202   0.099 -0.2159 -0.1205 -0.1689
 9264TIP3    H127756   5.346   5.168   0.015 -2.0302 -1.2963 -0.3967
 9264TIP3    H227757   5.234   5.247   0.078  0.8333  2.2612  0.5427
 9265TIP3   OH227758   5.412   4.549   2.719  0.3827 -0.1101  0.6318
 9265TIP3    H127759   5.442   4.628   2.765 -0.1431  0.3872  0.1289
 9265TIP3    H227760   5.449   4.557   2.631 -1.5743  0.7662 -0.1712
 9266TIP3   OH227761   1.391   0.247   5.378  0.0264 -0.5213 -0.4341
 9266TIP3    H127762   1.337   0.325   5.394  0.8770 -0.2778  1.4278
 9266TIP3    H227763   1.329   0.174   5.381 -0.4523 -0.1037 -0.0206
 9267TIP3   OH227764   5.533   1.643   2.481 -0.6740  0.7784 -0.1337
 9267TIP3    H127765   5.521   1.574   2.416  0.6683 -0.8583  1.2624
 9267TIP3    H227766   5.606   1.695   2.448  0.5176 -0.5054  0.3345
 9268TIP3   OH227767   0.968   2.968   1.996 -0.2809 -0.6600  0.2886
 9268TIP3    H127768   0.914   2.940   2.070 -1.0100 -1.0814 -0.3977
 9268TIP3    H227769   0.977   3.063   2.009  0.7906 -0.9042  1.6798
 9269TIP3   OH227770   0.955   3.379   1.865  0.1919 -0.5043  0.1270
 9269TIP3    H127771   0.902   3.300   1.852 -2.4868  1.0985  0.6290
 9269TIP3    H227772   0.915   3.445   1.809  1.5594  0.8835  0.6912
 9270TIP3   OH227773   0.261   5.126   2.385 -0.4681 -0.1541 -0.1779
 9270TIP3    H127774   0.304   5.210   2.366  1.5690 -0.8138  1.0638
 9270TIP3    H227775   0.205   5.109   2.310  1.7567  0.6568 -2.1354
 9271TIP3   OH227776   6.544   6.154   1.578  0.2863 -0.0204 -0.3226
 9271TIP3    H127777   6.574   6.134   1.666 -0.1858  0.5587 -0.0246
 9271TIP3    H227778   6.451   6.133   1.579 -0.0425  1.3701 -0.2406
 9272TIP3   OH227779   5.631   1.295   3.958 -0.1240 -0.2858  0.2763
 9272TIP3    H127780   5.536   1.283   3.956 -0.1869  0.2346 -1.7972
 9272TIP3    H227781   5.667   1.207   3.944 -0.3786 -0.1314 -1.5755
 9273TIP3   OH227782   5.578   1.269   1.181 -0.4484  0.2347  0.1395
 9273TIP3    H127783   5.509   1.242   1.241 -1.4841  0.7156 -0.8163
 9273TIP3    H227784   5.613   1.349   1.221  2.3087 -1.9852  2.7189
 9274TIP3   OH227785   0.706   0.578   0.567  0.2374  0.5446 -0.7169
 9274TIP3    H127786   0.654   0.498   0.563  1.8849 -0.8139  2.0919
 9274TIP3    H227787   0.640   0.648   0.575 -1.2194 -0.7981 -0.3464
 9275TIP3   OH227788   0.764   0.231   0.545  0.4961  0.5151  0.1998
 9275TIP3    H127789   0.688   0.280   0.576 -0.6598 -0.6092 -0.7350
 9275TIP3    H227790   0.821   0.297   0.505 -0.5563  1.2363 -0.1527
 9276TIP3   OH227791   0.151   5.196   5.570 -0.4494 -0.0299  0.3559
 9276TIP3    H127792   0.120   5.114   5.607  0.0083 -0.4610 -0.1875
 9276TIP3    H227793   0.097   5.263   5.610 -0.5125 -0.5556  1.1644
 9277TIP3   OH227794   5.398   2.873   1.804  0.2705 -0.0955 -0.7104
 9277TIP3    H127795   5.377   2.965   1.786  1.1295  0.3428  0.4224
 9277TIP3    H227796   5.313   2.829   1.809 -0.1733  0.7623 -0.6108
 9278TIP3   OH227797   2.857   1.552   2.776 -0.1421  0.1428 -0.4682
 9278TIP3    H127798   2.920   1.566   2.705  1.0156 -3.5721 -0.4194
 9278TIP3    H227799   2.779   1.518   2.733  0.1095 -0.9111 -0.1408
 9279TIP3   OH227800   0.874   0.802   3.675  0.5012  0.0280 -0.4952
 9279TIP3    H127801   0.810   0.736   3.701 -0.6365  0.9007 -0.9851
 9279TIP3    H227802   0.836   0.885   3.704  1.5313  0.5487 -0.5837
 9280TIP3   OH227803   5.667   2.532   3.634 -0.0405  0.2810 -0.0305
 9280TIP3    H127804   5.685   2.559   3.544 -0.2149 -2.1950 -0.8899
 9280TIP3    H227805   5.615   2.603   3.671 -1.9978  0.3368 -2.6656
 9281TIP3   OH227806   5.974   3.888   1.386  0.2281  0.1369 -0.1075
 9281TIP3    H127807   5.988   3.973   1.429  0.2255  0.7517 -1.2943
 9281TIP3    H227808   6.036   3.887   1.314  0.4965 -1.0556  0.1288
 9282TIP3   OH227809   3.286   2.477   4.356 -0.2636  0.1794 -0.1012
 9282TIP3    H127810   3.338   2.544   4.313  2.0486 -1.2918  0.2424
 9282TIP3    H227811   3.228   2.444   4.286 -0.8098  1.8710 -0.4812
 9283TIP3   OH227812   5.604   3.375   1.158  0.0596 -0.2768 -0.5443
 9283TIP3    H127813   5.661   3.318   1.106  2.2336 -1.0605  2.4130
 9283TIP3    H227814   5.552   3.315   1.211  0.3043  0.4417  0.5464
 9284TIP3   OH227815   6.820   0.092   0.862 -0.1576 -0.2203  0.1248
 9284TIP3    H127816   6.909   0.121   0.843 -0.2673 -0.7933 -1.4786
 9284TIP3    H227817   6.781   0.164   0.911  1.6518 -0.6238  2.2944
 9285TIP3   OH227818   5.476   4.762   2.390  0.2021  0.2681  0.6740
 9285TIP3    H127819   5.484   4.696   2.321 -1.1159  0.5689  0.2024
 9285TIP3    H227820   5.555   4.752   2.442  0.2259 -1.3959  0.3633
 9286TIP3   OH227821   6.661   5.245   3.255  0.2271 -0.2022  0.0027
 9286TIP3    H127822   6.693   5.327   3.217  2.4649 -1.2274 -0.4420
 9286TIP3    H227823   6.703   5.241   3.341  1.1516 -1.4634 -0.4856
 9287TIP3   OH227824   2.335   1.545   3.336 -0.2804  0.1355 -0.0213
 9287TIP3    H127825   2.344   1.616   3.273  0.1215  0.2917  0.2105
 9287TIP3    H227826   2.253   1.502   3.312  0.5397 -0.6738 -1.5422
 9288TIP3   OH227827   0.498   2.977   2.832  0.1119 -0.0606 -0.1153
 9288TIP3    H127828   0.449   2.994   2.912  0.9590  1.7653  0.0729
 9288TIP3    H227829   0.451   2.905   2.789 -2.1749  1.0115  0.4802
 9289TIP3   OH227830   5.451   5.664   1.579  0.0488  0.0203  0.3370
 9289TIP3    H127831   5.535   5.644   1.538 -0.1118  0.2573 -0.1118
 9289TIP3    H227832   5.466   5.650   1.672  0.9159  1.1445  0.3888
 9290TIP3   OH227833   3.764   2.940   0.771  0.6335  0.1079 -0.8060
 9290TIP3    H127834   3.684   2.951   0.822 -0.4592  1.4875 -2.6586
 9290TIP3    H227835   3.799   2.855   0.798 -1.8767 -0.9145 -0.4871
 9291TIP3   OH227836   2.466   5.805   1.623  0.1816  0.1903 -0.2754
 9291TIP3    H127837   2.554   5.827   1.654  0.7036  0.0068 -1.5661
 9291TIP3    H227838   2.427   5.757   1.696  1.5368 -0.6425 -0.0461
 9292TIP3   OH227839   1.014   3.411   3.316 -0.1615  0.3106  0.1748
 9292TIP3    H127840   1.019   3.358   3.236 -0.7128  0.1656  0.2283
 9292TIP3    H227841   0.935   3.464   3.304 -0.5928 -0.1506  0.8868
 9293TIP3   OH227842   7.133   2.854   5.721 -0.3011 -0.2901  0.5150
 9293TIP3    H127843   7.050   2.854   5.673 -0.1234 -0.9961  0.1835
 9293TIP3    H227844   7.171   2.940   5.704 -0.1646 -0.5839 -0.7709
 9294TIP3   OH227845   4.922   3.952   4.914 -0.2983  0.1813 -0.1368
 9294TIP3    H127846   4.858   3.884   4.933  0.2706 -0.2857  0.1393
 9294TIP3    H227847   4.924   3.956   4.818 -0.2398 -0.2881 -0.1599
 9295TIP3   OH227848   2.129   0.571   0.249 -0.3954 -0.2297 -0.1256
 9295TIP3    H127849   2.049   0.525   0.225 -1.0639  0.8571 -0.0792
 9295TIP3    H227850   2.113   0.599   0.340  0.7384 -1.4443  0.4783
 9296TIP3   OH227851   1.253   1.176   4.422  0.3043  0.0028  0.4563
 9296TIP3    H127852   1.287   1.115   4.488  0.3100 -1.6869 -1.0216
 9296TIP3    H227853   1.331   1.203   4.373 -0.0135 -1.2110 -0.7844
 9297TIP3   OH227854   5.922   0.932   0.870  0.6474  0.3180 -0.3244
 9297TIP3    H127855   5.921   0.907   0.777 -0.6568  1.4651 -0.6432
 9297TIP3    H227856   5.958   0.855   0.915 -0.6658 -1.0644 -1.5431
 9298TIP3   OH227857   4.902   2.666   4.654  0.0157  0.3012 -0.3209
 9298TIP3    H127858   4.994   2.688   4.637  0.3287  0.4561  1.4746
 9298TIP3    H227859   4.903   2.572   4.673 -0.1858  0.3190 -0.2185
 9299TIP3   OH227860   5.539  -0.017   2.815 -0.1709  0.3767  0.1375
 9299TIP3    H127861   5.549   0.075   2.839 -1.6775  0.8515 -0.8772
 9299TIP3    H227862   5.553  -0.018   2.720  0.5139 -0.5630  0.2369
 9300TIP3   OH227863   1.487   3.726   2.507 -0.2122 -0.6588  0.4644
 9300TIP3    H127864   1.493   3.637   2.543  0.4507 -0.7323  0.1993
 9300TIP3    H227865   1.569   3.737   2.459  0.6771  0.8560  2.2015
 9301TIP3   OH227866   7.032   2.191   3.406 -0.5584  0.5364  0.3923
 9301TIP3    H127867   7.065   2.154   3.488  0.0087 -0.7133 -0.3627
 9301TIP3    H227868   6.993   2.275   3.431  1.9850  1.4774  1.5666
 9302TIP3   OH227869   0.516   3.231   2.720  0.3486  0.5589  0.2035
 9302TIP3    H127870   0.569   3.293   2.770  1.7655 -0.8678  0.5403
 9302TIP3    H227871   0.522   3.149   2.770 -1.0359 -0.0138 -0.5079
 9303TIP3   OH227872   7.047   6.241   1.063 -0.1148  0.0993  0.3331
 9303TIP3    H127873   7.033   6.225   1.156  0.9964  0.2287  0.5369
 9303TIP3    H227874   6.961   6.265   1.029 -0.4602  0.4001  1.3993
 9304TIP3   OH227875   6.299   5.605   0.853 -0.3264  0.2879 -0.3052
 9304TIP3    H127876   6.321   5.631   0.943  0.4362 -0.3209 -0.3073
 9304TIP3    H227877   6.383   5.577   0.815 -0.7792 -0.2102 -0.9539
 9305TIP3   OH227878   4.948   1.564   3.941  0.7013  0.7669  0.3985
 9305TIP3    H127879   5.007   1.627   3.982 -0.3006  1.4484  0.8246
 9305TIP3    H227880   4.910   1.516   4.014  1.3468 -0.2564  0.0820
 9306TIP3   OH227881   3.129   3.967   5.606 -0.6629  0.4043  0.4998
 9306TIP3    H127882   3.137   4.003   5.694 -0.7470  2.2075 -0.1947
 9306TIP3    H227883   3.180   4.026   5.551  0.4685 -1.4131 -0.5017
 9307TIP3   OH227884   3.708   6.693   0.376 -0.6689 -0.0490  0.1440
 9307TIP3    H127885   3.722   6.757   0.306 -0.8978 -0.2653 -0.1019
 9307TIP3    H227886   3.764   6.619   0.351 -2.2296 -0.9491 -0.8750
 9308TIP3   OH227887   6.866   2.711   1.550  0.4978  0.0002  0.0442
 9308TIP3    H127888   6.782   2.735   1.588 -0.1881 -1.4957 -0.4218
 9308TIP3    H227889   6.892   2.631   1.596  0.8802 -0.4322 -0.8791
 9309TIP3   OH227890   6.767   5.217   0.311 -0.2816 -0.0950  0.1766
 9309TIP3    H127891   6.761   5.298   0.261  0.8184  0.3423  0.7041
 9309TIP3    H227892   6.858   5.214   0.340 -0.3644 -1.4030  0.3718
 9310TIP3   OH227893   4.899   5.023   5.275  0.0518 -0.1035  0.1702
 9310TIP3    H127894   4.819   4.986   5.311 -0.9267 -0.0429 -1.8217
 9310TIP3    H227895   4.952   4.947   5.249 -0.2113 -0.1346 -0.2782
 9311TIP3   OH227896   4.194   4.890   5.627  0.9441  0.0148 -0.2530
 9311TIP3    H127897   4.204   4.920   5.536  0.6978  0.0940 -0.2559
 9311TIP3    H227898   4.131   4.951   5.665  1.0818  0.0094 -0.0132
 9312TIP3   OH227899   3.631   1.877   5.538 -0.2573 -0.4629  0.1189
 9312TIP3    H127900   3.727   1.880   5.538 -0.2589 -0.3760 -0.0230
 9312TIP3    H227901   3.604   1.965   5.564 -0.2985 -0.7221  0.9717
 9313TIP3   OH227902   5.907   6.074   5.390  0.3981 -0.1108 -0.0116
 9313TIP3    H127903   5.904   6.057   5.295 -1.2025  0.8111 -0.1507
 9313TIP3    H227904   5.961   6.003   5.425 -1.4094 -2.2167 -1.2448
 9314TIP3   OH227905   4.006   2.572   4.800  0.3849  0.1772  1.4189
 9314TIP3    H127906   4.067   2.623   4.748 -2.0235  1.6886 -0.1270
 9314TIP3    H227907   4.044   2.484   4.803  1.1866  0.2940 -1.9838
 9315TIP3   OH227908   5.571   0.100   3.621  0.6671 -0.2778  0.1054
 9315TIP3    H127909   5.550   0.189   3.592 -1.7747 -1.2358 -1.4373
 9315TIP3    H227910   5.525   0.090   3.704  2.3910  0.4101  1.1848
 9316TIP3   OH227911   2.677   0.666   2.925  0.2184 -0.3603  0.2176
 9316TIP3    H127912   2.747   0.601   2.922  0.8459  0.3309 -0.5772
 9316TIP3    H227913   2.642   0.667   2.835 -1.2204 -1.1316  0.7461
 9317TIP3   OH227914   2.541   3.658   0.045  0.5627  0.9912 -0.3145
 9317TIP3    H127915   2.489   3.688  -0.030  1.1707  2.0129 -0.3479
 9317TIP3    H227916   2.627   3.697   0.031  0.6660  1.2599  0.9618
 9318TIP3   OH227917   1.573   2.087   2.600  0.1384  0.1529 -0.2417
 9318TIP3    H127918   1.573   2.009   2.655  0.4930 -0.3945 -1.0131
 9318TIP3    H227919   1.661   2.122   2.607  0.0012  0.4541  0.0434
 9319TIP3   OH227920   6.114   1.536   1.009  0.0058  0.0805 -0.1367
 9319TIP3    H127921   6.187   1.492   1.053  1.2270  2.0783 -0.0535
 9319TIP3    H227922   6.155   1.585   0.938 -0.9599  2.7483  1.0347
 9320TIP3   OH227923   0.117   1.833   5.692 -0.3085 -0.0861  0.5731
 9320TIP3    H127924   0.162   1.756   5.726 -1.8791 -0.2422  2.4187
 9320TIP3    H227925   0.087   1.880   5.770 -1.9052  0.8612 -0.5541
 9321TIP3   OH227926   5.908   4.586   5.107  0.1674  0.0784  0.2181
 9321TIP3    H127927   5.875   4.504   5.142 -0.5640  0.1683 -0.2282
 9321TIP3    H227928   5.836   4.619   5.052  0.1705  1.3579  0.9504
 9322TIP3   OH227929   5.718   5.913   0.515  0.4316 -0.1482  0.1770
 9322TIP3    H127930   5.718   5.870   0.430  0.9195  1.3642 -0.6231
 9322TIP3    H227931   5.761   5.997   0.500 -0.6274  0.7070  1.6218
 9323TIP3   OH227932   4.878   4.436   3.113 -0.0752  0.3400  0.1018
 9323TIP3    H127933   4.903   4.411   3.203 -0.8361 -0.4307  0.1098
 9323TIP3    H227934   4.962   4.458   3.071  0.6066 -1.6974  0.2807
 9324TIP3   OH227935   1.768   3.649   0.127  0.3567  0.3655 -0.0142
 9324TIP3    H127936   1.780   3.639   0.221  0.8796 -1.2819 -0.2208
 9324TIP3    H227937   1.842   3.703   0.099  1.0811 -0.4355  0.3181
 9325TIP3   OH227938   3.052   1.812   2.853 -0.1289  0.4751  0.7982
 9325TIP3    H127939   2.996   1.769   2.918 -1.3243  0.6577 -0.0916
 9325TIP3    H227940   3.140   1.808   2.892 -0.3719 -1.7171  1.2760
 9326TIP3   OH227941   7.128   0.529   2.752 -0.0253 -0.0042 -0.4415
 9326TIP3    H127942   7.135   0.453   2.695  0.6805  1.4646 -2.4332
 9326TIP3    H227943   7.058   0.582   2.714  0.2939  0.9129  0.1999
 9327TIP3   OH227944   3.279   3.356   4.037  0.0132 -0.5998 -0.0477
 9327TIP3    H127945   3.348   3.422   4.045 -0.6589  0.0488  0.5590
 9327TIP3    H227946   3.239   3.373   3.952  1.0673 -1.4606 -0.7409
 9328TIP3   OH227947   4.346   3.325   3.533 -0.1230 -0.2053 -0.5323
 9328TIP3    H127948   4.284   3.363   3.594  0.1635 -0.4786 -0.0650
 9328TIP3    H227949   4.300   3.325   3.449 -0.6268 -0.0935 -0.2616
 9329TIP3   OH227950   3.126   0.215   0.069 -0.0519  0.4743 -0.1367
 9329TIP3    H127951   3.084   0.174   0.145  2.6206  0.5833  1.5317
 9329TIP3    H227952   3.184   0.148   0.034  0.6271  1.2338 -0.4884
 9330TIP3   OH227953   5.940   2.030   5.388  0.3194  0.1108  0.3329
 9330TIP3    H127954   5.896   2.062   5.467  1.2791  0.1956  0.8525
 9330TIP3    H227955   5.902   2.080   5.317  0.6377  1.2658  0.9437
 9331TIP3   OH227956   3.411   5.194   5.577  0.8145  0.1197  0.1778
 9331TIP3    H127957   3.327   5.219   5.616 -0.1882 -0.7653 -1.2819
 9331TIP3    H227958   3.435   5.268   5.521  2.3641  1.4841  2.4900
 9332TIP3   OH227959   5.864   0.964   2.254  0.0534  0.4160  0.5530
 9332TIP3    H127960   5.947   0.981   2.209  0.5754  0.2817  1.4384
 9332TIP3    H227961   5.873   1.010   2.338  0.0670 -1.2545  1.5158
 9333TIP3   OH227962   3.482   6.764   2.419 -0.4631 -0.6769 -0.1545
 9333TIP3    H127963   3.490   6.709   2.497  2.8458  0.1550  0.2533
 9333TIP3    H227964   3.415   6.828   2.442 -0.8407 -1.5329  1.2959
 9334TIP3   OH227965   0.690   5.719   1.717  0.0608 -0.0156  0.1380
 9334TIP3    H127966   0.676   5.633   1.758  1.1174  0.1595  0.9288
 9334TIP3    H227967   0.783   5.721   1.697  0.1618  1.1414  0.6169
 9335TIP3   OH227968   5.335   2.934   5.485  0.0828 -0.0128 -0.1195
 9335TIP3    H127969   5.252   2.983   5.483  0.7208  1.1479  0.8427
 9335TIP3    H227970   5.327   2.877   5.562 -1.3256 -2.7643 -2.1096
 9336TIP3   OH227971   6.138   5.407   1.416 -0.0153 -0.4205 -0.3559
 9336TIP3    H127972   6.077   5.335   1.432 -0.9063  0.0348 -1.5730
 9336TIP3    H227973   6.084   5.478   1.382  1.0907  0.2373 -0.8090
 9337TIP3   OH227974   6.299   4.129   4.530  0.0591 -0.1645 -0.8317
 9337TIP3    H127975   6.246   4.205   4.551  0.8606  0.4846 -1.1041
 9337TIP3    H227976   6.241   4.054   4.543  0.3508  0.1240  3.5719
 9338TIP3   OH227977   1.719   5.259   4.029 -0.2351  0.1182  0.3246
 9338TIP3    H127978   1.698   5.289   3.941  0.8177 -1.9531 -0.7088
 9338TIP3    H227979   1.812   5.237   4.026  0.2585  1.5836  2.4677
 9339TIP3   OH227980   3.130   5.203   0.846  0.1706  0.5834 -0.1584
 9339TIP3    H127981   3.084   5.123   0.872  0.9203 -0.4422 -1.8078
 9339TIP3    H227982   3.126   5.259   0.923 -2.3479 -0.1218  0.3108
 9340TIP3   OH227983   5.762   3.130   3.364 -0.1628 -0.3671 -0.0759
 9340TIP3    H127984   5.797   3.089   3.442 -0.1868 -0.3507 -0.0566
 9340TIP3    H227985   5.833   3.187   3.333 -0.2960 -0.0663  0.1601
 9341TIP3   OH227986   1.310   6.668   1.188 -0.4500 -0.0224 -0.1694
 9341TIP3    H127987   1.316   6.758   1.156 -0.6951  0.6058  1.4890
 9341TIP3    H227988   1.232   6.667   1.243  0.4187 -0.8191  1.0907
 9342TIP3   OH227989  -0.027   5.834   0.073  0.0990  0.3156  0.6777
 9342TIP3    H127990   0.029   5.758   0.054  0.7340  0.7927  0.5792
 9342TIP3    H227991   0.028   5.891   0.127 -0.1829  0.9331  0.3316
 9343TIP3   OH227992   4.586   6.012   0.532 -0.4416  0.3415  0.0258
 9343TIP3    H127993   4.507   5.965   0.558 -0.1583 -0.4205 -0.4580
 9343TIP3    H227994   4.553   6.093   0.492 -0.9633  0.1940  0.1432
 9344TIP3   OH227995   3.427   4.261   0.747 -0.0158  0.3550  0.7126
 9344TIP3    H127996   3.493   4.213   0.698  0.1255  0.7078  0.5505
 9344TIP3    H227997   3.419   4.215   0.830  0.8730  0.6630  0.9823
 9345TIP3   OH227998   5.136   5.939   4.368 -0.4752 -0.7892 -0.5056
 9345TIP3    H127999   5.074   6.009   4.390 -0.7961 -1.6477  1.5428
 9345TIP3    H228000   5.218   5.967   4.407  0.0766 -0.3904 -1.8893
 9346TIP3   OH228001   0.914   5.802   3.464  0.0828  0.0697 -0.3063
 9346TIP3    H128002   0.904   5.841   3.377  0.2694 -0.4798 -0.5791
 9346TIP3    H228003   0.957   5.718   3.448  1.9498  0.8167  0.4869
 9347TIP3   OH228004   4.300   3.218   4.858 -0.8814  0.0686 -0.2017
 9347TIP3    H128005   4.312   3.124   4.846  1.1942  0.4272 -1.4831
 9347TIP3    H228006   4.209   3.227   4.887 -0.6566 -2.4261  1.6142
 9348TIP3   OH228007   4.826   2.735   3.808  0.1945  0.3308 -0.7856
 9348TIP3    H128008   4.779   2.738   3.725  0.3566 -3.2686 -1.2091
 9348TIP3    H228009   4.781   2.667   3.859  1.6739  0.5929  0.9909
 9349TIP3   OH228010   4.952   5.761   1.385 -0.1478  0.0239  0.5781
 9349TIP3    H128011   4.858   5.775   1.397  0.0074 -0.2863  2.6546
 9349TIP3    H228012   4.960   5.724   1.298 -2.3584 -3.0661  1.5069
 9350TIP3   OH228013   3.005   4.488   3.963 -0.3036 -0.6158 -0.5259
 9350TIP3    H128014   3.047   4.571   3.942  0.0877 -1.3426 -2.8816
 9350TIP3    H228015   2.948   4.508   4.037  1.2258  1.2841  0.2164
 9351TIP3   OH228016   5.808   0.318   3.532  0.0397  0.1439 -0.0706
 9351TIP3    H128017   5.876   0.331   3.598  0.0706  0.4789 -0.1692
 9351TIP3    H228018   5.727   0.347   3.575 -0.2879 -1.6150  0.5670
 9352TIP3   OH228019   4.510   0.161   1.399 -0.3922 -0.1806  0.5325
 9352TIP3    H128020   4.476   0.250   1.389 -0.8955 -0.4690 -0.3931
 9352TIP3    H228021   4.548   0.160   1.487 -0.8902  0.7777  0.7747
 9353TIP3   OH228022   6.668   0.679   4.324  0.1089  0.5284  0.6179
 9353TIP3    H128023   6.681   0.585   4.325 -1.7083  0.2157 -0.1489
 9353TIP3    H228024   6.630   0.700   4.409  0.6523  0.5923  0.8442
 9354TIP3   OH228025   4.546   3.983   3.443 -0.2314 -0.4336 -0.3117
 9354TIP3    H128026   4.561   4.035   3.522  1.3318 -0.6156 -0.4526
 9354TIP3    H228027   4.573   4.041   3.371 -0.0665 -0.8416 -0.5811
 9355TIP3   OH228028   2.940   6.627   2.461 -0.2172 -0.0339 -0.0668
 9355TIP3    H128029   2.883   6.687   2.510  0.2242  0.5907 -0.3123
 9355TIP3    H228030   2.884   6.591   2.392 -0.3390  0.5155 -0.2557
 9356TIP3   OH228031   5.372   0.414   0.625  0.4255  0.1882  0.1640
 9356TIP3    H128032   5.343   0.450   0.709 -1.1643 -0.1076 -0.2201
 9356TIP3    H228033   5.322   0.463   0.559 -0.2808 -1.3013 -0.4616
 9357TIP3   OH228034   1.783   1.422   2.861  0.0627 -0.0781  0.8706
 9357TIP3    H128035   1.711   1.405   2.801  2.4242 -0.2074 -2.1347
 9357TIP3    H228036   1.802   1.336   2.900 -0.9440 -0.1679  1.2017
 9358TIP3   OH228037   5.105   2.066   4.017 -0.1170 -1.1385 -0.2793
 9358TIP3    H128038   5.138   2.047   4.105  0.4013 -0.0273 -0.2150
 9358TIP3    H228039   5.174   2.035   3.958  0.5124  0.0074 -0.1909
 9359TIP3   OH228040   4.291   2.563   4.281  0.1495 -0.0862  0.5214
 9359TIP3    H128041   4.355   2.607   4.224  1.2246 -1.3999  0.6494
 9359TIP3    H228042   4.231   2.519   4.220  1.3980 -1.6279  0.3409
 9360TIP3   OH228043   2.974   4.100   3.971  0.0417 -0.0919  0.1096
 9360TIP3    H128044   3.021   4.110   4.054 -0.4496 -0.5470  0.4503
 9360TIP3    H228045   3.005   4.016   3.937  0.0490 -0.0260 -0.0446
 9361TIP3   OH228046   1.400   3.763   4.772  0.2036  0.5207 -0.2047
 9361TIP3    H128047   1.364   3.677   4.792 -1.6066  0.3948 -3.2415
 9361TIP3    H228048   1.442   3.752   4.686  2.5124  2.0563  0.6434
 9362TIP3   OH228049   2.139   1.177   3.741  0.6208  0.0103  0.0980
 9362TIP3    H128050   2.121   1.260   3.786  0.7390 -0.6703  1.4541
 9362TIP3    H228051   2.228   1.154   3.767 -0.2279 -1.7256  1.7514
 9363TIP3   OH228052   1.720   0.691   4.632 -0.1386 -0.3501 -0.0789
 9363TIP3    H128053   1.669   0.747   4.573 -0.3344 -1.0103 -0.5457
 9363TIP3    H228054   1.680   0.705   4.718 -0.2125  0.1897 -0.1964
 9364TIP3   OH228055   1.757   1.887   3.092  0.7183 -0.7199  0.3521
 9364TIP3    H128056   1.725   1.812   3.043 -1.0478 -1.3514  2.2961
 9364TIP3    H228057   1.691   1.901   3.160  0.4420  3.2087 -0.4618
 9365TIP3   OH228058   2.414   5.147   0.414 -0.2117  0.1092  0.4067
 9365TIP3    H128059   2.424   5.111   0.501 -0.7341  2.4005  1.4895
 9365TIP3    H228060   2.497   5.129   0.370  0.6247  0.2253  1.8960
 9366TIP3   OH228061   2.708   4.888   2.777 -0.2987 -0.4330 -0.5539
 9366TIP3    H128062   2.738   4.840   2.854  0.2141 -0.0026 -0.4754
 9366TIP3    H228063   2.767   4.862   2.707 -1.6736 -1.9770 -1.2118
 9367TIP3   OH228064   4.068   2.309   4.850  0.5271  0.0862  0.4643
 9367TIP3    H128065   4.015   2.245   4.803  0.3900 -0.2487  1.0591
 9367TIP3    H228066   4.039   2.301   4.941  2.1810 -0.7075  0.9593
 9368TIP3   OH228067   4.356   3.433   3.832  0.0682 -0.0297  0.0914
 9368TIP3    H128068   4.398   3.451   3.748  0.3546 -0.2027  0.1965
 9368TIP3    H228069   4.265   3.414   3.809  0.0738  0.2279 -0.1484
 9369TIP3   OH228070   6.493   4.861   3.962 -0.1822  0.3662  0.1649
 9369TIP3    H128071   6.574   4.893   3.921 -0.6905  0.9277 -0.4418
 9369TIP3    H228072   6.426   4.872   3.894 -0.7257 -0.3148  0.5749
 9370TIP3   OH228073   1.659   6.241   2.846 -0.5084 -0.2043 -0.4523
 9370TIP3    H128074   1.588   6.217   2.787 -0.0010  0.0656 -1.1745
 9370TIP3    H228075   1.658   6.173   2.914 -1.5673 -0.1014 -0.3558
 9371TIP3   OH228076   3.178   0.726   5.337  0.8709  0.0461  0.0817
 9371TIP3    H128077   3.210   0.750   5.250 -2.7323  1.3179 -1.0915
 9371TIP3    H228078   3.248   0.752   5.397  2.1407  2.2656 -2.1827
 9372TIP3   OH228079   0.409   1.923   3.012 -0.5302  0.4221  0.0336
 9372TIP3    H128080   0.480   1.931   2.948 -0.3535  0.1013  0.1873
 9372TIP3    H228081   0.361   1.845   2.985 -0.4741  0.3050  0.2800
 9373TIP3   OH228082   6.840   5.218   1.648 -0.6331 -0.7303  0.6244
 9373TIP3    H128083   6.927   5.236   1.612 -0.6633  1.2532  1.4694
 9373TIP3    H228084   6.782   5.279   1.602 -1.4384 -1.3684  0.7721
 9374TIP3   OH228085   6.704   5.759   3.032 -0.5461 -0.3168  0.1162
 9374TIP3    H128086   6.676   5.702   2.960  1.9310 -1.2472 -0.2198
 9374TIP3    H228087   6.693   5.848   2.998 -0.1595 -0.7211 -1.1431
 9375TIP3   OH228088   2.962   1.249   3.409 -0.5319 -0.3660  0.7632
 9375TIP3    H128089   3.039   1.231   3.355 -1.5216 -2.6049 -0.0258
 9375TIP3    H228090   2.900   1.292   3.350 -0.9378 -1.1853  0.5742
 9376TIP3   OH228091   1.514   6.709   1.962 -0.1668  0.4829 -0.0599
 9376TIP3    H128092   1.483   6.633   1.913 -0.8925  0.5842  0.2274
 9376TIP3    H228093   1.601   6.685   1.992 -0.1811 -0.0281 -0.4280
 9377TIP3   OH228094   3.932   0.465   4.662  0.0014  0.3044  0.3882
 9377TIP3    H128095   4.000   0.510   4.712 -0.2611  0.9150  0.2088
 9377TIP3    H228096   3.850   0.487   4.707 -0.0616 -0.6838  0.7915
 9378TIP3   OH228097   2.110   1.908   1.127  0.1928 -0.1577  0.1490
 9378TIP3    H128098   2.122   1.980   1.188 -1.8730 -1.2676  1.9900
 9378TIP3    H228099   2.034   1.932   1.074 -0.4550 -0.9102  0.7150
 9379TIP3   OH228100   1.673   4.250   4.359 -0.3261 -0.0324  0.2498
 9379TIP3    H128101   1.644   4.164   4.390  0.4234 -0.8184 -1.1064
 9379TIP3    H228102   1.621   4.265   4.280  2.3774 -1.2283 -1.9206
 9380TIP3   OH228103   6.233   3.172   1.996 -0.1716  0.0371  0.4869
 9380TIP3    H128104   6.208   3.097   1.943  0.8147  0.4857 -0.6613
 9380TIP3    H228105   6.303   3.139   2.052  0.4067  0.1331 -0.1653
 9381TIP3   OH228106   4.348   1.126   3.523 -0.0414  0.0559  0.0160
 9381TIP3    H128107   4.309   1.136   3.610 -0.9241  0.5162 -0.4178
 9381TIP3    H228108   4.306   1.195   3.471  1.1858  0.4025 -0.5359
 9382TIP3   OH228109   2.911   2.560   4.500  0.3305  0.1285 -0.1220
 9382TIP3    H128110   2.918   2.512   4.417  0.1702  0.2634 -0.2147
 9382TIP3    H228111   2.819   2.550   4.526  0.3682  0.1320  0.0110
 9383TIP3   OH228112   2.582   1.606   0.421  0.4388 -0.1739  0.3097
 9383TIP3    H128113   2.661   1.560   0.395 -0.1216 -2.4682  2.3748
 9383TIP3    H228114   2.612   1.694   0.443  2.0490 -0.3975 -0.8033
 9384TIP3   OH228115   6.009   6.776   5.193  0.3653 -0.3087  0.1642
 9384TIP3    H128116   5.927   6.738   5.161  0.0630 -1.5952  2.2427
 9384TIP3    H228117   5.982   6.843   5.256  0.9114  0.4166 -0.3682
 9385TIP3   OH228118   2.556   6.777   1.219 -0.1883 -0.2467  0.0760
 9385TIP3    H128119   2.548   6.688   1.186  1.6512 -0.5994  0.4385
 9385TIP3    H228120   2.650   6.789   1.233 -0.5417  1.1861  1.5932
 9386TIP3   OH228121   4.661   3.513   3.849 -0.5510  0.1373 -0.0791
 9386TIP3    H128122   4.567   3.515   3.864 -0.6106 -1.5729 -0.0431
 9386TIP3    H228123   4.682   3.600   3.815 -2.2910  0.2536 -0.9473
 9387TIP3   OH228124   6.248   5.740   2.464 -0.1769  0.4611  0.0488
 9387TIP3    H128125   6.341   5.723   2.473 -0.4565 -1.1100  0.2283
 9387TIP3    H228126   6.213   5.661   2.423 -1.5584  0.6678  0.7630
 9388TIP3   OH228127   0.272   4.398   2.959  0.2522 -0.4800 -0.3867
 9388TIP3    H128128   0.232   4.314   2.936 -0.5878  0.1846 -1.4045
 9388TIP3    H228129   0.229   4.423   3.041  1.4085 -1.6175  0.6112
 9389TIP3   OH228130   0.704   5.899   4.572  1.0356  0.0541  0.2891
 9389TIP3    H128131   0.744   5.898   4.659 -1.4783 -0.0568  1.5098
 9389TIP3    H228132   0.612   5.878   4.587  0.0512  2.0944 -2.1414
 9390TIP3   OH228133   0.818   6.641   0.276  0.4313  0.5121  0.6465
 9390TIP3    H128134   0.800   6.728   0.311  1.4331  1.2888 -0.6578
 9390TIP3    H228135   0.907   6.647   0.242  0.1122 -0.6693 -0.4849
 9391TIP3   OH228136   6.072   2.562   0.411  0.4268 -0.1997  0.1169
 9391TIP3    H128137   6.097   2.562   0.319  0.9024  2.4888  0.1652
 9391TIP3    H228138   5.979   2.539   0.411  0.4709 -0.4166 -1.0043
 9392TIP3   OH228139   3.166   1.521   2.800 -1.0349 -0.2227 -0.4796
 9392TIP3    H128140   3.097   1.569   2.755 -0.9812  0.3994  0.0797
 9392TIP3    H228141   3.146   1.532   2.893 -1.1333 -1.4703 -0.3356
 9393TIP3   OH228142   6.751   2.952   5.155  0.1741 -0.5132 -0.6092
 9393TIP3    H128143   6.664   2.986   5.134 -0.8791 -2.2364  0.6270
 9393TIP3    H228144   6.809   2.991   5.090 -1.4258  1.0902 -1.1557
 9394TIP3   OH228145   0.233   4.372   1.641  0.0873  0.1691  0.4040
 9394TIP3    H128146   0.189   4.344   1.561  2.2102  1.8760 -1.5095
 9394TIP3    H228147   0.232   4.295   1.697 -1.4741 -1.1054 -1.2545
 9395TIP3   OH228148   2.964   5.556   4.942 -0.1661  0.7602  0.4028
 9395TIP3    H128149   3.030   5.549   4.873 -0.2560  0.9747  0.2928
 9395TIP3    H228150   2.997   5.500   5.013 -0.9216 -0.8332 -0.4726
 9396TIP3   OH228151   5.352   5.723   3.794  0.0913  0.0906  0.8087
 9396TIP3    H128152   5.366   5.816   3.779 -0.1726 -0.1054 -0.9145
 9396TIP3    H228153   5.437   5.690   3.824  0.1828  0.8697  1.4273
 9397TIP3   OH228154   3.091   5.866   2.744 -0.0181  0.2339 -0.0732
 9397TIP3    H128155   3.105   5.780   2.705 -0.0221 -0.0891  0.6115
 9397TIP3    H228156   3.081   5.848   2.838 -0.2306  0.9591  0.0491
 9398TIP3   OH228157   5.042   5.090   0.371  0.7003  0.0210  0.1304
 9398TIP3    H128158   5.107   5.160   0.379 -0.4179  0.9405  1.7551
 9398TIP3    H228159   5.050   5.041   0.453  0.0155 -0.4659 -0.0904
 9399TIP3   OH228160   3.542   3.576   4.480  0.1411 -0.0087  0.1203
 9399TIP3    H128161   3.607   3.548   4.544  0.3850 -0.5033 -0.3395
 9399TIP3    H228162   3.462   3.531   4.505  0.0247  0.4452  0.5685
 9400TIP3   OH228163   0.043   5.030   3.353 -0.2952  0.2881  0.0435
 9400TIP3    H128164   0.049   4.985   3.437  0.9819  0.3077 -0.0179
 9400TIP3    H228165   0.131   5.065   3.338 -0.5928  0.5877 -1.1377
 9401TIP3   OH228166   2.242   5.744   2.425  0.3204  0.4611  0.0159
 9401TIP3    H128167   2.297   5.786   2.359  1.0018  1.0153  0.8981
 9401TIP3    H228168   2.187   5.815   2.459  0.0421  0.2072  0.1012
 9402TIP3   OH228169   1.095   2.691   2.909  0.0036  0.3362 -0.2896
 9402TIP3    H128170   1.129   2.778   2.931  1.3706  0.0772 -1.2748
 9402TIP3    H228171   1.172   2.639   2.888 -0.8854 -0.7638 -0.9878
 9403TIP3   OH228172   6.822   3.521   3.226 -0.3515 -0.0721 -0.3158
 9403TIP3    H128173   6.909   3.534   3.189 -0.8903  0.9393 -1.2886
 9403TIP3    H228174   6.828   3.556   3.314  0.5075 -1.0076  0.0238
 9404TIP3   OH228175   6.746   3.228   4.773 -0.4383  0.5036  0.2422
 9404TIP3    H128176   6.749   3.322   4.787 -1.3466  0.9316 -2.0651
 9404TIP3    H228177   6.657   3.202   4.797 -0.9471  0.6799 -1.3581
 9405TIP3   OH228178   0.409   4.713   2.442 -0.3207 -0.5934  0.4974
 9405TIP3    H128179   0.448   4.704   2.529  3.3885  3.1104 -0.4847
 9405TIP3    H228180   0.323   4.752   2.459  0.4529  0.3798  2.5491
 9406TIP3   OH228181   0.444   2.516   0.806  0.2189  0.1222 -0.1746
 9406TIP3    H128182   0.431   2.503   0.900  0.6107  0.1627 -0.1145
 9406TIP3    H228183   0.377   2.461   0.765  0.5868 -0.5473  0.1138
 9407TIP3   OH228184   6.645   4.304   5.434  0.2819 -0.1916  0.3794
 9407TIP3    H128185   6.645   4.340   5.346  1.7054  0.7639  0.7237
 9407TIP3    H228186   6.676   4.214   5.424 -1.9921 -0.9635 -0.3357
 9408TIP3   OH228187   6.133   6.092   4.823  0.2758 -0.3733 -0.1067
 9408TIP3    H128188   6.172   6.101   4.736  1.8389  1.3712  0.7078
 9408TIP3    H228189   6.124   6.182   4.855 -4.4251 -0.5802 -0.1477
 9409TIP3   OH228190   7.107   4.225   5.833  0.1162 -0.5466 -0.2580
 9409TIP3    H128191   7.060   4.308   5.841 -1.4352 -1.3024 -1.0969
 9409TIP3    H228192   7.044   4.166   5.791  1.5212 -1.8761 -0.5642
 9410TIP3   OH228193   0.255   3.326   5.201 -0.1099  0.0980  0.1861
 9410TIP3    H128194   0.256   3.235   5.171 -0.6763  0.3768 -0.7347
 9410TIP3    H228195   0.221   3.375   5.126  0.5199  1.1175  0.5407
 9411TIP3   OH228196   6.820   5.180   1.925  0.0713  0.0744 -0.0480
 9411TIP3    H128197   6.726   5.163   1.931 -0.0560  0.5069 -0.8036
 9411TIP3    H228198   6.841   5.173   1.832  1.1477 -1.8057  0.2676
 9412TIP3   OH228199   0.468   4.899   3.899  0.8374 -0.1857  0.2200
 9412TIP3    H128200   0.544   4.914   3.843  0.1537  0.8573 -0.4693
 9412TIP3    H228201   0.414   4.837   3.850  1.1163 -0.7540  0.6104
 9413TIP3   OH228202   2.975   5.974   0.583 -0.3003  0.0025 -0.3009
 9413TIP3    H128203   2.926   6.026   0.646 -1.3146 -0.9094 -0.3102
 9413TIP3    H228204   2.949   5.883   0.601  0.5702 -0.4049 -1.0177
 9414TIP3   OH228205   0.933   1.548   4.202  0.2920 -0.2095 -0.1117
 9414TIP3    H128206   0.864   1.501   4.155 -0.6473  1.9007 -0.9683
 9414TIP3    H228207   0.902   1.552   4.292  0.0837 -0.6926 -0.1617
 9415TIP3   OH228208   4.489   4.006   5.159  0.5508  0.1546  0.1060
 9415TIP3    H128209   4.543   4.083   5.179  0.5037  0.1176  0.3771
 9415TIP3    H228210   4.514   3.983   5.069  0.6832  0.3885  0.0801
 9416TIP3   OH228211   6.207   6.205   0.576  0.3342  0.2003 -0.2722
 9416TIP3    H128212   6.268   6.169   0.640  1.3869  1.4675 -0.5162
 9416TIP3    H228213   6.150   6.263   0.628  1.0342  1.0407 -0.4178
 9417TIP3   OH228214   5.762   0.250   5.334  0.0366 -0.5889 -0.2347
 9417TIP3    H128215   5.843   0.233   5.286  1.6920  0.3573  2.0267
 9417TIP3    H228216   5.790   0.260   5.425 -2.0639  3.3001  0.2255
 9418TIP3   OH228217   6.473   6.678   0.684 -0.5788 -0.3950 -0.1419
 9418TIP3    H128218   6.385   6.654   0.713 -0.7778  3.2730  3.1067
 9418TIP3    H228219   6.464   6.768   0.651  1.6686 -0.5573 -1.3845
 9419TIP3   OH228220   4.660   3.480   0.094 -0.1082  0.0561 -0.0827
 9419TIP3    H128221   4.567   3.459   0.094 -0.3165  0.9424  0.3696
 9419TIP3    H228222   4.671   3.542   0.167  0.3967  1.9117 -1.6556
 9420TIP3   OH228223   1.771   3.102   3.429 -0.1340 -0.5030 -0.2356
 9420TIP3    H128224   1.799   3.086   3.339 -0.6164 -1.1649 -0.2772
 9420TIP3    H228225   1.699   3.040   3.443 -0.9664  0.5291  0.1615
 9421TIP3   OH228226   2.109   1.198   0.396  0.2414  0.1102  0.0472
 9421TIP3    H128227   2.182   1.182   0.456 -0.4125  1.0010  1.1220
 9421TIP3    H228228   2.077   1.111   0.372  2.1805 -0.3334 -1.1497
 9422TIP3   OH228229   5.409   3.638   4.610 -0.4160 -0.4756 -0.0218
 9422TIP3    H128230   5.491   3.622   4.658 -0.4994  0.7653  0.5670
 9422TIP3    H228231   5.423   3.596   4.525  1.2552  0.5818 -0.3277
 9423TIP3   OH228232   0.170   4.569   2.700 -0.3198  0.1407  0.5646
 9423TIP3    H128233   0.237   4.637   2.693 -0.2106  0.0655  0.8797
 9423TIP3    H228234   0.211   4.500   2.752  0.3517 -1.1186 -1.4947
 9424TIP3   OH228235   3.486   3.072   4.655  0.3440 -0.0787 -0.2691
 9424TIP3    H128236   3.435   3.054   4.575 -0.6891  2.4253 -0.2808
 9424TIP3    H228237   3.423   3.061   4.726  1.0735 -1.5773  0.1762
 9425TIP3   OH228238   2.439   6.151   3.646  0.3193  0.3242 -0.2422
 9425TIP3    H128239   2.501   6.100   3.594  0.9004  1.2252 -0.4500
 9425TIP3    H228240   2.489   6.228   3.674 -0.3508  0.4567  0.6188
 9426TIP3   OH228241   3.647   3.363   3.328  0.2003  0.1414  0.4144
 9426TIP3    H128242   3.603   3.281   3.306 -0.2909  1.1824 -3.0556
 9426TIP3    H228243   3.576   3.422   3.355  0.5282 -0.3943  2.6795
 9427TIP3   OH228244   6.100   5.661   2.828 -0.1407  0.2904  0.1321
 9427TIP3    H128245   6.126   5.607   2.903 -1.0136 -1.5810 -0.8247
 9427TIP3    H228246   6.167   5.642   2.762  1.2416  2.7587  0.7173
 9428TIP3   OH228247   6.066   6.669   4.951  0.0072 -0.3801  0.0103
 9428TIP3    H128248   6.035   6.578   4.956 -0.2834 -0.2619  0.4417
 9428TIP3    H228249   6.060   6.701   5.041  0.5391 -0.0726 -0.0617
 9429TIP3   OH228250   4.317   5.807   2.262 -0.2114  0.1833 -0.2705
 9429TIP3    H128251   4.263   5.757   2.201 -2.0566  0.3699  1.1173
 9429TIP3    H228252   4.374   5.860   2.206  0.7438 -2.2999 -1.7686
 9430TIP3   OH228253   6.453   0.256   3.333 -0.3026  0.3772 -0.2588
 9430TIP3    H128254   6.487   0.179   3.286 -1.6418 -0.5995  0.3075
 9430TIP3    H228255   6.387   0.293   3.275 -2.1200 -0.9601  0.8303
 9431TIP3   OH228256   3.097   0.733   0.967  0.2598 -0.3499  0.0656
 9431TIP3    H128257   3.028   0.776   1.018  0.2335  1.4814 -1.4019
 9431TIP3    H228258   3.140   0.675   1.029  0.4758  2.0100  2.3037
 9432TIP3   OH228259   5.904   2.099   1.740 -0.2478  0.5025  0.1916
 9432TIP3    H128260   5.837   2.150   1.786 -0.8811  1.7231 -1.9477
 9432TIP3    H228261   5.964   2.165   1.706  0.6594 -0.4299 -0.0463
 9433TIP3   OH228262   3.038   3.951   4.846  0.3739  0.4484  0.2814
 9433TIP3    H128263   3.024   3.947   4.941 -1.6935  0.9944  0.0422
 9433TIP3    H228264   3.007   4.037   4.820 -1.4594 -0.5676 -1.1899
 9434TIP3   OH228265   3.702   6.192   5.079  0.4875  0.7830  0.5001
 9434TIP3    H128266   3.623   6.149   5.112  0.4067  1.2044  0.8732
 9434TIP3    H228267   3.695   6.186   4.984  1.5834 -2.0148  0.5116
 9435TIP3   OH228268   7.148   4.710   2.615  0.4183  0.1266  0.4874
 9435TIP3    H128269   7.154   4.786   2.672  1.5192 -1.5624  2.7975
 9435TIP3    H228270   7.207   4.646   2.655 -1.3800 -2.3873 -0.6252
 9436TIP3   OH228271   1.323   5.041   0.727 -0.0965  0.2873 -0.1215
 9436TIP3    H128272   1.246   4.984   0.722 -0.7621  1.0980  0.6058
 9436TIP3    H228273   1.362   5.020   0.812 -1.3747  2.1379  1.0041
 9437TIP3   OH228274   1.948   2.151   3.815  0.1993 -0.4358 -0.0350
 9437TIP3    H128275   1.986   2.228   3.772 -0.2175 -0.4565 -0.4467
 9437TIP3    H228276   1.982   2.155   3.904  1.2216 -0.4942 -0.4094
 9438TIP3   OH228277   0.001   0.902   3.792  0.0881  0.2660 -0.3763
 9438TIP3    H128278   0.090   0.872   3.776 -0.2224 -0.6585 -0.4154
 9438TIP3    H228279  -0.012   0.892   3.886  0.0739  0.5333 -0.3499
 9439TIP3   OH228280   1.378   5.400   3.298 -0.4938  0.4028 -0.9209
 9439TIP3    H128281   1.324   5.342   3.352 -0.1239  0.7836 -0.1102
 9439TIP3    H228282   1.427   5.341   3.241 -1.2135  0.0135 -1.1429
 9440TIP3   OH228283   2.087   6.470   5.075 -0.6615  0.1383  0.1370
 9440TIP3    H128284   2.176   6.483   5.108 -0.1118 -0.5881 -1.0000
 9440TIP3    H228285   2.071   6.546   5.020 -0.1032 -0.5055 -0.9510
 9441TIP3   OH228286   1.899   1.598   1.355 -0.2794  0.0005  0.1604
 9441TIP3    H128287   1.854   1.528   1.307  0.7049 -0.3843 -0.2271
 9441TIP3    H228288   1.992   1.581   1.340  0.0504  0.0411  1.9516
 9442TIP3   OH228289   4.796   1.620   0.530  0.2938  0.6656 -0.0226
 9442TIP3    H128290   4.753   1.621   0.445 -2.0161 -0.8338  1.0298
 9442TIP3    H228291   4.725   1.609   0.593  2.0753 -0.2406  1.9594
 9443TIP3   OH228292   3.945   4.669   3.122  0.0450 -0.1969  0.2232
 9443TIP3    H128293   3.922   4.582   3.090 -0.6826  0.1948 -0.3438
 9443TIP3    H228294   4.019   4.654   3.181 -0.0732 -1.1953  0.1342
 9444TIP3   OH228295   4.571   3.918   2.755  0.6387  1.0483 -0.7259
 9444TIP3    H128296   4.498   3.857   2.766  0.5251  1.1880 -0.6982
 9444TIP3    H228297   4.530   4.004   2.747  0.8783  1.6127  2.5586
 9445TIP3   OH228298   2.708   1.853   0.516  0.0835  0.7372 -0.2170
 9445TIP3    H128299   2.665   1.849   0.601 -0.0501 -0.0089 -0.3128
 9445TIP3    H228300   2.720   1.947   0.499 -0.1594  0.8979  0.4819
 9446TIP3   OH228301   5.623   4.471   5.759  0.0347  0.6410 -0.1253
 9446TIP3    H128302   5.546   4.482   5.814  0.9020  0.1707  1.2333
 9446TIP3    H228303   5.588   4.454   5.671 -1.4659 -2.0619  0.8929
 9447TIP3   OH228304   2.609   3.292   5.718  0.3978  0.3979 -0.7710
 9447TIP3    H128305   2.630   3.199   5.723  1.6629  0.7137  0.9630
 9447TIP3    H228306   2.584   3.315   5.808 -0.3623  1.6285 -1.2801
 9448TIP3   OH228307   1.653   5.000   5.237  0.2937 -0.5315 -0.1558
 9448TIP3    H128308   1.608   4.993   5.321  1.3834 -0.2380  0.4817
 9448TIP3    H228309   1.695   5.086   5.239 -0.2681 -0.2152 -1.3215
 9449TIP3   OH228310   4.576   4.354   3.442  0.0291 -0.0840 -0.2343
 9449TIP3    H128311   4.653   4.323   3.490 -0.8414 -4.9743 -1.4292
 9449TIP3    H228312   4.507   4.359   3.508  0.4079  0.2435  0.1434
 9450TIP3   OH228313   4.974   1.894   2.894 -0.1173 -0.2933  0.5832
 9450TIP3    H128314   5.064   1.926   2.902 -0.2345  0.7124 -1.4548
 9450TIP3    H228315   4.979   1.826   2.827 -0.6997 -1.1755  1.4019
 9451TIP3   OH228316   4.528   1.486   2.080 -0.1022 -0.6460 -0.3876
 9451TIP3    H128317   4.506   1.407   2.030 -2.1236 -0.7466  0.5601
 9451TIP3    H228318   4.491   1.470   2.167  0.1332  1.0242  0.0418
 9452TIP3   OH228319   2.627   2.286   1.850  0.3135  0.0307  0.0711
 9452TIP3    H128320   2.557   2.221   1.840  0.4780 -0.1316 -0.0216
 9452TIP3    H228321   2.707   2.235   1.857  0.2152  0.0624  2.5651
 9453TIP3   OH228322   2.948   1.178   2.822 -0.3851 -0.6635  0.2710
 9453TIP3    H128323   3.017   1.222   2.773 -0.5217 -0.6552  0.0800
 9453TIP3    H228324   2.993   1.116   2.878 -0.0848  0.6710  1.5685
 9454TIP3   OH228325   5.748   3.798   3.383  0.4140 -0.3653  0.1579
 9454TIP3    H128326   5.837   3.827   3.400  0.4288 -0.7247  0.7137
 9454TIP3    H228327   5.722   3.750   3.462  0.2987 -1.6210 -0.6000
 9455TIP3   OH228328   3.084   6.582   5.201 -0.1587 -0.0664 -0.3076
 9455TIP3    H128329   2.996   6.590   5.239  0.5385  1.0654  1.1405
 9455TIP3    H228330   3.070   6.592   5.107 -1.7340 -1.2895 -0.2579
 9456TIP3   OH228331   4.738   2.968   2.618  0.6447  0.2803  0.5262
 9456TIP3    H128332   4.790   3.014   2.552  0.2434  1.1430  0.8083
 9456TIP3    H228333   4.649   2.998   2.605  0.4151 -0.2197  0.8889
 9457TIP3   OH228334   0.458   5.184   5.149  0.8191 -0.3971  0.5742
 9457TIP3    H128335   0.383   5.227   5.191  1.2586  0.3722  0.5949
 9457TIP3    H228336   0.428   5.164   5.061  0.4331 -0.5212  0.7312
 9458TIP3   OH228337   3.897   0.743   0.613 -0.3154 -0.2005  0.1392
 9458TIP3    H128338   3.802   0.748   0.599 -0.2490 -0.4175 -0.4126
 9458TIP3    H228339   3.932   0.822   0.570 -0.4822  1.4210  2.7410
 9459TIP3   OH228340   5.108   1.746   2.681  0.2768 -0.3637 -0.1473
 9459TIP3    H128341   5.044   1.716   2.617 -0.9250 -2.0927  1.7428
 9459TIP3    H228342   5.173   1.676   2.686 -0.3017 -0.8364  1.3457
 9460TIP3   OH228343   3.813   3.574   3.195  0.4486  0.8595 -0.0274
 9460TIP3    H128344   3.768   3.538   3.271  0.0027 -0.4844 -0.8868
 9460TIP3    H228345   3.788   3.517   3.123  1.2295  1.8202 -1.1068
 9461TIP3   OH228346   1.757   0.490   5.343 -0.1357 -0.1310  0.6416
 9461TIP3    H128347   1.801   0.536   5.272 -0.4225 -0.1559  0.4416
 9461TIP3    H228348   1.674   0.537   5.353  1.1153  1.7855  3.0065
 9462TIP3   OH228349   7.145   0.275   4.035 -0.2738 -0.0198 -0.1559
 9462TIP3    H128350   7.093   0.238   3.963 -1.8334  1.7019  0.0269
 9462TIP3    H228351   7.105   0.360   4.052  0.6196 -0.0077  2.1648
 9463TIP3   OH228352   5.290   2.288   3.351  0.1619  0.0226 -0.4002
 9463TIP3    H128353   5.246   2.303   3.435  0.1818  0.4401 -0.4598
 9463TIP3    H228354   5.240   2.341   3.289  0.5649  0.2626 -0.5224
 9464TIP3   OH228355   3.630   5.200   2.349 -0.3758 -0.1854  0.2760
 9464TIP3    H128356   3.597   5.242   2.428 -0.7817 -0.1389  0.0867
 9464TIP3    H228357   3.584   5.244   2.278 -0.3330 -0.5174  0.0412
 9465TIP3   OH228358   0.886   0.941   2.747  0.1029 -0.4221  0.2944
 9465TIP3    H128359   0.793   0.936   2.769  0.0429  0.4575  0.2727
 9465TIP3    H228360   0.913   0.849   2.736 -1.2265 -0.6317 -1.7476
 9466TIP3   OH228361   6.079   1.573   4.582 -0.4465  0.1002 -0.0947
 9466TIP3    H128362   6.067   1.656   4.628 -0.5516  0.3470 -0.5662
 9466TIP3    H228363   6.063   1.506   4.649 -0.7376  0.4536  0.1925
 9467TIP3   OH228364   5.499   0.628   0.454 -0.6503  0.5853 -0.2005
 9467TIP3    H128365   5.461   0.716   0.453 -0.4136  0.6904 -1.2568
 9467TIP3    H228366   5.446   0.579   0.391  0.0346  0.3330 -0.5930
 9468TIP3   OH228367   1.973   1.953   1.724  0.0466 -0.1602 -0.2548
 9468TIP3    H128368   2.009   2.018   1.664 -0.7487  0.1532 -0.3970
 9468TIP3    H228369   2.050   1.913   1.765  0.5648  0.2130 -0.8546
 9469TIP3   OH228370   1.592   5.733   3.272 -0.0834  0.1005  0.2529
 9469TIP3    H128371   1.512   5.742   3.324 -1.3689  1.2396 -1.7881
 9469TIP3    H228372   1.561   5.710   3.184  2.0634 -3.1848  0.1897
 9470TIP3   OH228373   4.938   2.229   1.068  0.2125  0.1316  0.0920
 9470TIP3    H128374   5.018   2.258   1.111  0.7542  1.2059 -1.5516
 9470TIP3    H228375   4.868   2.272   1.116  0.6790  0.0729  0.8496
 9471TIP3   OH228376   3.136   3.493   3.228 -0.1635  0.2578  0.4222
 9471TIP3    H128377   3.079   3.555   3.274 -0.0242  0.7670 -0.0705
 9471TIP3    H228378   3.195   3.549   3.177  1.4977 -0.2276  1.7299
 9472TIP3   OH228379   4.965   2.420   1.701  0.4600 -0.2183  0.1616
 9472TIP3    H128380   4.981   2.327   1.720  1.2883 -0.6208 -2.1301
 9472TIP3    H228381   4.887   2.419   1.645 -0.2367  0.6025  1.0976
 9473TIP3   OH228382   6.455   5.590   3.063  0.3254 -0.1979 -0.2709
 9473TIP3    H128383   6.413   5.628   3.141 -0.5828  0.9105 -1.2563
 9473TIP3    H228384   6.545   5.573   3.091  0.8130  2.7040  0.3172
 9474TIP3   OH228385   6.453   1.590   5.480  0.0946 -0.2565  0.2611
 9474TIP3    H128386   6.361   1.609   5.461  0.5334  0.4523 -1.3204
 9474TIP3    H228387   6.479   1.658   5.542 -0.7284 -1.1359  1.6034
 9475TIP3   OH228388   2.958   4.533   1.090 -0.3616 -0.2442  0.7922
 9475TIP3    H128389   3.012   4.455   1.081  0.9394  0.7521 -0.4526
 9475TIP3    H228390   2.910   4.539   1.007  0.7406  1.0944  0.2033
 9476TIP3   OH228391   2.227   1.474   4.259  0.0526  0.7591  0.7372
 9476TIP3    H128392   2.317   1.491   4.287  0.3089  0.1254  0.3232
 9476TIP3    H228393   2.230   1.480   4.164 -0.3153  0.5857  0.7145
 9477TIP3   OH228394   4.926   3.686   3.687 -0.4134  0.5802 -0.4986
 9477TIP3    H128395   4.832   3.692   3.669 -0.5006 -0.7944 -0.6019
 9477TIP3    H228396   4.962   3.639   3.612  0.1786  0.1549  0.0452
 9478TIP3   OH228397   7.057   5.757   1.472 -0.2732 -0.1938 -0.5476
 9478TIP3    H128398   6.971   5.715   1.459 -0.2153 -0.7746  0.6949
 9478TIP3    H228399   7.120   5.689   1.447 -0.1838 -0.7074  0.9456
 9479TIP3   OH228400   5.536   3.392   3.196 -0.6663  0.5491 -0.3967
 9479TIP3    H128401   5.472   3.371   3.264  1.5228 -1.8640  1.0690
 9479TIP3    H228402   5.527   3.321   3.133  0.5243  0.2023 -0.1868
 9480TIP3   OH228403   0.088   1.156   0.519  0.1136 -0.0832  0.7555
 9480TIP3    H128404   0.060   1.184   0.432 -1.2678 -0.7812  0.9501
 9480TIP3    H228405   0.099   1.062   0.511 -1.4577 -0.3845  1.6675
 9481TIP3   OH228406   3.443   0.385   1.958 -0.5186 -0.0971 -0.0958
 9481TIP3    H128407   3.456   0.293   1.984 -0.0005  0.1062  0.3812
 9481TIP3    H228408   3.348   0.398   1.966 -0.5341 -0.4400  0.3576
 9482TIP3   OH228409   2.442   2.585   0.271  0.0504  0.5323  0.6777
 9482TIP3    H128410   2.396   2.556   0.349 -1.6954  2.4369  0.4336
 9482TIP3    H228411   2.535   2.581   0.296 -0.4668  2.5401  3.4605
 9483TIP3   OH228412   0.904   4.408   4.171 -0.0686  0.4000 -0.7465
 9483TIP3    H128413   0.817   4.440   4.195  0.3751  0.3454  1.0925
 9483TIP3    H228414   0.903   4.402   4.076 -2.4245 -0.5804 -0.7114
 9484TIP3   OH228415   3.140   5.580   0.011  0.3167 -0.0963 -0.6033
 9484TIP3    H128416   3.138   5.658   0.066 -1.6478 -0.0488 -0.6873
 9484TIP3    H228417   3.159   5.508   0.071 -1.3838  0.0062  0.1036
 9485TIP3   OH228418   4.458   5.134   4.078  0.1235  0.2210 -0.5757
 9485TIP3    H128419   4.378   5.101   4.037 -0.6370  1.2976 -0.0071
 9485TIP3    H228420   4.428   5.179   4.157  1.3456  0.2179 -0.0873
 9486TIP3   OH228421   2.760   6.375   2.376  0.3773 -0.0603  0.3735
 9486TIP3    H128422   2.797   6.433   2.309 -0.1890  0.2918  0.3611
 9486TIP3    H228423   2.836   6.343   2.424  0.6288  2.3926  1.7844
 9487TIP3   OH228424   4.889   5.015   2.263 -0.4284 -0.9903 -0.1751
 9487TIP3    H128425   4.819   5.072   2.295  0.7624  1.0633 -1.0804
 9487TIP3    H228426   4.860   4.986   2.177  0.2197  0.6979 -1.0026
 9488TIP3   OH228427   7.168   3.021   4.831  0.6771 -0.1470 -0.0583
 9488TIP3    H128428   7.199   3.087   4.768  0.5139  0.5255  0.5619
 9488TIP3    H228429   7.242   2.960   4.839  0.4473 -0.6373 -1.4245
 9489TIP3   OH228430   1.606   5.978   2.485 -0.5493  0.6451 -0.6326
 9489TIP3    H128431   1.648   6.053   2.443  0.2743  0.9997  0.7564
 9489TIP3    H228432   1.624   5.904   2.426  1.9091  0.8176 -0.1922
 9490TIP3   OH228433   0.034   3.788   1.567  0.6179 -0.4286 -0.4242
 9490TIP3    H128434   0.067   3.750   1.485  0.6987  1.3990 -1.3162
 9490TIP3    H228435  -0.058   3.765   1.569  0.9481 -1.8245 -0.1947
 9491TIP3   OH228436   3.628   5.418   0.507  0.1498  0.4741  0.4408
 9491TIP3    H128437   3.631   5.511   0.484 -1.6331  0.6388  0.6834
 9491TIP3    H228438   3.623   5.373   0.423  3.1434  0.4013  0.2174
 9492TIP3   OH228439   0.714   0.628   3.228 -0.4302  0.4000 -0.2569
 9492TIP3    H128440   0.679   0.647   3.142 -2.0928  0.3780  0.3872
 9492TIP3    H228441   0.755   0.710   3.257 -3.5098  1.7533  0.6142
 9493TIP3   OH228442   1.353   3.189   1.824 -0.1243  0.3250 -0.1434
 9493TIP3    H128443   1.317   3.278   1.827  0.4920  0.5621  1.1101
 9493TIP3    H228444   1.435   3.198   1.775 -0.4404  0.2925 -0.6852
 9494TIP3   OH228445   2.914   2.350   0.302  0.1833 -0.2409  0.0466
 9494TIP3    H128446   2.852   2.280   0.324  0.8891 -0.2220  2.4394
 9494TIP3    H228447   2.995   2.324   0.347  1.6639  0.2226 -2.1959
 9495TIP3   OH228448   1.285   3.735   0.883 -0.9215  0.1275 -0.3358
 9495TIP3    H128449   1.308   3.721   0.975  1.8722  0.4900 -0.8883
 9495TIP3    H228450   1.270   3.647   0.848  0.8013 -0.2922 -0.1294
 9496TIP3   OH228451   5.668   4.380   3.129  0.1438  0.0692 -0.1817
 9496TIP3    H128452   5.733   4.310   3.131 -0.1540 -0.2985 -2.0330
 9496TIP3    H228453   5.719   4.460   3.143  0.9172 -0.2743 -0.9465
 9497TIP3   OH228454   1.550   3.548   1.728 -1.1654  0.0397 -0.6847
 9497TIP3    H128455   1.643   3.570   1.731 -0.5466 -2.2734  2.5786
 9497TIP3    H228456   1.540   3.495   1.649  0.3225  0.1334 -0.9658
 9498TIP3   OH228457   3.107   2.937   3.565  0.0627 -0.0122  0.4413
 9498TIP3    H128458   3.040   2.873   3.588 -0.3155  0.0316 -0.4831
 9498TIP3    H228459   3.137   2.910   3.478 -0.2832  1.1867 -0.0734
 9499TIP3   OH228460   3.499   4.861   0.139  0.6039 -0.5122  0.3207
 9499TIP3    H128461   3.433   4.843   0.205 -1.1865  0.7550 -1.0144
 9499TIP3    H228462   3.535   4.946   0.163  0.1553 -0.1827 -0.1503
 9500TIP3   OH228463   5.824   2.508   4.030 -0.3876 -0.2420  0.2993
 9500TIP3    H128464   5.875   2.583   4.000  0.0895 -0.6347  0.1159
 9500TIP3    H228465   5.835   2.509   4.125 -0.0470 -0.3117  0.2638
 9501TIP3   OH228466   6.765   2.632   2.436  0.0353 -0.2519 -0.2990
 9501TIP3    H128467   6.792   2.719   2.464  0.1066 -0.4825  0.3782
 9501TIP3    H228468   6.842   2.597   2.391 -0.5596  0.6655 -2.0955
 9502TIP3   OH228469   3.734   3.361   2.592 -0.2553 -0.3816  0.0044
 9502TIP3    H128470   3.682   3.281   2.581 -0.5143 -0.5307  1.9372
 9502TIP3    H228471   3.701   3.399   2.673  1.0794  0.7695  0.0299
 9503TIP3   OH228472   1.885   6.615   1.259  0.1482  0.8893  0.6602
 9503TIP3    H128473   1.966   6.653   1.223  0.4904  0.9329  1.4600
 9503TIP3    H228474   1.901   6.610   1.353 -0.5939  0.4248  0.7651
 9504TIP3   OH228475   1.341   2.799   1.710 -0.0850  0.5942 -0.3093
 9504TIP3    H128476   1.392   2.835   1.782 -1.4642 -0.1157  1.0776
 9504TIP3    H228477   1.250   2.802   1.740 -0.5377 -1.3487 -1.2738
 9505TIP3   OH228478   4.217   3.006   5.174 -0.0979  0.1613  0.1002
 9505TIP3    H128479   4.147   3.027   5.112  2.0735  1.5956 -2.0406
 9505TIP3    H228480   4.217   3.079   5.235 -0.0960  0.4547 -0.2473
 9506TIP3   OH228481   4.337   2.729   2.207 -0.0424  0.1266 -0.3840
 9506TIP3    H128482   4.413   2.682   2.173  1.1383  0.7179  1.3205
 9506TIP3    H228483   4.317   2.794   2.139  1.0541  0.0523 -0.7921
 9507TIP3   OH228484   0.820   6.313   2.021 -0.3325  0.4101  0.4872
 9507TIP3    H128485   0.784   6.381   2.078 -0.6462 -0.1704  0.9964
 9507TIP3    H228486   0.802   6.344   1.932 -1.5444  0.4291  0.7192
 9508TIP3   OH228487   1.571   1.272   3.398  0.0839  0.2433 -0.0595
 9508TIP3    H128488   1.497   1.311   3.445 -0.4150 -0.1623 -0.4827
 9508TIP3    H228489   1.530   1.207   3.340  0.7064  0.5215 -0.8205
 9509TIP3   OH228490   2.196   3.504   4.929  0.1410 -0.0821  0.2898
 9509TIP3    H128491   2.196   3.464   5.016  0.1706 -2.7403 -0.8350
 9509TIP3    H228492   2.104   3.510   4.905  0.2073 -1.6319 -0.4264
 9510TIP3   OH228493   3.404   1.750   0.452  0.3906 -0.3460  0.2466
 9510TIP3    H128494   3.405   1.674   0.394  0.2213 -1.0416  1.1323
 9510TIP3    H228495   3.496   1.763   0.476  0.8487  1.5265 -2.1361
 9511TIP3   OH228496   6.212   3.746   1.479  0.2050  0.2340  0.1819
 9511TIP3    H128497   6.282   3.806   1.456  1.1815 -0.7826  0.3958
 9511TIP3    H228498   6.133   3.787   1.444  0.9779  1.1139 -0.6000
 9512TIP3   OH228499   5.288   3.686   5.566  0.0765 -0.1120 -0.2600
 9512TIP3    H128500   5.363   3.631   5.587  0.6874  0.5619 -0.6038
 9512TIP3    H228501   5.241   3.696   5.648  0.2990 -0.6478 -0.0678
 9513TIP3   OH228502   1.367   3.925   0.694  0.1871 -0.1673  0.3643
 9513TIP3    H128503   1.319   3.906   0.614 -3.6302  3.4662  1.3791
 9513TIP3    H228504   1.332   3.863   0.758  0.4944 -0.6784  0.0437
 9514TIP3   OH228505   2.064   3.610   3.409 -0.1871 -0.2070 -0.0189
 9514TIP3    H128506   2.011   3.688   3.428  0.8196  0.1631  1.3708
 9514TIP3    H228507   2.002   3.537   3.414 -1.1799  0.4738 -1.4844
 9515TIP3   OH228508   5.912   0.287   1.276 -0.4254 -0.5786  0.1468
 9515TIP3    H128509   5.876   0.365   1.234 -2.2636 -1.7877 -0.7021
 9515TIP3    H228510   5.957   0.240   1.206  0.6606 -0.2989  0.6469
 9516TIP3   OH228511   5.551   5.744   0.972  0.1820 -0.1175 -0.1474
 9516TIP3    H128512   5.532   5.721   1.063 -0.4303 -2.5417 -0.8071
 9516TIP3    H228513   5.468   5.734   0.927  0.9579 -1.4951 -1.3800
 9517TIP3   OH228514   5.294   3.100   2.673 -0.0015  0.1735 -0.2724
 9517TIP3    H128515   5.370   3.047   2.699  0.6493 -0.0260 -2.3686
 9517TIP3    H228516   5.324   3.147   2.595 -1.6906  0.9793 -0.4681
 9518TIP3   OH228517   4.153   5.381   3.048 -0.2167  0.4602 -0.0091
 9518TIP3    H128518   4.206   5.419   2.978  0.4613 -0.6836 -0.1342
 9518TIP3    H228519   4.143   5.289   3.023 -1.2232  0.3751  0.6485
 9519TIP3   OH228520   2.121   3.984   0.256 -0.0615 -0.3183  0.2648
 9519TIP3    H128521   2.088   3.969   0.344  1.3397  1.1032  1.0777
 9519TIP3    H228522   2.127   4.080   0.248  2.4513 -0.4446 -0.3022
 9520TIP3   OH228523   7.002   5.750   3.177 -0.1743  0.0647 -0.0807
 9520TIP3    H128524   6.910   5.772   3.160 -0.7114 -1.4504  0.5644
 9520TIP3    H228525   7.020   5.790   3.262 -1.0701 -1.6510  0.9857
 9521TIP3   OH228526   3.249   1.802   4.660  0.3693  0.0535  0.0904
 9521TIP3    H128527   3.292   1.781   4.743 -1.8959 -0.0100  1.3369
 9521TIP3    H228528   3.275   1.893   4.642  0.1385  0.4093  1.4113
 9522TIP3   OH228529   3.991   4.560   5.808  0.2998 -0.2980  0.2149
 9522TIP3    H128530   3.953   4.621   5.744 -0.1571  0.8309  1.4992
 9522TIP3    H228531   4.066   4.607   5.844  1.6245 -1.6349 -0.7184
 9523TIP3   OH228532   7.004   0.742   4.268 -0.0948 -0.4177 -0.0854
 9523TIP3    H128533   7.012   0.795   4.188 -0.6352 -2.1189 -1.3257
 9523TIP3    H228534   6.950   0.794   4.326 -0.7820  0.3174 -1.3396
 9524TIP3   OH228535   5.479   0.504   1.944 -0.1024 -0.2315  0.2065
 9524TIP3    H128536   5.561   0.553   1.945 -0.0089 -0.3645 -0.4289
 9524TIP3    H228537   5.504   0.415   1.921 -0.5669  0.0395 -1.4705
 9525TIP3   OH228538   6.644   2.771   4.893 -0.8367 -0.3266 -0.0650
 9525TIP3    H128539   6.650   2.832   4.967  0.2207 -0.3359 -0.1187
 9525TIP3    H228540   6.589   2.815   4.829  0.0533  0.6666 -0.1737
 9526TIP3   OH228541   5.292   2.544   0.767 -0.1554 -0.0391  0.3927
 9526TIP3    H128542   5.236   2.587   0.833 -2.0687  1.4998 -2.0169
 9526TIP3    H228543   5.258   2.576   0.683  2.9105 -0.9364 -1.3495
 9527TIP3   OH228544   5.922   3.243   2.014 -0.6932 -0.0472  0.1878
 9527TIP3    H128545   6.017   3.241   2.015 -0.6873  0.1273  1.1096
 9527TIP3    H228546   5.899   3.308   1.948 -0.1774 -0.1899 -0.1337
 9528TIP3   OH228547   6.071   5.104   4.336  0.1501  0.3483  0.1830
 9528TIP3    H128548   6.126   5.026   4.327  0.9262  0.9257 -0.1337
 9528TIP3    H228549   6.080   5.149   4.252 -0.4270  0.6984  0.3042
 9529TIP3   OH228550   6.428   1.818   4.283  0.1899 -0.3812 -0.0542
 9529TIP3    H128551   6.439   1.908   4.312  0.3226 -0.3208 -0.2880
 9529TIP3    H228552   6.511   1.796   4.241 -0.6624  0.2444 -2.2561
 9530TIP3   OH228553   1.386   2.767   4.206 -0.0862 -0.6011  0.6154
 9530TIP3    H128554   1.430   2.747   4.288  0.0547 -2.6435  0.0869
 9530TIP3    H228555   1.368   2.682   4.166 -0.5794  0.3137 -1.2576
 9531TIP3   OH228556   6.136   1.852   5.288  0.2605 -0.2360  0.7599
 9531TIP3    H128557   6.103   1.941   5.303  0.0435 -0.0593 -0.5950
 9531TIP3    H228558   6.231   1.862   5.284  0.1626  0.3852 -1.6998
 9532TIP3   OH228559   2.206   4.551   3.846  0.4386  0.3310 -0.1257
 9532TIP3    H128560   2.283   4.592   3.806 -0.9248  1.7202 -1.4495
 9532TIP3    H228561   2.220   4.559   3.940  1.5192  1.3005 -0.3472
 9533TIP3   OH228562   1.704   1.576   4.061 -0.2248 -0.2767  0.2055
 9533TIP3    H128563   1.758   1.612   4.132 -0.4244  1.6824 -0.5815
 9533TIP3    H228564   1.759   1.582   3.983 -0.4763 -1.1991 -0.0602
 9534TIP3   OH228565   5.485   6.367   5.536  0.0155  0.4233 -0.4190
 9534TIP3    H128566   5.477   6.423   5.459  0.7376  0.0211 -0.7966
 9534TIP3    H228567   5.517   6.284   5.501 -2.3515 -0.7018 -0.0705
 9535TIP3   OH228568   4.630   0.341   0.443 -0.2156 -0.0322  0.1195
 9535TIP3    H128569   4.617   0.433   0.419  1.3425  0.5692  1.4150
 9535TIP3    H228570   4.694   0.308   0.380 -0.0083  0.0621  0.2811
 9536TIP3   OH228571   5.281   1.370   2.940 -0.4936 -0.3670 -0.4624
 9536TIP3    H128572   5.368   1.408   2.951 -0.6497  0.7651 -2.5864
 9536TIP3    H228573   5.283   1.289   2.991  0.7494  1.1193  2.0533
 9537TIP3   OH228574   6.844   0.144   3.633  0.2981  0.3948  0.3306
 9537TIP3    H128575   6.751   0.127   3.618 -0.1920  2.8720  0.1007
 9537TIP3    H228576   6.848   0.236   3.657  2.6496  0.1838  1.0096
 9538TIP3   OH228577   2.351   6.409   3.062 -0.1438  0.1860  0.6167
 9538TIP3    H128578   2.430   6.378   3.107 -0.5591 -0.1785  1.1087
 9538TIP3    H228579   2.384   6.467   2.994  0.5650 -0.1608  0.6513
 9539TIP3   OH228580   0.712   0.537   4.861  0.0408  0.4904  0.1395
 9539TIP3    H128581   0.693   0.625   4.829  0.9394  0.3645 -0.8080
 9539TIP3    H228582   0.767   0.498   4.792  1.0522 -0.2132  1.3032
 9540TIP3   OH228583   1.589   3.765   4.572 -0.5039  0.6800  0.1724
 9540TIP3    H128584   1.642   3.727   4.502 -1.1113 -2.0213  1.0542
 9540TIP3    H228585   1.651   3.781   4.643 -0.0698  2.4083 -0.5588
 9541TIP3   OH228586   6.538   3.113   3.267  0.4451 -0.0763  0.1918
 9541TIP3    H128587   6.541   3.029   3.222  0.8690  0.1371 -0.1925
 9541TIP3    H228588   6.600   3.168   3.218  0.0464  0.5067  0.3308
 9542TIP3   OH228589   0.606   2.061   4.183  0.3305  0.1720  0.1287
 9542TIP3    H128590   0.523   2.045   4.138  0.4382 -0.2683  0.0856
 9542TIP3    H228591   0.663   1.990   4.155  0.9007  0.7688 -0.2621
 9543TIP3   OH228592   7.098   4.733   0.969  0.7547  0.8415 -0.6490
 9543TIP3    H128593   7.092   4.824   0.997  1.3090  0.5241  0.5523
 9543TIP3    H228594   7.007   4.702   0.965  0.6214  1.1725 -0.1424
 9544TIP3   OH228595   2.155   3.485   2.507  0.4286  0.4632  0.0380
 9544TIP3    H128596   2.194   3.465   2.592  0.3122 -0.9627 -0.2225
 9544TIP3    H228597   2.155   3.402   2.460  0.1754  1.1545 -1.2402
 9545TIP3   OH228598   4.896   5.907   4.859  0.3005  0.1665  0.3174
 9545TIP3    H128599   4.910   5.933   4.950 -0.1990  1.4810  0.0430
 9545TIP3    H228600   4.805   5.880   4.855  0.4350 -0.2948  0.2871
 9546TIP3   OH228601   7.133   0.877   2.865  0.6738  0.2063  0.4273
 9546TIP3    H128602   7.110   0.838   2.781  2.5801 -0.4117  0.1362
 9546TIP3    H228603   7.184   0.954   2.843 -1.7658  2.1303  1.0308
 9547TIP3   OH228604   1.075   0.912   3.184 -0.5057 -0.3196 -1.0505
 9547TIP3    H128605   1.151   0.963   3.154 -0.9441 -0.7311 -2.9898
 9547TIP3    H228606   1.063   0.846   3.116 -1.4415 -1.4908  0.2052
 9548TIP3   OH228607   4.304   1.132   1.628  0.1406  0.0139 -0.2144
 9548TIP3    H128608   4.215   1.166   1.643  0.8017  1.9989 -0.5324
 9548TIP3    H228609   4.321   1.077   1.705  0.0862  2.7871  1.9079
 9549TIP3   OH228610   3.461   0.826   4.277 -0.2258  0.0258  0.3827
 9549TIP3    H128611   3.464   0.735   4.306 -3.2095 -0.0348  0.8277
 9549TIP3    H228612   3.409   0.824   4.197  0.5358  1.2269 -0.1634
 9550TIP3   OH228613   5.907   0.687   3.732  0.3250  0.3380 -0.1350
 9550TIP3    H128614   5.982   0.649   3.686  0.3328  1.6888 -1.2969
 9550TIP3    H228615   5.907   0.644   3.817  2.3122  0.1770 -0.1756
 9551TIP3   OH228616   0.135   0.470   5.413  0.3099 -0.2190  0.4728
 9551TIP3    H128617   0.122   0.426   5.329 -0.4813 -0.4511  0.7057
 9551TIP3    H228618   0.122   0.563   5.394 -2.0317 -0.4240  0.6974
 9552TIP3   OH228619   5.339   2.934   5.855  0.4079 -0.6671  0.2698
 9552TIP3    H128620   5.344   3.017   5.808  0.8218 -1.9703 -2.1425
 9552TIP3    H228621   5.421   2.929   5.903  1.3403 -0.6366 -1.2885
 9553TIP3   OH228622   2.506   6.619   4.491 -0.1048  0.2351 -0.6742
 9553TIP3    H128623   2.413   6.601   4.503 -1.0102  3.1783 -2.0505
 9553TIP3    H228624   2.539   6.634   4.579 -0.9443 -0.7282 -0.1717
 9554TIP3   OH228625   1.051   3.244   5.310  0.2297  0.1043 -0.2310
 9554TIP3    H128626   0.967   3.237   5.354 -0.1793  2.0100 -0.6079
 9554TIP3    H228627   1.051   3.332   5.272  2.1049 -0.1061 -0.8375
 9555TIP3   OH228628   1.015   3.663   1.785  0.0342  0.0223  0.3524
 9555TIP3    H128629   1.006   3.635   1.694 -0.9025  0.0086  0.4395
 9555TIP3    H228630   1.090   3.723   1.785  0.8883 -1.0169 -0.1776
 9556TIP3   OH228631   3.882   5.751   2.231  0.0071  0.1678 -0.0419
 9556TIP3    H128632   3.948   5.689   2.198  1.0344  1.6228 -0.8017
 9556TIP3    H228633   3.800   5.701   2.228  0.5879 -0.7920 -1.7803
 9557TIP3   OH228634   4.376   2.989   4.414 -0.0285  0.5283 -0.2702
 9557TIP3    H128635   4.298   2.959   4.366  0.9582  1.2814 -2.5013
 9557TIP3    H228636   4.442   2.922   4.397  0.2735  0.7018  0.2170
 9558TIP3   OH228637   3.001   5.048   5.886 -0.0146 -0.2031 -0.4412
 9558TIP3    H128638   2.921   5.058   5.834  1.4463 -0.7255 -2.9870
 9558TIP3    H228639   3.034   5.138   5.896 -0.2636 -0.1005 -0.5255
 9559TIP3   OH228640   0.961   6.396   0.843 -0.6217  0.1271 -0.0664
 9559TIP3    H128641   0.896   6.346   0.894  0.2960 -2.3822 -1.2207
 9559TIP3    H228642   0.927   6.396   0.754 -0.9280  2.2512 -0.0022
 9560TIP3   OH228643   1.670   4.899   2.393  0.0838  0.1848 -0.5672
 9560TIP3    H128644   1.702   4.924   2.480 -1.1339  1.7626 -0.5254
 9560TIP3    H228645   1.707   4.965   2.334 -3.1748  2.3108 -0.4630
 9561TIP3   OH228646   3.565   3.094   3.103 -0.0409 -0.2799  0.0839
 9561TIP3    H128647   3.562   3.008   3.145 -1.4151 -0.0266  0.5459
 9561TIP3    H228648   3.473   3.118   3.091  0.3298  0.5361 -1.2775
 9562TIP3   OH228649   4.629   0.579   1.768 -0.0578 -0.3046 -0.3522
 9562TIP3    H128650   4.713   0.552   1.805 -0.2326 -1.4356 -0.7379
 9562TIP3    H228651   4.592   0.498   1.733 -0.9171  0.3432 -0.9618
 9563TIP3   OH228652   1.047   3.423   4.046 -0.0903  0.1614  0.1160
 9563TIP3    H128653   0.995   3.357   4.091  1.4885  0.0397  1.8770
 9563TIP3    H228654   0.988   3.497   4.034 -1.6377 -1.1965 -1.1046
 9564TIP3   OH228655   6.929   5.926   2.449  0.2300  0.5695 -0.3006
 9564TIP3    H128656   6.899   5.874   2.524  1.4600 -0.4812 -0.4856
 9564TIP3    H228657   7.024   5.910   2.446  0.1711  0.3155 -2.2640
 9565TIP3   OH228658   5.055   6.268   0.754  0.0973  0.3641 -0.3864
 9565TIP3    H128659   5.113   6.324   0.807  1.0530 -1.1384  0.2089
 9565TIP3    H228660   5.093   6.272   0.666 -0.2216  1.1440 -0.4977
 9566TIP3   OH228661   3.570   2.450   1.751  0.4621  0.3695 -0.2808
 9566TIP3    H128662   3.605   2.362   1.743  0.1853  0.1216  0.9338
 9566TIP3    H228663   3.485   2.438   1.794 -0.1162  1.1358 -1.1733
 9567TIP3   OH228664   6.340   4.049   1.916  0.1711 -0.0094 -0.0753
 9567TIP3    H128665   6.331   4.016   1.826 -1.4103  1.8079 -0.6491
 9567TIP3    H228666   6.289   3.987   1.969 -0.2844 -0.1739 -0.6859
 9568TIP3   OH228667   1.216   0.478   5.364 -0.7150  0.0823  0.3462
 9568TIP3    H128668   1.175   0.486   5.450 -1.1757  0.6724  0.0813
 9568TIP3    H228669   1.147   0.503   5.303 -0.1265  0.5462 -0.1373
 9569TIP3   OH228670   7.239   6.363   4.046  0.7180 -0.8772 -0.0359
 9569TIP3    H128671   7.192   6.297   3.996  0.1481 -0.2419 -0.3653
 9569TIP3    H228672   7.174   6.432   4.060  2.0562  1.0485 -2.3923
 9570TIP3   OH228673   6.233   1.297   0.180  0.0338  0.0122 -0.5002
 9570TIP3    H128674   6.275   1.329   0.100  1.8360 -0.0606  0.3545
 9570TIP3    H228675   6.160   1.357   0.195  1.3793  1.8061 -0.6842
 9571TIP3   OH228676   6.527   1.290   5.210 -0.2362 -0.4899  0.6391
 9571TIP3    H128677   6.535   1.261   5.301 -0.5764  0.8050  1.0929
 9571TIP3    H228678   6.503   1.382   5.215  0.1746 -0.2731 -0.7703
 9572TIP3   OH228679   5.408   0.233   4.987 -0.0495 -0.2009 -0.1807
 9572TIP3    H128680   5.421   0.216   5.081  0.7126 -1.8858 -0.5653
 9572TIP3    H228681   5.369   0.320   4.985 -0.3434 -0.2294  1.7239
 9573TIP3   OH228682   4.673   2.284   3.932 -0.2379  0.4993 -0.3989
 9573TIP3    H128683   4.761   2.289   3.970 -1.3786 -0.4160  2.6955
 9573TIP3    H228684   4.637   2.202   3.967 -2.2233  0.6776 -1.8618
 9574TIP3   OH228685   5.414   5.114   1.515 -0.2823 -0.6360  0.2955
 9574TIP3    H128686   5.390   5.035   1.466 -1.5273 -0.3073  0.3353
 9574TIP3    H228687   5.338   5.131   1.571 -0.2422  0.8568 -0.0656
 9575TIP3   OH228688   4.773   5.641   4.756  0.2759 -0.0770 -0.2771
 9575TIP3    H128689   4.755   5.547   4.749  0.4038 -0.2062  0.9035
 9575TIP3    H228690   4.769   5.673   4.666  0.3725 -1.2402 -0.7113
 9576TIP3   OH228691   0.837   0.526   0.833  0.1140 -0.4106 -0.0816
 9576TIP3    H128692   0.788   0.536   0.752 -0.0857 -2.1296 -0.2028
 9576TIP3    H228693   0.788   0.578   0.897 -0.6022 -0.2943 -0.7145
 9577TIP3   OH228694   0.644   4.235   2.396 -0.2522  0.7195 -0.3868
 9577TIP3    H128695   0.702   4.173   2.439 -0.8444  0.1202 -0.4367
 9577TIP3    H228696   0.620   4.193   2.314 -0.8220  0.9220 -0.3260
 9578TIP3   OH228697   0.176   1.365   4.530 -0.1881  0.2775  0.4431
 9578TIP3    H128698   0.241   1.297   4.548 -0.4536  0.3822  1.9255
 9578TIP3    H228699   0.107   1.320   4.482 -0.1685 -0.4242  1.0468
 9579TIP3   OH228700   1.122   6.658   3.059 -0.4853  0.0345  0.4561
 9579TIP3    H128701   1.197   6.669   3.001 -0.2364 -1.0052  0.5514
 9579TIP3    H228702   1.100   6.746   3.088  1.3523  0.2832  1.2358
 9580TIP3   OH228703   4.945   6.080   1.545  0.4856  0.2340  0.0983
 9580TIP3    H128704   4.925   6.161   1.592 -1.8698 -0.2952  0.1310
 9580TIP3    H228705   4.880   6.017   1.577  0.0281 -0.6839 -2.3962
 9581TIP3   OH228706   1.557   4.026   4.465  0.1627  0.9846  0.1296
 9581TIP3    H128707   1.567   3.969   4.389  1.1845  1.2608  0.0445
 9581TIP3    H228708   1.568   3.968   4.540  1.8128  1.1429  0.0434
 9582TIP3   OH228709   1.556   5.055   4.331 -0.4307 -0.4838  0.2736
 9582TIP3    H128710   1.601   5.137   4.349  0.0440 -0.6104 -0.2900
 9582TIP3    H228711   1.545   5.054   4.236  0.9100 -1.7433  0.0939
 9583TIP3   OH228712   3.680   1.758   0.456  0.3146  0.1394 -0.4371
 9583TIP3    H128713   3.761   1.708   0.450  0.7622  0.5569  1.6080
 9583TIP3    H228714   3.691   1.829   0.392  1.6632  0.3409 -0.0087
 9584TIP3   OH228715   2.298   4.694   1.011 -0.1429 -0.2066 -0.1099
 9584TIP3    H128716   2.231   4.636   0.976  1.6397 -2.5694  0.1401
 9584TIP3    H228717   2.265   4.719   1.098  0.0006 -2.7458  0.7477
 9585TIP3   OH228718   4.619   0.837   2.469  0.2285 -0.2125  0.3668
 9585TIP3    H128719   4.696   0.795   2.507  1.6054  0.7704 -1.1884
 9585TIP3    H228720   4.569   0.765   2.431  1.3008 -0.7183 -0.1456
 9586TIP3   OH228721   6.785   0.287   3.360 -0.0669  0.6672 -0.2196
 9586TIP3    H128722   6.772   0.342   3.283 -0.1466  1.1141  0.1037
 9586TIP3    H228723   6.724   0.322   3.425  0.7179  0.9644  0.3759
 9587TIP3   OH228724   5.680   0.557   4.113  0.1319 -0.2579  0.7390
 9587TIP3    H128725   5.760   0.546   4.164  0.9463 -0.5258 -0.5409
 9587TIP3    H228726   5.662   0.651   4.116  0.4526 -0.2055  1.0903
 9588TIP3   OH228727   5.237   1.586   0.066  0.4980  0.0850 -0.1281
 9588TIP3    H128728   5.291   1.570  -0.011  1.9865  1.9596  0.4579
 9588TIP3    H228729   5.218   1.679   0.064 -0.4110 -0.0379  1.1666
 9589TIP3   OH228730   6.623   1.189   5.473 -0.4295 -0.2446 -0.0621
 9589TIP3    H128731   6.715   1.186   5.500 -0.5673  0.0770  0.4534
 9589TIP3    H228732   6.576   1.146   5.545 -0.5307 -1.8330 -1.0385
 9590TIP3   OH228733   5.491   3.838   1.258  0.0067  0.2893  0.4309
 9590TIP3    H128734   5.480   3.744   1.276  0.7394 -0.4135 -2.3039
 9590TIP3    H228735   5.407   3.864   1.219  0.1729  0.5256  0.2322
 9591TIP3   OH228736   1.605   3.284   5.289  0.4269  0.7410  0.1692
 9591TIP3    H128737   1.581   3.374   5.312 -1.8354  0.4674 -0.8744
 9591TIP3    H228738   1.562   3.230   5.356 -0.0905  0.3324 -0.4826
 9592TIP3   OH228739   1.889   6.172   2.109 -0.6308 -0.8420 -0.0794
 9592TIP3    H128740   1.879   6.164   2.204 -2.1337  0.0254 -0.1395
 9592TIP3    H228741   1.981   6.196   2.096 -0.4916 -0.6597  1.1691
 9593TIP3   OH228742   6.893   4.830   1.959 -0.2398 -0.0531 -0.0859
 9593TIP3    H128743   6.812   4.788   1.931 -0.0515 -2.0516  2.1070
 9593TIP3    H228744   6.867   4.890   2.029 -0.0480  1.0239 -0.8908
 9594TIP3   OH228745   2.463   6.216   4.155 -0.2675  0.4798 -0.0751
 9594TIP3    H128746   2.388   6.267   4.124  1.0214  1.8927 -0.9389
 9594TIP3    H228747   2.441   6.126   4.132 -0.3833  1.1850 -3.1422
 9595TIP3   OH228748   6.214   1.887   3.169 -0.4538 -0.5134  0.5531
 9595TIP3    H128749   6.126   1.926   3.171  0.3067  1.3789 -0.0964
 9595TIP3    H228750   6.198   1.793   3.158 -2.3947 -0.0424 -1.4734
 9596TIP3   OH228751   2.694   1.681   5.480 -0.2505 -0.2242 -0.2894
 9596TIP3    H128752   2.639   1.752   5.447 -1.0837 -1.6758 -2.2355
 9596TIP3    H228753   2.782   1.702   5.447 -0.2581  0.4520  0.0997
 9597TIP3   OH228754   6.110   0.567   4.870 -0.2590 -0.2811  0.0311
 9597TIP3    H128755   6.188   0.524   4.907  0.1042 -1.0062 -1.4641
 9597TIP3    H228756   6.136   0.658   4.858  0.6080 -0.6442 -1.0223
 9598TIP3   OH228757   5.807   2.412   1.832  0.5107  0.7204 -0.0377
 9598TIP3    H128758   5.758   2.451   1.904  1.5365 -0.6776  1.4889
 9598TIP3    H228759   5.746   2.413   1.758 -0.9305  1.2637  1.1090
 9599TIP3   OH228760   2.258   1.202   4.853 -0.2764 -0.2288  0.1794
 9599TIP3    H128761   2.215   1.211   4.768 -1.0488 -1.0197  0.4746
 9599TIP3    H228762   2.186   1.202   4.917  0.3608  1.7068  0.9649
 9600TIP3   OH228763   1.697   3.287   4.423  0.2823  0.6057 -0.4397
 9600TIP3    H128764   1.651   3.368   4.442 -0.5234 -0.2035  1.3148
 9600TIP3    H228765   1.659   3.256   4.341 -1.0690  0.8290  0.0838
 9601TIP3   OH228766   1.228   2.014   2.670 -0.1148 -0.1326  0.0019
 9601TIP3    H128767   1.226   1.927   2.631  0.5507  0.1418 -0.6832
 9601TIP3    H228768   1.316   2.047   2.650 -0.2504  0.5684  0.5201
 9602TIP3   OH228769   4.283   2.015   0.873 -0.3524 -0.1782  0.2096
 9602TIP3    H128770   4.218   1.985   0.935 -0.3994  0.1638  0.3293
 9602TIP3    H228771   4.283   1.949   0.804  0.7277 -1.3498  1.2641
 9603TIP3   OH228772   0.179   3.679   0.715 -0.0998  0.0529 -0.0211
 9603TIP3    H128773   0.153   3.769   0.730  0.1736 -0.0080  0.8567
 9603TIP3    H228774   0.270   3.674   0.745 -0.3881 -0.7185  0.7764
 9604TIP3   OH228775   0.705   4.384   5.713 -0.1555  0.4325 -0.4755
 9604TIP3    H128776   0.709   4.452   5.780 -1.1436  1.3045 -1.2741
 9604TIP3    H228777   0.657   4.312   5.756  2.0339 -0.3647  0.8179
 9605TIP3   OH228778   6.060   4.024   4.819  0.0073  0.2451  0.0283
 9605TIP3    H128779   6.001   4.058   4.751 -1.8800  0.1224  1.5128
 9605TIP3    H228780   6.116   4.098   4.842  0.2618  0.4520 -1.2225
 9606TIP3   OH228781   0.615   6.128   1.376 -0.8191 -0.2573  0.2590
 9606TIP3    H128782   0.548   6.172   1.428 -0.2259 -0.1940  0.9964
 9606TIP3    H228783   0.698   6.165   1.409 -0.4583  0.2530 -1.1727
 9607TIP3   OH228784   4.846   1.003   2.321 -0.0133  0.6445 -0.1367
 9607TIP3    H128785   4.809   1.054   2.393  0.1659  0.1025  0.3503
 9607TIP3    H228786   4.903   0.939   2.364  0.8496  0.9301 -0.8235
 9608TIP3   OH228787   4.864   0.708   3.217  0.1189 -0.2414  0.2353
 9608TIP3    H128788   4.900   0.624   3.247  1.7794  0.5298  0.5099
 9608TIP3    H228789   4.796   0.728   3.281  0.2037 -1.0236  0.5867
 9609TIP3   OH228790   3.106   1.479   3.621 -0.4982 -0.0938 -0.1803
 9609TIP3    H128791   3.173   1.415   3.595 -1.2441 -0.6136 -0.8540
 9609TIP3    H228792   3.153   1.539   3.679  0.0136 -1.7761  1.2670
 9610TIP3   OH228793   3.142   5.248   4.234  0.1616 -0.1111 -0.1457
 9610TIP3    H128794   3.057   5.292   4.229  0.9798  1.5751 -0.1070
 9610TIP3    H228795   3.130   5.167   4.186 -1.3756  0.2423 -0.4235
 9611TIP3   OH228796   4.317   6.026   1.700 -0.3499 -0.1577  0.5039
 9611TIP3    H128797   4.282   6.090   1.638 -0.7150  0.2167  1.0815
 9611TIP3    H228798   4.252   5.955   1.700 -0.9323  0.3534  1.2756
 9612TIP3   OH228799   3.008   1.258   0.096 -0.2926 -0.1309 -0.5160
 9612TIP3    H128800   2.987   1.297   0.012  1.7740  0.0073 -1.0357
 9612TIP3    H228801   2.987   1.326   0.160 -0.2714  0.4218 -1.0827
 9613TIP3   OH228802   1.048   5.108   2.930  0.2203 -0.6155  0.4802
 9613TIP3    H128803   1.037   5.191   2.978 -1.4270  0.2935 -1.3305
 9613TIP3    H228804   1.133   5.116   2.888  0.7367 -0.5176  1.4993
 9614TIP3   OH228805   3.376   5.629   4.492 -0.5573  0.1121 -0.0801
 9614TIP3    H128806   3.352   5.553   4.438 -0.8726  0.3902 -0.3307
 9614TIP3    H228807   3.419   5.590   4.569  0.9033 -0.2548 -1.0233
 9615TIP3   OH228808   4.962   0.577   0.840 -0.1149  1.1421  0.2287
 9615TIP3    H128809   4.959   0.561   0.746 -3.1463 -1.2895  0.5772
 9615TIP3    H228810   4.944   0.671   0.849 -1.2092  1.1512 -1.6151
 9616TIP3   OH228811   6.115   2.940   1.839  0.3759  0.1792 -0.4377
 9616TIP3    H128812   6.122   2.988   1.756 -0.5202 -0.9560 -1.1900
 9616TIP3    H228813   6.023   2.944   1.862  0.4735 -0.2648  0.0506
 9617TIP3   OH228814   3.111   2.300   3.951 -0.0680  0.3954 -0.0499
 9617TIP3    H128815   3.171   2.334   4.017  0.3292 -0.7019  0.1754
 9617TIP3    H228816   3.033   2.275   4.000  0.2065 -0.3705  0.0081
 9618TIP3   OH228817   0.629   5.523   5.233  0.6183 -0.1564 -0.2568
 9618TIP3    H128818   0.638   5.449   5.292  0.8888 -0.5620 -0.7968
 9618TIP3    H228819   0.674   5.496   5.153  3.8725  1.8978  0.6809
 9619TIP3   OH228820   3.954   0.805   2.125  0.0224  0.5531 -0.8076
 9619TIP3    H128821   4.003   0.840   2.200  0.2347  1.8145 -1.5059
 9619TIP3    H228822   3.989   0.717   2.112  1.2854  1.0054 -0.5757
 9620TIP3   OH228823   3.744   6.250   0.033  0.2197  0.0587  0.1975
 9620TIP3    H128824   3.659   6.214   0.005  0.6561 -1.9874  1.2913
 9620TIP3    H228825   3.745   6.236   0.128  1.3522  1.0855  0.3579
 9621TIP3   OH228826   0.928   4.105   3.315  0.2203  0.3183 -0.0574
 9621TIP3    H128827   0.944   4.175   3.251 -0.2977 -0.4860 -1.0965
 9621TIP3    H228828   0.922   4.026   3.262 -0.2317 -0.3712  1.0045
 9622TIP3   OH228829   6.605   3.474   5.778 -0.3925  0.2594  0.1913
 9622TIP3    H128830   6.566   3.392   5.748  0.8800  0.6469 -2.9571
 9622TIP3    H228831   6.573   3.540   5.716 -1.3670  2.2261  2.6185
 9623TIP3   OH228832   7.036   6.150   3.461  0.3426 -0.0462 -0.1929
 9623TIP3    H128833   6.977   6.207   3.511 -1.0622 -1.0083 -0.6692
 9623TIP3    H228834   7.084   6.210   3.403 -0.5742  0.7335 -0.1775
 9624TIP3   OH228835   5.379   2.155   1.243 -0.2377  0.1357 -0.3172
 9624TIP3    H128836   5.420   2.242   1.250  1.2784 -0.6603  1.7224
 9624TIP3    H228837   5.449   2.094   1.267 -1.9424 -1.4737  0.7988
 9625TIP3   OH228838   1.428   2.352   0.234 -0.2793  0.0843 -0.3213
 9625TIP3    H128839   1.371   2.381   0.163  0.2006  0.6419 -0.4856
 9625TIP3    H228840   1.456   2.264   0.208 -2.5885 -1.0301  0.6827
 9626TIP3   OH228841   5.365   5.012   2.324  0.5010 -0.2577 -0.7424
 9626TIP3    H128842   5.276   4.998   2.293  0.4844 -0.9610 -0.3865
 9626TIP3    H228843   5.392   4.928   2.361  1.5948 -0.2894 -1.5554
 9627TIP3   OH228844   5.019   6.712   1.103 -0.5955 -0.1219 -0.1326
 9627TIP3    H128845   5.087   6.644   1.107  1.0833  1.4478 -0.7213
 9627TIP3    H228846   5.023   6.744   1.013 -0.4636  1.6113  0.4701
 9628TIP3   OH228847   5.915   0.351   1.652 -0.0359  0.3231 -0.2890
 9628TIP3    H128848   5.903   0.268   1.605 -1.8704 -0.4666  1.4649
 9628TIP3    H228849   5.956   0.326   1.735 -3.0749  0.7132  1.4611
 9629TIP3   OH228850   7.028   3.358   1.559  0.6662  0.7073  0.4801
 9629TIP3    H128851   7.011   3.267   1.534  1.8341 -0.0129  2.0887
 9629TIP3    H228852   7.064   3.399   1.480  1.4729 -0.6345  0.1247
 9630TIP3   OH228853   5.654   0.698   1.136 -0.3112 -0.2918  0.2860
 9630TIP3    H128854   5.740   0.740   1.138 -1.0153  1.3135 -1.4593
 9630TIP3    H228855   5.664   0.623   1.196  2.5784 -0.7415 -0.5886
 9631TIP3   OH228856   1.147   1.801   1.835 -0.1447 -0.6088  0.6583
 9631TIP3    H128857   1.158   1.722   1.888  0.1507 -1.5836 -0.7963
 9631TIP3    H228858   1.061   1.791   1.795  0.5545 -1.0584 -0.8340
 9632TIP3   OH228859   0.780   1.152   4.575 -0.0800  0.1273 -0.0775
 9632TIP3    H128860   0.812   1.216   4.512 -0.1143 -0.4884 -0.7394
 9632TIP3    H228861   0.836   1.163   4.652 -0.5513  1.4327  0.0977
 9633TIP3   OH228862   3.398   2.149   5.549 -0.4842  0.3148  0.1697
 9633TIP3    H128863   3.441   2.141   5.634  0.6464 -1.6084 -0.5047
 9633TIP3    H228864   3.402   2.242   5.528  4.3154  0.2836 -0.2421
 9634TIP3   OH228865   4.087   2.579   0.942 -0.4626 -0.8060 -0.0124
 9634TIP3    H128866   4.114   2.619   1.025 -0.1983 -0.7823 -0.1079
 9634TIP3    H228867   4.160   2.523   0.918  0.0806  0.2638 -0.9354
 9635TIP3   OH228868   3.565   0.033   0.666 -0.6989 -0.3925 -0.0556
 9635TIP3    H128869   3.553   0.127   0.654  0.7091 -0.3409 -1.2563
 9635TIP3    H228870   3.475  -0.001   0.672 -1.2837  0.8170 -1.3231
 9636TIP3   OH228871   0.143   5.758   3.843  0.3113 -0.5947  0.4521
 9636TIP3    H128872   0.189   5.801   3.915 -1.3171  0.8879  0.6773
 9636TIP3    H228873   0.136   5.826   3.776 -0.1410 -1.2847 -0.2089
 9637TIP3   OH228874   1.869   4.794   4.781  0.0571 -0.0401 -0.7062
 9637TIP3    H128875   1.814   4.837   4.846  0.6720 -0.7728  0.3223
 9637TIP3    H228876   1.908   4.866   4.731 -0.0362  0.5536  0.0587
 9638TIP3   OH228877   5.029   6.091   3.858  0.6051  0.7696 -0.6765
 9638TIP3    H128878   5.105   6.109   3.804  0.8996 -0.8998 -0.8716
 9638TIP3    H228879   4.955   6.123   3.807  0.9391 -0.1638 -1.7813
 9639TIP3   OH228880   6.990   5.865   0.569  0.2563 -0.2148  0.0217
 9639TIP3    H128881   6.918   5.843   0.510  0.1959 -1.2388  0.4675
 9639TIP3    H228882   7.030   5.781   0.591 -0.3824  0.0370  2.3056
 9640TIP3   OH228883   6.157   5.842   3.049 -0.1668 -0.4450  0.5556
 9640TIP3    H128884   6.223   5.805   3.107 -0.7155  0.2545  1.6558
 9640TIP3    H228885   6.149   5.778   2.978 -0.1575 -1.7993  1.7329
 9641TIP3   OH228886   2.884   1.821   3.077 -0.2447 -0.4159 -0.5449
 9641TIP3    H128887   2.837   1.815   3.160  1.4783 -0.1033  0.5099
 9641TIP3    H228888   2.904   1.914   3.066 -0.9468 -0.3677 -1.6269
 9642TIP3   OH228889   1.472   2.938   3.170 -0.2565 -0.5169 -0.1232
 9642TIP3    H128890   1.471   2.843   3.168  1.3475 -0.5606 -0.6465
 9642TIP3    H228891   1.522   2.960   3.249  0.4195 -0.1589 -0.6323
 9643TIP3   OH228892   1.482   1.453   0.045  0.3209  0.1488  0.0377
 9643TIP3    H128893   1.569   1.415   0.055  0.0529 -0.5303 -0.1397
 9643TIP3    H228894   1.427   1.406   0.108 -0.3063 -0.7305 -1.1238
 9644TIP3   OH228895   3.585   2.292   3.154  0.4046 -0.5146 -0.1618
 9644TIP3    H128896   3.491   2.287   3.137  0.5961 -0.8830 -1.2455
 9644TIP3    H228897   3.594   2.271   3.247 -0.5958 -0.2808 -0.0013
 9645TIP3   OH228898   0.864   5.145   3.480  0.5663  0.2589  0.1617
 9645TIP3    H128899   0.775   5.113   3.466  0.4221  0.6209  0.2313
 9645TIP3    H228900   0.867   5.229   3.433  0.8567  0.2746  0.2016
 9646TIP3   OH228901   2.304   1.719   5.819 -0.0834  0.4055 -0.0821
 9646TIP3    H128902   2.314   1.630   5.786 -3.1453 -0.2806  0.4981
 9646TIP3    H228903   2.310   1.711   5.914 -1.3659  0.6160  0.0305
 9647TIP3   OH228904   4.922   6.553   2.478  0.5591  0.5555  0.2814
 9647TIP3    H128905   4.878   6.552   2.393  0.7680 -0.3674  0.1729
 9647TIP3    H228906   4.891   6.474   2.521  0.6122  0.9123  0.9918
 9648TIP3   OH228907   6.552   4.695   2.867  0.0549  0.2969 -0.1377
 9648TIP3    H128908   6.587   4.609   2.889  1.6692  1.3395  1.6792
 9648TIP3    H228909   6.615   4.757   2.903 -1.0463  2.2706 -1.3915
 9649TIP3   OH228910   5.606   1.524   4.423  0.1773 -0.2658  0.8566
 9649TIP3    H128911   5.592   1.491   4.511  0.1943 -1.7981  0.3045
 9649TIP3    H228912   5.660   1.458   4.380 -0.6015 -0.0064 -0.5974
 9650TIP3   OH228913   5.842   3.866   1.831 -0.3757 -0.2611 -0.0588
 9650TIP3    H128914   5.908   3.798   1.824 -1.8742 -1.7823 -0.1092
 9650TIP3    H228915   5.825   3.874   1.924  0.4829  0.7888  0.0331
 9651TIP3   OH228916   5.659   6.398   2.603  0.4909 -0.0909 -0.1507
 9651TIP3    H128917   5.749   6.424   2.624  0.3611 -0.9666  1.6717
 9651TIP3    H228918   5.606   6.473   2.629  0.6153  0.0942 -0.4255
 9652TIP3   OH228919   2.514   1.321   4.053  0.7201 -0.2411  0.7095
 9652TIP3    H128920   2.564   1.243   4.077  1.7029  0.3334  0.5326
 9652TIP3    H228921   2.506   1.370   4.135  1.3411  0.1693  0.5281
 9653TIP3   OH228922   2.236   0.764   3.941  0.2541  0.2782 -0.3851
 9653TIP3    H128923   2.210   0.770   4.033 -0.5897 -0.0011 -0.5929
 9653TIP3    H228924   2.323   0.724   3.942 -0.6794 -1.8532  0.1847
 9654TIP3   OH228925   4.093   3.211   0.395  0.2363 -0.1587  0.4008
 9654TIP3    H128926   4.050   3.158   0.328  3.3169 -2.9037  0.3611
 9654TIP3    H228927   4.155   3.265   0.346  0.2610  0.1892  0.8111
 9655TIP3   OH228928   5.757   1.696   2.729 -0.0363 -0.2269  0.1447
 9655TIP3    H128929   5.696   1.765   2.754 -0.2096 -0.4095  0.2311
 9655TIP3    H228930   5.757   1.636   2.803 -1.4645 -1.3971 -0.7293
 9656TIP3   OH228931   0.723   2.893   3.017 -0.2404 -0.2110 -0.1333
 9656TIP3    H128932   0.665   2.957   3.059 -0.3659 -1.0615  1.0288
 9656TIP3    H228933   0.673   2.811   3.018 -0.3641 -0.2245 -2.2129
 9657TIP3   OH228934   4.957   6.593   3.113  0.5567 -1.0906  0.2360
 9657TIP3    H128935   4.934   6.636   3.195  0.2772 -0.0706 -0.3658
 9657TIP3    H228936   5.031   6.536   3.136  2.1995  1.1072  0.6874
 9658TIP3   OH228937   3.602   0.065   5.666  0.2653  0.1419 -0.4904
 9658TIP3    H128938   3.513   0.097   5.651 -0.0479  0.1943  1.2533
 9658TIP3    H228939   3.658   0.142   5.656  0.1279  0.1265 -1.5069
 9659TIP3   OH228940   0.487   6.667   2.066  0.1772  0.1888 -0.3788
 9659TIP3    H128941   0.502   6.761   2.059  0.2618  0.1256 -1.0528
 9659TIP3    H228942   0.391   6.659   2.068  0.1728  0.3474  0.5874
 9660TIP3   OH228943   0.694   1.402   3.571 -0.1184  0.4062 -0.0142
 9660TIP3    H128944   0.707   1.384   3.664 -1.6705  0.0053  0.1551
 9660TIP3    H228945   0.723   1.322   3.527 -0.8405 -0.0131  0.2537
 9661TIP3   OH228946   6.258   0.440   3.784  0.1008 -0.1837  0.9146
 9661TIP3    H128947   6.224   0.498   3.716  1.9629 -0.2557 -0.1583
 9661TIP3    H228948   6.289   0.499   3.852  2.0554  0.1752 -0.2047
 9662TIP3   OH228949   3.910   1.404   5.661 -0.1666 -0.6862  0.1777
 9662TIP3    H128950   3.909   1.488   5.615  1.0253  0.0873  1.4956
 9662TIP3    H228951   3.828   1.401   5.709  0.0203 -0.0039  0.5548
 9663TIP3   OH228952   4.744   5.877   0.729  0.3736 -0.4292  0.3514
 9663TIP3    H128953   4.825   5.912   0.691 -0.3092  0.0231 -0.7227
 9663TIP3    H228954   4.674   5.929   0.690 -0.6075 -2.2142 -0.4284
 9664TIP3   OH228955   4.428   3.668   5.184  0.7176 -0.1322  0.2958
 9664TIP3    H128956   4.406   3.618   5.105  1.7545 -0.4356  0.1837
 9664TIP3    H228957   4.354   3.655   5.242 -2.0945  3.3756 -2.0744
 9665TIP3   OH228958   0.461   3.064   2.255 -0.4000 -0.3657 -0.5406
 9665TIP3    H128959   0.416   3.147   2.274  0.2165  0.3829 -2.0964
 9665TIP3    H228960   0.535   3.063   2.316  0.3833  0.9461 -1.4083
 9666TIP3   OH228961   2.516   0.454   0.254 -0.1095 -0.9838  0.3339
 9666TIP3    H128962   2.531   0.420   0.342 -1.0369 -0.1523  0.8458
 9666TIP3    H228963   2.429   0.421   0.230 -0.8694  0.6422  0.6943
 9667TIP3   OH228964   2.902   5.791   0.802  0.0890 -0.2270 -0.3573
 9667TIP3    H128965   2.857   5.828   0.878 -0.0894  0.6149 -0.8566
 9667TIP3    H228966   2.995   5.802   0.823  0.0503  1.1443 -0.7650
 9668TIP3   OH228967   3.222   5.496   3.967  0.2707  0.8181  0.1877
 9668TIP3    H128968   3.181   5.430   4.022 -0.4169  0.3642 -0.8482
 9668TIP3    H228969   3.178   5.488   3.883  2.9311 -0.1931 -1.2193
 9669TIP3   OH228970   5.076   0.872   2.459  0.4829 -0.2071  0.7708
 9669TIP3    H128971   5.093   0.777   2.457  0.7399 -0.1540  0.2535
 9669TIP3    H228972   5.152   0.911   2.416  0.2269  0.2129  0.6937
 9670TIP3   OH228973   0.931   2.942   1.105 -0.1112  0.0138 -0.1202
 9670TIP3    H128974   0.958   3.018   1.053 -1.0109  0.3345 -0.1255
 9670TIP3    H228975   0.850   2.912   1.064 -1.1170  0.5822  1.3744
 9671TIP3   OH228976   2.011   3.293   4.789  0.3092  0.4095 -0.4276
 9671TIP3    H128977   1.960   3.267   4.865  0.7825  1.5252  0.3114
 9671TIP3    H228978   1.991   3.386   4.777  0.7842  0.4219 -1.2268
 9672TIP3   OH228979   6.993   3.555   4.996  0.1140 -0.0839  0.0756
 9672TIP3    H128980   7.054   3.519   5.061 -1.0885 -2.0809  0.1740
 9672TIP3    H228981   6.984   3.647   5.020  1.3789 -0.2703  1.3963
 9673TIP3   OH228982   5.404   2.002   5.698  0.3832 -0.0527 -0.1603
 9673TIP3    H128983   5.411   2.089   5.659  1.8588  0.1815  0.5807
 9673TIP3    H228984   5.358   2.016   5.781  0.6348  0.0192 -0.0336
 9674TIP3   OH228985   4.952   5.365   3.918 -0.2071  0.3646 -0.1788
 9674TIP3    H128986   4.887   5.417   3.869 -0.5017  0.9625  0.8080
 9674TIP3    H228987   5.036   5.407   3.898 -0.4254  1.1555  0.4790
 9675TIP3   OH228988   2.361   2.743   4.746  0.6413  0.7148 -0.5248
 9675TIP3    H128989   2.349   2.664   4.692 -1.4721  0.5609  0.0755
 9675TIP3    H228990   2.402   2.806   4.687  0.6221 -0.2361 -1.5967
 9676TIP3   OH228991   4.222   6.634   2.252 -0.5466 -0.0508  0.1854
 9676TIP3    H128992   4.240   6.577   2.177 -1.7177  0.0153 -0.1593
 9676TIP3    H228993   4.189   6.716   2.213 -1.0416  0.0318  0.7584
 9677TIP3   OH228994   4.624   4.470   1.584  0.5102  0.2802  0.1860
 9677TIP3    H128995   4.569   4.477   1.662 -1.2369  0.2737 -0.9930
 9677TIP3    H228996   4.605   4.549   1.533  2.1439  0.6301  0.0370
 9678TIP3   OH228997   1.864   2.076   0.541  0.0203 -0.0072 -0.3586
 9678TIP3    H128998   1.920   1.999   0.546  0.5141  0.3263 -0.7434
 9678TIP3    H228999   1.911   2.138   0.486  0.4092  1.2246  1.2555
 9679TIP3   OH229000   2.065   6.176   2.400 -0.4674  0.2459 -0.5874
 9679TIP3    H129001   2.130   6.230   2.445 -1.0121  1.2127 -0.9188
 9679TIP3    H229002   2.101   6.163   2.312 -1.0255  1.3922 -1.0060
 9680TIP3   OH229003   0.477   3.851   1.087 -0.2349 -0.2250 -0.0058
 9680TIP3    H129004   0.493   3.883   1.176 -0.0446  1.8387 -0.7358
 9680TIP3    H229005   0.413   3.781   1.099  0.6458 -0.7900  1.8492
 9681TIP3   OH229006   6.110   1.931   3.936 -0.1371 -0.2079  0.1588
 9681TIP3    H129007   6.116   1.858   3.874 -3.0849  0.5670 -1.2056
 9681TIP3    H229008   6.062   1.896   4.011 -1.0349  0.1309 -0.2428
 9682TIP3   OH229009   4.201   5.681   5.555  0.1626 -0.3678  0.4513
 9682TIP3    H129010   4.262   5.617   5.519 -1.0269  0.8016 -4.4394
 9682TIP3    H229011   4.244   5.766   5.539 -1.2543  0.3087  0.0263
 9683TIP3   OH229012   5.890   1.689   5.217  0.6011  0.4003 -0.3247
 9683TIP3    H129013   5.862   1.680   5.308 -0.1356 -0.8312 -0.6483
 9683TIP3    H229014   5.976   1.732   5.223  0.3642  0.7633  0.9076
 9684TIP3   OH229015   5.741   1.392   3.341  0.6046 -0.0679  0.2592
 9684TIP3    H129016   5.783   1.306   3.343  0.6109 -0.1640 -1.7000
 9684TIP3    H229017   5.666   1.381   3.283  0.3616  1.1380  0.3094
 9685TIP3   OH229018   5.953   5.271   3.280  0.5003 -0.5992 -0.6907
 9685TIP3    H129019   5.938   5.278   3.186 -1.1997 -0.6774 -0.4550
 9685TIP3    H229020   5.871   5.236   3.315  0.6220  0.6223  0.9653
 9686TIP3   OH229021   3.878   5.830   1.890 -0.2994  0.0449 -0.0059
 9686TIP3    H129022   3.883   5.795   1.801 -0.2999 -0.0225  0.0210
 9686TIP3    H229023   3.970   5.840   1.917 -0.1752  2.8288 -1.1087
 9687TIP3   OH229024   5.426   1.299   5.583  0.6116 -0.3853  0.5187
 9687TIP3    H129025   5.503   1.331   5.537  0.8160  0.3937  1.3826
 9687TIP3    H229026   5.356   1.302   5.517  1.2276 -0.7851 -0.1738
 9688TIP3   OH229027   6.047   4.832   0.485 -0.0125 -0.1829 -0.4811
 9688TIP3    H129028   6.006   4.758   0.531  0.5044  0.6195  1.3533
 9688TIP3    H229029   5.983   4.903   0.492  0.2547  0.0765 -0.6631
 9689TIP3   OH229030   3.577   4.444   0.415  0.0684 -0.8719  0.4126
 9689TIP3    H129031   3.608   4.474   0.500 -1.5522 -0.5366  0.9261
 9689TIP3    H229032   3.652   4.456   0.357  0.9838 -0.4212  1.6323
 9690TIP3   OH229033   0.652   5.236   1.945  0.5001  0.0341 -0.8264
 9690TIP3    H129034   0.589   5.205   2.010  0.7563 -0.1239 -0.6505
 9690TIP3    H229035   0.729   5.180   1.957  0.9510  0.6847 -0.5363
 9691TIP3   OH229036   5.344   2.039   0.574 -0.1931 -0.2995  0.6509
 9691TIP3    H129037   5.435   2.069   0.569 -0.4802  0.4187 -0.7166
 9691TIP3    H229038   5.306   2.091   0.644  0.2790 -0.1405  0.7976
 9692TIP3   OH229039   1.290   3.883   1.227  0.0185 -0.1882  0.3385
 9692TIP3    H129040   1.221   3.908   1.287  0.1505 -1.0784  0.8854
 9692TIP3    H229041   1.277   3.789   1.213  0.5341 -0.1735 -0.3038
 9693TIP3   OH229042   5.207   6.724   1.391  0.2256 -0.1607 -0.0998
 9693TIP3    H129043   5.266   6.670   1.337  1.4920  1.8683 -0.8799
 9693TIP3    H229044   5.128   6.733   1.338 -0.4338 -2.0631  0.5001
 9694TIP3   OH229045   6.916   4.699   4.155 -0.4173 -0.2121 -0.0996
 9694TIP3    H129046   6.836   4.739   4.187 -1.5844 -0.2896 -2.6308
 9694TIP3    H229047   6.956   4.766   4.100  1.8407  0.1715  1.8501
 9695TIP3   OH229048   0.871   6.458   5.218  0.5207  0.0449 -0.4675
 9695TIP3    H129049   0.957   6.481   5.183  1.0576 -0.6097  0.3497
 9695TIP3    H229050   0.874   6.362   5.227  0.2874  0.1446  0.9639
 9696TIP3   OH229051   3.648   1.519   3.605  0.3495  0.2354  0.1470
 9696TIP3    H129052   3.630   1.563   3.522  0.0382  1.8348  1.0096
 9696TIP3    H229053   3.736   1.484   3.595  0.0631 -0.1832 -1.0896
 9697TIP3   OH229054   4.568   2.356   4.517 -0.3351 -0.0036 -0.1989
 9697TIP3    H129055   4.548   2.449   4.509 -0.7795  0.0424  1.1740
 9697TIP3    H229056   4.589   2.343   4.609 -3.0337 -1.7666  0.2826
 9698TIP3   OH229057   0.147   1.167   5.116 -0.2680  0.5572 -0.1909
 9698TIP3    H129058   0.067   1.173   5.168 -0.4416 -0.1598 -0.3647
 9698TIP3    H229059   0.116   1.151   5.027  0.0811 -1.9803  0.0758
 9699TIP3   OH229060   3.984   6.416   2.770  0.1061  0.2933 -0.3559
 9699TIP3    H129061   4.038   6.369   2.833  1.7271  0.2140 -1.7256
 9699TIP3    H229062   3.980   6.358   2.694 -1.5891  0.4961 -0.4743
 9700TIP3   OH229063   7.099   5.430   1.746 -0.1319  0.0734 -0.2753
 9700TIP3    H129064   7.101   5.482   1.665 -1.1081  0.6007  0.0173
 9700TIP3    H229065   7.008   5.435   1.775 -0.0919 -1.2287  0.1467
 9701TIP3   OH229066   6.879   2.621   1.905  0.7654 -0.3722 -0.1961
 9701TIP3    H129067   6.935   2.554   1.865  0.1820 -0.5492 -0.7232
 9701TIP3    H229068   6.926   2.703   1.889 -0.5420 -0.0895 -3.4549
 9702TIP3   OH229069   6.139   6.449   0.388  0.1241 -0.1393 -0.3420
 9702TIP3    H129070   6.200   6.428   0.459  1.0311 -0.3200 -1.1553
 9702TIP3    H229071   6.118   6.365   0.348 -1.4137 -0.1931  0.4943
 9703TIP3   OH229072   1.654   1.682   0.552 -0.2965  0.4094 -0.1739
 9703TIP3    H129073   1.567   1.672   0.592 -0.7694 -0.7017 -1.4097
 9703TIP3    H229074   1.647   1.636   0.468  1.1106  1.3990 -0.8704
 9704TIP3   OH229075   0.759   4.234   5.485  0.0423  0.3734 -0.2201
 9704TIP3    H129076   0.675   4.188   5.488 -0.2720  0.9676  0.1307
 9704TIP3    H229077   0.755   4.298   5.556  1.5969 -0.9415  1.1457
 9705TIP3   OH229078   1.778   2.710   0.753 -0.1904  0.0435 -0.4227
 9705TIP3    H129079   1.775   2.751   0.667 -0.2305  0.3376 -0.2826
 9705TIP3    H229080   1.804   2.781   0.812  0.5615 -0.3241 -0.2997
 9706TIP3   OH229081   4.236   5.914   2.540 -0.3371 -0.3624  0.1181
 9706TIP3    H129082   4.256   5.878   2.454  1.8033 -0.6210  0.6646
 9706TIP3    H229083   4.301   5.983   2.554 -0.5800 -0.3765  1.5420
 9707TIP3   OH229084   1.887   2.707   3.495 -0.0368  0.1020 -0.0760
 9707TIP3    H129085   1.877   2.700   3.590  1.6091 -2.3495  0.0154
 9707TIP3    H229086   1.799   2.691   3.461 -0.6832  1.1802  1.0033
 9708TIP3   OH229087   5.870   5.644   0.715  0.0710 -0.5504  0.3302
 9708TIP3    H129088   5.943   5.588   0.745 -0.3452 -1.4382 -0.2914
 9708TIP3    H229089   5.809   5.584   0.674 -0.3314  0.3953 -0.4834
 9709TIP3   OH229090   3.748   3.436   3.805  0.0510 -0.4352  0.4184
 9709TIP3    H129091   3.674   3.400   3.757 -1.4120  3.0891 -0.3077
 9709TIP3    H229092   3.709   3.478   3.881  1.5157  0.1018  0.9073
 9710TIP3   OH229093   2.388   1.576   0.789 -0.2611 -0.6066 -0.4154
 9710TIP3    H129094   2.298   1.595   0.762 -0.5105  0.0952  0.8183
 9710TIP3    H229095   2.427   1.532   0.714 -1.6422 -0.9475 -0.9611
 9711TIP3   OH229096   6.766   1.199   3.112  0.6291 -0.6346  0.2618
 9711TIP3    H129097   6.837   1.147   3.075  2.0592  0.2699  1.5969
 9711TIP3    H229098   6.755   1.165   3.201 -1.1351 -1.2418 -0.1580
 9712TIP3   OH229099   1.343   6.492   0.548 -0.3237  0.1724 -0.4415
 9712TIP3    H129100   1.361   6.401   0.526  1.3976  0.4738 -0.4087
 9712TIP3    H229101   1.296   6.488   0.631 -0.1314 -0.6668 -0.3657
 9713TIP3   OH229102   1.687   0.871   1.412 -0.0002  0.0885 -0.8522
 9713TIP3    H129103   1.739   0.826   1.346  1.0234  1.5891 -1.1123
 9713TIP3    H229104   1.693   0.815   1.490 -0.6675 -1.3532 -1.7798
 9714TIP3   OH229105   2.515   4.302   3.946 -0.3114 -0.2405  0.4529
 9714TIP3    H129106   2.609   4.296   3.967 -0.6021  1.0344  2.4333
 9714TIP3    H229107   2.472   4.304   4.031 -2.0939 -0.0123 -0.4102
 9715TIP3   OH229108   5.253   4.891   5.205  0.7741 -0.3482 -0.3625
 9715TIP3    H129109   5.173   4.844   5.230  0.1819  1.0753  0.5691
 9715TIP3    H229110   5.228   4.940   5.127  0.5780  0.4294  0.1720
 9716TIP3   OH229111   2.822   1.823   0.061  0.0730  0.2062  0.4922
 9716TIP3    H129112   2.830   1.918   0.051  1.6227  0.3297  2.2930
 9716TIP3    H229113   2.906   1.789   0.033 -0.6637 -0.7302 -0.6766
 9717TIP3   OH229114   0.979   4.045   0.585  0.3908  0.3058  0.0565
 9717TIP3    H129115   0.948   4.052   0.675  1.1630 -0.7063  0.4209
 9717TIP3    H229116   0.998   3.951   0.574  0.6867  0.4841 -1.0236
 9718TIP3   OH229117   5.773   1.037   4.670 -0.6106 -0.0855  0.0914
 9718TIP3    H129118   5.811   1.100   4.731  0.9523 -2.4771  1.7734
 9718TIP3    H229119   5.693   1.007   4.714 -0.1903 -0.8190  0.3890
 9719TIP3   OH229120   0.414   3.606   5.721  0.1133 -0.7140 -0.1823
 9719TIP3    H129121   0.439   3.592   5.812 -3.8698  1.9196  1.6321
 9719TIP3    H229122   0.428   3.700   5.707 -0.9748 -0.7340 -1.6503
 9720TIP3   OH229123   1.932   3.816   1.932 -0.0312 -0.4979 -0.1717
 9720TIP3    H129124   1.855   3.872   1.925 -0.4682 -0.7301  2.0656
 9720TIP3    H229125   1.986   3.858   1.999  0.7024 -1.5481 -0.0903
 9721TIP3   OH229126   6.082   4.601   4.816  0.0086 -0.1759 -0.0707
 9721TIP3    H129127   6.103   4.640   4.901 -0.7926 -0.9715  0.5064
 9721TIP3    H229128   6.002   4.644   4.788 -1.2402 -1.7542  0.8642
 9722TIP3   OH229129   4.217   6.347   2.579 -0.6289  0.3051 -0.3068
 9722TIP3    H129130   4.210   6.441   2.565 -1.9763  0.0072 -1.9249
 9722TIP3    H229131   4.126   6.315   2.579 -0.2637 -0.8913  1.1784
 9723TIP3   OH229132   2.048   2.355   5.005 -0.5970 -0.3817  0.2536
 9723TIP3    H129133   2.130   2.403   4.998 -0.2255 -0.8104  1.4619
 9723TIP3    H229134   2.045   2.325   5.096 -2.5958  0.5564  0.5635
 9724TIP3   OH229135   5.177   2.456   4.220 -0.7932  0.4942  0.3103
 9724TIP3    H129136   5.264   2.478   4.253  0.1640  0.1836 -1.8793
 9724TIP3    H229137   5.153   2.528   4.162 -1.6265  0.1676  0.2279
 9725TIP3   OH229138   5.098   0.268   1.903 -0.1031 -0.4292 -0.0460
 9725TIP3    H129139   5.142   0.335   1.850 -1.4227  2.0240  1.7478
 9725TIP3    H229140   5.167   0.233   1.959  0.4098  0.2784 -0.2159
 9726TIP3   OH229141   3.636   2.347   5.371  0.2711 -0.4667 -0.3606
 9726TIP3    H129142   3.560   2.398   5.401  2.0020  1.8327  0.4420
 9726TIP3    H229143   3.638   2.271   5.429  0.4498  1.1833  1.9548
 9727TIP3   OH229144   1.954   6.737   0.714  0.2146 -0.3205 -0.5149
 9727TIP3    H129145   1.978   6.826   0.686 -1.1926  0.3362  0.2466
 9727TIP3    H229146   1.902   6.750   0.793 -0.5137 -1.7861 -0.7183
 9728TIP3   OH229147   2.538   5.487   4.234  0.3028  0.5447  0.1958
 9728TIP3    H129148   2.609   5.546   4.208  1.2241  0.2032  1.8133
 9728TIP3    H229149   2.494   5.466   4.151  1.6190  1.3531 -0.7640
 9729TIP3   OH229150   6.067   3.660   4.461  0.2536 -0.0870 -0.3322
 9729TIP3    H129151   6.112   3.612   4.392 -1.0855 -3.5575  1.0242
 9729TIP3    H229152   6.040   3.593   4.524 -1.6212  2.5044  1.8572
 9730TIP3   OH229153   3.605   6.523   0.114 -0.2475 -0.0348 -0.5309
 9730TIP3    H129154   3.632   6.596   0.060 -0.1964 -0.1356 -0.6425
 9730TIP3    H229155   3.649   6.447   0.075 -0.6014 -0.1802 -0.6436
 9731TIP3   OH229156   6.929   6.032   4.965  0.7472 -0.0548 -0.2604
 9731TIP3    H129157   6.954   6.124   4.977 -0.6906  0.9549 -3.7319
 9731TIP3    H229158   6.960   6.010   4.877  0.1629 -2.6038  0.0978
 9732TIP3   OH229159   1.087   6.359   2.709  0.2806 -0.4954  0.4215
 9732TIP3    H129160   1.090   6.308   2.628  0.5074  0.2363 -0.0445
 9732TIP3    H229161   1.102   6.295   2.779  0.2223 -1.1117 -0.1207
 9733TIP3   OH229162   6.131   1.070   5.864  0.0266  0.1010 -0.6404
 9733TIP3    H129163   6.198   1.131   5.834 -0.2025  0.6363 -0.0815
 9733TIP3    H229164   6.129   1.081   5.959  1.1476 -1.9795 -0.3255
 9734TIP3   OH229165   5.207   0.998   0.548  0.0140 -0.3240 -0.1110
 9734TIP3    H129166   5.221   1.086   0.583 -0.9725  0.2276 -1.0846
 9734TIP3    H229167   5.296   0.964   0.534  0.3991  0.5596  0.1219
 9735TIP3   OH229168   7.006   3.858   4.456 -0.0799  0.0622 -0.0766
 9735TIP3    H129169   6.986   3.856   4.549  0.1505 -0.7744 -0.0386
 9735TIP3    H229170   7.090   3.904   4.449 -0.1191  0.1637  0.1148
 9736TIP3   OH229171   4.047   1.963   1.509 -0.6929  0.0129  0.3892
 9736TIP3    H129172   4.084   1.977   1.596  2.5620 -0.5435 -0.7399
 9736TIP3    H229173   4.086   2.033   1.456  0.5027 -1.8537 -1.3363
 9737TIP3   OH229174   7.066   5.573   0.584 -0.1711  0.1360 -0.0906
 9737TIP3    H129175   6.972   5.558   0.577 -0.3405  1.5500 -1.2545
 9737TIP3    H229176   7.088   5.547   0.674 -1.7589  0.2595  0.3529
 9738TIP3   OH229177   6.994   1.997   0.400 -0.0759 -0.2511 -0.2334
 9738TIP3    H129178   7.006   1.953   0.484 -1.0100  0.4802  0.3003
 9738TIP3    H229179   6.965   2.085   0.423 -0.8804 -0.2118 -1.3309
 9739TIP3   OH229180   3.702   6.779   1.174  0.2692  0.1376  0.0531
 9739TIP3    H129181   3.620   6.729   1.169  1.1810 -1.3090 -0.6736
 9739TIP3    H229182   3.740   6.772   1.087  1.7439 -0.1992  0.7040
 9740TIP3   OH229183   1.300   0.819   2.603 -0.4116 -0.2481  0.1770
 9740TIP3    H129184   1.275   0.884   2.537  1.7868  0.5420  0.0399
 9740TIP3    H229185   1.241   0.835   2.676 -0.2065  1.6523 -0.0157
 9741TIP3   OH229186   0.932   6.749   2.778  0.1643 -0.1433 -0.1968
 9741TIP3    H129187   0.882   6.705   2.710 -1.3816  0.4186  0.5385
 9741TIP3    H229188   1.020   6.713   2.769 -0.6327 -2.1002 -0.7192
 9742TIP3   OH229189   3.804   0.043   3.656  0.1120  0.3192  0.0534
 9742TIP3    H129190   3.827   0.132   3.680 -0.0524 -0.0936  1.8375
 9742TIP3    H229191   3.817  -0.008   3.736 -0.0744 -1.2089 -0.8480
 9743TIP3   OH229192   2.539   0.885   4.047 -0.5024 -0.2843 -0.4681
 9743TIP3    H129193   2.456   0.934   4.049 -0.6307 -0.5196  0.5161
 9743TIP3    H229194   2.548   0.850   4.136  1.3739  0.9467 -0.1262
 9744TIP3   OH229195   6.697   0.042   4.527 -0.8841  0.2904  0.0504
 9744TIP3    H129196   6.606   0.055   4.553 -2.0158 -4.7802 -0.3307
 9744TIP3    H229197   6.693   0.028   4.432  0.7766  2.2218 -0.3857
 9745TIP3   OH229198   1.987   3.670   5.659  0.1093 -0.9001 -0.4551
 9745TIP3    H129199   1.938   3.735   5.711 -1.5505 -0.3125 -2.6258
 9745TIP3    H229200   1.948   3.586   5.683  1.1863 -0.9806  1.1809
 9746TIP3   OH229201   3.857   6.728   5.438  0.1901 -0.6223  0.6121
 9746TIP3    H129202   3.904   6.645   5.444  1.4968 -0.0759 -1.3280
 9746TIP3    H229203   3.802   6.720   5.360  0.1125  0.2344  0.5636
 9747TIP3   OH229204   6.560   5.462   1.849 -0.0772 -0.0118  0.0008
 9747TIP3    H129205   6.480   5.468   1.797 -0.7495  1.0194  1.0868
 9747TIP3    H229206   6.536   5.409   1.925  0.2075  0.4289  0.4124
 9748TIP3   OH229207   7.221   5.639   2.333 -0.2406 -0.4292  0.0260
 9748TIP3    H129208   7.129   5.622   2.315 -0.4426 -1.4385  1.7497
 9748TIP3    H229209   7.220   5.709   2.398  0.2285 -0.1265 -0.2904
 9749TIP3   OH229210   6.223   0.671   2.734  0.0181  0.8267  0.5497
 9749TIP3    H129211   6.221   0.766   2.730 -0.9481  0.7920 -0.0527
 9749TIP3    H229212   6.183   0.642   2.651  1.1218 -0.1084  0.3085
   7.21155   6.79913   5.88820   0.00000   0.00000  -2.40385   0.00000  -2.40385  -3.39955
