Title t=  77.00000 step= 38500
44434
    1GLY      N    1   4.211   3.848   5.225
    1GLY    HT1    2   4.280   3.860   5.302
    1GLY    HT2    3   4.247   3.777   5.158
    1GLY    HT3    4   4.121   3.811   5.262
    1GLY     CA    5   4.181   3.978   5.157
    1GLY    HA1    6   4.273   3.995   5.103
    1GLY    HA2    7   4.163   4.049   5.237
    1GLY      C    8   4.061   3.978   5.068
    1GLY      O    9   3.988   3.877   5.067
    2PRO      N   10   4.045   4.075   4.990
    2PRO     CD   11   4.138   4.188   4.978
    2PRO    HD1   12   4.227   4.142   4.930
    2PRO    HD2   13   4.161   4.237   5.074
    2PRO     CA   14   3.914   4.109   4.935
    2PRO     HA   15   3.829   4.095   5.000
    2PRO     CB   16   3.921   4.257   4.913
    2PRO    HB1   17   3.892   4.304   5.009
    2PRO    HB2   18   3.859   4.307   4.835
    2PRO     CG   19   4.070   4.288   4.884
    2PRO    HG1   20   4.095   4.282   4.776
    2PRO    HG2   21   4.095   4.393   4.913
    2PRO      C   22   3.889   4.024   4.812
    2PRO      O   23   3.924   4.074   4.706
    3GLY      N   24   3.834   3.903   4.822
    3GLY     HN   25   3.820   3.873   4.917
    3GLY     CA   26   3.799   3.808   4.713
    3GLY    HA1   27   3.735   3.865   4.647
    3GLY    HA2   28   3.747   3.726   4.759
    3GLY      C   29   3.917   3.759   4.635
    3GLY      O   30   4.033   3.737   4.676
    4ASP      N   31   3.892   3.722   4.508
    4ASP     HN   32   3.815   3.763   4.460
    4ASP     CA   33   4.000   3.682   4.417
    4ASP     HA   34   4.057   3.607   4.471
    4ASP     CB   35   3.949   3.607   4.287
    4ASP    HB1   36   4.036   3.589   4.219
    4ASP    HB2   37   3.875   3.674   4.237
    4ASP     CG   38   3.892   3.473   4.304
    4ASP    OD1   39   3.902   3.410   4.408
    4ASP    OD2   40   3.821   3.423   4.216
    4ASP      C   41   4.087   3.798   4.377
    4ASP      O   42   4.033   3.907   4.358
    5PRO      N   43   4.223   3.784   4.374
    5PRO     CD   44   4.291   3.661   4.421
    5PRO    HD1   45   4.289   3.578   4.347
    5PRO    HD2   46   4.247   3.614   4.512
    5PRO     CA   47   4.321   3.881   4.343
    5PRO     HA   48   4.322   3.950   4.426
    5PRO     CB   49   4.454   3.808   4.329
    5PRO    HB1   50   4.548   3.867   4.320
    5PRO    HB2   51   4.463   3.739   4.242
    5PRO     CG   52   4.429   3.713   4.447
    5PRO    HG1   53   4.507   3.634   4.444
    5PRO    HG2   54   4.442   3.759   4.547
    5PRO      C   55   4.292   3.968   4.228
    5PRO      O   56   4.237   3.918   4.127
    6GLY      N   57   4.319   4.094   4.233
    6GLY     HN   58   4.371   4.133   4.308
    6GLY     CA   59   4.290   4.196   4.137
    6GLY    HA1   60   4.339   4.281   4.183
    6GLY    HA2   61   4.183   4.201   4.120
    6GLY      C   62   4.364   4.175   4.009
    6GLY      O   63   4.462   4.106   4.004
    7SER      N   64   4.319   4.238   3.898
    7SER     HN   65   4.241   4.299   3.909
    7SER     CA   66   4.377   4.225   3.761
    7SER     HA   67   4.387   4.118   3.748
    7SER     CB   68   4.284   4.300   3.656
    7SER    HB1   69   4.345   4.335   3.570
    7SER    HB2   70   4.243   4.391   3.704
    7SER     OG   71   4.185   4.216   3.601
    7SER    HG1   72   4.124   4.202   3.673
    7SER      C   73   4.521   4.272   3.743
    7SER      O   74   4.558   4.386   3.780
    8GLY      N   75   4.609   4.198   3.678
    8GLY     HN   76   4.567   4.113   3.647
    8GLY     CA   77   4.747   4.235   3.664
    8GLY    HA1   78   4.794   4.146   3.625
    8GLY    HA2   79   4.775   4.277   3.760
    8GLY      C   80   4.781   4.336   3.555
    8GLY      O   81   4.700   4.368   3.470
    9ASN      N   82   4.906   4.386   3.560
    9ASN     HN   83   4.965   4.363   3.637
    9ASN     CA   84   4.964   4.480   3.468
    9ASN     HA   85   4.899   4.565   3.486
    9ASN     CB   86   5.111   4.519   3.509
    9ASN    HB1   87   5.190   4.462   3.456
    9ASN    HB2   88   5.117   4.500   3.618
    9ASN     CG   89   5.138   4.668   3.491
    9ASN    OD1   90   5.206   4.712   3.397
    9ASN    ND2   91   5.082   4.746   3.588
    9ASN   HD21   92   5.119   4.838   3.600
    9ASN   HD22   93   5.030   4.706   3.663
    9ASN      C   94   4.945   4.441   3.327
    9ASN      O   95   4.970   4.326   3.291
   10PRO      N   96   4.907   4.535   3.235
   10PRO     CD   97   4.842   4.666   3.267
   10PRO    HD1   98   4.925   4.724   3.314
   10PRO    HD2   99   4.759   4.656   3.340
   10PRO     CA  100   4.945   4.522   3.092
   10PRO     HA  101   4.881   4.446   3.051
   10PRO     CB  102   4.900   4.664   3.037
   10PRO    HB1  103   4.878   4.672   2.928
   10PRO    HB2  104   4.986   4.728   3.065
   10PRO     CG  105   4.797   4.722   3.137
   10PRO    HG1  106   4.806   4.832   3.129
   10PRO    HG2  107   4.698   4.679   3.110
   10PRO      C  108   5.084   4.476   3.054
   10PRO      O  109   5.182   4.521   3.114
   11GLY      N  110   5.090   4.385   2.954
   11GLY     HN  111   5.009   4.350   2.908
   11GLY     CA  112   5.221   4.329   2.900
   11GLY    HA1  113   5.200   4.275   2.809
   11GLY    HA2  114   5.267   4.260   2.970
   11GLY      C  115   5.325   4.423   2.851
   11GLY      O  116   5.304   4.540   2.825
   12SER      N  117   5.447   4.364   2.837
   12SER     HN  118   5.453   4.278   2.887
   12SER     CA  119   5.560   4.415   2.756
   12SER     HA  120   5.626   4.468   2.823
   12SER     CB  121   5.643   4.300   2.695
   12SER    HB1  122   5.719   4.340   2.624
   12SER    HB2  123   5.577   4.232   2.637
   12SER     OG  124   5.713   4.226   2.795
   12SER    HG1  125   5.645   4.189   2.852
   12SER      C  126   5.533   4.505   2.636
   12SER      O  127   5.461   4.470   2.544
   13GLY      N  128   5.591   4.630   2.645
   13GLY     HN  129   5.659   4.654   2.714
   13GLY     CA  130   5.576   4.732   2.544
   13GLY    HA1  131   5.587   4.831   2.586
   13GLY    HA2  132   5.477   4.726   2.500
   13GLY      C  133   5.674   4.715   2.432
   13GLY      O  134   5.736   4.615   2.412
   14ASP      N  135   5.685   4.813   2.354
   14ASP     HN  136   5.616   4.879   2.382
   14ASP     CA  137   5.758   4.821   2.232
   14ASP     HA  138   5.715   4.736   2.181
   14ASP     CB  139   5.721   4.948   2.155
   14ASP    HB1  140   5.771   4.942   2.056
   14ASP    HB2  141   5.748   5.039   2.213
   14ASP     CG  142   5.572   4.943   2.124
   14ASP    OD1  143   5.513   5.046   2.092
   14ASP    OD2  144   5.515   4.830   2.112
   14ASP      C  145   5.913   4.809   2.252
   14ASP      O  146   5.966   4.844   2.359
   15PRO      N  147   5.987   4.751   2.167
   15PRO     CD  148   5.941   4.707   2.032
   15PRO    HD1  149   5.919   4.795   1.967
   15PRO    HD2  150   5.853   4.640   2.043
   15PRO     CA  151   6.133   4.720   2.183
   15PRO     HA  152   6.145   4.686   2.285
   15PRO     CB  153   6.155   4.601   2.077
   15PRO    HB1  154   6.131   4.506   2.128
   15PRO    HB2  155   6.254   4.588   2.028
   15PRO     CG  156   6.055   4.632   1.960
   15PRO    HG1  157   6.096   4.703   1.886
   15PRO    HG2  158   6.027   4.547   1.894
   15PRO      C  159   6.226   4.838   2.153
   15PRO    OT1  160   6.182   4.937   2.081
   15PRO    OT2  161   6.347   4.836   2.192
   16LIT    LIT  162   3.875   3.249   4.311
   17LIT    LIT  163   5.867   3.517   2.048
   18LIT    LIT  164   4.833   0.797   0.935
   19LIT    LIT  165   3.535   4.353   3.474
   20LIT    LIT  166   5.704   6.437   4.144
   21LIT    LIT  167   2.111   1.985   3.730
   22LIT    LIT  168   6.668   2.026   6.571
   23LIT    LIT  169   6.679   6.025   6.089
   24LIT    LIT  170   3.216   0.416   3.226
   25LIT    LIT  171   6.512   0.300   4.501
   26LIT    LIT  172   2.495   3.268   3.820
   27LIT    LIT  173   0.869   1.196   4.458
   28LIT    LIT  174   6.359   1.431   2.002
   29LIT    LIT  175   7.223   0.957   3.825
   30LIT    LIT  176   5.758   7.397   5.763
   31LIT    LIT  177   1.294   0.468   1.957
   32LIT    LIT  178   0.782   1.167   5.257
   33LIT    LIT  179   1.977   7.420   0.969
   34LIT    LIT  180   5.134   4.918   5.367
   35LIT    LIT  181   5.038   3.849   0.910
   36LIT    LIT  182   5.702   0.159   1.966
   37LIT    LIT  183   6.564   1.000   6.673
   38LIT    LIT  184   4.567   4.909   4.722
   39LIT    LIT  185   3.036   1.744   5.166
   40LIT    LIT  186   8.097   6.544   2.478
   41LIT    LIT  187   6.367   4.987   2.087
   42LIT    LIT  188   5.089   6.403   0.071
   43LIT    LIT  189   1.795   1.351   2.428
   44LIT    LIT  190   0.803   1.285   1.529
   45LIT    LIT  191   1.644   2.003   1.935
   46LIT    LIT  192   3.919   3.704   0.363
   47LIT    LIT  193   4.577   1.923   0.691
   48LIT    LIT  194   0.217   4.905   5.152
   49LIT    LIT  195   5.353   4.919   2.044
   50LIT    LIT  196   4.688   1.545   2.186
   51LIT    LIT  197   4.800   3.087   6.036
   52LIT    LIT  198   1.835   5.505   0.212
   53LIT    LIT  199   2.033   5.680   1.832
   54LIT    LIT  200   1.114   7.581   3.991
   55LIT    LIT  201   7.039   7.523   5.982
   56LIT    LIT  202   0.176   0.367   4.984
   57LIT    LIT  203   0.017   0.768   3.463
   58LIT    LIT  204   7.539   3.808   1.155
   59LIT    LIT  205   3.355   5.023   1.491
   60CLA    CLA  206   6.813   6.884   3.030
   61CLA    CLA  207   7.179   5.328   4.727
   62CLA    CLA  208   6.889   4.733   1.473
   63CLA    CLA  209   1.106   1.525   1.745
   64CLA    CLA  210   1.487   1.415   3.609
   65CLA    CLA  211   3.599   1.837   2.034
   66CLA    CLA  212   3.305   2.534   5.455
   67CLA    CLA  213   7.854   1.073   6.496
   68CLA    CLA  214   6.716   1.203   4.794
   69CLA    CLA  215   6.761   7.469   5.262
   70CLA    CLA  216   3.887   4.963   1.667
   71CLA    CLA  217   3.165   2.292   3.051
   72CLA    CLA  218   0.461   1.875   1.612
   73CLA    CLA  219   4.242   5.226   4.396
   74CLA    CLA  220   2.862   5.680   2.164
   75CLA    CLA  221   4.065   2.356   4.195
   76CLA    CLA  222   3.331   5.133   4.363
   77CLA    CLA  223   4.280   4.345   6.106
   78CLA    CLA  224   7.059   2.128   0.361
   79CLA    CLA  225   6.865   7.700   0.612
   80CLA    CLA  226   5.033   0.272   1.697
   81CLA    CLA  227   8.091   0.817   3.515
   82CLA    CLA  228   7.351   1.116   6.759
   83CLA    CLA  229   7.282   3.761   4.538
   84CLA    CLA  230   5.016   2.257   6.030
   85CLA    CLA  231   0.963   3.723   6.457
   86CLA    CLA  232   6.195   2.787   2.957
   87CLA    CLA  233   8.257   3.305   3.018
   88CLA    CLA  234   0.961   7.786   1.690
   89CLA    CLA  235   0.434   2.635   6.071
   90CLA    CLA  236   4.064   0.571   3.305
   91CLA    CLA  237   5.652   1.286   2.430
   92CLA    CLA  238   2.357   2.995   6.522
   93CLA    CLA  239   4.447   1.749   4.246
   94CLA    CLA  240   3.388   4.565   5.571
   95CLA    CLA  241   7.452   3.905   0.956
   96CLA    CLA  242   6.468   0.477   4.354
   97CLA    CLA  243   4.585   3.892   3.173
   98CLA    CLA  244   6.040   0.492   0.141
   99CLA    CLA  245   1.562   0.139   6.445
  100CLA    CLA  246   1.990   5.733   3.476
  101CLA    CLA  247   5.422   1.830   1.100
  102TIP3   OH2  248   3.691   4.543   1.902
  102TIP3    H1  249   3.617   4.508   1.950
  102TIP3    H2  250   3.725   4.613   1.958
  103TIP3   OH2  251   7.609   1.502   3.648
  103TIP3    H1  252   7.649   1.447   3.716
  103TIP3    H2  253   7.681   1.556   3.616
  104TIP3   OH2  254   0.906   6.507   0.362
  104TIP3    H1  255   0.854   6.431   0.388
  104TIP3    H2  256   0.851   6.582   0.385
  105TIP3   OH2  257   1.964   7.319   2.059
  105TIP3    H1  258   1.911   7.351   1.986
  105TIP3    H2  259   2.030   7.264   2.018
  106TIP3   OH2  260   4.501   1.002   0.335
  106TIP3    H1  261   4.538   1.050   0.409
  106TIP3    H2  262   4.430   1.058   0.304
  107TIP3   OH2  263   3.336   2.731  -0.020
  107TIP3    H1  264   3.260   2.788  -0.035
  107TIP3    H2  265   3.366   2.754   0.068
  108TIP3   OH2  266   0.504   6.362   5.396
  108TIP3    H1  267   0.472   6.423   5.330
  108TIP3    H2  268   0.507   6.414   5.477
  109TIP3   OH2  269   3.134   1.901   0.357
  109TIP3    H1  270   3.154   1.807   0.359
  109TIP3    H2  271   3.123   1.922   0.265
  110TIP3   OH2  272   6.020   1.210   3.301
  110TIP3    H1  273   5.992   1.261   3.377
  110TIP3    H2  274   5.997   1.264   3.226
  111TIP3   OH2  275   7.268   2.946   5.644
  111TIP3    H1  276   7.286   2.875   5.582
  111TIP3    H2  277   7.175   2.937   5.665
  112TIP3   OH2  278   8.244   5.763   2.940
  112TIP3    H1  279   8.216   5.846   2.979
  112TIP3    H2  280   8.340   5.764   2.949
  113TIP3   OH2  281   7.950   5.540   5.876
  113TIP3    H1  282   7.865   5.519   5.837
  113TIP3    H2  283   7.985   5.610   5.820
  114TIP3   OH2  284   6.516   0.872   2.340
  114TIP3    H1  285   6.420   0.863   2.340
  114TIP3    H2  286   6.542   0.838   2.426
  115TIP3   OH2  287   4.791   0.655   1.857
  115TIP3    H1  288   4.759   0.568   1.883
  115TIP3    H2  289   4.717   0.714   1.871
  116TIP3   OH2  290   3.422   3.040   2.085
  116TIP3    H1  291   3.500   3.037   2.030
  116TIP3    H2  292   3.433   2.967   2.146
  117TIP3   OH2  293   4.190   4.568   4.583
  117TIP3    H1  294   4.170   4.486   4.537
  117TIP3    H2  295   4.125   4.630   4.551
  118TIP3   OH2  296   1.518   4.199   1.723
  118TIP3    H1  297   1.517   4.262   1.794
  118TIP3    H2  298   1.438   4.148   1.735
  119TIP3   OH2  299   1.554   4.190   0.103
  119TIP3    H1  300   1.460   4.184   0.086
  119TIP3    H2  301   1.569   4.283   0.122
  120TIP3   OH2  302   2.668   2.022   5.462
  120TIP3    H1  303   2.744   2.079   5.475
  120TIP3    H2  304   2.593   2.081   5.469
  121TIP3   OH2  305   6.239   1.957   5.495
  121TIP3    H1  306   6.258   1.868   5.467
  121TIP3    H2  307   6.185   1.993   5.424
  122TIP3   OH2  308   0.682   6.777   1.330
  122TIP3    H1  309   0.749   6.795   1.396
  122TIP3    H2  310   0.730   6.735   1.259
  123TIP3   OH2  311   6.716   7.295   2.833
  123TIP3    H1  312   6.788   7.355   2.853
  123TIP3    H2  313   6.670   7.336   2.759
  124TIP3   OH2  314   2.486   6.738   2.728
  124TIP3    H1  315   2.408   6.787   2.755
  124TIP3    H2  316   2.497   6.760   2.635
  125TIP3   OH2  317   7.097   5.057   4.403
  125TIP3    H1  318   7.044   4.993   4.449
  125TIP3    H2  319   7.046   5.138   4.408
  126TIP3   OH2  320   0.642   6.591   5.960
  126TIP3    H1  321   0.667   6.538   6.036
  126TIP3    H2  322   0.557   6.555   5.934
  127TIP3   OH2  323   6.335   1.521   4.966
  127TIP3    H1  324   6.390   1.506   4.889
  127TIP3    H2  325   6.257   1.468   4.950
  128TIP3   OH2  326   7.268   0.069   1.449
  128TIP3    H1  327   7.357   0.085   1.420
  128TIP3    H2  328   7.262   0.112   1.534
  129TIP3   OH2  329   6.799   0.340   5.723
  129TIP3    H1  330   6.769   0.337   5.632
  129TIP3    H2  331   6.803   0.433   5.743
  130TIP3   OH2  332   2.097   4.585   6.489
  130TIP3    H1  333   2.113   4.531   6.566
  130TIP3    H2  334   2.176   4.637   6.479
  131TIP3   OH2  335   8.216   2.828   0.808
  131TIP3    H1  336   8.125   2.819   0.782
  131TIP3    H2  337   8.226   2.921   0.830
  132TIP3   OH2  338   1.279   4.944   5.720
  132TIP3    H1  339   1.263   4.886   5.795
  132TIP3    H2  340   1.217   4.914   5.653
  133TIP3   OH2  341   0.332   7.572   0.028
  133TIP3    H1  342   0.358   7.551  -0.062
  133TIP3    H2  343   0.252   7.622   0.020
  134TIP3   OH2  344   5.870   2.835   5.230
  134TIP3    H1  345   5.785   2.866   5.261
  134TIP3    H2  346   5.878   2.870   5.141
  135TIP3   OH2  347   8.265   1.001   5.910
  135TIP3    H1  348   8.260   0.908   5.885
  135TIP3    H2  349   8.268   1.000   6.005
  136TIP3   OH2  350   5.897   4.211   4.022
  136TIP3    H1  351   5.840   4.244   3.953
  136TIP3    H2  352   5.986   4.232   3.992
  137TIP3   OH2  353   2.369   2.319   3.643
  137TIP3    H1  354   2.306   2.325   3.572
  137TIP3    H2  355   2.321   2.349   3.720
  138TIP3   OH2  356   3.437   7.317   5.111
  138TIP3    H1  357   3.357   7.271   5.136
  138TIP3    H2  358   3.493   7.312   5.189
  139TIP3   OH2  359   5.042   3.656   5.868
  139TIP3    H1  360   5.122   3.691   5.907
  139TIP3    H2  361   4.974   3.718   5.892
  140TIP3   OH2  362   1.217   6.436   4.825
  140TIP3    H1  363   1.183   6.392   4.748
  140TIP3    H2  364   1.304   6.399   4.839
  141TIP3   OH2  365   4.149   6.058   1.216
  141TIP3    H1  366   4.178   5.970   1.241
  141TIP3    H2  367   4.067   6.070   1.263
  142TIP3   OH2  368   0.650   2.713   4.070
  142TIP3    H1  369   0.568   2.691   4.026
  142TIP3    H2  370   0.660   2.645   4.136
  143TIP3   OH2  371   3.779   2.588   3.324
  143TIP3    H1  372   3.717   2.516   3.334
  143TIP3    H2  373   3.727   2.666   3.340
  144TIP3   OH2  374   6.791   6.102   4.176
  144TIP3    H1  375   6.788   6.182   4.124
  144TIP3    H2  376   6.772   6.131   4.266
  145TIP3   OH2  377   3.535   4.952   0.040
  145TIP3    H1  378   3.556   5.017  -0.028
  145TIP3    H2  379   3.565   4.993   0.121
  146TIP3   OH2  380   4.801   1.217   1.978
  146TIP3    H1  381   4.836   1.214   2.067
  146TIP3    H2  382   4.732   1.151   1.976
  147TIP3   OH2  383   3.979   0.238   3.781
  147TIP3    H1  384   3.997   0.144   3.779
  147TIP3    H2  385   4.065   0.279   3.777
  148TIP3   OH2  386   3.571   0.261   6.346
  148TIP3    H1  387   3.539   0.221   6.426
  148TIP3    H2  388   3.655   0.217   6.329
  149TIP3   OH2  389   0.521   0.977   5.522
  149TIP3    H1  390   0.519   1.012   5.611
  149TIP3    H2  391   0.605   0.930   5.517
  150TIP3   OH2  392   7.971   2.002   6.263
  150TIP3    H1  393   8.000   2.015   6.173
  150TIP3    H2  394   7.952   2.091   6.295
  151TIP3   OH2  395   5.646   6.656   3.171
  151TIP3    H1  396   5.586   6.710   3.120
  151TIP3    H2  397   5.704   6.718   3.215
  152TIP3   OH2  398   5.203   2.835   6.057
  152TIP3    H1  399   5.272   2.797   6.002
  152TIP3    H2  400   5.204   2.781   6.136
  153TIP3   OH2  401   7.523   3.161   1.301
  153TIP3    H1  402   7.583   3.187   1.231
  153TIP3    H2  403   7.571   3.092   1.349
  154TIP3   OH2  404   2.887   0.492   1.987
  154TIP3    H1  405   2.876   0.437   2.065
  154TIP3    H2  406   2.981   0.512   1.985
  155TIP3   OH2  407   1.571   6.821   2.658
  155TIP3    H1  408   1.602   6.824   2.568
  155TIP3    H2  409   1.592   6.907   2.694
  156TIP3   OH2  410   7.043   6.729   5.898
  156TIP3    H1  411   7.063   6.822   5.908
  156TIP3    H2  412   7.109   6.684   5.952
  157TIP3   OH2  413   6.385   4.280   1.341
  157TIP3    H1  414   6.453   4.227   1.299
  157TIP3    H2  415   6.373   4.240   1.427
  158TIP3   OH2  416   3.057   5.841   5.324
  158TIP3    H1  417   3.085   5.860   5.414
  158TIP3    H2  418   3.102   5.759   5.302
  159TIP3   OH2  419   0.446   4.256   5.931
  159TIP3    H1  420   0.374   4.214   5.977
  159TIP3    H2  421   0.511   4.187   5.918
  160TIP3   OH2  422   1.113   1.451   3.022
  160TIP3    H1  423   1.202   1.424   3.001
  160TIP3    H2  424   1.057   1.392   2.972
  161TIP3   OH2  425   7.102   7.156   5.718
  161TIP3    H1  426   7.180   7.188   5.672
  161TIP3    H2  427   7.045   7.124   5.648
  162TIP3   OH2  428   0.120   5.345   3.657
  162TIP3    H1  429   0.130   5.440   3.658
  162TIP3    H2  430   0.025   5.331   3.663
  163TIP3   OH2  431   1.933   1.792   1.639
  163TIP3    H1  432   1.855   1.835   1.605
  163TIP3    H2  433   1.971   1.747   1.563
  164TIP3   OH2  434   3.267   5.668   0.100
  164TIP3    H1  435   3.223   5.753   0.110
  164TIP3    H2  436   3.243   5.639   0.013
  165TIP3   OH2  437   3.991   1.428   1.791
  165TIP3    H1  438   4.026   1.453   1.705
  165TIP3    H2  439   4.065   1.435   1.850
  166TIP3   OH2  440   7.457   3.745   6.370
  166TIP3    H1  441   7.414   3.703   6.295
  166TIP3    H2  442   7.388   3.756   6.435
  167TIP3   OH2  443   0.562   0.454   1.478
  167TIP3    H1  444   0.561   0.365   1.513
  167TIP3    H2  445   0.654   0.473   1.465
  168TIP3   OH2  446   4.687   1.296   3.921
  168TIP3    H1  447   4.683   1.324   3.830
  168TIP3    H2  448   4.625   1.352   3.967
  169TIP3   OH2  449   4.336   6.215   6.265
  169TIP3    H1  450   4.322   6.224   6.170
  169TIP3    H2  451   4.256   6.172   6.297
  170TIP3   OH2  452   5.530   0.153   0.395
  170TIP3    H1  453   5.551   0.236   0.438
  170TIP3    H2  454   5.605   0.096   0.415
  171TIP3   OH2  455   7.361   3.848   1.739
  171TIP3    H1  456   7.415   3.778   1.704
  171TIP3    H2  457   7.422   3.906   1.785
  172TIP3   OH2  458   5.453   7.620   5.951
  172TIP3    H1  459   5.508   7.547   5.979
  172TIP3    H2  460   5.381   7.622   6.014
  173TIP3   OH2  461   2.601   1.220   1.131
  173TIP3    H1  462   2.634   1.169   1.057
  173TIP3    H2  463   2.678   1.239   1.184
  174TIP3   OH2  464   5.484   2.246   6.375
  174TIP3    H1  465   5.393   2.228   6.352
  174TIP3    H2  466   5.525   2.272   6.293
  175TIP3   OH2  467   5.187   1.668   4.917
  175TIP3    H1  468   5.218   1.700   4.832
  175TIP3    H2  469   5.208   1.574   4.916
  176TIP3   OH2  470   4.032   1.269   5.188
  176TIP3    H1  471   4.070   1.307   5.267
  176TIP3    H2  472   3.983   1.341   5.148
  177TIP3   OH2  473   6.069   0.451   2.991
  177TIP3    H1  474   6.124   0.526   2.969
  177TIP3    H2  475   6.031   0.424   2.907
  178TIP3   OH2  476   7.642   4.250   5.641
  178TIP3    H1  477   7.586   4.312   5.688
  178TIP3    H2  478   7.712   4.304   5.605
  179TIP3   OH2  479   3.382   5.100   2.532
  179TIP3    H1  480   3.415   5.188   2.513
  179TIP3    H2  481   3.431   5.072   2.610
  180TIP3   OH2  482   4.536   3.651   3.912
  180TIP3    H1  483   4.575   3.574   3.954
  180TIP3    H2  484   4.568   3.725   3.963
  181TIP3   OH2  485   3.187   5.446   4.287
  181TIP3    H1  486   3.265   5.392   4.272
  181TIP3    H2  487   3.139   5.443   4.204
  182TIP3   OH2  488   7.277   3.183   4.766
  182TIP3    H1  489   7.218   3.171   4.691
  182TIP3    H2  490   7.337   3.252   4.738
  183TIP3   OH2  491   7.050   1.950   3.137
  183TIP3    H1  492   7.081   2.039   3.150
  183TIP3    H2  493   6.968   1.960   3.087
  184TIP3   OH2  494   5.074   1.172   3.328
  184TIP3    H1  495   5.024   1.247   3.359
  184TIP3    H2  496   5.050   1.163   3.236
  185TIP3   OH2  497   2.963   4.556   6.112
  185TIP3    H1  498   3.022   4.588   6.045
  185TIP3    H2  499   3.001   4.588   6.194
  186TIP3   OH2  500   2.861   2.539   2.953
  186TIP3    H1  501   2.814   2.483   2.891
  186TIP3    H2  502   2.951   2.542   2.919
  187TIP3   OH2  503   1.707   5.852   2.625
  187TIP3    H1  504   1.771   5.787   2.596
  187TIP3    H2  505   1.640   5.852   2.557
  188TIP3   OH2  506   4.887   2.269   6.719
  188TIP3    H1  507   4.966   2.265   6.773
  188TIP3    H2  508   4.815   2.253   6.779
  189TIP3   OH2  509   3.362   1.115   1.547
  189TIP3    H1  510   3.446   1.096   1.505
  189TIP3    H2  511   3.376   1.197   1.594
  190TIP3   OH2  512   1.292   6.280   2.449
  190TIP3    H1  513   1.372   6.236   2.477
  190TIP3    H2  514   1.287   6.359   2.503
  191TIP3   OH2  515   1.260   2.697   5.961
  191TIP3    H1  516   1.188   2.654   6.008
  191TIP3    H2  517   1.323   2.627   5.943
  192TIP3   OH2  518   0.379   6.398   6.460
  192TIP3    H1  519   0.439   6.335   6.499
  192TIP3    H2  520   0.295   6.351   6.454
  193TIP3   OH2  521   0.825   6.671   6.247
  193TIP3    H1  522   0.754   6.624   6.292
  193TIP3    H2  523   0.888   6.690   6.316
  194TIP3   OH2  524   7.005   7.058   1.807
  194TIP3    H1  525   7.098   7.033   1.809
  194TIP3    H2  526   6.962   6.995   1.865
  195TIP3   OH2  527   1.435   0.892   3.004
  195TIP3    H1  528   1.462   0.939   3.083
  195TIP3    H2  529   1.503   0.826   2.991
  196TIP3   OH2  530   0.048   5.942   3.218
  196TIP3    H1  531  -0.035   5.908   3.250
  196TIP3    H2  532   0.108   5.868   3.224
  197TIP3   OH2  533   7.084   5.494   2.168
  197TIP3    H1  534   7.074   5.503   2.073
  197TIP3    H2  535   7.084   5.584   2.200
  198TIP3   OH2  536   4.968   5.481   3.932
  198TIP3    H1  537   4.963   5.539   3.856
  198TIP3    H2  538   4.910   5.521   3.997
  199TIP3   OH2  539   0.639   5.186   4.094
  199TIP3    H1  540   0.615   5.277   4.111
  199TIP3    H2  541   0.557   5.137   4.101
  200TIP3   OH2  542   1.739   7.429   4.850
  200TIP3    H1  543   1.800   7.457   4.782
  200TIP3    H2  544   1.769   7.474   4.929
  201TIP3   OH2  545   2.071   6.982   3.244
  201TIP3    H1  546   2.104   7.056   3.296
  201TIP3    H2  547   2.076   6.908   3.304
  202TIP3   OH2  548   8.291   3.044   5.550
  202TIP3    H1  549   8.376   3.067   5.587
  202TIP3    H2  550   8.229   3.062   5.620
  203TIP3   OH2  551   0.454   1.806   4.342
  203TIP3    H1  552   0.367   1.769   4.326
  203TIP3    H2  553   0.445   1.899   4.320
  204TIP3   OH2  554   4.512   0.745   1.923
  204TIP3    H1  555   4.480   0.696   1.847
  204TIP3    H2  556   4.448   0.726   1.992
  205TIP3   OH2  557   3.129   2.012   3.528
  205TIP3    H1  558   3.217   1.976   3.535
  205TIP3    H2  559   3.139   2.091   3.476
  206TIP3   OH2  560   1.436   5.411   0.212
  206TIP3    H1  561   1.448   5.339   0.274
  206TIP3    H2  562   1.458   5.373   0.127
  207TIP3   OH2  563   4.757   1.050   5.509
  207TIP3    H1  564   4.853   1.045   5.503
  207TIP3    H2  565   4.727   1.033   5.420
  208TIP3   OH2  566   3.804   0.693   3.413
  208TIP3    H1  567   3.892   0.710   3.379
  208TIP3    H2  568   3.783   0.604   3.385
  209TIP3   OH2  569   3.655   5.531   3.171
  209TIP3    H1  570   3.648   5.602   3.235
  209TIP3    H2  571   3.713   5.565   3.103
  210TIP3   OH2  572   4.105   0.561   5.672
  210TIP3    H1  573   4.080   0.648   5.641
  210TIP3    H2  574   4.188   0.543   5.628
  211TIP3   OH2  575   2.716   1.558   3.863
  211TIP3    H1  576   2.784   1.556   3.796
  211TIP3    H2  577   2.686   1.468   3.870
  212TIP3   OH2  578   3.869   3.934   0.874
  212TIP3    H1  579   3.799   3.875   0.847
  212TIP3    H2  580   3.908   3.892   0.951
  213TIP3   OH2  581   7.428   1.986   1.322
  213TIP3    H1  582   7.427   1.902   1.366
  213TIP3    H2  583   7.335   2.006   1.305
  214TIP3   OH2  584   2.726   0.054   5.403
  214TIP3    H1  585   2.646   0.051   5.455
  214TIP3    H2  586   2.697   0.071   5.314
  215TIP3   OH2  587   5.087   7.221   5.358
  215TIP3    H1  588   5.112   7.193   5.446
  215TIP3    H2  589   5.013   7.164   5.335
  216TIP3   OH2  590   6.312   7.633   4.663
  216TIP3    H1  591   6.356   7.665   4.584
  216TIP3    H2  592   6.382   7.627   4.728
  217TIP3   OH2  593   7.377   5.383   3.977
  217TIP3    H1  594   7.288   5.351   3.961
  217TIP3    H2  595   7.433   5.331   3.920
  218TIP3   OH2  596   6.283   0.854   1.680
  218TIP3    H1  597   6.189   0.870   1.688
  218TIP3    H2  598   6.313   0.838   1.769
  219TIP3   OH2  599   1.128   6.367   3.167
  219TIP3    H1  600   1.110   6.316   3.246
  219TIP3    H2  601   1.075   6.447   3.177
  220TIP3   OH2  602   3.497   2.166   2.461
  220TIP3    H1  603   3.479   2.080   2.498
  220TIP3    H2  604   3.470   2.160   2.370
  221TIP3   OH2  605   6.099   3.306   4.352
  221TIP3    H1  606   6.149   3.358   4.415
  221TIP3    H2  607   6.146   3.318   4.269
  222TIP3   OH2  608   4.012   2.538   3.955
  222TIP3    H1  609   4.013   2.464   4.015
  222TIP3    H2  610   4.009   2.616   4.011
  223TIP3   OH2  611   0.517   0.824   2.408
  223TIP3    H1  612   0.457   0.777   2.351
  223TIP3    H2  613   0.570   0.878   2.348
  224TIP3   OH2  614   2.208   2.178   3.029
  224TIP3    H1  615   2.237   2.253   2.978
  224TIP3    H2  616   2.113   2.182   3.026
  225TIP3   OH2  617   6.702   0.230   0.775
  225TIP3    H1  618   6.791   0.264   0.766
  225TIP3    H2  619   6.669   0.270   0.855
  226TIP3   OH2  620   5.751   3.335   4.562
  226TIP3    H1  621   5.833   3.295   4.590
  226TIP3    H2  622   5.685   3.268   4.575
  227TIP3   OH2  623   7.998   7.037   0.851
  227TIP3    H1  624   7.916   7.052   0.803
  227TIP3    H2  625   8.064   7.025   0.782
  228TIP3   OH2  626   6.866   1.763   4.549
  228TIP3    H1  627   6.894   1.855   4.550
  228TIP3    H2  628   6.936   1.717   4.596
  229TIP3   OH2  629   4.876   7.592   4.439
  229TIP3    H1  630   4.946   7.598   4.374
  229TIP3    H2  631   4.914   7.630   4.518
  230TIP3   OH2  632   3.105   3.513   5.041
  230TIP3    H1  633   3.027   3.567   5.043
  230TIP3    H2  634   3.145   3.525   5.128
  231TIP3   OH2  635   1.987   7.297   3.558
  231TIP3    H1  636   2.036   7.333   3.484
  231TIP3    H2  637   1.906   7.347   3.561
  232TIP3   OH2  638   1.070   7.490   6.250
  232TIP3    H1  639   1.124   7.511   6.326
  232TIP3    H2  640   0.988   7.456   6.287
  233TIP3   OH2  641   0.151   3.806   3.061
  233TIP3    H1  642   0.083   3.739   3.059
  233TIP3    H2  643   0.106   3.884   3.095
  234TIP3   OH2  644   4.999   3.191   5.576
  234TIP3    H1  645   5.023   3.280   5.553
  234TIP3    H2  646   4.920   3.173   5.526
  235TIP3   OH2  647   7.051   6.260   1.248
  235TIP3    H1  648   7.110   6.334   1.264
  235TIP3    H2  649   6.998   6.287   1.173
  236TIP3   OH2  650   0.434   3.310   1.630
  236TIP3    H1  651   0.474   3.272   1.552
  236TIP3    H2  652   0.402   3.396   1.602
  237TIP3   OH2  653   2.010   3.133   4.568
  237TIP3    H1  654   2.054   3.091   4.642
  237TIP3    H2  655   2.038   3.225   4.574
  238TIP3   OH2  656   6.638   1.053   1.265
  238TIP3    H1  657   6.581   1.020   1.334
  238TIP3    H2  658   6.667   1.138   1.297
  239TIP3   OH2  659   4.447   6.214   0.713
  239TIP3    H1  660   4.448   6.143   0.650
  239TIP3    H2  661   4.458   6.293   0.661
  240TIP3   OH2  662   4.224   4.147   6.711
  240TIP3    H1  663   4.181   4.087   6.650
  240TIP3    H2  664   4.317   4.124   6.706
  241TIP3   OH2  665   7.500   3.110   0.354
  241TIP3    H1  666   7.426   3.087   0.411
  241TIP3    H2  667   7.574   3.060   0.388
  242TIP3   OH2  668   7.041   3.045   0.651
  242TIP3    H1  669   6.971   2.980   0.644
  242TIP3    H2  670   7.035   3.096   0.570
  243TIP3   OH2  671   0.454   0.399   2.449
  243TIP3    H1  672   0.475   0.492   2.454
  243TIP3    H2  673   0.538   0.355   2.460
  244TIP3   OH2  674   4.186   4.430   5.814
  244TIP3    H1  675   4.211   4.376   5.889
  244TIP3    H2  676   4.158   4.513   5.853
  245TIP3   OH2  677   0.084   6.325   3.493
  245TIP3    H1  678   0.014   6.315   3.557
  245TIP3    H2  679   0.056   6.272   3.418
  246TIP3   OH2  680   2.063   2.673   3.449
  246TIP3    H1  681   1.969   2.653   3.455
  246TIP3    H2  682   2.066   2.763   3.416
  247TIP3   OH2  683   2.719   0.317   5.191
  247TIP3    H1  684   2.674   0.398   5.167
  247TIP3    H2  685   2.652   0.249   5.184
  248TIP3   OH2  686   2.342   4.534   2.767
  248TIP3    H1  687   2.346   4.477   2.844
  248TIP3    H2  688   2.404   4.494   2.705
  249TIP3   OH2  689   2.776   7.748  -0.038
  249TIP3    H1  690   2.786   7.682   0.030
  249TIP3    H2  691   2.865   7.780  -0.054
  250TIP3   OH2  692   1.832   5.829   3.232
  250TIP3    H1  693   1.896   5.800   3.297
  250TIP3    H2  694   1.877   5.898   3.183
  251TIP3   OH2  695   2.700   1.526   0.300
  251TIP3    H1  696   2.775   1.495   0.351
  251TIP3    H2  697   2.714   1.621   0.292
  252TIP3   OH2  698   4.268   0.541   1.419
  252TIP3    H1  699   4.262   0.633   1.443
  252TIP3    H2  700   4.226   0.536   1.333
  253TIP3   OH2  701   6.139   2.399   3.273
  253TIP3    H1  702   6.089   2.328   3.314
  253TIP3    H2  703   6.188   2.439   3.345
  254TIP3   OH2  704   7.965   6.097   2.922
  254TIP3    H1  705   7.878   6.116   2.957
  254TIP3    H2  706   7.954   6.014   2.876
  255TIP3   OH2  707   0.669   5.034   3.060
  255TIP3    H1  708   0.644   4.964   2.999
  255TIP3    H2  709   0.666   5.113   3.007
  256TIP3   OH2  710   7.067   0.987   3.949
  256TIP3    H1  711   7.072   1.049   4.022
  256TIP3    H2  712   6.977   0.955   3.952
  257TIP3   OH2  713   7.130   5.345   0.076
  257TIP3    H1  714   7.071   5.274   0.102
  257TIP3    H2  715   7.097   5.372  -0.010
  258TIP3   OH2  716   3.317   4.588   2.310
  258TIP3    H1  717   3.408   4.615   2.319
  258TIP3    H2  718   3.281   4.592   2.399
  259TIP3   OH2  719   4.624   4.818   1.114
  259TIP3    H1  720   4.573   4.752   1.066
  259TIP3    H2  721   4.705   4.772   1.137
  260TIP3   OH2  722   2.341   1.398   1.848
  260TIP3    H1  723   2.365   1.408   1.940
  260TIP3    H2  724   2.339   1.304   1.833
  261TIP3   OH2  725   6.963   0.341   0.734
  261TIP3    H1  726   7.025   0.298   0.676
  261TIP3    H2  727   7.003   0.335   0.821
  262TIP3   OH2  728   4.049   7.126   0.781
  262TIP3    H1  729   3.992   7.106   0.855
  262TIP3    H2  730   4.060   7.222   0.784
  263TIP3   OH2  731   3.667   4.895   4.640
  263TIP3    H1  732   3.605   4.969   4.641
  263TIP3    H2  733   3.660   4.859   4.552
  264TIP3   OH2  734   5.570   2.933   5.345
  264TIP3    H1  735   5.514   2.858   5.328
  264TIP3    H2  736   5.517   2.991   5.400
  265TIP3   OH2  737   2.761   2.014   3.420
  265TIP3    H1  738   2.705   1.939   3.440
  265TIP3    H2  739   2.750   2.073   3.494
  266TIP3   OH2  740   6.296   1.016   2.741
  266TIP3    H1  741   6.255   1.067   2.811
  266TIP3    H2  742   6.224   0.997   2.681
  267TIP3   OH2  743   1.621   4.764   4.213
  267TIP3    H1  744   1.584   4.733   4.296
  267TIP3    H2  745   1.698   4.710   4.200
  268TIP3   OH2  746   0.363   6.545   3.221
  268TIP3    H1  747   0.346   6.629   3.263
  268TIP3    H2  748   0.373   6.483   3.293
  269TIP3   OH2  749   5.427   3.714   1.926
  269TIP3    H1  750   5.393   3.663   1.853
  269TIP3    H2  751   5.353   3.721   1.986
  270TIP3   OH2  752   5.745   2.203   0.418
  270TIP3    H1  753   5.822   2.258   0.409
  270TIP3    H2  754   5.714   2.221   0.507
  271TIP3   OH2  755   5.589   3.737   3.762
  271TIP3    H1  756   5.645   3.679   3.814
  271TIP3    H2  757   5.630   3.823   3.771
  272TIP3   OH2  758   1.862   7.352   5.710
  272TIP3    H1  759   1.821   7.438   5.722
  272TIP3    H2  760   1.825   7.297   5.779
  273TIP3   OH2  761   2.634   0.343   1.502
  273TIP3    H1  762   2.663   0.252   1.488
  273TIP3    H2  763   2.701   0.380   1.560
  274TIP3   OH2  764   7.032   2.343   6.659
  274TIP3    H1  765   7.033   2.378   6.569
  274TIP3    H2  766   6.948   2.373   6.695
  275TIP3   OH2  767   2.829   2.307   5.174
  275TIP3    H1  768   2.893   2.340   5.237
  275TIP3    H2  769   2.880   2.251   5.115
  276TIP3   OH2  770   0.385   7.636   1.165
  276TIP3    H1  771   0.381   7.731   1.175
  276TIP3    H2  772   0.429   7.623   1.081
  277TIP3   OH2  773   1.697   0.413   4.270
  277TIP3    H1  774   1.658   0.358   4.202
  277TIP3    H2  775   1.673   0.370   4.352
  278TIP3   OH2  776   6.925   2.595   0.248
  278TIP3    H1  777   6.917   2.510   0.204
  278TIP3    H2  778   6.870   2.586   0.326
  279TIP3   OH2  779   2.424   2.059   2.156
  279TIP3    H1  780   2.356   2.004   2.118
  279TIP3    H2  781   2.448   2.015   2.238
  280TIP3   OH2  782   2.712   1.069   5.011
  280TIP3    H1  783   2.655   0.992   5.013
  280TIP3    H2  784   2.652   1.144   5.016
  281TIP3   OH2  785   3.677   4.744   0.204
  281TIP3    H1  786   3.648   4.831   0.175
  281TIP3    H2  787   3.771   4.744   0.188
  282TIP3   OH2  788   4.480   0.259   2.406
  282TIP3    H1  789   4.553   0.313   2.436
  282TIP3    H2  790   4.448   0.304   2.328
  283TIP3   OH2  791   0.432   5.114   6.550
  283TIP3    H1  792   0.468   5.100   6.638
  283TIP3    H2  793   0.478   5.051   6.495
  284TIP3   OH2  794   7.524   6.614   1.463
  284TIP3    H1  795   7.535   6.636   1.371
  284TIP3    H2  796   7.526   6.518   1.465
  285TIP3   OH2  797   4.427   7.745   6.345
  285TIP3    H1  798   4.480   7.752   6.424
  285TIP3    H2  799   4.373   7.824   6.344
  286TIP3   OH2  800   5.655   7.082   2.462
  286TIP3    H1  801   5.627   7.153   2.520
  286TIP3    H2  802   5.624   7.002   2.506
  287TIP3   OH2  803   5.838   2.294   6.273
  287TIP3    H1  804   5.818   2.200   6.272
  287TIP3    H2  805   5.933   2.298   6.265
  288TIP3   OH2  806   6.714   5.372   4.389
  288TIP3    H1  807   6.655   5.322   4.333
  288TIP3    H2  808   6.703   5.334   4.476
  289TIP3   OH2  809   5.568   6.263   2.174
  289TIP3    H1  810   5.619   6.199   2.223
  289TIP3    H2  811   5.631   6.333   2.154
  290TIP3   OH2  812   7.906   5.577   3.753
  290TIP3    H1  813   7.923   5.665   3.719
  290TIP3    H2  814   7.856   5.592   3.833
  291TIP3   OH2  815   2.383   1.153   6.668
  291TIP3    H1  816   2.396   1.239   6.628
  291TIP3    H2  817   2.323   1.108   6.608
  292TIP3   OH2  818   3.013   7.538   3.554
  292TIP3    H1  819   2.986   7.517   3.465
  292TIP3    H2  820   2.945   7.597   3.586
  293TIP3   OH2  821   0.634   7.112   1.611
  293TIP3    H1  822   0.566   7.077   1.552
  293TIP3    H2  823   0.716   7.080   1.574
  294TIP3   OH2  824   7.565   4.697   0.218
  294TIP3    H1  825   7.520   4.725   0.138
  294TIP3    H2  826   7.511   4.627   0.254
  295TIP3   OH2  827   8.274   7.352   4.295
  295TIP3    H1  828   8.292   7.274   4.241
  295TIP3    H2  829   8.322   7.335   4.376
  296TIP3   OH2  830   2.305   7.484   4.099
  296TIP3    H1  831   2.216   7.459   4.072
  296TIP3    H2  832   2.362   7.425   4.050
  297TIP3   OH2  833   7.849   7.302   1.044
  297TIP3    H1  834   7.810   7.389   1.048
  297TIP3    H2  835   7.924   7.312   0.986
  298TIP3   OH2  836   7.109   0.490   5.943
  298TIP3    H1  837   7.154   0.511   5.861
  298TIP3    H2  838   7.179   0.465   6.003
  299TIP3   OH2  839   3.223   4.129   1.393
  299TIP3    H1  840   3.241   4.133   1.487
  299TIP3    H2  841   3.130   4.108   1.387
  300TIP3   OH2  842   2.702   5.590   3.065
  300TIP3    H1  843   2.682   5.506   3.106
  300TIP3    H2  844   2.668   5.655   3.127
  301TIP3   OH2  845   5.959   3.608   3.036
  301TIP3    H1  846   5.911   3.525   3.034
  301TIP3    H2  847   6.039   3.587   3.085
  302TIP3   OH2  848   3.036   7.304   3.175
  302TIP3    H1  849   3.076   7.217   3.171
  302TIP3    H2  850   2.988   7.312   3.092
  303TIP3   OH2  851   7.010   5.609   4.804
  303TIP3    H1  852   7.071   5.540   4.777
  303TIP3    H2  853   7.024   5.618   4.898
  304TIP3   OH2  854   4.411   3.467   0.318
  304TIP3    H1  855   4.463   3.434   0.245
  304TIP3    H2  856   4.338   3.513   0.277
  305TIP3   OH2  857   7.351   3.894   2.718
  305TIP3    H1  858   7.298   3.855   2.788
  305TIP3    H2  859   7.296   3.962   2.680
  306TIP3   OH2  860   1.523   5.985   6.710
  306TIP3    H1  861   1.581   6.010   6.638
  306TIP3    H2  862   1.578   5.932   6.768
  307TIP3   OH2  863   5.662   2.194   4.278
  307TIP3    H1  864   5.638   2.117   4.329
  307TIP3    H2  865   5.758   2.192   4.274
  308TIP3   OH2  866   7.518   4.109   5.442
  308TIP3    H1  867   7.557   4.143   5.522
  308TIP3    H2  868   7.500   4.017   5.461
  309TIP3   OH2  869   5.326   0.507   3.606
  309TIP3    H1  870   5.240   0.467   3.601
  309TIP3    H2  871   5.383   0.438   3.640
  310TIP3   OH2  872   6.879   6.240   1.463
  310TIP3    H1  873   6.933   6.238   1.384
  310TIP3    H2  874   6.941   6.232   1.535
  311TIP3   OH2  875   1.693   3.257   6.469
  311TIP3    H1  876   1.644   3.314   6.411
  311TIP3    H2  877   1.627   3.209   6.519
  312TIP3   OH2  878   2.858   4.480   6.743
  312TIP3    H1  879   2.823   4.391   6.753
  312TIP3    H2  880   2.792   4.536   6.785
  313TIP3   OH2  881   2.933   3.708   0.219
  313TIP3    H1  882   2.914   3.670   0.133
  313TIP3    H2  883   2.937   3.632   0.278
  314TIP3   OH2  884   0.827   5.587   0.983
  314TIP3    H1  885   0.779   5.665   0.953
  314TIP3    H2  886   0.758   5.524   1.003
  315TIP3   OH2  887   0.817   0.049   5.766
  315TIP3    H1  888   0.854   0.136   5.750
  315TIP3    H2  889   0.769   0.029   5.686
  316TIP3   OH2  890   3.181   7.430   2.310
  316TIP3    H1  891   3.135   7.359   2.266
  316TIP3    H2  892   3.159   7.419   2.403
  317TIP3   OH2  893   7.570   7.394   0.878
  317TIP3    H1  894   7.587   7.424   0.967
  317TIP3    H2  895   7.635   7.439   0.824
  318TIP3   OH2  896   0.155   2.351   5.598
  318TIP3    H1  897   0.166   2.418   5.530
  318TIP3    H2  898   0.223   2.371   5.663
  319TIP3   OH2  899   0.133   4.364   6.287
  319TIP3    H1  900   0.119   4.440   6.343
  319TIP3    H2  901   0.179   4.301   6.343
  320TIP3   OH2  902   3.077   2.125   2.195
  320TIP3    H1  903   3.071   2.030   2.196
  320TIP3    H2  904   3.015   2.151   2.127
  321TIP3   OH2  905   7.953   3.877   3.001
  321TIP3    H1  906   7.981   3.960   2.962
  321TIP3    H2  907   7.985   3.810   2.940
  322TIP3   OH2  908   5.130   0.713   5.162
  322TIP3    H1  909   5.039   0.734   5.182
  322TIP3    H2  910   5.151   0.767   5.086
  323TIP3   OH2  911   4.830   5.695   2.731
  323TIP3    H1  912   4.882   5.762   2.775
  323TIP3    H2  913   4.742   5.703   2.769
  324TIP3   OH2  914   0.675   2.227   0.029
  324TIP3    H1  915   0.613   2.272  -0.029
  324TIP3    H2  916   0.632   2.227   0.115
  325TIP3   OH2  917   0.608   4.882   5.168
  325TIP3    H1  918   0.667   4.934   5.114
  325TIP3    H2  919   0.569   4.945   5.229
  326TIP3   OH2  920   7.097   0.316   1.973
  326TIP3    H1  921   7.160   0.247   1.992
  326TIP3    H2  922   7.013   0.271   1.965
  327TIP3   OH2  923   8.170   0.224   2.867
  327TIP3    H1  924   8.173   0.148   2.808
  327TIP3    H2  925   8.092   0.272   2.841
  328TIP3   OH2  926   7.992   1.333   2.553
  328TIP3    H1  927   8.077   1.351   2.594
  328TIP3    H2  928   7.983   1.238   2.557
  329TIP3   OH2  929   7.753   4.543   5.362
  329TIP3    H1  930   7.724   4.546   5.271
  329TIP3    H2  931   7.843   4.509   5.357
  330TIP3   OH2  932   4.959   3.159   3.433
  330TIP3    H1  933   4.924   3.235   3.480
  330TIP3    H2  934   4.937   3.084   3.488
  331TIP3   OH2  935   1.981   5.637   6.050
  331TIP3    H1  936   1.942   5.616   6.135
  331TIP3    H2  937   1.927   5.708   6.016
  332TIP3   OH2  938   6.776   5.065   1.070
  332TIP3    H1  939   6.776   4.978   1.030
  332TIP3    H2  940   6.788   5.047   1.164
  333TIP3   OH2  941   7.155   5.992   1.900
  333TIP3    H1  942   7.065   5.961   1.884
  333TIP3    H2  943   7.145   6.068   1.956
  334TIP3   OH2  944   5.593   1.309   3.158
  334TIP3    H1  945   5.522   1.354   3.205
  334TIP3    H2  946   5.625   1.244   3.221
  335TIP3   OH2  947   1.013   6.126   3.009
  335TIP3    H1  948   1.035   6.177   2.931
  335TIP3    H2  949   0.919   6.141   3.020
  336TIP3   OH2  950   7.774   1.718   5.738
  336TIP3    H1  951   7.743   1.628   5.739
  336TIP3    H2  952   7.853   1.717   5.793
  337TIP3   OH2  953   2.104   3.703   0.247
  337TIP3    H1  954   2.042   3.647   0.202
  337TIP3    H2  955   2.068   3.715   0.334
  338TIP3   OH2  956   8.060   5.461   1.589
  338TIP3    H1  957   7.971   5.442   1.618
  338TIP3    H2  958   8.073   5.554   1.610
  339TIP3   OH2  959   5.721   5.951   1.990
  339TIP3    H1  960   5.637   5.917   1.958
  339TIP3    H2  961   5.760   5.879   2.038
  340TIP3   OH2  962   5.453   3.612   4.432
  340TIP3    H1  963   5.519   3.591   4.498
  340TIP3    H2  964   5.398   3.534   4.427
  341TIP3   OH2  965   3.254   1.097   2.165
  341TIP3    H1  966   3.321   1.034   2.194
  341TIP3    H2  967   3.225   1.138   2.246
  342TIP3   OH2  968   3.372   1.587   1.809
  342TIP3    H1  969   3.375   1.661   1.748
  342TIP3    H2  970   3.297   1.606   1.866
  343TIP3   OH2  971   0.091   3.593   0.467
  343TIP3    H1  972   0.042   3.541   0.532
  343TIP3    H2  973   0.105   3.677   0.510
  344TIP3   OH2  974   3.491   2.491   3.622
  344TIP3    H1  975   3.555   2.458   3.684
  344TIP3    H2  976   3.408   2.450   3.648
  345TIP3   OH2  977   8.277   1.008   4.338
  345TIP3    H1  978   8.218   0.935   4.321
  345TIP3    H2  979   8.228   1.068   4.394
  346TIP3   OH2  980   1.772   0.786   6.241
  346TIP3    H1  981   1.775   0.829   6.155
  346TIP3    H2  982   1.698   0.725   6.234
  347TIP3   OH2  983   4.405   2.958   2.685
  347TIP3    H1  984   4.495   2.985   2.702
  347TIP3    H2  985   4.372   2.931   2.771
  348TIP3   OH2  986   7.562   1.449   4.486
  348TIP3    H1  987   7.468   1.432   4.480
  348TIP3    H2  988   7.580   1.460   4.579
  349TIP3   OH2  989   7.473   4.277   3.255
  349TIP3    H1  990   7.568   4.284   3.263
  349TIP3    H2  991   7.445   4.366   3.230
  350TIP3   OH2  992   1.742   1.459   5.454
  350TIP3    H1  993   1.660   1.438   5.408
  350TIP3    H2  994   1.729   1.423   5.542
  351TIP3   OH2  995   0.221   6.762   4.628
  351TIP3    H1  996   0.154   6.724   4.684
  351TIP3    H2  997   0.291   6.786   4.688
  352TIP3   OH2  998   0.277   1.229   0.279
  352TIP3    H1  999   0.319   1.314   0.282
  352TIP3    H2 1000   0.267   1.210   0.186
  353TIP3   OH2 1001   6.553   7.632   1.706
  353TIP3    H1 1002   6.607   7.648   1.629
  353TIP3    H2 1003   6.508   7.550   1.688
  354TIP3   OH2 1004   0.343   2.326   4.890
  354TIP3    H1 1005   0.252   2.335   4.920
  354TIP3    H2 1006   0.385   2.271   4.957
  355TIP3   OH2 1007   0.160   0.262   0.540
  355TIP3    H1 1008   0.104   0.188   0.560
  355TIP3    H2 1009   0.113   0.312   0.473
  356TIP3   OH2 1010   3.698   3.146   3.213
  356TIP3    H1 1011   3.757   3.074   3.236
  356TIP3    H2 1012   3.717   3.164   3.121
  357TIP3   OH2 1013   2.675   1.491   2.695
  357TIP3    H1 1014   2.664   1.553   2.623
  357TIP3    H2 1015   2.594   1.500   2.746
  358TIP3   OH2 1016   1.838   6.292   1.636
  358TIP3    H1 1017   1.767   6.239   1.601
  358TIP3    H2 1018   1.907   6.230   1.657
  359TIP3   OH2 1019   1.703   1.800   4.835
  359TIP3    H1 1020   1.621   1.827   4.794
  359TIP3    H2 1021   1.708   1.851   4.915
  360TIP3   OH2 1022   3.986   2.661   3.574
  360TIP3    H1 1023   4.017   2.745   3.609
  360TIP3    H2 1024   3.893   2.676   3.556
  361TIP3   OH2 1025   3.314   3.415   1.072
  361TIP3    H1 1026   3.361   3.396   1.153
  361TIP3    H2 1027   3.337   3.506   1.051
  362TIP3   OH2 1028   4.495   2.911   4.441
  362TIP3    H1 1029   4.478   2.849   4.371
  362TIP3    H2 1030   4.449   2.875   4.517
  363TIP3   OH2 1031   4.863   4.541   5.205
  363TIP3    H1 1032   4.937   4.483   5.187
  363TIP3    H2 1033   4.786   4.484   5.203
  364TIP3   OH2 1034   1.869   1.228   1.397
  364TIP3    H1 1035   1.851   1.293   1.465
  364TIP3    H2 1036   1.800   1.241   1.333
  365TIP3   OH2 1037   3.343   6.645   2.325
  365TIP3    H1 1038   3.271   6.700   2.294
  365TIP3    H2 1039   3.416   6.668   2.268
  366TIP3   OH2 1040   2.099   2.390   4.657
  366TIP3    H1 1041   2.145   2.361   4.736
  366TIP3    H2 1042   2.088   2.484   4.670
  367TIP3   OH2 1043   1.627   6.486   5.018
  367TIP3    H1 1044   1.700   6.447   5.067
  367TIP3    H2 1045   1.571   6.524   5.086
  368TIP3   OH2 1046   0.401   4.408   5.518
  368TIP3    H1 1047   0.453   4.484   5.490
  368TIP3    H2 1048   0.338   4.394   5.447
  369TIP3   OH2 1049   3.468   4.675   2.612
  369TIP3    H1 1050   3.444   4.763   2.641
  369TIP3    H2 1051   3.388   4.624   2.621
  370TIP3   OH2 1052   7.935   2.885   2.055
  370TIP3    H1 1053   7.848   2.922   2.048
  370TIP3    H2 1054   7.921   2.795   2.084
  371TIP3   OH2 1055   4.969   2.705   2.883
  371TIP3    H1 1056   4.985   2.792   2.846
  371TIP3    H2 1057   4.902   2.720   2.950
  372TIP3   OH2 1058   1.503   1.921   2.023
  372TIP3    H1 1059   1.414   1.926   1.989
  372TIP3    H2 1060   1.494   1.875   2.106
  373TIP3   OH2 1061   8.246   7.710   4.922
  373TIP3    H1 1062   8.284   7.655   4.853
  373TIP3    H2 1063   8.320   7.762   4.954
  374TIP3   OH2 1064   4.231   0.725   4.229
  374TIP3    H1 1065   4.301   0.706   4.291
  374TIP3    H2 1066   4.247   0.815   4.201
  375TIP3   OH2 1067   1.415   1.407   1.403
  375TIP3    H1 1068   1.323   1.420   1.427
  375TIP3    H2 1069   1.422   1.443   1.315
  376TIP3   OH2 1070   2.631   0.096   0.731
  376TIP3    H1 1071   2.679   0.015   0.751
  376TIP3    H2 1072   2.588   0.078   0.648
  377TIP3   OH2 1073   6.700   1.088   4.187
  377TIP3    H1 1074   6.616   1.133   4.198
  377TIP3    H2 1075   6.703   1.026   4.261
  378TIP3   OH2 1076   3.836   0.450   5.614
  378TIP3    H1 1077   3.903   0.450   5.682
  378TIP3    H2 1078   3.885   0.436   5.533
  379TIP3   OH2 1079   2.717   2.113   3.707
  379TIP3    H1 1080   2.754   2.190   3.749
  379TIP3    H2 1081   2.733   2.042   3.770
  380TIP3   OH2 1082   4.672   4.497   2.806
  380TIP3    H1 1083   4.744   4.554   2.780
  380TIP3    H2 1084   4.712   4.412   2.821
  381TIP3   OH2 1085   5.700   3.656   5.395
  381TIP3    H1 1086   5.630   3.607   5.440
  381TIP3    H2 1087   5.686   3.638   5.302
  382TIP3   OH2 1088   0.869   6.318   4.383
  382TIP3    H1 1089   0.869   6.406   4.422
  382TIP3    H2 1090   0.887   6.259   4.456
  383TIP3   OH2 1091   3.528   0.430   5.951
  383TIP3    H1 1092   3.545   0.510   5.902
  383TIP3    H2 1093   3.512   0.459   6.041
  384TIP3   OH2 1094   2.661   0.756   5.603
  384TIP3    H1 1095   2.676   0.800   5.520
  384TIP3    H2 1096   2.579   0.794   5.636
  385TIP3   OH2 1097   5.574   7.421   5.701
  385TIP3    H1 1098   5.525   7.341   5.683
  385TIP3    H2 1099   5.511   7.492   5.687
  386TIP3   OH2 1100   3.064   4.914   0.419
  386TIP3    H1 1101   3.155   4.887   0.408
  386TIP3    H2 1102   3.068   4.985   0.483
  387TIP3   OH2 1103   3.081   1.999   1.254
  387TIP3    H1 1104   3.033   1.918   1.273
  387TIP3    H2 1105   3.053   2.023   1.166
  388TIP3   OH2 1106   1.318   2.103   3.607
  388TIP3    H1 1107   1.335   2.014   3.640
  388TIP3    H2 1108   1.292   2.152   3.685
  389TIP3   OH2 1109   7.663   3.443   3.244
  389TIP3    H1 1110   7.749   3.416   3.276
  389TIP3    H2 1111   7.640   3.519   3.298
  390TIP3   OH2 1112   4.795   2.476   5.460
  390TIP3    H1 1113   4.732   2.538   5.422
  390TIP3    H2 1114   4.762   2.459   5.548
  391TIP3   OH2 1115   8.222   6.883   3.725
  391TIP3    H1 1116   8.201   6.915   3.637
  391TIP3    H2 1117   8.139   6.850   3.759
  392TIP3   OH2 1118   1.707   5.303   6.643
  392TIP3    H1 1119   1.796   5.286   6.610
  392TIP3    H2 1120   1.664   5.218   6.637
  393TIP3   OH2 1121   2.100   6.930   4.992
  393TIP3    H1 1122   2.038   7.003   4.994
  393TIP3    H2 1123   2.046   6.853   5.006
  394TIP3   OH2 1124   7.961   0.213   0.368
  394TIP3    H1 1125   7.959   0.213   0.273
  394TIP3    H2 1126   7.900   0.283   0.393
  395TIP3   OH2 1127   1.960   6.025   0.204
  395TIP3    H1 1128   1.986   6.023   0.112
  395TIP3    H2 1129   1.866   6.008   0.203
  396TIP3   OH2 1130   6.381   5.730   5.875
  396TIP3    H1 1131   6.382   5.672   5.799
  396TIP3    H2 1132   6.306   5.700   5.927
  397TIP3   OH2 1133   4.842   7.600   6.030
  397TIP3    H1 1134   4.928   7.630   6.059
  397TIP3    H2 1135   4.856   7.568   5.941
  398TIP3   OH2 1136   5.125   7.329   2.028
  398TIP3    H1 1137   5.086   7.257   1.978
  398TIP3    H2 1138   5.203   7.354   1.979
  399TIP3   OH2 1139   6.766   3.254   2.991
  399TIP3    H1 1140   6.680   3.228   3.022
  399TIP3    H2 1141   6.822   3.178   3.008
  400TIP3   OH2 1142   6.631   1.002   1.931
  400TIP3    H1 1143   6.691   0.984   1.858
  400TIP3    H2 1144   6.681   0.978   2.009
  401TIP3   OH2 1145   1.646   6.722   3.434
  401TIP3    H1 1146   1.725   6.676   3.407
  401TIP3    H2 1147   1.642   6.799   3.377
  402TIP3   OH2 1148   0.521   2.851   6.287
  402TIP3    H1 1149   0.515   2.791   6.361
  402TIP3    H2 1150   0.512   2.794   6.210
  403TIP3   OH2 1151   7.987   1.050   3.028
  403TIP3    H1 1152   7.999   1.044   3.123
  403TIP3    H2 1153   8.047   0.985   2.993
  404TIP3   OH2 1154   5.064   7.795   2.666
  404TIP3    H1 1155   5.113   7.736   2.724
  404TIP3    H2 1156   4.974   7.792   2.699
  405TIP3   OH2 1157   5.643   7.425   5.234
  405TIP3    H1 1158   5.615   7.352   5.289
  405TIP3    H2 1159   5.661   7.385   5.149
  406TIP3   OH2 1160   1.648   7.120   1.340
  406TIP3    H1 1161   1.579   7.079   1.287
  406TIP3    H2 1162   1.695   7.046   1.379
  407TIP3   OH2 1163   1.448   3.741   2.263
  407TIP3    H1 1164   1.449   3.729   2.358
  407TIP3    H2 1165   1.365   3.785   2.245
  408TIP3   OH2 1166   7.013   7.035   2.697
  408TIP3    H1 1167   7.108   7.024   2.704
  408TIP3    H2 1168   6.986   7.067   2.783
  409TIP3   OH2 1169   7.938   4.790   1.406
  409TIP3    H1 1170   7.872   4.856   1.384
  409TIP3    H2 1171   7.910   4.713   1.356
  410TIP3   OH2 1172   2.255   0.501   0.052
  410TIP3    H1 1173   2.215   0.454   0.124
  410TIP3    H2 1174   2.349   0.493   0.067
  411TIP3   OH2 1175   7.638   7.669   2.545
  411TIP3    H1 1176   7.651   7.614   2.467
  411TIP3    H2 1177   7.726   7.684   2.579
  412TIP3   OH2 1178   7.979   5.002   4.672
  412TIP3    H1 1179   8.033   4.935   4.629
  412TIP3    H2 1180   7.918   4.952   4.726
  413TIP3   OH2 1181   3.991   0.430   4.838
  413TIP3    H1 1182   4.014   0.428   4.931
  413TIP3    H2 1183   3.979   0.338   4.814
  414TIP3   OH2 1184   2.052   0.813   0.547
  414TIP3    H1 1185   2.045   0.825   0.641
  414TIP3    H2 1186   1.962   0.824   0.515
  415TIP3   OH2 1187   1.629   0.068   1.796
  415TIP3    H1 1188   1.632   0.017   1.877
  415TIP3    H2 1189   1.693   0.138   1.809
  416TIP3   OH2 1190   1.537   6.444   0.787
  416TIP3    H1 1191   1.488   6.365   0.765
  416TIP3    H2 1192   1.627   6.413   0.798
  417TIP3   OH2 1193   5.220   7.613   6.700
  417TIP3    H1 1194   5.242   7.705   6.717
  417TIP3    H2 1195   5.128   7.615   6.676
  418TIP3   OH2 1196   7.913   3.700   3.407
  418TIP3    H1 1197   7.836   3.725   3.356
  418TIP3    H2 1198   7.882   3.632   3.467
  419TIP3   OH2 1199   7.923   3.218   6.643
  419TIP3    H1 1200   7.925   3.308   6.609
  419TIP3    H2 1201   8.015   3.195   6.653
  420TIP3   OH2 1202   3.363   6.028   0.377
  420TIP3    H1 1203   3.357   6.040   0.283
  420TIP3    H2 1204   3.287   6.075   0.413
  421TIP3   OH2 1205   2.930   3.871   5.720
  421TIP3    H1 1206   2.870   3.891   5.648
  421TIP3    H2 1207   2.876   3.824   5.784
  422TIP3   OH2 1208   1.185   5.426   5.146
  422TIP3    H1 1209   1.221   5.352   5.096
  422TIP3    H2 1210   1.129   5.386   5.213
  423TIP3   OH2 1211   4.009   0.608   1.921
  423TIP3    H1 1212   3.945   0.546   1.955
  423TIP3    H2 1213   4.038   0.572   1.837
  424TIP3   OH2 1214   4.184   2.225   6.567
  424TIP3    H1 1215   4.128   2.184   6.501
  424TIP3    H2 1216   4.164   2.319   6.559
  425TIP3   OH2 1217   7.853   0.892   1.519
  425TIP3    H1 1218   7.905   0.953   1.570
  425TIP3    H2 1219   7.854   0.928   1.430
  426TIP3   OH2 1220   3.710   7.490   1.596
  426TIP3    H1 1221   3.650   7.518   1.527
  426TIP3    H2 1222   3.676   7.532   1.676
  427TIP3   OH2 1223   4.319   2.711   3.185
  427TIP3    H1 1224   4.242   2.709   3.128
  427TIP3    H2 1225   4.299   2.649   3.255
  428TIP3   OH2 1226   8.159   3.324   0.960
  428TIP3    H1 1227   8.134   3.362   1.044
  428TIP3    H2 1228   8.111   3.374   0.895
  429TIP3   OH2 1229   6.918   4.437   6.311
  429TIP3    H1 1230   6.951   4.526   6.325
  429TIP3    H2 1231   6.986   4.394   6.260
  430TIP3   OH2 1232   5.985   5.339   2.476
  430TIP3    H1 1233   5.995   5.302   2.388
  430TIP3    H2 1234   6.051   5.293   2.529
  431TIP3   OH2 1235   4.700   4.831   2.857
  431TIP3    H1 1236   4.724   4.769   2.788
  431TIP3    H2 1237   4.774   4.891   2.863
  432TIP3   OH2 1238   2.280   4.865   2.727
  432TIP3    H1 1239   2.200   4.908   2.699
  432TIP3    H2 1240   2.268   4.848   2.820
  433TIP3   OH2 1241   5.442   7.043   4.291
  433TIP3    H1 1242   5.407   7.119   4.244
  433TIP3    H2 1243   5.379   7.028   4.362
  434TIP3   OH2 1244   2.464   5.295   1.505
  434TIP3    H1 1245   2.454   5.213   1.456
  434TIP3    H2 1246   2.380   5.306   1.551
  435TIP3   OH2 1247   6.517   1.859   4.084
  435TIP3    H1 1248   6.528   1.816   3.999
  435TIP3    H2 1249   6.591   1.827   4.137
  436TIP3   OH2 1250   6.148   5.975   4.776
  436TIP3    H1 1251   6.214   5.932   4.830
  436TIP3    H2 1252   6.083   6.007   4.838
  437TIP3   OH2 1253   5.090   1.595   2.931
  437TIP3    H1 1254   5.133   1.608   2.846
  437TIP3    H2 1255   5.134   1.519   2.968
  438TIP3   OH2 1256   0.795   2.738   1.147
  438TIP3    H1 1257   0.705   2.761   1.122
  438TIP3    H2 1258   0.849   2.791   1.088
  439TIP3   OH2 1259   8.172   1.002   5.468
  439TIP3    H1 1260   8.104   0.962   5.414
  439TIP3    H2 1261   8.126   1.029   5.548
  440TIP3   OH2 1262   7.435   4.655   1.523
  440TIP3    H1 1263   7.503   4.645   1.456
  440TIP3    H2 1264   7.416   4.566   1.552
  441TIP3   OH2 1265   0.691   6.901   6.622
  441TIP3    H1 1266   0.759   6.959   6.588
  441TIP3    H2 1267   0.668   6.938   6.707
  442TIP3   OH2 1268   7.935   0.648   1.521
  442TIP3    H1 1269   7.903   0.738   1.515
  442TIP3    H2 1270   8.029   0.657   1.539
  443TIP3   OH2 1271   3.433   3.096   2.952
  443TIP3    H1 1272   3.519   3.054   2.953
  443TIP3    H2 1273   3.429   3.146   3.033
  444TIP3   OH2 1274   0.796   0.396   2.594
  444TIP3    H1 1275   0.748   0.359   2.519
  444TIP3    H2 1276   0.804   0.489   2.573
  445TIP3   OH2 1277   3.552   6.807   1.522
  445TIP3    H1 1278   3.608   6.843   1.452
  445TIP3    H2 1279   3.603   6.736   1.559
  446TIP3   OH2 1280   6.800   5.469   0.229
  446TIP3    H1 1281   6.843   5.459   0.314
  446TIP3    H2 1282   6.826   5.556   0.199
  447TIP3   OH2 1283   7.027   7.666   3.799
  447TIP3    H1 1284   6.937   7.639   3.777
  447TIP3    H2 1285   7.069   7.679   3.713
  448TIP3   OH2 1286   2.096   1.411   3.374
  448TIP3    H1 1287   2.147   1.345   3.422
  448TIP3    H2 1288   2.128   1.405   3.284
  449TIP3   OH2 1289   4.809   7.058   5.416
  449TIP3    H1 1290   4.776   7.017   5.336
  449TIP3    H2 1291   4.844   6.985   5.468
  450TIP3   OH2 1292   7.259   0.477   1.000
  450TIP3    H1 1293   7.293   0.464   1.089
  450TIP3    H2 1294   7.202   0.402   0.985
  451TIP3   OH2 1295   1.530   2.775   6.305
  451TIP3    H1 1296   1.554   2.683   6.297
  451TIP3    H2 1297   1.515   2.804   6.216
  452TIP3   OH2 1298   5.991   2.180   3.407
  452TIP3    H1 1299   6.060   2.126   3.446
  452TIP3    H2 1300   5.942   2.215   3.481
  453TIP3   OH2 1301   2.548   2.886   2.493
  453TIP3    H1 1302   2.641   2.869   2.511
  453TIP3    H2 1303   2.548   2.933   2.410
  454TIP3   OH2 1304   1.691   7.838   4.926
  454TIP3    H1 1305   1.663   7.793   4.846
  454TIP3    H2 1306   1.723   7.769   4.983
  455TIP3   OH2 1307   2.782   6.722   4.358
  455TIP3    H1 1308   2.701   6.678   4.333
  455TIP3    H2 1309   2.847   6.689   4.296
  456TIP3   OH2 1310   6.591   6.649   6.167
  456TIP3    H1 1311   6.673   6.698   6.167
  456TIP3    H2 1312   6.546   6.676   6.247
  457TIP3   OH2 1313   6.154   7.186   2.449
  457TIP3    H1 1314   6.086   7.184   2.381
  457TIP3    H2 1315   6.228   7.231   2.407
  458TIP3   OH2 1316   0.357   5.714   0.325
  458TIP3    H1 1317   0.433   5.768   0.346
  458TIP3    H2 1318   0.358   5.708   0.229
  459TIP3   OH2 1319   7.355   5.183   1.086
  459TIP3    H1 1320   7.336   5.235   1.008
  459TIP3    H2 1321   7.269   5.161   1.123
  460TIP3   OH2 1322   5.674   6.298   0.022
  460TIP3    H1 1323   5.609   6.232   0.047
  460TIP3    H2 1324   5.752   6.247   0.000
  461TIP3   OH2 1325   0.604   2.056   3.853
  461TIP3    H1 1326   0.519   2.029   3.889
  461TIP3    H2 1327   0.635   1.978   3.808
  462TIP3   OH2 1328   5.876   2.190   3.652
  462TIP3    H1 1329   5.783   2.195   3.628
  462TIP3    H2 1330   5.879   2.221   3.742
  463TIP3   OH2 1331   2.372   1.800   4.907
  463TIP3    H1 1332   2.465   1.820   4.908
  463TIP3    H2 1333   2.368   1.707   4.882
  464TIP3   OH2 1334   5.370   1.516   5.911
  464TIP3    H1 1335   5.291   1.540   5.862
  464TIP3    H2 1336   5.344   1.442   5.966
  465TIP3   OH2 1337   2.888   2.282   3.163
  465TIP3    H1 1338   2.975   2.316   3.140
  465TIP3    H2 1339   2.904   2.192   3.190
  466TIP3   OH2 1340   1.692   5.746   5.998
  466TIP3    H1 1341   1.640   5.679   5.953
  466TIP3    H2 1342   1.704   5.815   5.932
  467TIP3   OH2 1343   6.137   0.392   6.655
  467TIP3    H1 1344   6.138   0.390   6.751
  467TIP3    H2 1345   6.230   0.392   6.630
  468TIP3   OH2 1346   3.046   0.888   4.754
  468TIP3    H1 1347   2.963   0.937   4.752
  468TIP3    H2 1348   3.063   0.875   4.847
  469TIP3   OH2 1349   2.376   3.183   5.261
  469TIP3    H1 1350   2.428   3.130   5.322
  469TIP3    H2 1351   2.438   3.211   5.195
  470TIP3   OH2 1352   3.488   3.661   3.231
  470TIP3    H1 1353   3.556   3.623   3.174
  470TIP3    H2 1354   3.537   3.707   3.299
  471TIP3   OH2 1355   0.078   5.860   0.113
  471TIP3    H1 1356   0.159   5.815   0.091
  471TIP3    H2 1357   0.036   5.804   0.179
  472TIP3   OH2 1358   4.609   5.998   6.419
  472TIP3    H1 1359   4.630   5.993   6.512
  472TIP3    H2 1360   4.520   5.963   6.413
  473TIP3   OH2 1361   2.425   1.709   1.512
  473TIP3    H1 1362   2.472   1.706   1.595
  473TIP3    H2 1363   2.392   1.620   1.499
  474TIP3   OH2 1364   4.593   6.787   2.712
  474TIP3    H1 1365   4.646   6.755   2.640
  474TIP3    H2 1366   4.503   6.780   2.682
  475TIP3   OH2 1367   2.138   4.936   1.527
  475TIP3    H1 1368   2.209   4.914   1.587
  475TIP3    H2 1369   2.064   4.957   1.584
  476TIP3   OH2 1370   1.848   6.962   0.375
  476TIP3    H1 1371   1.753   6.972   0.370
  476TIP3    H2 1372   1.882   7.050   0.358
  477TIP3   OH2 1373   4.626   6.363   6.102
  477TIP3    H1 1374   4.694   6.319   6.154
  477TIP3    H2 1375   4.544   6.325   6.133
  478TIP3   OH2 1376   6.369   6.184   1.804
  478TIP3    H1 1377   6.347   6.092   1.819
  478TIP3    H2 1378   6.317   6.232   1.869
  479TIP3   OH2 1379   0.931   0.380   2.241
  479TIP3    H1 1380   0.916   0.474   2.254
  479TIP3    H2 1381   0.926   0.343   2.329
  480TIP3   OH2 1382   3.444   0.209   4.222
  480TIP3    H1 1383   3.474   0.277   4.282
  480TIP3    H2 1384   3.487   0.129   4.251
  481TIP3   OH2 1385   6.680   3.207   4.229
  481TIP3    H1 1386   6.665   3.237   4.139
  481TIP3    H2 1387   6.643   3.277   4.284
  482TIP3   OH2 1388   5.493   4.529   5.091
  482TIP3    H1 1389   5.461   4.455   5.144
  482TIP3    H2 1390   5.587   4.533   5.110
  483TIP3   OH2 1391   6.065   5.165   0.070
  483TIP3    H1 1392   6.130   5.141   0.136
  483TIP3    H2 1393   5.986   5.116   0.095
  484TIP3   OH2 1394   4.340   2.651   2.399
  484TIP3    H1 1395   4.364   2.572   2.351
  484TIP3    H2 1396   4.262   2.625   2.448
  485TIP3   OH2 1397   6.560   4.612   2.565
  485TIP3    H1 1398   6.525   4.674   2.500
  485TIP3    H2 1399   6.496   4.613   2.636
  486TIP3   OH2 1400   6.005   0.016   4.808
  486TIP3    H1 1401   5.984   0.101   4.846
  486TIP3    H2 1402   5.931  -0.003   4.751
  487TIP3   OH2 1403   4.258   3.154   4.032
  487TIP3    H1 1404   4.295   3.241   4.018
  487TIP3    H2 1405   4.282   3.132   4.122
  488TIP3   OH2 1406   3.897   1.218   5.500
  488TIP3    H1 1407   3.937   1.269   5.571
  488TIP3    H2 1408   3.967   1.160   5.471
  489TIP3   OH2 1409   7.505   3.668   3.597
  489TIP3    H1 1410   7.570   3.702   3.658
  489TIP3    H2 1411   7.548   3.672   3.511
  490TIP3   OH2 1412   0.049   3.651   3.878
  490TIP3    H1 1413   0.112   3.580   3.879
  490TIP3    H2 1414   0.014   3.651   3.789
  491TIP3   OH2 1415   5.406   0.776   1.434
  491TIP3    H1 1416   5.356   0.820   1.365
  491TIP3    H2 1417   5.491   0.758   1.394
  492TIP3   OH2 1418   5.008   2.875  -0.006
  492TIP3    H1 1419   4.934   2.839   0.042
  492TIP3    H2 1420   5.084   2.828   0.028
  493TIP3   OH2 1421   2.756   5.890   4.567
  493TIP3    H1 1422   2.849   5.874   4.552
  493TIP3    H2 1423   2.753   5.975   4.611
  494TIP3   OH2 1424   4.200   2.000   2.538
  494TIP3    H1 1425   4.226   1.908   2.536
  494TIP3    H2 1426   4.105   1.998   2.547
  495TIP3   OH2 1427   0.348   0.915   2.010
  495TIP3    H1 1428   0.437   0.903   2.045
  495TIP3    H2 1429   0.361   0.922   1.915
  496TIP3   OH2 1430   4.305   0.651   5.259
  496TIP3    H1 1431   4.388   0.619   5.222
  496TIP3    H2 1432   4.312   0.632   5.353
  497TIP3   OH2 1433   3.333   3.679   2.216
  497TIP3    H1 1434   3.395   3.657   2.147
  497TIP3    H2 1435   3.378   3.744   2.270
  498TIP3   OH2 1436   8.121   6.581   0.271
  498TIP3    H1 1437   8.039   6.536   0.289
  498TIP3    H2 1438   8.189   6.517   0.295
  499TIP3   OH2 1439   3.635   4.813   1.296
  499TIP3    H1 1440   3.604   4.814   1.206
  499TIP3    H2 1441   3.556   4.806   1.349
  500TIP3   OH2 1442   0.379   0.900   1.708
  500TIP3    H1 1443   0.426   0.973   1.666
  500TIP3    H2 1444   0.437   0.825   1.698
  501TIP3   OH2 1445   4.476   0.313   4.133
  501TIP3    H1 1446   4.546   0.330   4.196
  501TIP3    H2 1447   4.512   0.339   4.048
  502TIP3   OH2 1448   0.541   5.007   3.381
  502TIP3    H1 1449   0.614   4.944   3.381
  502TIP3    H2 1450   0.563   5.068   3.452
  503TIP3   OH2 1451   0.310   0.984   0.117
  503TIP3    H1 1452   0.363   0.968   0.039
  503TIP3    H2 1453   0.291   0.897   0.151
  504TIP3   OH2 1454   3.493   1.091   4.000
  504TIP3    H1 1455   3.468   1.157   4.064
  504TIP3    H2 1456   3.492   1.138   3.916
  505TIP3   OH2 1457   2.016   4.747   5.299
  505TIP3    H1 1458   2.072   4.714   5.369
  505TIP3    H2 1459   1.995   4.837   5.326
  506TIP3   OH2 1460   5.679   0.514   4.181
  506TIP3    H1 1461   5.586   0.496   4.198
  506TIP3    H2 1462   5.690   0.493   4.088
  507TIP3   OH2 1463   4.415   2.760   5.427
  507TIP3    H1 1464   4.486   2.815   5.394
  507TIP3    H2 1465   4.401   2.792   5.517
  508TIP3   OH2 1466   7.735   3.109   6.818
  508TIP3    H1 1467   7.685   3.080   6.741
  508TIP3    H2 1468   7.806   3.162   6.783
  509TIP3   OH2 1469   2.902   0.045   4.473
  509TIP3    H1 1470   2.990   0.030   4.439
  509TIP3    H2 1471   2.871   0.123   4.427
  510TIP3   OH2 1472   4.213   2.929   1.133
  510TIP3    H1 1473   4.210   3.019   1.168
  510TIP3    H2 1474   4.295   2.893   1.167
  511TIP3   OH2 1475   5.410   3.853   6.447
  511TIP3    H1 1476   5.485   3.812   6.490
  511TIP3    H2 1477   5.334   3.819   6.494
  512TIP3   OH2 1478   7.978   4.863   3.895
  512TIP3    H1 1479   7.919   4.792   3.921
  512TIP3    H2 1480   8.062   4.840   3.935
  513TIP3   OH2 1481  -0.002   4.469   1.061
  513TIP3    H1 1482  -0.005   4.508   1.148
  513TIP3    H2 1483   0.069   4.405   1.066
  514TIP3   OH2 1484   6.060   5.187   2.239
  514TIP3    H1 1485   6.056   5.138   2.156
  514TIP3    H2 1486   6.146   5.166   2.275
  515TIP3   OH2 1487   5.061   5.704   5.281
  515TIP3    H1 1488   5.150   5.688   5.249
  515TIP3    H2 1489   5.058   5.798   5.298
  516TIP3   OH2 1490   5.200   1.265   6.031
  516TIP3    H1 1491   5.240   1.233   5.950
  516TIP3    H2 1492   5.115   1.222   6.035
  517TIP3   OH2 1493   0.286   2.834   3.353
  517TIP3    H1 1494   0.241   2.905   3.307
  517TIP3    H2 1495   0.263   2.755   3.305
  518TIP3   OH2 1496   0.498   6.657   1.863
  518TIP3    H1 1497   0.544   6.705   1.794
  518TIP3    H2 1498   0.528   6.697   1.945
  519TIP3   OH2 1499   2.715   5.892   0.231
  519TIP3    H1 1500   2.768   5.892   0.310
  519TIP3    H2 1501   2.767   5.942   0.167
  520TIP3   OH2 1502   3.535   0.705   6.706
  520TIP3    H1 1503   3.519   0.794   6.738
  520TIP3    H2 1504   3.448   0.665   6.700
  521TIP3   OH2 1505   2.637   3.835   0.377
  521TIP3    H1 1506   2.653   3.886   0.298
  521TIP3    H2 1507   2.695   3.873   0.443
  522TIP3   OH2 1508   2.119   3.561   2.392
  522TIP3    H1 1509   2.214   3.559   2.381
  522TIP3    H2 1510   2.086   3.497   2.329
  523TIP3   OH2 1511   3.336   2.002   2.047
  523TIP3    H1 1512   3.314   2.045   2.129
  523TIP3    H2 1513   3.429   1.979   2.056
  524TIP3   OH2 1514   3.390   4.834   1.503
  524TIP3    H1 1515   3.456   4.826   1.572
  524TIP3    H2 1516   3.329   4.762   1.519
  525TIP3   OH2 1517   7.775   2.140   2.625
  525TIP3    H1 1518   7.832   2.182   2.689
  525TIP3    H2 1519   7.750   2.057   2.665
  526TIP3   OH2 1520   3.029   6.620   3.862
  526TIP3    H1 1521   3.105   6.561   3.861
  526TIP3    H2 1522   2.954   6.562   3.855
  527TIP3   OH2 1523   3.916   6.106   5.184
  527TIP3    H1 1524   4.006   6.139   5.193
  527TIP3    H2 1525   3.924   6.031   5.125
  528TIP3   OH2 1526   8.299   0.653   5.372
  528TIP3    H1 1527   8.394   0.658   5.363
  528TIP3    H2 1528   8.265   0.711   5.304
  529TIP3   OH2 1529   7.297   1.402   4.530
  529TIP3    H1 1530   7.209   1.365   4.527
  529TIP3    H2 1531   7.342   1.351   4.598
  530TIP3   OH2 1532   5.440   7.182   5.653
  530TIP3    H1 1533   5.348   7.187   5.678
  530TIP3    H2 1534   5.475   7.110   5.706
  531TIP3   OH2 1535   2.093   0.436   0.292
  531TIP3    H1 1536   2.131   0.464   0.375
  531TIP3    H2 1537   2.039   0.510   0.265
  532TIP3   OH2 1538   2.513   6.371   4.492
  532TIP3    H1 1539   2.424   6.335   4.490
  532TIP3    H2 1540   2.544   6.353   4.581
  533TIP3   OH2 1541   7.455   5.632   4.076
  533TIP3    H1 1542   7.410   5.708   4.039
  533TIP3    H2 1543   7.407   5.557   4.042
  534TIP3   OH2 1544   2.062   0.746   3.315
  534TIP3    H1 1545   2.136   0.726   3.259
  534TIP3    H2 1546   2.082   0.705   3.399
  535TIP3   OH2 1547   3.294   2.304   3.653
  535TIP3    H1 1548   3.306   2.223   3.702
  535TIP3    H2 1549   3.239   2.280   3.579
  536TIP3   OH2 1550   3.654   1.363   4.373
  536TIP3    H1 1551   3.665   1.270   4.392
  536TIP3    H2 1552   3.564   1.383   4.399
  537TIP3   OH2 1553   5.042   2.583   2.176
  537TIP3    H1 1554   4.973   2.572   2.242
  537TIP3    H2 1555   5.015   2.661   2.127
  538TIP3   OH2 1556   3.224   0.121   1.959
  538TIP3    H1 1557   3.226   0.153   1.869
  538TIP3    H2 1558   3.239   0.026   1.951
  539TIP3   OH2 1559   5.408   7.067   3.741
  539TIP3    H1 1560   5.328   7.025   3.709
  539TIP3    H2 1561   5.447   7.106   3.663
  540TIP3   OH2 1562   5.184   5.020   3.544
  540TIP3    H1 1563   5.219   5.104   3.514
  540TIP3    H2 1564   5.095   5.017   3.508
  541TIP3   OH2 1565   3.274   0.426   5.325
  541TIP3    H1 1566   3.192   0.376   5.328
  541TIP3    H2 1567   3.251   0.506   5.277
  542TIP3   OH2 1568   2.451   5.845   5.722
  542TIP3    H1 1569   2.374   5.794   5.696
  542TIP3    H2 1570   2.503   5.852   5.643
  543TIP3   OH2 1571   8.084   0.260   6.001
  543TIP3    H1 1572   8.025   0.232   5.931
  543TIP3    H2 1573   8.054   0.348   6.024
  544TIP3   OH2 1574   5.393   0.619   4.033
  544TIP3    H1 1575   5.392   0.641   4.127
  544TIP3    H2 1576   5.461   0.675   3.997
  545TIP3   OH2 1577   3.808   7.582   1.898
  545TIP3    H1 1578   3.782   7.616   1.813
  545TIP3    H2 1579   3.882   7.637   1.925
  546TIP3   OH2 1580   7.216   1.830   4.990
  546TIP3    H1 1581   7.167   1.834   4.907
  546TIP3    H2 1582   7.307   1.819   4.963
  547TIP3   OH2 1583   7.553   4.694   4.848
  547TIP3    H1 1584   7.584   4.737   4.769
  547TIP3    H2 1585   7.480   4.639   4.818
  548TIP3   OH2 1586   8.094   1.274   0.673
  548TIP3    H1 1587   8.101   1.180   0.659
  548TIP3    H2 1588   8.159   1.312   0.613
  549TIP3   OH2 1589   5.272   2.860   4.739
  549TIP3    H1 1590   5.242   2.857   4.648
  549TIP3    H2 1591   5.215   2.798   4.785
  550TIP3   OH2 1592   0.551   3.788   2.732
  550TIP3    H1 1593   0.458   3.798   2.752
  550TIP3    H2 1594   0.595   3.851   2.788
  551TIP3   OH2 1595   7.867   3.730   5.146
  551TIP3    H1 1596   7.813   3.683   5.209
  551TIP3    H2 1597   7.846   3.692   5.062
  552TIP3   OH2 1598   1.463   2.388   4.637
  552TIP3    H1 1599   1.544   2.365   4.592
  552TIP3    H2 1600   1.486   2.465   4.690
  553TIP3   OH2 1601   2.464   2.397   1.853
  553TIP3    H1 1602   2.459   2.301   1.861
  553TIP3    H2 1603   2.491   2.427   1.940
  554TIP3   OH2 1604   5.255   3.796   5.966
  554TIP3    H1 1605   5.348   3.776   5.980
  554TIP3    H2 1606   5.255   3.859   5.894
  555TIP3   OH2 1607   7.908   7.582   3.095
  555TIP3    H1 1608   7.941   7.511   3.040
  555TIP3    H2 1609   7.986   7.623   3.131
  556TIP3   OH2 1610   2.236   3.523   4.143
  556TIP3    H1 1611   2.160   3.465   4.150
  556TIP3    H2 1612   2.205   3.598   4.091
  557TIP3   OH2 1613   4.973   4.149   6.144
  557TIP3    H1 1614   5.042   4.172   6.207
  557TIP3    H2 1615   4.901   4.208   6.165
  558TIP3   OH2 1616   7.765   6.154   6.353
  558TIP3    H1 1617   7.833   6.218   6.332
  558TIP3    H2 1618   7.701   6.204   6.403
  559TIP3   OH2 1619   1.994   4.583   1.268
  559TIP3    H1 1620   2.012   4.491   1.246
  559TIP3    H2 1621   1.902   4.595   1.243
  560TIP3   OH2 1622   5.788   7.765   1.004
  560TIP3    H1 1623   5.709   7.779   1.057
  560TIP3    H2 1624   5.764   7.793   0.916
  561TIP3   OH2 1625   4.856   2.971   1.312
  561TIP3    H1 1626   4.823   3.048   1.357
  561TIP3    H2 1627   4.881   3.001   1.225
  562TIP3   OH2 1628   1.044   7.369   2.453
  562TIP3    H1 1629   1.041   7.390   2.360
  562TIP3    H2 1630   1.124   7.411   2.485
  563TIP3   OH2 1631   7.043   0.096   1.213
  563TIP3    H1 1632   7.104   0.154   1.258
  563TIP3    H2 1633   7.055   0.011   1.255
  564TIP3   OH2 1634   3.913   5.158   3.780
  564TIP3    H1 1635   3.888   5.229   3.840
  564TIP3    H2 1636   3.986   5.115   3.822
  565TIP3   OH2 1637   5.844   0.495   1.869
  565TIP3    H1 1638   5.907   0.528   1.933
  565TIP3    H2 1639   5.770   0.555   1.875
  566TIP3   OH2 1640   6.708   3.238   2.581
  566TIP3    H1 1641   6.799   3.212   2.595
  566TIP3    H2 1642   6.707   3.332   2.601
  567TIP3   OH2 1643   2.109   1.793   0.961
  567TIP3    H1 1644   2.199   1.806   0.930
  567TIP3    H2 1645   2.070   1.880   0.957
  568TIP3   OH2 1646   6.401   2.901   2.650
  568TIP3    H1 1647   6.309   2.916   2.629
  568TIP3    H2 1648   6.406   2.808   2.674
  569TIP3   OH2 1649   3.246   3.157   4.699
  569TIP3    H1 1650   3.181   3.116   4.641
  569TIP3    H2 1651   3.222   3.250   4.699
  570TIP3   OH2 1652   4.312   5.011   0.738
  570TIP3    H1 1653   4.394   4.996   0.691
  570TIP3    H2 1654   4.297   4.930   0.787
  571TIP3   OH2 1655   6.323   4.146   5.519
  571TIP3    H1 1656   6.373   4.204   5.576
  571TIP3    H2 1657   6.314   4.065   5.569
  572TIP3   OH2 1658   4.916   0.501   0.082
  572TIP3    H1 1659   4.931   0.455  -0.001
  572TIP3    H2 1660   4.932   0.593   0.061
  573TIP3   OH2 1661   3.305   1.884   4.079
  573TIP3    H1 1662   3.219   1.843   4.073
  573TIP3    H2 1663   3.367   1.811   4.073
  574TIP3   OH2 1664   5.204   2.726   3.939
  574TIP3    H1 1665   5.289   2.752   3.904
  574TIP3    H2 1666   5.224   2.693   4.027
  575TIP3   OH2 1667   0.430   1.843   1.183
  575TIP3    H1 1668   0.482   1.913   1.223
  575TIP3    H2 1669   0.380   1.807   1.256
  576TIP3   OH2 1670   5.704   0.412   1.572
  576TIP3    H1 1671   5.770   0.346   1.596
  576TIP3    H2 1672   5.654   0.370   1.502
  577TIP3   OH2 1673   3.722   2.728   3.019
  577TIP3    H1 1674   3.627   2.737   3.028
  577TIP3    H2 1675   3.750   2.689   3.101
  578TIP3   OH2 1676   7.291   2.026   2.842
  578TIP3    H1 1677   7.307   1.981   2.925
  578TIP3    H2 1678   7.341   2.108   2.849
  579TIP3   OH2 1679   4.761   5.125   2.601
  579TIP3    H1 1680   4.821   5.143   2.529
  579TIP3    H2 1681   4.754   5.029   2.603
  580TIP3   OH2 1682   4.183   1.135   1.583
  580TIP3    H1 1683   4.240   1.106   1.511
  580TIP3    H2 1684   4.095   1.129   1.548
  581TIP3   OH2 1685   6.303   2.199   1.324
  581TIP3    H1 1686   6.320   2.157   1.239
  581TIP3    H2 1687   6.216   2.168   1.350
  582TIP3   OH2 1688   6.780   3.741   2.781
  582TIP3    H1 1689   6.762   3.648   2.799
  582TIP3    H2 1690   6.811   3.743   2.691
  583TIP3   OH2 1691   4.506   0.545   6.434
  583TIP3    H1 1692   4.431   0.523   6.490
  583TIP3    H2 1693   4.524   0.465   6.385
  584TIP3   OH2 1694   3.355   6.741   5.303
  584TIP3    H1 1695   3.281   6.793   5.272
  584TIP3    H2 1696   3.379   6.781   5.387
  585TIP3   OH2 1697   7.167   5.503   6.709
  585TIP3    H1 1698   7.088   5.555   6.697
  585TIP3    H2 1699   7.230   5.542   6.648
  586TIP3   OH2 1700   1.328   1.532   1.019
  586TIP3    H1 1701   1.268   1.460   0.998
  586TIP3    H2 1702   1.407   1.512   0.968
  587TIP3   OH2 1703   1.561   6.977   0.386
  587TIP3    H1 1704   1.520   6.955   0.302
  587TIP3    H2 1705   1.489   7.005   0.442
  588TIP3   OH2 1706   2.728   0.468   4.875
  588TIP3    H1 1707   2.642   0.504   4.896
  588TIP3    H2 1708   2.711   0.407   4.803
  589TIP3   OH2 1709   5.467   2.886   1.056
  589TIP3    H1 1710   5.540   2.825   1.041
  589TIP3    H2 1711   5.507   2.959   1.103
  590TIP3   OH2 1712   7.893   4.403   0.989
  590TIP3    H1 1713   7.846   4.396   0.906
  590TIP3    H2 1714   7.880   4.319   1.031
  591TIP3   OH2 1715   6.009   6.272   3.983
  591TIP3    H1 1716   6.010   6.299   3.891
  591TIP3    H2 1717   5.975   6.349   4.029
  592TIP3   OH2 1718   4.591   3.581   5.987
  592TIP3    H1 1719   4.509   3.581   5.937
  592TIP3    H2 1720   4.603   3.672   6.014
  593TIP3   OH2 1721   4.817   4.154   2.237
  593TIP3    H1 1722   4.892   4.180   2.183
  593TIP3    H2 1723   4.855   4.134   2.323
  594TIP3   OH2 1724   4.325   0.276   0.246
  594TIP3    H1 1725   4.307   0.279   0.340
  594TIP3    H2 1726   4.413   0.238   0.240
  595TIP3   OH2 1727   5.269   1.186   6.515
  595TIP3    H1 1728   5.263   1.110   6.456
  595TIP3    H2 1729   5.337   1.241   6.475
  596TIP3   OH2 1730   2.590   5.191   5.662
  596TIP3    H1 1731   2.569   5.105   5.624
  596TIP3    H2 1732   2.683   5.202   5.645
  597TIP3   OH2 1733   7.610   1.030   1.357
  597TIP3    H1 1734   7.550   1.014   1.430
  597TIP3    H2 1735   7.622   1.125   1.357
  598TIP3   OH2 1736   2.312   1.333   5.410
  598TIP3    H1 1737   2.350   1.361   5.493
  598TIP3    H2 1738   2.226   1.298   5.434
  599TIP3   OH2 1739   8.016   4.114   2.888
  599TIP3    H1 1740   7.944   4.163   2.930
  599TIP3    H2 1741   8.008   4.135   2.795
  600TIP3   OH2 1742   3.911   7.050   3.875
  600TIP3    H1 1743   3.937   7.138   3.850
  600TIP3    H2 1744   3.926   7.046   3.969
  601TIP3   OH2 1745   1.556   0.629   5.184
  601TIP3    H1 1746   1.485   0.600   5.126
  601TIP3    H2 1747   1.531   0.596   5.270
  602TIP3   OH2 1748   2.398   3.633   1.670
  602TIP3    H1 1749   2.463   3.670   1.731
  602TIP3    H2 1750   2.428   3.661   1.584
  603TIP3   OH2 1751   2.668   7.220   2.781
  603TIP3    H1 1752   2.601   7.180   2.837
  603TIP3    H2 1753   2.629   7.303   2.753
  604TIP3   OH2 1754   4.121   0.257   6.417
  604TIP3    H1 1755   4.027   0.276   6.424
  604TIP3    H2 1756   4.162   0.321   6.476
  605TIP3   OH2 1757   6.779   3.042   5.020
  605TIP3    H1 1758   6.796   3.115   4.961
  605TIP3    H2 1759   6.763   2.967   4.963
  606TIP3   OH2 1760   8.155   7.136   5.790
  606TIP3    H1 1761   8.108   7.177   5.718
  606TIP3    H2 1762   8.246   7.161   5.778
  607TIP3   OH2 1763   3.271   1.325   2.838
  607TIP3    H1 1764   3.254   1.405   2.888
  607TIP3    H2 1765   3.367   1.322   2.831
  608TIP3   OH2 1766   6.670   2.900   2.206
  608TIP3    H1 1767   6.624   2.886   2.124
  608TIP3    H2 1768   6.760   2.921   2.180
  609TIP3   OH2 1769   0.971   3.999   0.422
  609TIP3    H1 1770   0.914   3.973   0.350
  609TIP3    H2 1771   0.936   3.953   0.498
  610TIP3   OH2 1772   5.141   2.817   1.809
  610TIP3    H1 1773   5.231   2.796   1.835
  610TIP3    H2 1774   5.106   2.735   1.774
  611TIP3   OH2 1775   1.868   0.188   5.195
  611TIP3    H1 1776   1.819   0.251   5.247
  611TIP3    H2 1777   1.818   0.179   5.114
  612TIP3   OH2 1778   3.148   2.575   2.901
  612TIP3    H1 1779   3.169   2.511   2.969
  612TIP3    H2 1780   3.222   2.635   2.900
  613TIP3   OH2 1781   2.981   0.762   1.725
  613TIP3    H1 1782   3.040   0.792   1.656
  613TIP3    H2 1783   2.909   0.718   1.679
  614TIP3   OH2 1784   6.177   0.146   4.632
  614TIP3    H1 1785   6.133   0.078   4.682
  614TIP3    H2 1786   6.218   0.100   4.559
  615TIP3   OH2 1787   1.719   1.894   3.647
  615TIP3    H1 1788   1.691   1.809   3.614
  615TIP3    H2 1789   1.728   1.881   3.742
  616TIP3   OH2 1790   7.421   6.926   4.364
  616TIP3    H1 1791   7.479   6.882   4.427
  616TIP3    H2 1792   7.472   6.927   4.283
  617TIP3   OH2 1793   3.282   0.226   0.994
  617TIP3    H1 1794   3.218   0.296   1.004
  617TIP3    H2 1795   3.334   0.228   1.074
  618TIP3   OH2 1796   1.384   2.204   5.359
  618TIP3    H1 1797   1.322   2.137   5.332
  618TIP3    H2 1798   1.347   2.286   5.324
  619TIP3   OH2 1799   1.331   2.716   6.526
  619TIP3    H1 1800   1.321   2.811   6.514
  619TIP3    H2 1801   1.332   2.681   6.437
  620TIP3   OH2 1802   7.800   1.031   5.563
  620TIP3    H1 1803   7.733   1.080   5.514
  620TIP3    H2 1804   7.803   1.074   5.648
  621TIP3   OH2 1805   1.364   3.002   6.412
  621TIP3    H1 1806   1.343   2.925   6.359
  621TIP3    H2 1807   1.424   3.053   6.357
  622TIP3   OH2 1808   8.056   7.277   1.525
  622TIP3    H1 1809   8.128   7.215   1.527
  622TIP3    H2 1810   8.060   7.316   1.438
  623TIP3   OH2 1811   0.706   0.527   0.860
  623TIP3    H1 1812   0.721   0.521   0.766
  623TIP3    H2 1813   0.611   0.528   0.869
  624TIP3   OH2 1814   2.818   4.002   1.555
  624TIP3    H1 1815   2.857   4.088   1.539
  624TIP3    H2 1816   2.729   4.021   1.586
  625TIP3   OH2 1817   2.986   6.856   0.292
  625TIP3    H1 1818   2.999   6.951   0.288
  625TIP3    H2 1819   2.995   6.835   0.384
  626TIP3   OH2 1820   2.068   0.565   4.916
  626TIP3    H1 1821   2.116   0.570   4.833
  626TIP3    H2 1822   2.042   0.655   4.934
  627TIP3   OH2 1823   2.556   0.784   1.401
  627TIP3    H1 1824   2.490   0.746   1.343
  627TIP3    H2 1825   2.506   0.818   1.475
  628TIP3   OH2 1826   1.235   6.400   1.326
  628TIP3    H1 1827   1.294   6.413   1.251
  628TIP3    H2 1828   1.270   6.457   1.394
  629TIP3   OH2 1829   5.674   1.185   3.389
  629TIP3    H1 1830   5.614   1.139   3.448
  629TIP3    H2 1831   5.724   1.243   3.447
  630TIP3   OH2 1832   5.144   1.023   4.161
  630TIP3    H1 1833   5.148   0.928   4.156
  630TIP3    H2 1834   5.058   1.042   4.198
  631TIP3   OH2 1835   4.611   3.241   5.382
  631TIP3    H1 1836   4.652   3.309   5.330
  631TIP3    H2 1837   4.533   3.282   5.419
  632TIP3   OH2 1838   0.777   0.332   6.091
  632TIP3    H1 1839   0.864   0.345   6.053
  632TIP3    H2 1840   0.794   0.305   6.181
  633TIP3   OH2 1841   0.668   0.617   6.520
  633TIP3    H1 1842   0.690   0.676   6.592
  633TIP3    H2 1843   0.685   0.529   6.555
  634TIP3   OH2 1844   3.441   5.343   5.240
  634TIP3    H1 1845   3.367   5.288   5.268
  634TIP3    H2 1846   3.428   5.425   5.288
  635TIP3   OH2 1847   3.180   7.062   3.527
  635TIP3    H1 1848   3.159   6.998   3.459
  635TIP3    H2 1849   3.219   7.010   3.597
  636TIP3   OH2 1850   2.816   2.651   4.310
  636TIP3    H1 1851   2.814   2.566   4.265
  636TIP3    H2 1852   2.727   2.685   4.302
  637TIP3   OH2 1853   0.482   1.416   5.064
  637TIP3    H1 1854   0.393   1.452   5.065
  637TIP3    H2 1855   0.534   1.481   5.111
  638TIP3   OH2 1856   4.278   6.874   2.894
  638TIP3    H1 1857   4.306   6.784   2.874
  638TIP3    H2 1858   4.246   6.870   2.984
  639TIP3   OH2 1859   6.791   7.130   3.229
  639TIP3    H1 1860   6.695   7.132   3.223
  639TIP3    H2 1861   6.815   7.045   3.192
  640TIP3   OH2 1862   3.281   4.046   3.886
  640TIP3    H1 1863   3.238   4.109   3.944
  640TIP3    H2 1864   3.254   4.072   3.798
  641TIP3   OH2 1865   7.286   0.486   0.406
  641TIP3    H1 1866   7.209   0.535   0.434
  641TIP3    H2 1867   7.326   0.456   0.488
  642TIP3   OH2 1868   4.066   5.228   1.325
  642TIP3    H1 1869   4.050   5.317   1.292
  642TIP3    H2 1870   3.994   5.176   1.288
  643TIP3   OH2 1871   5.709   0.618   2.838
  643TIP3    H1 1872   5.759   0.604   2.919
  643TIP3    H2 1873   5.646   0.547   2.836
  644TIP3   OH2 1874   5.627   6.114   5.047
  644TIP3    H1 1875   5.637   6.187   5.107
  644TIP3    H2 1876   5.534   6.091   5.052
  645TIP3   OH2 1877   1.198   7.445   4.967
  645TIP3    H1 1878   1.256   7.372   4.946
  645TIP3    H2 1879   1.164   7.425   5.054
  646TIP3   OH2 1880   2.828   3.979   6.720
  646TIP3    H1 1881   2.771   3.943   6.788
  646TIP3    H2 1882   2.874   3.903   6.685
  647TIP3   OH2 1883   7.874   1.764   5.485
  647TIP3    H1 1884   7.830   1.739   5.566
  647TIP3    H2 1885   7.830   1.844   5.457
  648TIP3   OH2 1886   1.220   3.578   0.101
  648TIP3    H1 1887   1.233   3.673   0.099
  648TIP3    H2 1888   1.272   3.549   0.175
  649TIP3   OH2 1889   6.608   3.491   2.103
  649TIP3    H1 1890   6.685   3.543   2.079
  649TIP3    H2 1891   6.577   3.455   2.021
  650TIP3   OH2 1892   1.894   2.054   0.170
  650TIP3    H1 1893   1.928   2.057   0.259
  650TIP3    H2 1894   1.880   1.961   0.152
  651TIP3   OH2 1895   5.977   3.930   4.123
  651TIP3    H1 1896   5.976   4.018   4.085
  651TIP3    H2 1897   5.895   3.890   4.095
  652TIP3   OH2 1898   4.908   3.328   0.813
  652TIP3    H1 1899   4.994   3.290   0.826
  652TIP3    H2 1900   4.846   3.257   0.831
  653TIP3   OH2 1901   5.753   1.992   6.211
  653TIP3    H1 1902   5.750   2.044   6.130
  653TIP3    H2 1903   5.738   1.902   6.182
  654TIP3   OH2 1904   2.602   1.574   2.289
  654TIP3    H1 1905   2.687   1.563   2.333
  654TIP3    H2 1906   2.560   1.647   2.335
  655TIP3   OH2 1907   1.099   4.653   0.787
  655TIP3    H1 1908   1.128   4.698   0.708
  655TIP3    H2 1909   1.046   4.580   0.755
  656TIP3   OH2 1910   2.207   3.562   2.694
  656TIP3    H1 1911   2.117   3.594   2.692
  656TIP3    H2 1912   2.210   3.494   2.626
  657TIP3   OH2 1913   5.540   3.370   3.723
  657TIP3    H1 1914   5.616   3.369   3.781
  657TIP3    H2 1915   5.569   3.418   3.646
  658TIP3   OH2 1916   6.335   7.103   4.726
  658TIP3    H1 1917   6.300   7.180   4.681
  658TIP3    H2 1918   6.376   7.051   4.657
  659TIP3   OH2 1919   8.006   5.241   1.346
  659TIP3    H1 1920   7.972   5.325   1.313
  659TIP3    H2 1921   7.970   5.234   1.434
  660TIP3   OH2 1922   0.215   2.706   2.325
  660TIP3    H1 1923   0.296   2.700   2.375
  660TIP3    H2 1924   0.157   2.761   2.378
  661TIP3   OH2 1925   6.024   2.336   2.227
  661TIP3    H1 1926   6.099   2.331   2.287
  661TIP3    H2 1927   6.063   2.357   2.142
  662TIP3   OH2 1928   2.706   5.908   6.124
  662TIP3    H1 1929   2.651   5.838   6.091
  662TIP3    H2 1930   2.694   5.905   6.219
  663TIP3   OH2 1931   1.093   7.707   0.268
  663TIP3    H1 1932   1.049   7.777   0.316
  663TIP3    H2 1933   1.150   7.752   0.206
  664TIP3   OH2 1934   5.802   1.455   6.335
  664TIP3    H1 1935   5.744   1.483   6.264
  664TIP3    H2 1936   5.743   1.416   6.400
  665TIP3   OH2 1937   5.168   0.570   2.310
  665TIP3    H1 1938   5.236   0.599   2.370
  665TIP3    H2 1939   5.214   0.548   2.229
  666TIP3   OH2 1940   0.345   4.374   1.758
  666TIP3    H1 1941   0.402   4.300   1.738
  666TIP3    H2 1942   0.259   4.347   1.726
  667TIP3   OH2 1943   1.537   3.423   6.275
  667TIP3    H1 1944   1.450   3.454   6.251
  667TIP3    H2 1945   1.556   3.467   6.358
  668TIP3   OH2 1946   3.224   7.771   5.983
  668TIP3    H1 1947   3.173   7.709   6.034
  668TIP3    H2 1948   3.162   7.842   5.964
  669TIP3   OH2 1949   7.958   6.641   1.283
  669TIP3    H1 1950   7.874   6.652   1.239
  669TIP3    H2 1951   8.013   6.711   1.246
  670TIP3   OH2 1952   0.819   1.901   0.702
  670TIP3    H1 1953   0.775   1.936   0.779
  670TIP3    H2 1954   0.832   1.808   0.722
  671TIP3   OH2 1955   7.729   0.252   4.627
  671TIP3    H1 1956   7.671   0.206   4.566
  671TIP3    H2 1957   7.692   0.340   4.635
  672TIP3   OH2 1958   3.280   1.311   1.953
  672TIP3    H1 1959   3.209   1.256   1.986
  672TIP3    H2 1960   3.353   1.250   1.940
  673TIP3   OH2 1961   6.172   5.052   5.208
  673TIP3    H1 1962   6.125   5.025   5.129
  673TIP3    H2 1963   6.243   4.989   5.217
  674TIP3   OH2 1964   0.811   1.336   5.187
  674TIP3    H1 1965   0.770   1.359   5.103
  674TIP3    H2 1966   0.856   1.417   5.214
  675TIP3   OH2 1967   4.781   3.084   0.026
  675TIP3    H1 1968   4.857   3.072   0.084
  675TIP3    H2 1969   4.727   3.149   0.071
  676TIP3   OH2 1970   0.778   6.319   0.091
  676TIP3    H1 1971   0.746   6.409   0.090
  676TIP3    H2 1972   0.861   6.325   0.139
  677TIP3   OH2 1973   4.135   4.700   4.885
  677TIP3    H1 1974   4.068   4.702   4.954
  677TIP3    H2 1975   4.088   4.724   4.805
  678TIP3   OH2 1976   1.849   6.806   0.127
  678TIP3    H1 1977   1.792   6.833   0.055
  678TIP3    H2 1978   1.814   6.853   0.203
  679TIP3   OH2 1979   3.595   2.395   1.155
  679TIP3    H1 1980   3.504   2.399   1.126
  679TIP3    H2 1981   3.598   2.323   1.218
  680TIP3   OH2 1982   8.111   2.760   2.558
  680TIP3    H1 1983   8.088   2.780   2.648
  680TIP3    H2 1984   8.157   2.676   2.563
  681TIP3   OH2 1985   4.158   3.363   4.515
  681TIP3    H1 1986   4.076   3.393   4.475
  681TIP3    H2 1987   4.130   3.308   4.588
  682TIP3   OH2 1988   8.217   2.120   1.800
  682TIP3    H1 1989   8.206   2.208   1.763
  682TIP3    H2 1990   8.154   2.115   1.872
  683TIP3   OH2 1991   4.611   0.805   5.275
  683TIP3    H1 1992   4.583   0.777   5.362
  683TIP3    H2 1993   4.597   0.728   5.220
  684TIP3   OH2 1994   3.439   7.703   5.547
  684TIP3    H1 1995   3.374   7.760   5.588
  684TIP3    H2 1996   3.519   7.717   5.599
  685TIP3   OH2 1997   5.768   2.866   5.543
  685TIP3    H1 1998   5.726   2.891   5.460
  685TIP3    H2 1999   5.703   2.810   5.586
  686TIP3   OH2 2000   2.442   2.616   5.437
  686TIP3    H1 2001   2.531   2.653   5.445
  686TIP3    H2 2002   2.410   2.611   5.526
  687TIP3   OH2 2003   5.095   7.785   6.457
  687TIP3    H1 2004   5.027   7.736   6.503
  687TIP3    H2 2005   5.112   7.861   6.513
  688TIP3   OH2 2006   2.753   6.146   4.694
  688TIP3    H1 2007   2.710   6.221   4.733
  688TIP3    H2 2008   2.842   6.176   4.675
  689TIP3   OH2 2009   5.456   4.207   1.311
  689TIP3    H1 2010   5.532   4.265   1.307
  689TIP3    H2 2011   5.453   4.178   1.402
  690TIP3   OH2 2012   1.582   5.467   6.271
  690TIP3    H1 2013   1.526   5.430   6.339
  690TIP3    H2 2014   1.552   5.557   6.261
  691TIP3   OH2 2015   0.854   6.130   5.115
  691TIP3    H1 2016   0.810   6.046   5.100
  691TIP3    H2 2017   0.875   6.162   5.028
  692TIP3   OH2 2018   0.932   3.695   4.804
  692TIP3    H1 2019   1.001   3.641   4.843
  692TIP3    H2 2020   0.874   3.716   4.878
  693TIP3   OH2 2021   3.496   7.689   2.335
  693TIP3    H1 2022   3.525   7.600   2.353
  693TIP3    H2 2023   3.412   7.696   2.381
  694TIP3   OH2 2024   5.977   4.916   1.321
  694TIP3    H1 2025   6.011   4.888   1.235
  694TIP3    H2 2026   6.027   4.995   1.341
  695TIP3   OH2 2027   5.814   6.642   5.369
  695TIP3    H1 2028   5.824   6.683   5.282
  695TIP3    H2 2029   5.884   6.680   5.421
  696TIP3   OH2 2030   4.752   5.788   4.887
  696TIP3    H1 2031   4.656   5.787   4.880
  696TIP3    H2 2032   4.769   5.761   4.977
  697TIP3   OH2 2033   6.453   6.836   5.443
  697TIP3    H1 2034   6.513   6.893   5.394
  697TIP3    H2 2035   6.502   6.811   5.521
  698TIP3   OH2 2036   1.879   3.237   4.114
  698TIP3    H1 2037   1.945   3.301   4.139
  698TIP3    H2 2038   1.798   3.269   4.154
  699TIP3   OH2 2039   3.174   7.027   0.508
  699TIP3    H1 2040   3.220   7.069   0.581
  699TIP3    H2 2041   3.090   7.001   0.546
  700TIP3   OH2 2042   7.317   6.076   5.055
  700TIP3    H1 2043   7.239   6.110   5.098
  700TIP3    H2 2044   7.307   5.981   5.058
  701TIP3   OH2 2045   3.154   3.548   3.960
  701TIP3    H1 2046   3.229   3.550   4.019
  701TIP3    H2 2047   3.148   3.457   3.932
  702TIP3   OH2 2048   3.147   4.726   1.834
  702TIP3    H1 2049   3.061   4.688   1.850
  702TIP3    H2 2050   3.180   4.749   1.920
  703TIP3   OH2 2051   1.040   6.368   6.302
  703TIP3    H1 2052   1.083   6.447   6.334
  703TIP3    H2 2053   0.977   6.345   6.371
  704TIP3   OH2 2054   7.708   2.002   2.982
  704TIP3    H1 2055   7.799   2.027   2.964
  704TIP3    H2 2056   7.683   2.056   3.056
  705TIP3   OH2 2057   6.522   7.806   3.816
  705TIP3    H1 2058   6.438   7.760   3.820
  705TIP3    H2 2059   6.550   7.812   3.908
  706TIP3   OH2 2060   5.483   5.199   0.850
  706TIP3    H1 2061   5.518   5.128   0.797
  706TIP3    H2 2062   5.397   5.168   0.878
  707TIP3   OH2 2063   3.297   1.935   2.855
  707TIP3    H1 2064   3.230   1.946   2.923
  707TIP3    H2 2065   3.342   2.019   2.852
  708TIP3   OH2 2066   1.645   7.391   2.456
  708TIP3    H1 2067   1.724   7.355   2.416
  708TIP3    H2 2068   1.657   7.486   2.450
  709TIP3   OH2 2069   3.162   0.108   3.615
  709TIP3    H1 2070   3.186   0.100   3.708
  709TIP3    H2 2071   3.244   0.127   3.570
  710TIP3   OH2 2072   7.986   0.946   6.752
  710TIP3    H1 2073   7.955   0.986   6.671
  710TIP3    H2 2074   7.906   0.921   6.799
  711TIP3   OH2 2075   5.580   3.505   3.462
  711TIP3    H1 2076   5.660   3.556   3.446
  711TIP3    H2 2077   5.513   3.547   3.409
  712TIP3   OH2 2078   7.805   1.921   1.147
  712TIP3    H1 2079   7.854   1.852   1.101
  712TIP3    H2 2080   7.713   1.904   1.124
  713TIP3   OH2 2081   5.595   6.796   3.590
  713TIP3    H1 2082   5.571   6.715   3.544
  713TIP3    H2 2083   5.526   6.807   3.655
  714TIP3   OH2 2084   2.448   3.416   6.283
  714TIP3    H1 2085   2.439   3.380   6.372
  714TIP3    H2 2086   2.358   3.436   6.257
  715TIP3   OH2 2087   5.801   6.506   2.433
  715TIP3    H1 2088   5.765   6.581   2.387
  715TIP3    H2 2089   5.812   6.439   2.366
  716TIP3   OH2 2090   2.753   0.731   2.119
  716TIP3    H1 2091   2.774   0.653   2.067
  716TIP3    H2 2092   2.824   0.737   2.183
  717TIP3   OH2 2093   0.766   2.771   2.908
  717TIP3    H1 2094   0.705   2.752   2.980
  717TIP3    H2 2095   0.853   2.754   2.945
  718TIP3   OH2 2096   7.246   6.004   1.520
  718TIP3    H1 2097   7.154   5.992   1.495
  718TIP3    H2 2098   7.286   5.919   1.501
  719TIP3   OH2 2099   2.771   0.958   0.445
  719TIP3    H1 2100   2.691   0.980   0.397
  719TIP3    H2 2101   2.740   0.936   0.533
  720TIP3   OH2 2102   2.640   1.860   4.411
  720TIP3    H1 2103   2.570   1.893   4.467
  720TIP3    H2 2104   2.600   1.786   4.365
  721TIP3   OH2 2105   6.555   5.654   3.231
  721TIP3    H1 2106   6.527   5.573   3.272
  721TIP3    H2 2107   6.559   5.717   3.303
  722TIP3   OH2 2108   7.083   3.816   5.906
  722TIP3    H1 2109   7.176   3.838   5.904
  722TIP3    H2 2110   7.051   3.837   5.818
  723TIP3   OH2 2111   0.275   5.249   1.744
  723TIP3    H1 2112   0.299   5.224   1.654
  723TIP3    H2 2113   0.181   5.267   1.739
  724TIP3   OH2 2114   0.032   5.595   6.664
  724TIP3    H1 2115   0.119   5.617   6.695
  724TIP3    H2 2116  -0.010   5.679   6.646
  725TIP3   OH2 2117   6.726   4.235   6.209
  725TIP3    H1 2118   6.772   4.158   6.242
  725TIP3    H2 2119   6.782   4.308   6.235
  726TIP3   OH2 2120   1.403   0.985   2.465
  726TIP3    H1 2121   1.401   0.890   2.456
  726TIP3    H2 2122   1.383   1.000   2.557
  727TIP3   OH2 2123   0.563   5.929   5.372
  727TIP3    H1 2124   0.525   5.843   5.391
  727TIP3    H2 2125   0.491   5.991   5.385
  728TIP3   OH2 2126   7.680   6.990   0.475
  728TIP3    H1 2127   7.774   6.983   0.462
  728TIP3    H2 2128   7.668   6.978   0.570
  729TIP3   OH2 2129   2.010   2.007   4.125
  729TIP3    H1 2130   1.929   2.016   4.174
  729TIP3    H2 2131   2.051   2.094   4.130
  730TIP3   OH2 2132   5.350   7.741   2.370
  730TIP3    H1 2133   5.385   7.670   2.315
  730TIP3    H2 2134   5.413   7.812   2.359
  731TIP3   OH2 2135   2.282   6.979   5.213
  731TIP3    H1 2136   2.225   6.950   5.142
  731TIP3    H2 2137   2.254   7.069   5.232
  732TIP3   OH2 2138   4.061   4.202   1.115
  732TIP3    H1 2139   4.156   4.192   1.120
  732TIP3    H2 2140   4.042   4.276   1.173
  733TIP3   OH2 2141   6.534   2.346   2.749
  733TIP3    H1 2142   6.596   2.281   2.717
  733TIP3    H2 2143   6.463   2.295   2.787
  734TIP3   OH2 2144   6.602   5.799   0.782
  734TIP3    H1 2145   6.690   5.764   0.800
  734TIP3    H2 2146   6.600   5.811   0.687
  735TIP3   OH2 2147   0.881   1.890   0.398
  735TIP3    H1 2148   0.959   1.841   0.374
  735TIP3    H2 2149   0.864   1.865   0.488
  736TIP3   OH2 2150   7.551   7.683   4.021
  736TIP3    H1 2151   7.504   7.653   3.944
  736TIP3    H2 2152   7.613   7.748   3.987
  737TIP3   OH2 2153   4.622   1.422   5.620
  737TIP3    H1 2154   4.692   1.488   5.612
  737TIP3    H2 2155   4.566   1.437   5.544
  738TIP3   OH2 2156   4.207   5.358   6.161
  738TIP3    H1 2157   4.115   5.379   6.173
  738TIP3    H2 2158   4.243   5.352   6.249
  739TIP3   OH2 2159   4.429   5.162   5.331
  739TIP3    H1 2160   4.439   5.077   5.375
  739TIP3    H2 2161   4.421   5.140   5.238
  740TIP3   OH2 2162   5.348   0.212   5.356
  740TIP3    H1 2163   5.264   0.207   5.311
  740TIP3    H2 2164   5.379   0.121   5.360
  741TIP3   OH2 2165   6.403   2.845   0.636
  741TIP3    H1 2166   6.363   2.782   0.576
  741TIP3    H2 2167   6.355   2.927   0.620
  742TIP3   OH2 2168   3.446   3.667   0.035
  742TIP3    H1 2169   3.437   3.718  -0.046
  742TIP3    H2 2170   3.359   3.629   0.049
  743TIP3   OH2 2171   2.653   1.374   3.558
  743TIP3    H1 2172   2.734   1.423   3.567
  743TIP3    H2 2173   2.584   1.436   3.585
  744TIP3   OH2 2174   3.209   6.210   1.552
  744TIP3    H1 2175   3.177   6.120   1.548
  744TIP3    H2 2176   3.147   6.260   1.497
  745TIP3   OH2 2177   1.314   0.696   4.406
  745TIP3    H1 2178   1.272   0.780   4.389
  745TIP3    H2 2179   1.342   0.665   4.320
  746TIP3   OH2 2180   5.468   3.113   5.536
  746TIP3    H1 2181   5.560   3.133   5.554
  746TIP3    H2 2182   5.431   3.089   5.621
  747TIP3   OH2 2183   5.486   2.227   0.204
  747TIP3    H1 2184   5.544   2.280   0.259
  747TIP3    H2 2185   5.508   2.136   0.225
  748TIP3   OH2 2186   2.098   4.845   1.265
  748TIP3    H1 2187   2.115   4.882   1.352
  748TIP3    H2 2188   2.074   4.754   1.282
  749TIP3   OH2 2189   5.314   6.017   3.373
  749TIP3    H1 2190   5.340   6.080   3.440
  749TIP3    H2 2191   5.380   6.027   3.304
  750TIP3   OH2 2192   6.148   6.030   6.338
  750TIP3    H1 2193   6.182   6.107   6.384
  750TIP3    H2 2194   6.123   5.970   6.409
  751TIP3   OH2 2195   6.358   3.047   3.433
  751TIP3    H1 2196   6.287   3.109   3.449
  751TIP3    H2 2197   6.422   3.097   3.381
  752TIP3   OH2 2198   2.260   7.441   1.786
  752TIP3    H1 2199   2.233   7.350   1.803
  752TIP3    H2 2200   2.188   7.478   1.735
  753TIP3   OH2 2201   4.464   3.642   2.706
  753TIP3    H1 2202   4.555   3.668   2.724
  753TIP3    H2 2203   4.472   3.559   2.658
  754TIP3   OH2 2204   0.491   0.279   2.807
  754TIP3    H1 2205   0.521   0.364   2.774
  754TIP3    H2 2206   0.443   0.242   2.733
  755TIP3   OH2 2207   3.075   1.792   0.063
  755TIP3    H1 2208   3.116   1.711   0.092
  755TIP3    H2 2209   3.139   1.860   0.083
  756TIP3   OH2 2210   4.909   4.394   0.852
  756TIP3    H1 2211   4.866   4.407   0.767
  756TIP3    H2 2212   4.840   4.359   0.908
  757TIP3   OH2 2213   4.875   7.256   0.444
  757TIP3    H1 2214   4.928   7.226   0.518
  757TIP3    H2 2215   4.918   7.220   0.367
  758TIP3   OH2 2216   6.737   0.646   4.476
  758TIP3    H1 2217   6.663   0.603   4.435
  758TIP3    H2 2218   6.765   0.585   4.545
  759TIP3   OH2 2219   3.889   3.424   5.542
  759TIP3    H1 2220   3.922   3.402   5.456
  759TIP3    H2 2221   3.966   3.423   5.599
  760TIP3   OH2 2222   8.156   3.541   2.144
  760TIP3    H1 2223   8.114   3.548   2.230
  760TIP3    H2 2224   8.090   3.500   2.089
  761TIP3   OH2 2225   5.316   0.640   1.654
  761TIP3    H1 2226   5.242   0.692   1.686
  761TIP3    H2 2227   5.359   0.697   1.590
  762TIP3   OH2 2228   6.477   1.511   0.401
  762TIP3    H1 2229   6.501   1.603   0.412
  762TIP3    H2 2230   6.551   1.462   0.438
  763TIP3   OH2 2231   3.396   1.443   3.917
  763TIP3    H1 2232   3.332   1.435   3.847
  763TIP3    H2 2233   3.467   1.384   3.892
  764TIP3   OH2 2234   4.736   1.167   4.995
  764TIP3    H1 2235   4.824   1.159   4.957
  764TIP3    H2 2236   4.679   1.185   4.920
  765TIP3   OH2 2237   6.375   1.269   0.023
  765TIP3    H1 2238   6.345   1.308   0.105
  765TIP3    H2 2239   6.340   1.326  -0.045
  766TIP3   OH2 2240   1.729   5.072   0.275
  766TIP3    H1 2241   1.729   5.010   0.202
  766TIP3    H2 2242   1.694   5.022   0.349
  767TIP3   OH2 2243   7.658   4.496   6.512
  767TIP3    H1 2244   7.667   4.412   6.557
  767TIP3    H2 2245   7.639   4.558   6.583
  768TIP3   OH2 2246   5.592   0.645   6.456
  768TIP3    H1 2247   5.593   0.578   6.524
  768TIP3    H2 2248   5.672   0.629   6.405
  769TIP3   OH2 2249   6.681   4.118   1.944
  769TIP3    H1 2250   6.681   4.033   1.987
  769TIP3    H2 2251   6.634   4.104   1.862
  770TIP3   OH2 2252   5.864   0.876   5.498
  770TIP3    H1 2253   5.839   0.931   5.573
  770TIP3    H2 2254   5.874   0.937   5.425
  771TIP3   OH2 2255   5.133   5.727   2.102
  771TIP3    H1 2256   5.143   5.747   2.195
  771TIP3    H2 2257   5.194   5.785   2.057
  772TIP3   OH2 2258   3.479   3.176   4.843
  772TIP3    H1 2259   3.395   3.168   4.797
  772TIP3    H2 2260   3.463   3.133   4.927
  773TIP3   OH2 2261   4.806   1.766   0.397
  773TIP3    H1 2262   4.751   1.688   0.395
  773TIP3    H2 2263   4.814   1.793   0.306
  774TIP3   OH2 2264   0.371   6.132   2.535
  774TIP3    H1 2265   0.398   6.143   2.626
  774TIP3    H2 2266   0.406   6.047   2.509
  775TIP3   OH2 2267   4.367   4.997   0.421
  775TIP3    H1 2268   4.431   5.065   0.441
  775TIP3    H2 2269   4.392   4.923   0.477
  776TIP3   OH2 2270   2.554   4.245   5.295
  776TIP3    H1 2271   2.530   4.167   5.345
  776TIP3    H2 2272   2.555   4.316   5.360
  777TIP3   OH2 2273   5.739   6.991   5.377
  777TIP3    H1 2274   5.756   7.043   5.455
  777TIP3    H2 2275   5.765   6.902   5.401
  778TIP3   OH2 2276   5.557   5.386   4.125
  778TIP3    H1 2277   5.521   5.414   4.041
  778TIP3    H2 2278   5.531   5.294   4.132
  779TIP3   OH2 2279   2.771   6.075   6.334
  779TIP3    H1 2280   2.679   6.054   6.353
  779TIP3    H2 2281   2.767   6.144   6.268
  780TIP3   OH2 2282   6.411   4.327   4.399
  780TIP3    H1 2283   6.355   4.371   4.462
  780TIP3    H2 2284   6.352   4.301   4.328
  781TIP3   OH2 2285   6.922   7.247   1.147
  781TIP3    H1 2286   6.891   7.265   1.236
  781TIP3    H2 2287   6.904   7.328   1.098
  782TIP3   OH2 2288   6.663   2.299   5.112
  782TIP3    H1 2289   6.656   2.379   5.164
  782TIP3    H2 2290   6.690   2.232   5.175
  783TIP3   OH2 2291   0.780   0.855   3.847
  783TIP3    H1 2292   0.690   0.885   3.862
  783TIP3    H2 2293   0.771   0.777   3.792
  784TIP3   OH2 2294   5.544   7.109   1.974
  784TIP3    H1 2295   5.468   7.127   1.919
  784TIP3    H2 2296   5.597   7.189   1.968
  785TIP3   OH2 2297   8.161   4.474   1.908
  785TIP3    H1 2298   8.132   4.392   1.949
  785TIP3    H2 2299   8.085   4.532   1.913
  786TIP3   OH2 2300   1.198   4.743   5.888
  786TIP3    H1 2301   1.224   4.742   5.980
  786TIP3    H2 2302   1.108   4.773   5.889
  787TIP3   OH2 2303   0.066   2.174   6.497
  787TIP3    H1 2304   0.073   2.261   6.536
  787TIP3    H2 2305  -0.022   2.170   6.461
  788TIP3   OH2 2306   4.148   6.135   6.626
  788TIP3    H1 2307   4.205   6.060   6.608
  788TIP3    H2 2308   4.090   6.106   6.696
  789TIP3   OH2 2309   7.348   4.208   1.057
  789TIP3    H1 2310   7.396   4.136   1.017
  789TIP3    H2 2311   7.416   4.267   1.089
  790TIP3   OH2 2312   3.894   0.469   5.180
  790TIP3    H1 2313   3.824   0.465   5.245
  790TIP3    H2 2314   3.874   0.397   5.120
  791TIP3   OH2 2315   5.093   5.439   0.577
  791TIP3    H1 2316   5.163   5.396   0.527
  791TIP3    H2 2317   5.029   5.369   0.591
  792TIP3   OH2 2318   1.767   3.569   3.115
  792TIP3    H1 2319   1.774   3.634   3.045
  792TIP3    H2 2320   1.781   3.618   3.196
  793TIP3   OH2 2321   6.617   2.098   6.399
  793TIP3    H1 2322   6.524   2.084   6.380
  793TIP3    H2 2323   6.625   2.193   6.411
  794TIP3   OH2 2324   6.613   3.343   5.371
  794TIP3    H1 2325   6.665   3.423   5.377
  794TIP3    H2 2326   6.669   3.282   5.324
  795TIP3   OH2 2327   2.232   1.383   4.133
  795TIP3    H1 2328   2.287   1.419   4.063
  795TIP3    H2 2329   2.221   1.455   4.194
  796TIP3   OH2 2330   0.822   3.325   5.419
  796TIP3    H1 2331   0.810   3.391   5.488
  796TIP3    H2 2332   0.909   3.344   5.384
  797TIP3   OH2 2333   8.193   7.493   5.058
  797TIP3    H1 2334   8.201   7.581   5.019
  797TIP3    H2 2335   8.161   7.510   5.147
  798TIP3   OH2 2336   5.269   6.471   1.950
  798TIP3    H1 2337   5.321   6.525   1.891
  798TIP3    H2 2338   5.179   6.494   1.930
  799TIP3   OH2 2339   6.973   0.763   5.580
  799TIP3    H1 2340   6.927   0.827   5.526
  799TIP3    H2 2341   6.933   0.770   5.666
  800TIP3   OH2 2342   2.210   3.238   6.686
  800TIP3    H1 2343   2.266   3.204   6.616
  800TIP3    H2 2344   2.137   3.176   6.690
  801TIP3   OH2 2345   1.569   0.295   4.542
  801TIP3    H1 2346   1.476   0.316   4.534
  801TIP3    H2 2347   1.589   0.313   4.634
  802TIP3   OH2 2348   6.388   7.064   5.132
  802TIP3    H1 2349   6.427   6.996   5.077
  802TIP3    H2 2350   6.388   7.142   5.077
  803TIP3   OH2 2351   2.629   5.868   1.113
  803TIP3    H1 2352   2.550   5.907   1.150
  803TIP3    H2 2353   2.667   5.819   1.186
  804TIP3   OH2 2354   0.382   0.122   6.681
  804TIP3    H1 2355   0.338   0.093   6.602
  804TIP3    H2 2356   0.313   0.127   6.748
  805TIP3   OH2 2357   3.683   0.170   4.450
  805TIP3    H1 2358   3.777   0.155   4.460
  805TIP3    H2 2359   3.675   0.261   4.423
  806TIP3   OH2 2360   6.012   1.132   0.061
  806TIP3    H1 2361   6.009   1.041   0.089
  806TIP3    H2 2362   6.026   1.182   0.142
  807TIP3   OH2 2363   1.594   0.615   4.519
  807TIP3    H1 2364   1.535   0.566   4.461
  807TIP3    H2 2365   1.580   0.707   4.495
  808TIP3   OH2 2366   4.830   2.835   1.016
  808TIP3    H1 2367   4.769   2.784   1.070
  808TIP3    H2 2368   4.913   2.829   1.062
  809TIP3   OH2 2369   6.866   4.351   1.686
  809TIP3    H1 2370   6.836   4.266   1.655
  809TIP3    H2 2371   6.946   4.368   1.636
  810TIP3   OH2 2372   4.090   1.030   4.437
  810TIP3    H1 2373   4.023   1.045   4.504
  810TIP3    H2 2374   4.072   1.096   4.370
  811TIP3   OH2 2375   6.236   1.753   1.409
  811TIP3    H1 2376   6.290   1.790   1.479
  811TIP3    H2 2377   6.293   1.690   1.365
  812TIP3   OH2 2378   4.923   2.047   2.710
  812TIP3    H1 2379   4.902   1.957   2.736
  812TIP3    H2 2380   4.972   2.038   2.628
  813TIP3   OH2 2381   2.138   2.352   6.379
  813TIP3    H1 2382   2.147   2.447   6.375
  813TIP3    H2 2383   2.161   2.330   6.469
  814TIP3   OH2 2384   0.275   7.315   4.805
  814TIP3    H1 2385   0.278   7.225   4.771
  814TIP3    H2 2386   0.300   7.307   4.897
  815TIP3   OH2 2387   4.972   5.744   3.753
  815TIP3    H1 2388   4.882   5.777   3.746
  815TIP3    H2 2389   5.022   5.819   3.786
  816TIP3   OH2 2390   7.191   1.823   2.646
  816TIP3    H1 2391   7.222   1.865   2.726
  816TIP3    H2 2392   7.142   1.891   2.600
  817TIP3   OH2 2393   3.621   3.382   5.615
  817TIP3    H1 2394   3.713   3.379   5.587
  817TIP3    H2 2395   3.623   3.427   5.699
  818TIP3   OH2 2396   6.475   3.146   2.809
  818TIP3    H1 2397   6.445   3.109   2.726
  818TIP3    H2 2398   6.455   3.239   2.803
  819TIP3   OH2 2399   3.073   6.032   4.046
  819TIP3    H1 2400   3.052   6.030   4.139
  819TIP3    H2 2401   2.989   6.046   4.002
  820TIP3   OH2 2402   7.642   4.975   2.967
  820TIP3    H1 2403   7.585   4.932   3.031
  820TIP3    H2 2404   7.590   5.048   2.935
  821TIP3   OH2 2405   6.297   4.785   3.870
  821TIP3    H1 2406   6.245   4.850   3.917
  821TIP3    H2 2407   6.334   4.833   3.796
  822TIP3   OH2 2408   1.896   4.860   5.796
  822TIP3    H1 2409   1.929   4.807   5.869
  822TIP3    H2 2410   1.868   4.942   5.836
  823TIP3   OH2 2411   6.916   1.025   2.710
  823TIP3    H1 2412   6.932   0.947   2.657
  823TIP3    H2 2413   6.948   1.002   2.797
  824TIP3   OH2 2414   1.285   6.072   5.217
  824TIP3    H1 2415   1.256   6.163   5.217
  824TIP3    H2 2416   1.213   6.025   5.259
  825TIP3   OH2 2417   4.351   1.806   1.011
  825TIP3    H1 2418   4.327   1.870   1.077
  825TIP3    H2 2419   4.356   1.723   1.058
  826TIP3   OH2 2420   6.179   4.848   5.449
  826TIP3    H1 2421   6.142   4.775   5.400
  826TIP3    H2 2422   6.133   4.847   5.533
  827TIP3   OH2 2423   7.865   2.152   5.645
  827TIP3    H1 2424   7.955   2.181   5.628
  827TIP3    H2 2425   7.867   2.116   5.733
  828TIP3   OH2 2426   2.439   0.537   2.402
  828TIP3    H1 2427   2.468   0.625   2.378
  828TIP3    H2 2428   2.344   0.546   2.414
  829TIP3   OH2 2429   1.589   3.465   0.144
  829TIP3    H1 2430   1.558   3.551   0.172
  829TIP3    H2 2431   1.550   3.404   0.207
  830TIP3   OH2 2432   5.786   1.215   4.943
  830TIP3    H1 2433   5.821   1.279   5.005
  830TIP3    H2 2434   5.807   1.130   4.982
  831TIP3   OH2 2435   3.597   2.409   6.565
  831TIP3    H1 2436   3.642   2.348   6.507
  831TIP3    H2 2437   3.666   2.469   6.593
  832TIP3   OH2 2438   6.851   3.123   3.582
  832TIP3    H1 2439   6.761   3.093   3.567
  832TIP3    H2 2440   6.848   3.217   3.570
  833TIP3   OH2 2441   5.906   2.019   2.109
  833TIP3    H1 2442   5.842   2.069   2.058
  833TIP3    H2 2443   5.858   1.940   2.136
  834TIP3   OH2 2444   0.182   3.804   4.864
  834TIP3    H1 2445   0.108   3.801   4.925
  834TIP3    H2 2446   0.208   3.712   4.853
  835TIP3   OH2 2447   6.856   4.383   1.383
  835TIP3    H1 2448   6.903   4.437   1.447
  835TIP3    H2 2449   6.824   4.446   1.317
  836TIP3   OH2 2450   7.965   1.378   2.108
  836TIP3    H1 2451   7.953   1.374   2.013
  836TIP3    H2 2452   8.014   1.460   2.122
  837TIP3   OH2 2453   8.130   4.388   4.818
  837TIP3    H1 2454   8.035   4.397   4.826
  837TIP3    H2 2455   8.155   4.330   4.891
  838TIP3   OH2 2456   3.971   4.080   5.443
  838TIP3    H1 2457   4.014   4.112   5.522
  838TIP3    H2 2458   3.905   4.146   5.422
  839TIP3   OH2 2459   0.156   0.312   1.526
  839TIP3    H1 2460   0.222   0.276   1.587
  839TIP3    H2 2461   0.203   0.320   1.443
  840TIP3   OH2 2462   7.752   2.321   0.414
  840TIP3    H1 2463   7.805   2.284   0.343
  840TIP3    H2 2464   7.756   2.256   0.484
  841TIP3   OH2 2465   7.240   7.326   3.804
  841TIP3    H1 2466   7.243   7.352   3.712
  841TIP3    H2 2467   7.292   7.392   3.850
  842TIP3   OH2 2468   2.029   5.936   6.621
  842TIP3    H1 2469   2.016   5.934   6.715
  842TIP3    H2 2470   2.099   5.872   6.605
  843TIP3   OH2 2471   7.140   3.566   5.660
  843TIP3    H1 2472   7.061   3.571   5.714
  843TIP3    H2 2473   7.170   3.476   5.671
  844TIP3   OH2 2474   7.593   4.849   0.451
  844TIP3    H1 2475   7.619   4.767   0.492
  844TIP3    H2 2476   7.595   4.831   0.357
  845TIP3   OH2 2477   3.760   4.826   3.875
  845TIP3    H1 2478   3.818   4.830   3.951
  845TIP3    H2 2479   3.747   4.918   3.850
  846TIP3   OH2 2480   6.968   0.224   3.065
  846TIP3    H1 2481   6.940   0.134   3.047
  846TIP3    H2 2482   6.963   0.232   3.160
  847TIP3   OH2 2483   5.634   1.639   2.944
  847TIP3    H1 2484   5.611   1.568   2.885
  847TIP3    H2 2485   5.551   1.664   2.986
  848TIP3   OH2 2486   5.355   0.307   6.391
  848TIP3    H1 2487   5.274   0.256   6.388
  848TIP3    H2 2488   5.340   0.369   6.464
  849TIP3   OH2 2489   1.546   0.178   2.109
  849TIP3    H1 2490   1.537   0.092   2.150
  849TIP3    H2 2491   1.640   0.186   2.091
  850TIP3   OH2 2492   4.706   3.023   2.405
  850TIP3    H1 2493   4.616   2.992   2.396
  850TIP3    H2 2494   4.759   2.952   2.368
  851TIP3   OH2 2495   6.636   2.913   4.436
  851TIP3    H1 2496   6.712   2.863   4.408
  851TIP3    H2 2497   6.672   2.987   4.486
  852TIP3   OH2 2498   2.048   2.095   5.925
  852TIP3    H1 2499   1.963   2.066   5.891
  852TIP3    H2 2500   2.109   2.078   5.853
  853TIP3   OH2 2501   3.738   5.056   1.932
  853TIP3    H1 2502   3.687   4.990   1.979
  853TIP3    H2 2503   3.767   5.012   1.852
  854TIP3   OH2 2504   4.314   1.027   2.017
  854TIP3    H1 2505   4.280   0.941   1.991
  854TIP3    H2 2506   4.257   1.055   2.088
  855TIP3   OH2 2507   6.559   0.807   6.688
  855TIP3    H1 2508   6.545   0.778   6.778
  855TIP3    H2 2509   6.561   0.727   6.637
  856TIP3   OH2 2510   2.016   7.365   6.076
  856TIP3    H1 2511   2.049   7.320   6.153
  856TIP3    H2 2512   2.087   7.360   6.012
  857TIP3   OH2 2513   6.583   1.956   3.677
  857TIP3    H1 2514   6.663   2.003   3.701
  857TIP3    H2 2515   6.523   2.024   3.646
  858TIP3   OH2 2516   8.110   1.800   3.742
  858TIP3    H1 2517   8.124   1.751   3.823
  858TIP3    H2 2518   8.018   1.827   3.746
  859TIP3   OH2 2519   6.442   6.744   4.420
  859TIP3    H1 2520   6.494   6.824   4.409
  859TIP3    H2 2521   6.433   6.709   4.332
  860TIP3   OH2 2522   6.656   1.684   3.019
  860TIP3    H1 2523   6.573   1.714   3.056
  860TIP3    H2 2524   6.720   1.696   3.089
  861TIP3   OH2 2525   4.062   3.574   0.401
  861TIP3    H1 2526   4.045   3.497   0.456
  861TIP3    H2 2527   4.105   3.538   0.323
  862TIP3   OH2 2528   1.033   6.148   0.348
  862TIP3    H1 2529   1.088   6.179   0.420
  862TIP3    H2 2530   1.081   6.171   0.269
  863TIP3   OH2 2531   4.235   7.303   0.210
  863TIP3    H1 2532   4.143   7.295   0.236
  863TIP3    H2 2533   4.276   7.223   0.242
  864TIP3   OH2 2534   2.051   4.155   2.002
  864TIP3    H1 2535   1.968   4.184   2.041
  864TIP3    H2 2536   2.024   4.105   1.925
  865TIP3   OH2 2537   6.844   1.283   1.559
  865TIP3    H1 2538   6.914   1.329   1.605
  865TIP3    H2 2539   6.811   1.220   1.624
  866TIP3   OH2 2540   1.436   1.928   5.640
  866TIP3    H1 2541   1.453   1.878   5.560
  866TIP3    H2 2542   1.479   2.012   5.625
  867TIP3   OH2 2543   0.808   3.302   3.590
  867TIP3    H1 2544   0.735   3.259   3.546
  867TIP3    H2 2545   0.791   3.289   3.683
  868TIP3   OH2 2546   5.429   0.455   0.970
  868TIP3    H1 2547   5.474   0.535   0.944
  868TIP3    H2 2548   5.490   0.385   0.949
  869TIP3   OH2 2549   3.955   0.701   2.670
  869TIP3    H1 2550   3.933   0.734   2.757
  869TIP3    H2 2551   4.049   0.715   2.662
  870TIP3   OH2 2552   6.066   2.130   1.406
  870TIP3    H1 2553   6.001   2.078   1.360
  870TIP3    H2 2554   6.088   2.078   1.484
  871TIP3   OH2 2555   2.381   6.295   4.728
  871TIP3    H1 2556   2.333   6.360   4.677
  871TIP3    H2 2557   2.331   6.285   4.809
  872TIP3   OH2 2558   1.302   7.625   2.262
  872TIP3    H1 2559   1.344   7.542   2.242
  872TIP3    H2 2560   1.356   7.691   2.219
  873TIP3   OH2 2561   4.804   5.794   2.111
  873TIP3    H1 2562   4.886   5.786   2.062
  873TIP3    H2 2563   4.805   5.884   2.144
  874TIP3   OH2 2564   1.832   5.131   0.874
  874TIP3    H1 2565   1.769   5.059   0.870
  874TIP3    H2 2566   1.845   5.156   0.782
  875TIP3   OH2 2567   7.882   2.018   6.641
  875TIP3    H1 2568   7.924   2.074   6.575
  875TIP3    H2 2569   7.854   1.940   6.592
  876TIP3   OH2 2570   0.579   7.119   6.770
  876TIP3    H1 2571   0.557   7.175   6.845
  876TIP3    H2 2572   0.571   7.176   6.694
  877TIP3   OH2 2573   6.912   2.678   5.428
  877TIP3    H1 2574   6.844   2.676   5.361
  877TIP3    H2 2575   6.874   2.631   5.503
  878TIP3   OH2 2576  -0.001   6.861   2.690
  878TIP3    H1 2577   0.050   6.817   2.623
  878TIP3    H2 2578   0.064   6.900   2.749
  879TIP3   OH2 2579   1.223   2.710   1.268
  879TIP3    H1 2580   1.278   2.774   1.224
  879TIP3    H2 2581   1.198   2.751   1.350
  880TIP3   OH2 2582   1.362   5.415   4.568
  880TIP3    H1 2583   1.410   5.491   4.601
  880TIP3    H2 2584   1.304   5.450   4.501
  881TIP3   OH2 2585   3.700   1.154   1.906
  881TIP3    H1 2586   3.763   1.099   1.954
  881TIP3    H2 2587   3.619   1.103   1.906
  882TIP3   OH2 2588   0.244   1.973   4.826
  882TIP3    H1 2589   0.199   1.955   4.908
  882TIP3    H2 2590   0.174   1.984   4.761
  883TIP3   OH2 2591   3.335   6.678   1.262
  883TIP3    H1 2592   3.357   6.629   1.342
  883TIP3    H2 2593   3.407   6.659   1.203
  884TIP3   OH2 2594   2.053   1.937   6.217
  884TIP3    H1 2595   2.107   2.014   6.231
  884TIP3    H2 2596   2.004   1.927   6.299
  885TIP3   OH2 2597   7.987   6.990   2.865
  885TIP3    H1 2598   8.019   6.901   2.881
  885TIP3    H2 2599   7.914   7.000   2.927
  886TIP3   OH2 2600   0.295   7.635   1.472
  886TIP3    H1 2601   0.376   7.682   1.456
  886TIP3    H2 2602   0.306   7.551   1.428
  887TIP3   OH2 2603   1.861   2.323   2.769
  887TIP3    H1 2604   1.829   2.403   2.810
  887TIP3    H2 2605   1.782   2.275   2.745
  888TIP3   OH2 2606   5.890   5.466   1.661
  888TIP3    H1 2607   5.963   5.523   1.686
  888TIP3    H2 2608   5.850   5.511   1.587
  889TIP3   OH2 2609   2.958   6.308   1.709
  889TIP3    H1 2610   2.950   6.338   1.800
  889TIP3    H2 2611   3.024   6.365   1.670
  890TIP3   OH2 2612   7.348   2.410   2.405
  890TIP3    H1 2613   7.255   2.423   2.383
  890TIP3    H2 2614   7.393   2.410   2.321
  891TIP3   OH2 2615   1.202   1.365   4.844
  891TIP3    H1 2616   1.251   1.376   4.926
  891TIP3    H2 2617   1.269   1.343   4.779
  892TIP3   OH2 2618   3.815   3.458   4.653
  892TIP3    H1 2619   3.843   3.442   4.563
  892TIP3    H2 2620   3.875   3.407   4.707
  893TIP3   OH2 2621   8.008   2.629   5.922
  893TIP3    H1 2622   8.027   2.713   5.881
  893TIP3    H2 2623   8.015   2.566   5.851
  894TIP3   OH2 2624   4.629   1.405   2.894
  894TIP3    H1 2625   4.621   1.488   2.940
  894TIP3    H2 2626   4.605   1.339   2.959
  895TIP3   OH2 2627   5.922   5.069   0.442
  895TIP3    H1 2628   5.879   5.145   0.403
  895TIP3    H2 2629   6.015   5.084   0.426
  896TIP3   OH2 2630   2.456   5.621   5.481
  896TIP3    H1 2631   2.431   5.672   5.403
  896TIP3    H2 2632   2.532   5.570   5.452
  897TIP3   OH2 2633   7.491   2.904   3.258
  897TIP3    H1 2634   7.459   2.987   3.222
  897TIP3    H2 2635   7.551   2.870   3.192
  898TIP3   OH2 2636   4.107   6.446   5.068
  898TIP3    H1 2637   4.013   6.461   5.058
  898TIP3    H2 2638   4.115   6.352   5.088
  899TIP3   OH2 2639   4.940   3.431   1.932
  899TIP3    H1 2640   4.892   3.391   2.005
  899TIP3    H2 2641   4.904   3.519   1.925
  900TIP3   OH2 2642   7.846   7.429   6.462
  900TIP3    H1 2643   7.870   7.474   6.543
  900TIP3    H2 2644   7.794   7.354   6.490
  901TIP3   OH2 2645   3.183   5.545   4.948
  901TIP3    H1 2646   3.205   5.616   4.888
  901TIP3    H2 2647   3.205   5.465   4.900
  902TIP3   OH2 2648   5.979   4.240   4.986
  902TIP3    H1 2649   5.993   4.202   4.899
  902TIP3    H2 2650   5.886   4.225   5.003
  903TIP3   OH2 2651   2.295   6.081   0.501
  903TIP3    H1 2652   2.314   6.152   0.440
  903TIP3    H2 2653   2.373   6.025   0.497
  904TIP3   OH2 2654   2.355   0.944   2.332
  904TIP3    H1 2655   2.365   1.026   2.380
  904TIP3    H2 2656   2.429   0.890   2.359
  905TIP3   OH2 2657   5.250   4.936   2.638
  905TIP3    H1 2658   5.293   4.931   2.553
  905TIP3    H2 2659   5.321   4.942   2.702
  906TIP3   OH2 2660   3.112   4.439   3.104
  906TIP3    H1 2661   3.159   4.356   3.112
  906TIP3    H2 2662   3.155   4.497   3.167
  907TIP3   OH2 2663   4.815   5.608   4.163
  907TIP3    H1 2664   4.834   5.529   4.213
  907TIP3    H2 2665   4.782   5.670   4.228
  908TIP3   OH2 2666   3.545   3.787   6.142
  908TIP3    H1 2667   3.517   3.712   6.089
  908TIP3    H2 2668   3.463   3.825   6.173
  909TIP3   OH2 2669   3.740   3.372   0.129
  909TIP3    H1 2670   3.647   3.389   0.111
  909TIP3    H2 2671   3.741   3.295   0.185
  910TIP3   OH2 2672   5.754   6.865   5.672
  910TIP3    H1 2673   5.771   6.771   5.679
  910TIP3    H2 2674   5.665   6.876   5.705
  911TIP3   OH2 2675   7.068   3.087   5.294
  911TIP3    H1 2676   7.149   3.122   5.258
  911TIP3    H2 2677   7.086   2.993   5.305
  912TIP3   OH2 2678   5.561   0.292   2.015
  912TIP3    H1 2679   5.517   0.357   1.961
  912TIP3    H2 2680   5.587   0.339   2.094
  913TIP3   OH2 2681   6.070   3.658   2.461
  913TIP3    H1 2682   6.033   3.570   2.465
  913TIP3    H2 2683   6.015   3.710   2.519
  914TIP3   OH2 2684   5.231   6.333   0.980
  914TIP3    H1 2685   5.200   6.250   1.016
  914TIP3    H2 2686   5.253   6.387   1.056
  915TIP3   OH2 2687   2.876   7.655   4.777
  915TIP3    H1 2688   2.937   7.710   4.728
  915TIP3    H2 2689   2.911   7.566   4.768
  916TIP3   OH2 2690   5.247   7.276   3.476
  916TIP3    H1 2691   5.249   7.366   3.442
  916TIP3    H2 2692   5.338   7.246   3.468
  917TIP3   OH2 2693   5.288   1.856   1.366
  917TIP3    H1 2694   5.292   1.949   1.385
  917TIP3    H2 2695   5.338   1.846   1.285
  918TIP3   OH2 2696   0.810   3.432   2.105
  918TIP3    H1 2697   0.878   3.392   2.159
  918TIP3    H2 2698   0.764   3.359   2.065
  919TIP3   OH2 2699   0.363   4.618   1.645
  919TIP3    H1 2700   0.388   4.546   1.704
  919TIP3    H2 2701   0.392   4.697   1.690
  920TIP3   OH2 2702   4.679   6.462   6.459
  920TIP3    H1 2703   4.589   6.447   6.486
  920TIP3    H2 2704   4.676   6.545   6.411
  921TIP3   OH2 2705   1.700   3.058   2.617
  921TIP3    H1 2706   1.630   3.121   2.637
  921TIP3    H2 2707   1.683   3.032   2.527
  922TIP3   OH2 2708   6.204   2.102   3.044
  922TIP3    H1 2709   6.259   2.065   3.113
  922TIP3    H2 2710   6.116   2.071   3.065
  923TIP3   OH2 2711   6.663   2.725   5.614
  923TIP3    H1 2712   6.728   2.793   5.597
  923TIP3    H2 2713   6.651   2.727   5.709
  924TIP3   OH2 2714   5.151   1.520   4.599
  924TIP3    H1 2715   5.177   1.610   4.619
  924TIP3    H2 2716   5.061   1.513   4.631
  925TIP3   OH2 2717   7.235   1.207   5.945
  925TIP3    H1 2718   7.323   1.245   5.950
  925TIP3    H2 2719   7.213   1.184   6.035
  926TIP3   OH2 2720   4.320   5.407   6.432
  926TIP3    H1 2721   4.401   5.457   6.417
  926TIP3    H2 2722   4.345   5.341   6.497
  927TIP3   OH2 2723   7.298   3.364   5.316
  927TIP3    H1 2724   7.346   3.284   5.332
  927TIP3    H2 2725   7.209   3.346   5.349
  928TIP3   OH2 2726   4.938   6.427   5.738
  928TIP3    H1 2727   4.894   6.362   5.684
  928TIP3    H2 2728   4.886   6.507   5.725
  929TIP3   OH2 2729   3.613   6.016   2.673
  929TIP3    H1 2730   3.541   5.955   2.690
  929TIP3    H2 2731   3.690   5.960   2.660
  930TIP3   OH2 2732   6.680   7.082   1.947
  930TIP3    H1 2733   6.680   6.990   1.918
  930TIP3    H2 2734   6.659   7.132   1.868
  931TIP3   OH2 2735   1.163   0.150   6.587
  931TIP3    H1 2736   1.194   0.188   6.669
  931TIP3    H2 2737   1.132   0.063   6.610
  932TIP3   OH2 2738   4.581   3.290   0.109
  932TIP3    H1 2739   4.532   3.225   0.058
  932TIP3    H2 2740   4.617   3.241   0.183
  933TIP3   OH2 2741   3.280   6.329   6.685
  933TIP3    H1 2742   3.311   6.420   6.686
  933TIP3    H2 2743   3.290   6.301   6.593
  934TIP3   OH2 2744   5.599   6.006   6.512
  934TIP3    H1 2745   5.630   5.968   6.430
  934TIP3    H2 2746   5.558   5.932   6.558
  935TIP3   OH2 2747   0.474   5.843   6.619
  935TIP3    H1 2748   0.439   5.891   6.544
  935TIP3    H2 2749   0.563   5.820   6.593
  936TIP3   OH2 2750   4.728   5.975   1.130
  936TIP3    H1 2751   4.761   5.917   1.198
  936TIP3    H2 2752   4.635   5.953   1.122
  937TIP3   OH2 2753   3.203   7.430   1.776
  937TIP3    H1 2754   3.287   7.433   1.822
  937TIP3    H2 2755   3.193   7.517   1.738
  938TIP3   OH2 2756   5.713   1.545   4.045
  938TIP3    H1 2757   5.746   1.609   3.982
  938TIP3    H2 2758   5.623   1.529   4.017
  939TIP3   OH2 2759   0.996   4.338   3.051
  939TIP3    H1 2760   1.002   4.388   2.970
  939TIP3    H2 2761   1.004   4.403   3.120
  940TIP3   OH2 2762   8.104   5.863   3.347
  940TIP3    H1 2763   8.142   5.923   3.411
  940TIP3    H2 2764   8.111   5.777   3.387
  941TIP3   OH2 2765   1.309   4.930   5.067
  941TIP3    H1 2766   1.215   4.922   5.080
  941TIP3    H2 2767   1.345   4.847   5.098
  942TIP3   OH2 2768   4.325   1.603   3.556
  942TIP3    H1 2769   4.238   1.575   3.585
  942TIP3    H2 2770   4.385   1.560   3.618
  943TIP3   OH2 2771   4.773   1.303   5.285
  943TIP3    H1 2772   4.706   1.244   5.252
  943TIP3    H2 2773   4.856   1.258   5.268
  944TIP3   OH2 2774   7.074   2.394   5.161
  944TIP3    H1 2775   7.018   2.463   5.125
  944TIP3    H2 2776   7.017   2.318   5.169
  945TIP3   OH2 2777   7.633   4.588   5.107
  945TIP3    H1 2778   7.628   4.638   5.025
  945TIP3    H2 2779   7.547   4.598   5.146
  946TIP3   OH2 2780   1.527   4.139   2.122
  946TIP3    H1 2781   1.439   4.102   2.113
  946TIP3    H2 2782   1.585   4.063   2.129
  947TIP3   OH2 2783   0.547   5.257   4.565
  947TIP3    H1 2784   0.566   5.168   4.595
  947TIP3    H2 2785   0.630   5.288   4.528
  948TIP3   OH2 2786   0.066   5.716   1.802
  948TIP3    H1 2787   0.085   5.632   1.841
  948TIP3    H2 2788   0.142   5.771   1.821
  949TIP3   OH2 2789   6.076   0.832   4.283
  949TIP3    H1 2790   6.127   0.760   4.245
  949TIP3    H2 2791   5.985   0.805   4.272
  950TIP3   OH2 2792   1.309   5.001   3.499
  950TIP3    H1 2793   1.333   4.985   3.590
  950TIP3    H2 2794   1.355   5.081   3.476
  951TIP3   OH2 2795   5.734   6.442   2.080
  951TIP3    H1 2796   5.723   6.490   1.998
  951TIP3    H2 2797   5.825   6.412   2.079
  952TIP3   OH2 2798   5.317   1.433   3.557
  952TIP3    H1 2799   5.314   1.345   3.594
  952TIP3    H2 2800   5.225   1.461   3.555
  953TIP3   OH2 2801   2.077   0.893   0.820
  953TIP3    H1 2802   2.092   0.966   0.881
  953TIP3    H2 2803   2.165   0.864   0.796
  954TIP3   OH2 2804   2.072   1.803   5.426
  954TIP3    H1 2805   2.105   1.731   5.480
  954TIP3    H2 2806   1.977   1.790   5.426
  955TIP3   OH2 2807   5.601   1.445   3.636
  955TIP3    H1 2808   5.651   1.490   3.568
  955TIP3    H2 2809   5.515   1.430   3.596
  956TIP3   OH2 2810   2.989   5.112   2.134
  956TIP3    H1 2811   2.948   5.194   2.162
  956TIP3    H2 2812   2.938   5.085   2.058
  957TIP3   OH2 2813   7.380   3.969   5.186
  957TIP3    H1 2814   7.412   3.893   5.138
  957TIP3    H2 2815   7.450   3.989   5.249
  958TIP3   OH2 2816   8.293   1.286   0.848
  958TIP3    H1 2817   8.223   1.285   0.783
  958TIP3    H2 2818   8.262   1.228   0.918
  959TIP3   OH2 2819   5.418   7.293   1.563
  959TIP3    H1 2820   5.410   7.225   1.631
  959TIP3    H2 2821   5.447   7.245   1.485
  960TIP3   OH2 2822   2.809   5.866   0.503
  960TIP3    H1 2823   2.761   5.915   0.570
  960TIP3    H2 2824   2.754   5.791   0.483
  961TIP3   OH2 2825   3.440   0.246   1.216
  961TIP3    H1 2826   3.445   0.339   1.241
  961TIP3    H2 2827   3.518   0.206   1.253
  962TIP3   OH2 2828   0.589   4.706   2.226
  962TIP3    H1 2829   0.639   4.708   2.144
  962TIP3    H2 2830   0.508   4.753   2.205
  963TIP3   OH2 2831   3.818   1.740   4.624
  963TIP3    H1 2832   3.797   1.781   4.540
  963TIP3    H2 2833   3.741   1.687   4.645
  964TIP3   OH2 2834   6.969   2.233   6.266
  964TIP3    H1 2835   6.990   2.269   6.180
  964TIP3    H2 2836   7.052   2.234   6.314
  965TIP3   OH2 2837   0.323   0.682   0.094
  965TIP3    H1 2838   0.293   0.595   0.120
  965TIP3    H2 2839   0.311   0.684  -0.001
  966TIP3   OH2 2840   5.465   7.572   3.148
  966TIP3    H1 2841   5.453   7.665   3.130
  966TIP3    H2 2842   5.461   7.530   3.062
  967TIP3   OH2 2843   2.272   6.595   4.249
  967TIP3    H1 2844   2.281   6.567   4.158
  967TIP3    H2 2845   2.275   6.690   4.246
  968TIP3   OH2 2846   0.373   6.868   0.082
  968TIP3    H1 2847   0.454   6.903   0.121
  968TIP3    H2 2848   0.392   6.776   0.065
  969TIP3   OH2 2849   1.108   4.289   5.221
  969TIP3    H1 2850   1.055   4.237   5.160
  969TIP3    H2 2851   1.059   4.289   5.302
  970TIP3   OH2 2852   0.145   3.045   5.222
  970TIP3    H1 2853   0.057   3.041   5.259
  970TIP3    H2 2854   0.150   2.970   5.163
  971TIP3   OH2 2855   2.723   1.576   5.564
  971TIP3    H1 2856   2.634   1.573   5.599
  971TIP3    H2 2857   2.751   1.484   5.564
  972TIP3   OH2 2858   4.925   2.848   3.265
  972TIP3    H1 2859   4.895   2.817   3.350
  972TIP3    H2 2860   4.875   2.796   3.202
  973TIP3   OH2 2861  -0.039   3.391   1.645
  973TIP3    H1 2862   0.008   3.309   1.657
  973TIP3    H2 2863  -0.012   3.445   1.719
  974TIP3   OH2 2864   6.057   1.605   6.360
  974TIP3    H1 2865   5.975   1.557   6.357
  974TIP3    H2 2866   6.076   1.615   6.453
  975TIP3   OH2 2867   2.154   1.741   0.653
  975TIP3    H1 2868   2.202   1.822   0.635
  975TIP3    H2 2869   2.086   1.767   0.715
  976TIP3   OH2 2870   8.079   3.903   1.498
  976TIP3    H1 2871   8.092   3.879   1.406
  976TIP3    H2 2872   8.011   3.843   1.529
  977TIP3   OH2 2873   5.986   1.927   0.913
  977TIP3    H1 2874   5.932   1.852   0.939
  977TIP3    H2 2875   6.012   1.908   0.823
  978TIP3   OH2 2876   4.481   0.738   3.042
  978TIP3    H1 2877   4.463   0.692   3.123
  978TIP3    H2 2878   4.405   0.794   3.028
  979TIP3   OH2 2879   4.131   0.823   5.585
  979TIP3    H1 2880   4.223   0.846   5.599
  979TIP3    H2 2881   4.111   0.856   5.497
  980TIP3   OH2 2882   1.502   0.641   1.595
  980TIP3    H1 2883   1.449   0.575   1.549
  980TIP3    H2 2884   1.464   0.724   1.569
  981TIP3   OH2 2885   5.878   5.453   4.655
  981TIP3    H1 2886   5.946   5.488   4.598
  981TIP3    H2 2887   5.886   5.503   4.736
  982TIP3   OH2 2888   5.999   6.092   1.298
  982TIP3    H1 2889   5.983   6.186   1.293
  982TIP3    H2 2890   5.911   6.052   1.295
  983TIP3   OH2 2891   1.420   7.380   6.159
  983TIP3    H1 2892   1.349   7.436   6.129
  983TIP3    H2 2893   1.495   7.406   6.105
  984TIP3   OH2 2894   2.198   7.717   0.218
  984TIP3    H1 2895   2.236   7.657   0.154
  984TIP3    H2 2896   2.125   7.668   0.257
  985TIP3   OH2 2897   5.442   4.127   6.413
  985TIP3    H1 2898   5.467   4.163   6.498
  985TIP3    H2 2899   5.461   4.033   6.420
  986TIP3   OH2 2900   4.265   1.083   6.294
  986TIP3    H1 2901   4.228   1.104   6.209
  986TIP3    H2 2902   4.280   1.167   6.336
  987TIP3   OH2 2903   5.125   4.045   6.587
  987TIP3    H1 2904   5.153   4.087   6.668
  987TIP3    H2 2905   5.135   3.951   6.604
  988TIP3   OH2 2906   1.659   6.564   1.060
  988TIP3    H1 2907   1.662   6.658   1.045
  988TIP3    H2 2908   1.749   6.535   1.046
  989TIP3   OH2 2909   2.051   4.937   3.885
  989TIP3    H1 2910   2.144   4.916   3.888
  989TIP3    H2 2911   2.019   4.894   3.805
  990TIP3   OH2 2912   0.442   4.148   4.609
  990TIP3    H1 2913   0.418   4.202   4.684
  990TIP3    H2 2914   0.524   4.187   4.577
  991TIP3   OH2 2915   2.432   2.776   0.534
  991TIP3    H1 2916   2.496   2.828   0.487
  991TIP3    H2 2917   2.347   2.803   0.498
  992TIP3   OH2 2918   1.479   1.831   4.672
  992TIP3    H1 2919   1.481   1.773   4.596
  992TIP3    H2 2920   1.432   1.908   4.642
  993TIP3   OH2 2921   7.062   4.508   5.123
  993TIP3    H1 2922   7.050   4.471   5.035
  993TIP3    H2 2923   7.016   4.592   5.120
  994TIP3   OH2 2924   7.865   0.640   3.847
  994TIP3    H1 2925   7.866   0.646   3.751
  994TIP3    H2 2926   7.796   0.699   3.874
  995TIP3   OH2 2927   3.428   6.735   5.004
  995TIP3    H1 2928   3.401   6.737   5.096
  995TIP3    H2 2929   3.380   6.808   4.964
  996TIP3   OH2 2930   4.625   0.422   0.456
  996TIP3    H1 2931   4.586   0.482   0.520
  996TIP3    H2 2932   4.687   0.476   0.408
  997TIP3   OH2 2933   7.046   1.544   5.699
  997TIP3    H1 2934   6.951   1.552   5.712
  997TIP3    H2 2935   7.081   1.535   5.788
  998TIP3   OH2 2936   0.212   3.496   2.899
  998TIP3    H1 2937   0.246   3.526   2.983
  998TIP3    H2 2938   0.127   3.458   2.919
  999TIP3   OH2 2939   6.755   0.898   3.220
  999TIP3    H1 2940   6.676   0.945   3.191
  999TIP3    H2 2941   6.824   0.964   3.219
 1000TIP3   OH2 2942   3.627   6.991   1.793
 1000TIP3    H1 2943   3.717   7.004   1.764
 1000TIP3    H2 2944   3.622   6.899   1.816
 1001TIP3   OH2 2945   7.053   0.582   2.048
 1001TIP3    H1 2946   7.104   0.629   1.983
 1001TIP3    H2 2947   7.077   0.490   2.035
 1002TIP3   OH2 2948   5.722   1.750   6.099
 1002TIP3    H1 2949   5.706   1.696   6.022
 1002TIP3    H2 2950   5.664   1.714   6.166
 1003TIP3   OH2 2951   4.995   4.393   0.193
 1003TIP3    H1 2952   5.014   4.309   0.151
 1003TIP3    H2 2953   4.958   4.447   0.123
 1004TIP3   OH2 2954   7.163   5.235   3.913
 1004TIP3    H1 2955   7.094   5.290   3.951
 1004TIP3    H2 2956   7.166   5.262   3.821
 1005TIP3   OH2 2957   0.278   1.498   5.313
 1005TIP3    H1 2958   0.300   1.546   5.392
 1005TIP3    H2 2959   0.311   1.409   5.329
 1006TIP3   OH2 2960   3.850   3.628   3.708
 1006TIP3    H1 2961   3.845   3.629   3.804
 1006TIP3    H2 2962   3.938   3.660   3.689
 1007TIP3   OH2 2963   2.686   5.399   1.691
 1007TIP3    H1 2964   2.732   5.352   1.622
 1007TIP3    H2 2965   2.750   5.404   1.762
 1008TIP3   OH2 2966   0.108   4.928   0.785
 1008TIP3    H1 2967   0.023   4.940   0.827
 1008TIP3    H2 2968   0.159   4.876   0.847
 1009TIP3   OH2 2969   3.010   0.703   5.378
 1009TIP3    H1 2970   3.076   0.686   5.311
 1009TIP3    H2 2971   3.039   0.784   5.420
 1010TIP3   OH2 2972   6.451   4.536   1.265
 1010TIP3    H1 2973   6.416   4.514   1.179
 1010TIP3    H2 2974   6.439   4.457   1.317
 1011TIP3   OH2 2975   5.635   1.126   5.607
 1011TIP3    H1 2976   5.560   1.067   5.611
 1011TIP3    H2 2977   5.699   1.088   5.666
 1012TIP3   OH2 2978   6.777   4.057   5.759
 1012TIP3    H1 2979   6.860   4.090   5.726
 1012TIP3    H2 2980   6.711   4.101   5.705
 1013TIP3   OH2 2981   5.379   2.330   4.844
 1013TIP3    H1 2982   5.384   2.425   4.852
 1013TIP3    H2 2983   5.323   2.315   4.768
 1014TIP3   OH2 2984   2.481   4.079   6.595
 1014TIP3    H1 2985   2.484   3.984   6.607
 1014TIP3    H2 2986   2.416   4.092   6.527
 1015TIP3   OH2 2987   6.249   7.242   1.438
 1015TIP3    H1 2988   6.325   7.298   1.446
 1015TIP3    H2 2989   6.284   7.153   1.439
 1016TIP3   OH2 2990   4.202   1.060   5.106
 1016TIP3    H1 2991   4.263   1.080   5.177
 1016TIP3    H2 2992   4.149   1.139   5.096
 1017TIP3   OH2 2993   5.072   0.726   5.561
 1017TIP3    H1 2994   5.068   0.804   5.505
 1017TIP3    H2 2995   5.014   0.663   5.519
 1018TIP3   OH2 2996   0.434   0.461   1.033
 1018TIP3    H1 2997   0.349   0.506   1.030
 1018TIP3    H2 2998   0.416   0.374   0.997
 1019TIP3   OH2 2999   1.785   1.144   2.420
 1019TIP3    H1 3000   1.741   1.077   2.472
 1019TIP3    H2 3001   1.831   1.095   2.351
 1020TIP3   OH2 3002   1.123   6.649   1.065
 1020TIP3    H1 3003   1.181   6.724   1.056
 1020TIP3    H2 3004   1.101   6.625   0.975
 1021TIP3   OH2 3005   2.325   7.247   1.065
 1021TIP3    H1 3006   2.317   7.193   1.143
 1021TIP3    H2 3007   2.355   7.187   0.997
 1022TIP3   OH2 3008   3.974   3.811   5.380
 1022TIP3    H1 3009   3.904   3.769   5.430
 1022TIP3    H2 3010   3.948   3.903   5.375
 1023TIP3   OH2 3011   2.091   7.415   4.493
 1023TIP3    H1 3012   2.165   7.474   4.479
 1023TIP3    H2 3013   2.060   7.394   4.405
 1024TIP3   OH2 3014   6.229   4.740   4.416
 1024TIP3    H1 3015   6.148   4.745   4.466
 1024TIP3    H2 3016   6.294   4.786   4.470
 1025TIP3   OH2 3017   1.585   2.640   3.067
 1025TIP3    H1 3018   1.564   2.713   3.010
 1025TIP3    H2 3019   1.548   2.664   3.152
 1026TIP3   OH2 3020   5.002   1.424   3.953
 1026TIP3    H1 3021   4.976   1.377   3.873
 1026TIP3    H2 3022   5.037   1.507   3.920
 1027TIP3   OH2 3023   0.804   0.462   0.084
 1027TIP3    H1 3024   0.796   0.374   0.049
 1027TIP3    H2 3025   0.868   0.505   0.028
 1028TIP3   OH2 3026   6.709   2.240   3.137
 1028TIP3    H1 3027   6.697   2.334   3.121
 1028TIP3    H2 3028   6.663   2.224   3.219
 1029TIP3   OH2 3029   1.252   3.255   0.599
 1029TIP3    H1 3030   1.233   3.296   0.514
 1029TIP3    H2 3031   1.201   3.174   0.598
 1030TIP3   OH2 3032   0.829   2.334   3.364
 1030TIP3    H1 3033   0.775   2.408   3.390
 1030TIP3    H2 3034   0.816   2.269   3.433
 1031TIP3   OH2 3035   2.145   0.313   4.415
 1031TIP3    H1 3036   2.131   0.400   4.377
 1031TIP3    H2 3037   2.142   0.253   4.340
 1032TIP3   OH2 3038   1.064   0.902   5.487
 1032TIP3    H1 3039   0.992   0.943   5.439
 1032TIP3    H2 3040   1.110   0.975   5.528
 1033TIP3   OH2 3041   5.358   2.054   5.963
 1033TIP3    H1 3042   5.274   2.018   5.992
 1033TIP3    H2 3043   5.402   1.981   5.921
 1034TIP3   OH2 3044   6.283   0.762   5.723
 1034TIP3    H1 3045   6.321   0.685   5.765
 1034TIP3    H2 3046   6.306   0.835   5.780
 1035TIP3   OH2 3047   1.432   5.927   0.739
 1035TIP3    H1 3048   1.508   5.900   0.687
 1035TIP3    H2 3049   1.373   5.852   0.735
 1036TIP3   OH2 3050   2.534   5.919   5.410
 1036TIP3    H1 3051   2.609   5.886   5.360
 1036TIP3    H2 3052   2.460   5.868   5.378
 1037TIP3   OH2 3053   5.683   4.203   4.986
 1037TIP3    H1 3054   5.598   4.164   5.009
 1037TIP3    H2 3055   5.662   4.292   4.959
 1038TIP3   OH2 3056   0.585   3.754   0.134
 1038TIP3    H1 3057   0.633   3.736   0.053
 1038TIP3    H2 3058   0.536   3.673   0.151
 1039TIP3   OH2 3059   7.387   7.273   2.872
 1039TIP3    H1 3060   7.309   7.239   2.830
 1039TIP3    H2 3061   7.423   7.336   2.810
 1040TIP3   OH2 3062   8.265   3.543   5.107
 1040TIP3    H1 3063   8.255   3.485   5.182
 1040TIP3    H2 3064   8.298   3.486   5.037
 1041TIP3   OH2 3065   5.142   1.653   1.213
 1041TIP3    H1 3066   5.164   1.685   1.125
 1041TIP3    H2 3067   5.136   1.732   1.266
 1042TIP3   OH2 3068   3.340   3.155   0.608
 1042TIP3    H1 3069   3.368   3.243   0.583
 1042TIP3    H2 3070   3.320   3.162   0.701
 1043TIP3   OH2 3071   3.499   4.763   6.002
 1043TIP3    H1 3072   3.410   4.747   5.970
 1043TIP3    H2 3073   3.554   4.709   5.945
 1044TIP3   OH2 3074   6.470   6.206   4.179
 1044TIP3    H1 3075   6.501   6.224   4.268
 1044TIP3    H2 3076   6.378   6.184   4.189
 1045TIP3   OH2 3077   5.411   5.156   0.192
 1045TIP3    H1 3078   5.470   5.151   0.118
 1045TIP3    H2 3079   5.468   5.154   0.269
 1046TIP3   OH2 3080   4.809   4.438   1.656
 1046TIP3    H1 3081   4.857   4.370   1.703
 1046TIP3    H2 3082   4.748   4.391   1.600
 1047TIP3   OH2 3083   6.233   2.636   0.188
 1047TIP3    H1 3084   6.255   2.692   0.113
 1047TIP3    H2 3085   6.277   2.553   0.170
 1048TIP3   OH2 3086   7.696   0.181   0.065
 1048TIP3    H1 3087   7.696   0.098   0.017
 1048TIP3    H2 3088   7.789   0.204   0.073
 1049TIP3   OH2 3089   3.391   2.193   2.835
 1049TIP3    H1 3090   3.395   2.261   2.768
 1049TIP3    H2 3091   3.348   2.235   2.909
 1050TIP3   OH2 3092   5.395   2.107   3.793
 1050TIP3    H1 3093   5.482   2.131   3.759
 1050TIP3    H2 3094   5.404   2.118   3.888
 1051TIP3   OH2 3095   3.462   1.220   4.899
 1051TIP3    H1 3096   3.505   1.251   4.978
 1051TIP3    H2 3097   3.398   1.155   4.929
 1052TIP3   OH2 3098   0.702   7.671   2.933
 1052TIP3    H1 3099   0.732   7.762   2.934
 1052TIP3    H2 3100   0.630   7.668   2.995
 1053TIP3   OH2 3101   7.497   2.414   0.214
 1053TIP3    H1 3102   7.425   2.468   0.183
 1053TIP3    H2 3103   7.503   2.433   0.307
 1054TIP3   OH2 3104   2.118   5.799   0.283
 1054TIP3    H1 3105   2.088   5.802   0.192
 1054TIP3    H2 3106   2.185   5.867   0.289
 1055TIP3   OH2 3107   6.909   2.274   5.392
 1055TIP3    H1 3108   6.982   2.275   5.455
 1055TIP3    H2 3109   6.905   2.364   5.358
 1056TIP3   OH2 3110   1.391   4.044   3.619
 1056TIP3    H1 3111   1.483   4.030   3.640
 1056TIP3    H2 3112   1.369   4.126   3.663
 1057TIP3   OH2 3113   2.463   6.679   1.782
 1057TIP3    H1 3114   2.452   6.712   1.692
 1057TIP3    H2 3115   2.535   6.731   1.818
 1058TIP3   OH2 3116   7.415   1.384   0.977
 1058TIP3    H1 3117   7.322   1.405   0.989
 1058TIP3    H2 3118   7.419   1.289   0.986
 1059TIP3   OH2 3119   4.667   4.111   5.442
 1059TIP3    H1 3120   4.745   4.080   5.488
 1059TIP3    H2 3121   4.689   4.099   5.349
 1060TIP3   OH2 3122   0.070   4.060   3.092
 1060TIP3    H1 3123   0.055   4.094   3.004
 1060TIP3    H2 3124   0.030   4.124   3.150
 1061TIP3   OH2 3125   5.851   6.740   2.113
 1061TIP3    H1 3126   5.813   6.806   2.172
 1061TIP3    H2 3127   5.915   6.695   2.167
 1062TIP3   OH2 3128   3.692   5.360   5.458
 1062TIP3    H1 3129   3.689   5.418   5.382
 1062TIP3    H2 3130   3.600   5.348   5.483
 1063TIP3   OH2 3131   6.205   3.886   2.760
 1063TIP3    H1 3132   6.269   3.888   2.830
 1063TIP3    H2 3133   6.246   3.832   2.692
 1064TIP3   OH2 3134   1.157   0.497   3.143
 1064TIP3    H1 3135   1.177   0.590   3.127
 1064TIP3    H2 3136   1.112   0.496   3.227
 1065TIP3   OH2 3137   3.450   0.949   1.052
 1065TIP3    H1 3138   3.458   1.002   1.132
 1065TIP3    H2 3139   3.424   1.011   0.984
 1066TIP3   OH2 3140   8.013   1.981   1.303
 1066TIP3    H1 3141   8.006   1.898   1.349
 1066TIP3    H2 3142   7.943   1.978   1.238
 1067TIP3   OH2 3143   7.180   3.785   4.005
 1067TIP3    H1 3144   7.180   3.709   3.948
 1067TIP3    H2 3145   7.164   3.859   3.947
 1068TIP3   OH2 3146   5.349   1.432   0.513
 1068TIP3    H1 3147   5.291   1.368   0.472
 1068TIP3    H2 3148   5.430   1.385   0.528
 1069TIP3   OH2 3149   2.475   4.918   5.305
 1069TIP3    H1 3150   2.382   4.924   5.282
 1069TIP3    H2 3151   2.513   4.860   5.239
 1070TIP3   OH2 3152   6.161   6.805   5.935
 1070TIP3    H1 3153   6.086   6.855   5.904
 1070TIP3    H2 3154   6.163   6.727   5.880
 1071TIP3   OH2 3155   0.274   2.274   4.610
 1071TIP3    H1 3156   0.287   2.280   4.705
 1071TIP3    H2 3157   0.179   2.263   4.600
 1072TIP3   OH2 3158   3.541   3.084   0.973
 1072TIP3    H1 3159   3.543   3.011   1.035
 1072TIP3    H2 3160   3.629   3.122   0.977
 1073TIP3   OH2 3161   6.767   2.012   4.362
 1073TIP3    H1 3162   6.846   1.977   4.402
 1073TIP3    H2 3163   6.748   1.952   4.290
 1074TIP3   OH2 3164   7.419   2.283   6.074
 1074TIP3    H1 3165   7.455   2.266   6.161
 1074TIP3    H2 3166   7.475   2.352   6.038
 1075TIP3   OH2 3167   3.725   0.790   2.569
 1075TIP3    H1 3168   3.816   0.762   2.580
 1075TIP3    H2 3169   3.714   0.799   2.475
 1076TIP3   OH2 3170   0.846   7.111   0.157
 1076TIP3    H1 3171   0.865   7.169   0.230
 1076TIP3    H2 3172   0.932   7.086   0.123
 1077TIP3   OH2 3173   7.323   4.527   4.809
 1077TIP3    H1 3174   7.250   4.473   4.778
 1077TIP3    H2 3175   7.339   4.496   4.898
 1078TIP3   OH2 3176   4.364   4.433   1.721
 1078TIP3    H1 3177   4.361   4.522   1.754
 1078TIP3    H2 3178   4.308   4.433   1.643
 1079TIP3   OH2 3179   3.115   7.344   2.624
 1079TIP3    H1 3180   3.078   7.258   2.645
 1079TIP3    H2 3181   3.208   7.335   2.643
 1080TIP3   OH2 3182   6.885   0.256   6.640
 1080TIP3    H1 3183   6.794   0.237   6.664
 1080TIP3    H2 3184   6.918   0.172   6.608
 1081TIP3   OH2 3185   6.607   2.498   3.098
 1081TIP3    H1 3186   6.558   2.552   3.160
 1081TIP3    H2 3187   6.540   2.448   3.051
 1082TIP3   OH2 3188   6.996   6.437   5.802
 1082TIP3    H1 3189   7.052   6.477   5.735
 1082TIP3    H2 3190   7.007   6.493   5.879
 1083TIP3   OH2 3191   4.189   3.341   6.170
 1083TIP3    H1 3192   4.101   3.379   6.177
 1083TIP3    H2 3193   4.210   3.313   6.259
 1084TIP3   OH2 3194   4.506  -0.024   1.819
 1084TIP3    H1 3195   4.598  -0.003   1.805
 1084TIP3    H2 3196   4.462   0.062   1.818
 1085TIP3   OH2 3197   6.047   3.891   3.513
 1085TIP3    H1 3198   6.028   3.798   3.515
 1085TIP3    H2 3199   6.139   3.897   3.487
 1086TIP3   OH2 3200   7.203   5.492   2.580
 1086TIP3    H1 3201   7.181   5.544   2.503
 1086TIP3    H2 3202   7.211   5.556   2.651
 1087TIP3   OH2 3203   5.276   5.093   0.705
 1087TIP3    H1 3204   5.286   5.187   0.692
 1087TIP3    H2 3205   5.226   5.063   0.628
 1088TIP3   OH2 3206   5.078   1.819   0.046
 1088TIP3    H1 3207   5.091   1.876  -0.030
 1088TIP3    H2 3208   5.151   1.757   0.044
 1089TIP3   OH2 3209   3.598   4.681   3.601
 1089TIP3    H1 3210   3.684   4.643   3.621
 1089TIP3    H2 3211   3.614   4.735   3.523
 1090TIP3   OH2 3212   0.138   5.318   1.057
 1090TIP3    H1 3213   0.124   5.380   1.129
 1090TIP3    H2 3214   0.056   5.321   1.008
 1091TIP3   OH2 3215   3.625   3.178   0.668
 1091TIP3    H1 3216   3.568   3.147   0.598
 1091TIP3    H2 3217   3.600   3.125   0.744
 1092TIP3   OH2 3218   6.734   6.140   2.338
 1092TIP3    H1 3219   6.783   6.086   2.275
 1092TIP3    H2 3220   6.690   6.205   2.284
 1093TIP3   OH2 3221   2.304   1.129   1.842
 1093TIP3    H1 3222   2.374   1.114   1.779
 1093TIP3    H2 3223   2.306   1.052   1.899
 1094TIP3   OH2 3224   8.168   4.370   5.190
 1094TIP3    H1 3225   8.214   4.293   5.225
 1094TIP3    H2 3226   8.078   4.360   5.220
 1095TIP3   OH2 3227   7.609   3.364   2.452
 1095TIP3    H1 3228   7.573   3.279   2.476
 1095TIP3    H2 3229   7.556   3.392   2.377
 1096TIP3   OH2 3230   6.413   6.510   5.377
 1096TIP3    H1 3231   6.324   6.532   5.349
 1096TIP3    H2 3232   6.428   6.422   5.344
 1097TIP3   OH2 3233   6.912   4.889   1.755
 1097TIP3    H1 3234   6.900   4.840   1.673
 1097TIP3    H2 3235   6.854   4.845   1.817
 1098TIP3   OH2 3236   7.349   4.344   5.376
 1098TIP3    H1 3237   7.267   4.326   5.331
 1098TIP3    H2 3238   7.393   4.259   5.382
 1099TIP3   OH2 3239   7.000   3.338   2.700
 1099TIP3    H1 3240   7.026   3.258   2.747
 1099TIP3    H2 3241   6.925   3.372   2.750
 1100TIP3   OH2 3242   4.124   6.931   5.078
 1100TIP3    H1 3243   4.043   6.946   5.029
 1100TIP3    H2 3244   4.109   6.848   5.123
 1101TIP3   OH2 3245   6.652   0.354   1.024
 1101TIP3    H1 3246   6.740   0.374   1.055
 1101TIP3    H2 3247   6.597   0.423   1.061
 1102TIP3   OH2 3248   0.740   1.073   1.189
 1102TIP3    H1 3249   0.659   1.082   1.240
 1102TIP3    H2 3250   0.717   1.014   1.117
 1103TIP3   OH2 3251   0.635   1.139   0.795
 1103TIP3    H1 3252   0.581   1.217   0.808
 1103TIP3    H2 3253   0.691   1.161   0.720
 1104TIP3   OH2 3254   0.902   7.259   4.034
 1104TIP3    H1 3255   0.904   7.236   4.127
 1104TIP3    H2 3256   0.827   7.211   3.999
 1105TIP3   OH2 3257   3.100   2.486   0.326
 1105TIP3    H1 3258   3.135   2.462   0.412
 1105TIP3    H2 3259   3.066   2.575   0.338
 1106TIP3   OH2 3260   5.168   4.693   5.911
 1106TIP3    H1 3261   5.216   4.611   5.895
 1106TIP3    H2 3262   5.086   4.664   5.952
 1107TIP3   OH2 3263   6.682   4.127   4.930
 1107TIP3    H1 3264   6.595   4.123   4.892
 1107TIP3    H2 3265   6.718   4.039   4.918
 1108TIP3   OH2 3266   7.096   7.233   3.527
 1108TIP3    H1 3267   7.017   7.242   3.475
 1108TIP3    H2 3268   7.069   7.180   3.602
 1109TIP3   OH2 3269   8.169   2.466   5.437
 1109TIP3    H1 3270   8.142   2.555   5.462
 1109TIP3    H2 3271   8.265   2.469   5.442
 1110TIP3   OH2 3272   5.115   1.541   2.660
 1110TIP3    H1 3273   5.146   1.498   2.580
 1110TIP3    H2 3274   5.039   1.491   2.687
 1111TIP3   OH2 3275   6.199   2.644   1.107
 1111TIP3    H1 3276   6.261   2.694   1.159
 1111TIP3    H2 3277   6.224   2.552   1.120
 1112TIP3   OH2 3278   4.816   7.797   4.728
 1112TIP3    H1 3279   4.804   7.841   4.644
 1112TIP3    H2 3280   4.728   7.773   4.756
 1113TIP3   OH2 3281   4.462   0.009   4.107
 1113TIP3    H1 3282   4.467   0.105   4.108
 1113TIP3    H2 3283   4.549  -0.019   4.081
 1114TIP3   OH2 3284   2.598   4.510   4.651
 1114TIP3    H1 3285   2.545   4.566   4.708
 1114TIP3    H2 3286   2.609   4.560   4.571
 1115TIP3   OH2 3287   4.823   2.691   3.458
 1115TIP3    H1 3288   4.769   2.622   3.419
 1115TIP3    H2 3289   4.772   2.723   3.532
 1116TIP3   OH2 3290   6.001   3.626   6.550
 1116TIP3    H1 3291   5.957   3.576   6.482
 1116TIP3    H2 3292   5.968   3.716   6.539
 1117TIP3   OH2 3293   8.251   7.384   6.335
 1117TIP3    H1 3294   8.315   7.379   6.264
 1117TIP3    H2 3295   8.186   7.317   6.314
 1118TIP3   OH2 3296   6.204   7.383   4.699
 1118TIP3    H1 3297   6.116   7.390   4.737
 1118TIP3    H2 3298   6.228   7.473   4.677
 1119TIP3   OH2 3299   5.055   5.929   0.165
 1119TIP3    H1 3300   4.976   5.983   0.155
 1119TIP3    H2 3301   5.054   5.903   0.257
 1120TIP3   OH2 3302   0.220   7.254   0.064
 1120TIP3    H1 3303   0.315   7.249   0.058
 1120TIP3    H2 3304   0.194   7.323   0.003
 1121TIP3   OH2 3305   5.862   5.228   2.946
 1121TIP3    H1 3306   5.806   5.247   3.021
 1121TIP3    H2 3307   5.804   5.190   2.881
 1122TIP3   OH2 3308   0.681   4.075   5.929
 1122TIP3    H1 3309   0.737   4.052   6.003
 1122TIP3    H2 3310   0.734   4.133   5.874
 1123TIP3   OH2 3311   8.047   5.845   5.395
 1123TIP3    H1 3312   8.103   5.921   5.378
 1123TIP3    H2 3313   8.106   5.781   5.434
 1124TIP3   OH2 3314   7.995   7.512   3.404
 1124TIP3    H1 3315   7.949   7.430   3.383
 1124TIP3    H2 3316   7.965   7.574   3.337
 1125TIP3   OH2 3317   5.619   0.991   2.090
 1125TIP3    H1 3318   5.692   0.999   2.152
 1125TIP3    H2 3319   5.634   1.061   2.026
 1126TIP3   OH2 3320   3.874   3.144   4.491
 1126TIP3    H1 3321   3.908   3.055   4.497
 1126TIP3    H2 3322   3.919   3.192   4.561
 1127TIP3   OH2 3323   2.330   2.268   5.995
 1127TIP3    H1 3324   2.362   2.353   6.026
 1127TIP3    H2 3325   2.314   2.218   6.075
 1128TIP3   OH2 3326   0.191   3.043   6.087
 1128TIP3    H1 3327   0.164   3.135   6.092
 1128TIP3    H2 3328   0.156   3.003   6.167
 1129TIP3   OH2 3329   5.603   1.462   6.546
 1129TIP3    H1 3330   5.617   1.389   6.606
 1129TIP3    H2 3331   5.612   1.540   6.601
 1130TIP3   OH2 3332   2.881   5.550   2.759
 1130TIP3    H1 3333   2.936   5.593   2.694
 1130TIP3    H2 3334   2.869   5.616   2.828
 1131TIP3   OH2 3335   3.517   0.128   6.113
 1131TIP3    H1 3336   3.591   0.132   6.052
 1131TIP3    H2 3337   3.537   0.196   6.178
 1132TIP3   OH2 3338   5.626   7.131   6.068
 1132TIP3    H1 3339   5.630   7.084   6.152
 1132TIP3    H2 3340   5.560   7.199   6.081
 1133TIP3   OH2 3341   2.096   4.106   3.295
 1133TIP3    H1 3342   2.119   4.033   3.238
 1133TIP3    H2 3343   2.176   4.157   3.304
 1134TIP3   OH2 3344   0.573   0.390   4.371
 1134TIP3    H1 3345   0.614   0.329   4.432
 1134TIP3    H2 3346   0.588   0.476   4.409
 1135TIP3   OH2 3347   8.255   2.071   5.823
 1135TIP3    H1 3348   8.282   2.160   5.845
 1135TIP3    H2 3349   8.337   2.024   5.810
 1136TIP3   OH2 3350   0.724   4.041   3.318
 1136TIP3    H1 3351   0.792   4.107   3.332
 1136TIP3    H2 3352   0.652   4.069   3.375
 1137TIP3   OH2 3353   4.111   3.095   1.533
 1137TIP3    H1 3354   4.161   3.051   1.602
 1137TIP3    H2 3355   4.030   3.045   1.527
 1138TIP3   OH2 3356   7.678   1.892   2.739
 1138TIP3    H1 3357   7.611   1.824   2.746
 1138TIP3    H2 3358   7.683   1.931   2.826
 1139TIP3   OH2 3359   2.888   4.051   6.339
 1139TIP3    H1 3360   2.806   4.100   6.338
 1139TIP3    H2 3361   2.946   4.100   6.281
 1140TIP3   OH2 3362   7.149   2.465   1.540
 1140TIP3    H1 3363   7.114   2.553   1.535
 1140TIP3    H2 3364   7.233   2.469   1.494
 1141TIP3   OH2 3365   2.461   4.047   5.446
 1141TIP3    H1 3366   2.383   4.067   5.394
 1141TIP3    H2 3367   2.447   3.957   5.476
 1142TIP3   OH2 3368   3.012   0.813   0.374
 1142TIP3    H1 3369   3.018   0.808   0.278
 1142TIP3    H2 3370   2.955   0.888   0.390
 1143TIP3   OH2 3371   7.922   0.279   4.015
 1143TIP3    H1 3372   7.970   0.254   3.936
 1143TIP3    H2 3373   7.852   0.337   3.983
 1144TIP3   OH2 3374   7.992   0.456   4.483
 1144TIP3    H1 3375   7.940   0.458   4.563
 1144TIP3    H2 3376   8.071   0.506   4.504
 1145TIP3   OH2 3377   8.172   2.951   1.917
 1145TIP3    H1 3378   8.212   2.864   1.909
 1145TIP3    H2 3379   8.082   2.933   1.942
 1146TIP3   OH2 3380   1.718   6.540   0.451
 1146TIP3    H1 3381   1.793   6.525   0.394
 1146TIP3    H2 3382   1.756   6.572   0.533
 1147TIP3   OH2 3383   7.321   1.992   0.263
 1147TIP3    H1 3384   7.301   1.957   0.176
 1147TIP3    H2 3385   7.239   2.032   0.291
 1148TIP3   OH2 3386   2.624   4.389   3.341
 1148TIP3    H1 3387   2.580   4.378   3.257
 1148TIP3    H2 3388   2.703   4.334   3.335
 1149TIP3   OH2 3389   0.477   6.643   3.583
 1149TIP3    H1 3390   0.426   6.722   3.603
 1149TIP3    H2 3391   0.411   6.578   3.561
 1150TIP3   OH2 3392   4.064   4.571   1.831
 1150TIP3    H1 3393   4.076   4.503   1.897
 1150TIP3    H2 3394   4.024   4.644   1.878
 1151TIP3   OH2 3395   1.311   3.654   6.719
 1151TIP3    H1 3396   1.224   3.692   6.707
 1151TIP3    H2 3397   1.296   3.560   6.724
 1152TIP3   OH2 3398   6.817   4.557   0.267
 1152TIP3    H1 3399   6.789   4.633   0.319
 1152TIP3    H2 3400   6.902   4.533   0.304
 1153TIP3   OH2 3401   4.008   2.193   6.359
 1153TIP3    H1 3402   3.981   2.117   6.308
 1153TIP3    H2 3403   3.998   2.267   6.299
 1154TIP3   OH2 3404   3.054   1.422   3.807
 1154TIP3    H1 3405   3.124   1.424   3.742
 1154TIP3    H2 3406   3.008   1.340   3.791
 1155TIP3   OH2 3407   7.726   3.160   1.595
 1155TIP3    H1 3408   7.747   3.181   1.504
 1155TIP3    H2 3409   7.668   3.085   1.590
 1156TIP3   OH2 3410   5.307   5.302   0.446
 1156TIP3    H1 3411   5.280   5.211   0.442
 1156TIP3    H2 3412   5.391   5.300   0.491
 1157TIP3   OH2 3413   0.263   6.195   6.159
 1157TIP3    H1 3414   0.252   6.213   6.252
 1157TIP3    H2 3415   0.205   6.121   6.141
 1158TIP3   OH2 3416   4.550   1.259  -0.010
 1158TIP3    H1 3417   4.557   1.167   0.015
 1158TIP3    H2 3418   4.485   1.261  -0.081
 1159TIP3   OH2 3419   0.207   7.533   5.035
 1159TIP3    H1 3420   0.143   7.497   4.973
 1159TIP3    H2 3421   0.212   7.626   5.013
 1160TIP3   OH2 3422   5.749   0.690   1.391
 1160TIP3    H1 3423   5.831   0.718   1.433
 1160TIP3    H2 3424   5.697   0.655   1.462
 1161TIP3   OH2 3425   0.700   0.675   4.783
 1161TIP3    H1 3426   0.616   0.688   4.739
 1161TIP3    H2 3427   0.709   0.749   4.842
 1162TIP3   OH2 3428   7.202   7.821   4.550
 1162TIP3    H1 3429   7.167   7.790   4.467
 1162TIP3    H2 3430   7.125   7.832   4.606
 1163TIP3   OH2 3431   2.653   0.175   2.637
 1163TIP3    H1 3432   2.693   0.100   2.594
 1163TIP3    H2 3433   2.676   0.165   2.730
 1164TIP3   OH2 3434   3.897   7.091   1.838
 1164TIP3    H1 3435   3.863   7.023   1.895
 1164TIP3    H2 3436   3.992   7.086   1.846
 1165TIP3   OH2 3437   3.202   0.945   5.185
 1165TIP3    H1 3438   3.295   0.962   5.173
 1165TIP3    H2 3439   3.185   0.966   5.276
 1166TIP3   OH2 3440   5.266   4.749   1.106
 1166TIP3    H1 3441   5.241   4.663   1.073
 1166TIP3    H2 3442   5.293   4.734   1.197
 1167TIP3   OH2 3443   3.966   0.959   5.265
 1167TIP3    H1 3444   4.004   1.019   5.330
 1167TIP3    H2 3445   3.984   1.001   5.181
 1168TIP3   OH2 3446   2.856   2.980   6.350
 1168TIP3    H1 3447   2.859   2.907   6.288
 1168TIP3    H2 3448   2.779   2.962   6.403
 1169TIP3   OH2 3449   5.687   1.320   5.424
 1169TIP3    H1 3450   5.690   1.251   5.490
 1169TIP3    H2 3451   5.764   1.374   5.443
 1170TIP3   OH2 3452   7.329   2.302   5.263
 1170TIP3    H1 3453   7.307   2.215   5.297
 1170TIP3    H2 3454   7.245   2.337   5.234
 1171TIP3   OH2 3455   5.625   1.259   2.893
 1171TIP3    H1 3456   5.687   1.186   2.898
 1171TIP3    H2 3457   5.609   1.284   2.984
 1172TIP3   OH2 3458   6.402   4.849   0.676
 1172TIP3    H1 3459   6.321   4.897   0.694
 1172TIP3    H2 3460   6.460   4.873   0.748
 1173TIP3   OH2 3461   6.170   5.456   1.241
 1173TIP3    H1 3462   6.203   5.468   1.152
 1173TIP3    H2 3463   6.137   5.366   1.242
 1174TIP3   OH2 3464   6.099   1.190   2.256
 1174TIP3    H1 3465   6.043   1.138   2.314
 1174TIP3    H2 3466   6.070   1.280   2.269
 1175TIP3   OH2 3467   6.182   5.194   3.126
 1175TIP3    H1 3468   6.162   5.171   3.035
 1175TIP3    H2 3469   6.164   5.288   3.131
 1176TIP3   OH2 3470   2.351   3.192   5.972
 1176TIP3    H1 3471   2.304   3.149   6.043
 1176TIP3    H2 3472   2.286   3.251   5.932
 1177TIP3   OH2 3473   5.539   0.378   5.275
 1177TIP3    H1 3474   5.475   0.312   5.303
 1177TIP3    H2 3475   5.611   0.327   5.238
 1178TIP3   OH2 3476   0.210   7.024   3.272
 1178TIP3    H1 3477   0.238   7.066   3.191
 1178TIP3    H2 3478   0.168   6.942   3.244
 1179TIP3   OH2 3479   4.538   3.662   4.786
 1179TIP3    H1 3480   4.589   3.617   4.719
 1179TIP3    H2 3481   4.562   3.755   4.776
 1180TIP3   OH2 3482   1.332   3.116   5.353
 1180TIP3    H1 3483   1.341   3.151   5.264
 1180TIP3    H2 3484   1.371   3.184   5.409
 1181TIP3   OH2 3485   7.700   4.895   1.939
 1181TIP3    H1 3486   7.660   4.881   1.853
 1181TIP3    H2 3487   7.633   4.868   2.001
 1182TIP3   OH2 3488   1.063   3.685   2.643
 1182TIP3    H1 3489   0.986   3.737   2.622
 1182TIP3    H2 3490   1.029   3.601   2.671
 1183TIP3   OH2 3491   8.075   1.083   5.703
 1183TIP3    H1 3492   8.143   1.066   5.769
 1183TIP3    H2 3493   7.994   1.091   5.754
 1184TIP3   OH2 3494   1.624   5.338   6.011
 1184TIP3    H1 3495   1.607   5.372   6.099
 1184TIP3    H2 3496   1.719   5.341   6.002
 1185TIP3   OH2 3497   7.301   0.803   5.304
 1185TIP3    H1 3498   7.257   0.887   5.310
 1185TIP3    H2 3499   7.393   0.823   5.323
 1186TIP3   OH2 3500   3.030   0.371   0.720
 1186TIP3    H1 3501   3.037   0.421   0.639
 1186TIP3    H2 3502   2.946   0.398   0.758
 1187TIP3   OH2 3503   6.859   2.807   1.887
 1187TIP3    H1 3504   6.828   2.778   1.801
 1187TIP3    H2 3505   6.886   2.898   1.873
 1188TIP3   OH2 3506   2.313   3.813   2.632
 1188TIP3    H1 3507   2.245   3.868   2.594
 1188TIP3    H2 3508   2.268   3.733   2.659
 1189TIP3   OH2 3509   6.757   3.289   0.830
 1189TIP3    H1 3510   6.760   3.207   0.781
 1189TIP3    H2 3511   6.732   3.263   0.919
 1190TIP3   OH2 3512   1.691   2.145   1.049
 1190TIP3    H1 3513   1.629   2.079   1.015
 1190TIP3    H2 3514   1.755   2.156   0.978
 1191TIP3   OH2 3515   3.521   1.025   2.606
 1191TIP3    H1 3516   3.610   0.988   2.612
 1191TIP3    H2 3517   3.531   1.100   2.547
 1192TIP3   OH2 3518   4.121   1.831   6.209
 1192TIP3    H1 3519   4.121   1.791   6.296
 1192TIP3    H2 3520   4.095   1.922   6.225
 1193TIP3   OH2 3521   2.491   4.423   3.109
 1193TIP3    H1 3522   2.444   4.507   3.103
 1193TIP3    H2 3523   2.470   4.379   3.026
 1194TIP3   OH2 3524   8.188   3.051   5.303
 1194TIP3    H1 3525   8.116   2.988   5.293
 1194TIP3    H2 3526   8.204   3.053   5.398
 1195TIP3   OH2 3527   1.902   4.320   4.050
 1195TIP3    H1 3528   1.875   4.408   4.077
 1195TIP3    H2 3529   1.904   4.323   3.954
 1196TIP3   OH2 3530   2.765   0.851   3.139
 1196TIP3    H1 3531   2.807   0.813   3.217
 1196TIP3    H2 3532   2.831   0.841   3.070
 1197TIP3   OH2 3533   4.659   0.938   6.053
 1197TIP3    H1 3534   4.744   0.897   6.036
 1197TIP3    H2 3535   4.668   1.027   6.017
 1198TIP3   OH2 3536   4.044   0.982   1.238
 1198TIP3    H1 3537   3.957   0.945   1.224
 1198TIP3    H2 3538   4.030   1.077   1.242
 1199TIP3   OH2 3539   5.006   1.157   2.494
 1199TIP3    H1 3540   5.002   1.136   2.587
 1199TIP3    H2 3541   5.076   1.222   2.487
 1200TIP3   OH2 3542   2.358   1.834   0.854
 1200TIP3    H1 3543   2.428   1.860   0.793
 1200TIP3    H2 3544   2.404   1.816   0.936
 1201TIP3   OH2 3545   4.796   2.048   4.893
 1201TIP3    H1 3546   4.780   2.111   4.823
 1201TIP3    H2 3547   4.891   2.044   4.901
 1202TIP3   OH2 3548   2.750   3.706   5.392
 1202TIP3    H1 3549   2.770   3.692   5.484
 1202TIP3    H2 3550   2.688   3.779   5.391
 1203TIP3   OH2 3551   4.160   1.752   0.577
 1203TIP3    H1 3552   4.075   1.720   0.606
 1203TIP3    H2 3553   4.140   1.817   0.509
 1204TIP3   OH2 3554   5.230   5.293   5.607
 1204TIP3    H1 3555   5.149   5.261   5.646
 1204TIP3    H2 3556   5.299   5.260   5.664
 1205TIP3   OH2 3557   1.561   7.631   4.765
 1205TIP3    H1 3558   1.606   7.577   4.830
 1205TIP3    H2 3559   1.478   7.585   4.750
 1206TIP3   OH2 3560   4.098   0.341   5.327
 1206TIP3    H1 3561   4.111   0.406   5.259
 1206TIP3    H2 3562   4.004   0.335   5.338
 1207TIP3   OH2 3563   8.265   3.974   6.086
 1207TIP3    H1 3564   8.242   4.044   6.024
 1207TIP3    H2 3565   8.295   3.902   6.031
 1208TIP3   OH2 3566   8.023   4.164   2.366
 1208TIP3    H1 3567   8.049   4.254   2.343
 1208TIP3    H2 3568   7.927   4.166   2.365
 1209TIP3   OH2 3569   3.955   6.104   2.470
 1209TIP3    H1 3570   3.910   6.097   2.386
 1209TIP3    H2 3571   4.037   6.055   2.457
 1210TIP3   OH2 3572   5.039   6.556   3.225
 1210TIP3    H1 3573   4.970   6.616   3.198
 1210TIP3    H2 3574   5.067   6.587   3.311
 1211TIP3   OH2 3575   2.718   3.234   5.432
 1211TIP3    H1 3576   2.725   3.308   5.372
 1211TIP3    H2 3577   2.715   3.274   5.519
 1212TIP3   OH2 3578   1.813   5.166   2.252
 1212TIP3    H1 3579   1.744   5.106   2.224
 1212TIP3    H2 3580   1.884   5.151   2.190
 1213TIP3   OH2 3581   3.760   7.308   1.963
 1213TIP3    H1 3582   3.814   7.248   1.911
 1213TIP3    H2 3583   3.786   7.395   1.932
 1214TIP3   OH2 3584   0.108   7.148   4.161
 1214TIP3    H1 3585   0.120   7.101   4.079
 1214TIP3    H2 3586   0.159   7.228   4.151
 1215TIP3   OH2 3587   6.635   7.405   6.705
 1215TIP3    H1 3588   6.619   7.323   6.660
 1215TIP3    H2 3589   6.577   7.403   6.781
 1216TIP3   OH2 3590   2.453   3.715   2.200
 1216TIP3    H1 3591   2.421   3.756   2.280
 1216TIP3    H2 3592   2.454   3.621   2.220
 1217TIP3   OH2 3593   0.340   3.809   2.483
 1217TIP3    H1 3594   0.426   3.795   2.522
 1217TIP3    H2 3595   0.278   3.794   2.554
 1218TIP3   OH2 3596   5.877   1.748   1.918
 1218TIP3    H1 3597   5.805   1.811   1.905
 1218TIP3    H2 3598   5.838   1.663   1.897
 1219TIP3   OH2 3599   2.373   4.694   6.426
 1219TIP3    H1 3600   2.438   4.762   6.408
 1219TIP3    H2 3601   2.358   4.699   6.521
 1220TIP3   OH2 3602   6.399   5.167   2.189
 1220TIP3    H1 3603   6.459   5.230   2.149
 1220TIP3    H2 3604   6.393   5.195   2.281
 1221TIP3   OH2 3605   6.188   6.475   6.138
 1221TIP3    H1 3606   6.110   6.441   6.181
 1221TIP3    H2 3607   6.161   6.491   6.047
 1222TIP3   OH2 3608   1.369   6.293   6.474
 1222TIP3    H1 3609   1.402   6.248   6.396
 1222TIP3    H2 3610   1.326   6.372   6.440
 1223TIP3   OH2 3611   0.472   4.716   4.784
 1223TIP3    H1 3612   0.389   4.708   4.736
 1223TIP3    H2 3613   0.454   4.780   4.852
 1224TIP3   OH2 3614   6.178   6.722   4.533
 1224TIP3    H1 3615   6.240   6.704   4.603
 1224TIP3    H2 3616   6.226   6.778   4.472
 1225TIP3   OH2 3617   2.934   2.102   1.053
 1225TIP3    H1 3618   2.847   2.065   1.039
 1225TIP3    H2 3619   2.984   2.077   0.975
 1226TIP3   OH2 3620   3.168   5.642   3.571
 1226TIP3    H1 3621   3.106   5.613   3.503
 1226TIP3    H2 3622   3.197   5.728   3.541
 1227TIP3   OH2 3623   7.572   7.276   1.822
 1227TIP3    H1 3624   7.614   7.324   1.893
 1227TIP3    H2 3625   7.645   7.231   1.778
 1228TIP3   OH2 3626   7.487   2.059   2.186
 1228TIP3    H1 3627   7.490   2.110   2.105
 1228TIP3    H2 3628   7.414   2.098   2.235
 1229TIP3   OH2 3629   5.889   3.161   4.855
 1229TIP3    H1 3630   5.941   3.161   4.775
 1229TIP3    H2 3631   5.888   3.252   4.883
 1230TIP3   OH2 3632   7.341   6.089   1.130
 1230TIP3    H1 3633   7.269   6.134   1.085
 1230TIP3    H2 3634   7.315   5.997   1.131
 1231TIP3   OH2 3635   7.566   2.906   1.804
 1231TIP3    H1 3636   7.470   2.914   1.801
 1231TIP3    H2 3637   7.587   2.853   1.727
 1232TIP3   OH2 3638   7.699   1.537   6.778
 1232TIP3    H1 3639   7.742   1.502   6.856
 1232TIP3    H2 3640   7.763   1.596   6.740
 1233TIP3   OH2 3641   0.193   2.501   2.760
 1233TIP3    H1 3642   0.122   2.565   2.770
 1233TIP3    H2 3643   0.221   2.484   2.850
 1234TIP3   OH2 3644   3.817   4.287   1.915
 1234TIP3    H1 3645   3.840   4.247   1.998
 1234TIP3    H2 3646   3.799   4.379   1.937
 1235TIP3   OH2 3647   5.072   4.401   0.471
 1235TIP3    H1 3648   5.058   4.357   0.387
 1235TIP3    H2 3649   5.128   4.342   0.520
 1236TIP3   OH2 3650   0.488   6.139   0.885
 1236TIP3    H1 3651   0.444   6.101   0.808
 1236TIP3    H2 3652   0.418   6.180   0.935
 1237TIP3   OH2 3653   0.120   1.499   6.445
 1237TIP3    H1 3654   0.082   1.586   6.455
 1237TIP3    H2 3655   0.049   1.445   6.410
 1238TIP3   OH2 3656   1.686   6.266   1.101
 1238TIP3    H1 3657   1.591   6.255   1.112
 1238TIP3    H2 3658   1.721   6.264   1.190
 1239TIP3   OH2 3659   0.072   3.248   4.459
 1239TIP3    H1 3660   0.116   3.222   4.378
 1239TIP3    H2 3661   0.126   3.320   4.493
 1240TIP3   OH2 3662   3.065   7.392   0.072
 1240TIP3    H1 3663   2.996   7.435   0.122
 1240TIP3    H2 3664   3.021   7.364  -0.009
 1241TIP3   OH2 3665   1.162   5.967   1.173
 1241TIP3    H1 3666   1.150   6.021   1.251
 1241TIP3    H2 3667   1.086   5.986   1.119
 1242TIP3   OH2 3668   8.134   0.022   0.840
 1242TIP3    H1 3669   8.064   0.061   0.788
 1242TIP3    H2 3670   8.089  -0.040   0.898
 1243TIP3   OH2 3671   2.325   2.075   0.430
 1243TIP3    H1 3672   2.321   2.037   0.342
 1243TIP3    H2 3673   2.413   2.111   0.437
 1244TIP3   OH2 3674   2.992   3.145   2.686
 1244TIP3    H1 3675   3.070   3.158   2.633
 1244TIP3    H2 3676   3.018   3.079   2.751
 1245TIP3   OH2 3677   3.988   5.022   4.950
 1245TIP3    H1 3678   3.920   5.017   5.017
 1245TIP3    H2 3679   3.960   4.959   4.883
 1246TIP3   OH2 3680   1.563   6.847   4.494
 1246TIP3    H1 3681   1.639   6.789   4.488
 1246TIP3    H2 3682   1.534   6.841   4.585
 1247TIP3   OH2 3683   3.893   6.454   6.410
 1247TIP3    H1 3684   3.856   6.419   6.491
 1247TIP3    H2 3685   3.941   6.381   6.372
 1248TIP3   OH2 3686   0.328   5.174   2.644
 1248TIP3    H1 3687   0.276   5.115   2.589
 1248TIP3    H2 3688   0.315   5.142   2.733
 1249TIP3   OH2 3689   5.335   3.565   6.450
 1249TIP3    H1 3690   5.287   3.485   6.469
 1249TIP3    H2 3691   5.425   3.545   6.477
 1250TIP3   OH2 3692   4.339   7.667   4.003
 1250TIP3    H1 3693   4.308   7.720   4.076
 1250TIP3    H2 3694   4.421   7.709   3.975
 1251TIP3   OH2 3695   7.317   3.411   1.275
 1251TIP3    H1 3696   7.245   3.458   1.233
 1251TIP3    H2 3697   7.301   3.319   1.253
 1252TIP3   OH2 3698   1.485   3.340   1.865
 1252TIP3    H1 3699   1.495   3.406   1.934
 1252TIP3    H2 3700   1.391   3.338   1.848
 1253TIP3   OH2 3701   6.396   5.510   6.561
 1253TIP3    H1 3702   6.349   5.526   6.643
 1253TIP3    H2 3703   6.327   5.483   6.499
 1254TIP3   OH2 3704   7.065   3.117   0.985
 1254TIP3    H1 3705   6.984   3.159   1.015
 1254TIP3    H2 3706   7.061   3.123   0.890
 1255TIP3   OH2 3707   3.557   4.619   5.123
 1255TIP3    H1 3708   3.596   4.542   5.082
 1255TIP3    H2 3709   3.600   4.624   5.209
 1256TIP3   OH2 3710   3.671   1.055   4.414
 1256TIP3    H1 3711   3.599   1.028   4.472
 1256TIP3    H2 3712   3.631   1.066   4.328
 1257TIP3   OH2 3713   5.264   3.689   2.854
 1257TIP3    H1 3714   5.206   3.703   2.779
 1257TIP3    H2 3715   5.250   3.766   2.910
 1258TIP3   OH2 3716   0.088   3.324   3.314
 1258TIP3    H1 3717   0.059   3.307   3.224
 1258TIP3    H2 3718   0.148   3.397   3.306
 1259TIP3   OH2 3719   3.559   4.870   6.562
 1259TIP3    H1 3720   3.597   4.837   6.481
 1259TIP3    H2 3721   3.612   4.832   6.632
 1260TIP3   OH2 3722   3.547   0.934   5.710
 1260TIP3    H1 3723   3.634   0.974   5.706
 1260TIP3    H2 3724   3.563   0.846   5.745
 1261TIP3   OH2 3725   5.844   0.447   0.884
 1261TIP3    H1 3726   5.784   0.379   0.857
 1261TIP3    H2 3727   5.906   0.403   0.942
 1262TIP3   OH2 3728   3.174   0.610   4.909
 1262TIP3    H1 3729   3.114   0.639   4.841
 1262TIP3    H2 3730   3.131   0.534   4.949
 1263TIP3   OH2 3731   5.588   0.435   1.203
 1263TIP3    H1 3732   5.513   0.445   1.145
 1263TIP3    H2 3733   5.550   0.410   1.287
 1264TIP3   OH2 3734   4.569   6.222   3.623
 1264TIP3    H1 3735   4.627   6.201   3.696
 1264TIP3    H2 3736   4.628   6.226   3.547
 1265TIP3   OH2 3737   7.262   0.827   2.612
 1265TIP3    H1 3738   7.357   0.833   2.617
 1265TIP3    H2 3739   7.231   0.858   2.697
 1266TIP3   OH2 3740   7.882   0.112   0.717
 1266TIP3    H1 3741   7.788   0.099   0.731
 1266TIP3    H2 3742   7.905   0.046   0.651
 1267TIP3   OH2 3743   5.459   3.684   6.204
 1267TIP3    H1 3744   5.405   3.746   6.254
 1267TIP3    H2 3745   5.491   3.622   6.270
 1268TIP3   OH2 3746   0.157   0.138   2.740
 1268TIP3    H1 3747   0.119   0.223   2.721
 1268TIP3    H2 3748   0.237   0.135   2.688
 1269TIP3   OH2 3749   0.744   4.170   4.865
 1269TIP3    H1 3750   0.748   4.242   4.801
 1269TIP3    H2 3751   0.676   4.196   4.927
 1270TIP3   OH2 3752   3.438   3.651   1.365
 1270TIP3    H1 3753   3.507   3.656   1.432
 1270TIP3    H2 3754   3.358   3.636   1.415
 1271TIP3   OH2 3755   0.527   7.117   4.528
 1271TIP3    H1 3756   0.455   7.148   4.473
 1271TIP3    H2 3757   0.597   7.180   4.515
 1272TIP3   OH2 3758   4.552   1.287   0.751
 1272TIP3    H1 3759   4.474   1.247   0.791
 1272TIP3    H2 3760   4.624   1.258   0.807
 1273TIP3   OH2 3761   0.286   4.216   5.696
 1273TIP3    H1 3762   0.319   4.277   5.630
 1273TIP3    H2 3763   0.353   4.216   5.764
 1274TIP3   OH2 3764   7.443   1.460   2.896
 1274TIP3    H1 3765   7.352   1.433   2.889
 1274TIP3    H2 3766   7.493   1.383   2.868
 1275TIP3   OH2 3767   4.977   7.627   4.866
 1275TIP3    H1 3768   4.892   7.671   4.867
 1275TIP3    H2 3769   5.030   7.674   4.930
 1276TIP3   OH2 3770   4.226   2.127   4.828
 1276TIP3    H1 3771   4.265   2.214   4.819
 1276TIP3    H2 3772   4.300   2.068   4.838
 1277TIP3   OH2 3773   7.929   3.615   5.661
 1277TIP3    H1 3774   7.973   3.617   5.576
 1277TIP3    H2 3775   7.995   3.645   5.724
 1278TIP3   OH2 3776   1.606   1.237   5.988
 1278TIP3    H1 3777   1.699   1.240   6.011
 1278TIP3    H2 3778   1.565   1.300   6.047
 1279TIP3   OH2 3779   8.313   2.262   4.593
 1279TIP3    H1 3780   8.233   2.312   4.577
 1279TIP3    H2 3781   8.283   2.180   4.633
 1280TIP3   OH2 3782   4.359   6.104   1.863
 1280TIP3    H1 3783   4.405   6.040   1.917
 1280TIP3    H2 3784   4.349   6.180   1.919
 1281TIP3   OH2 3785   1.274   6.364   3.942
 1281TIP3    H1 3786   1.186   6.387   3.910
 1281TIP3    H2 3787   1.312   6.313   3.871
 1282TIP3   OH2 3788   7.360   4.694   0.716
 1282TIP3    H1 3789   7.314   4.614   0.741
 1282TIP3    H2 3790   7.452   4.667   0.711
 1283TIP3   OH2 3791   0.612   5.314   2.989
 1283TIP3    H1 3792   0.658   5.354   3.063
 1283TIP3    H2 3793   0.681   5.293   2.927
 1284TIP3   OH2 3794   2.081   1.605   5.610
 1284TIP3    H1 3795   1.994   1.576   5.635
 1284TIP3    H2 3796   2.140   1.538   5.644
 1285TIP3   OH2 3797   5.679   2.348   4.581
 1285TIP3    H1 3798   5.709   2.389   4.500
 1285TIP3    H2 3799   5.698   2.412   4.649
 1286TIP3   OH2 3800   3.881   2.406   0.820
 1286TIP3    H1 3801   3.835   2.380   0.740
 1286TIP3    H2 3802   3.912   2.324   0.858
 1287TIP3   OH2 3803   5.119   6.791   0.048
 1287TIP3    H1 3804   5.135   6.837  -0.034
 1287TIP3    H2 3805   5.111   6.699   0.022
 1288TIP3   OH2 3806   3.086   6.715   4.464
 1288TIP3    H1 3807   3.116   6.795   4.422
 1288TIP3    H2 3808   3.108   6.645   4.403
 1289TIP3   OH2 3809   4.147   3.468   0.174
 1289TIP3    H1 3810   4.201   3.474   0.096
 1289TIP3    H2 3811   4.107   3.381   0.169
 1290TIP3   OH2 3812   2.844   6.521   0.280
 1290TIP3    H1 3813   2.800   6.594   0.323
 1290TIP3    H2 3814   2.833   6.447   0.340
 1291TIP3   OH2 3815   7.628   4.573   6.229
 1291TIP3    H1 3816   7.599   4.492   6.272
 1291TIP3    H2 3817   7.714   4.591   6.266
 1292TIP3   OH2 3818   6.474   1.877   0.188
 1292TIP3    H1 3819   6.412   1.943   0.158
 1292TIP3    H2 3820   6.551   1.928   0.214
 1293TIP3   OH2 3821   0.235   1.351   0.993
 1293TIP3    H1 3822   0.250   1.256   0.997
 1293TIP3    H2 3823   0.154   1.360   0.943
 1294TIP3   OH2 3824   7.239   2.471   4.258
 1294TIP3    H1 3825   7.187   2.406   4.306
 1294TIP3    H2 3826   7.330   2.445   4.272
 1295TIP3   OH2 3827   2.398   5.399   1.214
 1295TIP3    H1 3828   2.404   5.338   1.287
 1295TIP3    H2 3829   2.440   5.354   1.141
 1296TIP3   OH2 3830   2.568   7.061   2.153
 1296TIP3    H1 3831   2.643   7.121   2.156
 1296TIP3    H2 3832   2.498   7.107   2.200
 1297TIP3   OH2 3833   2.785   5.515   3.950
 1297TIP3    H1 3834   2.810   5.473   4.032
 1297TIP3    H2 3835   2.719   5.457   3.912
 1298TIP3   OH2 3836   1.927   2.278   4.475
 1298TIP3    H1 3837   1.968   2.286   4.561
 1298TIP3    H2 3838   1.995   2.240   4.420
 1299TIP3   OH2 3839   3.803   2.161   4.560
 1299TIP3    H1 3840   3.897   2.164   4.538
 1299TIP3    H2 3841   3.785   2.248   4.597
 1300TIP3   OH2 3842   7.575   5.695   0.876
 1300TIP3    H1 3843   7.584   5.682   0.971
 1300TIP3    H2 3844   7.491   5.740   0.866
 1301TIP3   OH2 3845   8.024   0.619   4.106
 1301TIP3    H1 3846   8.010   0.676   4.031
 1301TIP3    H2 3847   8.104   0.570   4.085
 1302TIP3   OH2 3848   0.832   6.265   1.533
 1302TIP3    H1 3849   0.903   6.294   1.477
 1302TIP3    H2 3850   0.777   6.343   1.544
 1303TIP3   OH2 3851   0.808   1.234   5.652
 1303TIP3    H1 3852   0.762   1.317   5.644
 1303TIP3    H2 3853   0.886   1.254   5.703
 1304TIP3   OH2 3854   5.655   7.635   2.777
 1304TIP3    H1 3855   5.666   7.685   2.696
 1304TIP3    H2 3856   5.691   7.692   2.845
 1305TIP3   OH2 3857   8.153   7.374   4.771
 1305TIP3    H1 3858   8.132   7.386   4.864
 1305TIP3    H2 3859   8.247   7.390   4.766
 1306TIP3   OH2 3860   2.946   4.499   4.538
 1306TIP3    H1 3861   2.921   4.533   4.624
 1306TIP3    H2 3862   3.042   4.493   4.543
 1307TIP3   OH2 3863   5.946   7.015   5.965
 1307TIP3    H1 3864   6.023   7.047   5.919
 1307TIP3    H2 3865   5.881   6.999   5.896
 1308TIP3   OH2 3866   5.480   0.298   3.718
 1308TIP3    H1 3867   5.484   0.307   3.813
 1308TIP3    H2 3868   5.565   0.262   3.694
 1309TIP3   OH2 3869   6.110   5.875   6.560
 1309TIP3    H1 3870   6.178   5.820   6.600
 1309TIP3    H2 3871   6.071   5.921   6.634
 1310TIP3   OH2 3872   0.675   2.558   5.099
 1310TIP3    H1 3873   0.590   2.588   5.068
 1310TIP3    H2 3874   0.674   2.463   5.084
 1311TIP3   OH2 3875   2.469   2.291   2.875
 1311TIP3    H1 3876   2.503   2.283   2.964
 1311TIP3    H2 3877   2.418   2.372   2.875
 1312TIP3   OH2 3878   3.830   4.657   4.924
 1312TIP3    H1 3879   3.842   4.724   4.857
 1312TIP3    H2 3880   3.780   4.588   4.880
 1313TIP3   OH2 3881   7.761   6.081   3.629
 1313TIP3    H1 3882   7.685   6.071   3.572
 1313TIP3    H2 3883   7.725   6.086   3.717
 1314TIP3   OH2 3884   6.625   4.136   6.472
 1314TIP3    H1 3885   6.636   4.070   6.540
 1314TIP3    H2 3886   6.606   4.086   6.393
 1315TIP3   OH2 3887   2.290   1.935   6.042
 1315TIP3    H1 3888   2.199   1.912   6.025
 1315TIP3    H2 3889   2.285   2.008   6.104
 1316TIP3   OH2 3890   8.063   4.844   5.867
 1316TIP3    H1 3891   8.137   4.858   5.926
 1316TIP3    H2 3892   8.045   4.931   5.830
 1317TIP3   OH2 3893   1.026   0.605   2.772
 1317TIP3    H1 3894   1.057   0.696   2.778
 1317TIP3    H2 3895   1.105   0.554   2.753
 1318TIP3   OH2 3896   6.521   5.956   3.752
 1318TIP3    H1 3897   6.438   5.979   3.795
 1318TIP3    H2 3898   6.564   6.040   3.738
 1319TIP3   OH2 3899   5.310   0.224   4.666
 1319TIP3    H1 3900   5.249   0.264   4.603
 1319TIP3    H2 3901   5.378   0.290   4.678
 1320TIP3   OH2 3902   6.439   1.169   5.418
 1320TIP3    H1 3903   6.520   1.220   5.424
 1320TIP3    H2 3904   6.398   1.199   5.337
 1321TIP3   OH2 3905   2.712   2.581   2.663
 1321TIP3    H1 3906   2.630   2.597   2.709
 1321TIP3    H2 3907   2.751   2.668   2.653
 1322TIP3   OH2 3908   7.766   4.257   1.815
 1322TIP3    H1 3909   7.814   4.335   1.843
 1322TIP3    H2 3910   7.703   4.242   1.885
 1323TIP3   OH2 3911   2.006   6.570   2.213
 1323TIP3    H1 3912   1.981   6.598   2.125
 1323TIP3    H2 3913   2.086   6.619   2.231
 1324TIP3   OH2 3914   5.106   3.229   0.561
 1324TIP3    H1 3915   5.111   3.225   0.656
 1324TIP3    H2 3916   5.187   3.188   0.531
 1325TIP3   OH2 3917   4.248   7.144   3.571
 1325TIP3    H1 3918   4.211   7.195   3.643
 1325TIP3    H2 3919   4.214   7.186   3.492
 1326TIP3   OH2 3920   2.373   5.800   2.917
 1326TIP3    H1 3921   2.334   5.749   2.988
 1326TIP3    H2 3922   2.299   5.822   2.860
 1327TIP3   OH2 3923   3.648   4.173   1.725
 1327TIP3    H1 3924   3.720   4.192   1.785
 1327TIP3    H2 3925   3.636   4.254   1.676
 1328TIP3   OH2 3926   1.162   0.533   0.252
 1328TIP3    H1 3927   1.085   0.519   0.308
 1328TIP3    H2 3928   1.189   0.445   0.227
 1329TIP3   OH2 3929   6.938   5.760   0.463
 1329TIP3    H1 3930   6.930   5.670   0.494
 1329TIP3    H2 3931   6.948   5.753   0.368
 1330TIP3   OH2 3932   4.215   3.164   1.297
 1330TIP3    H1 3933   4.297   3.210   1.314
 1330TIP3    H2 3934   4.175   3.153   1.383
 1331TIP3   OH2 3935   2.934   4.642   1.949
 1331TIP3    H1 3936   2.907   4.708   2.014
 1331TIP3    H2 3937   2.858   4.585   1.939
 1332TIP3   OH2 3938   3.040   7.620   5.653
 1332TIP3    H1 3939   2.971   7.598   5.590
 1332TIP3    H2 3940   2.994   7.628   5.737
 1333TIP3   OH2 3941   5.054   1.704   1.709
 1333TIP3    H1 3942   5.067   1.791   1.747
 1333TIP3    H2 3943   5.141   1.677   1.680
 1334TIP3   OH2 3944   2.547   3.363   6.031
 1334TIP3    H1 3945   2.515   3.399   6.115
 1334TIP3    H2 3946   2.487   3.291   6.012
 1335TIP3   OH2 3947   1.152   1.962   2.276
 1335TIP3    H1 3948   1.237   1.986   2.240
 1335TIP3    H2 3949   1.169   1.884   2.328
 1336TIP3   OH2 3950   6.937   4.014   3.426
 1336TIP3    H1 3951   6.910   4.105   3.412
 1336TIP3    H2 3952   7.031   4.019   3.444
 1337TIP3   OH2 3953   1.044   5.968   5.314
 1337TIP3    H1 3954   0.949   5.973   5.313
 1337TIP3    H2 3955   1.070   6.009   5.397
 1338TIP3   OH2 3956   2.348   0.283   5.307
 1338TIP3    H1 3957   2.292   0.311   5.379
 1338TIP3    H2 3958   2.308   0.321   5.229
 1339TIP3   OH2 3959   5.478   5.691   4.876
 1339TIP3    H1 3960   5.518   5.667   4.792
 1339TIP3    H2 3961   5.415   5.621   4.893
 1340TIP3   OH2 3962   4.192   5.911   4.874
 1340TIP3    H1 3963   4.101   5.938   4.878
 1340TIP3    H2 3964   4.197   5.855   4.796
 1341TIP3   OH2 3965   5.973   6.349   3.519
 1341TIP3    H1 3966   5.929   6.383   3.441
 1341TIP3    H2 3967   5.993   6.427   3.572
 1342TIP3   OH2 3968   6.056   4.855   5.725
 1342TIP3    H1 3969   6.128   4.792   5.728
 1342TIP3    H2 3970   6.003   4.834   5.803
 1343TIP3   OH2 3971   0.552   7.255   6.513
 1343TIP3    H1 3972   0.604   7.225   6.438
 1343TIP3    H2 3973   0.485   7.312   6.474
 1344TIP3   OH2 3974   4.081   7.779   2.974
 1344TIP3    H1 3975   3.998   7.808   2.937
 1344TIP3    H2 3976   4.114   7.715   2.911
 1345TIP3   OH2 3977   4.892   0.871   5.921
 1345TIP3    H1 3978   4.961   0.926   5.882
 1345TIP3    H2 3979   4.908   0.784   5.885
 1346TIP3   OH2 3980   3.510   2.481   2.339
 1346TIP3    H1 3981   3.566   2.403   2.334
 1346TIP3    H2 3982   3.567   2.552   2.309
 1347TIP3   OH2 3983   6.099   1.738   2.097
 1347TIP3    H1 3984   6.011   1.744   2.062
 1347TIP3    H2 3985   6.089   1.760   2.190
 1348TIP3   OH2 3986   1.655   6.088   1.924
 1348TIP3    H1 3987   1.684   6.023   1.988
 1348TIP3    H2 3988   1.697   6.169   1.952
 1349TIP3   OH2 3989   3.276   0.477   4.224
 1349TIP3    H1 3990   3.303   0.407   4.284
 1349TIP3    H2 3991   3.269   0.434   4.139
 1350TIP3   OH2 3992   3.689   4.622   5.627
 1350TIP3    H1 3993   3.707   4.655   5.715
 1350TIP3    H2 3994   3.596   4.600   5.628
 1351TIP3   OH2 3995   7.003   0.199   5.612
 1351TIP3    H1 3996   6.944   0.132   5.577
 1351TIP3    H2 3997   6.946   0.261   5.655
 1352TIP3   OH2 3998   3.809   6.719   5.044
 1352TIP3    H1 3999   3.747   6.670   5.098
 1352TIP3    H2 4000   3.895   6.679   5.064
 1353TIP3   OH2 4001   6.907   6.867   0.602
 1353TIP3    H1 4002   6.898   6.961   0.590
 1353TIP3    H2 4003   7.000   6.849   0.587
 1354TIP3   OH2 4004   1.794   5.595   2.534
 1354TIP3    H1 4005   1.868   5.561   2.584
 1354TIP3    H2 4006   1.719   5.545   2.566
 1355TIP3   OH2 4007   5.596   4.593   5.816
 1355TIP3    H1 4008   5.594   4.577   5.911
 1355TIP3    H2 4009   5.680   4.638   5.802
 1356TIP3   OH2 4010   7.381   6.629   0.814
 1356TIP3    H1 4011   7.464   6.677   0.813
 1356TIP3    H2 4012   7.389   6.568   0.741
 1357TIP3   OH2 4013   0.695   7.379   1.520
 1357TIP3    H1 4014   0.682   7.298   1.569
 1357TIP3    H2 4015   0.663   7.448   1.578
 1358TIP3   OH2 4016   0.477   7.332   2.193
 1358TIP3    H1 4017   0.487   7.267   2.263
 1358TIP3    H2 4018   0.500   7.415   2.235
 1359TIP3   OH2 4019   0.827   6.936   6.146
 1359TIP3    H1 4020   0.862   6.935   6.057
 1359TIP3    H2 4021   0.790   6.848   6.158
 1360TIP3   OH2 4022   1.210   2.256   2.271
 1360TIP3    H1 4023   1.130   2.247   2.324
 1360TIP3    H2 4024   1.279   2.274   2.336
 1361TIP3   OH2 4025   4.869   5.677   1.027
 1361TIP3    H1 4026   4.778   5.679   1.058
 1361TIP3    H2 4027   4.875   5.596   0.976
 1362TIP3   OH2 4028   8.085   5.936   4.824
 1362TIP3    H1 4029   8.149   6.007   4.821
 1362TIP3    H2 4030   8.058   5.932   4.915
 1363TIP3   OH2 4031   3.722   3.778   5.480
 1363TIP3    H1 4032   3.693   3.827   5.557
 1363TIP3    H2 4033   3.712   3.840   5.407
 1364TIP3   OH2 4034   7.702   4.473   3.681
 1364TIP3    H1 4035   7.622   4.524   3.663
 1364TIP3    H2 4036   7.674   4.382   3.672
 1365TIP3   OH2 4037   8.129   2.109   4.266
 1365TIP3    H1 4038   8.077   2.112   4.186
 1365TIP3    H2 4039   8.218   2.133   4.238
 1366TIP3   OH2 4040   4.775   6.751   4.886
 1366TIP3    H1 4041   4.760   6.667   4.843
 1366TIP3    H2 4042   4.711   6.810   4.846
 1367TIP3   OH2 4043   4.714   0.594   6.735
 1367TIP3    H1 4044   4.682   0.575   6.647
 1367TIP3    H2 4045   4.787   0.654   6.721
 1368TIP3   OH2 4046   1.908   5.234   6.093
 1368TIP3    H1 4047   1.983   5.254   6.036
 1368TIP3    H2 4048   1.923   5.286   6.171
 1369TIP3   OH2 4049   7.670   1.043   6.222
 1369TIP3    H1 4050   7.727   1.046   6.299
 1369TIP3    H2 4051   7.638   1.133   6.214
 1370TIP3   OH2 4052   3.667   2.850   3.322
 1370TIP3    H1 4053   3.589   2.902   3.339
 1370TIP3    H2 4054   3.736   2.892   3.372
 1371TIP3   OH2 4055   3.512   4.073   0.258
 1371TIP3    H1 4056   3.418   4.053   0.259
 1371TIP3    H2 4057   3.519   4.159   0.300
 1372TIP3   OH2 4058   5.330   4.892   0.256
 1372TIP3    H1 4059   5.387   4.960   0.218
 1372TIP3    H2 4060   5.275   4.864   0.183
 1373TIP3   OH2 4061   7.949   2.433   6.623
 1373TIP3    H1 4062   7.983   2.452   6.710
 1373TIP3    H2 4063   7.909   2.516   6.594
 1374TIP3   OH2 4064   5.515   6.233   0.519
 1374TIP3    H1 4065   5.475   6.210   0.604
 1374TIP3    H2 4066   5.590   6.174   0.512
 1375TIP3   OH2 4067   8.093   1.121   3.610
 1375TIP3    H1 4068   8.093   1.026   3.599
 1375TIP3    H2 4069   8.102   1.155   3.521
 1376TIP3   OH2 4070   4.098   5.125   3.152
 1376TIP3    H1 4071   4.190   5.116   3.177
 1376TIP3    H2 4072   4.059   5.177   3.222
 1377TIP3   OH2 4073   5.967   5.635   5.239
 1377TIP3    H1 4074   5.973   5.581   5.160
 1377TIP3    H2 4075   5.911   5.586   5.298
 1378TIP3   OH2 4076   7.029   6.174   3.846
 1378TIP3    H1 4077   6.985   6.167   3.761
 1378TIP3    H2 4078   6.974   6.234   3.897
 1379TIP3   OH2 4079   1.197   1.585   2.045
 1379TIP3    H1 4080   1.136   1.654   2.070
 1379TIP3    H2 4081   1.163   1.551   1.962
 1380TIP3   OH2 4082   3.789   4.272   0.184
 1380TIP3    H1 4083   3.735   4.351   0.180
 1380TIP3    H2 4084   3.733   4.207   0.226
 1381TIP3   OH2 4085   5.086   0.382   3.497
 1381TIP3    H1 4086   5.050   0.302   3.535
 1381TIP3    H2 4087   5.068   0.375   3.404
 1382TIP3   OH2 4088   1.086   4.944   0.286
 1382TIP3    H1 4089   1.166   4.900   0.256
 1382TIP3    H2 4090   1.098   4.956   0.380
 1383TIP3   OH2 4091   0.096   5.025   6.707
 1383TIP3    H1 4092   0.025   5.038   6.644
 1383TIP3    H2 4093   0.133   5.112   6.720
 1384TIP3   OH2 4094   2.852   1.351   6.111
 1384TIP3    H1 4095   2.787   1.384   6.049
 1384TIP3    H2 4096   2.818   1.267   6.140
 1385TIP3   OH2 4097   3.977   5.239   2.463
 1385TIP3    H1 4098   4.028   5.162   2.488
 1385TIP3    H2 4099   3.901   5.237   2.520
 1386TIP3   OH2 4100   7.930   0.420   1.033
 1386TIP3    H1 4101   7.874   0.488   1.072
 1386TIP3    H2 4102   7.924   0.435   0.939
 1387TIP3   OH2 4103   1.181   5.560   1.388
 1387TIP3    H1 4104   1.273   5.544   1.412
 1387TIP3    H2 4105   1.186   5.625   1.318
 1388TIP3   OH2 4106   8.303   0.723   1.330
 1388TIP3    H1 4107   8.289   0.663   1.403
 1388TIP3    H2 4108   8.376   0.778   1.358
 1389TIP3   OH2 4109   4.581   7.183   3.067
 1389TIP3    H1 4110   4.640   7.212   2.998
 1389TIP3    H2 4111   4.624   7.208   3.149
 1390TIP3   OH2 4112   0.466   5.000   4.858
 1390TIP3    H1 4113   0.380   5.015   4.818
 1390TIP3    H2 4114   0.488   5.083   4.900
 1391TIP3   OH2 4115   7.708   1.064   3.284
 1391TIP3    H1 4116   7.624   1.030   3.315
 1391TIP3    H2 4117   7.700   1.159   3.292
 1392TIP3   OH2 4118   2.462   0.824   4.156
 1392TIP3    H1 4119   2.449   0.857   4.067
 1392TIP3    H2 4120   2.391   0.864   4.207
 1393TIP3   OH2 4121   1.316   5.572   3.297
 1393TIP3    H1 4122   1.407   5.574   3.325
 1393TIP3    H2 4123   1.269   5.529   3.369
 1394TIP3   OH2 4124   6.367   5.243   6.276
 1394TIP3    H1 4125   6.407   5.207   6.196
 1394TIP3    H2 4126   6.334   5.329   6.249
 1395TIP3   OH2 4127   1.788   7.355   5.206
 1395TIP3    H1 4128   1.784   7.325   5.297
 1395TIP3    H2 4129   1.852   7.427   5.207
 1396TIP3   OH2 4130   2.412   4.270   2.881
 1396TIP3    H1 4131   2.440   4.286   2.791
 1396TIP3    H2 4132   2.379   4.181   2.880
 1397TIP3   OH2 4133   7.475   7.555   6.477
 1397TIP3    H1 4134   7.468   7.489   6.546
 1397TIP3    H2 4135   7.431   7.516   6.401
 1398TIP3   OH2 4136   2.844   2.435   1.615
 1398TIP3    H1 4137   2.804   2.351   1.636
 1398TIP3    H2 4138   2.774   2.499   1.630
 1399TIP3   OH2 4139   1.902   5.433   2.749
 1399TIP3    H1 4140   1.880   5.340   2.755
 1399TIP3    H2 4141   1.983   5.435   2.698
 1400TIP3   OH2 4142   1.476   3.171   6.218
 1400TIP3    H1 4143   1.496   3.192   6.126
 1400TIP3    H2 4144   1.478   3.256   6.262
 1401TIP3   OH2 4145   2.330   4.577   0.584
 1401TIP3    H1 4146   2.400   4.513   0.574
 1401TIP3    H2 4147   2.371   4.651   0.628
 1402TIP3   OH2 4148   3.647   3.302   1.489
 1402TIP3    H1 4149   3.725   3.357   1.487
 1402TIP3    H2 4150   3.583   3.352   1.540
 1403TIP3   OH2 4151   6.516   0.556   1.182
 1403TIP3    H1 4152   6.569   0.624   1.223
 1403TIP3    H2 4153   6.426   0.585   1.194
 1404TIP3   OH2 4154   5.291   1.925   0.486
 1404TIP3    H1 4155   5.369   1.924   0.430
 1404TIP3    H2 4156   5.224   1.878   0.435
 1405TIP3   OH2 4157   3.503   3.590   2.836
 1405TIP3    H1 4158   3.416   3.584   2.875
 1405TIP3    H2 4159   3.491   3.562   2.745
 1406TIP3   OH2 4160   5.191   6.940   6.574
 1406TIP3    H1 4161   5.244   6.873   6.617
 1406TIP3    H2 4162   5.123   6.962   6.638
 1407TIP3   OH2 4163   7.906   5.505   1.128
 1407TIP3    H1 4164   7.837   5.442   1.148
 1407TIP3    H2 4165   7.929   5.488   1.037
 1408TIP3   OH2 4166   6.641   0.380   2.403
 1408TIP3    H1 4167   6.573   0.447   2.396
 1408TIP3    H2 4168   6.703   0.401   2.333
 1409TIP3   OH2 4169   7.005   0.129   6.047
 1409TIP3    H1 4170   6.968   0.215   6.028
 1409TIP3    H2 4171   7.062   0.109   5.973
 1410TIP3   OH2 4172   5.703   3.881   5.924
 1410TIP3    H1 4173   5.726   3.952   5.864
 1410TIP3    H2 4174   5.764   3.810   5.901
 1411TIP3   OH2 4175   5.288   3.164   2.248
 1411TIP3    H1 4176   5.376   3.126   2.253
 1411TIP3    H2 4177   5.230   3.093   2.275
 1412TIP3   OH2 4178   0.186   1.065   1.347
 1412TIP3    H1 4179   0.124   1.013   1.296
 1412TIP3    H2 4180   0.183   1.027   1.435
 1413TIP3   OH2 4181   2.664   1.143   6.200
 1413TIP3    H1 4182   2.586   1.088   6.196
 1413TIP3    H2 4183   2.631   1.229   6.228
 1414TIP3   OH2 4184   0.869   2.107   5.379
 1414TIP3    H1 4185   0.888   2.196   5.353
 1414TIP3    H2 4186   0.829   2.115   5.466
 1415TIP3   OH2 4187   2.321   3.476   5.368
 1415TIP3    H1 4188   2.387   3.435   5.312
 1415TIP3    H2 4189   2.324   3.426   5.450
 1416TIP3   OH2 4190   2.256   1.873   6.494
 1416TIP3    H1 4191   2.323   1.892   6.559
 1416TIP3    H2 4192   2.179   1.921   6.524
 1417TIP3   OH2 4193   5.204   2.791   0.187
 1417TIP3    H1 4194   5.246   2.863   0.140
 1417TIP3    H2 4195   5.188   2.826   0.275
 1418TIP3   OH2 4196   4.427   4.689   1.820
 1418TIP3    H1 4197   4.394   4.684   1.910
 1418TIP3    H2 4198   4.390   4.769   1.785
 1419TIP3   OH2 4199   5.503   2.523   2.070
 1419TIP3    H1 4200   5.586   2.478   2.089
 1419TIP3    H2 4201   5.455   2.462   2.014
 1420TIP3   OH2 4202   6.236   2.918   2.293
 1420TIP3    H1 4203   6.331   2.911   2.298
 1420TIP3    H2 4204   6.210   2.953   2.378
 1421TIP3   OH2 4205   6.139   6.937   4.919
 1421TIP3    H1 4206   6.175   6.848   4.923
 1421TIP3    H2 4207   6.110   6.947   4.828
 1422TIP3   OH2 4208   3.943   6.283   0.064
 1422TIP3    H1 4209   3.979   6.295   0.152
 1422TIP3    H2 4210   3.938   6.372   0.028
 1423TIP3   OH2 4211   3.819   3.120   0.988
 1423TIP3    H1 4212   3.865   3.042   0.959
 1423TIP3    H2 4213   3.848   3.133   1.079
 1424TIP3   OH2 4214   0.043   6.628   3.761
 1424TIP3    H1 4215   0.063   6.646   3.669
 1424TIP3    H2 4216   0.035   6.714   3.801
 1425TIP3   OH2 4217   6.042   6.583   1.789
 1425TIP3    H1 4218   5.954   6.618   1.774
 1425TIP3    H2 4219   6.088   6.599   1.707
 1426TIP3   OH2 4220   7.904   6.062   1.969
 1426TIP3    H1 4221   7.858   6.063   2.053
 1426TIP3    H2 4222   7.978   6.003   1.983
 1427TIP3   OH2 4223   7.733   0.228   2.929
 1427TIP3    H1 4224   7.800   0.233   2.861
 1427TIP3    H2 4225   7.783   0.212   3.010
 1428TIP3   OH2 4226   4.299   7.473   6.303
 1428TIP3    H1 4227   4.292   7.438   6.214
 1428TIP3    H2 4228   4.299   7.568   6.291
 1429TIP3   OH2 4229   8.009   6.790   6.320
 1429TIP3    H1 4230   8.010   6.884   6.300
 1429TIP3    H2 4231   8.098   6.760   6.299
 1430TIP3   OH2 4232   1.538   2.459   1.781
 1430TIP3    H1 4233   1.518   2.479   1.872
 1430TIP3    H2 4234   1.491   2.377   1.764
 1431TIP3   OH2 4235   2.401   1.245   2.774
 1431TIP3    H1 4236   2.369   1.335   2.769
 1431TIP3    H2 4237   2.466   1.246   2.844
 1432TIP3   OH2 4238   0.243   0.230   3.168
 1432TIP3    H1 4239   0.296   0.309   3.176
 1432TIP3    H2 4240   0.155   0.262   3.148
 1433TIP3   OH2 4241   1.374   0.740   3.271
 1433TIP3    H1 4242   1.417   0.675   3.215
 1433TIP3    H2 4243   1.292   0.760   3.225
 1434TIP3   OH2 4244   4.359   6.504   3.435
 1434TIP3    H1 4245   4.412   6.567   3.387
 1434TIP3    H2 4246   4.296   6.558   3.484
 1435TIP3   OH2 4247   5.899   7.601   3.052
 1435TIP3    H1 4248   5.873   7.691   3.034
 1435TIP3    H2 4249   5.991   7.597   3.026
 1436TIP3   OH2 4250   7.037   5.313   3.421
 1436TIP3    H1 4251   7.099   5.253   3.380
 1436TIP3    H2 4252   7.020   5.379   3.354
 1437TIP3   OH2 4253   6.051   4.566   4.217
 1437TIP3    H1 4254   6.071   4.571   4.310
 1437TIP3    H2 4255   5.972   4.619   4.206
 1438TIP3   OH2 4256   5.917   1.174   4.052
 1438TIP3    H1 4257   5.824   1.158   4.037
 1438TIP3    H2 4258   5.924   1.268   4.068
 1439TIP3   OH2 4259   6.118   2.041   4.976
 1439TIP3    H1 4260   6.035   2.084   4.996
 1439TIP3    H2 4261   6.110   1.954   5.015
 1440TIP3   OH2 4262   5.780   1.625   0.261
 1440TIP3    H1 4263   5.709   1.625   0.325
 1440TIP3    H2 4264   5.811   1.535   0.259
 1441TIP3   OH2 4265   4.669   0.934   2.125
 1441TIP3    H1 4266   4.758   0.908   2.149
 1441TIP3    H2 4267   4.637   0.862   2.070
 1442TIP3   OH2 4268   5.752   4.242   4.251
 1442TIP3    H1 4269   5.784   4.178   4.314
 1442TIP3    H2 4270   5.814   4.237   4.178
 1443TIP3   OH2 4271   3.973   5.474   1.233
 1443TIP3    H1 4272   3.910   5.520   1.177
 1443TIP3    H2 4273   4.059   5.502   1.201
 1444TIP3   OH2 4274   2.371   3.663   0.264
 1444TIP3    H1 4275   2.401   3.754   0.271
 1444TIP3    H2 4276   2.275   3.669   0.265
 1445TIP3   OH2 4277   0.460   2.556   1.081
 1445TIP3    H1 4278   0.451   2.648   1.054
 1445TIP3    H2 4279   0.370   2.524   1.083
 1446TIP3   OH2 4280   3.990   7.351   4.228
 1446TIP3    H1 4281   4.047   7.321   4.299
 1446TIP3    H2 4282   3.945   7.272   4.199
 1447TIP3   OH2 4283   5.661   6.539   0.904
 1447TIP3    H1 4284   5.638   6.539   0.812
 1447TIP3    H2 4285   5.647   6.448   0.932
 1448TIP3   OH2 4286   7.432   7.091   5.310
 1448TIP3    H1 4287   7.435   7.091   5.405
 1448TIP3    H2 4288   7.475   7.173   5.284
 1449TIP3   OH2 4289   1.639   3.617   0.762
 1449TIP3    H1 4290   1.658   3.544   0.820
 1449TIP3    H2 4291   1.661   3.586   0.674
 1450TIP3   OH2 4292   7.571   6.264   0.253
 1450TIP3    H1 4293   7.479   6.257   0.229
 1450TIP3    H2 4294   7.602   6.342   0.206
 1451TIP3   OH2 4295   2.060   7.326   5.536
 1451TIP3    H1 4296   1.992   7.354   5.597
 1451TIP3    H2 4297   2.079   7.403   5.483
 1452TIP3   OH2 4298   2.265   2.896   4.665
 1452TIP3    H1 4299   2.279   2.874   4.573
 1452TIP3    H2 4300   2.272   2.991   4.668
 1453TIP3   OH2 4301   1.054   6.819   4.340
 1453TIP3    H1 4302   1.139   6.853   4.368
 1453TIP3    H2 4303   1.071   6.776   4.256
 1454TIP3   OH2 4304   3.473   0.889   0.391
 1454TIP3    H1 4305   3.400   0.913   0.449
 1454TIP3    H2 4306   3.536   0.846   0.448
 1455TIP3   OH2 4307   6.065   0.348   4.461
 1455TIP3    H1 4308   6.056   0.266   4.509
 1455TIP3    H2 4309   6.159   0.365   4.458
 1456TIP3   OH2 4310   0.735   1.946   4.276
 1456TIP3    H1 4311   0.802   1.991   4.328
 1456TIP3    H2 4312   0.658   2.003   4.280
 1457TIP3   OH2 4313   7.954   0.559   3.440
 1457TIP3    H1 4314   7.897   0.566   3.363
 1457TIP3    H2 4315   7.994   0.645   3.449
 1458TIP3   OH2 4316   2.800   5.579   0.452
 1458TIP3    H1 4317   2.881   5.564   0.500
 1458TIP3    H2 4318   2.733   5.534   0.503
 1459TIP3   OH2 4319   0.891   2.030   3.213
 1459TIP3    H1 4320   0.910   2.070   3.297
 1459TIP3    H2 4321   0.877   2.104   3.153
 1460TIP3   OH2 4322   5.610   0.682   3.181
 1460TIP3    H1 4323   5.626   0.773   3.156
 1460TIP3    H2 4324   5.696   0.640   3.175
 1461TIP3   OH2 4325   1.697   6.765   6.014
 1461TIP3    H1 4326   1.770   6.827   6.010
 1461TIP3    H2 4327   1.696   6.734   6.104
 1462TIP3   OH2 4328   8.010   0.442   2.027
 1462TIP3    H1 4329   8.049   0.387   1.960
 1462TIP3    H2 4330   8.069   0.433   2.102
 1463TIP3   OH2 4331   2.427   0.528   0.462
 1463TIP3    H1 4332   2.462   0.600   0.410
 1463TIP3    H2 4333   2.334   0.547   0.471
 1464TIP3   OH2 4334   5.812   7.484   3.842
 1464TIP3    H1 4335   5.763   7.441   3.773
 1464TIP3    H2 4336   5.756   7.478   3.919
 1465TIP3   OH2 4337   3.066   7.113   1.898
 1465TIP3    H1 4338   3.111   7.040   1.855
 1465TIP3    H2 4339   3.128   7.143   1.965
 1466TIP3   OH2 4340   1.477   3.026   1.850
 1466TIP3    H1 4341   1.467   3.119   1.870
 1466TIP3    H2 4342   1.391   2.988   1.870
 1467TIP3   OH2 4343   5.398   2.271   5.125
 1467TIP3    H1 4344   5.337   2.200   5.145
 1467TIP3    H2 4345   5.408   2.269   5.030
 1468TIP3   OH2 4346   7.375   0.106   3.900
 1468TIP3    H1 4347   7.300   0.090   3.842
 1468TIP3    H2 4348   7.428   0.026   3.892
 1469TIP3   OH2 4349   4.053   3.031   6.429
 1469TIP3    H1 4350   4.020   3.063   6.345
 1469TIP3    H2 4351   4.094   3.108   6.469
 1470TIP3   OH2 4352   5.137   6.166   1.593
 1470TIP3    H1 4353   5.180   6.113   1.660
 1470TIP3    H2 4354   5.054   6.190   1.632
 1471TIP3   OH2 4355   0.294   6.583   0.977
 1471TIP3    H1 4356   0.349   6.585   1.055
 1471TIP3    H2 4357   0.209   6.616   1.006
 1472TIP3   OH2 4358   7.336   5.349   2.096
 1472TIP3    H1 4359   7.250   5.364   2.057
 1472TIP3    H2 4360   7.356   5.258   2.075
 1473TIP3   OH2 4361   0.778   2.610   3.303
 1473TIP3    H1 4362   0.824   2.586   3.223
 1473TIP3    H2 4363   0.840   2.664   3.352
 1474TIP3   OH2 4364   4.724   2.126   2.879
 1474TIP3    H1 4365   4.728   2.206   2.931
 1474TIP3    H2 4366   4.783   2.141   2.806
 1475TIP3   OH2 4367   1.478   1.024   3.629
 1475TIP3    H1 4368   1.449   1.079   3.556
 1475TIP3    H2 4369   1.464   0.935   3.598
 1476TIP3   OH2 4370   7.082   5.607   5.070
 1476TIP3    H1 4371   7.016   5.568   5.128
 1476TIP3    H2 4372   7.152   5.542   5.067
 1477TIP3   OH2 4373   3.854   3.108   6.745
 1477TIP3    H1 4374   3.824   3.131   6.833
 1477TIP3    H2 4375   3.777   3.119   6.690
 1478TIP3   OH2 4376   3.178   5.180   6.256
 1478TIP3    H1 4377   3.099   5.213   6.300
 1478TIP3    H2 4378   3.224   5.131   6.324
 1479TIP3   OH2 4379   1.264   2.000   0.599
 1479TIP3    H1 4380   1.293   2.066   0.536
 1479TIP3    H2 4381   1.220   2.050   0.668
 1480TIP3   OH2 4382   2.101   5.057   4.264
 1480TIP3    H1 4383   2.122   4.981   4.210
 1480TIP3    H2 4384   2.012   5.039   4.296
 1481TIP3   OH2 4385   4.791   3.675   1.637
 1481TIP3    H1 4386   4.805   3.708   1.726
 1481TIP3    H2 4387   4.867   3.619   1.620
 1482TIP3   OH2 4388   3.092   5.754   5.694
 1482TIP3    H1 4389   3.006   5.718   5.673
 1482TIP3    H2 4390   3.103   5.828   5.634
 1483TIP3   OH2 4391   1.359   6.224   0.800
 1483TIP3    H1 4392   1.322   6.221   0.889
 1483TIP3    H2 4393   1.374   6.133   0.777
 1484TIP3   OH2 4394   4.614   1.135   3.041
 1484TIP3    H1 4395   4.655   1.051   3.018
 1484TIP3    H2 4396   4.540   1.142   2.982
 1485TIP3   OH2 4397   4.608   1.457   6.091
 1485TIP3    H1 4398   4.559   1.538   6.078
 1485TIP3    H2 4399   4.662   1.474   6.168
 1486TIP3   OH2 4400   1.281   3.725   1.362
 1486TIP3    H1 4401   1.266   3.765   1.277
 1486TIP3    H2 4402   1.377   3.717   1.368
 1487TIP3   OH2 4403   4.656   1.569   2.538
 1487TIP3    H1 4404   4.610   1.618   2.606
 1487TIP3    H2 4405   4.623   1.479   2.546
 1488TIP3   OH2 4406   7.526   0.713   6.372
 1488TIP3    H1 4407   7.476   0.717   6.454
 1488TIP3    H2 4408   7.595   0.778   6.384
 1489TIP3   OH2 4409   3.167   2.578   6.222
 1489TIP3    H1 4410   3.239   2.583   6.284
 1489TIP3    H2 4411   3.088   2.581   6.276
 1490TIP3   OH2 4412   3.967   5.504   6.244
 1490TIP3    H1 4413   3.978   5.545   6.158
 1490TIP3    H2 4414   3.904   5.560   6.289
 1491TIP3   OH2 4415   3.695   0.400   1.225
 1491TIP3    H1 4416   3.667   0.435   1.140
 1491TIP3    H2 4417   3.766   0.339   1.203
 1492TIP3   OH2 4418   5.288   3.328   4.718
 1492TIP3    H1 4419   5.289   3.245   4.766
 1492TIP3    H2 4420   5.215   3.377   4.757
 1493TIP3   OH2 4421   0.762   7.612   5.103
 1493TIP3    H1 4422   0.766   7.690   5.048
 1493TIP3    H2 4423   0.676   7.574   5.085
 1494TIP3   OH2 4424   5.650   2.351   3.167
 1494TIP3    H1 4425   5.679   2.437   3.136
 1494TIP3    H2 4426   5.566   2.337   3.124
 1495TIP3   OH2 4427   0.485   3.670   3.321
 1495TIP3    H1 4428   0.559   3.712   3.277
 1495TIP3    H2 4429   0.525   3.614   3.388
 1496TIP3   OH2 4430   5.562   3.432   1.355
 1496TIP3    H1 4431   5.526   3.478   1.279
 1496TIP3    H2 4432   5.643   3.394   1.324
 1497TIP3   OH2 4433   5.160   6.359   3.527
 1497TIP3    H1 4434   5.117   6.289   3.477
 1497TIP3    H2 4435   5.092   6.392   3.585
 1498TIP3   OH2 4436   5.327   4.795   0.523
 1498TIP3    H1 4437   5.326   4.819   0.430
 1498TIP3    H2 4438   5.410   4.829   0.556
 1499TIP3   OH2 4439   4.349   4.546   4.808
 1499TIP3    H1 4440   4.309   4.596   4.879
 1499TIP3    H2 4441   4.292   4.560   4.733
 1500TIP3   OH2 4442   5.161   2.807   0.449
 1500TIP3    H1 4443   5.201   2.750   0.515
 1500TIP3    H2 4444   5.092   2.854   0.497
 1501TIP3   OH2 4445   7.103   6.555   4.947
 1501TIP3    H1 4446   7.126   6.539   4.855
 1501TIP3    H2 4447   7.176   6.518   4.996
 1502TIP3   OH2 4448   4.157   5.139   2.866
 1502TIP3    H1 4449   4.155   5.123   2.961
 1502TIP3    H2 4450   4.229   5.083   2.835
 1503TIP3   OH2 4451   1.578   6.909   1.775
 1503TIP3    H1 4452   1.566   6.851   1.850
 1503TIP3    H2 4453   1.590   6.850   1.701
 1504TIP3   OH2 4454   4.242   0.560   0.393
 1504TIP3    H1 4455   4.249   0.521   0.306
 1504TIP3    H2 4456   4.221   0.652   0.376
 1505TIP3   OH2 4457   2.511   0.486   0.179
 1505TIP3    H1 4458   2.483   0.477   0.270
 1505TIP3    H2 4459   2.581   0.551   0.181
 1506TIP3   OH2 4460   3.874   1.915   5.907
 1506TIP3    H1 4461   3.818   1.852   5.860
 1506TIP3    H2 4462   3.874   1.993   5.851
 1507TIP3   OH2 4463   0.278   4.811   0.190
 1507TIP3    H1 4464   0.296   4.901   0.217
 1507TIP3    H2 4465   0.346   4.791   0.125
 1508TIP3   OH2 4466   0.106   0.300   0.060
 1508TIP3    H1 4467   0.127   0.216   0.019
 1508TIP3    H2 4468   0.174   0.313   0.125
 1509TIP3   OH2 4469   1.078   5.998   0.800
 1509TIP3    H1 4470   1.108   5.919   0.756
 1509TIP3    H2 4471   1.020   5.967   0.869
 1510TIP3   OH2 4472   0.166   3.092   2.935
 1510TIP3    H1 4473   0.225   3.126   2.868
 1510TIP3    H2 4474   0.093   3.154   2.937
 1511TIP3   OH2 4475   6.204   6.693   6.363
 1511TIP3    H1 4476   6.218   6.766   6.302
 1511TIP3    H2 4477   6.230   6.615   6.313
 1512TIP3   OH2 4478   0.299   4.177   1.407
 1512TIP3    H1 4479   0.241   4.231   1.461
 1512TIP3    H2 4480   0.368   4.148   1.466
 1513TIP3   OH2 4481   7.830   5.384   2.431
 1513TIP3    H1 4482   7.866   5.324   2.365
 1513TIP3    H2 4483   7.802   5.461   2.382
 1514TIP3   OH2 4484   1.046   7.394   2.870
 1514TIP3    H1 4485   1.063   7.389   2.964
 1514TIP3    H2 4486   1.117   7.343   2.830
 1515TIP3   OH2 4487   3.534   2.739   5.386
 1515TIP3    H1 4488   3.477   2.666   5.409
 1515TIP3    H2 4489   3.483   2.793   5.327
 1516TIP3   OH2 4490   1.779   7.671   5.324
 1516TIP3    H1 4491   1.688   7.649   5.301
 1516TIP3    H2 4492   1.771   7.753   5.372
 1517TIP3   OH2 4493   6.654   4.518   4.240
 1517TIP3    H1 4494   6.740   4.475   4.236
 1517TIP3    H2 4495   6.611   4.492   4.159
 1518TIP3   OH2 4496   8.122   7.574   4.572
 1518TIP3    H1 4497   8.112   7.517   4.649
 1518TIP3    H2 4498   8.051   7.547   4.514
 1519TIP3   OH2 4499   6.053   0.168   0.145
 1519TIP3    H1 4500   6.066   0.146   0.053
 1519TIP3    H2 4501   6.030   0.261   0.144
 1520TIP3   OH2 4502   2.473   4.103   4.126
 1520TIP3    H1 4503   2.536   4.050   4.175
 1520TIP3    H2 4504   2.406   4.126   4.190
 1521TIP3   OH2 4505   3.202   2.235   5.502
 1521TIP3    H1 4506   3.171   2.267   5.587
 1521TIP3    H2 4507   3.221   2.315   5.453
 1522TIP3   OH2 4508   4.964   2.428   0.693
 1522TIP3    H1 4509   4.963   2.478   0.611
 1522TIP3    H2 4510   4.874   2.398   0.704
 1523TIP3   OH2 4511   4.060   4.840   3.553
 1523TIP3    H1 4512   4.096   4.912   3.501
 1523TIP3    H2 4513   4.135   4.785   3.574
 1524TIP3   OH2 4514   5.836   0.618   6.722
 1524TIP3    H1 4515   5.906   0.603   6.786
 1524TIP3    H2 4516   5.881   0.641   6.641
 1525TIP3   OH2 4517   1.835   7.513   1.110
 1525TIP3    H1 4518   1.860   7.534   1.200
 1525TIP3    H2 4519   1.744   7.542   1.102
 1526TIP3   OH2 4520   4.896   5.490   0.843
 1526TIP3    H1 4521   4.911   5.397   0.861
 1526TIP3    H2 4522   4.808   5.493   0.807
 1527TIP3   OH2 4523   7.895   1.318   6.319
 1527TIP3    H1 4524   7.816   1.346   6.365
 1527TIP3    H2 4525   7.911   1.229   6.350
 1528TIP3   OH2 4526   7.205   3.006   5.947
 1528TIP3    H1 4527   7.238   2.954   5.873
 1528TIP3    H2 4528   7.151   3.074   5.906
 1529TIP3   OH2 4529   4.379   7.185   1.258
 1529TIP3    H1 4530   4.350   7.240   1.331
 1529TIP3    H2 4531   4.431   7.116   1.299
 1530TIP3   OH2 4532   2.673   6.572   6.647
 1530TIP3    H1 4533   2.627   6.525   6.577
 1530TIP3    H2 4534   2.608   6.580   6.717
 1531TIP3   OH2 4535   6.164   6.293   6.482
 1531TIP3    H1 4536   6.108   6.328   6.413
 1531TIP3    H2 4537   6.125   6.325   6.563
 1532TIP3   OH2 4538   4.649   3.098   4.596
 1532TIP3    H1 4539   4.576   3.107   4.657
 1532TIP3    H2 4540   4.611   3.057   4.518
 1533TIP3   OH2 4541   2.615   1.129   4.425
 1533TIP3    H1 4542   2.697   1.101   4.466
 1533TIP3    H2 4543   2.579   1.194   4.485
 1534TIP3   OH2 4544   0.634   5.940   5.897
 1534TIP3    H1 4545   0.635   5.970   5.988
 1534TIP3    H2 4546   0.707   5.986   5.856
 1535TIP3   OH2 4547   1.559   2.261   0.104
 1535TIP3    H1 4548   1.634   2.301   0.149
 1535TIP3    H2 4549   1.535   2.325   0.037
 1536TIP3   OH2 4550   4.437   5.567   5.836
 1536TIP3    H1 4551   4.508   5.619   5.873
 1536TIP3    H2 4552   4.357   5.603   5.874
 1537TIP3   OH2 4553   4.711   3.909   5.709
 1537TIP3    H1 4554   4.645   3.978   5.716
 1537TIP3    H2 4555   4.780   3.948   5.655
 1538TIP3   OH2 4556   4.051   5.402   5.305
 1538TIP3    H1 4557   4.128   5.414   5.361
 1538TIP3    H2 4558   4.041   5.307   5.300
 1539TIP3   OH2 4559   3.159   5.395   3.990
 1539TIP3    H1 4560   3.122   5.407   3.902
 1539TIP3    H2 4561   3.239   5.447   3.989
 1540TIP3   OH2 4562   1.308   5.767   4.728
 1540TIP3    H1 4563   1.356   5.802   4.653
 1540TIP3    H2 4564   1.373   5.761   4.798
 1541TIP3   OH2 4565   5.789   3.488   2.222
 1541TIP3    H1 4566   5.791   3.505   2.317
 1541TIP3    H2 4567   5.735   3.410   2.213
 1542TIP3   OH2 4568   2.694   3.821   2.360
 1542TIP3    H1 4569   2.667   3.800   2.450
 1542TIP3    H2 4570   2.696   3.737   2.315
 1543TIP3   OH2 4571   0.032   6.035   1.205
 1543TIP3    H1 4572   0.019   5.971   1.134
 1543TIP3    H2 4573   0.126   6.034   1.220
 1544TIP3   OH2 4574   0.642   5.763   1.723
 1544TIP3    H1 4575   0.722   5.795   1.765
 1544TIP3    H2 4576   0.587   5.842   1.714
 1545TIP3   OH2 4577   4.206   6.230   4.662
 1545TIP3    H1 4578   4.191   6.190   4.576
 1545TIP3    H2 4579   4.151   6.180   4.722
 1546TIP3   OH2 4580   5.109   7.348   3.715
 1546TIP3    H1 4581   5.171   7.321   3.647
 1546TIP3    H2 4582   5.059   7.269   3.735
 1547TIP3   OH2 4583   0.641   7.079   2.340
 1547TIP3    H1 4584   0.720   7.124   2.311
 1547TIP3    H2 4585   0.673   7.002   2.388
 1548TIP3   OH2 4586   0.966   4.841   4.205
 1548TIP3    H1 4587   0.950   4.845   4.300
 1548TIP3    H2 4588   0.924   4.920   4.171
 1549TIP3   OH2 4589   4.286   2.441   0.249
 1549TIP3    H1 4590   4.245   2.505   0.190
 1549TIP3    H2 4591   4.334   2.383   0.190
 1550TIP3   OH2 4592   6.757   1.262   3.790
 1550TIP3    H1 4593   6.706   1.302   3.720
 1550TIP3    H2 4594   6.706   1.185   3.816
 1551TIP3   OH2 4595   2.803   1.422   4.153
 1551TIP3    H1 4596   2.845   1.507   4.141
 1551TIP3    H2 4597   2.841   1.366   4.085
 1552TIP3   OH2 4598   1.882   1.607   6.524
 1552TIP3    H1 4599   1.840   1.592   6.609
 1552TIP3    H2 4600   1.809   1.624   6.464
 1553TIP3   OH2 4601   8.151   6.681   3.146
 1553TIP3    H1 4602   8.102   6.678   3.228
 1553TIP3    H2 4603   8.104   6.621   3.088
 1554TIP3   OH2 4604   2.962   6.257   3.515
 1554TIP3    H1 4605   2.872   6.270   3.484
 1554TIP3    H2 4606   3.000   6.345   3.513
 1555TIP3   OH2 4607   0.642   2.630   6.509
 1555TIP3    H1 4608   0.734   2.619   6.484
 1555TIP3    H2 4609   0.599   2.550   6.478
 1556TIP3   OH2 4610   5.389   6.772   0.414
 1556TIP3    H1 4611   5.384   6.821   0.496
 1556TIP3    H2 4612   5.350   6.831   0.349
 1557TIP3   OH2 4613   6.599   6.247   4.431
 1557TIP3    H1 4614   6.659   6.254   4.506
 1557TIP3    H2 4615   6.516   6.281   4.464
 1558TIP3   OH2 4616   2.982   6.337   4.658
 1558TIP3    H1 4617   3.004   6.262   4.714
 1558TIP3    H2 4618   3.066   6.376   4.636
 1559TIP3   OH2 4619   8.145   0.670   0.063
 1559TIP3    H1 4620   8.102   0.609   0.002
 1559TIP3    H2 4621   8.100   0.658   0.146
 1560TIP3   OH2 4622   6.092   5.861   5.065
 1560TIP3    H1 4623   6.173   5.843   5.114
 1560TIP3    H2 4624   6.091   5.793   4.997
 1561TIP3   OH2 4625   3.383   7.266   2.650
 1561TIP3    H1 4626   3.429   7.305   2.725
 1561TIP3    H2 4627   3.325   7.201   2.688
 1562TIP3   OH2 4628   5.173   1.102   2.125
 1562TIP3    H1 4629   5.154   1.026   2.180
 1562TIP3    H2 4630   5.260   1.130   2.152
 1563TIP3   OH2 4631   4.713   4.945   5.356
 1563TIP3    H1 4632   4.699   4.994   5.437
 1563TIP3    H2 4633   4.632   4.896   5.342
 1564TIP3   OH2 4634   5.263   3.024   4.147
 1564TIP3    H1 4635   5.189   2.971   4.117
 1564TIP3    H2 4636   5.290   3.073   4.070
 1565TIP3   OH2 4637   8.085   0.393   2.474
 1565TIP3    H1 4638   8.128   0.445   2.406
 1565TIP3    H2 4639   8.010   0.354   2.429
 1566TIP3   OH2 4640   3.846   2.732   5.706
 1566TIP3    H1 4641   3.908   2.696   5.643
 1566TIP3    H2 4642   3.780   2.776   5.652
 1567TIP3   OH2 4643   2.767   3.151   6.063
 1567TIP3    H1 4644   2.783   3.070   6.015
 1567TIP3    H2 4645   2.675   3.171   6.047
 1568TIP3   OH2 4646   4.177   0.426   0.821
 1568TIP3    H1 4647   4.087   0.452   0.841
 1568TIP3    H2 4648   4.186   0.339   0.862
 1569TIP3   OH2 4649   7.763   7.733   0.121
 1569TIP3    H1 4650   7.794   7.724   0.211
 1569TIP3    H2 4651   7.754   7.827   0.107
 1570TIP3   OH2 4652   6.907   4.654   3.991
 1570TIP3    H1 4653   6.925   4.707   4.068
 1570TIP3    H2 4654   6.968   4.581   3.998
 1571TIP3   OH2 4655   5.505   6.661   2.939
 1571TIP3    H1 4656   5.468   6.749   2.932
 1571TIP3    H2 4657   5.448   6.616   3.002
 1572TIP3   OH2 4658   5.668   1.893   1.824
 1572TIP3    H1 4659   5.653   1.819   1.766
 1572TIP3    H2 4660   5.582   1.932   1.837
 1573TIP3   OH2 4661   6.653   6.799   2.152
 1573TIP3    H1 4662   6.715   6.773   2.083
 1573TIP3    H2 4663   6.706   6.850   2.213
 1574TIP3   OH2 4664   1.094   0.959   5.038
 1574TIP3    H1 4665   1.143   0.910   4.972
 1574TIP3    H2 4666   1.068   1.040   4.994
 1575TIP3   OH2 4667   1.798   5.318   5.048
 1575TIP3    H1 4668   1.809   5.277   5.134
 1575TIP3    H2 4669   1.838   5.404   5.057
 1576TIP3   OH2 4670   6.043   0.099   1.349
 1576TIP3    H1 4671   5.963   0.099   1.297
 1576TIP3    H2 4672   6.100   0.162   1.303
 1577TIP3   OH2 4673   1.416   1.890   0.235
 1577TIP3    H1 4674   1.365   1.862   0.159
 1577TIP3    H2 4675   1.505   1.902   0.201
 1578TIP3   OH2 4676   3.341   3.680   1.120
 1578TIP3    H1 4677   3.373   3.657   1.207
 1578TIP3    H2 4678   3.418   3.716   1.075
 1579TIP3   OH2 4679   5.067   1.964   5.628
 1579TIP3    H1 4680   5.057   2.035   5.691
 1579TIP3    H2 4681   5.035   2.000   5.545
 1580TIP3   OH2 4682   0.831   6.960   1.476
 1580TIP3    H1 4683   0.904   6.922   1.525
 1580TIP3    H2 4684   0.872   7.014   1.408
 1581TIP3   OH2 4685   5.586   5.979   6.198
 1581TIP3    H1 4686   5.601   5.893   6.159
 1581TIP3    H2 4687   5.491   5.991   6.196
 1582TIP3   OH2 4688   1.224   7.224   5.861
 1582TIP3    H1 4689   1.221   7.174   5.779
 1582TIP3    H2 4690   1.211   7.315   5.834
 1583TIP3   OH2 4691   7.229   5.071   0.388
 1583TIP3    H1 4692   7.165   5.138   0.413
 1583TIP3    H2 4693   7.229   5.073   0.292
 1584TIP3   OH2 4694   4.130   5.853   0.113
 1584TIP3    H1 4695   4.098   5.898   0.035
 1584TIP3    H2 4696   4.056   5.855   0.173
 1585TIP3   OH2 4697   4.906   1.389   2.790
 1585TIP3    H1 4698   4.927   1.457   2.855
 1585TIP3    H2 4699   4.811   1.396   2.778
 1586TIP3   OH2 4700   4.819   7.042   2.908
 1586TIP3    H1 4701   4.881   7.055   2.836
 1586TIP3    H2 4702   4.738   7.013   2.866
 1587TIP3   OH2 4703   1.252   7.672   2.820
 1587TIP3    H1 4704   1.327   7.642   2.871
 1587TIP3    H2 4705   1.240   7.603   2.754
 1588TIP3   OH2 4706   3.550   3.191   2.406
 1588TIP3    H1 4707   3.554   3.264   2.343
 1588TIP3    H2 4708   3.592   3.118   2.362
 1589TIP3   OH2 4709   1.402   3.205   3.521
 1589TIP3    H1 4710   1.451   3.131   3.558
 1589TIP3    H2 4711   1.453   3.282   3.544
 1590TIP3   OH2 4712   3.172   5.435   2.383
 1590TIP3    H1 4713   3.115   5.370   2.425
 1590TIP3    H2 4714   3.260   5.414   2.415
 1591TIP3   OH2 4715   1.980   4.284   1.319
 1591TIP3    H1 4716   2.057   4.314   1.271
 1591TIP3    H2 4717   1.959   4.199   1.281
 1592TIP3   OH2 4718   0.179   3.822   4.471
 1592TIP3    H1 4719   0.169   3.738   4.425
 1592TIP3    H2 4720   0.093   3.838   4.510
 1593TIP3   OH2 4721   3.947   0.101   4.247
 1593TIP3    H1 4722   3.907   0.187   4.263
 1593TIP3    H2 4723   3.908   0.071   4.165
 1594TIP3   OH2 4724   6.332   1.743   4.524
 1594TIP3    H1 4725   6.295   1.677   4.466
 1594TIP3    H2 4726   6.426   1.727   4.523
 1595TIP3   OH2 4727   7.535   3.889   4.427
 1595TIP3    H1 4728   7.558   3.823   4.362
 1595TIP3    H2 4729   7.455   3.856   4.468
 1596TIP3   OH2 4730   6.760   3.287   1.343
 1596TIP3    H1 4731   6.672   3.325   1.335
 1596TIP3    H2 4732   6.813   3.359   1.377
 1597TIP3   OH2 4733   7.472   4.713   2.361
 1597TIP3    H1 4734   7.426   4.715   2.445
 1597TIP3    H2 4735   7.564   4.724   2.383
 1598TIP3   OH2 4736   6.582   6.604   2.964
 1598TIP3    H1 4737   6.533   6.686   2.957
 1598TIP3    H2 4738   6.609   6.601   3.056
 1599TIP3   OH2 4739   1.549   7.810   2.148
 1599TIP3    H1 4740   1.603   7.863   2.207
 1599TIP3    H2 4741   1.611   7.755   2.101
 1600TIP3   OH2 4742   7.785   0.964   4.526
 1600TIP3    H1 4743   7.852   0.942   4.462
 1600TIP3    H2 4744   7.767   0.881   4.571
 1601TIP3   OH2 4745   5.363   7.207   0.165
 1601TIP3    H1 4746   5.411   7.290   0.167
 1601TIP3    H2 4747   5.360   7.179   0.257
 1602TIP3   OH2 4748   4.934   3.494   5.549
 1602TIP3    H1 4749   4.861   3.494   5.612
 1602TIP3    H2 4750   5.012   3.499   5.603
 1603TIP3   OH2 4751   3.791   0.538   0.657
 1603TIP3    H1 4752   3.875   0.521   0.615
 1603TIP3    H2 4753   3.806   0.615   0.711
 1604TIP3   OH2 4754   0.269   5.227   3.455
 1604TIP3    H1 4755   0.351   5.272   3.471
 1604TIP3    H2 4756   0.205   5.271   3.510
 1605TIP3   OH2 4757   2.765   3.482   3.611
 1605TIP3    H1 4758   2.695   3.416   3.611
 1605TIP3    H2 4759   2.832   3.445   3.554
 1606TIP3   OH2 4760   2.530   6.489   2.395
 1606TIP3    H1 4761   2.491   6.572   2.424
 1606TIP3    H2 4762   2.608   6.515   2.347
 1607TIP3   OH2 4763   8.120   1.993   0.768
 1607TIP3    H1 4764   8.161   1.932   0.830
 1607TIP3    H2 4765   8.084   2.063   0.823
 1608TIP3   OH2 4766   6.669   0.788   0.725
 1608TIP3    H1 4767   6.753   0.744   0.735
 1608TIP3    H2 4768   6.651   0.825   0.811
 1609TIP3   OH2 4769   4.495   5.824   3.517
 1609TIP3    H1 4770   4.440   5.847   3.441
 1609TIP3    H2 4771   4.526   5.736   3.497
 1610TIP3   OH2 4772   5.340   3.095   4.847
 1610TIP3    H1 4773   5.305   3.016   4.805
 1610TIP3    H2 4774   5.375   3.064   4.931
 1611TIP3   OH2 4775   8.246   3.608   3.065
 1611TIP3    H1 4776   8.226   3.514   3.058
 1611TIP3    H2 4777   8.184   3.640   3.131
 1612TIP3   OH2 4778   0.058   5.841   5.218
 1612TIP3    H1 4779   0.035   5.796   5.299
 1612TIP3    H2 4780  -0.011   5.817   5.156
 1613TIP3   OH2 4781   1.109   7.436   1.066
 1613TIP3    H1 4782   1.023   7.460   1.032
 1613TIP3    H2 4783   1.107   7.462   1.158
 1614TIP3   OH2 4784   0.295   4.762   0.452
 1614TIP3    H1 4785   0.284   4.729   0.363
 1614TIP3    H2 4786   0.272   4.855   0.447
 1615TIP3   OH2 4787   4.212   1.441   0.716
 1615TIP3    H1 4788   4.170   1.519   0.753
 1615TIP3    H2 4789   4.192   1.371   0.778
 1616TIP3   OH2 4790   2.291   6.460   1.817
 1616TIP3    H1 4791   2.255   6.446   1.729
 1616TIP3    H2 4792   2.350   6.535   1.806
 1617TIP3   OH2 4793   6.544   3.480   1.387
 1617TIP3    H1 4794   6.563   3.570   1.362
 1617TIP3    H2 4795   6.603   3.463   1.461
 1618TIP3   OH2 4796   1.496   7.247   6.797
 1618TIP3    H1 4797   1.497   7.187   6.723
 1618TIP3    H2 4798   1.429   7.312   6.775
 1619TIP3   OH2 4799   5.362   6.410   4.869
 1619TIP3    H1 4800   5.304   6.383   4.797
 1619TIP3    H2 4801   5.312   6.390   4.948
 1620TIP3   OH2 4802   2.665   6.356   1.174
 1620TIP3    H1 4803   2.700   6.284   1.123
 1620TIP3    H2 4804   2.633   6.316   1.255
 1621TIP3   OH2 4805   7.369   3.889   6.015
 1621TIP3    H1 4806   7.462   3.885   6.037
 1621TIP3    H2 4807   7.366   3.879   5.920
 1622TIP3   OH2 4808   0.158   2.254   2.606
 1622TIP3    H1 4809   0.160   2.321   2.675
 1622TIP3    H2 4810   0.243   2.263   2.562
 1623TIP3   OH2 4811   1.259   2.396   5.698
 1623TIP3    H1 4812   1.315   2.403   5.775
 1623TIP3    H2 4813   1.238   2.303   5.691
 1624TIP3   OH2 4814   7.350   2.710   4.198
 1624TIP3    H1 4815   7.295   2.635   4.221
 1624TIP3    H2 4816   7.349   2.765   4.276
 1625TIP3   OH2 4817   7.760   6.289   1.848
 1625TIP3    H1 4818   7.823   6.237   1.897
 1625TIP3    H2 4819   7.725   6.229   1.782
 1626TIP3   OH2 4820   1.704   5.290   4.784
 1626TIP3    H1 4821   1.741   5.323   4.866
 1626TIP3    H2 4822   1.690   5.197   4.799
 1627TIP3   OH2 4823   0.216   6.534   0.233
 1627TIP3    H1 4824   0.177   6.460   0.279
 1627TIP3    H2 4825   0.294   6.498   0.191
 1628TIP3   OH2 4826   2.758   3.030   4.592
 1628TIP3    H1 4827   2.783   2.947   4.632
 1628TIP3    H2 4828   2.813   3.095   4.636
 1629TIP3   OH2 4829   0.149   2.380   3.017
 1629TIP3    H1 4830   0.087   2.389   3.090
 1629TIP3    H2 4831   0.212   2.315   3.048
 1630TIP3   OH2 4832   3.921   3.159   0.664
 1630TIP3    H1 4833   3.835   3.195   0.640
 1630TIP3    H2 4834   3.976   3.236   0.678
 1631TIP3   OH2 4835   0.298   1.656   2.009
 1631TIP3    H1 4836   0.261   1.590   2.067
 1631TIP3    H2 4837   0.222   1.690   1.960
 1632TIP3   OH2 4838   2.623   5.631   6.565
 1632TIP3    H1 4839   2.583   5.611   6.650
 1632TIP3    H2 4840   2.556   5.608   6.501
 1633TIP3   OH2 4841   6.133   0.135   0.406
 1633TIP3    H1 4842   6.106   0.143   0.314
 1633TIP3    H2 4843   6.220   0.175   0.409
 1634TIP3   OH2 4844   0.094   6.818   2.244
 1634TIP3    H1 4845   0.000   6.831   2.229
 1634TIP3    H2 4846   0.132   6.905   2.234
 1635TIP3   OH2 4847   4.412   2.560   0.948
 1635TIP3    H1 4848   4.321   2.535   0.931
 1635TIP3    H2 4849   4.429   2.632   0.887
 1636TIP3   OH2 4850   4.410   2.600   3.899
 1636TIP3    H1 4851   4.454   2.598   3.814
 1636TIP3    H2 4852   4.368   2.686   3.902
 1637TIP3   OH2 4853   1.336   6.482   4.514
 1637TIP3    H1 4854   1.344   6.567   4.558
 1637TIP3    H2 4855   1.352   6.501   4.422
 1638TIP3   OH2 4856   2.476   2.794   2.125
 1638TIP3    H1 4857   2.509   2.878   2.157
 1638TIP3    H2 4858   2.547   2.732   2.141
 1639TIP3   OH2 4859   6.937   4.746   6.155
 1639TIP3    H1 4860   6.961   4.772   6.066
 1639TIP3    H2 4861   7.007   4.782   6.210
 1640TIP3   OH2 4862   1.415   1.366   5.021
 1640TIP3    H1 4863   1.432   1.274   5.038
 1640TIP3    H2 4864   1.489   1.396   4.969
 1641TIP3   OH2 4865   4.907   1.706   4.963
 1641TIP3    H1 4866   4.998   1.707   4.933
 1641TIP3    H2 4867   4.908   1.652   5.043
 1642TIP3   OH2 4868   7.013   0.402   3.968
 1642TIP3    H1 4869   7.081   0.444   3.915
 1642TIP3    H2 4870   6.948   0.470   3.983
 1643TIP3   OH2 4871   3.672   3.046   1.919
 1643TIP3    H1 4872   3.684   3.005   1.833
 1643TIP3    H2 4873   3.680   3.140   1.901
 1644TIP3   OH2 4874   5.288   5.676   3.684
 1644TIP3    H1 4875   5.314   5.659   3.774
 1644TIP3    H2 4876   5.316   5.766   3.667
 1645TIP3   OH2 4877   2.164   1.800   3.650
 1645TIP3    H1 4878   2.199   1.757   3.572
 1645TIP3    H2 4879   2.091   1.744   3.677
 1646TIP3   OH2 4880   6.174   2.937   4.416
 1646TIP3    H1 4881   6.079   2.933   4.421
 1646TIP3    H2 4882   6.200   2.850   4.386
 1647TIP3   OH2 4883   7.221   1.260   2.304
 1647TIP3    H1 4884   7.304   1.213   2.312
 1647TIP3    H2 4885   7.157   1.201   2.343
 1648TIP3   OH2 4886   8.175   7.171   3.330
 1648TIP3    H1 4887   8.212   7.160   3.242
 1648TIP3    H2 4888   8.244   7.215   3.380
 1649TIP3   OH2 4889   7.410   4.442   1.715
 1649TIP3    H1 4890   7.465   4.373   1.678
 1649TIP3    H2 4891   7.325   4.400   1.727
 1650TIP3   OH2 4892   4.529   1.958   0.869
 1650TIP3    H1 4893   4.482   1.895   0.924
 1650TIP3    H2 4894   4.504   2.044   0.903
 1651TIP3   OH2 4895   5.405   7.465   3.763
 1651TIP3    H1 4896   5.319   7.488   3.728
 1651TIP3    H2 4897   5.417   7.525   3.837
 1652TIP3   OH2 4898   0.320   5.222   5.965
 1652TIP3    H1 4899   0.306   5.169   5.886
 1652TIP3    H2 4900   0.234   5.259   5.985
 1653TIP3   OH2 4901   6.922   3.053   1.782
 1653TIP3    H1 4902   6.985   3.042   1.711
 1653TIP3    H2 4903   6.962   3.119   1.839
 1654TIP3   OH2 4904   3.023   6.034   5.087
 1654TIP3    H1 4905   3.044   5.989   5.169
 1654TIP3    H2 4906   2.980   6.115   5.115
 1655TIP3   OH2 4907   7.740   6.406   4.983
 1655TIP3    H1 4908   7.715   6.319   5.013
 1655TIP3    H2 4909   7.690   6.466   5.038
 1656TIP3   OH2 4910   5.619   4.679   0.883
 1656TIP3    H1 4911   5.552   4.624   0.842
 1656TIP3    H2 4912   5.698   4.625   0.883
 1657TIP3   OH2 4913   4.379   4.961   2.114
 1657TIP3    H1 4914   4.354   5.051   2.131
 1657TIP3    H2 4915   4.420   4.931   2.194
 1658TIP3   OH2 4916   0.408   7.102   5.737
 1658TIP3    H1 4917   0.467   7.134   5.668
 1658TIP3    H2 4918   0.462   7.042   5.789
 1659TIP3   OH2 4919   6.767   5.735   5.407
 1659TIP3    H1 4920   6.854   5.704   5.435
 1659TIP3    H2 4921   6.719   5.748   5.488
 1660TIP3   OH2 4922   7.277   5.227   3.312
 1660TIP3    H1 4923   7.288   5.317   3.343
 1660TIP3    H2 4924   7.312   5.228   3.223
 1661TIP3   OH2 4925   2.134   1.058   5.245
 1661TIP3    H1 4926   2.047   1.022   5.265
 1661TIP3    H2 4927   2.186   1.040   5.323
 1662TIP3   OH2 4928   5.990   6.358   2.029
 1662TIP3    H1 4929   5.947   6.273   2.017
 1662TIP3    H2 4930   6.047   6.367   1.953
 1663TIP3   OH2 4931   4.438   5.480   4.929
 1663TIP3    H1 4932   4.527   5.478   4.894
 1663TIP3    H2 4933   4.383   5.454   4.855
 1664TIP3   OH2 4934   1.793   3.975   6.053
 1664TIP3    H1 4935   1.751   4.057   6.029
 1664TIP3    H2 4936   1.884   3.998   6.072
 1665TIP3   OH2 4937   1.472   4.903   4.709
 1665TIP3    H1 4938   1.559   4.938   4.728
 1665TIP3    H2 4939   1.421   4.980   4.684
 1666TIP3   OH2 4940   2.291   4.538   1.806
 1666TIP3    H1 4941   2.239   4.610   1.770
 1666TIP3    H2 4942   2.241   4.459   1.785
 1667TIP3   OH2 4943   5.148   3.085   6.109
 1667TIP3    H1 4944   5.170   2.992   6.101
 1667TIP3    H2 4945   5.150   3.117   6.019
 1668TIP3   OH2 4946   7.210   0.891   2.882
 1668TIP3    H1 4947   7.122   0.897   2.920
 1668TIP3    H2 4948   7.265   0.859   2.953
 1669TIP3   OH2 4949   1.324   6.691   5.652
 1669TIP3    H1 4950   1.249   6.632   5.662
 1669TIP3    H2 4951   1.325   6.742   5.733
 1670TIP3   OH2 4952   5.500   7.182   3.482
 1670TIP3    H1 4953   5.545   7.267   3.475
 1670TIP3    H2 4954   5.518   7.138   3.399
 1671TIP3   OH2 4955   3.553   7.329   4.067
 1671TIP3    H1 4956   3.629   7.352   4.013
 1671TIP3    H2 4957   3.505   7.265   4.015
 1672TIP3   OH2 4958   6.781   2.455   5.594
 1672TIP3    H1 4959   6.822   2.419   5.673
 1672TIP3    H2 4960   6.690   2.427   5.600
 1673TIP3   OH2 4961   8.130   2.059   5.109
 1673TIP3    H1 4962   8.111   2.017   5.193
 1673TIP3    H2 4963   8.048   2.103   5.084
 1674TIP3   OH2 4964   4.619   2.966   5.388
 1674TIP3    H1 4965   4.578   3.052   5.387
 1674TIP3    H2 4966   4.641   2.948   5.297
 1675TIP3   OH2 4967   1.714   6.815   4.902
 1675TIP3    H1 4968   1.728   6.863   4.821
 1675TIP3    H2 4969   1.641   6.860   4.945
 1676TIP3   OH2 4970   7.666   4.145   0.986
 1676TIP3    H1 4971   7.714   4.131   0.905
 1676TIP3    H2 4972   7.626   4.061   1.006
 1677TIP3   OH2 4973   0.152   7.308   6.585
 1677TIP3    H1 4974   0.138   7.380   6.523
 1677TIP3    H2 4975   0.177   7.351   6.667
 1678TIP3   OH2 4976   2.440   1.821   3.695
 1678TIP3    H1 4977   2.365   1.795   3.749
 1678TIP3    H2 4978   2.419   1.909   3.665
 1679TIP3   OH2 4979   1.862   6.411   5.119
 1679TIP3    H1 4980   1.902   6.325   5.102
 1679TIP3    H2 4981   1.882   6.428   5.211
 1680TIP3   OH2 4982   5.570   3.153   5.835
 1680TIP3    H1 4983   5.567   3.075   5.890
 1680TIP3    H2 4984   5.659   3.187   5.846
 1681TIP3   OH2 4985   6.643   7.714   0.856
 1681TIP3    H1 4986   6.703   7.674   0.793
 1681TIP3    H2 4987   6.556   7.688   0.826
 1682TIP3   OH2 4988   6.853   7.103   6.579
 1682TIP3    H1 4989   6.936   7.082   6.536
 1682TIP3    H2 4990   6.821   7.181   6.533
 1683TIP3   OH2 4991   3.339   6.104   0.123
 1683TIP3    H1 4992   3.370   6.177   0.069
 1683TIP3    H2 4993   3.252   6.084   0.089
 1684TIP3   OH2 4994   0.786   1.242   0.405
 1684TIP3    H1 4995   0.763   1.330   0.375
 1684TIP3    H2 4996   0.722   1.185   0.362
 1685TIP3   OH2 4997   3.287   2.178   6.414
 1685TIP3    H1 4998   3.210   2.186   6.471
 1685TIP3    H2 4999   3.344   2.117   6.460
 1686TIP3   OH2 5000   2.860   7.341   5.235
 1686TIP3    H1 5001   2.922   7.397   5.281
 1686TIP3    H2 5002   2.838   7.389   5.155
 1687TIP3   OH2 5003   6.478   0.078   3.468
 1687TIP3    H1 5004   6.412   0.131   3.514
 1687TIP3    H2 5005   6.514   0.137   3.402
 1688TIP3   OH2 5006   7.136   5.299   1.385
 1688TIP3    H1 5007   7.130   5.206   1.363
 1688TIP3    H2 5008   7.163   5.341   1.303
 1689TIP3   OH2 5009   2.494   3.395   5.115
 1689TIP3    H1 5010   2.568   3.430   5.167
 1689TIP3    H2 5011   2.511   3.426   5.026
 1690TIP3   OH2 5012   6.728   1.922   2.363
 1690TIP3    H1 5013   6.711   1.983   2.291
 1690TIP3    H2 5014   6.676   1.844   2.341
 1691TIP3   OH2 5015   6.267   6.825   1.468
 1691TIP3    H1 5016   6.184   6.871   1.478
 1691TIP3    H2 5017   6.321   6.856   1.540
 1692TIP3   OH2 5018   1.426   1.825   5.381
 1692TIP3    H1 5019   1.436   1.874   5.300
 1692TIP3    H2 5020   1.427   1.733   5.355
 1693TIP3   OH2 5021   1.276   7.541   6.434
 1693TIP3    H1 5022   1.330   7.564   6.509
 1693TIP3    H2 5023   1.310   7.456   6.405
 1694TIP3   OH2 5024   4.212   2.806   5.242
 1694TIP3    H1 5025   4.269   2.793   5.318
 1694TIP3    H2 5026   4.140   2.860   5.276
 1695TIP3   OH2 5027   8.137   4.468   6.534
 1695TIP3    H1 5028   8.076   4.396   6.517
 1695TIP3    H2 5029   8.128   4.524   6.457
 1696TIP3   OH2 5030   5.600   5.067   3.552
 1696TIP3    H1 5031   5.555   5.015   3.485
 1696TIP3    H2 5032   5.643   5.138   3.504
 1697TIP3   OH2 5033   3.731   2.520   6.250
 1697TIP3    H1 5034   3.637   2.522   6.228
 1697TIP3    H2 5035   3.739   2.577   6.326
 1698TIP3   OH2 5036   7.972   2.261   2.835
 1698TIP3    H1 5037   8.061   2.296   2.829
 1698TIP3    H2 5038   7.916   2.339   2.834
 1699TIP3   OH2 5039   5.958   7.044   2.586
 1699TIP3    H1 5040   5.884   7.079   2.536
 1699TIP3    H2 5041   6.015   7.120   2.600
 1700TIP3   OH2 5042   7.509   4.556   3.327
 1700TIP3    H1 5043   7.513   4.560   3.423
 1700TIP3    H2 5044   7.432   4.608   3.305
 1701TIP3   OH2 5045   7.025   3.739   6.339
 1701TIP3    H1 5046   7.100   3.789   6.307
 1701TIP3    H2 5047   6.950   3.797   6.326
 1702TIP3   OH2 5048   7.199   1.701   3.576
 1702TIP3    H1 5049   7.257   1.755   3.630
 1702TIP3    H2 5050   7.172   1.759   3.504
 1703TIP3   OH2 5051   3.459   5.570   3.398
 1703TIP3    H1 5052   3.411   5.503   3.349
 1703TIP3    H2 5053   3.423   5.652   3.367
 1704TIP3   OH2 5054   7.471   5.238   5.831
 1704TIP3    H1 5055   7.476   5.265   5.739
 1704TIP3    H2 5056   7.501   5.314   5.881
 1705TIP3   OH2 5057   2.082   7.709   3.544
 1705TIP3    H1 5058   2.092   7.792   3.497
 1705TIP3    H2 5059   2.001   7.672   3.507
 1706TIP3   OH2 5060   6.603   7.608   1.104
 1706TIP3    H1 5061   6.616   7.678   1.041
 1706TIP3    H2 5062   6.684   7.605   1.155
 1707TIP3   OH2 5063   6.453   2.592   6.408
 1707TIP3    H1 5064   6.540   2.586   6.369
 1707TIP3    H2 5065   6.445   2.683   6.437
 1708TIP3   OH2 5066   5.432   2.708   3.538
 1708TIP3    H1 5067   5.476   2.707   3.453
 1708TIP3    H2 5068   5.376   2.630   3.537
 1709TIP3   OH2 5069   6.342   5.553   5.682
 1709TIP3    H1 5070   6.247   5.551   5.688
 1709TIP3    H2 5071   6.360   5.582   5.592
 1710TIP3   OH2 5072   2.849   5.433   4.199
 1710TIP3    H1 5073   2.774   5.376   4.183
 1710TIP3    H2 5074   2.836   5.466   4.288
 1711TIP3   OH2 5075   6.212   6.538   3.340
 1711TIP3    H1 5076   6.259   6.489   3.408
 1711TIP3    H2 5077   6.249   6.505   3.258
 1712TIP3   OH2 5078   0.530   5.862   0.708
 1712TIP3    H1 5079   0.495   5.773   0.696
 1712TIP3    H2 5080   0.514   5.905   0.624
 1713TIP3   OH2 5081   2.419   1.564   2.772
 1713TIP3    H1 5082   2.386   1.598   2.855
 1713TIP3    H2 5083   2.343   1.520   2.733
 1714TIP3   OH2 5084   5.854   0.582   3.070
 1714TIP3    H1 5085   5.894   0.651   3.124
 1714TIP3    H2 5086   5.925   0.518   3.057
 1715TIP3   OH2 5087   3.296   4.401   1.380
 1715TIP3    H1 5088   3.369   4.362   1.428
 1715TIP3    H2 5089   3.247   4.325   1.347
 1716TIP3   OH2 5090   4.026   7.676   6.493
 1716TIP3    H1 5091   4.020   7.623   6.413
 1716TIP3    H2 5092   4.039   7.613   6.563
 1717TIP3   OH2 5093   2.890   3.033   5.370
 1717TIP3    H1 5094   2.949   3.053   5.442
 1717TIP3    H2 5095   2.823   3.101   5.374
 1718TIP3   OH2 5096   4.832   1.783   2.545
 1718TIP3    H1 5097   4.823   1.703   2.493
 1718TIP3    H2 5098   4.844   1.753   2.635
 1719TIP3   OH2 5099   0.384   0.649   2.254
 1719TIP3    H1 5100   0.441   0.628   2.180
 1719TIP3    H2 5101   0.295   0.639   2.220
 1720TIP3   OH2 5102   0.001   5.955   2.383
 1720TIP3    H1 5103  -0.080   5.975   2.428
 1720TIP3    H2 5104   0.058   5.917   2.450
 1721TIP3   OH2 5105   2.189   3.689   6.391
 1721TIP3    H1 5106   2.184   3.637   6.310
 1721TIP3    H2 5107   2.156   3.630   6.459
 1722TIP3   OH2 5108   3.322   4.988   6.401
 1722TIP3    H1 5109   3.391   5.009   6.463
 1722TIP3    H2 5110   3.362   4.998   6.315
 1723TIP3   OH2 5111   5.522   4.984   3.081
 1723TIP3    H1 5112   5.498   5.073   3.057
 1723TIP3    H2 5113   5.490   4.930   3.009
 1724TIP3   OH2 5114   2.275   3.202   2.145
 1724TIP3    H1 5115   2.345   3.166   2.091
 1724TIP3    H2 5116   2.209   3.133   2.148
 1725TIP3   OH2 5117   6.872   0.173   1.904
 1725TIP3    H1 5118   6.933   0.102   1.882
 1725TIP3    H2 5119   6.805   0.130   1.958
 1726TIP3   OH2 5120   3.662   6.603   5.561
 1726TIP3    H1 5121   3.574   6.567   5.552
 1726TIP3    H2 5122   3.647   6.695   5.583
 1727TIP3   OH2 5123   2.204   3.822   1.199
 1727TIP3    H1 5124   2.237   3.745   1.244
 1727TIP3    H2 5125   2.111   3.826   1.222
 1728TIP3   OH2 5126   7.241   1.396   6.339
 1728TIP3    H1 5127   7.308   1.328   6.340
 1728TIP3    H2 5128   7.274   1.460   6.276
 1729TIP3   OH2 5129   6.137   1.777   1.722
 1729TIP3    H1 5130   6.083   1.775   1.801
 1729TIP3    H2 5131   6.213   1.830   1.747
 1730TIP3   OH2 5132   6.199   0.738   4.809
 1730TIP3    H1 5133   6.151   0.750   4.727
 1730TIP3    H2 5134   6.291   0.745   4.784
 1731TIP3   OH2 5135   1.931   2.895   5.099
 1731TIP3    H1 5136   2.005   2.931   5.147
 1731TIP3    H2 5137   1.954   2.904   5.007
 1732TIP3   OH2 5138   0.146   4.539   4.530
 1732TIP3    H1 5139   0.204   4.502   4.598
 1732TIP3    H2 5140   0.089   4.466   4.506
 1733TIP3   OH2 5141   0.569   3.406   1.121
 1733TIP3    H1 5142   0.494   3.347   1.127
 1733TIP3    H2 5143   0.615   3.378   1.042
 1734TIP3   OH2 5144   6.417   4.224   0.183
 1734TIP3    H1 5145   6.327   4.246   0.161
 1734TIP3    H2 5146   6.460   4.309   0.195
 1735TIP3   OH2 5147   6.222   5.712   2.230
 1735TIP3    H1 5148   6.229   5.631   2.178
 1735TIP3    H2 5149   6.199   5.779   2.166
 1736TIP3   OH2 5150   2.506   0.290   3.552
 1736TIP3    H1 5151   2.473   0.348   3.484
 1736TIP3    H2 5152   2.599   0.311   3.559
 1737TIP3   OH2 5153   6.724   4.755   1.893
 1737TIP3    H1 5154   6.679   4.709   1.964
 1737TIP3    H2 5155   6.726   4.692   1.821
 1738TIP3   OH2 5156   0.910   1.549   4.158
 1738TIP3    H1 5157   0.924   1.597   4.240
 1738TIP3    H2 5158   0.841   1.486   4.179
 1739TIP3   OH2 5159   3.176   7.081   2.717
 1739TIP3    H1 5160   3.155   7.002   2.668
 1739TIP3    H2 5161   3.147   7.063   2.807
 1740TIP3   OH2 5162   6.743   5.906   1.341
 1740TIP3    H1 5163   6.701   5.991   1.353
 1740TIP3    H2 5164   6.708   5.872   1.259
 1741TIP3   OH2 5165   8.096   0.211   3.457
 1741TIP3    H1 5166   8.180   0.220   3.502
 1741TIP3    H2 5167   8.031   0.228   3.525
 1742TIP3   OH2 5168   4.311   0.153   5.355
 1742TIP3    H1 5169   4.346   0.158   5.266
 1742TIP3    H2 5170   4.240   0.218   5.357
 1743TIP3   OH2 5171   0.683   2.800   5.549
 1743TIP3    H1 5172   0.669   2.894   5.543
 1743TIP3    H2 5173   0.692   2.782   5.643
 1744TIP3   OH2 5174   2.815   6.082   0.062
 1744TIP3    H1 5175   2.798   6.160   0.114
 1744TIP3    H2 5176   2.742   6.077   0.000
 1745TIP3   OH2 5177   5.846   0.241   4.883
 1745TIP3    H1 5178   5.883   0.269   4.967
 1745TIP3    H2 5179   5.848   0.320   4.829
 1746TIP3   OH2 5180   5.337   5.719   0.178
 1746TIP3    H1 5181   5.362   5.641   0.228
 1746TIP3    H2 5182   5.291   5.685   0.102
 1747TIP3   OH2 5183   6.871   7.572   1.205
 1747TIP3    H1 5184   6.870   7.599   1.297
 1747TIP3    H2 5185   6.918   7.642   1.160
 1748TIP3   OH2 5186   5.315   0.773   2.458
 1748TIP3    H1 5187   5.281   0.783   2.547
 1748TIP3    H2 5188   5.376   0.846   2.447
 1749TIP3   OH2 5189   4.147   5.076   3.905
 1749TIP3    H1 5190   4.196   5.120   3.975
 1749TIP3    H2 5191   4.209   5.067   3.833
 1750TIP3   OH2 5192   6.064   2.585   4.167
 1750TIP3    H1 5193   6.047   2.518   4.234
 1750TIP3    H2 5194   6.149   2.622   4.193
 1751TIP3   OH2 5195   4.605   3.094   4.927
 1751TIP3    H1 5196   4.541   3.034   4.889
 1751TIP3    H2 5197   4.639   3.047   5.004
 1752TIP3   OH2 5198   4.334   0.950   2.751
 1752TIP3    H1 5199   4.397   0.970   2.682
 1752TIP3    H2 5200   4.259   0.913   2.705
 1753TIP3   OH2 5201   0.702   5.519   1.652
 1753TIP3    H1 5202   0.694   5.608   1.685
 1753TIP3    H2 5203   0.617   5.479   1.669
 1754TIP3   OH2 5204   7.917   5.485   2.160
 1754TIP3    H1 5205   7.939   5.396   2.188
 1754TIP3    H2 5206   7.986   5.508   2.098
 1755TIP3   OH2 5207   1.801   1.756   6.153
 1755TIP3    H1 5208   1.796   1.767   6.248
 1755TIP3    H2 5209   1.853   1.830   6.122
 1756TIP3   OH2 5210   4.547   6.798   3.559
 1756TIP3    H1 5211   4.598   6.864   3.514
 1756TIP3    H2 5212   4.469   6.845   3.590
 1757TIP3   OH2 5213   0.844   4.626   2.768
 1757TIP3    H1 5214   0.766   4.596   2.816
 1757TIP3    H2 5215   0.817   4.627   2.677
 1758TIP3   OH2 5216   1.313   6.643   6.054
 1758TIP3    H1 5217   1.242   6.694   6.093
 1758TIP3    H2 5218   1.390   6.666   6.107
 1759TIP3   OH2 5219   3.182   6.226   0.437
 1759TIP3    H1 5220   3.166   6.278   0.516
 1759TIP3    H2 5221   3.238   6.281   0.383
 1760TIP3   OH2 5222   3.439   0.077   6.495
 1760TIP3    H1 5223   3.352   0.093   6.530
 1760TIP3    H2 5224   3.499   0.102   6.566
 1761TIP3   OH2 5225   0.390   2.986   0.291
 1761TIP3    H1 5226   0.400   2.911   0.232
 1761TIP3    H2 5227   0.408   3.062   0.235
 1762TIP3   OH2 5228   5.717   7.797   2.116
 1762TIP3    H1 5229   5.635   7.837   2.087
 1762TIP3    H2 5230   5.774   7.801   2.039
 1763TIP3   OH2 5231   6.990   5.212   0.413
 1763TIP3    H1 5232   6.922   5.164   0.461
 1763TIP3    H2 5233   6.992   5.172   0.327
 1764TIP3   OH2 5234   4.135   1.443   4.155
 1764TIP3    H1 5235   4.182   1.432   4.073
 1764TIP3    H2 5236   4.045   1.463   4.130
 1765TIP3   OH2 5237   6.678   4.999   3.849
 1765TIP3    H1 5238   6.589   5.026   3.826
 1765TIP3    H2 5239   6.669   4.910   3.882
 1766TIP3   OH2 5240   5.731   6.265   3.704
 1766TIP3    H1 5241   5.783   6.199   3.749
 1766TIP3    H2 5242   5.713   6.227   3.618
 1767TIP3   OH2 5243   4.435   3.703   0.983
 1767TIP3    H1 5244   4.467   3.753   0.907
 1767TIP3    H2 5245   4.512   3.693   1.039
 1768TIP3   OH2 5246   5.470   5.737   2.172
 1768TIP3    H1 5247   5.465   5.705   2.082
 1768TIP3    H2 5248   5.419   5.674   2.223
 1769TIP3   OH2 5249   0.383   3.222   5.936
 1769TIP3    H1 5250   0.437   3.144   5.942
 1769TIP3    H2 5251   0.346   3.233   6.024
 1770TIP3   OH2 5252   6.418   4.365   3.306
 1770TIP3    H1 5253   6.335   4.341   3.264
 1770TIP3    H2 5254   6.392   4.396   3.393
 1771TIP3   OH2 5255   4.308   3.070   4.333
 1771TIP3    H1 5256   4.316   3.146   4.390
 1771TIP3    H2 5257   4.381   3.013   4.359
 1772TIP3   OH2 5258   5.130   3.584   2.538
 1772TIP3    H1 5259   5.089   3.550   2.459
 1772TIP3    H2 5260   5.183   3.658   2.507
 1773TIP3   OH2 5261   1.041   6.647   2.325
 1773TIP3    H1 5262   0.970   6.602   2.369
 1773TIP3    H2 5263   1.083   6.699   2.394
 1774TIP3   OH2 5264   6.653   6.738   0.277
 1774TIP3    H1 5265   6.746   6.717   0.270
 1774TIP3    H2 5266   6.638   6.747   0.371
 1775TIP3   OH2 5267   7.648   2.820   5.743
 1775TIP3    H1 5268   7.668   2.794   5.834
 1775TIP3    H2 5269   7.657   2.739   5.693
 1776TIP3   OH2 5270   2.842   6.870   5.013
 1776TIP3    H1 5271   2.878   6.940   5.067
 1776TIP3    H2 5272   2.773   6.911   4.963
 1777TIP3   OH2 5273   1.969   0.354   6.289
 1777TIP3    H1 5274   2.051   0.403   6.284
 1777TIP3    H2 5275   1.934   0.356   6.200
 1778TIP3   OH2 5276   6.196   1.120   5.043
 1778TIP3    H1 5277   6.149   1.196   5.007
 1778TIP3    H2 5278   6.281   1.121   4.999
 1779TIP3   OH2 5279   2.220   1.392   0.429
 1779TIP3    H1 5280   2.279   1.468   0.426
 1779TIP3    H2 5281   2.186   1.385   0.340
 1780TIP3   OH2 5282   2.983   0.421   5.004
 1780TIP3    H1 5283   2.990   0.372   5.086
 1780TIP3    H2 5284   2.890   0.443   4.997
 1781TIP3   OH2 5285   7.627   1.399   5.256
 1781TIP3    H1 5286   7.712   1.428   5.222
 1781TIP3    H2 5287   7.562   1.445   5.202
 1782TIP3   OH2 5288   6.287   1.042   0.307
 1782TIP3    H1 5289   6.320   1.027   0.219
 1782TIP3    H2 5290   6.243   0.960   0.331
 1783TIP3   OH2 5291   8.156   0.563   5.598
 1783TIP3    H1 5292   8.107   0.482   5.583
 1783TIP3    H2 5293   8.203   0.577   5.516
 1784TIP3   OH2 5294   1.220   3.284   1.842
 1784TIP3    H1 5295   1.182   3.197   1.844
 1784TIP3    H2 5296   1.186   3.327   1.920
 1785TIP3   OH2 5297   6.126   0.859   5.056
 1785TIP3    H1 5298   6.166   0.818   4.979
 1785TIP3    H2 5299   6.151   0.951   5.050
 1786TIP3   OH2 5300   6.141   4.308   1.446
 1786TIP3    H1 5301   6.225   4.309   1.399
 1786TIP3    H2 5302   6.110   4.398   1.442
 1787TIP3   OH2 5303   7.955   3.653   4.338
 1787TIP3    H1 5304   7.986   3.626   4.425
 1787TIP3    H2 5305   8.010   3.729   4.316
 1788TIP3   OH2 5306   7.732   1.965   5.394
 1788TIP3    H1 5307   7.689   1.918   5.322
 1788TIP3    H2 5308   7.688   2.050   5.396
 1789TIP3   OH2 5309   6.965   1.850   0.644
 1789TIP3    H1 5310   6.875   1.875   0.664
 1789TIP3    H2 5311   6.966   1.838   0.549
 1790TIP3   OH2 5312   0.955   1.142   0.044
 1790TIP3    H1 5313   1.010   1.089   0.103
 1790TIP3    H2 5314   0.944   1.225   0.089
 1791TIP3   OH2 5315   7.892   7.021   2.028
 1791TIP3    H1 5316   7.930   6.933   2.025
 1791TIP3    H2 5317   7.890   7.042   2.122
 1792TIP3   OH2 5318   4.874   3.227   3.184
 1792TIP3    H1 5319   4.916   3.209   3.268
 1792TIP3    H2 5320   4.795   3.172   3.184
 1793TIP3   OH2 5321   4.092   5.733   4.680
 1793TIP3    H1 5322   4.027   5.722   4.750
 1793TIP3    H2 5323   4.069   5.665   4.616
 1794TIP3   OH2 5324   0.119   1.775   3.781
 1794TIP3    H1 5325   0.060   1.791   3.707
 1794TIP3    H2 5326   0.180   1.709   3.750
 1795TIP3   OH2 5327   0.281   6.093   1.497
 1795TIP3    H1 5328   0.273   6.154   1.423
 1795TIP3    H2 5329   0.244   6.141   1.571
 1796TIP3   OH2 5330   2.846   2.243   6.292
 1796TIP3    H1 5331   2.834   2.336   6.276
 1796TIP3    H2 5332   2.903   2.213   6.222
 1797TIP3   OH2 5333   7.078   6.641   2.715
 1797TIP3    H1 5334   7.098   6.706   2.782
 1797TIP3    H2 5335   7.117   6.560   2.747
 1798TIP3   OH2 5336   0.067   5.838   2.624
 1798TIP3    H1 5337   0.121   5.878   2.692
 1798TIP3    H2 5338   0.027   5.762   2.667
 1799TIP3   OH2 5339   7.311   2.371   5.805
 1799TIP3    H1 5340   7.336   2.297   5.860
 1799TIP3    H2 5341   7.370   2.366   5.730
 1800TIP3   OH2 5342   8.055   6.444   4.074
 1800TIP3    H1 5343   8.138   6.403   4.099
 1800TIP3    H2 5344   8.068   6.537   4.094
 1801TIP3   OH2 5345   2.675   6.716   6.034
 1801TIP3    H1 5346   2.764   6.689   6.054
 1801TIP3    H2 5347   2.620   6.644   6.067
 1802TIP3   OH2 5348   3.495   5.260   0.434
 1802TIP3    H1 5349   3.454   5.217   0.508
 1802TIP3    H2 5350   3.453   5.221   0.357
 1803TIP3   OH2 5351   4.334   7.465   3.461
 1803TIP3    H1 5352   4.266   7.403   3.433
 1803TIP3    H2 5353   4.390   7.474   3.384
 1804TIP3   OH2 5354   1.947   1.302   4.555
 1804TIP3    H1 5355   2.026   1.287   4.504
 1804TIP3    H2 5356   1.950   1.236   4.625
 1805TIP3   OH2 5357   6.217   2.578   4.785
 1805TIP3    H1 5358   6.268   2.554   4.863
 1805TIP3    H2 5359   6.207   2.673   4.791
 1806TIP3   OH2 5360   5.545   1.265   0.519
 1806TIP3    H1 5361   5.547   1.213   0.599
 1806TIP3    H2 5362   5.565   1.202   0.449
 1807TIP3   OH2 5363   8.085   7.597   6.440
 1807TIP3    H1 5364   8.147   7.527   6.464
 1807TIP3    H2 5365   8.015   7.552   6.393
 1808TIP3   OH2 5366   3.079   5.515   0.480
 1808TIP3    H1 5367   3.173   5.532   0.488
 1808TIP3    H2 5368   3.050   5.572   0.410
 1809TIP3   OH2 5369   0.365   3.716   5.558
 1809TIP3    H1 5370   0.355   3.640   5.502
 1809TIP3    H2 5371   0.395   3.680   5.642
 1810TIP3   OH2 5372   6.143   1.124   5.907
 1810TIP3    H1 5373   6.088   1.108   5.831
 1810TIP3    H2 5374   6.220   1.070   5.894
 1811TIP3   OH2 5375   1.546   0.279   2.572
 1811TIP3    H1 5376   1.631   0.274   2.527
 1811TIP3    H2 5377   1.494   0.338   2.517
 1812TIP3   OH2 5378   3.249   0.390   2.282
 1812TIP3    H1 5379   3.207   0.315   2.324
 1812TIP3    H2 5380   3.313   0.420   2.346
 1813TIP3   OH2 5381   0.541   5.054   3.831
 1813TIP3    H1 5382   0.562   5.067   3.923
 1813TIP3    H2 5383   0.593   4.977   3.806
 1814TIP3   OH2 5384   5.751   4.996   3.232
 1814TIP3    H1 5385   5.664   4.981   3.196
 1814TIP3    H2 5386   5.810   4.949   3.172
 1815TIP3   OH2 5387   7.273   1.364   3.620
 1815TIP3    H1 5388   7.304   1.405   3.701
 1815TIP3    H2 5389   7.186   1.332   3.641
 1816TIP3   OH2 5390   3.394   1.619   4.134
 1816TIP3    H1 5391   3.487   1.612   4.156
 1816TIP3    H2 5392   3.380   1.551   4.068
 1817TIP3   OH2 5393   2.504   6.215   6.212
 1817TIP3    H1 5394   2.442   6.144   6.228
 1817TIP3    H2 5395   2.533   6.203   6.122
 1818TIP3   OH2 5396   7.487   7.588   3.054
 1818TIP3    H1 5397   7.398   7.609   3.083
 1818TIP3    H2 5398   7.535   7.670   3.065
 1819TIP3   OH2 5399   1.154   4.816   5.480
 1819TIP3    H1 5400   1.136   4.900   5.437
 1819TIP3    H2 5401   1.077   4.762   5.461
 1820TIP3   OH2 5402   7.433   2.683   2.266
 1820TIP3    H1 5403   7.427   2.624   2.191
 1820TIP3    H2 5404   7.342   2.702   2.289
 1821TIP3   OH2 5405   1.495   3.977   0.848
 1821TIP3    H1 5406   1.428   3.912   0.829
 1821TIP3    H2 5407   1.563   3.961   0.783
 1822TIP3   OH2 5408   7.867   6.700   5.095
 1822TIP3    H1 5409   7.895   6.709   5.004
 1822TIP3    H2 5410   7.820   6.782   5.113
 1823TIP3   OH2 5411   0.347   4.950   1.352
 1823TIP3    H1 5412   0.340   4.948   1.257
 1823TIP3    H2 5413   0.283   4.885   1.382
 1824TIP3   OH2 5414   3.447   6.396   1.931
 1824TIP3    H1 5415   3.539   6.417   1.913
 1824TIP3    H2 5416   3.422   6.458   1.999
 1825TIP3   OH2 5417   4.089   3.783   5.766
 1825TIP3    H1 5418   4.174   3.740   5.773
 1825TIP3    H2 5419   4.109   3.874   5.743
 1826TIP3   OH2 5420   2.854   6.714   4.635
 1826TIP3    H1 5421   2.938   6.689   4.597
 1826TIP3    H2 5422   2.796   6.722   4.559
 1827TIP3   OH2 5423   3.523   4.348   2.535
 1827TIP3    H1 5424   3.428   4.344   2.549
 1827TIP3    H2 5425   3.559   4.352   2.624
 1828TIP3   OH2 5426   1.439   5.498   1.459
 1828TIP3    H1 5427   1.511   5.561   1.455
 1828TIP3    H2 5428   1.455   5.439   1.386
 1829TIP3   OH2 5429   2.263   1.660   2.968
 1829TIP3    H1 5430   2.326   1.731   2.983
 1829TIP3    H2 5431   2.178   1.699   2.990
 1830TIP3   OH2 5432   1.210   5.173   3.804
 1830TIP3    H1 5433   1.286   5.229   3.822
 1830TIP3    H2 5434   1.244   5.084   3.811
 1831TIP3   OH2 5435   5.110   6.567   5.927
 1831TIP3    H1 5436   5.060   6.497   5.884
 1831TIP3    H2 5437   5.050   6.601   5.993
 1832TIP3   OH2 5438   2.739   2.385   3.917
 1832TIP3    H1 5439   2.831   2.413   3.915
 1832TIP3    H2 5440   2.706   2.409   3.830
 1833TIP3   OH2 5441   4.908   1.453   6.709
 1833TIP3    H1 5442   4.924   1.389   6.639
 1833TIP3    H2 5443   4.841   1.511   6.673
 1834TIP3   OH2 5444   4.208   2.231   2.107
 1834TIP3    H1 5445   4.184   2.239   2.200
 1834TIP3    H2 5446   4.148   2.164   2.073
 1835TIP3   OH2 5447   5.074   4.910   4.640
 1835TIP3    H1 5448   5.103   4.860   4.716
 1835TIP3    H2 5449   5.129   4.877   4.568
 1836TIP3   OH2 5450   2.548   6.714   3.786
 1836TIP3    H1 5451   2.564   6.738   3.878
 1836TIP3    H2 5452   2.519   6.796   3.745
 1837TIP3   OH2 5453   6.174   1.651   4.251
 1837TIP3    H1 5454   6.169   1.740   4.216
 1837TIP3    H2 5455   6.238   1.607   4.194
 1838TIP3   OH2 5456   0.774   6.108   5.390
 1838TIP3    H1 5457   0.705   6.042   5.390
 1838TIP3    H2 5458   0.802   6.114   5.299
 1839TIP3   OH2 5459   1.263   1.384   6.213
 1839TIP3    H1 5460   1.288   1.349   6.298
 1839TIP3    H2 5461   1.256   1.307   6.156
 1840TIP3   OH2 5462   4.227   0.240   0.494
 1840TIP3    H1 5463   4.151   0.195   0.532
 1840TIP3    H2 5464   4.302   0.191   0.525
 1841TIP3   OH2 5465   4.193   6.581   2.468
 1841TIP3    H1 5466   4.195   6.565   2.562
 1841TIP3    H2 5467   4.177   6.675   2.460
 1842TIP3   OH2 5468   0.385   5.809   5.105
 1842TIP3    H1 5469   0.386   5.902   5.082
 1842TIP3    H2 5470   0.348   5.807   5.194
 1843TIP3   OH2 5471   6.388   1.890   5.202
 1843TIP3    H1 5472   6.455   1.867   5.267
 1843TIP3    H2 5473   6.375   1.984   5.214
 1844TIP3   OH2 5474   7.740   4.344   3.210
 1844TIP3    H1 5475   7.743   4.440   3.214
 1844TIP3    H2 5476   7.830   4.317   3.230
 1845TIP3   OH2 5477   0.268   4.246   6.706
 1845TIP3    H1 5478   0.311   4.268   6.788
 1845TIP3    H2 5479   0.192   4.304   6.703
 1846TIP3   OH2 5480   6.245   1.903   4.159
 1846TIP3    H1 5481   6.334   1.869   4.146
 1846TIP3    H2 5482   6.228   1.955   4.080
 1847TIP3   OH2 5483   4.534   6.946   3.206
 1847TIP3    H1 5484   4.536   7.018   3.144
 1847TIP3    H2 5485   4.568   6.982   3.287
 1848TIP3   OH2 5486   7.707   6.623   2.638
 1848TIP3    H1 5487   7.795   6.586   2.642
 1848TIP3    H2 5488   7.716   6.713   2.671
 1849TIP3   OH2 5489   2.521   0.121   5.201
 1849TIP3    H1 5490   2.474   0.184   5.256
 1849TIP3    H2 5491   2.497   0.145   5.112
 1850TIP3   OH2 5492   5.883   6.879   4.356
 1850TIP3    H1 5493   5.854   6.966   4.385
 1850TIP3    H2 5494   5.807   6.844   4.308
 1851TIP3   OH2 5495   3.941   0.244   6.078
 1851TIP3    H1 5496   3.979   0.186   6.012
 1851TIP3    H2 5497   3.952   0.197   6.160
 1852TIP3   OH2 5498   4.729   1.997   2.374
 1852TIP3    H1 5499   4.641   2.034   2.378
 1852TIP3    H2 5500   4.733   1.935   2.447
 1853TIP3   OH2 5501   0.459   1.828   2.910
 1853TIP3    H1 5502   0.456   1.881   2.989
 1853TIP3    H2 5503   0.550   1.834   2.880
 1854TIP3   OH2 5504   4.941   6.208   3.857
 1854TIP3    H1 5505   4.950   6.277   3.791
 1854TIP3    H2 5506   4.924   6.254   3.939
 1855TIP3   OH2 5507   8.295   6.939   5.276
 1855TIP3    H1 5508   8.287   6.872   5.344
 1855TIP3    H2 5509   8.266   7.020   5.318
 1856TIP3   OH2 5510   6.774   2.361   1.600
 1856TIP3    H1 5511   6.682   2.362   1.627
 1856TIP3    H2 5512   6.799   2.269   1.606
 1857TIP3   OH2 5513   0.577   3.462   2.559
 1857TIP3    H1 5514   0.616   3.419   2.635
 1857TIP3    H2 5515   0.483   3.467   2.580
 1858TIP3   OH2 5516   8.123   5.502   0.937
 1858TIP3    H1 5517   8.155   5.413   0.926
 1858TIP3    H2 5518   8.202   5.556   0.945
 1859TIP3   OH2 5519   2.889   3.594   4.076
 1859TIP3    H1 5520   2.966   3.650   4.087
 1859TIP3    H2 5521   2.912   3.533   4.007
 1860TIP3   OH2 5522   3.796   7.697   5.372
 1860TIP3    H1 5523   3.838   7.629   5.321
 1860TIP3    H2 5524   3.822   7.679   5.463
 1861TIP3   OH2 5525   0.606   3.984   6.345
 1861TIP3    H1 5526   0.608   3.888   6.338
 1861TIP3    H2 5527   0.673   4.013   6.283
 1862TIP3   OH2 5528   7.881   3.593   1.250
 1862TIP3    H1 5529   7.920   3.526   1.194
 1862TIP3    H2 5530   7.824   3.544   1.309
 1863TIP3   OH2 5531   0.758   3.991   2.830
 1863TIP3    H1 5532   0.798   3.970   2.915
 1863TIP3    H2 5533   0.802   4.072   2.803
 1864TIP3   OH2 5534   0.778   2.823   3.853
 1864TIP3    H1 5535   0.734   2.781   3.926
 1864TIP3    H2 5536   0.786   2.915   3.879
 1865TIP3   OH2 5537   2.223   4.022   3.706
 1865TIP3    H1 5538   2.278   4.099   3.718
 1865TIP3    H2 5539   2.252   3.984   3.623
 1866TIP3   OH2 5540   7.176   1.278   3.192
 1866TIP3    H1 5541   7.271   1.269   3.187
 1866TIP3    H2 5542   7.158   1.361   3.147
 1867TIP3   OH2 5543   4.113   5.555   6.537
 1867TIP3    H1 5544   4.164   5.507   6.472
 1867TIP3    H2 5545   4.022   5.533   6.519
 1868TIP3   OH2 5546   6.238   4.785   5.126
 1868TIP3    H1 5547   6.193   4.795   5.041
 1868TIP3    H2 5548   6.224   4.694   5.149
 1869TIP3   OH2 5549   6.371   3.457   0.267
 1869TIP3    H1 5550   6.326   3.377   0.294
 1869TIP3    H2 5551   6.464   3.438   0.280
 1870TIP3   OH2 5552   3.831   6.342   1.576
 1870TIP3    H1 5553   3.774   6.335   1.499
 1870TIP3    H2 5554   3.917   6.366   1.540
 1871TIP3   OH2 5555   8.066   1.727   1.426
 1871TIP3    H1 5556   8.103   1.751   1.512
 1871TIP3    H2 5557   8.076   1.632   1.422
 1872TIP3   OH2 5558   2.129   2.807   2.200
 1872TIP3    H1 5559   2.179   2.751   2.259
 1872TIP3    H2 5560   2.083   2.868   2.257
 1873TIP3   OH2 5561   3.105   3.669   4.348
 1873TIP3    H1 5562   3.109   3.701   4.258
 1873TIP3    H2 5563   3.083   3.576   4.340
 1874TIP3   OH2 5564   2.028   1.824   6.703
 1874TIP3    H1 5565   1.957   1.763   6.688
 1874TIP3    H2 5566   2.098   1.772   6.742
 1875TIP3   OH2 5567   0.976   4.886   5.876
 1875TIP3    H1 5568   0.893   4.921   5.906
 1875TIP3    H2 5569   1.002   4.943   5.804
 1876TIP3   OH2 5570   5.305   3.062   3.854
 1876TIP3    H1 5571   5.327   3.128   3.788
 1876TIP3    H2 5572   5.243   3.004   3.810
 1877TIP3   OH2 5573   3.740   7.364   2.634
 1877TIP3    H1 5574   3.706   7.316   2.709
 1877TIP3    H2 5575   3.830   7.333   2.625
 1878TIP3   OH2 5576   1.928   6.994   3.875
 1878TIP3    H1 5577   1.903   6.994   3.783
 1878TIP3    H2 5578   1.946   6.902   3.895
 1879TIP3   OH2 5579   6.463   2.784   5.826
 1879TIP3    H1 5580   6.410   2.825   5.894
 1879TIP3    H2 5581   6.499   2.706   5.867
 1880TIP3   OH2 5582   3.231   3.189   2.560
 1880TIP3    H1 5583   3.271   3.210   2.644
 1880TIP3    H2 5584   3.229   3.272   2.512
 1881TIP3   OH2 5585   6.370   2.853   5.461
 1881TIP3    H1 5586   6.388   2.759   5.470
 1881TIP3    H2 5587   6.275   2.859   5.471
 1882TIP3   OH2 5588   2.780   0.294   0.893
 1882TIP3    H1 5589   2.841   0.231   0.930
 1882TIP3    H2 5590   2.704   0.241   0.866
 1883TIP3   OH2 5591   7.619   2.801   2.439
 1883TIP3    H1 5592   7.572   2.768   2.363
 1883TIP3    H2 5593   7.695   2.745   2.448
 1884TIP3   OH2 5594   0.953   4.852   1.763
 1884TIP3    H1 5595   0.883   4.916   1.779
 1884TIP3    H2 5596   0.968   4.811   1.848
 1885TIP3   OH2 5597   4.079   2.518   5.959
 1885TIP3    H1 5598   3.987   2.534   5.937
 1885TIP3    H2 5599   4.128   2.579   5.905
 1886TIP3   OH2 5600   0.688   0.638   3.726
 1886TIP3    H1 5601   0.754   0.570   3.718
 1886TIP3    H2 5602   0.608   0.598   3.693
 1887TIP3   OH2 5603   1.336   2.253   1.757
 1887TIP3    H1 5604   1.282   2.197   1.701
 1887TIP3    H2 5605   1.285   2.333   1.767
 1888TIP3   OH2 5606   4.768   7.748   5.051
 1888TIP3    H1 5607   4.788   7.759   5.144
 1888TIP3    H2 5608   4.774   7.653   5.037
 1889TIP3   OH2 5609   7.350   0.906   5.871
 1889TIP3    H1 5610   7.340   0.869   5.783
 1889TIP3    H2 5611   7.261   0.914   5.905
 1890TIP3   OH2 5612   6.947   0.152   3.878
 1890TIP3    H1 5613   6.898   0.114   3.951
 1890TIP3    H2 5614   6.977   0.237   3.910
 1891TIP3   OH2 5615   3.722   6.452   1.303
 1891TIP3    H1 5616   3.630   6.432   1.288
 1891TIP3    H2 5617   3.770   6.381   1.260
 1892TIP3   OH2 5618   0.252   6.793   2.626
 1892TIP3    H1 5619   0.340   6.831   2.628
 1892TIP3    H2 5620   0.257   6.727   2.557
 1893TIP3   OH2 5621   5.405   5.407   6.676
 1893TIP3    H1 5622   5.361   5.415   6.592
 1893TIP3    H2 5623   5.492   5.447   6.662
 1894TIP3   OH2 5624   0.831   2.456   4.406
 1894TIP3    H1 5625   0.835   2.543   4.368
 1894TIP3    H2 5626   0.792   2.401   4.338
 1895TIP3   OH2 5627   3.348   1.836   5.308
 1895TIP3    H1 5628   3.381   1.746   5.300
 1895TIP3    H2 5629   3.426   1.890   5.298
 1896TIP3   OH2 5630   7.584   4.851   1.677
 1896TIP3    H1 5631   7.495   4.826   1.652
 1896TIP3    H2 5632   7.619   4.895   1.600
 1897TIP3   OH2 5633   7.498   4.908   1.338
 1897TIP3    H1 5634   7.498   4.880   1.246
 1897TIP3    H2 5635   7.506   4.826   1.388
 1898TIP3   OH2 5636   5.558   4.527   6.103
 1898TIP3    H1 5637   5.514   4.462   6.158
 1898TIP3    H2 5638   5.622   4.568   6.161
 1899TIP3   OH2 5639   4.208   1.633   0.200
 1899TIP3    H1 5640   4.168   1.585   0.272
 1899TIP3    H2 5641   4.233   1.565   0.137
 1900TIP3   OH2 5642   8.257   3.394   5.344
 1900TIP3    H1 5643   8.319   3.325   5.370
 1900TIP3    H2 5644   8.191   3.395   5.414
 1901TIP3   OH2 5645   4.299   4.084   1.088
 1901TIP3    H1 5646   4.289   4.013   1.025
 1901TIP3    H2 5647   4.378   4.062   1.137
 1902TIP3   OH2 5648   5.567   2.096   4.656
 1902TIP3    H1 5649   5.596   2.184   4.680
 1902TIP3    H2 5650   5.614   2.076   4.576
 1903TIP3   OH2 5651   7.445   7.258   3.263
 1903TIP3    H1 5652   7.468   7.251   3.170
 1903TIP3    H2 5653   7.444   7.167   3.294
 1904TIP3   OH2 5654   4.308   7.842   4.220
 1904TIP3    H1 5655   4.242   7.863   4.286
 1904TIP3    H2 5656   4.353   7.765   4.256
 1905TIP3   OH2 5657   3.086   3.456   6.555
 1905TIP3    H1 5658   3.085   3.360   6.560
 1905TIP3    H2 5659   2.998   3.482   6.583
 1906TIP3   OH2 5660   7.737   0.306   2.273
 1906TIP3    H1 5661   7.789   0.226   2.285
 1906TIP3    H2 5662   7.677   0.307   2.347
 1907TIP3   OH2 5663   8.033   7.495   1.977
 1907TIP3    H1 5664   7.967   7.426   1.966
 1907TIP3    H2 5665   8.078   7.499   1.893
 1908TIP3   OH2 5666   5.959   4.652   6.574
 1908TIP3    H1 5667   5.921   4.713   6.510
 1908TIP3    H2 5668   6.020   4.599   6.523
 1909TIP3   OH2 5669   1.009   4.410   5.650
 1909TIP3    H1 5670   1.049   4.327   5.623
 1909TIP3    H2 5671   1.083   4.469   5.664
 1910TIP3   OH2 5672   5.807   2.539   4.002
 1910TIP3    H1 5673   5.865   2.563   4.073
 1910TIP3    H2 5674   5.816   2.610   3.938
 1911TIP3   OH2 5675   1.319   5.979   0.404
 1911TIP3    H1 5676   1.335   5.898   0.453
 1911TIP3    H2 5677   1.304   6.045   0.472
 1912TIP3   OH2 5678   0.043   1.811   3.299
 1912TIP3    H1 5679  -0.022   1.847   3.239
 1912TIP3    H2 5680   0.126   1.847   3.269
 1913TIP3   OH2 5681   3.884   6.003   0.892
 1913TIP3    H1 5682   3.973   6.022   0.922
 1913TIP3    H2 5683   3.881   6.038   0.803
 1914TIP3   OH2 5684   6.582   6.471   1.843
 1914TIP3    H1 5685   6.649   6.499   1.906
 1914TIP3    H2 5686   6.632   6.436   1.769
 1915TIP3   OH2 5687   6.457   0.828   2.892
 1915TIP3    H1 5688   6.436   0.859   2.980
 1915TIP3    H2 5689   6.390   0.868   2.836
 1916TIP3   OH2 5690   0.268   2.126   2.119
 1916TIP3    H1 5691   0.258   2.147   2.026
 1916TIP3    H2 5692   0.242   2.207   2.164
 1917TIP3   OH2 5693   2.373   2.654   0.841
 1917TIP3    H1 5694   2.287   2.674   0.877
 1917TIP3    H2 5695   2.428   2.636   0.917
 1918TIP3   OH2 5696   7.954   6.196   0.796
 1918TIP3    H1 5697   7.892   6.125   0.780
 1918TIP3    H2 5698   7.989   6.218   0.710
 1919TIP3   OH2 5699   7.640   2.029   4.278
 1919TIP3    H1 5700   7.592   2.049   4.198
 1919TIP3    H2 5701   7.703   1.961   4.252
 1920TIP3   OH2 5702   4.409   2.320   5.819
 1920TIP3    H1 5703   4.417   2.412   5.843
 1920TIP3    H2 5704   4.399   2.320   5.724
 1921TIP3   OH2 5705   6.593   4.931   6.533
 1921TIP3    H1 5706   6.647   4.876   6.475
 1921TIP3    H2 5707   6.613   4.899   6.621
 1922TIP3   OH2 5708   6.991   6.342   2.306
 1922TIP3    H1 5709   6.974   6.356   2.399
 1922TIP3    H2 5710   6.908   6.360   2.263
 1923TIP3   OH2 5711   0.796   6.973   0.826
 1923TIP3    H1 5712   0.873   6.917   0.822
 1923TIP3    H2 5713   0.729   6.919   0.868
 1924TIP3   OH2 5714   6.772   6.999   1.041
 1924TIP3    H1 5715   6.757   7.056   0.965
 1924TIP3    H2 5716   6.800   6.916   1.003
 1925TIP3   OH2 5717   8.176   3.770   4.055
 1925TIP3    H1 5718   8.200   3.727   4.137
 1925TIP3    H2 5719   8.229   3.726   3.989
 1926TIP3   OH2 5720   6.738   6.311   0.120
 1926TIP3    H1 5721   6.782   6.293   0.203
 1926TIP3    H2 5722   6.694   6.228   0.098
 1927TIP3   OH2 5723   4.095   0.873   6.358
 1927TIP3    H1 5724   4.157   0.943   6.341
 1927TIP3    H2 5725   4.052   0.857   6.274
 1928TIP3   OH2 5726   4.411   1.246   4.979
 1928TIP3    H1 5727   4.394   1.217   5.069
 1928TIP3    H2 5728   4.376   1.335   4.976
 1929TIP3   OH2 5729   3.817   0.234   0.411
 1929TIP3    H1 5730   3.891   0.289   0.437
 1929TIP3    H2 5731   3.783   0.276   0.332
 1930TIP3   OH2 5732   4.656   0.443   5.810
 1930TIP3    H1 5733   4.730   0.382   5.805
 1930TIP3    H2 5734   4.586   0.393   5.852
 1931TIP3   OH2 5735   8.031   7.599   3.749
 1931TIP3    H1 5736   8.098   7.531   3.745
 1931TIP3    H2 5737   7.959   7.565   3.695
 1932TIP3   OH2 5738   2.052   7.807   3.140
 1932TIP3    H1 5739   2.082   7.736   3.197
 1932TIP3    H2 5740   2.132   7.836   3.094
 1933TIP3   OH2 5741   1.791   4.523   6.027
 1933TIP3    H1 5742   1.743   4.547   6.107
 1933TIP3    H2 5743   1.866   4.582   6.025
 1934TIP3   OH2 5744   6.526   4.366   6.664
 1934TIP3    H1 5745   6.578   4.303   6.614
 1934TIP3    H2 5746   6.564   4.451   6.642
 1935TIP3   OH2 5747   3.388   5.771   2.022
 1935TIP3    H1 5748   3.336   5.705   2.068
 1935TIP3    H2 5749   3.473   5.728   2.008
 1936TIP3   OH2 5750   7.043   3.747   0.500
 1936TIP3    H1 5751   7.066   3.839   0.499
 1936TIP3    H2 5752   6.996   3.734   0.582
 1937TIP3   OH2 5753   5.623   0.636   1.700
 1937TIP3    H1 5754   5.689   0.571   1.679
 1937TIP3    H2 5755   5.543   0.586   1.715
 1938TIP3   OH2 5756   0.990   3.824   3.032
 1938TIP3    H1 5757   0.961   3.897   3.086
 1938TIP3    H2 5758   0.910   3.787   2.996
 1939TIP3   OH2 5759   2.107   7.715   0.626
 1939TIP3    H1 5760   2.159   7.726   0.546
 1939TIP3    H2 5761   2.017   7.734   0.599
 1940TIP3   OH2 5762   0.226   0.264   5.581
 1940TIP3    H1 5763   0.289   0.194   5.600
 1940TIP3    H2 5764   0.159   0.221   5.528
 1941TIP3   OH2 5765   6.565   4.777   5.425
 1941TIP3    H1 5766   6.592   4.812   5.341
 1941TIP3    H2 5767   6.486   4.826   5.448
 1942TIP3   OH2 5768   5.622   5.913   2.714
 1942TIP3    H1 5769   5.717   5.905   2.703
 1942TIP3    H2 5770   5.602   6.002   2.686
 1943TIP3   OH2 5771   0.641   2.376   6.709
 1943TIP3    H1 5772   0.618   2.366   6.617
 1943TIP3    H2 5773   0.736   2.371   6.711
 1944TIP3   OH2 5774   2.571   2.519   1.616
 1944TIP3    H1 5775   2.504   2.587   1.615
 1944TIP3    H2 5776   2.524   2.438   1.636
 1945TIP3   OH2 5777   8.021   1.500   4.580
 1945TIP3    H1 5778   7.936   1.544   4.584
 1945TIP3    H2 5779   8.019   1.437   4.652
 1946TIP3   OH2 5780   3.300   7.212   4.172
 1946TIP3    H1 5781   3.358   7.198   4.097
 1946TIP3    H2 5782   3.213   7.185   4.140
 1947TIP3   OH2 5783   1.389   4.191   4.751
 1947TIP3    H1 5784   1.323   4.249   4.790
 1947TIP3    H2 5785   1.436   4.154   4.826
 1948TIP3   OH2 5786   4.058   4.565   4.228
 1948TIP3    H1 5787   4.005   4.496   4.268
 1948TIP3    H2 5788   3.999   4.641   4.224
 1949TIP3   OH2 5789   4.070   6.839   2.351
 1949TIP3    H1 5790   4.088   6.790   2.272
 1949TIP3    H2 5791   4.049   6.928   2.320
 1950TIP3   OH2 5792   0.517   1.628   2.591
 1950TIP3    H1 5793   0.486   1.537   2.589
 1950TIP3    H2 5794   0.485   1.665   2.509
 1951TIP3   OH2 5795   4.547   5.961   5.119
 1951TIP3    H1 5796   4.638   5.989   5.112
 1951TIP3    H2 5797   4.541   5.921   5.206
 1952TIP3   OH2 5798   4.355   6.820   4.219
 1952TIP3    H1 5799   4.407   6.748   4.253
 1952TIP3    H2 5800   4.290   6.838   4.287
 1953TIP3   OH2 5801   6.583   6.462   0.886
 1953TIP3    H1 5802   6.662   6.494   0.931
 1953TIP3    H2 5803   6.518   6.453   0.955
 1954TIP3   OH2 5804   0.546   2.969   3.263
 1954TIP3    H1 5805   0.611   2.934   3.203
 1954TIP3    H2 5806   0.473   2.908   3.259
 1955TIP3   OH2 5807   0.248   6.888   5.679
 1955TIP3    H1 5808   0.280   6.978   5.681
 1955TIP3    H2 5809   0.321   6.835   5.712
 1956TIP3   OH2 5810   7.653   1.741   5.173
 1956TIP3    H1 5811   7.581   1.693   5.213
 1956TIP3    H2 5812   7.732   1.696   5.203
 1957TIP3   OH2 5813   7.919   5.872   3.724
 1957TIP3    H1 5814   7.850   5.884   3.789
 1957TIP3    H2 5815   7.893   5.927   3.651
 1958TIP3   OH2 5816   7.417   6.602   5.413
 1958TIP3    H1 5817   7.492   6.657   5.433
 1958TIP3    H2 5818   7.349   6.663   5.386
 1959TIP3   OH2 5819   5.418   4.198   3.808
 1959TIP3    H1 5820   5.385   4.141   3.738
 1959TIP3    H2 5821   5.366   4.174   3.885
 1960TIP3   OH2 5822   7.061   1.597   4.657
 1960TIP3    H1 5823   7.146   1.581   4.615
 1960TIP3    H2 5824   7.069   1.554   4.742
 1961TIP3   OH2 5825   6.305   0.360   1.905
 1961TIP3    H1 5826   6.375   0.300   1.878
 1961TIP3    H2 5827   6.310   0.362   2.001
 1962TIP3   OH2 5828   6.399   2.602   3.947
 1962TIP3    H1 5829   6.444   2.629   3.867
 1962TIP3    H2 5830   6.444   2.523   3.975
 1963TIP3   OH2 5831   2.453   6.774   1.508
 1963TIP3    H1 5832   2.460   6.809   1.420
 1963TIP3    H2 5833   2.385   6.827   1.550
 1964TIP3   OH2 5834   7.405   4.366   0.188
 1964TIP3    H1 5835   7.433   4.403   0.105
 1964TIP3    H2 5836   7.385   4.443   0.242
 1965TIP3   OH2 5837   1.595   3.030   3.608
 1965TIP3    H1 5838   1.685   3.062   3.596
 1965TIP3    H2 5839   1.604   2.935   3.604
 1966TIP3   OH2 5840   1.583   6.841   0.968
 1966TIP3    H1 5841   1.538   6.768   0.925
 1966TIP3    H2 5842   1.661   6.856   0.913
 1967TIP3   OH2 5843   2.881   5.100   5.223
 1967TIP3    H1 5844   2.944   5.171   5.231
 1967TIP3    H2 5845   2.921   5.027   5.271
 1968TIP3   OH2 5846   3.208   7.231   5.226
 1968TIP3    H1 5847   3.214   7.266   5.315
 1968TIP3    H2 5848   3.114   7.230   5.207
 1969TIP3   OH2 5849   6.204   1.672   5.578
 1969TIP3    H1 5850   6.290   1.630   5.583
 1969TIP3    H2 5851   6.166   1.659   5.665
 1970TIP3   OH2 5852   0.160   1.135   1.852
 1970TIP3    H1 5853   0.110   1.205   1.893
 1970TIP3    H2 5854   0.162   1.065   1.917
 1971TIP3   OH2 5855   1.168   6.182   1.674
 1971TIP3    H1 5856   1.225   6.141   1.739
 1971TIP3    H2 5857   1.141   6.264   1.714
 1972TIP3   OH2 5858   6.391   1.670   1.097
 1972TIP3    H1 5859   6.437   1.714   1.025
 1972TIP3    H2 5860   6.460   1.644   1.157
 1973TIP3   OH2 5861   1.676   3.229   1.135
 1973TIP3    H1 5862   1.711   3.234   1.224
 1973TIP3    H2 5863   1.753   3.220   1.079
 1974TIP3   OH2 5864   0.625   2.253   0.717
 1974TIP3    H1 5865   0.622   2.327   0.778
 1974TIP3    H2 5866   0.540   2.210   0.727
 1975TIP3   OH2 5867   7.359   5.949   3.030
 1975TIP3    H1 5868   7.428   5.902   3.077
 1975TIP3    H2 5869   7.363   5.913   2.941
 1976TIP3   OH2 5870   3.311   2.526   1.796
 1976TIP3    H1 5871   3.337   2.529   1.704
 1976TIP3    H2 5872   3.363   2.454   1.833
 1977TIP3   OH2 5873   6.317   4.406   2.522
 1977TIP3    H1 5874   6.371   4.477   2.488
 1977TIP3    H2 5875   6.307   4.346   2.449
 1978TIP3   OH2 5876   0.902   6.959   1.868
 1978TIP3    H1 5877   0.933   6.877   1.831
 1978TIP3    H2 5878   0.956   6.971   1.947
 1979TIP3   OH2 5879   1.753   3.194   1.393
 1979TIP3    H1 5880   1.675   3.138   1.390
 1979TIP3    H2 5881   1.789   3.179   1.481
 1980TIP3   OH2 5882   1.021   2.493   2.156
 1980TIP3    H1 5883   1.012   2.462   2.246
 1980TIP3    H2 5884   0.943   2.459   2.111
 1981TIP3   OH2 5885   2.982   0.098   6.741
 1981TIP3    H1 5886   2.890   0.090   6.766
 1981TIP3    H2 5887   3.014   0.172   6.792
 1982TIP3   OH2 5888   0.057   1.877   1.926
 1982TIP3    H1 5889   0.017   1.956   1.963
 1982TIP3    H2 5890   0.123   1.910   1.864
 1983TIP3   OH2 5891   3.651   6.977   5.230
 1983TIP3    H1 5892   3.700   6.902   5.196
 1983TIP3    H2 5893   3.594   7.005   5.158
 1984TIP3   OH2 5894   6.396   2.022   2.231
 1984TIP3    H1 5895   6.382   1.968   2.309
 1984TIP3    H2 5896   6.413   2.110   2.267
 1985TIP3   OH2 5897   3.081   5.754   3.181
 1985TIP3    H1 5898   3.022   5.829   3.169
 1985TIP3    H2 5899   3.146   5.786   3.244
 1986TIP3   OH2 5900   7.162   5.137   0.862
 1986TIP3    H1 5901   7.225   5.072   0.830
 1986TIP3    H2 5902   7.154   5.200   0.790
 1987TIP3   OH2 5903   8.125   0.344   4.270
 1987TIP3    H1 5904   8.057   0.353   4.203
 1987TIP3    H2 5905   8.088   0.385   4.348
 1988TIP3   OH2 5906   4.640   0.238   1.356
 1988TIP3    H1 5907   4.552   0.248   1.393
 1988TIP3    H2 5908   4.648   0.145   1.336
 1989TIP3   OH2 5909   0.452   3.969   3.904
 1989TIP3    H1 5910   0.365   3.930   3.912
 1989TIP3    H2 5911   0.453   4.040   3.968
 1990TIP3   OH2 5912   3.748   0.158   2.624
 1990TIP3    H1 5913   3.824   0.215   2.610
 1990TIP3    H2 5914   3.688   0.212   2.675
 1991TIP3   OH2 5915   5.214   4.099   4.343
 1991TIP3    H1 5916   5.236   4.006   4.341
 1991TIP3    H2 5917   5.139   4.107   4.284
 1992TIP3   OH2 5918   2.763   1.453   4.435
 1992TIP3    H1 5919   2.844   1.403   4.436
 1992TIP3    H2 5920   2.734   1.451   4.344
 1993TIP3   OH2 5921   7.335   4.656   2.831
 1993TIP3    H1 5922   7.316   4.605   2.752
 1993TIP3    H2 5923   7.399   4.722   2.802
 1994TIP3   OH2 5924   4.067   6.654   4.815
 1994TIP3    H1 5925   4.111   6.603   4.747
 1994TIP3    H2 5926   4.103   6.619   4.897
 1995TIP3   OH2 5927   6.022   0.539   1.412
 1995TIP3    H1 5928   6.060   0.562   1.497
 1995TIP3    H2 5929   5.930   0.566   1.419
 1996TIP3   OH2 5930   5.650   1.453   6.107
 1996TIP3    H1 5931   5.697   1.399   6.044
 1996TIP3    H2 5932   5.564   1.411   6.115
 1997TIP3   OH2 5933   8.072   1.427   1.050
 1997TIP3    H1 5934   8.018   1.482   0.993
 1997TIP3    H2 5935   8.129   1.379   0.991
 1998TIP3   OH2 5936   4.116   6.834   5.911
 1998TIP3    H1 5937   4.209   6.836   5.888
 1998TIP3    H2 5938   4.079   6.765   5.855
 1999TIP3   OH2 5939   0.306   4.361   0.579
 1999TIP3    H1 5940   0.339   4.301   0.646
 1999TIP3    H2 5941   0.276   4.437   0.629
 2000TIP3   OH2 5942   7.293   6.539   0.552
 2000TIP3    H1 5943   7.364   6.536   0.488
 2000TIP3    H2 5944   7.258   6.627   0.545
 2001TIP3   OH2 5945   4.684   5.201   1.495
 2001TIP3    H1 5946   4.693   5.115   1.537
 2001TIP3    H2 5947   4.611   5.243   1.540
 2002TIP3   OH2 5948   2.784   0.618   0.141
 2002TIP3    H1 5949   2.790   0.616   0.236
 2002TIP3    H2 5950   2.873   0.636   0.111
 2003TIP3   OH2 5951   5.091   1.801   0.328
 2003TIP3    H1 5952   5.041   1.729   0.366
 2003TIP3    H2 5953   5.089   1.786   0.234
 2004TIP3   OH2 5954   8.028   4.519   4.012
 2004TIP3    H1 5955   7.941   4.549   4.041
 2004TIP3    H2 5956   8.031   4.543   3.920
 2005TIP3   OH2 5957   1.336   6.275   5.621
 2005TIP3    H1 5958   1.408   6.237   5.672
 2005TIP3    H2 5959   1.378   6.310   5.542
 2006TIP3   OH2 5960   7.587   6.873   1.172
 2006TIP3    H1 5961   7.527   6.902   1.241
 2006TIP3    H2 5962   7.636   6.952   1.148
 2007TIP3   OH2 5963   7.493   7.333   1.551
 2007TIP3    H1 5964   7.586   7.331   1.528
 2007TIP3    H2 5965   7.491   7.333   1.647
 2008TIP3   OH2 5966   1.856   0.963   1.646
 2008TIP3    H1 5967   1.837   0.946   1.554
 2008TIP3    H2 5968   1.839   1.056   1.658
 2009TIP3   OH2 5969   6.140   4.259   1.797
 2009TIP3    H1 5970   6.221   4.285   1.753
 2009TIP3    H2 5971   6.165   4.245   1.888
 2010TIP3   OH2 5972   0.836   7.124   5.420
 2010TIP3    H1 5973   0.795   7.166   5.344
 2010TIP3    H2 5974   0.913   7.080   5.384
 2011TIP3   OH2 5975   4.163   2.575   2.596
 2011TIP3    H1 5976   4.201   2.487   2.601
 2011TIP3    H2 5977   4.070   2.561   2.614
 2012TIP3   OH2 5978   3.999   5.090   6.278
 2012TIP3    H1 5979   3.994   4.995   6.266
 2012TIP3    H2 5980   4.092   5.111   6.266
 2013TIP3   OH2 5981   2.471   0.481   5.912
 2013TIP3    H1 5982   2.556   0.484   5.867
 2013TIP3    H2 5983   2.489   0.514   6.000
 2014TIP3   OH2 5984   6.098   7.227   3.256
 2014TIP3    H1 5985   6.073   7.288   3.187
 2014TIP3    H2 5986   6.115   7.144   3.210
 2015TIP3   OH2 5987   6.532   4.056   0.791
 2015TIP3    H1 5988   6.544   4.024   0.880
 2015TIP3    H2 5989   6.471   3.994   0.751
 2016TIP3   OH2 5990   0.257   5.033   4.705
 2016TIP3    H1 5991   0.210   4.959   4.667
 2016TIP3    H2 5992   0.262   5.098   4.635
 2017TIP3   OH2 5993   1.930   2.227   5.420
 2017TIP3    H1 5994   1.862   2.224   5.352
 2017TIP3    H2 5995   2.009   2.196   5.376
 2018TIP3   OH2 5996   1.038   5.756   2.285
 2018TIP3    H1 5997   1.032   5.741   2.190
 2018TIP3    H2 5998   1.053   5.669   2.322
 2019TIP3   OH2 5999   7.854   1.500   5.916
 2019TIP3    H1 6000   7.830   1.556   5.989
 2019TIP3    H2 6001   7.907   1.430   5.956
 2020TIP3   OH2 6002   2.438   4.434   6.659
 2020TIP3    H1 6003   2.346   4.411   6.645
 2020TIP3    H2 6004   2.485   4.388   6.589
 2021TIP3   OH2 6005   7.686   6.095   2.179
 2021TIP3    H1 6006   7.696   6.060   2.268
 2021TIP3    H2 6007   7.699   6.189   2.190
 2022TIP3   OH2 6008   3.020   4.334   1.917
 2022TIP3    H1 6009   3.046   4.368   1.832
 2022TIP3    H2 6010   2.945   4.388   1.943
 2023TIP3   OH2 6011   5.410   6.269   6.187
 2023TIP3    H1 6012   5.460   6.188   6.179
 2023TIP3    H2 6013   5.399   6.300   6.097
 2024TIP3   OH2 6014   4.709   3.943   1.100
 2024TIP3    H1 6015   4.690   3.951   1.007
 2024TIP3    H2 6016   4.764   4.019   1.120
 2025TIP3   OH2 6017   3.953   6.891   0.726
 2025TIP3    H1 6018   3.975   6.984   0.736
 2025TIP3    H2 6019   3.859   6.891   0.707
 2026TIP3   OH2 6020   0.533   4.632   5.420
 2026TIP3    H1 6021   0.485   4.675   5.349
 2026TIP3    H2 6022   0.543   4.700   5.486
 2027TIP3   OH2 6023   2.069   4.396   6.054
 2027TIP3    H1 6024   2.111   4.472   6.013
 2027TIP3    H2 6025   2.023   4.431   6.130
 2028TIP3   OH2 6026   2.939   3.766   4.966
 2028TIP3    H1 6027   2.911   3.725   4.885
 2028TIP3    H2 6028   2.875   3.835   4.982
 2029TIP3   OH2 6029   4.962   1.744   6.349
 2029TIP3    H1 6030   4.924   1.677   6.291
 2029TIP3    H2 6031   4.981   1.818   6.291
 2030TIP3   OH2 6032   3.266   7.386   0.434
 2030TIP3    H1 6033   3.340   7.382   0.494
 2030TIP3    H2 6034   3.302   7.424   0.354
 2031TIP3   OH2 6035   5.885   4.496   3.656
 2031TIP3    H1 6036   5.813   4.519   3.715
 2031TIP3    H2 6037   5.841   4.452   3.582
 2032TIP3   OH2 6038   4.819   3.859   5.966
 2032TIP3    H1 6039   4.860   3.936   6.006
 2032TIP3    H2 6040   4.826   3.875   5.871
 2033TIP3   OH2 6041   3.162   6.414   0.035
 2033TIP3    H1 6042   3.130   6.324   0.031
 2033TIP3    H2 6043   3.257   6.406   0.035
 2034TIP3   OH2 6044   2.815   2.507   6.244
 2034TIP3    H1 6045   2.858   2.535   6.163
 2034TIP3    H2 6046   2.856   2.560   6.312
 2035TIP3   OH2 6047   6.731   0.077   5.197
 2035TIP3    H1 6048   6.689   0.133   5.131
 2035TIP3    H2 6049   6.687   0.101   5.279
 2036TIP3   OH2 6050   0.081   0.953   1.058
 2036TIP3    H1 6051   0.044   0.869   1.030
 2036TIP3    H2 6052   0.007   1.012   1.061
 2037TIP3   OH2 6053   1.011   2.723   3.444
 2037TIP3    H1 6054   1.086   2.779   3.425
 2037TIP3    H2 6055   0.938   2.784   3.456
 2038TIP3   OH2 6056   2.701   4.811   5.882
 2038TIP3    H1 6057   2.708   4.892   5.931
 2038TIP3    H2 6058   2.700   4.742   5.949
 2039TIP3   OH2 6059   6.606   6.258   1.355
 2039TIP3    H1 6060   6.692   6.257   1.396
 2039TIP3    H2 6061   6.550   6.206   1.413
 2040TIP3   OH2 6062   3.597   3.523   0.939
 2040TIP3    H1 6063   3.679   3.501   0.895
 2040TIP3    H2 6064   3.613   3.505   1.032
 2041TIP3   OH2 6065   3.662   3.997   3.642
 2041TIP3    H1 6066   3.749   4.037   3.644
 2041TIP3    H2 6067   3.629   4.007   3.732
 2042TIP3   OH2 6068   7.685   1.292   1.629
 2042TIP3    H1 6069   7.619   1.348   1.589
 2042TIP3    H2 6070   7.732   1.350   1.689
 2043TIP3   OH2 6071   4.875   5.165   4.645
 2043TIP3    H1 6072   4.787   5.188   4.615
 2043TIP3    H2 6073   4.931   5.178   4.568
 2044TIP3   OH2 6074   6.533   0.803   3.777
 2044TIP3    H1 6075   6.450   0.834   3.814
 2044TIP3    H2 6076   6.524   0.708   3.774
 2045TIP3   OH2 6077   7.831   1.867   4.971
 2045TIP3    H1 6078   7.854   1.956   4.996
 2045TIP3    H2 6079   7.761   1.842   5.031
 2046TIP3   OH2 6080   3.599   2.650   4.958
 2046TIP3    H1 6081   3.580   2.685   4.871
 2046TIP3    H2 6082   3.528   2.682   5.013
 2047TIP3   OH2 6083   3.263   2.757   3.464
 2047TIP3    H1 6084   3.308   2.727   3.384
 2047TIP3    H2 6085   3.170   2.746   3.444
 2048TIP3   OH2 6086   4.410   1.882   2.901
 2048TIP3    H1 6087   4.468   1.845   2.968
 2048TIP3    H2 6088   4.335   1.822   2.898
 2049TIP3   OH2 6089   3.958   6.954   6.352
 2049TIP3    H1 6090   3.952   6.878   6.294
 2049TIP3    H2 6091   3.952   6.918   6.440
 2050TIP3   OH2 6092   1.199   7.462   0.031
 2050TIP3    H1 6093   1.194   7.389  -0.030
 2050TIP3    H2 6094   1.107   7.481   0.054
 2051TIP3   OH2 6095   2.690   3.076   4.328
 2051TIP3    H1 6096   2.731   3.047   4.410
 2051TIP3    H2 6097   2.636   3.002   4.301
 2052TIP3   OH2 6098   6.721   5.109   5.776
 2052TIP3    H1 6099   6.740   5.188   5.724
 2052TIP3    H2 6100   6.739   5.036   5.717
 2053TIP3   OH2 6101   8.025   0.412   6.579
 2053TIP3    H1 6102   8.023   0.320   6.554
 2053TIP3    H2 6103   7.989   0.458   6.504
 2054TIP3   OH2 6104   5.823   5.393   2.201
 2054TIP3    H1 6105   5.894   5.335   2.228
 2054TIP3    H2 6106   5.768   5.339   2.145
 2055TIP3   OH2 6107   6.021   6.558   2.229
 2055TIP3    H1 6108   6.025   6.494   2.158
 2055TIP3    H2 6109   6.030   6.505   2.308
 2056TIP3   OH2 6110   7.404   3.043   6.329
 2056TIP3    H1 6111   7.452   2.963   6.354
 2056TIP3    H2 6112   7.444   3.112   6.381
 2057TIP3   OH2 6113   0.990   4.607   4.023
 2057TIP3    H1 6114   1.000   4.665   3.948
 2057TIP3    H2 6115   0.989   4.666   4.099
 2058TIP3   OH2 6116   5.472   5.098   3.816
 2058TIP3    H1 6117   5.510   5.078   3.731
 2058TIP3    H2 6118   5.478   5.193   3.823
 2059TIP3   OH2 6119   2.764   0.339   6.061
 2059TIP3    H1 6120   2.762   0.422   6.013
 2059TIP3    H2 6121   2.848   0.340   6.106
 2060TIP3   OH2 6122   4.477   3.937   1.245
 2060TIP3    H1 6123   4.480   3.919   1.339
 2060TIP3    H2 6124   4.569   3.948   1.220
 2061TIP3   OH2 6125   3.146   4.374   4.792
 2061TIP3    H1 6126   3.203   4.332   4.727
 2061TIP3    H2 6127   3.205   4.397   4.864
 2062TIP3   OH2 6128   3.112   1.421   4.895
 2062TIP3    H1 6129   3.019   1.427   4.874
 2062TIP3    H2 6130   3.127   1.328   4.914
 2063TIP3   OH2 6131   7.714   5.359   1.285
 2063TIP3    H1 6132   7.721   5.279   1.233
 2063TIP3    H2 6133   7.631   5.349   1.332
 2064TIP3   OH2 6134   4.380   3.004   0.233
 2064TIP3    H1 6135   4.460   3.056   0.225
 2064TIP3    H2 6136   4.339   3.008   0.146
 2065TIP3   OH2 6137   2.760   2.810   3.305
 2065TIP3    H1 6138   2.792   2.722   3.283
 2065TIP3    H2 6139   2.672   2.814   3.269
 2066TIP3   OH2 6140   0.450   4.580   4.479
 2066TIP3    H1 6141   0.515   4.530   4.430
 2066TIP3    H2 6142   0.497   4.658   4.508
 2067TIP3   OH2 6143   3.235   0.474   6.489
 2067TIP3    H1 6144   3.225   0.442   6.400
 2067TIP3    H2 6145   3.273   0.561   6.480
 2068TIP3   OH2 6146   5.744   2.927   0.604
 2068TIP3    H1 6147   5.678   2.995   0.612
 2068TIP3    H2 6148   5.760   2.920   0.510
 2069TIP3   OH2 6149   6.327   5.097   4.384
 2069TIP3    H1 6150   6.238   5.062   4.380
 2069TIP3    H2 6151   6.316   5.190   4.362
 2070TIP3   OH2 6152   8.219   4.834   6.095
 2070TIP3    H1 6153   8.264   4.753   6.118
 2070TIP3    H2 6154   8.248   4.897   6.162
 2071TIP3   OH2 6155   5.086   0.892   2.571
 2071TIP3    H1 6156   5.164   0.924   2.617
 2071TIP3    H2 6157   5.076   0.952   2.497
 2072TIP3   OH2 6158   1.314   2.885   2.977
 2072TIP3    H1 6159   1.303   2.799   2.936
 2072TIP3    H2 6160   1.225   2.910   3.003
 2073TIP3   OH2 6161   2.688   6.132   1.013
 2073TIP3    H1 6162   2.645   6.048   1.031
 2073TIP3    H2 6163   2.771   6.109   0.972
 2074TIP3   OH2 6164   1.865   1.571   2.744
 2074TIP3    H1 6165   1.932   1.560   2.812
 2074TIP3    H2 6166   1.782   1.573   2.792
 2075TIP3   OH2 6167   2.483   7.716   5.164
 2075TIP3    H1 6168   2.463   7.636   5.117
 2075TIP3    H2 6169   2.505   7.780   5.095
 2076TIP3   OH2 6170   1.563   0.944   0.069
 2076TIP3    H1 6171   1.640   0.892   0.049
 2076TIP3    H2 6172   1.504   0.883   0.114
 2077TIP3   OH2 6173   5.966   3.588   4.668
 2077TIP3    H1 6174   5.882   3.544   4.679
 2077TIP3    H2 6175   5.961   3.665   4.725
 2078TIP3   OH2 6176   5.770   4.483   6.679
 2078TIP3    H1 6177   5.818   4.565   6.676
 2078TIP3    H2 6178   5.701   4.492   6.613
 2079TIP3   OH2 6179   6.347   5.515   2.974
 2079TIP3    H1 6180   6.294   5.500   3.052
 2079TIP3    H2 6181   6.407   5.440   2.971
 2080TIP3   OH2 6182   5.198   2.197   3.621
 2080TIP3    H1 6183   5.278   2.191   3.673
 2080TIP3    H2 6184   5.128   2.180   3.684
 2081TIP3   OH2 6185   4.498   6.639   2.957
 2081TIP3    H1 6186   4.547   6.704   2.908
 2081TIP3    H2 6187   4.428   6.612   2.897
 2082TIP3   OH2 6188   4.825   2.786   6.749
 2082TIP3    H1 6189   4.906   2.797   6.699
 2082TIP3    H2 6190   4.759   2.829   6.696
 2083TIP3   OH2 6191   7.298   2.327   0.515
 2083TIP3    H1 6192   7.227   2.272   0.481
 2083TIP3    H2 6193   7.361   2.264   0.552
 2084TIP3   OH2 6194   7.419   6.578   1.090
 2084TIP3    H1 6195   7.406   6.521   1.015
 2084TIP3    H2 6196   7.411   6.667   1.055
 2085TIP3   OH2 6197   0.494   5.356   3.556
 2085TIP3    H1 6198   0.514   5.393   3.642
 2085TIP3    H2 6199   0.538   5.271   3.556
 2086TIP3   OH2 6200   2.216   2.627   6.771
 2086TIP3    H1 6201   2.141   2.675   6.806
 2086TIP3    H2 6202   2.222   2.656   6.679
 2087TIP3   OH2 6203   1.226   4.711   6.150
 2087TIP3    H1 6204   1.211   4.742   6.239
 2087TIP3    H2 6205   1.186   4.624   6.148
 2088TIP3   OH2 6206   1.486   5.163   1.072
 2088TIP3    H1 6207   1.394   5.163   1.044
 2088TIP3    H2 6208   1.522   5.083   1.034
 2089TIP3   OH2 6209   3.353   6.887   3.789
 2089TIP3    H1 6210   3.260   6.899   3.808
 2089TIP3    H2 6211   3.378   6.811   3.841
 2090TIP3   OH2 6212   2.114   1.519   6.389
 2090TIP3    H1 6213   2.141   1.572   6.314
 2090TIP3    H2 6214   2.046   1.571   6.432
 2091TIP3   OH2 6215   3.585   7.072   4.991
 2091TIP3    H1 6216   3.509   7.092   4.936
 2091TIP3    H2 6217   3.635   7.008   4.940
 2092TIP3   OH2 6218   6.477   2.894   0.114
 2092TIP3    H1 6219   6.566   2.876   0.143
 2092TIP3    H2 6220   6.455   2.821   0.056
 2093TIP3   OH2 6221   2.800   7.030   1.522
 2093TIP3    H1 6222   2.893   7.016   1.543
 2093TIP3    H2 6223   2.774   6.950   1.477
 2094TIP3   OH2 6224   3.584   2.170   0.480
 2094TIP3    H1 6225   3.637   2.162   0.559
 2094TIP3    H2 6226   3.619   2.246   0.434
 2095TIP3   OH2 6227   4.024   4.917   6.017
 2095TIP3    H1 6228   3.978   4.968   5.951
 2095TIP3    H2 6229   4.111   4.902   5.979
 2096TIP3   OH2 6230   3.531   1.333   5.645
 2096TIP3    H1 6231   3.518   1.419   5.686
 2096TIP3    H2 6232   3.495   1.272   5.709
 2097TIP3   OH2 6233   6.653   1.031   6.502
 2097TIP3    H1 6234   6.628   1.030   6.409
 2097TIP3    H2 6235   6.748   1.038   6.501
 2098TIP3   OH2 6236   1.285   6.224   3.443
 2098TIP3    H1 6237   1.342   6.285   3.489
 2098TIP3    H2 6238   1.198   6.265   3.448
 2099TIP3   OH2 6239   6.374   6.398   6.320
 2099TIP3    H1 6240   6.305   6.381   6.383
 2099TIP3    H2 6241   6.327   6.415   6.238
 2100TIP3   OH2 6242   0.125   6.186   1.705
 2100TIP3    H1 6243   0.035   6.166   1.682
 2100TIP3    H2 6244   0.119   6.254   1.771
 2101TIP3   OH2 6245   0.953   0.695   5.042
 2101TIP3    H1 6246   1.004   0.752   4.985
 2101TIP3    H2 6247   1.012   0.672   5.113
 2102TIP3   OH2 6248   0.196   5.041   5.008
 2102TIP3    H1 6249   0.115   5.076   4.969
 2102TIP3    H2 6250   0.250   5.018   4.932
 2103TIP3   OH2 6251   2.572   3.787   2.591
 2103TIP3    H1 6252   2.582   3.692   2.593
 2103TIP3    H2 6253   2.479   3.801   2.606
 2104TIP3   OH2 6254   2.492   0.213   4.953
 2104TIP3    H1 6255   2.450   0.286   4.908
 2104TIP3    H2 6256   2.569   0.193   4.900
 2105TIP3   OH2 6257   0.974   7.190   1.704
 2105TIP3    H1 6258   0.925   7.134   1.764
 2105TIP3    H2 6259   0.955   7.155   1.617
 2106TIP3   OH2 6260   6.571   6.429   4.020
 2106TIP3    H1 6261   6.559   6.352   4.075
 2106TIP3    H2 6262   6.628   6.487   4.071
 2107TIP3   OH2 6263   1.974   0.120   6.446
 2107TIP3    H1 6264   2.069   0.108   6.445
 2107TIP3    H2 6265   1.959   0.205   6.404
 2108TIP3   OH2 6266   3.961   3.637   0.754
 2108TIP3    H1 6267   3.952   3.664   0.846
 2108TIP3    H2 6268   3.873   3.646   0.718
 2109TIP3   OH2 6269   0.177   0.329   5.838
 2109TIP3    H1 6270   0.086   0.358   5.841
 2109TIP3    H2 6271   0.189   0.297   5.749
 2110TIP3   OH2 6272   4.433   6.733   3.878
 2110TIP3    H1 6273   4.506   6.693   3.831
 2110TIP3    H2 6274   4.403   6.804   3.820
 2111TIP3   OH2 6275   7.309   1.629   1.204
 2111TIP3    H1 6276   7.314   1.680   1.123
 2111TIP3    H2 6277   7.374   1.559   1.193
 2112TIP3   OH2 6278   3.149   3.867   5.114
 2112TIP3    H1 6279   3.111   3.847   5.200
 2112TIP3    H2 6280   3.102   3.810   5.053
 2113TIP3   OH2 6281   6.388   4.545   2.283
 2113TIP3    H1 6282   6.332   4.612   2.244
 2113TIP3    H2 6283   6.397   4.479   2.214
 2114TIP3   OH2 6284   3.368   0.718   5.458
 2114TIP3    H1 6285   3.353   0.626   5.440
 2114TIP3    H2 6286   3.462   0.726   5.469
 2115TIP3   OH2 6287   6.245   0.866   6.419
 2115TIP3    H1 6288   6.286   0.780   6.433
 2115TIP3    H2 6289   6.212   0.862   6.329
 2116TIP3   OH2 6290   7.016   2.039   1.396
 2116TIP3    H1 6291   6.926   2.057   1.371
 2116TIP3    H2 6292   7.033   2.095   1.472
 2117TIP3   OH2 6293   8.044   2.605   1.109
 2117TIP3    H1 6294   8.027   2.694   1.139
 2117TIP3    H2 6295   8.140   2.600   1.102
 2118TIP3   OH2 6296   6.161   3.415   6.502
 2118TIP3    H1 6297   6.116   3.500   6.502
 2118TIP3    H2 6298   6.160   3.388   6.594
 2119TIP3   OH2 6299   6.071   7.404   3.926
 2119TIP3    H1 6300   5.994   7.461   3.926
 2119TIP3    H2 6301   6.052   7.339   3.994
 2120TIP3   OH2 6302   6.409   1.004   0.569
 2120TIP3    H1 6303   6.496   1.043   0.577
 2120TIP3    H2 6304   6.378   1.033   0.483
 2121TIP3   OH2 6305   1.448   7.008   6.239
 2121TIP3    H1 6306   1.457   7.023   6.145
 2121TIP3    H2 6307   1.519   7.057   6.279
 2122TIP3   OH2 6308   1.819   4.831   5.016
 2122TIP3    H1 6309   1.745   4.771   5.023
 2122TIP3    H2 6310   1.893   4.775   4.992
 2123TIP3   OH2 6311   2.926   4.254   1.563
 2123TIP3    H1 6312   2.919   4.336   1.515
 2123TIP3    H2 6313   3.016   4.251   1.594
 2124TIP3   OH2 6314   0.782   0.190   3.806
 2124TIP3    H1 6315   0.717   0.122   3.788
 2124TIP3    H2 6316   0.865   0.142   3.812
 2125TIP3   OH2 6317   4.654   3.088   0.290
 2125TIP3    H1 6318   4.668   3.001   0.327
 2125TIP3    H2 6319   4.720   3.143   0.332
 2126TIP3   OH2 6320   2.061   1.888   4.699
 2126TIP3    H1 6321   2.156   1.885   4.705
 2126TIP3    H2 6322   2.030   1.858   4.784
 2127TIP3   OH2 6323   5.929   6.949   0.345
 2127TIP3    H1 6324   5.985   7.026   0.338
 2127TIP3    H2 6325   5.974   6.892   0.408
 2128TIP3   OH2 6326   4.648   6.530   4.092
 2128TIP3    H1 6327   4.630   6.462   4.027
 2128TIP3    H2 6328   4.686   6.602   4.041
 2129TIP3   OH2 6329   5.543   3.345   2.186
 2129TIP3    H1 6330   5.540   3.249   2.189
 2129TIP3    H2 6331   5.484   3.368   2.113
 2130TIP3   OH2 6332   5.264   4.181   6.051
 2130TIP3    H1 6333   5.359   4.178   6.064
 2130TIP3    H2 6334   5.229   4.120   6.116
 2131TIP3   OH2 6335   0.290   7.727   5.605
 2131TIP3    H1 6336   0.338   7.776   5.673
 2131TIP3    H2 6337   0.255   7.650   5.651
 2132TIP3   OH2 6338   6.879   2.564   3.535
 2132TIP3    H1 6339   6.880   2.582   3.441
 2132TIP3    H2 6340   6.913   2.645   3.575
 2133TIP3   OH2 6341   1.616   2.778   0.599
 2133TIP3    H1 6342   1.666   2.786   0.518
 2133TIP3    H2 6343   1.562   2.700   0.586
 2134TIP3   OH2 6344   5.974   6.308   2.358
 2134TIP3    H1 6345   6.008   6.323   2.446
 2134TIP3    H2 6346   6.004   6.221   2.335
 2135TIP3   OH2 6347   5.396   6.030   2.239
 2135TIP3    H1 6348   5.405   5.952   2.185
 2135TIP3    H2 6349   5.481   6.039   2.283
 2136TIP3   OH2 6350   0.091   2.634   4.023
 2136TIP3    H1 6351   0.139   2.689   4.084
 2136TIP3    H2 6352   0.009   2.614   4.069
 2137TIP3   OH2 6353   2.471   7.393   5.452
 2137TIP3    H1 6354   2.520   7.312   5.452
 2137TIP3    H2 6355   2.424   7.393   5.369
 2138TIP3   OH2 6356   2.866   6.221   6.542
 2138TIP3    H1 6357   2.826   6.149   6.494
 2138TIP3    H2 6358   2.826   6.300   6.505
 2139TIP3   OH2 6359   1.592   4.600   0.469
 2139TIP3    H1 6360   1.688   4.595   0.467
 2139TIP3    H2 6361   1.565   4.567   0.384
 2140TIP3   OH2 6362   6.118   4.213   0.620
 2140TIP3    H1 6363   6.030   4.235   0.650
 2140TIP3    H2 6364   6.122   4.118   0.624
 2141TIP3   OH2 6365   3.018   3.406   2.780
 2141TIP3    H1 6366   2.982   3.318   2.768
 2141TIP3    H2 6367   3.060   3.427   2.696
 2142TIP3   OH2 6368   1.050   2.899   6.639
 2142TIP3    H1 6369   0.977   2.939   6.592
 2142TIP3    H2 6370   1.122   2.961   6.630
 2143TIP3   OH2 6371   3.468   4.354   5.318
 2143TIP3    H1 6372   3.437   4.427   5.372
 2143TIP3    H2 6373   3.470   4.279   5.378
 2144TIP3   OH2 6374   7.067   0.141   2.731
 2144TIP3    H1 6375   7.147   0.183   2.700
 2144TIP3    H2 6376   7.098   0.077   2.795
 2145TIP3   OH2 6377   6.126   1.533   4.489
 2145TIP3    H1 6378   6.041   1.577   4.502
 2145TIP3    H2 6379   6.151   1.555   4.400
 2146TIP3   OH2 6380   3.704   3.474   0.647
 2146TIP3    H1 6381   3.724   3.420   0.724
 2146TIP3    H2 6382   3.745   3.427   0.574
 2147TIP3   OH2 6383   7.172   4.650   1.341
 2147TIP3    H1 6384   7.252   4.682   1.383
 2147TIP3    H2 6385   7.101   4.701   1.381
 2148TIP3   OH2 6386   4.728   3.451   6.164
 2148TIP3    H1 6387   4.812   3.496   6.157
 2148TIP3    H2 6388   4.676   3.484   6.091
 2149TIP3   OH2 6389   3.871   2.710   2.016
 2149TIP3    H1 6390   3.942   2.650   2.039
 2149TIP3    H2 6391   3.916   2.790   1.989
 2150TIP3   OH2 6392   0.404   0.154   2.571
 2150TIP3    H1 6393   0.439   0.102   2.500
 2150TIP3    H2 6394   0.417   0.245   2.544
 2151TIP3   OH2 6395   2.702   3.952   5.003
 2151TIP3    H1 6396   2.702   4.003   4.921
 2151TIP3    H2 6397   2.735   4.014   5.068
 2152TIP3   OH2 6398   1.641   4.018   6.321
 2152TIP3    H1 6399   1.654   3.958   6.395
 2152TIP3    H2 6400   1.712   3.996   6.260
 2153TIP3   OH2 6401   6.809   1.296   6.382
 2153TIP3    H1 6402   6.778   1.353   6.453
 2153TIP3    H2 6403   6.885   1.251   6.419
 2154TIP3   OH2 6404   3.250   4.618   6.074
 2154TIP3    H1 6405   3.217   4.650   6.158
 2154TIP3    H2 6406   3.334   4.577   6.096
 2155TIP3   OH2 6407   6.920   2.892   4.636
 2155TIP3    H1 6408   6.865   2.814   4.632
 2155TIP3    H2 6409   6.858   2.964   4.649
 2156TIP3   OH2 6410   0.175   7.695   4.173
 2156TIP3    H1 6411   0.241   7.712   4.241
 2156TIP3    H2 6412   0.092   7.711   4.217
 2157TIP3   OH2 6413   6.583   0.088   1.057
 2157TIP3    H1 6414   6.623   0.171   1.082
 2157TIP3    H2 6415   6.520   0.111   0.989
 2158TIP3   OH2 6416   6.918   3.976   4.943
 2158TIP3    H1 6417   7.006   3.947   4.919
 2158TIP3    H2 6418   6.862   3.940   4.875
 2159TIP3   OH2 6419   5.662   2.710   0.942
 2159TIP3    H1 6420   5.742   2.762   0.930
 2159TIP3    H2 6421   5.692   2.619   0.944
 2160TIP3   OH2 6422   7.014   1.533   3.690
 2160TIP3    H1 6423   6.983   1.492   3.609
 2160TIP3    H2 6424   7.097   1.574   3.667
 2161TIP3   OH2 6425   6.414   2.528   0.892
 2161TIP3    H1 6426   6.490   2.476   0.867
 2161TIP3    H2 6427   6.435   2.559   0.980
 2162TIP3   OH2 6428   4.675   4.285   2.451
 2162TIP3    H1 6429   4.594   4.240   2.426
 2162TIP3    H2 6430   4.735   4.267   2.378
 2163TIP3   OH2 6431   2.491   2.290   2.515
 2163TIP3    H1 6432   2.457   2.217   2.566
 2163TIP3    H2 6433   2.581   2.265   2.493
 2164TIP3   OH2 6434   7.495   2.399   4.246
 2164TIP3    H1 6435   7.554   2.346   4.301
 2164TIP3    H2 6436   7.531   2.488   4.252
 2165TIP3   OH2 6437   7.188   1.545   2.779
 2165TIP3    H1 6438   7.204   1.486   2.705
 2165TIP3    H2 6439   7.191   1.633   2.741
 2166TIP3   OH2 6440   0.524   3.319   6.237
 2166TIP3    H1 6441   0.574   3.330   6.156
 2166TIP3    H2 6442   0.481   3.403   6.251
 2167TIP3   OH2 6443   6.250   7.631   6.532
 2167TIP3    H1 6444   6.180   7.657   6.472
 2167TIP3    H2 6445   6.322   7.691   6.511
 2168TIP3   OH2 6446   1.283   3.356   0.847
 2168TIP3    H1 6447   1.373   3.325   0.862
 2168TIP3    H2 6448   1.264   3.331   0.757
 2169TIP3   OH2 6449   0.672   4.220   4.185
 2169TIP3    H1 6450   0.626   4.154   4.134
 2169TIP3    H2 6451   0.757   4.181   4.205
 2170TIP3   OH2 6452   6.833   2.631   4.733
 2170TIP3    H1 6453   6.792   2.676   4.807
 2170TIP3    H2 6454   6.922   2.612   4.764
 2171TIP3   OH2 6455   2.451   6.321   2.800
 2171TIP3    H1 6456   2.530   6.333   2.852
 2171TIP3    H2 6457   2.469   6.244   2.745
 2172TIP3   OH2 6458   4.814   1.162   6.238
 2172TIP3    H1 6459   4.818   1.070   6.214
 2172TIP3    H2 6460   4.760   1.202   6.170
 2173TIP3   OH2 6461   4.413   5.308   3.721
 2173TIP3    H1 6462   4.360   5.339   3.647
 2173TIP3    H2 6463   4.392   5.215   3.728
 2174TIP3   OH2 6464   1.775   4.781   3.516
 2174TIP3    H1 6465   1.701   4.799   3.458
 2174TIP3    H2 6466   1.826   4.715   3.469
 2175TIP3   OH2 6467   6.146   7.817   3.123
 2175TIP3    H1 6468   6.167   7.911   3.123
 2175TIP3    H2 6469   6.060   7.812   3.165
 2176TIP3   OH2 6470   3.370   6.467   1.453
 2176TIP3    H1 6471   3.416   6.405   1.396
 2176TIP3    H2 6472   3.298   6.417   1.491
 2177TIP3   OH2 6473   5.351   5.750   0.954
 2177TIP3    H1 6474   5.285   5.782   1.016
 2177TIP3    H2 6475   5.300   5.716   0.881
 2178TIP3   OH2 6476   1.044   0.780   1.109
 2178TIP3    H1 6477   1.108   0.726   1.064
 2178TIP3    H2 6478   0.985   0.811   1.040
 2179TIP3   OH2 6479   0.541   0.509   0.134
 2179TIP3    H1 6480   0.636   0.524   0.134
 2179TIP3    H2 6481   0.505   0.584   0.087
 2180TIP3   OH2 6482   4.478   2.215   1.870
 2180TIP3    H1 6483   4.443   2.133   1.906
 2180TIP3    H2 6484   4.570   2.197   1.854
 2181TIP3   OH2 6485   0.745   5.367   4.940
 2181TIP3    H1 6486   0.776   5.414   5.018
 2181TIP3    H2 6487   0.811   5.385   4.873
 2182TIP3   OH2 6488   0.609   0.937   3.402
 2182TIP3    H1 6489   0.621   0.848   3.369
 2182TIP3    H2 6490   0.652   0.937   3.488
 2183TIP3   OH2 6491   2.870   6.792   2.914
 2183TIP3    H1 6492   2.888   6.720   2.974
 2183TIP3    H2 6493   2.796   6.838   2.953
 2184TIP3   OH2 6494   0.321   3.410   5.751
 2184TIP3    H1 6495   0.341   3.337   5.811
 2184TIP3    H2 6496   0.406   3.451   5.736
 2185TIP3   OH2 6497   3.697   7.808   5.703
 2185TIP3    H1 6498   3.624   7.848   5.750
 2185TIP3    H2 6499   3.774   7.832   5.755
 2186TIP3   OH2 6500   7.621   4.369   4.924
 2186TIP3    H1 6501   7.621   4.427   5.000
 2186TIP3    H2 6502   7.642   4.283   4.959
 2187TIP3   OH2 6503   7.552   2.790   5.127
 2187TIP3    H1 6504   7.619   2.855   5.150
 2187TIP3    H2 6505   7.484   2.840   5.083
 2188TIP3   OH2 6506   7.300   5.634   4.677
 2188TIP3    H1 6507   7.269   5.549   4.709
 2188TIP3    H2 6508   7.319   5.620   4.585
 2189TIP3   OH2 6509   1.261   3.753   3.982
 2189TIP3    H1 6510   1.230   3.663   3.995
 2189TIP3    H2 6511   1.293   3.754   3.892
 2190TIP3   OH2 6512   1.948   2.655   2.026
 2190TIP3    H1 6513   1.857   2.679   2.044
 2190TIP3    H2 6514   1.997   2.737   2.034
 2191TIP3   OH2 6515   5.401   6.371   0.317
 2191TIP3    H1 6516   5.356   6.432   0.376
 2191TIP3    H2 6517   5.449   6.312   0.376
 2192TIP3   OH2 6518   6.902   0.848   5.842
 2192TIP3    H1 6519   6.914   0.942   5.828
 2192TIP3    H2 6520   6.979   0.821   5.893
 2193TIP3   OH2 6521   2.664   3.696   6.431
 2193TIP3    H1 6522   2.701   3.619   6.476
 2193TIP3    H2 6523   2.581   3.664   6.395
 2194TIP3   OH2 6524   2.497   5.866   3.750
 2194TIP3    H1 6525   2.523   5.778   3.722
 2194TIP3    H2 6526   2.449   5.901   3.674
 2195TIP3   OH2 6527   3.887   1.345   3.488
 2195TIP3    H1 6528   3.960   1.343   3.426
 2195TIP3    H2 6529   3.917   1.404   3.558
 2196TIP3   OH2 6530   4.182   0.793   1.446
 2196TIP3    H1 6531   4.213   0.830   1.529
 2196TIP3    H2 6532   4.162   0.870   1.392
 2197TIP3   OH2 6533   3.232   1.734   5.548
 2197TIP3    H1 6534   3.184   1.816   5.557
 2197TIP3    H2 6535   3.271   1.737   5.461
 2198TIP3   OH2 6536   5.860   5.491   0.531
 2198TIP3    H1 6537   5.876   5.466   0.623
 2198TIP3    H2 6538   5.785   5.550   0.535
 2199TIP3   OH2 6539   5.518   1.692   6.313
 2199TIP3    H1 6540   5.437   1.740   6.295
 2199TIP3    H2 6541   5.489   1.611   6.356
 2200TIP3   OH2 6542   3.886   4.601   6.057
 2200TIP3    H1 6543   3.896   4.506   6.064
 2200TIP3    H2 6544   3.810   4.621   6.112
 2201TIP3   OH2 6545   6.005   7.590   1.533
 2201TIP3    H1 6546   6.095   7.588   1.499
 2201TIP3    H2 6547   5.961   7.656   1.480
 2202TIP3   OH2 6548   6.854   4.141   1.111
 2202TIP3    H1 6549   6.938   4.126   1.154
 2202TIP3    H2 6550   6.855   4.234   1.089
 2203TIP3   OH2 6551   4.877   5.951   5.484
 2203TIP3    H1 6552   4.943   5.960   5.415
 2203TIP3    H2 6553   4.928   5.953   5.565
 2204TIP3   OH2 6554   4.774   5.565   1.572
 2204TIP3    H1 6555   4.705   5.564   1.638
 2204TIP3    H2 6556   4.830   5.491   1.595
 2205TIP3   OH2 6557   4.541   6.053   6.140
 2205TIP3    H1 6558   4.612   6.000   6.104
 2205TIP3    H2 6559   4.570   6.074   6.229
 2206TIP3   OH2 6560   7.792   6.000   1.036
 2206TIP3    H1 6561   7.866   5.967   0.986
 2206TIP3    H2 6562   7.829   6.071   1.089
 2207TIP3   OH2 6563   1.477   4.580   6.171
 2207TIP3    H1 6564   1.385   4.600   6.189
 2207TIP3    H2 6565   1.514   4.664   6.143
 2208TIP3   OH2 6566   6.601   5.408   2.899
 2208TIP3    H1 6567   6.627   5.346   2.967
 2208TIP3    H2 6568   6.684   5.438   2.862
 2209TIP3   OH2 6569   3.548   5.910   3.941
 2209TIP3    H1 6570   3.457   5.931   3.921
 2209TIP3    H2 6571   3.544   5.866   4.026
 2210TIP3   OH2 6572   3.257   6.391   2.629
 2210TIP3    H1 6573   3.163   6.379   2.623
 2210TIP3    H2 6574   3.293   6.332   2.563
 2211TIP3   OH2 6575   4.225   2.006   0.084
 2211TIP3    H1 6576   4.272   1.926   0.105
 2211TIP3    H2 6577   4.149   2.005   0.143
 2212TIP3   OH2 6578   6.136   4.454   1.098
 2212TIP3    H1 6579   6.075   4.381   1.087
 2212TIP3    H2 6580   6.222   4.412   1.104
 2213TIP3   OH2 6581   2.315   0.613   2.094
 2213TIP3    H1 6582   2.389   0.570   2.052
 2213TIP3    H2 6583   2.249   0.545   2.102
 2214TIP3   OH2 6584   4.556   0.812   1.458
 2214TIP3    H1 6585   4.498   0.885   1.437
 2214TIP3    H2 6586   4.640   0.836   1.420
 2215TIP3   OH2 6587   6.490   0.597   1.482
 2215TIP3    H1 6588   6.490   0.538   1.558
 2215TIP3    H2 6589   6.421   0.563   1.425
 2216TIP3   OH2 6590   0.150   4.035   4.719
 2216TIP3    H1 6591   0.140   3.999   4.631
 2216TIP3    H2 6592   0.162   3.958   4.775
 2217TIP3   OH2 6593   0.660   3.717   6.346
 2217TIP3    H1 6594   0.750   3.722   6.377
 2217TIP3    H2 6595   0.621   3.644   6.394
 2218TIP3   OH2 6596   5.693   1.108   4.305
 2218TIP3    H1 6597   5.597   1.110   4.310
 2218TIP3    H2 6598   5.712   1.062   4.223
 2219TIP3   OH2 6599   4.974   7.330   2.747
 2219TIP3    H1 6600   5.051   7.330   2.804
 2219TIP3    H2 6601   5.003   7.283   2.668
 2220TIP3   OH2 6602   4.113   1.476   0.408
 2220TIP3    H1 6603   4.123   1.461   0.502
 2220TIP3    H2 6604   4.037   1.424   0.384
 2221TIP3   OH2 6605   1.284   2.483   4.025
 2221TIP3    H1 6606   1.340   2.438   4.088
 2221TIP3    H2 6607   1.197   2.483   4.064
 2222TIP3   OH2 6608   6.733   2.531   1.865
 2222TIP3    H1 6609   6.766   2.616   1.893
 2222TIP3    H2 6610   6.719   2.541   1.771
 2223TIP3   OH2 6611   7.221   4.991   1.352
 2223TIP3    H1 6612   7.219   4.954   1.440
 2223TIP3    H2 6613   7.301   4.957   1.313
 2224TIP3   OH2 6614   5.795   2.573   6.019
 2224TIP3    H1 6615   5.880   2.530   6.011
 2224TIP3    H2 6616   5.744   2.540   5.945
 2225TIP3   OH2 6617   1.749   4.615   6.776
 2225TIP3    H1 6618   1.741   4.609   6.681
 2225TIP3    H2 6619   1.707   4.536   6.809
 2226TIP3   OH2 6620   5.260   1.566   6.403
 2226TIP3    H1 6621   5.271   1.656   6.374
 2226TIP3    H2 6622   5.211   1.573   6.485
 2227TIP3   OH2 6623   5.482   2.074   2.922
 2227TIP3    H1 6624   5.442   2.097   3.006
 2227TIP3    H2 6625   5.465   1.981   2.912
 2228TIP3   OH2 6626   4.948   4.132   4.494
 2228TIP3    H1 6627   5.039   4.114   4.471
 2228TIP3    H2 6628   4.926   4.212   4.447
 2229TIP3   OH2 6629   5.333   1.199   5.815
 2229TIP3    H1 6630   5.389   1.255   5.761
 2229TIP3    H2 6631   5.352   1.110   5.785
 2230TIP3   OH2 6632   5.752   1.032   2.894
 2230TIP3    H1 6633   5.680   0.974   2.917
 2230TIP3    H2 6634   5.809   1.030   2.971
 2231TIP3   OH2 6635   7.556   5.075   4.068
 2231TIP3    H1 6636   7.465   5.048   4.083
 2231TIP3    H2 6637   7.570   5.062   3.974
 2232TIP3   OH2 6638   4.343   3.155   6.036
 2232TIP3    H1 6639   4.299   3.135   5.954
 2232TIP3    H2 6640   4.293   3.228   6.073
 2233TIP3   OH2 6641   4.082   4.870   1.894
 2233TIP3    H1 6642   4.150   4.868   1.827
 2233TIP3    H2 6643   4.006   4.909   1.851
 2234TIP3   OH2 6644   5.706   4.308   3.817
 2234TIP3    H1 6645   5.712   4.400   3.841
 2234TIP3    H2 6646   5.618   4.282   3.845
 2235TIP3   OH2 6647   2.955   5.745   6.682
 2235TIP3    H1 6648   2.887   5.803   6.648
 2235TIP3    H2 6649   2.991   5.792   6.757
 2236TIP3   OH2 6650   7.790   3.801   0.302
 2236TIP3    H1 6651   7.868   3.854   0.319
 2236TIP3    H2 6652   7.821   3.732   0.243
 2237TIP3   OH2 6653   0.128   6.197   2.845
 2237TIP3    H1 6654   0.033   6.188   2.855
 2237TIP3    H2 6655   0.158   6.233   2.928
 2238TIP3   OH2 6656   2.563   0.788   2.334
 2238TIP3    H1 6657   2.617   0.821   2.406
 2238TIP3    H2 6658   2.627   0.758   2.269
 2239TIP3   OH2 6659   0.417   6.399   1.472
 2239TIP3    H1 6660   0.492   6.404   1.531
 2239TIP3    H2 6661   0.418   6.482   1.424
 2240TIP3   OH2 6662   5.567   2.975   3.960
 2240TIP3    H1 6663   5.507   3.024   3.903
 2240TIP3    H2 6664   5.551   2.883   3.938
 2241TIP3   OH2 6665   1.962   4.367   0.443
 2241TIP3    H1 6666   1.956   4.462   0.446
 2241TIP3    H2 6667   1.942   4.339   0.532
 2242TIP3   OH2 6668   1.381   6.066   2.227
 2242TIP3    H1 6669   1.364   5.979   2.189
 2242TIP3    H2 6670   1.295   6.106   2.234
 2243TIP3   OH2 6671   6.055   1.442   2.366
 2243TIP3    H1 6672   6.105   1.428   2.447
 2243TIP3    H2 6673   6.096   1.519   2.326
 2244TIP3   OH2 6674   3.206   4.083   2.397
 2244TIP3    H1 6675   3.175   4.085   2.306
 2244TIP3    H2 6676   3.145   4.025   2.442
 2245TIP3   OH2 6677   1.638   7.193   6.224
 2245TIP3    H1 6678   1.594   7.227   6.146
 2245TIP3    H2 6679   1.613   7.254   6.293
 2246TIP3   OH2 6680   1.789   6.405   2.279
 2246TIP3    H1 6681   1.864   6.465   2.278
 2246TIP3    H2 6682   1.714   6.461   2.301
 2247TIP3   OH2 6683   5.373   5.953   0.404
 2247TIP3    H1 6684   5.352   5.861   0.388
 2247TIP3    H2 6685   5.464   5.953   0.432
 2248TIP3   OH2 6686   8.018   4.698   5.640
 2248TIP3    H1 6687   8.081   4.707   5.569
 2248TIP3    H2 6688   8.064   4.733   5.717
 2249TIP3   OH2 6689   1.765   7.446   4.276
 2249TIP3    H1 6690   1.778   7.525   4.327
 2249TIP3    H2 6691   1.680   7.458   4.234
 2250TIP3   OH2 6692   0.115   4.546   5.311
 2250TIP3    H1 6693   0.076   4.489   5.378
 2250TIP3    H2 6694   0.093   4.635   5.339
 2251TIP3   OH2 6695   3.809   4.933   5.133
 2251TIP3    H1 6696   3.726   4.949   5.177
 2251TIP3    H2 6697   3.796   4.851   5.085
 2252TIP3   OH2 6698   3.249   3.561   5.266
 2252TIP3    H1 6699   3.277   3.650   5.285
 2252TIP3    H2 6700   3.292   3.507   5.332
 2253TIP3   OH2 6701   3.846   1.528   5.432
 2253TIP3    H1 6702   3.793   1.572   5.365
 2253TIP3    H2 6703   3.793   1.530   5.511
 2254TIP3   OH2 6704   1.929   5.026   6.433
 2254TIP3    H1 6705   1.875   5.095   6.394
 2254TIP3    H2 6706   1.907   4.947   6.384
 2255TIP3   OH2 6707   4.971   3.036   5.180
 2255TIP3    H1 6708   4.938   2.961   5.229
 2255TIP3    H2 6709   4.989   3.001   5.092
 2256TIP3   OH2 6710   3.733   3.423   6.304
 2256TIP3    H1 6711   3.740   3.379   6.389
 2256TIP3    H2 6712   3.644   3.458   6.303
 2257TIP3   OH2 6713   5.714   0.740   2.587
 2257TIP3    H1 6714   5.696   0.714   2.678
 2257TIP3    H2 6715   5.730   0.834   2.592
 2258TIP3   OH2 6716   5.185   7.831   1.632
 2258TIP3    H1 6717   5.262   7.847   1.687
 2258TIP3    H2 6718   5.189   7.899   1.565
 2259TIP3   OH2 6719   0.391   2.698   5.265
 2259TIP3    H1 6720   0.367   2.776   5.315
 2259TIP3    H2 6721   0.378   2.723   5.174
 2260TIP3   OH2 6722   0.556   4.326   6.572
 2260TIP3    H1 6723   0.489   4.337   6.639
 2260TIP3    H2 6724   0.519   4.370   6.495
 2261TIP3   OH2 6725   1.722   0.116   0.401
 2261TIP3    H1 6726   1.742   0.124   0.308
 2261TIP3    H2 6727   1.750   0.199   0.439
 2262TIP3   OH2 6728   1.212   3.419   0.398
 2262TIP3    H1 6729   1.122   3.388   0.404
 2262TIP3    H2 6730   1.210   3.506   0.438
 2263TIP3   OH2 6731   6.116   1.407   6.648
 2263TIP3    H1 6732   6.145   1.414   6.738
 2263TIP3    H2 6733   6.141   1.490   6.607
 2264TIP3   OH2 6734   6.653   0.415   3.977
 2264TIP3    H1 6735   6.597   0.338   3.978
 2264TIP3    H2 6736   6.710   0.403   3.901
 2265TIP3   OH2 6737   4.196   5.868   0.378
 2265TIP3    H1 6738   4.234   5.869   0.291
 2265TIP3    H2 6739   4.111   5.825   0.368
 2266TIP3   OH2 6740   7.482   7.767   2.792
 2266TIP3    H1 6741   7.435   7.714   2.728
 2266TIP3    H2 6742   7.561   7.717   2.812
 2267TIP3   OH2 6743   2.206   1.668   5.206
 2267TIP3    H1 6744   2.261   1.607   5.157
 2267TIP3    H2 6745   2.259   1.692   5.282
 2268TIP3   OH2 6746   3.666   4.267   5.126
 2268TIP3    H1 6747   3.615   4.225   5.057
 2268TIP3    H2 6748   3.603   4.286   5.195
 2269TIP3   OH2 6749   5.737   2.110   1.658
 2269TIP3    H1 6750   5.779   2.158   1.729
 2269TIP3    H2 6751   5.731   2.020   1.689
 2270TIP3   OH2 6752   5.132   2.859   3.724
 2270TIP3    H1 6753   5.113   2.817   3.807
 2270TIP3    H2 6754   5.130   2.788   3.660
 2271TIP3   OH2 6755   7.513   2.550   4.522
 2271TIP3    H1 6756   7.421   2.525   4.527
 2271TIP3    H2 6757   7.553   2.509   4.598
 2272TIP3   OH2 6758   0.144   3.245   1.257
 2272TIP3    H1 6759   0.204   3.298   1.309
 2272TIP3    H2 6760   0.163   3.268   1.166
 2273TIP3   OH2 6761   6.657   0.153   2.074
 2273TIP3    H1 6762   6.579   0.120   2.029
 2273TIP3    H2 6763   6.651   0.117   2.162
 2274TIP3   OH2 6764   1.352   7.269   4.430
 2274TIP3    H1 6765   1.295   7.222   4.491
 2274TIP3    H2 6766   1.427   7.211   4.417
 2275TIP3   OH2 6767   2.017   5.017   3.405
 2275TIP3    H1 6768   1.960   5.085   3.368
 2275TIP3    H2 6769   2.094   5.064   3.436
 2276TIP3   OH2 6770   1.948   0.559   1.953
 2276TIP3    H1 6771   1.951   0.647   1.991
 2276TIP3    H2 6772   2.038   0.540   1.928
 2277TIP3   OH2 6773   1.918   3.720   0.719
 2277TIP3    H1 6774   2.007   3.684   0.714
 2277TIP3    H2 6775   1.888   3.698   0.807
 2278TIP3   OH2 6776   6.127   5.875   2.042
 2278TIP3    H1 6777   6.040   5.837   2.029
 2278TIP3    H2 6778   6.111   5.970   2.046
 2279TIP3   OH2 6779   5.847   3.342   1.982
 2279TIP3    H1 6780   5.787   3.296   1.923
 2279TIP3    H2 6781   5.872   3.276   2.047
 2280TIP3   OH2 6782   7.983   7.669   0.430
 2280TIP3    H1 6783   7.900   7.705   0.400
 2280TIP3    H2 6784   7.963   7.579   0.455
 2281TIP3   OH2 6785   6.116   7.821   3.759
 2281TIP3    H1 6786   6.100   7.849   3.669
 2281TIP3    H2 6787   6.057   7.745   3.770
 2282TIP3   OH2 6788   6.946   3.499   3.871
 2282TIP3    H1 6789   6.895   3.564   3.919
 2282TIP3    H2 6790   7.015   3.472   3.932
 2283TIP3   OH2 6791   3.374   3.590   0.757
 2283TIP3    H1 6792   3.443   3.559   0.815
 2283TIP3    H2 6793   3.378   3.532   0.681
 2284TIP3   OH2 6794   4.124   1.396   5.404
 2284TIP3    H1 6795   4.180   1.452   5.457
 2284TIP3    H2 6796   4.039   1.396   5.449
 2285TIP3   OH2 6797   5.203   2.779   6.758
 2285TIP3    H1 6798   5.146   2.782   6.681
 2285TIP3    H2 6799   5.260   2.704   6.743
 2286TIP3   OH2 6800   7.777   4.700   3.531
 2286TIP3    H1 6801   7.784   4.786   3.573
 2286TIP3    H2 6802   7.771   4.639   3.604
 2287TIP3   OH2 6803   6.808   0.115   0.170
 2287TIP3    H1 6804   6.738   0.145   0.228
 2287TIP3    H2 6805   6.878   0.178   0.183
 2288TIP3   OH2 6806   1.749   3.043   6.234
 2288TIP3    H1 6807   1.654   3.050   6.244
 2288TIP3    H2 6808   1.768   3.097   6.157
 2289TIP3   OH2 6809   4.685   3.097   6.734
 2289TIP3    H1 6810   4.660   3.016   6.689
 2289TIP3    H2 6811   4.777   3.109   6.713
 2290TIP3   OH2 6812   1.635   2.276   6.352
 2290TIP3    H1 6813   1.653   2.197   6.404
 2290TIP3    H2 6814   1.574   2.247   6.285
 2291TIP3   OH2 6815   5.976   3.127   0.785
 2291TIP3    H1 6816   5.895   3.144   0.736
 2291TIP3    H2 6817   5.963   3.170   0.869
 2292TIP3   OH2 6818   2.604   4.989   2.602
 2292TIP3    H1 6819   2.531   5.051   2.598
 2292TIP3    H2 6820   2.567   4.910   2.642
 2293TIP3   OH2 6821   0.437   7.007   3.019
 2293TIP3    H1 6822   0.349   7.042   3.006
 2293TIP3    H2 6823   0.449   6.945   2.948
 2294TIP3   OH2 6824   2.154   1.883   2.775
 2294TIP3    H1 6825   2.217   1.855   2.708
 2294TIP3    H2 6826   2.124   1.968   2.744
 2295TIP3   OH2 6827   0.191   4.150   3.863
 2295TIP3    H1 6828   0.145   4.233   3.847
 2295TIP3    H2 6829   0.239   4.166   3.944
 2296TIP3   OH2 6830   3.286   1.009   6.020
 2296TIP3    H1 6831   3.204   0.959   6.014
 2296TIP3    H2 6832   3.278   1.058   6.102
 2297TIP3   OH2 6833   6.757   7.115   4.613
 2297TIP3    H1 6834   6.847   7.148   4.615
 2297TIP3    H2 6835   6.728   7.119   4.704
 2298TIP3   OH2 6836   7.873   2.587   0.336
 2298TIP3    H1 6837   7.824   2.508   0.359
 2298TIP3    H2 6838   7.842   2.653   0.399
 2299TIP3   OH2 6839   5.045   3.900   2.738
 2299TIP3    H1 6840   5.022   3.968   2.802
 2299TIP3    H2 6841   4.963   3.854   2.722
 2300TIP3   OH2 6842   4.767   2.021   3.253
 2300TIP3    H1 6843   4.747   2.094   3.311
 2300TIP3    H2 6844   4.838   2.052   3.197
 2301TIP3   OH2 6845   5.902   0.298   6.103
 2301TIP3    H1 6846   5.869   0.318   6.015
 2301TIP3    H2 6847   5.829   0.254   6.146
 2302TIP3   OH2 6848   2.983   3.494   1.112
 2302TIP3    H1 6849   3.024   3.489   1.026
 2302TIP3    H2 6850   2.929   3.415   1.118
 2303TIP3   OH2 6851   3.985   2.831   5.946
 2303TIP3    H1 6852   3.937   2.819   5.865
 2303TIP3    H2 6853   3.917   2.843   6.013
 2304TIP3   OH2 6854   2.747   1.065   1.668
 2304TIP3    H1 6855   2.771   1.000   1.602
 2304TIP3    H2 6856   2.822   1.124   1.673
 2305TIP3   OH2 6857   5.879   2.875   0.934
 2305TIP3    H1 6858   5.948   2.811   0.953
 2305TIP3    H2 6859   5.923   2.940   0.879
 2306TIP3   OH2 6860   7.562   2.753   0.517
 2306TIP3    H1 6861   7.521   2.770   0.602
 2306TIP3    H2 6862   7.566   2.657   0.512
 2307TIP3   OH2 6863   6.302   6.251   4.532
 2307TIP3    H1 6864   6.338   6.307   4.601
 2307TIP3    H2 6865   6.326   6.162   4.558
 2308TIP3   OH2 6866   7.474   6.081   5.949
 2308TIP3    H1 6867   7.411   6.102   5.881
 2308TIP3    H2 6868   7.462   6.149   6.015
 2309TIP3   OH2 6869   0.919   2.923   3.155
 2309TIP3    H1 6870   0.880   2.898   3.239
 2309TIP3    H2 6871   0.941   2.839   3.113
 2310TIP3   OH2 6872   0.224   7.291   1.993
 2310TIP3    H1 6873   0.295   7.330   2.043
 2310TIP3    H2 6874   0.241   7.315   1.903
 2311TIP3   OH2 6875   5.173   5.365   6.476
 2311TIP3    H1 6876   5.129   5.396   6.555
 2311TIP3    H2 6877   5.140   5.276   6.463
 2312TIP3   OH2 6878   4.789   0.389   6.328
 2312TIP3    H1 6879   4.748   0.474   6.312
 2312TIP3    H2 6880   4.718   0.325   6.321
 2313TIP3   OH2 6881   0.521   0.430   6.085
 2313TIP3    H1 6882   0.611   0.404   6.065
 2313TIP3    H2 6883   0.480   0.440   5.999
 2314TIP3   OH2 6884   3.592   7.507   4.980
 2314TIP3    H1 6885   3.534   7.442   5.021
 2314TIP3    H2 6886   3.535   7.582   4.962
 2315TIP3   OH2 6887   7.035   1.990   4.473
 2315TIP3    H1 6888   7.101   2.030   4.416
 2315TIP3    H2 6889   7.042   2.038   4.556
 2316TIP3   OH2 6890   3.954   4.164   1.457
 2316TIP3    H1 6891   4.006   4.180   1.536
 2316TIP3    H2 6892   3.908   4.247   1.442
 2317TIP3   OH2 6893   7.099   2.537   4.014
 2317TIP3    H1 6894   7.155   2.525   4.090
 2317TIP3    H2 6895   7.124   2.466   3.954
 2318TIP3   OH2 6896   4.053   1.521   2.719
 2318TIP3    H1 6897   4.089   1.467   2.790
 2318TIP3    H2 6898   3.991   1.580   2.763
 2319TIP3   OH2 6899   4.956   4.658   4.231
 2319TIP3    H1 6900   4.874   4.662   4.180
 2319TIP3    H2 6901   5.006   4.734   4.201
 2320TIP3   OH2 6902   4.920   0.062   0.920
 2320TIP3    H1 6903   4.987   0.023   0.863
 2320TIP3    H2 6904   4.968   0.085   1.000
 2321TIP3   OH2 6905   5.545   2.673   6.290
 2321TIP3    H1 6906   5.614   2.719   6.338
 2321TIP3    H2 6907   5.505   2.616   6.356
 2322TIP3   OH2 6908   1.182   3.299   3.718
 2322TIP3    H1 6909   1.121   3.349   3.664
 2322TIP3    H2 6910   1.265   3.301   3.670
 2323TIP3   OH2 6911   3.858   4.555   3.327
 2323TIP3    H1 6912   3.901   4.472   3.309
 2323TIP3    H2 6913   3.916   4.621   3.289
 2324TIP3   OH2 6914   4.848   0.227   6.722
 2324TIP3    H1 6915   4.866   0.134   6.733
 2324TIP3    H2 6916   4.755   0.232   6.702
 2325TIP3   OH2 6917   4.007   4.169   0.055
 2325TIP3    H1 6918   3.939   4.217   0.102
 2325TIP3    H2 6919   4.039   4.104   0.117
 2326TIP3   OH2 6920   2.641   7.745   4.647
 2326TIP3    H1 6921   2.695   7.700   4.712
 2326TIP3    H2 6922   2.703   7.802   4.601
 2327TIP3   OH2 6923   7.619   3.952   2.822
 2327TIP3    H1 6924   7.677   3.967   2.747
 2327TIP3    H2 6925   7.532   3.947   2.784
 2328TIP3   OH2 6926   0.433   6.924   6.474
 2328TIP3    H1 6927   0.522   6.893   6.489
 2328TIP3    H2 6928   0.400   6.945   6.561
 2329TIP3   OH2 6929   0.657   1.813  -0.002
 2329TIP3    H1 6930   0.710   1.738  -0.029
 2329TIP3    H2 6931   0.720   1.880   0.021
 2330TIP3   OH2 6932   7.693   3.968   5.212
 2330TIP3    H1 6933   7.710   3.997   5.301
 2330TIP3    H2 6934   7.753   3.895   5.198
 2331TIP3   OH2 6935   3.720   4.925   6.338
 2331TIP3    H1 6936   3.754   5.012   6.359
 2331TIP3    H2 6937   3.797   4.868   6.340
 2332TIP3   OH2 6938   3.778   3.020   5.998
 2332TIP3    H1 6939   3.805   2.968   6.074
 2332TIP3    H2 6940   3.717   2.963   5.950
 2333TIP3   OH2 6941   3.333   4.528   1.782
 2333TIP3    H1 6942   3.371   4.505   1.867
 2333TIP3    H2 6943   3.268   4.595   1.802
 2334TIP3   OH2 6944   1.263   6.003   0.139
 2334TIP3    H1 6945   1.300   6.005   0.228
 2334TIP3    H2 6946   1.200   5.932   0.141
 2335TIP3   OH2 6947   2.675   4.658   1.578
 2335TIP3    H1 6948   2.624   4.689   1.503
 2335TIP3    H2 6949   2.680   4.734   1.637
 2336TIP3   OH2 6950   0.744   2.663   2.072
 2336TIP3    H1 6951   0.767   2.570   2.074
 2336TIP3    H2 6952   0.652   2.664   2.045
 2337TIP3   OH2 6953   7.656   7.261   4.050
 2337TIP3    H1 6954   7.631   7.301   3.966
 2337TIP3    H2 6955   7.587   7.196   4.067
 2338TIP3   OH2 6956   3.058   7.439   5.406
 2338TIP3    H1 6957   3.148   7.468   5.421
 2338TIP3    H2 6958   3.032   7.398   5.488
 2339TIP3   OH2 6959   5.169   5.587   2.841
 2339TIP3    H1 6960   5.214   5.534   2.907
 2339TIP3    H2 6961   5.238   5.620   2.784
 2340TIP3   OH2 6962   0.367   1.578   6.355
 2340TIP3    H1 6963   0.361   1.673   6.350
 2340TIP3    H2 6964   0.276   1.549   6.368
 2341TIP3   OH2 6965   6.767   7.167   5.163
 2341TIP3    H1 6966   6.751   7.254   5.198
 2341TIP3    H2 6967   6.861   7.164   5.147
 2342TIP3   OH2 6968   0.221   7.326   3.874
 2342TIP3    H1 6969   0.170   7.245   3.864
 2342TIP3    H2 6970   0.312   7.300   3.861
 2343TIP3   OH2 6971   0.290   1.698   5.101
 2343TIP3    H1 6972   0.304   1.637   5.173
 2343TIP3    H2 6973   0.198   1.684   5.076
 2344TIP3   OH2 6974   0.258   5.169   1.469
 2344TIP3    H1 6975   0.310   5.109   1.416
 2344TIP3    H2 6976   0.169   5.162   1.434
 2345TIP3   OH2 6977   3.144   0.421   1.521
 2345TIP3    H1 6978   3.089   0.498   1.539
 2345TIP3    H2 6979   3.205   0.451   1.454
 2346TIP3   OH2 6980   6.690   2.561   2.857
 2346TIP3    H1 6981   6.661   2.554   2.948
 2346TIP3    H2 6982   6.640   2.495   2.810
 2347TIP3   OH2 6983   3.587   0.797   0.099
 2347TIP3    H1 6984   3.513   0.736   0.104
 2347TIP3    H2 6985   3.587   0.841   0.184
 2348TIP3   OH2 6986   4.542   5.307   3.003
 2348TIP3    H1 6987   4.523   5.221   3.040
 2348TIP3    H2 6988   4.586   5.288   2.920
 2349TIP3   OH2 6989   7.484   4.364   2.267
 2349TIP3    H1 6990   7.485   4.436   2.330
 2349TIP3    H2 6991   7.391   4.340   2.261
 2350TIP3   OH2 6992   5.652   1.812   5.766
 2350TIP3    H1 6993   5.625   1.751   5.698
 2350TIP3    H2 6994   5.699   1.882   5.720
 2351TIP3   OH2 6995   1.082   6.085   4.036
 2351TIP3    H1 6996   1.061   6.173   4.006
 2351TIP3    H2 6997   1.010   6.062   4.094
 2352TIP3   OH2 6998   0.521   4.211   1.235
 2352TIP3    H1 6999   0.453   4.238   1.296
 2352TIP3    H2 7000   0.499   4.121   1.212
 2353TIP3   OH2 7001   4.959   2.343   3.401
 2353TIP3    H1 7002   4.877   2.386   3.380
 2353TIP3    H2 7003   4.948   2.311   3.491
 2354TIP3   OH2 7004   2.153   0.781   3.789
 2354TIP3    H1 7005   2.062   0.772   3.817
 2354TIP3    H2 7006   2.204   0.745   3.862
 2355TIP3   OH2 7007   3.319   5.272   1.536
 2355TIP3    H1 7008   3.329   5.328   1.459
 2355TIP3    H2 7009   3.329   5.331   1.611
 2356TIP3   OH2 7010   4.440   4.384   1.112
 2356TIP3    H1 7011   4.355   4.382   1.068
 2356TIP3    H2 7012   4.427   4.332   1.192
 2357TIP3   OH2 7013   0.518   5.632   4.581
 2357TIP3    H1 7014   0.528   5.537   4.589
 2357TIP3    H2 7015   0.458   5.656   4.652
 2358TIP3   OH2 7016   1.248   4.849   3.868
 2358TIP3    H1 7017   1.292   4.799   3.936
 2358TIP3    H2 7018   1.314   4.863   3.800
 2359TIP3   OH2 7019   6.768   6.244   3.241
 2359TIP3    H1 7020   6.815   6.301   3.302
 2359TIP3    H2 7021   6.764   6.159   3.285
 2360TIP3   OH2 7022   2.302   7.682   6.055
 2360TIP3    H1 7023   2.307   7.590   6.031
 2360TIP3    H2 7024   2.368   7.725   6.000
 2361TIP3   OH2 7025   1.936   3.278   0.776
 2361TIP3    H1 7026   1.958   3.323   0.694
 2361TIP3    H2 7027   1.903   3.193   0.747
 2362TIP3   OH2 7028   7.502   3.441   0.623
 2362TIP3    H1 7029   7.453   3.465   0.544
 2362TIP3    H2 7030   7.471   3.502   0.690
 2363TIP3   OH2 7031   4.622   4.959   2.011
 2363TIP3    H1 7032   4.648   4.871   2.040
 2363TIP3    H2 7033   4.527   4.961   2.022
 2364TIP3   OH2 7034   2.208   0.351   2.493
 2364TIP3    H1 7035   2.158   0.335   2.573
 2364TIP3    H2 7036   2.168   0.429   2.455
 2365TIP3   OH2 7037   5.663   0.932   3.285
 2365TIP3    H1 7038   5.573   0.901   3.297
 2365TIP3    H2 7039   5.666   1.016   3.330
 2366TIP3   OH2 7040   1.097   3.813   6.132
 2366TIP3    H1 7041   1.087   3.725   6.094
 2366TIP3    H2 7042   1.080   3.800   6.225
 2367TIP3   OH2 7043   4.469   4.848   5.283
 2367TIP3    H1 7044   4.488   4.755   5.266
 2367TIP3    H2 7045   4.373   4.853   5.277
 2368TIP3   OH2 7046   1.387   0.789   1.932
 2368TIP3    H1 7047   1.473   0.810   1.896
 2368TIP3    H2 7048   1.344   0.874   1.940
 2369TIP3   OH2 7049   0.725   4.880   3.995
 2369TIP3    H1 7050   0.730   4.942   4.068
 2369TIP3    H2 7051   0.817   4.866   3.970
 2370TIP3   OH2 7052   5.750   6.583   6.635
 2370TIP3    H1 7053   5.809   6.597   6.561
 2370TIP3    H2 7054   5.664   6.570   6.594
 2371TIP3   OH2 7055   5.922   2.903   4.948
 2371TIP3    H1 7056   5.914   2.990   4.910
 2371TIP3    H2 7057   6.013   2.899   4.980
 2372TIP3   OH2 7058   3.134   6.614   5.656
 2372TIP3    H1 7059   3.152   6.704   5.684
 2372TIP3    H2 7060   3.187   6.559   5.713
 2373TIP3   OH2 7061   7.151   3.472   4.831
 2373TIP3    H1 7062   7.180   3.486   4.741
 2373TIP3    H2 7063   7.232   3.471   4.882
 2374TIP3   OH2 7064   8.202   1.336   5.471
 2374TIP3    H1 7065   8.188   1.241   5.477
 2374TIP3    H2 7066   8.203   1.366   5.562
 2375TIP3   OH2 7067   0.057   7.090   6.415
 2375TIP3    H1 7068   0.079   7.179   6.443
 2375TIP3    H2 7069   0.131   7.063   6.361
 2376TIP3   OH2 7070   0.468   6.980   1.403
 2376TIP3    H1 7071   0.395   6.957   1.345
 2376TIP3    H2 7072   0.531   6.909   1.389
 2377TIP3   OH2 7073   1.619   5.917   6.219
 2377TIP3    H1 7074   1.626   5.845   6.282
 2377TIP3    H2 7075   1.642   5.878   6.135
 2378TIP3   OH2 7076   7.005   3.653   5.249
 2378TIP3    H1 7077   7.010   3.558   5.261
 2378TIP3    H2 7078   6.988   3.664   5.156
 2379TIP3   OH2 7079   4.739   5.682   6.568
 2379TIP3    H1 7080   4.741   5.741   6.644
 2379TIP3    H2 7081   4.821   5.702   6.521
 2380TIP3   OH2 7082   0.171   0.799   5.079
 2380TIP3    H1 7083   0.133   0.886   5.074
 2380TIP3    H2 7084   0.201   0.791   5.170
 2381TIP3   OH2 7085   6.064   7.000   1.500
 2381TIP3    H1 7086   5.972   6.981   1.482
 2381TIP3    H2 7087   6.061   7.072   1.564
 2382TIP3   OH2 7088   4.798   5.384   4.310
 2382TIP3    H1 7089   4.800   5.413   4.402
 2382TIP3    H2 7090   4.715   5.337   4.302
 2383TIP3   OH2 7091   7.666   6.884   5.182
 2383TIP3    H1 7092   7.583   6.867   5.138
 2383TIP3    H2 7093   7.687   6.975   5.161
 2384TIP3   OH2 7094   8.129   3.820   0.083
 2384TIP3    H1 7095   8.108   3.859  -0.001
 2384TIP3    H2 7096   8.220   3.843   0.099
 2385TIP3   OH2 7097   6.475   6.068   1.496
 2385TIP3    H1 7098   6.425   6.079   1.577
 2385TIP3    H2 7099   6.415   6.024   1.436
 2386TIP3   OH2 7100   4.645   5.370   5.342
 2386TIP3    H1 7101   4.593   5.291   5.359
 2386TIP3    H2 7102   4.658   5.409   5.428
 2387TIP3   OH2 7103   6.227   0.438   3.262
 2387TIP3    H1 7104   6.168   0.437   3.187
 2387TIP3    H2 7105   6.281   0.515   3.249
 2388TIP3   OH2 7106   1.775   1.311   3.687
 2388TIP3    H1 7107   1.787   1.216   3.692
 2388TIP3    H2 7108   1.682   1.323   3.671
 2389TIP3   OH2 7109   3.948   2.959   0.831
 2389TIP3    H1 7110   3.873   2.902   0.814
 2389TIP3    H2 7111   3.930   3.039   0.781
 2390TIP3   OH2 7112   6.526   2.352   1.939
 2390TIP3    H1 7113   6.594   2.418   1.929
 2390TIP3    H2 7114   6.494   2.363   2.028
 2391TIP3   OH2 7115   1.465   3.705   0.274
 2391TIP3    H1 7116   1.560   3.708   0.281
 2391TIP3    H2 7117   1.440   3.796   0.254
 2392TIP3   OH2 7118   3.065   5.808   4.913
 2392TIP3    H1 7119   3.019   5.841   4.990
 2392TIP3    H2 7120   3.140   5.866   4.902
 2393TIP3   OH2 7121   5.363   7.606   5.715
 2393TIP3    H1 7122   5.384   7.607   5.809
 2393TIP3    H2 7123   5.269   7.591   5.711
 2394TIP3   OH2 7124   5.852   1.088   5.263
 2394TIP3    H1 7125   5.830   1.048   5.180
 2394TIP3    H2 7126   5.802   1.170   5.264
 2395TIP3   OH2 7127   1.447   3.517   2.050
 2395TIP3    H1 7128   1.422   3.610   2.052
 2395TIP3    H2 7129   1.520   3.511   2.112
 2396TIP3   OH2 7130   0.843   3.631   4.504
 2396TIP3    H1 7131   0.839   3.653   4.598
 2396TIP3    H2 7132   0.862   3.537   4.503
 2397TIP3   OH2 7133   4.618   5.991   0.769
 2397TIP3    H1 7134   4.643   6.024   0.856
 2397TIP3    H2 7135   4.533   6.032   0.752
 2398TIP3   OH2 7136   6.985   2.528   6.419
 2398TIP3    H1 7137   6.922   2.462   6.393
 2398TIP3    H2 7138   6.941   2.577   6.489
 2399TIP3   OH2 7139   1.725   3.722   6.333
 2399TIP3    H1 7140   1.806   3.740   6.285
 2399TIP3    H2 7141   1.655   3.733   6.268
 2400TIP3   OH2 7142   7.481   0.591   5.899
 2400TIP3    H1 7143   7.440   0.630   5.976
 2400TIP3    H2 7144   7.460   0.651   5.827
 2401TIP3   OH2 7145   6.628   7.019   2.840
 2401TIP3    H1 7146   6.652   7.110   2.824
 2401TIP3    H2 7147   6.684   6.992   2.913
 2402TIP3   OH2 7148   7.883   0.557   2.669
 2402TIP3    H1 7149   7.877   0.619   2.597
 2402TIP3    H2 7150   7.916   0.608   2.743
 2403TIP3   OH2 7151   3.909   6.596   3.351
 2403TIP3    H1 7152   3.814   6.598   3.354
 2403TIP3    H2 7153   3.934   6.540   3.425
 2404TIP3   OH2 7154   5.017   5.417   1.831
 2404TIP3    H1 7155   5.043   5.498   1.787
 2404TIP3    H2 7156   4.969   5.368   1.765
 2405TIP3   OH2 7157   4.809   1.546   6.252
 2405TIP3    H1 7158   4.807   1.513   6.342
 2405TIP3    H2 7159   4.888   1.508   6.215
 2406TIP3   OH2 7160   7.642   0.870   1.021
 2406TIP3    H1 7161   7.694   0.825   0.955
 2406TIP3    H2 7162   7.630   0.805   1.090
 2407TIP3   OH2 7163   4.009   0.428   0.477
 2407TIP3    H1 7164   4.092   0.391   0.508
 2407TIP3    H2 7165   4.034   0.489   0.408
 2408TIP3   OH2 7166   8.333   1.654   4.980
 2408TIP3    H1 7167   8.300   1.624   4.896
 2408TIP3    H2 7168   8.257   1.654   5.038
 2409TIP3   OH2 7169   6.877   0.926   6.215
 2409TIP3    H1 7170   6.880   0.949   6.308
 2409TIP3    H2 7171   6.930   0.846   6.208
 2410TIP3   OH2 7172   6.007   6.816   3.824
 2410TIP3    H1 7173   6.029   6.863   3.744
 2410TIP3    H2 7174   5.912   6.825   3.833
 2411TIP3   OH2 7175   0.933   2.423   3.121
 2411TIP3    H1 7176   0.914   2.353   3.057
 2411TIP3    H2 7177   0.923   2.381   3.206
 2412TIP3   OH2 7178   2.192   3.356   5.722
 2412TIP3    H1 7179   2.287   3.355   5.714
 2412TIP3    H2 7180   2.166   3.266   5.704
 2413TIP3   OH2 7181   0.944   3.444   2.726
 2413TIP3    H1 7182   0.858   3.446   2.767
 2413TIP3    H2 7183   0.940   3.371   2.664
 2414TIP3   OH2 7184   4.453   3.247   5.689
 2414TIP3    H1 7185   4.420   3.280   5.605
 2414TIP3    H2 7186   4.406   3.299   5.754
 2415TIP3   OH2 7187   5.670   0.408   6.640
 2415TIP3    H1 7188   5.715   0.462   6.704
 2415TIP3    H2 7189   5.639   0.332   6.689
 2416TIP3   OH2 7190   0.564   1.853   5.751
 2416TIP3    H1 7191   0.605   1.860   5.837
 2416TIP3    H2 7192   0.546   1.943   5.725
 2417TIP3   OH2 7193   7.448   5.237   6.422
 2417TIP3    H1 7194   7.415   5.232   6.332
 2417TIP3    H2 7195   7.472   5.147   6.444
 2418TIP3   OH2 7196   4.722   4.333   1.042
 2418TIP3    H1 7197   4.631   4.352   1.063
 2418TIP3    H2 7198   4.769   4.415   1.061
 2419TIP3   OH2 7199   0.233   4.707   2.963
 2419TIP3    H1 7200   0.241   4.643   3.034
 2419TIP3    H2 7201   0.187   4.781   3.003
 2420TIP3   OH2 7202   6.275   0.259   1.614
 2420TIP3    H1 7203   6.299   0.305   1.694
 2420TIP3    H2 7204   6.359   0.232   1.576
 2421TIP3   OH2 7205   2.409   7.043   0.918
 2421TIP3    H1 7206   2.490   7.028   0.967
 2421TIP3    H2 7207   2.426   7.004   0.832
 2422TIP3   OH2 7208   4.898   6.223   1.375
 2422TIP3    H1 7209   4.840   6.175   1.435
 2422TIP3    H2 7210   4.970   6.162   1.359
 2423TIP3   OH2 7211   2.654   4.372   1.362
 2423TIP3    H1 7212   2.687   4.362   1.452
 2423TIP3    H2 7213   2.687   4.295   1.316
 2424TIP3   OH2 7214   0.506   6.479   0.816
 2424TIP3    H1 7215   0.417   6.494   0.847
 2424TIP3    H2 7216   0.495   6.438   0.730
 2425TIP3   OH2 7217   7.573   6.319   3.206
 2425TIP3    H1 7218   7.548   6.308   3.298
 2425TIP3    H2 7219   7.500   6.368   3.167
 2426TIP3   OH2 7220   1.664   7.022   2.205
 2426TIP3    H1 7221   1.732   6.964   2.170
 2426TIP3    H2 7222   1.599   7.027   2.135
 2427TIP3   OH2 7223   1.606   6.005   3.986
 2427TIP3    H1 7224   1.518   6.042   3.987
 2427TIP3    H2 7225   1.611   5.952   4.065
 2428TIP3   OH2 7226   3.089   1.262   3.472
 2428TIP3    H1 7227   3.090   1.200   3.545
 2428TIP3    H2 7228   3.013   1.238   3.420
 2429TIP3   OH2 7229   1.439   3.512   1.130
 2429TIP3    H1 7230   1.497   3.530   1.204
 2429TIP3    H2 7231   1.376   3.584   1.131
 2430TIP3   OH2 7232   5.328   0.950   2.700
 2430TIP3    H1 7233   5.353   1.041   2.683
 2430TIP3    H2 7234   5.408   0.908   2.730
 2431TIP3   OH2 7235   1.955   2.200   3.013
 2431TIP3    H1 7236   1.873   2.182   3.060
 2431TIP3    H2 7237   1.928   2.216   2.923
 2432TIP3   OH2 7238   5.791   7.419   3.207
 2432TIP3    H1 7239   5.827   7.481   3.144
 2432TIP3    H2 7240   5.822   7.334   3.177
 2433TIP3   OH2 7241   4.233   6.937   4.466
 2433TIP3    H1 7242   4.280   6.970   4.543
 2433TIP3    H2 7243   4.182   6.863   4.500
 2434TIP3   OH2 7244   2.624   0.244   4.698
 2434TIP3    H1 7245   2.586   0.158   4.680
 2434TIP3    H2 7246   2.589   0.301   4.630
 2435TIP3   OH2 7247   6.740   1.302   6.777
 2435TIP3    H1 7248   6.693   1.345   6.706
 2435TIP3    H2 7249   6.808   1.363   6.802
 2436TIP3   OH2 7250   6.253   6.158   2.836
 2436TIP3    H1 7251   6.313   6.231   2.849
 2436TIP3    H2 7252   6.230   6.129   2.924
 2437TIP3   OH2 7253   0.342   4.227   4.356
 2437TIP3    H1 7254   0.347   4.196   4.446
 2437TIP3    H2 7255   0.268   4.180   4.318
 2438TIP3   OH2 7256   4.228   7.132   3.848
 2438TIP3    H1 7257   4.143   7.167   3.822
 2438TIP3    H2 7258   4.266   7.200   3.904
 2439TIP3   OH2 7259   2.547   0.095   0.460
 2439TIP3    H1 7260   2.469   0.149   0.468
 2439TIP3    H2 7261   2.516   0.014   0.420
 2440TIP3   OH2 7262   4.860   1.621   5.953
 2440TIP3    H1 7263   4.783   1.627   6.010
 2440TIP3    H2 7264   4.859   1.530   5.921
 2441TIP3   OH2 7265   3.752   2.672   2.290
 2441TIP3    H1 7266   3.828   2.620   2.263
 2441TIP3    H2 7267   3.770   2.759   2.256
 2442TIP3   OH2 7268   5.154   4.304   2.569
 2442TIP3    H1 7269   5.221   4.242   2.599
 2442TIP3    H2 7270   5.107   4.256   2.500
 2443TIP3   OH2 7271   4.393   7.598   1.206
 2443TIP3    H1 7272   4.377   7.578   1.114
 2443TIP3    H2 7273   4.469   7.545   1.229
 2444TIP3   OH2 7274   3.260   6.325   6.390
 2444TIP3    H1 7275   3.236   6.406   6.346
 2444TIP3    H2 7276   3.217   6.256   6.339
 2445TIP3   OH2 7277   7.253   0.763   3.828
 2445TIP3    H1 7278   7.210   0.687   3.866
 2445TIP3    H2 7279   7.328   0.728   3.781
 2446TIP3   OH2 7280   2.053   5.516   1.379
 2446TIP3    H1 7281   2.111   5.469   1.439
 2446TIP3    H2 7282   1.966   5.479   1.397
 2447TIP3   OH2 7283   0.762   7.091   0.580
 2447TIP3    H1 7284   0.786   7.068   0.670
 2447TIP3    H2 7285   0.759   7.007   0.534
 2448TIP3   OH2 7286   5.997   6.643   2.642
 2448TIP3    H1 7287   6.021   6.668   2.552
 2448TIP3    H2 7288   5.930   6.575   2.631
 2449TIP3   OH2 7289   0.976   6.716   1.277
 2449TIP3    H1 7290   1.040   6.782   1.304
 2449TIP3    H2 7291   1.012   6.680   1.196
 2450TIP3   OH2 7292   5.225   5.037   5.237
 2450TIP3    H1 7293   5.193   5.122   5.207
 2450TIP3    H2 7294   5.285   5.008   5.168
 2451TIP3   OH2 7295   1.258   1.385   2.338
 2451TIP3    H1 7296   1.279   1.347   2.253
 2451TIP3    H2 7297   1.173   1.427   2.325
 2452TIP3   OH2 7298   2.011   4.869   1.951
 2452TIP3    H1 7299   2.036   4.817   1.874
 2452TIP3    H2 7300   1.915   4.870   1.950
 2453TIP3   OH2 7301   3.327   0.781   2.839
 2453TIP3    H1 7302   3.348   0.840   2.911
 2453TIP3    H2 7303   3.398   0.717   2.838
 2454TIP3   OH2 7304   0.565   3.035   5.899
 2454TIP3    H1 7305   0.588   3.083   5.819
 2454TIP3    H2 7306   0.559   2.944   5.871
 2455TIP3   OH2 7307   6.169   3.474   5.531
 2455TIP3    H1 7308   6.186   3.559   5.491
 2455TIP3    H2 7309   6.221   3.412   5.480
 2456TIP3   OH2 7310   7.892   6.535   5.299
 2456TIP3    H1 7311   7.927   6.593   5.366
 2456TIP3    H2 7312   7.884   6.590   5.221
 2457TIP3   OH2 7313   7.236   0.018   5.445
 2457TIP3    H1 7314   7.247   0.111   5.462
 2457TIP3    H2 7315   7.162   0.013   5.384
 2458TIP3   OH2 7316   3.646  -0.012   4.080
 2458TIP3    H1 7317   3.682   0.073   4.055
 2458TIP3    H2 7318   3.638  -0.060   3.998
 2459TIP3   OH2 7319   5.850   0.497   5.657
 2459TIP3    H1 7320   5.768   0.528   5.620
 2459TIP3    H2 7321   5.905   0.576   5.663
 2460TIP3   OH2 7322   2.304   7.072   2.668
 2460TIP3    H1 7323   2.287   7.154   2.713
 2460TIP3    H2 7324   2.250   7.008   2.714
 2461TIP3   OH2 7325   4.763   0.561   4.350
 2461TIP3    H1 7326   4.815   0.483   4.369
 2461TIP3    H2 7327   4.729   0.589   4.435
 2462TIP3   OH2 7328   1.789   2.116   4.798
 2462TIP3    H1 7329   1.754   2.194   4.842
 2462TIP3    H2 7330   1.866   2.091   4.850
 2463TIP3   OH2 7331   6.132   3.762   1.128
 2463TIP3    H1 7332   6.072   3.833   1.150
 2463TIP3    H2 7333   6.120   3.747   1.035
 2464TIP3   OH2 7334   3.015   4.775   1.368
 2464TIP3    H1 7335   3.041   4.758   1.277
 2464TIP3    H2 7336   3.090   4.745   1.419
 2465TIP3   OH2 7337   1.791   4.805   0.717
 2465TIP3    H1 7338   1.747   4.759   0.788
 2465TIP3    H2 7339   1.883   4.782   0.726
 2466TIP3   OH2 7340   3.084   2.962   4.529
 2466TIP3    H1 7341   3.004   2.924   4.566
 2466TIP3    H2 7342   3.153   2.903   4.559
 2467TIP3   OH2 7343   6.696   0.316   4.585
 2467TIP3    H1 7344   6.785   0.348   4.570
 2467TIP3    H2 7345   6.701   0.271   4.670
 2468TIP3   OH2 7346   0.653   5.110   2.413
 2468TIP3    H1 7347   0.727   5.060   2.446
 2468TIP3    H2 7348   0.623   5.161   2.489
 2469TIP3   OH2 7349   1.544   3.197   2.897
 2469TIP3    H1 7350   1.611   3.160   2.953
 2469TIP3    H2 7351   1.517   3.277   2.941
 2470TIP3   OH2 7352   7.249   5.083   0.115
 2470TIP3    H1 7353   7.314   5.035   0.064
 2470TIP3    H2 7354   7.231   5.161   0.064
 2471TIP3   OH2 7355   5.425   1.344   6.380
 2471TIP3    H1 7356   5.361   1.413   6.397
 2471TIP3    H2 7357   5.505   1.374   6.424
 2472TIP3   OH2 7358   0.677   3.722   2.454
 2472TIP3    H1 7359   0.740   3.767   2.511
 2472TIP3    H2 7360   0.639   3.654   2.510
 2473TIP3   OH2 7361   5.345   4.323   4.257
 2473TIP3    H1 7362   5.355   4.371   4.340
 2473TIP3    H2 7363   5.304   4.240   4.282
 2474TIP3   OH2 7364   7.839   0.649   6.223
 2474TIP3    H1 7365   7.766   0.590   6.241
 2474TIP3    H2 7366   7.802   0.716   6.166
 2475TIP3   OH2 7367   6.944   2.872   2.302
 2475TIP3    H1 7368   7.005   2.824   2.245
 2475TIP3    H2 7369   6.880   2.806   2.329
 2476TIP3   OH2 7370   5.051   1.441   6.233
 2476TIP3    H1 7371   5.123   1.452   6.295
 2476TIP3    H2 7372   5.094   1.419   6.151
 2477TIP3   OH2 7373   2.767   7.328   1.485
 2477TIP3    H1 7374   2.775   7.258   1.550
 2477TIP3    H2 7375   2.757   7.282   1.402
 2478TIP3   OH2 7376   6.361   1.031   5.779
 2478TIP3    H1 7377   6.406   1.108   5.813
 2478TIP3    H2 7378   6.301   1.066   5.713
 2479TIP3   OH2 7379   2.531   3.168   4.580
 2479TIP3    H1 7380   2.618   3.129   4.568
 2479TIP3    H2 7381   2.513   3.156   4.673
 2480TIP3   OH2 7382   7.019   1.380   0.671
 2480TIP3    H1 7383   6.929   1.398   0.698
 2480TIP3    H2 7384   7.033   1.435   0.595
 2481TIP3   OH2 7385   0.134   1.070   5.128
 2481TIP3    H1 7386   0.186   1.135   5.177
 2481TIP3    H2 7387   0.054   1.117   5.104
 2482TIP3   OH2 7388   5.870   3.472   6.373
 2482TIP3    H1 7389   5.917   3.400   6.330
 2482TIP3    H2 7390   5.884   3.547   6.314
 2483TIP3   OH2 7391   4.684   0.697   0.905
 2483TIP3    H1 7392   4.666   0.629   0.840
 2483TIP3    H2 7393   4.599   0.710   0.948
 2484TIP3   OH2 7394   7.838   6.830   0.706
 2484TIP3    H1 7395   7.786   6.772   0.650
 2484TIP3    H2 7396   7.929   6.804   0.690
 2485TIP3   OH2 7397   0.338   3.047   1.403
 2485TIP3    H1 7398   0.245   3.070   1.403
 2485TIP3    H2 7399   0.345   2.976   1.467
 2486TIP3   OH2 7400   3.125   4.318   3.614
 2486TIP3    H1 7401   3.112   4.225   3.593
 2486TIP3    H2 7402   3.099   4.325   3.705
 2487TIP3   OH2 7403   4.543   3.541   1.699
 2487TIP3    H1 7404   4.603   3.607   1.734
 2487TIP3    H2 7405   4.580   3.458   1.727
 2488TIP3   OH2 7406   1.489   3.632   6.500
 2488TIP3    H1 7407   1.523   3.720   6.516
 2488TIP3    H2 7408   1.453   3.604   6.585
 2489TIP3   OH2 7409   5.376   0.050   4.986
 2489TIP3    H1 7410   5.369   0.145   4.980
 2489TIP3    H2 7411   5.470   0.032   4.989
 2490TIP3   OH2 7412   1.769   0.970   0.559
 2490TIP3    H1 7413   1.695   0.916   0.530
 2490TIP3    H2 7414   1.757   0.978   0.654
 2491TIP3   OH2 7415   4.858   6.390   6.679
 2491TIP3    H1 7416   4.851   6.295   6.690
 2491TIP3    H2 7417   4.826   6.407   6.590
 2492TIP3   OH2 7418   7.272   1.886   1.826
 2492TIP3    H1 7419   7.178   1.906   1.822
 2492TIP3    H2 7420   7.280   1.825   1.899
 2493TIP3   OH2 7421   3.818   6.313   3.198
 2493TIP3    H1 7422   3.860   6.260   3.266
 2493TIP3    H2 7423   3.769   6.379   3.246
 2494TIP3   OH2 7424   6.756   5.914   5.189
 2494TIP3    H1 7425   6.789   5.858   5.258
 2494TIP3    H2 7426   6.808   5.891   5.112
 2495TIP3   OH2 7427   0.708   6.578   4.188
 2495TIP3    H1 7428   0.696   6.620   4.273
 2495TIP3    H2 7429   0.647   6.505   4.189
 2496TIP3   OH2 7430   7.365   0.388   3.942
 2496TIP3    H1 7431   7.367   0.382   4.037
 2496TIP3    H2 7432   7.409   0.308   3.912
 2497TIP3   OH2 7433   6.897   3.565   5.794
 2497TIP3    H1 7434   6.804   3.563   5.816
 2497TIP3    H2 7435   6.942   3.561   5.879
 2498TIP3   OH2 7436   0.633   1.629   1.651
 2498TIP3    H1 7437   0.585   1.566   1.705
 2498TIP3    H2 7438   0.571   1.701   1.637
 2499TIP3   OH2 7439   5.483   7.780   0.154
 2499TIP3    H1 7440   5.408   7.724   0.132
 2499TIP3    H2 7441   5.460   7.818   0.240
 2500TIP3   OH2 7442   1.909   3.069   6.455
 2500TIP3    H1 7443   1.890   3.142   6.514
 2500TIP3    H2 7444   1.850   3.083   6.381
 2501TIP3   OH2 7445   4.112   2.425   0.013
 2501TIP3    H1 7446   4.039   2.474   0.052
 2501TIP3    H2 7447   4.084   2.406  -0.076
 2502TIP3   OH2 7448   6.977   6.627   3.414
 2502TIP3    H1 7449   6.975   6.667   3.501
 2502TIP3    H2 7450   6.999   6.699   3.355
 2503TIP3   OH2 7451   5.642   3.939   5.284
 2503TIP3    H1 7452   5.681   3.879   5.347
 2503TIP3    H2 7453   5.557   3.962   5.321
 2504TIP3   OH2 7454   6.922   4.116   6.355
 2504TIP3    H1 7455   6.942   4.046   6.417
 2504TIP3    H2 7456   7.000   4.121   6.298
 2505TIP3   OH2 7457   2.504   3.094   3.732
 2505TIP3    H1 7458   2.474   3.011   3.769
 2505TIP3    H2 7459   2.496   3.083   3.638
 2506TIP3   OH2 7460   2.525   3.657   3.786
 2506TIP3    H1 7461   2.613   3.675   3.752
 2506TIP3    H2 7462   2.528   3.682   3.878
 2507TIP3   OH2 7463   0.550   2.560   5.429
 2507TIP3    H1 7464   0.584   2.623   5.492
 2507TIP3    H2 7465   0.501   2.612   5.366
 2508TIP3   OH2 7466   5.215   4.431   5.971
 2508TIP3    H1 7467   5.149   4.463   6.032
 2508TIP3    H2 7468   5.231   4.341   5.998
 2509TIP3   OH2 7469   0.206   2.612   3.756
 2509TIP3    H1 7470   0.139   2.613   3.824
 2509TIP3    H2 7471   0.177   2.676   3.692
 2510TIP3   OH2 7472   0.213   1.194   0.684
 2510TIP3    H1 7473   0.256   1.169   0.766
 2510TIP3    H2 7474   0.149   1.260   0.710
 2511TIP3   OH2 7475   5.228   3.172   3.169
 2511TIP3    H1 7476   5.241   3.246   3.227
 2511TIP3    H2 7477   5.222   3.096   3.227
 2512TIP3   OH2 7478   6.915   6.124   2.873
 2512TIP3    H1 7479   6.843   6.187   2.872
 2512TIP3    H2 7480   6.965   6.144   2.794
 2513TIP3   OH2 7481   1.091   4.781   3.561
 2513TIP3    H1 7482   1.147   4.703   3.553
 2513TIP3    H2 7483   1.146   4.853   3.533
 2514TIP3   OH2 7484   5.971   3.184   4.580
 2514TIP3    H1 7485   5.985   3.090   4.577
 2514TIP3    H2 7486   6.041   3.220   4.525
 2515TIP3   OH2 7487   1.795   2.263   3.968
 2515TIP3    H1 7488   1.709   2.259   3.926
 2515TIP3    H2 7489   1.856   2.231   3.902
 2516TIP3   OH2 7490   4.542   5.124   6.407
 2516TIP3    H1 7491   4.613   5.180   6.375
 2516TIP3    H2 7492   4.520   5.160   6.493
 2517TIP3   OH2 7493   7.347   3.211   1.735
 2517TIP3    H1 7494   7.426   3.226   1.788
 2517TIP3    H2 7495   7.310   3.130   1.771
 2518TIP3   OH2 7496   6.560   7.144   0.206
 2518TIP3    H1 7497   6.653   7.164   0.195
 2518TIP3    H2 7498   6.558   7.075   0.273
 2519TIP3   OH2 7499   6.303   3.793   2.521
 2519TIP3    H1 7500   6.238   3.824   2.458
 2519TIP3    H2 7501   6.386   3.793   2.473
 2520TIP3   OH2 7502   7.282   4.177   2.848
 2520TIP3    H1 7503   7.369   4.201   2.882
 2520TIP3    H2 7504   7.221   4.229   2.900
 2521TIP3   OH2 7505   4.538   5.367   4.609
 2521TIP3    H1 7506   4.612   5.426   4.594
 2521TIP3    H2 7507   4.461   5.424   4.602
 2522TIP3   OH2 7508   1.683   6.355   6.302
 2522TIP3    H1 7509   1.729   6.348   6.385
 2522TIP3    H2 7510   1.634   6.273   6.294
 2523TIP3   OH2 7511   7.612   1.045   0.604
 2523TIP3    H1 7512   7.676   1.068   0.537
 2523TIP3    H2 7513   7.617   1.117   0.667
 2524TIP3   OH2 7514   8.001   4.115   6.289
 2524TIP3    H1 7515   7.930   4.056   6.264
 2524TIP3    H2 7516   7.959   4.200   6.301
 2525TIP3   OH2 7517   1.422   3.476   4.525
 2525TIP3    H1 7518   1.415   3.571   4.520
 2525TIP3    H2 7519   1.505   3.460   4.569
 2526TIP3   OH2 7520   3.218   2.624   3.723
 2526TIP3    H1 7521   3.262   2.692   3.774
 2526TIP3    H2 7522   3.217   2.658   3.633
 2527TIP3   OH2 7523   7.050   7.254   4.001
 2527TIP3    H1 7524   7.097   7.272   3.919
 2527TIP3    H2 7525   7.022   7.163   3.993
 2528TIP3   OH2 7526   0.313   5.642   5.915
 2528TIP3    H1 7527   0.399   5.615   5.945
 2528TIP3    H2 7528   0.256   5.634   5.992
 2529TIP3   OH2 7529   7.931   2.722   2.948
 2529TIP3    H1 7530   7.980   2.777   2.888
 2529TIP3    H2 7531   7.866   2.781   2.987
 2530TIP3   OH2 7532   4.896   0.813   3.149
 2530TIP3    H1 7533   4.838   0.851   3.083
 2530TIP3    H2 7534   4.855   0.836   3.233
 2531TIP3   OH2 7535   0.295   7.176   1.146
 2531TIP3    H1 7536   0.379   7.144   1.111
 2531TIP3    H2 7537   0.255   7.099   1.187
 2532TIP3   OH2 7538   1.633   3.122   3.149
 2532TIP3    H1 7539   1.698   3.120   3.220
 2532TIP3    H2 7540   1.605   3.213   3.145
 2533TIP3   OH2 7541   5.535   4.065   6.132
 2533TIP3    H1 7542   5.581   3.984   6.153
 2533TIP3    H2 7543   5.534   4.114   6.215
 2534TIP3   OH2 7544   4.612   3.200   1.102
 2534TIP3    H1 7545   4.702   3.221   1.127
 2534TIP3    H2 7546   4.590   3.264   1.034
 2535TIP3   OH2 7547   4.189   7.775   0.528
 2535TIP3    H1 7548   4.208   7.737   0.443
 2535TIP3    H2 7549   4.095   7.794   0.527
 2536TIP3   OH2 7550   4.618   1.719   4.666
 2536TIP3    H1 7551   4.627   1.666   4.745
 2536TIP3    H2 7552   4.540   1.772   4.682
 2537TIP3   OH2 7553   5.446   2.952   6.319
 2537TIP3    H1 7554   5.510   2.927   6.252
 2537TIP3    H2 7555   5.489   2.930   6.402
 2538TIP3   OH2 7556   3.083   4.293   5.907
 2538TIP3    H1 7557   3.137   4.273   5.983
 2538TIP3    H2 7558   3.122   4.371   5.870
 2539TIP3   OH2 7559   7.275   5.287   2.750
 2539TIP3    H1 7560   7.240   5.203   2.722
 2539TIP3    H2 7561   7.237   5.350   2.688
 2540TIP3   OH2 7562   3.473   2.620   6.169
 2540TIP3    H1 7563   3.445   2.599   6.080
 2540TIP3    H2 7564   3.495   2.713   6.167
 2541TIP3   OH2 7565   5.699   2.620   1.485
 2541TIP3    H1 7566   5.724   2.640   1.395
 2541TIP3    H2 7567   5.712   2.525   1.493
 2542TIP3   OH2 7568   0.636   0.888   2.004
 2542TIP3    H1 7569   0.662   0.954   1.941
 2542TIP3    H2 7570   0.655   0.926   2.089
 2543TIP3   OH2 7571   6.912   3.049   1.403
 2543TIP3    H1 7572   6.998   3.091   1.403
 2543TIP3    H2 7573   6.854   3.115   1.363
 2544TIP3   OH2 7574   5.471   2.385   0.501
 2544TIP3    H1 7575   5.491   2.416   0.589
 2544TIP3    H2 7576   5.379   2.357   0.506
 2545TIP3   OH2 7577   4.420   7.260   5.914
 2545TIP3    H1 7578   4.464   7.207   5.981
 2545TIP3    H2 7579   4.389   7.196   5.850
 2546TIP3   OH2 7580   5.417   5.810   4.480
 2546TIP3    H1 7581   5.327   5.794   4.453
 2546TIP3    H2 7582   5.436   5.740   4.543
 2547TIP3   OH2 7583   6.604   2.996   3.573
 2547TIP3    H1 7584   6.543   3.043   3.517
 2547TIP3    H2 7585   6.597   2.905   3.547
 2548TIP3   OH2 7586   7.349   4.171   4.988
 2548TIP3    H1 7587   7.361   4.120   5.068
 2548TIP3    H2 7588   7.320   4.257   5.018
 2549TIP3   OH2 7589   5.658   5.859   3.710
 2549TIP3    H1 7590   5.612   5.825   3.634
 2549TIP3    H2 7591   5.721   5.922   3.675
 2550TIP3   OH2 7592   1.323   4.685   2.988
 2550TIP3    H1 7593   1.322   4.762   3.046
 2550TIP3    H2 7594   1.407   4.643   3.007
 2551TIP3   OH2 7595   7.605   2.960   1.460
 2551TIP3    H1 7596   7.547   2.895   1.500
 2551TIP3    H2 7597   7.641   2.915   1.383
 2552TIP3   OH2 7598   6.107   2.896   2.652
 2552TIP3    H1 7599   6.128   2.884   2.744
 2552TIP3    H2 7600   6.058   2.817   2.628
 2553TIP3   OH2 7601   6.116   7.217   4.460
 2553TIP3    H1 7602   6.031   7.198   4.420
 2553TIP3    H2 7603   6.096   7.283   4.527
 2554TIP3   OH2 7604   1.785   3.127   3.374
 2554TIP3    H1 7605   1.777   3.215   3.409
 2554TIP3    H2 7606   1.819   3.075   3.447
 2555TIP3   OH2 7607   6.604   5.588   2.498
 2555TIP3    H1 7608   6.526   5.641   2.483
 2555TIP3    H2 7609   6.621   5.595   2.592
 2556TIP3   OH2 7610   0.930   5.497   3.393
 2556TIP3    H1 7611   0.887   5.456   3.319
 2556TIP3    H2 7612   1.005   5.441   3.412
 2557TIP3   OH2 7613   7.180   7.581   6.102
 2557TIP3    H1 7614   7.185   7.637   6.179
 2557TIP3    H2 7615   7.270   7.550   6.088
 2558TIP3   OH2 7616   1.406   2.893   2.141
 2558TIP3    H1 7617   1.429   2.802   2.127
 2558TIP3    H2 7618   1.338   2.911   2.076
 2559TIP3   OH2 7619   4.814   3.395   3.457
 2559TIP3    H1 7620   4.733   3.365   3.417
 2559TIP3    H2 7621   4.866   3.429   3.384
 2560TIP3   OH2 7622   4.046   1.871   4.321
 2560TIP3    H1 7623   4.090   1.786   4.325
 2560TIP3    H2 7624   4.078   1.918   4.398
 2561TIP3   OH2 7625   7.902   2.992   1.746
 2561TIP3    H1 7626   7.992   3.022   1.728
 2561TIP3    H2 7627   7.847   3.060   1.709
 2562TIP3   OH2 7628   5.995   4.134   1.616
 2562TIP3    H1 7629   6.032   4.163   1.699
 2562TIP3    H2 7630   6.028   4.197   1.552
 2563TIP3   OH2 7631   4.298   4.689   4.356
 2563TIP3    H1 7632   4.248   4.660   4.280
 2563TIP3    H2 7633   4.252   4.650   4.431
 2564TIP3   OH2 7634   7.519   5.314   3.116
 2564TIP3    H1 7635   7.492   5.393   3.070
 2564TIP3    H2 7636   7.538   5.251   3.046
 2565TIP3   OH2 7637   7.778   3.157   3.374
 2565TIP3    H1 7638   7.778   3.212   3.297
 2565TIP3    H2 7639   7.707   3.191   3.429
 2566TIP3   OH2 7640   0.871   6.790   0.058
 2566TIP3    H1 7641   0.867   6.886   0.060
 2566TIP3    H2 7642   0.963   6.769   0.075
 2567TIP3   OH2 7643   4.526   2.236   6.455
 2567TIP3    H1 7644   4.480   2.301   6.507
 2567TIP3    H2 7645   4.474   2.227   6.375
 2568TIP3   OH2 7646   3.691   3.320   3.414
 2568TIP3    H1 7647   3.597   3.311   3.432
 2568TIP3    H2 7648   3.710   3.254   3.348
 2569TIP3   OH2 7649   6.931   5.156   4.861
 2569TIP3    H1 7650   7.005   5.211   4.834
 2569TIP3    H2 7651   6.971   5.084   4.910
 2570TIP3   OH2 7652   5.115   5.291   2.662
 2570TIP3    H1 7653   5.103   5.243   2.580
 2570TIP3    H2 7654   5.060   5.369   2.652
 2571TIP3   OH2 7655   6.143   5.473   6.451
 2571TIP3    H1 7656   6.152   5.403   6.386
 2571TIP3    H2 7657   6.085   5.537   6.409
 2572TIP3   OH2 7658   1.362   1.639   4.839
 2572TIP3    H1 7659   1.390   1.691   4.764
 2572TIP3    H2 7660   1.434   1.577   4.854
 2573TIP3   OH2 7661   8.271   4.074   6.384
 2573TIP3    H1 7662   8.193   4.095   6.332
 2573TIP3    H2 7663   8.344   4.098   6.328
 2574TIP3   OH2 7664   4.594   1.592   0.852
 2574TIP3    H1 7665   4.583   1.498   0.866
 2574TIP3    H2 7666   4.515   1.620   0.806
 2575TIP3   OH2 7667  -0.020   6.847   1.452
 2575TIP3    H1 7668  -0.079   6.908   1.495
 2575TIP3    H2 7669   0.047   6.902   1.410
 2576TIP3   OH2 7670   2.373   7.062   1.866
 2576TIP3    H1 7671   2.425   7.059   1.786
 2576TIP3    H2 7672   2.438   7.064   1.936
 2577TIP3   OH2 7673   7.746   2.603   5.362
 2577TIP3    H1 7674   7.733   2.590   5.268
 2577TIP3    H2 7675   7.696   2.533   5.404
 2578TIP3   OH2 7676   2.520   7.750   4.063
 2578TIP3    H1 7677   2.519   7.685   4.133
 2578TIP3    H2 7678   2.454   7.719   4.001
 2579TIP3   OH2 7679   5.096   3.208   5.861
 2579TIP3    H1 7680   5.166   3.254   5.815
 2579TIP3    H2 7681   5.033   3.276   5.883
 2580TIP3   OH2 7682   4.693   7.288   0.639
 2580TIP3    H1 7683   4.740   7.267   0.559
 2580TIP3    H2 7684   4.651   7.205   0.665
 2581TIP3   OH2 7685   6.007   6.926   4.660
 2581TIP3    H1 7686   6.047   6.860   4.604
 2581TIP3    H2 7687   5.981   6.996   4.601
 2582TIP3   OH2 7688   7.324   3.007   3.908
 2582TIP3    H1 7689   7.242   3.025   3.862
 2582TIP3    H2 7690   7.380   2.965   3.842
 2583TIP3   OH2 7691   0.242   6.548   2.980
 2583TIP3    H1 7692   0.283   6.619   2.931
 2583TIP3    H2 7693   0.266   6.565   3.071
 2584TIP3   OH2 7694   1.530   6.352   6.695
 2584TIP3    H1 7695   1.617   6.332   6.660
 2584TIP3    H2 7696   1.472   6.346   6.619
 2585TIP3   OH2 7697   1.430   5.438   5.860
 2585TIP3    H1 7698   1.373   5.365   5.883
 2585TIP3    H2 7699   1.514   5.416   5.900
 2586TIP3   OH2 7700   6.419   0.125   3.197
 2586TIP3    H1 7701   6.459   0.082   3.122
 2586TIP3    H2 7702   6.445   0.216   3.189
 2587TIP3   OH2 7703   2.299   7.037   0.309
 2587TIP3    H1 7704   2.271   7.027   0.218
 2587TIP3    H2 7705   2.392   7.058   0.303
 2588TIP3   OH2 7706   4.611   6.446   5.155
 2588TIP3    H1 7707   4.527   6.430   5.113
 2588TIP3    H2 7708   4.605   6.535   5.190
 2589TIP3   OH2 7709   6.810   0.565   0.414
 2589TIP3    H1 7710   6.776   0.488   0.460
 2589TIP3    H2 7711   6.905   0.560   0.425
 2590TIP3   OH2 7712   4.859   1.370   1.000
 2590TIP3    H1 7713   4.892   1.460   0.995
 2590TIP3    H2 7714   4.916   1.326   1.063
 2591TIP3   OH2 7715   7.799   3.499   2.233
 2591TIP3    H1 7716   7.708   3.515   2.257
 2591TIP3    H2 7717   7.801   3.408   2.204
 2592TIP3   OH2 7718   0.006   0.280   5.257
 2592TIP3    H1 7719   0.094   0.278   5.292
 2592TIP3    H2 7720  -0.029   0.365   5.285
 2593TIP3   OH2 7721   5.765   5.961   4.090
 2593TIP3    H1 7722   5.687   5.907   4.099
 2593TIP3    H2 7723   5.821   5.911   4.030
 2594TIP3   OH2 7724   2.862   7.126   0.286
 2594TIP3    H1 7725   2.871   7.159   0.196
 2594TIP3    H2 7726   2.916   7.185   0.338
 2595TIP3   OH2 7727   4.022   5.988   4.589
 2595TIP3    H1 7728   4.014   5.973   4.494
 2595TIP3    H2 7729   4.067   5.909   4.621
 2596TIP3   OH2 7730   4.179   1.835   5.412
 2596TIP3    H1 7731   4.124   1.913   5.417
 2596TIP3    H2 7732   4.139   1.782   5.343
 2597TIP3   OH2 7733   6.977   2.647   2.638
 2597TIP3    H1 7734   6.980   2.587   2.713
 2597TIP3    H2 7735   6.990   2.734   2.677
 2598TIP3   OH2 7736   6.928   5.479   0.459
 2598TIP3    H1 7737   6.973   5.398   0.434
 2598TIP3    H2 7738   6.885   5.459   0.542
 2599TIP3   OH2 7739   2.743   2.391   0.242
 2599TIP3    H1 7740   2.808   2.325   0.219
 2599TIP3    H2 7741   2.763   2.465   0.184
 2600TIP3   OH2 7742   3.441   1.798   3.219
 2600TIP3    H1 7743   3.443   1.880   3.268
 2600TIP3    H2 7744   3.521   1.799   3.167
 2601TIP3   OH2 7745   6.801   4.367   3.767
 2601TIP3    H1 7746   6.727   4.384   3.708
 2601TIP3    H2 7747   6.838   4.454   3.784
 2602TIP3   OH2 7748   5.590   2.085   1.048
 2602TIP3    H1 7749   5.546   2.004   1.074
 2602TIP3    H2 7750   5.580   2.143   1.123
 2603TIP3   OH2 7751   1.842   4.480   3.106
 2603TIP3    H1 7752   1.910   4.439   3.052
 2603TIP3    H2 7753   1.872   4.570   3.117
 2604TIP3   OH2 7754   6.648   4.152   4.336
 2604TIP3    H1 7755   6.565   4.194   4.318
 2604TIP3    H2 7756   6.662   4.165   4.430
 2605TIP3   OH2 7757   1.362   7.073   0.564
 2605TIP3    H1 7758   1.334   7.162   0.543
 2605TIP3    H2 7759   1.298   7.042   0.628
 2606TIP3   OH2 7760   3.746   1.952   0.390
 2606TIP3    H1 7761   3.685   2.025   0.389
 2606TIP3    H2 7762   3.786   1.955   0.477
 2607TIP3   OH2 7763   0.573   3.849   1.478
 2607TIP3    H1 7764   0.613   3.763   1.474
 2607TIP3    H2 7765   0.479   3.832   1.481
 2608TIP3   OH2 7766   4.829   4.699   4.520
 2608TIP3    H1 7767   4.823   4.644   4.598
 2608TIP3    H2 7768   4.798   4.644   4.449
 2609TIP3   OH2 7769   0.500   6.762   5.760
 2609TIP3    H1 7770   0.490   6.718   5.845
 2609TIP3    H2 7771   0.566   6.829   5.776
 2610TIP3   OH2 7772   0.286   4.160   5.074
 2610TIP3    H1 7773   0.348   4.091   5.050
 2610TIP3    H2 7774   0.328   4.204   5.148
 2611TIP3   OH2 7775   5.035   5.632   3.093
 2611TIP3    H1 7776   5.118   5.657   3.131
 2611TIP3    H2 7777   5.052   5.629   2.998
 2612TIP3   OH2 7778   5.729   5.807   5.709
 2612TIP3    H1 7779   5.792   5.749   5.666
 2612TIP3    H2 7780   5.647   5.795   5.660
 2613TIP3   OH2 7781   2.823   5.142   4.449
 2613TIP3    H1 7782   2.895   5.206   4.452
 2613TIP3    H2 7783   2.744   5.195   4.462
 2614TIP3   OH2 7784   2.817   7.454   5.866
 2614TIP3    H1 7785   2.859   7.494   5.942
 2614TIP3    H2 7786   2.728   7.491   5.866
 2615TIP3   OH2 7787   5.236   7.329   2.472
 2615TIP3    H1 7788   5.182   7.296   2.401
 2615TIP3    H2 7789   5.201   7.416   2.491
 2616TIP3   OH2 7790   7.703   5.753   3.927
 2616TIP3    H1 7791   7.756   5.810   3.982
 2616TIP3    H2 7792   7.657   5.696   3.988
 2617TIP3   OH2 7793   4.270   5.721   5.116
 2617TIP3    H1 7794   4.195   5.663   5.105
 2617TIP3    H2 7795   4.242   5.804   5.078
 2618TIP3   OH2 7796   3.453   3.258   3.628
 2618TIP3    H1 7797   3.370   3.233   3.668
 2618TIP3    H2 7798   3.519   3.214   3.681
 2619TIP3   OH2 7799   8.322   1.290   2.015
 2619TIP3    H1 7800   8.238   1.246   2.015
 2619TIP3    H2 7801   8.358   1.274   2.103
 2620TIP3   OH2 7802   7.152   6.966   5.911
 2620TIP3    H1 7803   7.118   7.053   5.888
 2620TIP3    H2 7804   7.240   6.966   5.875
 2621TIP3   OH2 7805   0.849   1.815   2.293
 2621TIP3    H1 7806   0.928   1.799   2.241
 2621TIP3    H2 7807   0.825   1.906   2.273
 2622TIP3   OH2 7808   4.690   5.187   6.783
 2622TIP3    H1 7809   4.718   5.104   6.744
 2622TIP3    H2 7810   4.609   5.166   6.829
 2623TIP3   OH2 7811   7.103   3.096   4.567
 2623TIP3    H1 7812   7.048   3.020   4.588
 2623TIP3    H2 7813   7.043   3.158   4.525
 2624TIP3   OH2 7814   2.592   7.210   3.731
 2624TIP3    H1 7815   2.593   7.287   3.674
 2624TIP3    H2 7816   2.623   7.138   3.676
 2625TIP3   OH2 7817   5.954   0.840   6.034
 2625TIP3    H1 7818   5.904   0.841   6.115
 2625TIP3    H2 7819   5.939   0.752   5.998
 2626TIP3   OH2 7820   0.292   6.019   1.142
 2626TIP3    H1 7821   0.305   6.114   1.147
 2626TIP3    H2 7822   0.294   6.000   1.048
 2627TIP3   OH2 7823   6.924   3.153   4.319
 2627TIP3    H1 7824   6.956   3.071   4.282
 2627TIP3    H2 7825   6.838   3.165   4.279
 2628TIP3   OH2 7826   3.673   1.095   1.207
 2628TIP3    H1 7827   3.613   1.165   1.182
 2628TIP3    H2 7828   3.651   1.076   1.299
 2629TIP3   OH2 7829   3.914   4.861   4.749
 2629TIP3    H1 7830   3.826   4.886   4.720
 2629TIP3    H2 7831   3.956   4.826   4.670
 2630TIP3   OH2 7832   3.528   2.266   6.794
 2630TIP3    H1 7833   3.528   2.348   6.745
 2630TIP3    H2 7834   3.583   2.207   6.743
 2631TIP3   OH2 7835   1.036   2.353   6.098
 2631TIP3    H1 7836   1.048   2.275   6.153
 2631TIP3    H2 7837   1.112   2.352   6.039
 2632TIP3   OH2 7838   7.173   0.167   2.277
 2632TIP3    H1 7839   7.235   0.237   2.297
 2632TIP3    H2 7840   7.088   0.202   2.302
 2633TIP3   OH2 7841   2.970   5.049   4.670
 2633TIP3    H1 7842   2.926   5.081   4.591
 2633TIP3    H2 7843   2.927   5.094   4.742
 2634TIP3   OH2 7844   3.223   6.569   4.662
 2634TIP3    H1 7845   3.161   6.630   4.623
 2634TIP3    H2 7846   3.192   6.558   4.752
 2635TIP3   OH2 7847   7.380   3.478   4.996
 2635TIP3    H1 7848   7.387   3.523   5.080
 2635TIP3    H2 7849   7.407   3.388   5.016
 2636TIP3   OH2 7850   6.330   6.877   0.832
 2636TIP3    H1 7851   6.360   6.967   0.843
 2636TIP3    H2 7852   6.275   6.879   0.754
 2637TIP3   OH2 7853   2.999   5.689   4.054
 2637TIP3    H1 7854   2.942   5.628   4.007
 2637TIP3    H2 7855   3.066   5.714   3.990
 2638TIP3   OH2 7856   7.266   1.669   3.897
 2638TIP3    H1 7857   7.186   1.723   3.903
 2638TIP3    H2 7858   7.336   1.732   3.882
 2639TIP3   OH2 7859   6.649   7.772   5.571
 2639TIP3    H1 7860   6.588   7.831   5.617
 2639TIP3    H2 7861   6.684   7.825   5.500
 2640TIP3   OH2 7862   5.625   4.158   1.855
 2640TIP3    H1 7863   5.642   4.145   1.762
 2640TIP3    H2 7864   5.708   4.135   1.898
 2641TIP3   OH2 7865   1.908   5.573   5.123
 2641TIP3    H1 7866   1.998   5.591   5.096
 2641TIP3    H2 7867   1.913   5.558   5.217
 2642TIP3   OH2 7868   6.545   5.864   1.992
 2642TIP3    H1 7869   6.610   5.931   1.975
 2642TIP3    H2 7870   6.479   5.908   2.046
 2643TIP3   OH2 7871   3.614   5.021   2.685
 2643TIP3    H1 7872   3.622   4.967   2.763
 2643TIP3    H2 7873   3.676   4.982   2.623
 2644TIP3   OH2 7874   0.930   2.365   0.076
 2644TIP3    H1 7875   0.838   2.356   0.052
 2644TIP3    H2 7876   0.945   2.294   0.138
 2645TIP3   OH2 7877   1.499   0.815   0.515
 2645TIP3    H1 7878   1.417   0.846   0.477
 2645TIP3    H2 7879   1.489   0.720   0.520
 2646TIP3   OH2 7880   3.212   4.637   1.525
 2646TIP3    H1 7881   3.264   4.635   1.605
 2646TIP3    H2 7882   3.225   4.550   1.486
 2647TIP3   OH2 7883   6.845   2.928   6.073
 2647TIP3    H1 7884   6.755   2.956   6.055
 2647TIP3    H2 7885   6.886   3.004   6.114
 2648TIP3   OH2 7886   5.110   5.967   3.857
 2648TIP3    H1 7887   5.034   6.015   3.892
 2648TIP3    H2 7888   5.186   6.019   3.886
 2649TIP3   OH2 7889   4.870   1.188   4.105
 2649TIP3    H1 7890   4.925   1.265   4.115
 2649TIP3    H2 7891   4.808   1.212   4.036
 2650TIP3   OH2 7892   1.399   4.655   3.350
 2650TIP3    H1 7893   1.364   4.659   3.439
 2650TIP3    H2 7894   1.444   4.571   3.346
 2651TIP3   OH2 7895   1.813   0.842   5.625
 2651TIP3    H1 7896   1.872   0.877   5.692
 2651TIP3    H2 7897   1.735   0.898   5.630
 2652TIP3   OH2 7898   1.920   2.687   4.314
 2652TIP3    H1 7899   2.007   2.711   4.284
 2652TIP3    H2 7900   1.872   2.667   4.233
 2653TIP3   OH2 7901   0.142   0.450   6.310
 2653TIP3    H1 7902   0.077   0.381   6.322
 2653TIP3    H2 7903   0.095   0.531   6.334
 2654TIP3   OH2 7904   4.521   2.178   3.356
 2654TIP3    H1 7905   4.500   2.093   3.394
 2654TIP3    H2 7906   4.464   2.185   3.280
 2655TIP3   OH2 7907   1.193   3.315   2.773
 2655TIP3    H1 7908   1.105   3.345   2.796
 2655TIP3    H2 7909   1.212   3.246   2.837
 2656TIP3   OH2 7910   2.366   2.553   2.551
 2656TIP3    H1 7911   2.398   2.467   2.525
 2656TIP3    H2 7912   2.441   2.611   2.536
 2657TIP3   OH2 7913   3.254   0.456   1.849
 2657TIP3    H1 7914   3.330   0.411   1.811
 2657TIP3    H2 7915   3.194   0.468   1.776
 2658TIP3   OH2 7916   7.773   4.639   1.685
 2658TIP3    H1 7917   7.740   4.566   1.633
 2658TIP3    H2 7918   7.709   4.709   1.671
 2659TIP3   OH2 7919   1.480   6.332   5.393
 2659TIP3    H1 7920   1.546   6.279   5.348
 2659TIP3    H2 7921   1.531   6.398   5.440
 2660TIP3   OH2 7922   6.750   4.501   4.587
 2660TIP3    H1 7923   6.828   4.484   4.535
 2660TIP3    H2 7924   6.684   4.527   4.523
 2661TIP3   OH2 7925   0.734   4.133   2.480
 2661TIP3    H1 7926   0.690   4.139   2.564
 2661TIP3    H2 7927   0.778   4.217   2.469
 2662TIP3   OH2 7928   3.746   5.267   4.672
 2662TIP3    H1 7929   3.820   5.291   4.728
 2662TIP3    H2 7930   3.786   5.252   4.586
 2663TIP3   OH2 7931   3.965   5.424   5.057
 2663TIP3    H1 7932   3.982   5.352   4.996
 2663TIP3    H2 7933   3.997   5.393   5.141
 2664TIP3   OH2 7934   6.621   0.976   5.021
 2664TIP3    H1 7935   6.554   0.911   5.044
 2664TIP3    H2 7936   6.581   1.027   4.950
 2665TIP3   OH2 7937   2.513   1.633   5.328
 2665TIP3    H1 7938   2.492   1.607   5.417
 2665TIP3    H2 7939   2.594   1.587   5.307
 2666TIP3   OH2 7940   7.398   1.558   5.658
 2666TIP3    H1 7941   7.370   1.606   5.736
 2666TIP3    H2 7942   7.345   1.478   5.659
 2667TIP3   OH2 7943   0.639   1.868   5.321
 2667TIP3    H1 7944   0.701   1.938   5.300
 2667TIP3    H2 7945   0.587   1.858   5.241
 2668TIP3   OH2 7946   1.267   7.512   1.944
 2668TIP3    H1 7947   1.228   7.595   1.971
 2668TIP3    H2 7948   1.226   7.493   1.860
 2669TIP3   OH2 7949   4.033   7.853   5.551
 2669TIP3    H1 7950   3.973   7.918   5.513
 2669TIP3    H2 7951   4.000   7.839   5.640
 2670TIP3   OH2 7952   0.489   3.897   6.572
 2670TIP3    H1 7953   0.575   3.894   6.613
 2670TIP3    H2 7954   0.501   3.952   6.495
 2671TIP3   OH2 7955   2.251   7.413   5.944
 2671TIP3    H1 7956   2.313   7.342   5.960
 2671TIP3    H2 7957   2.240   7.414   5.849
 2672TIP3   OH2 7958   0.414   5.751   3.021
 2672TIP3    H1 7959   0.372   5.704   2.950
 2672TIP3    H2 7960   0.506   5.725   3.017
 2673TIP3   OH2 7961   8.139   0.074   6.727
 2673TIP3    H1 7962   8.106   0.118   6.805
 2673TIP3    H2 7963   8.230   0.054   6.747
 2674TIP3   OH2 7964   4.518   1.942   6.207
 2674TIP3    H1 7965   4.550   1.875   6.267
 2674TIP3    H2 7966   4.597   1.992   6.183
 2675TIP3   OH2 7967   0.597   4.678   6.707
 2675TIP3    H1 7968   0.611   4.725   6.789
 2675TIP3    H2 7969   0.502   4.676   6.696
 2676TIP3   OH2 7970   8.233   3.067   0.958
 2676TIP3    H1 7971   8.233   3.159   0.983
 2676TIP3    H2 7972   8.285   3.024   1.026
 2677TIP3   OH2 7973   5.704   6.147   3.157
 2677TIP3    H1 7974   5.753   6.228   3.168
 2677TIP3    H2 7975   5.738   6.109   3.076
 2678TIP3   OH2 7976   7.367   1.987   6.297
 2678TIP3    H1 7977   7.361   1.894   6.321
 2678TIP3    H2 7978   7.330   1.992   6.209
 2679TIP3   OH2 7979   4.214   0.792   1.902
 2679TIP3    H1 7980   4.136   0.736   1.896
 2679TIP3    H2 7981   4.259   0.780   1.819
 2680TIP3   OH2 7982   2.764   1.003   3.998
 2680TIP3    H1 7983   2.678   0.995   4.039
 2680TIP3    H2 7984   2.793   0.913   3.986
 2681TIP3   OH2 7985   7.166   6.745   6.664
 2681TIP3    H1 7986   7.164   6.658   6.625
 2681TIP3    H2 7987   7.259   6.768   6.666
 2682TIP3   OH2 7988   7.102   6.715   0.069
 2682TIP3    H1 7989   7.100   6.747  -0.021
 2682TIP3    H2 7990   7.073   6.624   0.064
 2683TIP3   OH2 7991   8.280   1.470   1.804
 2683TIP3    H1 7992   8.283   1.412   1.880
 2683TIP3    H2 7993   8.235   1.548   1.835
 2684TIP3   OH2 7994   3.699   7.473   0.451
 2684TIP3    H1 7995   3.725   7.511   0.367
 2684TIP3    H2 7996   3.780   7.441   0.490
 2685TIP3   OH2 7997   3.285   0.680   3.823
 2685TIP3    H1 7998   3.253   0.768   3.844
 2685TIP3    H2 7999   3.264   0.669   3.730
 2686TIP3   OH2 8000   2.295   5.095   4.494
 2686TIP3    H1 8001   2.225   5.115   4.556
 2686TIP3    H2 8002   2.248   5.066   4.415
 2687TIP3   OH2 8003   7.053   2.481   4.836
 2687TIP3    H1 8004   7.006   2.397   4.830
 2687TIP3    H2 8005   7.024   2.519   4.919
 2688TIP3   OH2 8006   0.818   0.569   2.961
 2688TIP3    H1 8007   0.885   0.583   2.894
 2688TIP3    H2 8008   0.772   0.653   2.967
 2689TIP3   OH2 8009   3.074   6.787   4.895
 2689TIP3    H1 8010   3.082   6.692   4.906
 2689TIP3    H2 8011   2.982   6.806   4.910
 2690TIP3   OH2 8012   1.775   1.817   3.974
 2690TIP3    H1 8013   1.733   1.751   3.919
 2690TIP3    H2 8014   1.743   1.798   4.063
 2691TIP3   OH2 8015   3.396   2.271   5.048
 2691TIP3    H1 8016   3.367   2.358   5.074
 2691TIP3    H2 8017   3.471   2.288   4.990
 2692TIP3   OH2 8018   0.608   0.723   6.154
 2692TIP3    H1 8019   0.536   0.734   6.091
 2692TIP3    H2 8020   0.613   0.628   6.167
 2693TIP3   OH2 8021   1.427   6.057   3.267
 2693TIP3    H1 8022   1.383   6.001   3.204
 2693TIP3    H2 8023   1.356   6.106   3.309
 2694TIP3   OH2 8024   1.026   3.461   1.595
 2694TIP3    H1 8025   1.013   3.471   1.689
 2694TIP3    H2 8026   1.052   3.370   1.584
 2695TIP3   OH2 8027   4.397   1.257   4.515
 2695TIP3    H1 8028   4.407   1.350   4.535
 2695TIP3    H2 8029   4.333   1.255   4.444
 2696TIP3   OH2 8030   2.745   4.897   1.700
 2696TIP3    H1 8031   2.838   4.894   1.680
 2696TIP3    H2 8032   2.740   4.882   1.794
 2697TIP3   OH2 8033   2.490  -0.007   6.651
 2697TIP3    H1 8034   2.574   0.039   6.662
 2697TIP3    H2 8035   2.514  -0.100   6.651
 2698TIP3   OH2 8036   5.465   6.791   2.036
 2698TIP3    H1 8037   5.486   6.884   2.028
 2698TIP3    H2 8038   5.388   6.790   2.094
 2699TIP3   OH2 8039   6.617   2.470   4.042
 2699TIP3    H1 8040   6.693   2.513   4.082
 2699TIP3    H2 8041   6.609   2.387   4.089
 2700TIP3   OH2 8042   8.195   2.766   1.691
 2700TIP3    H1 8043   8.136   2.710   1.741
 2700TIP3    H2 8044   8.156   2.853   1.696
 2701TIP3   OH2 8045   6.944   1.384   3.937
 2701TIP3    H1 8046   7.008   1.411   3.872
 2701TIP3    H2 8047   6.869   1.353   3.886
 2702TIP3   OH2 8048   7.418   7.005   0.303
 2702TIP3    H1 8049   7.326   6.987   0.322
 2702TIP3    H2 8050   7.456   7.029   0.388
 2703TIP3   OH2 8051   8.224   4.756   3.942
 2703TIP3    H1 8052   8.247   4.664   3.932
 2703TIP3    H2 8053   8.305   4.799   3.971
 2704TIP3   OH2 8054   3.201   4.839   6.633
 2704TIP3    H1 8055   3.109   4.863   6.618
 2704TIP3    H2 8056   3.250   4.893   6.572
 2705TIP3   OH2 8057   6.196   1.737   0.305
 2705TIP3    H1 8058   6.196   1.665   0.368
 2705TIP3    H2 8059   6.285   1.740   0.271
 2706TIP3   OH2 8060   4.574   2.588   4.796
 2706TIP3    H1 8061   4.539   2.517   4.850
 2706TIP3    H2 8062   4.663   2.561   4.775
 2707TIP3   OH2 8063   8.005   2.802   4.338
 2707TIP3    H1 8064   7.977   2.836   4.253
 2707TIP3    H2 8065   7.933   2.745   4.366
 2708TIP3   OH2 8066   2.854   0.490   3.087
 2708TIP3    H1 8067   2.820   0.454   3.170
 2708TIP3    H2 8068   2.830   0.424   3.022
 2709TIP3   OH2 8069   4.782   3.610   0.604
 2709TIP3    H1 8070   4.843   3.539   0.580
 2709TIP3    H2 8071   4.774   3.603   0.699
 2710TIP3   OH2 8072   3.135   5.376   3.627
 2710TIP3    H1 8073   3.175   5.463   3.629
 2710TIP3    H2 8074   3.120   5.359   3.534
 2711TIP3   OH2 8075   8.244   0.489   1.492
 2711TIP3    H1 8076   8.296   0.410   1.509
 2711TIP3    H2 8077   8.180   0.462   1.427
 2712TIP3   OH2 8078   4.514   2.051   4.185
 2712TIP3    H1 8079   4.441   2.083   4.132
 2712TIP3    H2 8080   4.494   1.958   4.199
 2713TIP3   OH2 8081   5.856   7.496   0.575
 2713TIP3    H1 8082   5.906   7.486   0.656
 2713TIP3    H2 8083   5.792   7.565   0.594
 2714TIP3   OH2 8084   1.627   5.870   3.744
 2714TIP3    H1 8085   1.652   5.916   3.664
 2714TIP3    H2 8086   1.615   5.939   3.809
 2715TIP3   OH2 8087   7.853   1.773   6.107
 2715TIP3    H1 8088   7.938   1.743   6.139
 2715TIP3    H2 8089   7.797   1.695   6.109
 2716TIP3   OH2 8090   3.684   7.507   6.575
 2716TIP3    H1 8091   3.708   7.543   6.490
 2716TIP3    H2 8092   3.749   7.439   6.593
 2717TIP3   OH2 8093   2.479   6.501   1.393
 2717TIP3    H1 8094   2.400   6.472   1.348
 2717TIP3    H2 8095   2.449   6.565   1.457
 2718TIP3   OH2 8096   0.068   7.657   0.034
 2718TIP3    H1 8097   0.004   7.728   0.026
 2718TIP3    H2 8098   0.079   7.645   0.129
 2719TIP3   OH2 8099   1.818   0.255   4.475
 2719TIP3    H1 8100   1.733   0.227   4.509
 2719TIP3    H2 8101   1.827   0.210   4.391
 2720TIP3   OH2 8102   6.010   6.581   4.703
 2720TIP3    H1 8103   6.058   6.628   4.635
 2720TIP3    H2 8104   6.076   6.530   4.749
 2721TIP3   OH2 8105   2.947   4.990   4.257
 2721TIP3    H1 8106   3.010   5.054   4.224
 2721TIP3    H2 8107   2.894   5.039   4.320
 2722TIP3   OH2 8108   4.955   6.773   0.641
 2722TIP3    H1 8109   4.990   6.794   0.555
 2722TIP3    H2 8110   5.031   6.781   0.700
 2723TIP3   OH2 8111   0.892   1.112   1.569
 2723TIP3    H1 8112   0.979   1.080   1.591
 2723TIP3    H2 8113   0.839   1.034   1.558
 2724TIP3   OH2 8114   7.890   5.672   1.637
 2724TIP3    H1 8115   7.832   5.647   1.565
 2724TIP3    H2 8116   7.841   5.739   1.685
 2725TIP3   OH2 8117   5.631   2.654   3.337
 2725TIP3    H1 8118   5.706   2.634   3.281
 2725TIP3    H2 8119   5.555   2.644   3.279
 2726TIP3   OH2 8120   7.950   0.797   2.814
 2726TIP3    H1 8121   7.999   0.742   2.875
 2726TIP3    H2 8122   8.005   0.875   2.803
 2727TIP3   OH2 8123   7.053   1.977   3.764
 2727TIP3    H1 8124   7.055   1.911   3.833
 2727TIP3    H2 8125   7.137   1.967   3.719
 2728TIP3   OH2 8126   7.173   3.884   4.902
 2728TIP3    H1 8127   7.235   3.887   4.975
 2728TIP3    H2 8128   7.216   3.829   4.837
 2729TIP3   OH2 8129   3.644   2.924   0.527
 2729TIP3    H1 8130   3.561   2.890   0.493
 2729TIP3    H2 8131   3.644   2.898   0.619
 2730TIP3   OH2 8132   8.296   2.593   6.096
 2730TIP3    H1 8133   8.258   2.681   6.092
 2730TIP3    H2 8134   8.370   2.602   6.156
 2731TIP3   OH2 8135   0.294   6.741   1.344
 2731TIP3    H1 8136   0.301   6.745   1.440
 2731TIP3    H2 8137   0.232   6.670   1.328
 2732TIP3   OH2 8138   0.831   5.828   3.739
 2732TIP3    H1 8139   0.803   5.737   3.726
 2732TIP3    H2 8140   0.917   5.821   3.781
 2733TIP3   OH2 8141   8.108   3.860   3.214
 2733TIP3    H1 8142   8.053   3.893   3.143
 2733TIP3    H2 8143   8.046   3.826   3.278
 2734TIP3   OH2 8144   6.467   4.786   0.177
 2734TIP3    H1 8145   6.536   4.825   0.123
 2734TIP3    H2 8146   6.386   4.805   0.130
 2735TIP3   OH2 8147   7.023   0.690   6.572
 2735TIP3    H1 8148   7.067   0.608   6.550
 2735TIP3    H2 8149   6.989   0.675   6.661
 2736TIP3   OH2 8150   1.012   2.137   1.196
 2736TIP3    H1 8151   0.955   2.085   1.253
 2736TIP3    H2 8152   1.089   2.155   1.249
 2737TIP3   OH2 8153   5.426   4.394   6.323
 2737TIP3    H1 8154   5.467   4.450   6.389
 2737TIP3    H2 8155   5.442   4.305   6.354
 2738TIP3   OH2 8156   5.242   2.430   3.855
 2738TIP3    H1 8157   5.335   2.437   3.836
 2738TIP3    H2 8158   5.208   2.519   3.841
 2739TIP3   OH2 8159  -0.004   7.094   4.848
 2739TIP3    H1 8160  -0.026   7.163   4.911
 2739TIP3    H2 8161   0.039   7.140   4.776
 2740TIP3   OH2 8162   5.077   1.119   0.811
 2740TIP3    H1 8163   5.126   1.202   0.810
 2740TIP3    H2 8164   5.145   1.052   0.806
 2741TIP3   OH2 8165   4.267   2.529   6.191
 2741TIP3    H1 8166   4.275   2.540   6.096
 2741TIP3    H2 8167   4.346   2.570   6.226
 2742TIP3   OH2 8168   7.521   1.796   3.795
 2742TIP3    H1 8169   7.601   1.817   3.843
 2742TIP3    H2 8170   7.535   1.707   3.761
 2743TIP3   OH2 8171   0.864   5.208   5.412
 2743TIP3    H1 8172   0.784   5.251   5.382
 2743TIP3    H2 8173   0.929   5.278   5.416
 2744TIP3   OH2 8174   7.376   1.044   3.902
 2744TIP3    H1 8175   7.410   1.057   3.990
 2744TIP3    H2 8176   7.433   1.097   3.846
 2745TIP3   OH2 8177   0.774   2.692   0.147
 2745TIP3    H1 8178   0.719   2.671   0.222
 2745TIP3    H2 8179   0.850   2.736   0.185
 2746TIP3   OH2 8180   6.347   6.602   0.814
 2746TIP3    H1 8181   6.345   6.697   0.802
 2746TIP3    H2 8182   6.439   6.578   0.799
 2747TIP3   OH2 8183   7.604   4.055   0.412
 2747TIP3    H1 8184   7.649   3.981   0.452
 2747TIP3    H2 8185   7.661   4.130   0.430
 2748TIP3   OH2 8186   0.935   7.207   1.411
 2748TIP3    H1 8187   0.989   7.270   1.460
 2748TIP3    H2 8188   0.879   7.262   1.356
 2749TIP3   OH2 8189   1.818   2.207   0.796
 2749TIP3    H1 8190   1.728   2.229   0.775
 2749TIP3    H2 8191   1.866   2.220   0.714
 2750TIP3   OH2 8192   6.478   0.137   4.396
 2750TIP3    H1 8193   6.402   0.084   4.420
 2750TIP3    H2 8194   6.509   0.099   4.313
 2751TIP3   OH2 8195   7.131   1.454   0.970
 2751TIP3    H1 8196   7.094   1.532   0.930
 2751TIP3    H2 8197   7.110   1.383   0.909
 2752TIP3   OH2 8198   7.569   4.896   4.308
 2752TIP3    H1 8199   7.534   4.960   4.246
 2752TIP3    H2 8200   7.544   4.811   4.272
 2753TIP3   OH2 8201   5.544   7.631   5.063
 2753TIP3    H1 8202   5.544   7.584   5.147
 2753TIP3    H2 8203   5.495   7.574   5.004
 2754TIP3   OH2 8204   5.628   7.458   2.452
 2754TIP3    H1 8205   5.722   7.442   2.447
 2754TIP3    H2 8206   5.614   7.536   2.398
 2755TIP3   OH2 8207   2.115   0.029   3.839
 2755TIP3    H1 8208   2.122  -0.046   3.780
 2755TIP3    H2 8209   2.203   0.068   3.839
 2756TIP3   OH2 8210   6.153   4.030   2.467
 2756TIP3    H1 8211   6.081   4.015   2.528
 2756TIP3    H2 8212   6.232   4.022   2.521
 2757TIP3   OH2 8213   2.367   2.037   5.582
 2757TIP3    H1 8214   2.409   2.091   5.649
 2757TIP3    H2 8215   2.378   1.947   5.612
 2758TIP3   OH2 8216   6.330   4.806   6.458
 2758TIP3    H1 8217   6.371   4.721   6.444
 2758TIP3    H2 8218   6.394   4.856   6.507
 2759TIP3   OH2 8219   5.706   1.328   4.538
 2759TIP3    H1 8220   5.655   1.334   4.457
 2759TIP3    H2 8221   5.645   1.289   4.601
 2760TIP3   OH2 8222   4.696   7.436   4.056
 2760TIP3    H1 8223   4.722   7.503   4.119
 2760TIP3    H2 8224   4.744   7.358   4.083
 2761TIP3   OH2 8225   0.321   1.142   2.650
 2761TIP3    H1 8226   0.248   1.181   2.699
 2761TIP3    H2 8227   0.279   1.100   2.575
 2762TIP3   OH2 8228   6.007   2.929   3.904
 2762TIP3    H1 8229   5.988   3.004   3.961
 2762TIP3    H2 8230   6.102   2.915   3.915
 2763TIP3   OH2 8231   6.169   0.486   5.869
 2763TIP3    H1 8232   6.143   0.428   5.798
 2763TIP3    H2 8233   6.091   0.540   5.885
 2764TIP3   OH2 8234   1.795   0.443   1.280
 2764TIP3    H1 8235   1.883   0.451   1.244
 2764TIP3    H2 8236   1.794   0.499   1.357
 2765TIP3   OH2 8237   1.689   3.933   3.068
 2765TIP3    H1 8238   1.696   4.017   3.113
 2765TIP3    H2 8239   1.648   3.954   2.984
 2766TIP3   OH2 8240   6.307   2.327   0.236
 2766TIP3    H1 8241   6.360   2.257   0.276
 2766TIP3    H2 8242   6.246   2.353   0.305
 2767TIP3   OH2 8243   3.636   1.037   0.737
 2767TIP3    H1 8244   3.554   1.026   0.689
 2767TIP3    H2 8245   3.608   1.070   0.823
 2768TIP3   OH2 8246   0.781   3.956   4.169
 2768TIP3    H1 8247   0.691   3.924   4.168
 2768TIP3    H2 8248   0.818   3.922   4.250
 2769TIP3   OH2 8249   3.321   5.595   0.874
 2769TIP3    H1 8250   3.285   5.644   0.800
 2769TIP3    H2 8251   3.245   5.551   0.913
 2770TIP3   OH2 8252   6.318   4.977   4.629
 2770TIP3    H1 8253   6.348   4.997   4.540
 2770TIP3    H2 8254   6.397   4.970   4.681
 2771TIP3   OH2 8255   5.352   5.550   3.103
 2771TIP3    H1 8256   5.423   5.596   3.059
 2771TIP3    H2 8257   5.319   5.612   3.168
 2772TIP3   OH2 8258   8.265   4.065   4.098
 2772TIP3    H1 8259   8.251   3.977   4.063
 2772TIP3    H2 8260   8.226   4.123   4.033
 2773TIP3   OH2 8261   6.267   3.430   3.060
 2773TIP3    H1 8262   6.338   3.494   3.049
 2773TIP3    H2 8263   6.257   3.390   2.974
 2774TIP3   OH2 8264   0.268   6.489   5.701
 2774TIP3    H1 8265   0.304   6.488   5.789
 2774TIP3    H2 8266   0.260   6.396   5.678
 2775TIP3   OH2 8267   2.002   2.082   4.952
 2775TIP3    H1 8268   2.068   2.122   4.896
 2775TIP3    H2 8269   2.049   2.015   5.002
 2776TIP3   OH2 8270   3.178   2.750   6.763
 2776TIP3    H1 8271   3.114   2.821   6.763
 2776TIP3    H2 8272   3.140   2.684   6.706
 2777TIP3   OH2 8273   6.018   2.031   2.813
 2777TIP3    H1 8274   6.055   2.077   2.888
 2777TIP3    H2 8275   5.929   2.009   2.840
 2778TIP3   OH2 8276   1.992   1.929   3.873
 2778TIP3    H1 8277   1.999   1.968   3.960
 2778TIP3    H2 8278   1.901   1.900   3.868
 2779TIP3   OH2 8279   0.214   2.129   1.285
 2779TIP3    H1 8280   0.267   2.179   1.223
 2779TIP3    H2 8281   0.130   2.117   1.240
 2780TIP3   OH2 8282   6.445   1.790   2.651
 2780TIP3    H1 8283   6.417   1.807   2.561
 2780TIP3    H2 8284   6.369   1.749   2.693
 2781TIP3   OH2 8285   4.927   4.264   5.104
 2781TIP3    H1 8286   4.938   4.212   5.024
 2781TIP3    H2 8287   4.917   4.198   5.173
 2782TIP3   OH2 8288   6.322   5.498   6.171
 2782TIP3    H1 8289   6.251   5.544   6.126
 2782TIP3    H2 8290   6.351   5.560   6.238
 2783TIP3   OH2 8291   6.554   2.662   0.348
 2783TIP3    H1 8292   6.480   2.663   0.408
 2783TIP3    H2 8293   6.591   2.751   0.353
 2784TIP3   OH2 8294   3.293   6.821   3.413
 2784TIP3    H1 8295   3.275   6.854   3.325
 2784TIP3    H2 8296   3.386   6.798   3.411
 2785TIP3   OH2 8297   5.754   6.468   3.343
 2785TIP3    H1 8298   5.692   6.516   3.288
 2785TIP3    H2 8299   5.778   6.530   3.412
 2786TIP3   OH2 8300   5.512   2.937   4.215
 2786TIP3    H1 8301   5.431   2.981   4.190
 2786TIP3    H2 8302   5.571   2.953   4.141
 2787TIP3   OH2 8303   5.158   4.586   4.477
 2787TIP3    H1 8304   5.086   4.568   4.416
 2787TIP3    H2 8305   5.197   4.667   4.444
 2788TIP3   OH2 8306   6.128   5.806   0.688
 2788TIP3    H1 8307   6.104   5.799   0.781
 2788TIP3    H2 8308   6.175   5.889   0.682
 2789TIP3   OH2 8309   4.368   1.729   2.032
 2789TIP3    H1 8310   4.438   1.674   2.067
 2789TIP3    H2 8311   4.288   1.694   2.072
 2790TIP3   OH2 8312   1.900   5.584   3.016
 2790TIP3    H1 8313   1.884   5.674   2.986
 2790TIP3    H2 8314   1.963   5.548   2.953
 2791TIP3   OH2 8315   3.344   3.047   0.081
 2791TIP3    H1 8316   3.425   2.997   0.070
 2791TIP3    H2 8317   3.292   3.027   0.004
 2792TIP3   OH2 8318   7.383   6.916   2.428
 2792TIP3    H1 8319   7.287   6.914   2.422
 2792TIP3    H2 8320   7.410   6.825   2.417
 2793TIP3   OH2 8321   5.661   5.514   0.085
 2793TIP3    H1 8322   5.615   5.484   0.163
 2793TIP3    H2 8323   5.688   5.603   0.106
 2794TIP3   OH2 8324   6.513   3.309   4.937
 2794TIP3    H1 8325   6.503   3.310   4.841
 2794TIP3    H2 8326   6.600   3.346   4.953
 2795TIP3   OH2 8327   2.165   6.883   1.912
 2795TIP3    H1 8328   2.124   6.912   1.993
 2795TIP3    H2 8329   2.251   6.924   1.913
 2796TIP3   OH2 8330   0.611   2.316   5.466
 2796TIP3    H1 8331   0.554   2.254   5.420
 2796TIP3    H2 8332   0.575   2.402   5.445
 2797TIP3   OH2 8333   0.557   7.058   1.048
 2797TIP3    H1 8334   0.560   7.056   1.143
 2797TIP3    H2 8335   0.557   6.966   1.021
 2798TIP3   OH2 8336   2.541   5.624   3.644
 2798TIP3    H1 8337   2.550   5.617   3.549
 2798TIP3    H2 8338   2.550   5.534   3.676
 2799TIP3   OH2 8339   0.291   3.418   3.557
 2799TIP3    H1 8340   0.289   3.325   3.535
 2799TIP3    H2 8341   0.265   3.463   3.477
 2800TIP3   OH2 8342   3.733   3.884   5.895
 2800TIP3    H1 8343   3.738   3.955   5.959
 2800TIP3    H2 8344   3.711   3.928   5.813
 2801TIP3   OH2 8345   0.198   5.709   3.210
 2801TIP3    H1 8346   0.241   5.688   3.292
 2801TIP3    H2 8347   0.269   5.729   3.149
 2802TIP3   OH2 8348   2.790   4.196   2.256
 2802TIP3    H1 8349   2.720   4.202   2.190
 2802TIP3    H2 8350   2.849   4.268   2.235
 2803TIP3   OH2 8351   0.716   3.085   3.913
 2803TIP3    H1 8352   0.798   3.097   3.866
 2803TIP3    H2 8353   0.715   3.155   3.978
 2804TIP3   OH2 8354   3.593   2.718   2.022
 2804TIP3    H1 8355   3.688   2.709   2.031
 2804TIP3    H2 8356   3.562   2.739   2.111
 2805TIP3   OH2 8357   0.493   3.511   0.079
 2805TIP3    H1 8358   0.541   3.478   0.004
 2805TIP3    H2 8359   0.436   3.579   0.044
 2806TIP3   OH2 8360   7.475   1.271   6.380
 2806TIP3    H1 8361   7.498   1.181   6.401
 2806TIP3    H2 8362   7.490   1.319   6.461
 2807TIP3   OH2 8363   4.847   2.526   1.632
 2807TIP3    H1 8364   4.853   2.516   1.537
 2807TIP3    H2 8365   4.839   2.621   1.646
 2808TIP3   OH2 8366   6.690   2.477   6.293
 2808TIP3    H1 8367   6.667   2.387   6.273
 2808TIP3    H2 8368   6.733   2.509   6.213
 2809TIP3   OH2 8369   6.791   4.495   5.237
 2809TIP3    H1 8370   6.830   4.582   5.225
 2809TIP3    H2 8371   6.796   4.454   5.151
 2810TIP3   OH2 8372   6.277   7.269   4.246
 2810TIP3    H1 8373   6.252   7.224   4.326
 2810TIP3    H2 8374   6.262   7.362   4.264
 2811TIP3   OH2 8375   5.606   7.058   3.271
 2811TIP3    H1 8376   5.661   6.980   3.262
 2811TIP3    H2 8377   5.657   7.127   3.229
 2812TIP3   OH2 8378   2.691   3.627   4.543
 2812TIP3    H1 8379   2.716   3.565   4.474
 2812TIP3    H2 8380   2.610   3.667   4.512
 2813TIP3   OH2 8381   0.440   0.222   5.247
 2813TIP3    H1 8382   0.381   0.252   5.179
 2813TIP3    H2 8383   0.391   0.154   5.294
 2814TIP3   OH2 8384   6.143   6.560   2.855
 2814TIP3    H1 8385   6.076   6.523   2.912
 2814TIP3    H2 8386   6.097   6.578   2.773
 2815TIP3   OH2 8387   4.733   2.236   1.730
 2815TIP3    H1 8388   4.801   2.301   1.750
 2815TIP3    H2 8389   4.759   2.158   1.779
 2816TIP3   OH2 8390   6.087   7.563   5.704
 2816TIP3    H1 8391   6.150   7.493   5.722
 2816TIP3    H2 8392   6.082   7.566   5.608
 2817TIP3   OH2 8393   0.726   5.737   6.619
 2817TIP3    H1 8394   0.698   5.664   6.674
 2817TIP3    H2 8395   0.818   5.717   6.599
 2818TIP3   OH2 8396   6.943   1.453   1.161
 2818TIP3    H1 8397   6.981   1.431   1.076
 2818TIP3    H2 8398   7.005   1.515   1.200
 2819TIP3   OH2 8399   6.913   7.805   6.698
 2819TIP3    H1 8400   7.000   7.845   6.705
 2819TIP3    H2 8401   6.869   7.855   6.630
 2820TIP3   OH2 8402   7.324   2.634   5.236
 2820TIP3    H1 8403   7.402   2.669   5.193
 2820TIP3    H2 8404   7.321   2.542   5.210
 2821TIP3   OH2 8405   5.026   3.283   4.828
 2821TIP3    H1 8406   4.957   3.285   4.895
 2821TIP3    H2 8407   5.036   3.190   4.807
 2822TIP3   OH2 8408   8.057   7.847   4.616
 2822TIP3    H1 8409   7.986   7.848   4.551
 2822TIP3    H2 8410   8.086   7.756   4.619
 2823TIP3   OH2 8411   3.389   2.532   6.413
 2823TIP3    H1 8412   3.424   2.535   6.324
 2823TIP3    H2 8413   3.455   2.485   6.463
 2824TIP3   OH2 8414   7.016   3.751   1.372
 2824TIP3    H1 8415   6.959   3.814   1.328
 2824TIP3    H2 8416   7.104   3.787   1.363
 2825TIP3   OH2 8417   4.379   1.177   2.907
 2825TIP3    H1 8418   4.341   1.208   2.989
 2825TIP3    H2 8419   4.341   1.090   2.893
 2826TIP3   OH2 8420   5.531   1.084   3.605
 2826TIP3    H1 8421   5.437   1.092   3.622
 2826TIP3    H2 8422   5.568   1.059   3.689
 2827TIP3   OH2 8423   2.546   2.220   6.278
 2827TIP3    H1 8424   2.641   2.211   6.279
 2827TIP3    H2 8425   2.531   2.306   6.237
 2828TIP3   OH2 8426   2.019   2.895   5.954
 2828TIP3    H1 8427   1.931   2.857   5.953
 2828TIP3    H2 8428   2.004   2.989   5.954
 2829TIP3   OH2 8429   5.112   0.857   6.116
 2829TIP3    H1 8430   5.090   0.773   6.076
 2829TIP3    H2 8431   5.124   0.916   6.042
 2830TIP3   OH2 8432   2.177   5.630   4.406
 2830TIP3    H1 8433   2.168   5.632   4.501
 2830TIP3    H2 8434   2.269   5.651   4.391
 2831TIP3   OH2 8435   7.714   3.554   2.722
 2831TIP3    H1 8436   7.676   3.590   2.802
 2831TIP3    H2 8437   7.671   3.602   2.651
 2832TIP3   OH2 8438   5.441   2.393   1.017
 2832TIP3    H1 8439   5.459   2.327   0.950
 2832TIP3    H2 8440   5.352   2.421   1.000
 2833TIP3   OH2 8441   1.497   7.828   1.615
 2833TIP3    H1 8442   1.521   7.768   1.685
 2833TIP3    H2 8443   1.418   7.872   1.646
 2834TIP3   OH2 8444   7.246   0.491   5.714
 2834TIP3    H1 8445   7.296   0.435   5.655
 2834TIP3    H2 8446   7.164   0.509   5.667
 2835TIP3   OH2 8447   6.794   4.194   2.783
 2835TIP3    H1 8448   6.768   4.235   2.701
 2835TIP3    H2 8449   6.881   4.158   2.767
 2836TIP3   OH2 8450   6.306   7.159   4.008
 2836TIP3    H1 8451   6.241   7.088   4.008
 2836TIP3    H2 8452   6.299   7.198   4.095
 2837TIP3   OH2 8453   7.901   2.694   5.575
 2837TIP3    H1 8454   7.824   2.665   5.526
 2837TIP3    H2 8455   7.931   2.616   5.621
 2838TIP3   OH2 8456   5.195   3.958   0.395
 2838TIP3    H1 8457   5.101   3.949   0.407
 2838TIP3    H2 8458   5.233   3.913   0.471
 2839TIP3   OH2 8459   1.211  -0.019   5.859
 2839TIP3    H1 8460   1.155   0.025   5.923
 2839TIP3    H2 8461   1.222   0.045   5.789
 2840TIP3   OH2 8462   0.077   7.865   0.946
 2840TIP3    H1 8463   0.065   7.779   0.986
 2840TIP3    H2 8464   0.126   7.848   0.866
 2841TIP3   OH2 8465   7.850   7.294   1.951
 2841TIP3    H1 8466   7.875   7.205   1.979
 2841TIP3    H2 8467   7.822   7.284   1.861
 2842TIP3   OH2 8468   7.599   6.273   6.553
 2842TIP3    H1 8469   7.614   6.184   6.585
 2842TIP3    H2 8470   7.527   6.306   6.607
 2843TIP3   OH2 8471   1.880   7.538   2.740
 2843TIP3    H1 8472   1.849   7.621   2.705
 2843TIP3    H2 8473   1.854   7.473   2.674
 2844TIP3   OH2 8474   4.472   2.057   2.438
 2844TIP3    H1 8475   4.496   2.012   2.519
 2844TIP3    H2 8476   4.383   2.028   2.420
 2845TIP3   OH2 8477   2.654   0.990   2.050
 2845TIP3    H1 8478   2.723   1.030   2.103
 2845TIP3    H2 8479   2.654   0.898   2.075
 2846TIP3   OH2 8480   2.715   7.686   3.243
 2846TIP3    H1 8481   2.806   7.665   3.267
 2846TIP3    H2 8482   2.671   7.602   3.238
 2847TIP3   OH2 8483   2.321   5.017   3.523
 2847TIP3    H1 8484   2.325   5.028   3.428
 2847TIP3    H2 8485   2.403   4.974   3.546
 2848TIP3   OH2 8486   2.936   6.608   6.102
 2848TIP3    H1 8487   2.906   6.523   6.070
 2848TIP3    H2 8488   3.031   6.606   6.093
 2849TIP3   OH2 8489   3.155   5.087   5.589
 2849TIP3    H1 8490   3.207   5.054   5.663
 2849TIP3    H2 8491   3.065   5.087   5.620
 2850TIP3   OH2 8492   0.160   3.848   0.559
 2850TIP3    H1 8493   0.131   3.923   0.611
 2850TIP3    H2 8494   0.250   3.869   0.533
 2851TIP3   OH2 8495   8.147   3.365   5.594
 2851TIP3    H1 8496   8.236   3.389   5.620
 2851TIP3    H2 8497   8.122   3.298   5.658
 2852TIP3   OH2 8498   5.768   6.553   1.159
 2852TIP3    H1 8499   5.819   6.625   1.121
 2852TIP3    H2 8500   5.708   6.526   1.090
 2853TIP3   OH2 8501   5.194   2.910   3.258
 2853TIP3    H1 8502   5.222   2.931   3.348
 2853TIP3    H2 8503   5.102   2.888   3.266
 2854TIP3   OH2 8504   5.348   3.223   1.014
 2854TIP3    H1 8505   5.386   3.310   1.027
 2854TIP3    H2 8506   5.404   3.165   1.064
 2855TIP3   OH2 8507   7.892   5.810   3.181
 2855TIP3    H1 8508   7.973   5.836   3.223
 2855TIP3    H2 8509   7.892   5.714   3.186
 2856TIP3   OH2 8510   0.476   6.039   4.969
 2856TIP3    H1 8511   0.468   6.100   5.042
 2856TIP3    H2 8512   0.462   6.093   4.891
 2857TIP3   OH2 8513   5.428   2.452   5.519
 2857TIP3    H1 8514   5.353   2.405   5.483
 2857TIP3    H2 8515   5.412   2.453   5.614
 2858TIP3   OH2 8516   1.859   1.450   1.574
 2858TIP3    H1 8517   1.946   1.487   1.557
 2858TIP3    H2 8518   1.800   1.524   1.568
 2859TIP3   OH2 8519   0.249   4.299   2.740
 2859TIP3    H1 8520   0.310   4.371   2.724
 2859TIP3    H2 8521   0.240   4.257   2.654
 2860TIP3   OH2 8522   3.175   6.879   1.713
 2860TIP3    H1 8523   3.241   6.819   1.750
 2860TIP3    H2 8524   3.189   6.874   1.618
 2861TIP3   OH2 8525   2.155   0.867   2.497
 2861TIP3    H1 8526   2.140   0.943   2.553
 2861TIP3    H2 8527   2.220   0.897   2.433
 2862TIP3   OH2 8528   6.104   6.348   4.362
 2862TIP3    H1 8529   6.071   6.438   4.356
 2862TIP3    H2 8530   6.161   6.348   4.439
 2863TIP3   OH2 8531   2.601   3.624   2.952
 2863TIP3    H1 8532   2.635   3.557   2.893
 2863TIP3    H2 8533   2.506   3.612   2.949
 2864TIP3   OH2 8534   6.636   0.886   4.386
 2864TIP3    H1 8535   6.610   0.935   4.463
 2864TIP3    H2 8536   6.673   0.805   4.420
 2865TIP3   OH2 8537   0.595   1.186   5.332
 2865TIP3    H1 8538   0.567   1.270   5.369
 2865TIP3    H2 8539   0.539   1.121   5.376
 2866TIP3   OH2 8540   2.859   5.399   4.711
 2866TIP3    H1 8541   2.950   5.380   4.736
 2866TIP3    H2 8542   2.810   5.324   4.746
 2867TIP3   OH2 8543   8.283   6.668   6.256
 2867TIP3    H1 8544   8.281   6.585   6.208
 2867TIP3    H2 8545   8.314   6.732   6.193
 2868TIP3   OH2 8546   0.395   5.570   0.931
 2868TIP3    H1 8547   0.342   5.637   0.975
 2868TIP3    H2 8548   0.338   5.493   0.926
 2869TIP3   OH2 8549   1.981   4.194   2.894
 2869TIP3    H1 8550   2.007   4.241   2.815
 2869TIP3    H2 8551   2.043   4.224   2.961
 2870TIP3   OH2 8552   4.954   2.323   0.145
 2870TIP3    H1 8553   4.974   2.254   0.209
 2870TIP3    H2 8554   5.013   2.394   0.168
 2871TIP3   OH2 8555   3.177   7.462   4.889
 2871TIP3    H1 8556   3.172   7.473   4.984
 2871TIP3    H2 8557   3.087   7.445   4.863
 2872TIP3   OH2 8558   0.532   0.184   1.610
 2872TIP3    H1 8559   0.586   0.139   1.545
 2872TIP3    H2 8560   0.491   0.114   1.660
 2873TIP3   OH2 8561   4.105   7.396   4.787
 2873TIP3    H1 8562   4.095   7.467   4.724
 2873TIP3    H2 8563   4.118   7.318   4.734
 2874TIP3   OH2 8564   4.794   0.308   1.879
 2874TIP3    H1 8565   4.846   0.304   1.959
 2874TIP3    H2 8566   4.844   0.257   1.815
 2875TIP3   OH2 8567   0.601   3.875   0.829
 2875TIP3    H1 8568   0.644   3.822   0.762
 2875TIP3    H2 8569   0.667   3.938   0.856
 2876TIP3   OH2 8570   6.852   3.790   0.717
 2876TIP3    H1 8571   6.859   3.882   0.740
 2876TIP3    H2 8572   6.826   3.747   0.798
 2877TIP3   OH2 8573   5.102   6.049   1.343
 2877TIP3    H1 8574   5.124   6.094   1.424
 2877TIP3    H2 8575   5.117   5.957   1.361
 2878TIP3   OH2 8576   7.207   3.996   3.407
 2878TIP3    H1 8577   7.258   4.053   3.464
 2878TIP3    H2 8578   7.217   3.909   3.445
 2879TIP3   OH2 8579   4.137   5.027   4.593
 2879TIP3    H1 8580   4.151   5.069   4.678
 2879TIP3    H2 8581   4.184   5.082   4.531
 2880TIP3   OH2 8582   2.619   6.937   6.260
 2880TIP3    H1 8583   2.656   6.851   6.240
 2880TIP3    H2 8584   2.599   6.933   6.353
 2881TIP3   OH2 8585   3.577   4.108   2.056
 2881TIP3    H1 8586   3.607   4.042   1.994
 2881TIP3    H2 8587   3.487   4.126   2.030
 2882TIP3   OH2 8588   3.148   0.434   3.902
 2882TIP3    H1 8589   3.181   0.508   3.850
 2882TIP3    H2 8590   3.227   0.392   3.936
 2883TIP3   OH2 8591   2.897   3.240   4.105
 2883TIP3    H1 8592   2.805   3.257   4.128
 2883TIP3    H2 8593   2.935   3.202   4.183
 2884TIP3   OH2 8594   4.690   5.394   0.608
 2884TIP3    H1 8595   4.615   5.341   0.633
 2884TIP3    H2 8596   4.670   5.481   0.642
 2885TIP3   OH2 8597   1.243   7.763   6.239
 2885TIP3    H1 8598   1.253   7.691   6.301
 2885TIP3    H2 8599   1.292   7.736   6.162
 2886TIP3   OH2 8600   4.476   7.351   0.326
 2886TIP3    H1 8601   4.382   7.355   0.310
 2886TIP3    H2 8602   4.496   7.258   0.325
 2887TIP3   OH2 8603   2.043   0.212   5.895
 2887TIP3    H1 8604   2.138   0.221   5.892
 2887TIP3    H2 8605   2.011   0.298   5.925
 2888TIP3   OH2 8606   7.902   4.293   5.253
 2888TIP3    H1 8607   7.808   4.279   5.255
 2888TIP3    H2 8608   7.931   4.248   5.173
 2889TIP3   OH2 8609   4.535   0.772   0.529
 2889TIP3    H1 8610   4.521   0.825   0.451
 2889TIP3    H2 8611   4.484   0.815   0.597
 2890TIP3   OH2 8612   4.426   1.641   3.263
 2890TIP3    H1 8613   4.331   1.628   3.265
 2890TIP3    H2 8614   4.454   1.634   3.354
 2891TIP3   OH2 8615   5.882   1.004   3.132
 2891TIP3    H1 8616   5.919   1.081   3.176
 2891TIP3    H2 8617   5.815   0.972   3.192
 2892TIP3   OH2 8618   5.379   1.828   2.913
 2892TIP3    H1 8619   5.397   1.774   2.837
 2892TIP3    H2 8620   5.304   1.786   2.955
 2893TIP3   OH2 8621   7.921   1.019   0.917
 2893TIP3    H1 8622   7.980   1.004   0.843
 2893TIP3    H2 8623   7.866   0.941   0.921
 2894TIP3   OH2 8624   4.506   7.058   3.472
 2894TIP3    H1 8625   4.414   7.082   3.465
 2894TIP3    H2 8626   4.547   7.135   3.513
 2895TIP3   OH2 8627   4.778   4.075   0.578
 2895TIP3    H1 8628   4.715   4.107   0.513
 2895TIP3    H2 8629   4.723   4.048   0.652
 2896TIP3   OH2 8630   1.389   2.117   0.395
 2896TIP3    H1 8631   1.410   2.160   0.312
 2896TIP3    H2 8632   1.391   2.023   0.374
 2897TIP3   OH2 8633   5.302   6.174   3.056
 2897TIP3    H1 8634   5.321   6.196   2.964
 2897TIP3    H2 8635   5.227   6.230   3.079
 2898TIP3   OH2 8636   7.796   2.784   4.895
 2898TIP3    H1 8637   7.793   2.722   4.822
 2898TIP3    H2 8638   7.889   2.788   4.919
 2899TIP3   OH2 8639   2.807   5.870   5.243
 2899TIP3    H1 8640   2.885   5.853   5.296
 2899TIP3    H2 8641   2.830   5.946   5.190
 2900TIP3   OH2 8642   7.055   0.807   4.876
 2900TIP3    H1 8643   7.100   0.779   4.955
 2900TIP3    H2 8644   6.977   0.853   4.908
 2901TIP3   OH2 8645   1.429   3.065   0.132
 2901TIP3    H1 8646   1.447   3.145   0.181
 2901TIP3    H2 8647   1.439   3.090   0.040
 2902TIP3   OH2 8648   5.173   3.546   2.011
 2902TIP3    H1 8649   5.177   3.560   2.105
 2902TIP3    H2 8650   5.096   3.491   1.997
 2903TIP3   OH2 8651   6.884   0.364   5.978
 2903TIP3    H1 8652   6.973   0.396   5.961
 2903TIP3    H2 8653   6.841   0.369   5.893
 2904TIP3   OH2 8654   1.029   7.648   2.254
 2904TIP3    H1 8655   1.123   7.635   2.241
 2904TIP3    H2 8656   1.013   7.739   2.227
 2905TIP3   OH2 8657   1.724   1.705   4.224
 2905TIP3    H1 8658   1.792   1.665   4.279
 2905TIP3    H2 8659   1.713   1.793   4.260
 2906TIP3   OH2 8660   8.262   3.946   2.831
 2906TIP3    H1 8661   8.248   3.989   2.747
 2906TIP3    H2 8662   8.195   3.983   2.889
 2907TIP3   OH2 8663   3.629   6.544   5.184
 2907TIP3    H1 8664   3.570   6.573   5.254
 2907TIP3    H2 8665   3.581   6.473   5.141
 2908TIP3   OH2 8666   4.676   1.408   3.699
 2908TIP3    H1 8667   4.629   1.480   3.658
 2908TIP3    H2 8668   4.762   1.444   3.720
 2909TIP3   OH2 8669   3.777   5.228   6.391
 2909TIP3    H1 8670   3.738   5.259   6.310
 2909TIP3    H2 8671   3.864   5.195   6.365
 2910TIP3   OH2 8672   4.435   7.129   6.190
 2910TIP3    H1 8673   4.507   7.157   6.247
 2910TIP3    H2 8674   4.358   7.133   6.246
 2911TIP3   OH2 8675   5.793   2.412   2.101
 2911TIP3    H1 8676   5.797   2.506   2.117
 2911TIP3    H2 8677   5.864   2.375   2.154
 2912TIP3   OH2 8678   1.169   6.018   4.866
 2912TIP3    H1 8679   1.191   5.958   4.795
 2912TIP3    H2 8680   1.178   5.965   4.946
 2913TIP3   OH2 8681   2.634   4.600   6.058
 2913TIP3    H1 8682   2.602   4.513   6.034
 2913TIP3    H2 8683   2.719   4.584   6.099
 2914TIP3   OH2 8684   1.196   2.789   5.520
 2914TIP3    H1 8685   1.233   2.751   5.440
 2914TIP3    H2 8686   1.142   2.719   5.556
 2915TIP3   OH2 8687   6.906   2.512   1.380
 2915TIP3    H1 8688   6.992   2.471   1.385
 2915TIP3    H2 8689   6.855   2.471   1.450
 2916TIP3   OH2 8690   0.245   2.216   5.158
 2916TIP3    H1 8691   0.205   2.302   5.174
 2916TIP3    H2 8692   0.178   2.166   5.113
 2917TIP3   OH2 8693   4.357   0.670   2.143
 2917TIP3    H1 8694   4.271   0.710   2.136
 2917TIP3    H2 8695   4.388   0.695   2.230
 2918TIP3   OH2 8696   6.460   7.771   6.412
 2918TIP3    H1 8697   6.482   7.860   6.382
 2918TIP3    H2 8698   6.511   7.760   6.492
 2919TIP3   OH2 8699   3.331   0.963   4.443
 2919TIP3    H1 8700   3.367   0.891   4.392
 2919TIP3    H2 8701   3.236   0.955   4.433
 2920TIP3   OH2 8702   7.222   1.272   2.608
 2920TIP3    H1 8703   7.316   1.260   2.620
 2920TIP3    H2 8704   7.212   1.301   2.517
 2921TIP3   OH2 8705   2.774   4.185   0.702
 2921TIP3    H1 8706   2.773   4.182   0.607
 2921TIP3    H2 8707   2.850   4.131   0.727
 2922TIP3   OH2 8708   8.212   1.794   4.305
 2922TIP3    H1 8709   8.163   1.876   4.299
 2922TIP3    H2 8710   8.155   1.729   4.265
 2923TIP3   OH2 8711   2.988   6.960   4.638
 2923TIP3    H1 8712   2.978   6.950   4.732
 2923TIP3    H2 8713   2.952   6.880   4.601
 2924TIP3   OH2 8714   1.674   2.486   0.385
 2924TIP3    H1 8715   1.721   2.416   0.340
 2924TIP3    H2 8716   1.666   2.555   0.319
 2925TIP3   OH2 8717   4.163   7.743   3.542
 2925TIP3    H1 8718   4.200   7.674   3.596
 2925TIP3    H2 8719   4.071   7.748   3.569
 2926TIP3   OH2 8720   3.392   1.229   0.560
 2926TIP3    H1 8721   3.316   1.179   0.531
 2926TIP3    H2 8722   3.443   1.245   0.481
 2927TIP3   OH2 8723   1.826   1.635   5.719
 2927TIP3    H1 8724   1.821   1.676   5.632
 2927TIP3    H2 8725   1.750   1.670   5.766
 2928TIP3   OH2 8726   3.234   0.668   2.425
 2928TIP3    H1 8727   3.239   0.747   2.479
 2928TIP3    H2 8728   3.305   0.613   2.457
 2929TIP3   OH2 8729   5.014   5.655   3.494
 2929TIP3    H1 8730   5.031   5.662   3.588
 2929TIP3    H2 8731   4.941   5.593   3.488
 2930TIP3   OH2 8732   3.296   3.885   6.229
 2930TIP3    H1 8733   3.250   3.828   6.291
 2930TIP3    H2 8734   3.313   3.965   6.279
 2931TIP3   OH2 8735   0.284   2.698   4.257
 2931TIP3    H1 8736   0.326   2.617   4.228
 2931TIP3    H2 8737   0.343   2.733   4.324
 2932TIP3   OH2 8738   2.237   0.322   4.801
 2932TIP3    H1 8739   2.228   0.228   4.817
 2932TIP3    H2 8740   2.157   0.346   4.754
 2933TIP3   OH2 8741   0.684   4.250   3.771
 2933TIP3    H1 8742   0.716   4.313   3.836
 2933TIP3    H2 8743   0.760   4.197   3.750
 2934TIP3   OH2 8744   6.247   6.981   4.382
 2934TIP3    H1 8745   6.334   6.976   4.422
 2934TIP3    H2 8746   6.208   7.059   4.420
 2935TIP3   OH2 8747   1.559   2.369   4.165
 2935TIP3    H1 8748   1.619   2.372   4.240
 2935TIP3    H2 8749   1.615   2.388   4.090
 2936TIP3   OH2 8750   3.021   0.314   5.261
 2936TIP3    H1 8751   2.928   0.330   5.279
 2936TIP3    H2 8752   3.035   0.223   5.287
 2937TIP3   OH2 8753   0.845   7.595   4.590
 2937TIP3    H1 8754   0.803   7.628   4.669
 2937TIP3    H2 8755   0.824   7.660   4.522
 2938TIP3   OH2 8756   6.401   3.215   0.803
 2938TIP3    H1 8757   6.347   3.238   0.879
 2938TIP3    H2 8758   6.338   3.208   0.731
 2939TIP3   OH2 8759   8.109   3.970   1.061
 2939TIP3    H1 8760   8.031   4.001   1.106
 2939TIP3    H2 8761   8.182   4.010   1.110
 2940TIP3   OH2 8762   0.758   3.468   4.975
 2940TIP3    H1 8763   0.734   3.391   5.027
 2940TIP3    H2 8764   0.722   3.542   5.024
 2941TIP3   OH2 8765   5.788   3.523   1.702
 2941TIP3    H1 8766   5.712   3.582   1.695
 2941TIP3    H2 8767   5.858   3.568   1.656
 2942TIP3   OH2 8768   1.018   1.788   3.604
 2942TIP3    H1 8769   1.078   1.732   3.653
 2942TIP3    H2 8770   0.964   1.727   3.554
 2943TIP3   OH2 8771   2.188   0.053   5.536
 2943TIP3    H1 8772   2.120   0.110   5.572
 2943TIP3    H2 8773   2.142  -0.007   5.478
 2944TIP3   OH2 8774   6.901   6.578   3.149
 2944TIP3    H1 8775   6.895   6.654   3.092
 2944TIP3    H2 8776   6.825   6.585   3.208
 2945TIP3   OH2 8777   4.980   7.263   3.440
 2945TIP3    H1 8778   4.974   7.293   3.349
 2945TIP3    H2 8779   5.074   7.260   3.459
 2946TIP3   OH2 8780   8.223   7.163   5.437
 2946TIP3    H1 8781   8.144   7.197   5.480
 2946TIP3    H2 8782   8.289   7.231   5.449
 2947TIP3   OH2 8783   5.033   7.058   6.328
 2947TIP3    H1 8784   5.067   7.068   6.239
 2947TIP3    H2 8785   5.074   7.130   6.377
 2948TIP3   OH2 8786   5.174   7.259   3.026
 2948TIP3    H1 8787   5.225   7.206   3.088
 2948TIP3    H2 8788   5.192   7.221   2.941
 2949TIP3   OH2 8789   5.533   4.820   1.632
 2949TIP3    H1 8790   5.502   4.908   1.609
 2949TIP3    H2 8791   5.625   4.819   1.604
 2950TIP3   OH2 8792   7.987   6.065   6.129
 2950TIP3    H1 8793   7.985   6.145   6.076
 2950TIP3    H2 8794   7.904   6.065   6.176
 2951TIP3   OH2 8795   5.144   1.053   1.527
 2951TIP3    H1 8796   5.079   1.119   1.551
 2951TIP3    H2 8797   5.106   1.007   1.453
 2952TIP3   OH2 8798   1.848   7.223   4.592
 2952TIP3    H1 8799   1.795   7.173   4.530
 2952TIP3    H2 8800   1.875   7.301   4.544
 2953TIP3   OH2 8801   2.360   5.211   5.207
 2953TIP3    H1 8802   2.455   5.217   5.214
 2953TIP3    H2 8803   2.328   5.295   5.237
 2954TIP3   OH2 8804   4.186   3.393   5.698
 2954TIP3    H1 8805   4.176   3.474   5.649
 2954TIP3    H2 8806   4.235   3.419   5.777
 2955TIP3   OH2 8807   1.904   3.845   3.901
 2955TIP3    H1 8808   1.854   3.828   3.822
 2955TIP3    H2 8809   1.993   3.859   3.871
 2956TIP3   OH2 8810   4.050   2.003   2.048
 2956TIP3    H1 8811   3.976   2.063   2.047
 2956TIP3    H2 8812   4.016   1.922   2.008
 2957TIP3   OH2 8813   0.941   3.960   2.290
 2957TIP3    H1 8814   0.886   3.904   2.235
 2957TIP3    H2 8815   0.925   4.049   2.257
 2958TIP3   OH2 8816   7.961   6.695   1.611
 2958TIP3    H1 8817   7.878   6.663   1.647
 2958TIP3    H2 8818   7.969   6.650   1.527
 2959TIP3   OH2 8819   7.041   7.453   5.106
 2959TIP3    H1 8820   6.969   7.484   5.160
 2959TIP3    H2 8821   7.035   7.358   5.110
 2960TIP3   OH2 8822   3.632   0.505   4.758
 2960TIP3    H1 8823   3.555   0.477   4.808
 2960TIP3    H2 8824   3.605   0.586   4.715
 2961TIP3   OH2 8825   3.710   6.736   1.841
 2961TIP3    H1 8826   3.668   6.668   1.788
 2961TIP3    H2 8827   3.730   6.692   1.924
 2962TIP3   OH2 8828   3.687   5.001   5.922
 2962TIP3    H1 8829   3.770   5.036   5.890
 2962TIP3    H2 8830   3.629   5.003   5.846
 2963TIP3   OH2 8831   1.734   6.033   5.921
 2963TIP3    H1 8832   1.711   6.109   5.868
 2963TIP3    H2 8833   1.822   6.052   5.954
 2964TIP3   OH2 8834   2.730   0.799   4.322
 2964TIP3    H1 8835   2.643   0.826   4.292
 2964TIP3    H2 8836   2.762   0.742   4.253
 2965TIP3   OH2 8837   7.869   0.539   5.425
 2965TIP3    H1 8838   7.855   0.486   5.503
 2965TIP3    H2 8839   7.900   0.624   5.458
 2966TIP3   OH2 8840   2.412   5.419   6.387
 2966TIP3    H1 8841   2.409   5.335   6.339
 2966TIP3    H2 8842   2.502   5.426   6.418
 2967TIP3   OH2 8843   4.828   7.354   6.229
 2967TIP3    H1 8844   4.923   7.362   6.233
 2967TIP3    H2 8845   4.802   7.415   6.160
 2968TIP3   OH2 8846   3.082   0.987   0.789
 2968TIP3    H1 8847   3.021   0.919   0.760
 2968TIP3    H2 8848   3.040   1.025   0.866
 2969TIP3   OH2 8849   1.591   4.436   2.834
 2969TIP3    H1 8850   1.666   4.380   2.813
 2969TIP3    H2 8851   1.532   4.379   2.884
 2970TIP3   OH2 8852   4.166   7.239   3.330
 2970TIP3    H1 8853   4.179   7.166   3.270
 2970TIP3    H2 8854   4.072   7.238   3.348
 2971TIP3   OH2 8855   6.911   2.324   3.637
 2971TIP3    H1 8856   7.006   2.310   3.637
 2971TIP3    H2 8857   6.900   2.414   3.607
 2972TIP3   OH2 8858   6.011   1.273   3.764
 2972TIP3    H1 8859   5.961   1.219   3.825
 2972TIP3    H2 8860   6.094   1.226   3.753
 2973TIP3   OH2 8861   2.385   4.379   2.356
 2973TIP3    H1 8862   2.349   4.467   2.359
 2973TIP3    H2 8863   2.340   4.337   2.282
 2974TIP3   OH2 8864   7.102   4.788   2.843
 2974TIP3    H1 8865   7.189   4.748   2.851
 2974TIP3    H2 8866   7.042   4.713   2.838
 2975TIP3   OH2 8867   0.020   6.606   1.595
 2975TIP3    H1 8868   0.025   6.546   1.520
 2975TIP3    H2 8869   0.026   6.693   1.556
 2976TIP3   OH2 8870   0.015   0.665   1.064
 2976TIP3    H1 8871   0.060   0.583   1.043
 2976TIP3    H2 8872  -0.001   0.660   1.158
 2977TIP3   OH2 8873   1.004   5.954   5.698
 2977TIP3    H1 8874   0.967   5.879   5.745
 2977TIP3    H2 8875   0.946   6.027   5.720
 2978TIP3   OH2 8876   5.799   4.859   1.608
 2978TIP3    H1 8877   5.848   4.875   1.690
 2978TIP3    H2 8878   5.851   4.904   1.541
 2979TIP3   OH2 8879   5.145   0.851   2.246
 2979TIP3    H1 8880   5.197   0.800   2.309
 2979TIP3    H2 8881   5.154   0.803   2.163
 2980TIP3   OH2 8882   4.306   7.708   1.449
 2980TIP3    H1 8883   4.380   7.765   1.468
 2980TIP3    H2 8884   4.323   7.676   1.360
 2981TIP3   OH2 8885   1.796   4.085   5.293
 2981TIP3    H1 8886   1.827   4.090   5.202
 2981TIP3    H2 8887   1.824   4.169   5.331
 2982TIP3   OH2 8888   5.044   5.473   2.105
 2982TIP3    H1 8889   5.068   5.566   2.111
 2982TIP3    H2 8890   5.062   5.450   2.014
 2983TIP3   OH2 8891   1.862   2.038   5.630
 2983TIP3    H1 8892   1.831   1.998   5.548
 2983TIP3    H2 8893   1.871   2.131   5.609
 2984TIP3   OH2 8894   1.828   7.701   3.007
 2984TIP3    H1 8895   1.833   7.673   2.915
 2984TIP3    H2 8896   1.897   7.765   3.016
 2985TIP3   OH2 8897   7.003   4.886   6.671
 2985TIP3    H1 8898   6.994   4.936   6.753
 2985TIP3    H2 8899   6.947   4.809   6.685
 2986TIP3   OH2 8900   2.799   0.081   5.670
 2986TIP3    H1 8901   2.834  -0.006   5.692
 2986TIP3    H2 8902   2.811   0.088   5.575
 2987TIP3   OH2 8903   8.010   4.920   3.614
 2987TIP3    H1 8904   8.080   4.866   3.578
 2987TIP3    H2 8905   8.022   4.915   3.709
 2988TIP3   OH2 8906   4.770   7.546   0.686
 2988TIP3    H1 8907   4.771   7.450   0.687
 2988TIP3    H2 8908   4.682   7.569   0.656
 2989TIP3   OH2 8909   7.188   0.300   6.622
 2989TIP3    H1 8910   7.161   0.264   6.706
 2989TIP3    H2 8911   7.106   0.309   6.572
 2990TIP3   OH2 8912   1.719   4.010   1.615
 2990TIP3    H1 8913   1.646   4.067   1.635
 2990TIP3    H2 8914   1.793   4.047   1.664
 2991TIP3   OH2 8915   5.296   1.649   1.542
 2991TIP3    H1 8916   5.291   1.701   1.461
 2991TIP3    H2 8917   5.383   1.667   1.577
 2992TIP3   OH2 8918   6.880   5.616   5.893
 2992TIP3    H1 8919   6.941   5.689   5.907
 2992TIP3    H2 8920   6.896   5.558   5.968
 2993TIP3   OH2 8921   0.374   2.224   3.129
 2993TIP3    H1 8922   0.421   2.275   3.195
 2993TIP3    H2 8923   0.384   2.133   3.157
 2994TIP3   OH2 8924   3.486   4.977   6.172
 2994TIP3    H1 8925   3.481   4.894   6.124
 2994TIP3    H2 8926   3.554   4.962   6.238
 2995TIP3   OH2 8927   0.363   4.527   5.181
 2995TIP3    H1 8928   0.273   4.504   5.205
 2995TIP3    H2 8929   0.417   4.462   5.225
 2996TIP3   OH2 8930   0.188   7.354   3.553
 2996TIP3    H1 8931   0.251   7.423   3.574
 2996TIP3    H2 8932   0.117   7.399   3.508
 2997TIP3   OH2 8933   2.673   7.267   1.874
 2997TIP3    H1 8934   2.620   7.234   1.801
 2997TIP3    H2 8935   2.755   7.295   1.833
 2998TIP3   OH2 8936   4.375   3.993   5.405
 2998TIP3    H1 8937   4.326   4.033   5.477
 2998TIP3    H2 8938   4.467   4.008   5.428
 2999TIP3   OH2 8939   4.561   4.167   2.062
 2999TIP3    H1 8940   4.626   4.235   2.079
 2999TIP3    H2 8941   4.484   4.215   2.029
 3000TIP3   OH2 8942   4.892   0.861   6.273
 3000TIP3    H1 8943   4.908   0.900   6.359
 3000TIP3    H2 8944   4.976   0.867   6.228
 3001TIP3   OH2 8945   1.639   0.826   3.848
 3001TIP3    H1 8946   1.568   0.886   3.871
 3001TIP3    H2 8947   1.599   0.739   3.851
 3002TIP3   OH2 8948   1.878   1.487   2.109
 3002TIP3    H1 8949   1.783   1.484   2.100
 3002TIP3    H2 8950   1.910   1.502   2.019
 3003TIP3   OH2 8951   7.806   5.959   5.475
 3003TIP3    H1 8952   7.743   5.955   5.403
 3003TIP3    H2 8953   7.888   5.928   5.436
 3004TIP3   OH2 8954   7.804   6.569   5.571
 3004TIP3    H1 8955   7.756   6.533   5.646
 3004TIP3    H2 8956   7.755   6.539   5.495
 3005TIP3   OH2 8957   1.905   2.606   6.148
 3005TIP3    H1 8958   1.933   2.683   6.198
 3005TIP3    H2 8959   1.973   2.542   6.164
 3006TIP3   OH2 8960   7.803   4.425   1.436
 3006TIP3    H1 8961   7.894   4.434   1.410
 3006TIP3    H2 8962   7.794   4.334   1.464
 3007TIP3   OH2 8963   0.593   0.067   3.457
 3007TIP3    H1 8964   0.523   0.069   3.391
 3007TIP3    H2 8965   0.624  -0.024   3.456
 3008TIP3   OH2 8966   2.454   5.176   2.357
 3008TIP3    H1 8967   2.523   5.235   2.387
 3008TIP3    H2 8968   2.439   5.118   2.431
 3009TIP3   OH2 8969   7.170   3.041   0.261
 3009TIP3    H1 8970   7.216   3.095   0.197
 3009TIP3    H2 8971   7.168   3.094   0.340
 3010TIP3   OH2 8972   2.453   0.090   5.492
 3010TIP3    H1 8973   2.444   0.155   5.422
 3010TIP3    H2 8974   2.366   0.052   5.500
 3011TIP3   OH2 8975   2.999   6.783   0.794
 3011TIP3    H1 8976   2.986   6.855   0.732
 3011TIP3    H2 8977   3.093   6.782   0.811
 3012TIP3   OH2 8978   0.175   1.520   6.161
 3012TIP3    H1 8979   0.103   1.569   6.200
 3012TIP3    H2 8980   0.152   1.428   6.176
 3013TIP3   OH2 8981   6.182   1.084   4.426
 3013TIP3    H1 8982   6.093   1.117   4.443
 3013TIP3    H2 8983   6.173   1.030   4.348
 3014TIP3   OH2 8984   6.252   2.607   0.450
 3014TIP3    H1 8985   6.158   2.607   0.468
 3014TIP3    H2 8986   6.259   2.640   0.361
 3015TIP3   OH2 8987   3.114   0.731   0.122
 3015TIP3    H1 8988   3.198   0.753   0.081
 3015TIP3    H2 8989   3.127   0.643   0.156
 3016TIP3   OH2 8990   1.543   2.238   3.807
 3016TIP3    H1 8991   1.461   2.275   3.775
 3016TIP3    H2 8992   1.528   2.143   3.809
 3017TIP3   OH2 8993   6.973   2.801   6.387
 3017TIP3    H1 8994   7.032   2.846   6.327
 3017TIP3    H2 8995   6.949   2.721   6.341
 3018TIP3   OH2 8996   1.518   4.962   3.083
 3018TIP3    H1 8997   1.537   4.959   2.989
 3018TIP3    H2 8998   1.426   4.988   3.088
 3019TIP3   OH2 8999   6.190   3.249   3.532
 3019TIP3    H1 9000   6.252   3.318   3.555
 3019TIP3    H2 9001   6.104   3.288   3.545
 3020TIP3   OH2 9002   1.864   4.229   0.186
 3020TIP3    H1 9003   1.902   4.272   0.262
 3020TIP3    H2 9004   1.775   4.206   0.212
 3021TIP3   OH2 9005   4.476   1.673   5.116
 3021TIP3    H1 9006   4.514   1.703   5.034
 3021TIP3    H2 9007   4.422   1.597   5.092
 3022TIP3   OH2 9008   3.779   5.961   4.442
 3022TIP3    H1 9009   3.750   5.877   4.478
 3022TIP3    H2 9010   3.801   6.013   4.519
 3023TIP3   OH2 9011   5.840   5.992   2.968
 3023TIP3    H1 9012   5.830   6.023   2.878
 3023TIP3    H2 9013   5.862   5.899   2.959
 3024TIP3   OH2 9014   2.813   3.517   5.964
 3024TIP3    H1 9015   2.730   3.476   5.986
 3024TIP3    H2 9016   2.826   3.583   6.032
 3025TIP3   OH2 9017   3.350   6.923   4.100
 3025TIP3    H1 9018   3.395   6.898   4.180
 3025TIP3    H2 9019   3.324   6.841   4.059
 3026TIP3   OH2 9020   1.949   3.218   2.898
 3026TIP3    H1 9021   1.893   3.288   2.867
 3026TIP3    H2 9022   1.951   3.154   2.827
 3027TIP3   OH2 9023   6.055   4.309   2.268
 3027TIP3    H1 9024   6.055   4.396   2.306
 3027TIP3    H2 9025   5.994   4.259   2.322
 3028TIP3   OH2 9026   7.957   7.677   5.222
 3028TIP3    H1 9027   8.012   7.751   5.251
 3028TIP3    H2 9028   7.950   7.689   5.127
 3029TIP3   OH2 9029   3.230   3.645   3.152
 3029TIP3    H1 9030   3.197   3.733   3.170
 3029TIP3    H2 9031   3.319   3.646   3.187
 3030TIP3   OH2 9032   3.484   7.442   0.632
 3030TIP3    H1 9033   3.555   7.478   0.579
 3030TIP3    H2 9034   3.479   7.502   0.707
 3031TIP3   OH2 9035   3.794   3.919   6.405
 3031TIP3    H1 9036   3.759   3.990   6.351
 3031TIP3    H2 9037   3.821   3.853   6.341
 3032TIP3   OH2 9038   1.063   4.007   6.524
 3032TIP3    H1 9039   1.037   3.916   6.531
 3032TIP3    H2 9040   1.049   4.030   6.432
 3033TIP3   OH2 9041   7.012   3.812   3.261
 3033TIP3    H1 9042   6.969   3.884   3.306
 3033TIP3    H2 9043   6.967   3.806   3.177
 3034TIP3   OH2 9044   3.625   4.156   0.675
 3034TIP3    H1 9045   3.606   4.208   0.753
 3034TIP3    H2 9046   3.657   4.072   0.709
 3035TIP3   OH2 9047   8.200   6.092   1.428
 3035TIP3    H1 9048   8.259   6.061   1.359
 3035TIP3    H2 9049   8.117   6.048   1.409
 3036TIP3   OH2 9050   0.777   1.876   3.717
 3036TIP3    H1 9051   0.740   1.924   3.643
 3036TIP3    H2 9052   0.864   1.850   3.687
 3037TIP3   OH2 9053   7.868   3.024   2.365
 3037TIP3    H1 9054   7.911   3.048   2.446
 3037TIP3    H2 9055   7.854   2.929   2.373
 3038TIP3   OH2 9056   1.049   0.315   5.260
 3038TIP3    H1 9057   0.997   0.358   5.329
 3038TIP3    H2 9058   1.084   0.387   5.208
 3039TIP3   OH2 9059   4.232   5.075   2.393
 3039TIP3    H1 9060   4.322   5.051   2.372
 3039TIP3    H2 9061   4.212   5.028   2.473
 3040TIP3   OH2 9062   0.275   5.236   3.145
 3040TIP3    H1 9063   0.319   5.152   3.129
 3040TIP3    H2 9064   0.251   5.233   3.238
 3041TIP3   OH2 9065   7.303   7.642   2.256
 3041TIP3    H1 9066   7.322   7.551   2.278
 3041TIP3    H2 9067   7.248   7.637   2.178
 3042TIP3   OH2 9068   6.611   5.592   1.222
 3042TIP3    H1 9069   6.606   5.678   1.179
 3042TIP3    H2 9070   6.523   5.575   1.253
 3043TIP3   OH2 9071   4.597   7.316   1.088
 3043TIP3    H1 9072   4.506   7.293   1.106
 3043TIP3    H2 9073   4.592   7.398   1.040
 3044TIP3   OH2 9074   0.160   5.202   6.440
 3044TIP3    H1 9075   0.208   5.251   6.373
 3044TIP3    H2 9076   0.227   5.163   6.495
 3045TIP3   OH2 9077   1.340   7.063   3.742
 3045TIP3    H1 9078   1.254   7.089   3.775
 3045TIP3    H2 9079   1.363   6.985   3.792
 3046TIP3   OH2 9080   7.808   6.141   2.450
 3046TIP3    H1 9081   7.878   6.142   2.384
 3046TIP3    H2 9082   7.848   6.097   2.525
 3047TIP3   OH2 9083   7.786   0.747   0.350
 3047TIP3    H1 9084   7.693   0.732   0.367
 3047TIP3    H2 9085   7.815   0.804   0.422
 3048TIP3   OH2 9086   5.739   5.231   1.744
 3048TIP3    H1 9087   5.761   5.321   1.723
 3048TIP3    H2 9088   5.808   5.179   1.703
 3049TIP3   OH2 9089   1.597   5.047   6.715
 3049TIP3    H1 9090   1.597   5.002   6.630
 3049TIP3    H2 9091   1.625   4.981   6.778
 3050TIP3   OH2 9092   8.117   5.640   2.056
 3050TIP3    H1 9093   8.107   5.697   1.980
 3050TIP3    H2 9094   8.074   5.688   2.127
 3051TIP3   OH2 9095   0.266   5.379   4.873
 3051TIP3    H1 9096   0.184   5.335   4.848
 3051TIP3    H2 9097   0.242   5.432   4.949
 3052TIP3   OH2 9098   5.449   2.353   4.262
 3052TIP3    H1 9099   5.519   2.288   4.258
 3052TIP3    H2 9100   5.494   2.434   4.285
 3053TIP3   OH2 9101   4.258   5.012   4.959
 3053TIP3    H1 9102   4.169   5.035   4.934
 3053TIP3    H2 9103   4.263   4.918   4.948
 3054TIP3   OH2 9104   1.132   3.740   2.224
 3054TIP3    H1 9105   1.143   3.717   2.132
 3054TIP3    H2 9106   1.058   3.801   2.225
 3055TIP3   OH2 9107   7.130   5.263   1.935
 3055TIP3    H1 9108   7.045   5.302   1.954
 3055TIP3    H2 9109   7.156   5.301   1.852
 3056TIP3   OH2 9110   4.423   1.462   5.422
 3056TIP3    H1 9111   4.351   1.507   5.466
 3056TIP3    H2 9112   4.471   1.532   5.377
 3057TIP3   OH2 9113   8.155   7.429   2.231
 3057TIP3    H1 9114   8.124   7.427   2.141
 3057TIP3    H2 9115   8.075   7.424   2.284
 3058TIP3   OH2 9116   0.869   0.526   5.455
 3058TIP3    H1 9117   0.788   0.518   5.505
 3058TIP3    H2 9118   0.843   0.573   5.376
 3059TIP3   OH2 9119   4.958   3.579   6.172
 3059TIP3    H1 9120   5.001   3.550   6.252
 3059TIP3    H2 9121   4.995   3.666   6.155
 3060TIP3   OH2 9122   2.602   0.680   6.150
 3060TIP3    H1 9123   2.606   0.771   6.178
 3060TIP3    H2 9124   2.610   0.630   6.232
 3061TIP3   OH2 9125   6.384   5.261   5.611
 3061TIP3    H1 9126   6.310   5.278   5.669
 3061TIP3    H2 9127   6.445   5.332   5.629
 3062TIP3   OH2 9128   4.475   3.283   1.366
 3062TIP3    H1 9129   4.546   3.303   1.427
 3062TIP3    H2 9130   4.517   3.233   1.296
 3063TIP3   OH2 9131   0.972   0.198   0.329
 3063TIP3    H1 9132   0.963   0.291   0.306
 3063TIP3    H2 9133   0.996   0.156   0.247
 3064TIP3   OH2 9134   1.815   0.929   6.016
 3064TIP3    H1 9135   1.789   1.021   6.017
 3064TIP3    H2 9136   1.874   0.922   5.941
 3065TIP3   OH2 9137   5.434   4.995   2.406
 3065TIP3    H1 9138   5.472   5.083   2.409
 3065TIP3    H2 9139   5.433   4.973   2.313
 3066TIP3   OH2 9140   3.026   5.952   6.412
 3066TIP3    H1 9141   3.013   5.968   6.506
 3066TIP3    H2 9142   2.959   6.005   6.369
 3067TIP3   OH2 9143   3.762   3.785   1.960
 3067TIP3    H1 9144   3.682   3.813   1.915
 3067TIP3    H2 9145   3.751   3.815   2.050
 3068TIP3   OH2 9146   5.207   3.018   5.695
 3068TIP3    H1 9147   5.155   3.069   5.633
 3068TIP3    H2 9148   5.180   3.052   5.781
 3069TIP3   OH2 9149   7.606   5.500   3.522
 3069TIP3    H1 9150   7.531   5.473   3.469
 3069TIP3    H2 9151   7.658   5.420   3.532
 3070TIP3   OH2 9152   7.433   5.617   2.120
 3070TIP3    H1 9153   7.414   5.655   2.034
 3070TIP3    H2 9154   7.393   5.530   2.117
 3071TIP3   OH2 9155   2.334   7.125   1.315
 3071TIP3    H1 9156   2.248   7.088   1.337
 3071TIP3    H2 9157   2.391   7.050   1.304
 3072TIP3   OH2 9158   0.054   3.024   1.430
 3072TIP3    H1 9159  -0.026   3.024   1.378
 3072TIP3    H2 9160   0.026   3.055   1.516
 3073TIP3   OH2 9161   6.786   1.071   0.499
 3073TIP3    H1 9162   6.874   1.103   0.478
 3073TIP3    H2 9163   6.781   0.986   0.455
 3074TIP3   OH2 9164   3.450   4.976   4.116
 3074TIP3    H1 9165   3.506   5.027   4.058
 3074TIP3    H2 9166   3.408   5.041   4.172
 3075TIP3   OH2 9167   0.377   0.730   5.597
 3075TIP3    H1 9168   0.399   0.819   5.624
 3075TIP3    H2 9169   0.293   0.712   5.639
 3076TIP3   OH2 9170   6.097   1.360   4.893
 3076TIP3    H1 9171   6.154   1.344   4.817
 3076TIP3    H2 9172   6.017   1.397   4.856
 3077TIP3   OH2 9173   1.526   7.309   5.130
 3077TIP3    H1 9174   1.601   7.341   5.179
 3077TIP3    H2 9175   1.560   7.237   5.076
 3078TIP3   OH2 9176   3.540   7.816   1.206
 3078TIP3    H1 9177   3.448   7.795   1.216
 3078TIP3    H2 9178   3.579   7.739   1.166
 3079TIP3   OH2 9179   5.722   4.818   0.212
 3079TIP3    H1 9180   5.704   4.771   0.294
 3079TIP3    H2 9181   5.710   4.752   0.144
 3080TIP3   OH2 9182   6.121   5.679   3.732
 3080TIP3    H1 9183   6.166   5.752   3.775
 3080TIP3    H2 9184   6.084   5.718   3.653
 3081TIP3   OH2 9185   3.407   6.363   5.170
 3081TIP3    H1 9186   3.393   6.269   5.157
 3081TIP3    H2 9187   3.320   6.398   5.185
 3082TIP3   OH2 9188   2.556   7.039   3.241
 3082TIP3    H1 9189   2.569   7.098   3.167
 3082TIP3    H2 9190   2.504   6.967   3.206
 3083TIP3   OH2 9191   6.566   4.834   2.363
 3083TIP3    H1 9192   6.584   4.928   2.366
 3083TIP3    H2 9193   6.486   4.827   2.310
 3084TIP3   OH2 9194   1.411   6.149   1.106
 3084TIP3    H1 9195   1.332   6.123   1.152
 3084TIP3    H2 9196   1.404   6.244   1.096
 3085TIP3   OH2 9197   4.933   3.026   6.556
 3085TIP3    H1 9198   4.960   3.088   6.624
 3085TIP3    H2 9199   5.006   3.024   6.495
 3086TIP3   OH2 9200   7.599   1.586   1.250
 3086TIP3    H1 9201   7.682   1.553   1.216
 3086TIP3    H2 9202   7.587   1.670   1.206
 3087TIP3   OH2 9203   4.939   0.950   5.196
 3087TIP3    H1 9204   4.957   1.037   5.162
 3087TIP3    H2 9205   4.899   0.903   5.122
 3088TIP3   OH2 9206   5.123   4.504   2.171
 3088TIP3    H1 9207   5.151   4.589   2.207
 3088TIP3    H2 9208   5.201   4.470   2.127
 3089TIP3   OH2 9209   0.056   6.097   0.464
 3089TIP3    H1 9210   0.006   6.042   0.403
 3089TIP3    H2 9211  -0.003   6.171   0.482
 3090TIP3   OH2 9212   6.690   1.679   0.735
 3090TIP3    H1 9213   6.698   1.713   0.646
 3090TIP3    H2 9214   6.622   1.732   0.776
 3091TIP3   OH2 9215   1.427   4.425   0.643
 3091TIP3    H1 9216   1.486   4.468   0.582
 3091TIP3    H2 9217   1.484   4.378   0.703
 3092TIP3   OH2 9218   1.591   6.582   5.583
 3092TIP3    H1 9219   1.500   6.578   5.612
 3092TIP3    H2 9220   1.640   6.602   5.662
 3093TIP3   OH2 9221   6.391   7.647   3.142
 3093TIP3    H1 9222   6.320   7.694   3.098
 3093TIP3    H2 9223   6.347   7.593   3.207
 3094TIP3   OH2 9224   1.376   1.346   2.920
 3094TIP3    H1 9225   1.425   1.387   2.849
 3094TIP3    H2 9226   1.442   1.321   2.984
 3095TIP3   OH2 9227   3.201   0.076   2.995
 3095TIP3    H1 9228   3.167  -0.012   2.978
 3095TIP3    H2 9229   3.167   0.099   3.081
 3096TIP3   OH2 9230   5.559   7.847   5.818
 3096TIP3    H1 9231   5.635   7.854   5.876
 3096TIP3    H2 9232   5.532   7.756   5.824
 3097TIP3   OH2 9233   6.359   4.166   5.234
 3097TIP3    H1 9234   6.404   4.249   5.218
 3097TIP3    H2 9235   6.353   4.160   5.330
 3098TIP3   OH2 9236   3.240   5.218   2.133
 3098TIP3    H1 9237   3.207   5.299   2.171
 3098TIP3    H2 9238   3.162   5.165   2.119
 3099TIP3   OH2 9239   7.443   3.232   2.743
 3099TIP3    H1 9240   7.537   3.218   2.750
 3099TIP3    H2 9241   7.431   3.325   2.762
 3100TIP3   OH2 9242   7.610   5.413   5.115
 3100TIP3    H1 9243   7.602   5.380   5.026
 3100TIP3    H2 9244   7.703   5.429   5.126
 3101TIP3   OH2 9245   0.335   2.007   6.161
 3101TIP3    H1 9246   0.350   1.966   6.076
 3101TIP3    H2 9247   0.366   2.097   6.150
 3102TIP3   OH2 9248   5.333   3.329   5.802
 3102TIP3    H1 9249   5.407   3.271   5.784
 3102TIP3    H2 9250   5.347   3.358   5.892
 3103TIP3   OH2 9251   0.938   5.839   1.486
 3103TIP3    H1 9252   0.912   5.753   1.452
 3103TIP3    H2 9253   0.859   5.892   1.479
 3104TIP3   OH2 9254   3.399   2.976   5.327
 3104TIP3    H1 9255   3.403   2.969   5.423
 3104TIP3    H2 9256   3.312   2.943   5.305
 3105TIP3   OH2 9257   0.835   2.212   2.980
 3105TIP3    H1 9258   0.742   2.192   2.972
 3105TIP3    H2 9259   0.863   2.237   2.892
 3106TIP3   OH2 9260   2.479   0.473   6.435
 3106TIP3    H1 9261   2.496   0.414   6.362
 3106TIP3    H2 9262   2.559   0.524   6.444
 3107TIP3   OH2 9263   2.517   2.530   0.588
 3107TIP3    H1 9264   2.516   2.556   0.680
 3107TIP3    H2 9265   2.460   2.593   0.544
 3108TIP3   OH2 9266   4.090   0.491   4.214
 3108TIP3    H1 9267   4.134   0.568   4.248
 3108TIP3    H2 9268   4.136   0.417   4.254
 3109TIP3   OH2 9269   3.496   2.776   4.741
 3109TIP3    H1 9270   3.408   2.786   4.704
 3109TIP3    H2 9271   3.539   2.860   4.724
 3110TIP3   OH2 9272   4.534   4.614   5.032
 3110TIP3    H1 9273   4.598   4.552   5.066
 3110TIP3    H2 9274   4.450   4.569   5.040
 3111TIP3   OH2 9275   6.687   1.303   5.423
 3111TIP3    H1 9276   6.738   1.279   5.500
 3111TIP3    H2 9277   6.733   1.378   5.386
 3112TIP3   OH2 9278   6.875   3.766   3.026
 3112TIP3    H1 9279   6.845   3.779   2.936
 3112TIP3    H2 9280   6.887   3.672   3.034
 3113TIP3   OH2 9281   7.694   2.649   3.557
 3113TIP3    H1 9282   7.615   2.610   3.520
 3113TIP3    H2 9283   7.693   2.740   3.526
 3114TIP3   OH2 9284   1.637   5.063   5.657
 3114TIP3    H1 9285   1.619   4.970   5.671
 3114TIP3    H2 9286   1.643   5.073   5.562
 3115TIP3   OH2 9287   0.922   6.406   5.174
 3115TIP3    H1 9288   0.922   6.405   5.270
 3115TIP3    H2 9289   0.908   6.314   5.150
 3116TIP3   OH2 9290   5.015   0.957   1.268
 3116TIP3    H1 9291   5.010   1.029   1.205
 3116TIP3    H2 9292   5.086   0.902   1.236
 3117TIP3   OH2 9293   4.351   1.674   6.259
 3117TIP3    H1 9294   4.264   1.703   6.232
 3117TIP3    H2 9295   4.403   1.677   6.179
 3118TIP3   OH2 9296   2.504   2.236   3.882
 3118TIP3    H1 9297   2.440   2.264   3.817
 3118TIP3    H2 9298   2.583   2.288   3.863
 3119TIP3   OH2 9299   5.783   2.524   4.803
 3119TIP3    H1 9300   5.826   2.588   4.746
 3119TIP3    H2 9301   5.738   2.578   4.868
 3120TIP3   OH2 9302   2.477   5.296   4.390
 3120TIP3    H1 9303   2.487   5.363   4.457
 3120TIP3    H2 9304   2.423   5.228   4.431
 3121TIP3   OH2 9305   8.002   0.395   3.661
 3121TIP3    H1 9306   7.943   0.453   3.710
 3121TIP3    H2 9307   8.021   0.444   3.581
 3122TIP3   OH2 9308   6.933   7.098   3.686
 3122TIP3    H1 9309   6.889   7.134   3.764
 3122TIP3    H2 9310   6.877   7.123   3.613
 3123TIP3   OH2 9311   0.653   7.723   5.666
 3123TIP3    H1 9312   0.677   7.637   5.699
 3123TIP3    H2 9313   0.584   7.754   5.725
 3124TIP3   OH2 9314   3.156   2.768   0.570
 3124TIP3    H1 9315   3.138   2.693   0.626
 3124TIP3    H2 9316   3.169   2.841   0.631
 3125TIP3   OH2 9317   6.461   6.861   5.949
 3125TIP3    H1 9318   6.369   6.869   5.973
 3125TIP3    H2 9319   6.497   6.798   6.012
 3126TIP3   OH2 9320   3.034   7.221   2.167
 3126TIP3    H1 9321   3.031   7.182   2.255
 3126TIP3    H2 9322   2.944   7.217   2.136
 3127TIP3   OH2 9323   3.147   0.250   4.876
 3127TIP3    H1 9324   3.160   0.226   4.784
 3127TIP3    H2 9325   3.071   0.308   4.875
 3128TIP3   OH2 9326   2.692   3.266   3.870
 3128TIP3    H1 9327   2.719   3.308   3.951
 3128TIP3    H2 9328   2.766   3.210   3.846
 3129TIP3   OH2 9329   6.242   3.219   6.700
 3129TIP3    H1 9330   6.321   3.210   6.753
 3129TIP3    H2 9331   6.247   3.148   6.636
 3130TIP3   OH2 9332   0.126   0.061   4.742
 3130TIP3    H1 9333   0.092   0.069   4.831
 3130TIP3    H2 9334   0.050   0.033   4.691
 3131TIP3   OH2 9335   6.160   2.460   3.807
 3131TIP3    H1 9336   6.117   2.545   3.797
 3131TIP3    H2 9337   6.240   2.479   3.856
 3132TIP3   OH2 9338   2.620   2.290   3.125
 3132TIP3    H1 9339   2.626   2.200   3.156
 3132TIP3    H2 9340   2.709   2.325   3.132
 3133TIP3   OH2 9341   6.498   1.472   4.741
 3133TIP3    H1 9342   6.534   1.390   4.709
 3133TIP3    H2 9343   6.557   1.539   4.708
 3134TIP3   OH2 9344   0.759   5.777   4.582
 3134TIP3    H1 9345   0.808   5.760   4.501
 3134TIP3    H2 9346   0.683   5.719   4.577
 3135TIP3   OH2 9347   0.692   0.321   3.461
 3135TIP3    H1 9348   0.786   0.303   3.457
 3135TIP3    H2 9349   0.652   0.235   3.465
 3136TIP3   OH2 9350   2.644   5.489   1.385
 3136TIP3    H1 9351   2.597   5.421   1.434
 3136TIP3    H2 9352   2.654   5.452   1.297
 3137TIP3   OH2 9353   1.150   1.802   0.316
 3137TIP3    H1 9354   1.180   1.775   0.403
 3137TIP3    H2 9355   1.226   1.842   0.275
 3138TIP3   OH2 9356   2.461   1.124   0.643
 3138TIP3    H1 9357   2.373   1.110   0.608
 3138TIP3    H2 9358   2.455   1.093   0.734
 3139TIP3   OH2 9359   2.411   4.208   1.850
 3139TIP3    H1 9360   2.358   4.284   1.873
 3139TIP3    H2 9361   2.348   4.137   1.840
 3140TIP3   OH2 9362   1.025   5.139   2.834
 3140TIP3    H1 9363   0.989   5.055   2.807
 3140TIP3    H2 9364   1.065   5.122   2.920
 3141TIP3   OH2 9365   0.258   1.466   2.212
 3141TIP3    H1 9366   0.173   1.449   2.252
 3141TIP3    H2 9367   0.295   1.379   2.196
 3142TIP3   OH2 9368   1.472   1.434   6.554
 3142TIP3    H1 9369   1.440   1.514   6.596
 3142TIP3    H2 9370   1.395   1.393   6.516
 3143TIP3   OH2 9371   7.115   4.071   1.169
 3143TIP3    H1 9372   7.144   3.980   1.176
 3143TIP3    H2 9373   7.189   4.116   1.126
 3144TIP3   OH2 9374   6.410   4.573   4.659
 3144TIP3    H1 9375   6.464   4.606   4.731
 3144TIP3    H2 9376   6.454   4.607   4.580
 3145TIP3   OH2 9377   5.031   7.210   4.384
 3145TIP3    H1 9378   5.111   7.161   4.406
 3145TIP3    H2 9379   4.970   7.187   4.454
 3146TIP3   OH2 9380   3.358   4.665   4.846
 3146TIP3    H1 9381   3.348   4.760   4.841
 3146TIP3    H2 9382   3.269   4.630   4.838
 3147TIP3   OH2 9383   4.623   1.765   6.373
 3147TIP3    H1 9384   4.663   1.833   6.427
 3147TIP3    H2 9385   4.697   1.710   6.346
 3148TIP3   OH2 9386   4.161   6.676   4.048
 3148TIP3    H1 9387   4.230   6.710   3.991
 3148TIP3    H2 9388   4.193   6.692   4.136
 3149TIP3   OH2 9389   7.843   1.468   5.005
 3149TIP3    H1 9390   7.874   1.559   5.005
 3149TIP3    H2 9391   7.880   1.431   4.925
 3150TIP3   OH2 9392   0.623   3.321   5.216
 3150TIP3    H1 9393   0.661   3.404   5.244
 3150TIP3    H2 9394   0.694   3.257   5.226
 3151TIP3   OH2 9395   8.226   2.336   1.327
 3151TIP3    H1 9396   8.157   2.307   1.387
 3151TIP3    H2 9397   8.234   2.265   1.263
 3152TIP3   OH2 9398   1.471   3.571   5.956
 3152TIP3    H1 9399   1.420   3.525   6.022
 3152TIP3    H2 9400   1.419   3.564   5.876
 3153TIP3   OH2 9401   0.983   5.399   4.722
 3153TIP3    H1 9402   0.962   5.467   4.658
 3153TIP3    H2 9403   1.046   5.441   4.781
 3154TIP3   OH2 9404   5.048   1.824   5.967
 3154TIP3    H1 9405   5.008   1.897   5.919
 3154TIP3    H2 9406   4.982   1.755   5.963
 3155TIP3   OH2 9407   6.956   1.684   6.245
 3155TIP3    H1 9408   6.996   1.612   6.294
 3155TIP3    H2 9409   6.993   1.763   6.285
 3156TIP3   OH2 9410   6.861   6.118   3.636
 3156TIP3    H1 9411   6.776   6.141   3.599
 3156TIP3    H2 9412   6.925   6.152   3.573
 3157TIP3   OH2 9413   4.354   7.054   0.339
 3157TIP3    H1 9414   4.335   6.974   0.290
 3157TIP3    H2 9415   4.449   7.064   0.333
 3158TIP3   OH2 9416   2.329   3.177   0.370
 3158TIP3    H1 9417   2.390   3.115   0.328
 3158TIP3    H2 9418   2.371   3.262   0.361
 3159TIP3   OH2 9419   3.942   7.116   4.928
 3159TIP3    H1 9420   3.974   7.181   4.866
 3159TIP3    H2 9421   3.874   7.161   4.978
 3160TIP3   OH2 9422   4.951   5.347   1.568
 3160TIP3    H1 9423   4.966   5.354   1.474
 3160TIP3    H2 9424   4.951   5.253   1.586
 3161TIP3   OH2 9425   8.144   1.461   1.323
 3161TIP3    H1 9426   8.150   1.462   1.228
 3161TIP3    H2 9427   8.225   1.504   1.352
 3162TIP3   OH2 9428   7.152   7.115   6.478
 3162TIP3    H1 9429   7.115   7.202   6.460
 3162TIP3    H2 9430   7.246   7.127   6.469
 3163TIP3   OH2 9431   6.372   4.901   1.530
 3163TIP3    H1 9432   6.461   4.888   1.497
 3163TIP3    H2 9433   6.371   4.993   1.559
 3164TIP3   OH2 9434   4.826   5.539   5.817
 3164TIP3    H1 9435   4.825   5.587   5.735
 3164TIP3    H2 9436   4.794   5.601   5.882
 3165TIP3   OH2 9437   4.652   1.570   1.596
 3165TIP3    H1 9438   4.671   1.517   1.519
 3165TIP3    H2 9439   4.688   1.520   1.669
 3166TIP3   OH2 9440   4.728   2.760   6.313
 3166TIP3    H1 9441   4.822   2.763   6.333
 3166TIP3    H2 9442   4.709   2.666   6.304
 3167TIP3   OH2 9443   4.296   4.276   5.312
 3167TIP3    H1 9444   4.216   4.288   5.363
 3167TIP3    H2 9445   4.354   4.347   5.341
 3168TIP3   OH2 9446   4.479   7.406   3.901
 3168TIP3    H1 9447   4.398   7.417   3.951
 3168TIP3    H2 9448   4.548   7.418   3.966
 3169TIP3   OH2 9449   0.195   3.865   3.953
 3169TIP3    H1 9450   0.172   3.948   3.912
 3169TIP3    H2 9451   0.146   3.799   3.903
 3170TIP3   OH2 9452   5.629   4.156   5.877
 3170TIP3    H1 9453   5.722   4.176   5.893
 3170TIP3    H2 9454   5.598   4.122   5.961
 3171TIP3   OH2 9455   2.264   0.989   0.510
 3171TIP3    H1 9456   2.190   0.930   0.493
 3171TIP3    H2 9457   2.271   1.041   0.430
 3172TIP3   OH2 9458   7.625   3.856   6.123
 3172TIP3    H1 9459   7.690   3.925   6.127
 3172TIP3    H2 9460   7.604   3.837   6.215
 3173TIP3   OH2 9461   0.666   3.654   2.157
 3173TIP3    H1 9462   0.639   3.671   2.248
 3173TIP3    H2 9463   0.705   3.566   2.160
 3174TIP3   OH2 9464   6.553   7.148   5.563
 3174TIP3    H1 9465   6.606   7.226   5.577
 3174TIP3    H2 9466   6.573   7.121   5.474
 3175TIP3   OH2 9467   8.103   1.873   0.237
 3175TIP3    H1 9468   8.059   1.887   0.320
 3175TIP3    H2 9469   8.180   1.820   0.258
 3176TIP3   OH2 9470   8.040   2.110   2.003
 3176TIP3    H1 9471   7.966   2.084   2.057
 3176TIP3    H2 9472   8.020   2.199   1.976
 3177TIP3   OH2 9473   4.995   2.110   4.150
 3177TIP3    H1 9474   5.018   2.197   4.118
 3177TIP3    H2 9475   4.966   2.063   4.071
 3178TIP3   OH2 9476   2.242   7.623   4.745
 3178TIP3    H1 9477   2.277   7.535   4.752
 3178TIP3    H2 9478   2.315   7.680   4.770
 3179TIP3   OH2 9479   0.230   7.382   3.271
 3179TIP3    H1 9480   0.245   7.369   3.365
 3179TIP3    H2 9481   0.316   7.366   3.231
 3180TIP3   OH2 9482   2.656   7.378   4.585
 3180TIP3    H1 9483   2.683   7.462   4.548
 3180TIP3    H2 9484   2.569   7.363   4.548
 3181TIP3   OH2 9485   5.050   1.952   6.217
 3181TIP3    H1 9486   5.051   1.917   6.128
 3181TIP3    H2 9487   5.000   2.034   6.209
 3182TIP3   OH2 9488   5.822  -0.027   6.398
 3182TIP3    H1 9489   5.872  -0.060   6.473
 3182TIP3    H2 9490   5.868   0.052   6.371
 3183TIP3   OH2 9491   2.388   6.724   0.881
 3183TIP3    H1 9492   2.443   6.675   0.942
 3183TIP3    H2 9493   2.309   6.745   0.931
 3184TIP3   OH2 9494   2.695   6.313   1.667
 3184TIP3    H1 9495   2.788   6.290   1.676
 3184TIP3    H2 9496   2.694   6.408   1.663
 3185TIP3   OH2 9497   7.346   4.549   2.570
 3185TIP3    H1 9498   7.437   4.523   2.556
 3185TIP3    H2 9499   7.300   4.518   2.491
 3186TIP3   OH2 9500   4.373   5.232   6.617
 3186TIP3    H1 9501   4.292   5.184   6.599
 3186TIP3    H2 9502   4.386   5.223   6.711
 3187TIP3   OH2 9503   4.840   7.711   0.903
 3187TIP3    H1 9504   4.888   7.653   0.963
 3187TIP3    H2 9505   4.795   7.651   0.843
 3188TIP3   OH2 9506   5.455   2.201   4.040
 3188TIP3    H1 9507   5.422   2.236   4.122
 3188TIP3    H2 9508   5.491   2.278   3.995
 3189TIP3   OH2 9509   3.153   7.072   1.002
 3189TIP3    H1 9510   3.203   6.995   0.976
 3189TIP3    H2 9511   3.088   7.039   1.064
 3190TIP3   OH2 9512   6.877   6.804   5.375
 3190TIP3    H1 9513   6.808   6.792   5.310
 3190TIP3    H2 9514   6.885   6.719   5.419
 3191TIP3   OH2 9515   2.408   5.138   6.724
 3191TIP3    H1 9516   2.347   5.095   6.665
 3191TIP3    H2 9517   2.359   5.212   6.759
 3192TIP3   OH2 9518   6.925   2.970   2.720
 3192TIP3    H1 9519   6.967   3.038   2.774
 3192TIP3    H2 9520   6.855   2.936   2.775
 3193TIP3   OH2 9521   1.497   2.407   2.715
 3193TIP3    H1 9522   1.484   2.426   2.808
 3193TIP3    H2 9523   1.546   2.483   2.682
 3194TIP3   OH2 9524   4.226   3.890   4.787
 3194TIP3    H1 9525   4.149   3.863   4.736
 3194TIP3    H2 9526   4.244   3.814   4.843
 3195TIP3   OH2 9527   6.697   6.491   0.645
 3195TIP3    H1 9528   6.672   6.483   0.737
 3195TIP3    H2 9529   6.785   6.454   0.641
 3196TIP3   OH2 9530   8.141   4.006   0.763
 3196TIP3    H1 9531   8.099   4.019   0.848
 3196TIP3    H2 9532   8.228   4.044   0.772
 3197TIP3   OH2 9533   7.118   5.388   2.950
 3197TIP3    H1 9534   7.175   5.343   2.889
 3197TIP3    H2 9535   7.174   5.454   2.991
 3198TIP3   OH2 9536   2.963   6.640   4.164
 3198TIP3    H1 9537   3.016   6.574   4.210
 3198TIP3    H2 9538   3.002   6.645   4.077
 3199TIP3   OH2 9539   6.523   3.004   4.876
 3199TIP3    H1 9540   6.453   3.009   4.811
 3199TIP3    H2 9541   6.532   3.093   4.910
 3200TIP3   OH2 9542   8.160   3.556   1.440
 3200TIP3    H1 9543   8.211   3.497   1.495
 3200TIP3    H2 9544   8.093   3.592   1.498
 3201TIP3   OH2 9545   3.676   1.156   6.611
 3201TIP3    H1 9546   3.721   1.191   6.534
 3201TIP3    H2 9547   3.734   1.089   6.646
 3202TIP3   OH2 9548   2.482   0.945   6.215
 3202TIP3    H1 9549   2.433   0.977   6.291
 3202TIP3    H2 9550   2.454   0.854   6.204
 3203TIP3   OH2 9551   2.847   1.791   0.341
 3203TIP3    H1 9552   2.940   1.804   0.320
 3203TIP3    H2 9553   2.828   1.858   0.408
 3204TIP3   OH2 9554   6.337   3.953   0.539
 3204TIP3    H1 9555   6.393   4.008   0.484
 3204TIP3    H2 9556   6.382   3.869   0.542
 3205TIP3   OH2 9557   7.225   2.731   3.835
 3205TIP3    H1 9558   7.155   2.674   3.867
 3205TIP3    H2 9559   7.247   2.787   3.909
 3206TIP3   OH2 9560   2.340   5.753   6.480
 3206TIP3    H1 9561   2.287   5.693   6.532
 3206TIP3    H2 9562   2.331   5.838   6.525
 3207TIP3   OH2 9563   7.917   7.345   1.291
 3207TIP3    H1 9564   7.897   7.327   1.199
 3207TIP3    H2 9565   7.932   7.440   1.294
 3208TIP3   OH2 9566   3.698   2.925   2.435
 3208TIP3    H1 9567   3.767   2.921   2.502
 3208TIP3    H2 9568   3.736   2.979   2.366
 3209TIP3   OH2 9569   7.686   0.998   0.110
 3209TIP3    H1 9570   7.643   0.916   0.086
 3209TIP3    H2 9571   7.780   0.981   0.096
 3210TIP3   OH2 9572   6.116   7.024   1.131
 3210TIP3    H1 9573   6.096   7.055   1.219
 3210TIP3    H2 9574   6.208   6.996   1.136
 3211TIP3   OH2 9575   3.316   4.245   6.087
 3211TIP3    H1 9576   3.308   4.165   6.035
 3211TIP3    H2 9577   3.284   4.220   6.174
 3212TIP3   OH2 9578   3.470   6.059   6.313
 3212TIP3    H1 9579   3.411   6.099   6.377
 3212TIP3    H2 9580   3.435   5.971   6.299
 3213TIP3   OH2 9581   7.889   2.409   4.550
 3213TIP3    H1 9582   7.962   2.420   4.489
 3213TIP3    H2 9583   7.816   2.381   4.494
 3214TIP3   OH2 9584   3.365   0.601   0.121
 3214TIP3    H1 9585   3.337   0.519   0.163
 3214TIP3    H2 9586   3.414   0.573   0.043
 3215TIP3   OH2 9587   6.725   6.188   5.219
 3215TIP3    H1 9588   6.732   6.097   5.191
 3215TIP3    H2 9589   6.804   6.230   5.186
 3216TIP3   OH2 9590   2.323   5.822   5.324
 3216TIP3    H1 9591   2.240   5.812   5.370
 3216TIP3    H2 9592   2.303   5.882   5.252
 3217TIP3   OH2 9593   6.121   1.538   0.035
 3217TIP3    H1 9594   6.041   1.487   0.049
 3217TIP3    H2 9595   6.144   1.571   0.122
 3218TIP3   OH2 9596   5.318   0.670   6.478
 3218TIP3    H1 9597   5.285   0.592   6.522
 3218TIP3    H2 9598   5.412   0.653   6.467
 3219TIP3   OH2 9599   2.554   6.209   0.588
 3219TIP3    H1 9600   2.514   6.264   0.656
 3219TIP3    H2 9601   2.624   6.161   0.633
 3220TIP3   OH2 9602   3.850   1.896   0.630
 3220TIP3    H1 9603   3.860   1.806   0.598
 3220TIP3    H2 9604   3.865   1.889   0.725
 3221TIP3   OH2 9605   2.982   4.655   2.848
 3221TIP3    H1 9606   3.057   4.616   2.802
 3221TIP3    H2 9607   3.020   4.727   2.898
 3222TIP3   OH2 9608   2.468   1.084   1.638
 3222TIP3    H1 9609   2.424   1.002   1.614
 3222TIP3    H2 9610   2.560   1.060   1.646
 3223TIP3   OH2 9611   1.296   2.592   6.264
 3223TIP3    H1 9612   1.201   2.601   6.255
 3223TIP3    H2 9613   1.310   2.499   6.280
 3224TIP3   OH2 9614   8.040   0.487   6.125
 3224TIP3    H1 9615   7.976   0.549   6.160
 3224TIP3    H2 9616   8.109   0.542   6.088
 3225TIP3   OH2 9617   7.321   2.366   1.900
 3225TIP3    H1 9618   7.232   2.396   1.883
 3225TIP3    H2 9619   7.377   2.437   1.868
 3226TIP3   OH2 9620   3.600   0.706   0.544
 3226TIP3    H1 9621   3.613   0.682   0.636
 3226TIP3    H2 9622   3.563   0.627   0.504
 3227TIP3   OH2 9623   0.244   7.635   2.425
 3227TIP3    H1 9624   0.334   7.652   2.450
 3227TIP3    H2 9625   0.223   7.550   2.464
 3228TIP3   OH2 9626   8.174   0.897   1.551
 3228TIP3    H1 9627   8.259   0.924   1.585
 3228TIP3    H2 9628   8.112   0.923   1.618
 3229TIP3   OH2 9629   3.566   6.577   1.661
 3229TIP3    H1 9630   3.512   6.551   1.587
 3229TIP3    H2 9631   3.596   6.495   1.699
 3230TIP3   OH2 9632   6.583   7.723   2.511
 3230TIP3    H1 9633   6.658   7.780   2.524
 3230TIP3    H2 9634   6.546   7.751   2.427
 3231TIP3   OH2 9635   7.583   0.121   1.689
 3231TIP3    H1 9636   7.529   0.181   1.741
 3231TIP3    H2 9637   7.538   0.115   1.605
 3232TIP3   OH2 9638   2.643   4.541   3.957
 3232TIP3    H1 9639   2.727   4.537   4.002
 3232TIP3    H2 9640   2.602   4.456   3.972
 3233TIP3   OH2 9641   6.793   5.134   4.601
 3233TIP3    H1 9642   6.830   5.146   4.688
 3233TIP3    H2 9643   6.862   5.090   4.552
 3234TIP3   OH2 9644   1.763   0.660   0.450
 3234TIP3    H1 9645   1.671   0.679   0.429
 3234TIP3    H2 9646   1.765   0.657   0.545
 3235TIP3   OH2 9647   2.864   2.988   2.501
 3235TIP3    H1 9648   2.888   3.073   2.538
 3235TIP3    H2 9649   2.942   2.934   2.515
 3236TIP3   OH2 9650   3.870   4.903   4.280
 3236TIP3    H1 9651   3.960   4.903   4.248
 3236TIP3    H2 9652   3.827   4.974   4.233
 3237TIP3   OH2 9653   0.923   0.001   2.885
 3237TIP3    H1 9654   0.916   0.093   2.859
 3237TIP3    H2 9655   1.017  -0.018   2.878
 3238TIP3   OH2 9656   1.072   7.298   3.174
 3238TIP3    H1 9657   0.994   7.243   3.176
 3238TIP3    H2 9658   1.103   7.300   3.264
 3239TIP3   OH2 9659   1.341   0.067   3.571
 3239TIP3    H1 9660   1.285   0.034   3.501
 3239TIP3    H2 9661   1.335   0.000   3.640
 3240TIP3   OH2 9662   4.518   4.872   5.807
 3240TIP3    H1 9663   4.608   4.887   5.836
 3240TIP3    H2 9664   4.511   4.919   5.724
 3241TIP3   OH2 9665   2.672   5.396   2.808
 3241TIP3    H1 9666   2.720   5.335   2.864
 3241TIP3    H2 9667   2.725   5.475   2.809
 3242TIP3   OH2 9668   3.561   4.060   3.920
 3242TIP3    H1 9669   3.544   4.132   3.981
 3242TIP3    H2 9670   3.475   4.026   3.898
 3243TIP3   OH2 9671   3.308   1.002   3.408
 3243TIP3    H1 9672   3.402   1.015   3.424
 3243TIP3    H2 9673   3.267   1.013   3.494
 3244TIP3   OH2 9674   5.517   2.946   3.357
 3244TIP3    H1 9675   5.447   2.923   3.419
 3244TIP3    H2 9676   5.526   3.041   3.365
 3245TIP3   OH2 9677   4.214   5.555   2.045
 3245TIP3    H1 9678   4.241   5.503   1.969
 3245TIP3    H2 9679   4.129   5.519   2.069
 3246TIP3   OH2 9680   1.452   6.189   4.502
 3246TIP3    H1 9681   1.537   6.181   4.546
 3246TIP3    H2 9682   1.437   6.283   4.495
 3247TIP3   OH2 9683   7.802   4.147   0.226
 3247TIP3    H1 9684   7.738   4.082   0.255
 3247TIP3    H2 9685   7.751   4.212   0.178
 3248TIP3   OH2 9686   7.917   5.337   5.295
 3248TIP3    H1 9687   7.826   5.329   5.322
 3248TIP3    H2 9688   7.937   5.430   5.307
 3249TIP3   OH2 9689   4.974   5.538   4.695
 3249TIP3    H1 9690   5.035   5.600   4.735
 3249TIP3    H2 9691   5.028   5.479   4.644
 3250TIP3   OH2 9692   3.449   6.892   4.350
 3250TIP3    H1 9693   3.379   6.879   4.414
 3250TIP3    H2 9694   3.499   6.966   4.384
 3251TIP3   OH2 9695   4.577   6.125   1.501
 3251TIP3    H1 9696   4.605   6.167   1.582
 3251TIP3    H2 9697   4.578   6.031   1.520
 3252TIP3   OH2 9698   2.242   2.265   4.884
 3252TIP3    H1 9699   2.305   2.246   4.814
 3252TIP3    H2 9700   2.289   2.247   4.965
 3253TIP3   OH2 9701   3.091   3.889   3.181
 3253TIP3    H1 9702   3.039   3.955   3.135
 3253TIP3    H2 9703   3.070   3.903   3.274
 3254TIP3   OH2 9704   3.604   5.289   1.998
 3254TIP3    H1 9705   3.560   5.225   2.054
 3254TIP3    H2 9706   3.671   5.237   1.952
 3255TIP3   OH2 9707   1.063   0.318   1.399
 3255TIP3    H1 9708   1.112   0.334   1.318
 3255TIP3    H2 9709   1.107   0.242   1.439
 3256TIP3   OH2 9710   5.783   5.397   3.534
 3256TIP3    H1 9711   5.837   5.328   3.494
 3256TIP3    H2 9712   5.843   5.470   3.547
 3257TIP3   OH2 9713   2.087   6.342   1.965
 3257TIP3    H1 9714   2.131   6.409   1.912
 3257TIP3    H2 9715   2.128   6.349   2.051
 3258TIP3   OH2 9716   1.815   5.237   1.902
 3258TIP3    H1 9717   1.735   5.262   1.948
 3258TIP3    H2 9718   1.878   5.219   1.973
 3259TIP3   OH2 9719   2.080   3.505   3.196
 3259TIP3    H1 9720   1.985   3.492   3.200
 3259TIP3    H2 9721   2.106   3.515   3.287
 3260TIP3   OH2 9722   4.648   5.605   3.937
 3260TIP3    H1 9723   4.704   5.621   4.013
 3260TIP3    H2 9724   4.705   5.617   3.862
 3261TIP3   OH2 9725   4.499   2.234   4.736
 3261TIP3    H1 9726   4.533   2.150   4.706
 3261TIP3    H2 9727   4.571   2.272   4.785
 3262TIP3   OH2 9728   1.727   3.125   5.694
 3262TIP3    H1 9729   1.741   3.033   5.672
 3262TIP3    H2 9730   1.647   3.124   5.747
 3263TIP3   OH2 9731   7.836   6.367   2.699
 3263TIP3    H1 9732   7.759   6.417   2.726
 3263TIP3    H2 9733   7.832   6.287   2.751
 3264TIP3   OH2 9734   6.763   6.509   3.755
 3264TIP3    H1 9735   6.795   6.432   3.803
 3264TIP3    H2 9736   6.838   6.569   3.755
 3265TIP3   OH2 9737   3.231   5.866   5.976
 3265TIP3    H1 9738   3.140   5.877   5.948
 3265TIP3    H2 9739   3.230   5.883   6.070
 3266TIP3   OH2 9740   3.165   2.729   5.974
 3266TIP3    H1 9741   3.179   2.820   6.002
 3266TIP3    H2 9742   3.176   2.678   6.054
 3267TIP3   OH2 9743   7.246   3.028   6.720
 3267TIP3    H1 9744   7.154   3.048   6.706
 3267TIP3    H2 9745   7.288   3.114   6.726
 3268TIP3   OH2 9746   3.675   4.355   3.609
 3268TIP3    H1 9747   3.765   4.366   3.638
 3268TIP3    H2 9748   3.628   4.329   3.689
 3269TIP3   OH2 9749   6.096   0.377   3.516
 3269TIP3    H1 9750   6.118   0.374   3.422
 3269TIP3    H2 9751   6.131   0.460   3.546
 3270TIP3   OH2 9752   0.679   0.998   5.753
 3270TIP3    H1 9753   0.737   1.071   5.730
 3270TIP3    H2 9754   0.620   1.034   5.819
 3271TIP3   OH2 9755   6.598   4.042   1.678
 3271TIP3    H1 9756   6.660   4.082   1.617
 3271TIP3    H2 9757   6.596   3.950   1.653
 3272TIP3   OH2 9758   1.505   0.288   3.528
 3272TIP3    H1 9759   1.543   0.296   3.440
 3272TIP3    H2 9760   1.473   0.198   3.532
 3273TIP3   OH2 9761   5.889   3.708   5.807
 3273TIP3    H1 9762   5.937   3.626   5.819
 3273TIP3    H2 9763   5.879   3.717   5.713
 3274TIP3   OH2 9764   7.487   6.463   2.686
 3274TIP3    H1 9765   7.497   6.465   2.782
 3274TIP3    H2 9766   7.549   6.528   2.654
 3275TIP3   OH2 9767   7.645   2.011   6.070
 3275TIP3    H1 9768   7.672   1.932   6.116
 3275TIP3    H2 9769   7.642   2.079   6.138
 3276TIP3   OH2 9770   5.127   7.107   4.045
 3276TIP3    H1 9771   5.069   7.160   3.991
 3276TIP3    H2 9772   5.129   7.021   4.001
 3277TIP3   OH2 9773   2.480   2.870   3.225
 3277TIP3    H1 9774   2.443   2.788   3.256
 3277TIP3    H2 9775   2.445   2.880   3.136
 3278TIP3   OH2 9776   3.874   1.440   2.063
 3278TIP3    H1 9777   3.883   1.535   2.064
 3278TIP3    H2 9778   3.881   1.415   1.971
 3279TIP3   OH2 9779   0.067   1.352   4.746
 3279TIP3    H1 9780   0.008   1.426   4.733
 3279TIP3    H2 9781   0.076   1.312   4.659
 3280TIP3   OH2 9782   6.400   3.399   2.496
 3280TIP3    H1 9783   6.479   3.358   2.461
 3280TIP3    H2 9784   6.368   3.455   2.425
 3281TIP3   OH2 9785   4.707   5.976   5.816
 3281TIP3    H1 9786   4.633   5.919   5.836
 3281TIP3    H2 9787   4.776   5.917   5.785
 3282TIP3   OH2 9788   3.327   3.313   5.053
 3282TIP3    H1 9789   3.309   3.401   5.086
 3282TIP3    H2 9790   3.293   3.314   4.963
 3283TIP3   OH2 9791   1.172   7.356   3.400
 3283TIP3    H1 9792   1.265   7.359   3.381
 3283TIP3    H2 9793   1.167   7.346   3.495
 3284TIP3   OH2 9794   2.253   2.587   5.991
 3284TIP3    H1 9795   2.276   2.679   5.985
 3284TIP3    H2 9796   2.158   2.585   5.996
 3285TIP3   OH2 9797   2.443   7.158   6.569
 3285TIP3    H1 9798   2.369   7.200   6.613
 3285TIP3    H2 9799   2.515   7.167   6.630
 3286TIP3   OH2 9800   4.388   6.937   6.022
 3286TIP3    H1 9801   4.459   6.930   5.957
 3286TIP3    H2 9802   4.412   7.013   6.075
 3287TIP3   OH2 9803   2.240   2.433   3.892
 3287TIP3    H1 9804   2.233   2.516   3.939
 3287TIP3    H2 9805   2.266   2.370   3.959
 3288TIP3   OH2 9806   0.984   5.643   0.621
 3288TIP3    H1 9807   0.975   5.593   0.540
 3288TIP3    H2 9808   0.942   5.727   0.601
 3289TIP3   OH2 9809   5.451   0.977   4.901
 3289TIP3    H1 9810   5.442   1.058   4.952
 3289TIP3    H2 9811   5.514   0.925   4.949
 3290TIP3   OH2 9812   4.023   2.659   5.106
 3290TIP3    H1 9813   4.096   2.721   5.108
 3290TIP3    H2 9814   3.950   2.708   5.144
 3291TIP3   OH2 9815   7.711   2.283   4.386
 3291TIP3    H1 9816   7.764   2.302   4.309
 3291TIP3    H2 9817   7.693   2.190   4.380
 3292TIP3   OH2 9818   5.921   2.634   4.601
 3292TIP3    H1 9819   5.996   2.577   4.617
 3292TIP3    H2 9820   5.959   2.722   4.594
 3293TIP3   OH2 9821   4.403   4.926   1.434
 3293TIP3    H1 9822   4.396   4.831   1.425
 3293TIP3    H2 9823   4.314   4.958   1.419
 3294TIP3   OH2 9824   7.474   5.086   5.505
 3294TIP3    H1 9825   7.474   4.991   5.515
 3294TIP3    H2 9826   7.461   5.100   5.411
 3295TIP3   OH2 9827   3.620   4.606   3.992
 3295TIP3    H1 9828   3.601   4.634   4.082
 3295TIP3    H2 9829   3.629   4.688   3.943
 3296TIP3   OH2 9830   7.156   3.466   4.014
 3296TIP3    H1 9831   7.179   3.414   4.091
 3296TIP3    H2 9832   7.232   3.457   3.956
 3297TIP3   OH2 9833   5.133   3.398   4.509
 3297TIP3    H1 9834   5.115   3.305   4.495
 3297TIP3    H2 9835   5.203   3.400   4.573
 3298TIP3   OH2 9836   3.402   5.557   5.368
 3298TIP3    H1 9837   3.479   5.611   5.351
 3298TIP3    H2 9838   3.408   5.535   5.461
 3299TIP3   OH2 9839   6.591   2.761   3.444
 3299TIP3    H1 9840   6.649   2.769   3.368
 3299TIP3    H2 9841   6.554   2.673   3.436
 3300TIP3   OH2 9842   4.699   3.136   5.617
 3300TIP3    H1 9843   4.617   3.168   5.653
 3300TIP3    H2 9844   4.692   3.151   5.523
 3301TIP3   OH2 9845   5.188   0.296   2.828
 3301TIP3    H1 9846   5.270   0.341   2.807
 3301TIP3    H2 9847   5.174   0.313   2.921
 3302TIP3   OH2 9848   0.512   5.081   2.173
 3302TIP3    H1 9849   0.475   4.994   2.189
 3302TIP3    H2 9850   0.566   5.099   2.250
 3303TIP3   OH2 9851   2.068   4.078   0.542
 3303TIP3    H1 9852   2.139   4.081   0.606
 3303TIP3    H2 9853   2.037   4.169   0.537
 3304TIP3   OH2 9854   6.904   6.793   2.575
 3304TIP3    H1 9855   6.922   6.712   2.622
 3304TIP3    H2 9856   6.920   6.862   2.639
 3305TIP3   OH2 9857   4.797   7.009   3.825
 3305TIP3    H1 9858   4.846   7.013   3.743
 3305TIP3    H2 9859   4.830   7.083   3.876
 3306TIP3   OH2 9860   7.841   2.325   3.285
 3306TIP3    H1 9861   7.810   2.295   3.370
 3306TIP3    H2 9862   7.908   2.390   3.305
 3307TIP3   OH2 9863   3.737   0.575   3.095
 3307TIP3    H1 9864   3.717   0.500   3.039
 3307TIP3    H2 9865   3.794   0.539   3.163
 3308TIP3   OH2 9866   7.764   0.677   4.622
 3308TIP3    H1 9867   7.711   0.687   4.701
 3308TIP3    H2 9868   7.721   0.607   4.573
 3309TIP3   OH2 9869   6.756   2.038   0.997
 3309TIP3    H1 9870   6.819   1.968   1.010
 3309TIP3    H2 9871   6.762   2.059   0.904
 3310TIP3   OH2 9872   6.519   3.647   4.546
 3310TIP3    H1 9873   6.549   3.731   4.513
 3310TIP3    H2 9874   6.441   3.667   4.599
 3311TIP3   OH2 9875   4.968   2.175   3.120
 3311TIP3    H1 9876   5.027   2.122   3.068
 3311TIP3    H2 9877   4.949   2.251   3.065
 3312TIP3   OH2 9878   6.028   4.971   4.995
 3312TIP3    H1 9879   5.952   5.020   4.962
 3312TIP3    H2 9880   6.058   4.920   4.920
 3313TIP3   OH2 9881   6.279   2.061   3.930
 3313TIP3    H1 9882   6.240   2.126   3.872
 3313TIP3    H2 9883   6.363   2.039   3.889
 3314TIP3   OH2 9884   3.230   3.546   2.891
 3314TIP3    H1 9885   3.223   3.564   2.985
 3314TIP3    H2 9886   3.148   3.501   2.869
 3315TIP3   OH2 9887   1.362   1.292   2.084
 3315TIP3    H1 9888   1.404   1.282   1.999
 3315TIP3    H2 9889   1.419   1.245   2.144
 3316TIP3   OH2 9890   7.092   7.681   3.522
 3316TIP3    H1 9891   7.036   7.634   3.460
 3316TIP3    H2 9892   7.082   7.773   3.497
 3317TIP3   OH2 9893   3.641   0.303   1.498
 3317TIP3    H1 9894   3.606   0.357   1.426
 3317TIP3    H2 9895   3.669   0.222   1.455
 3318TIP3   OH2 9896   4.440   3.586   2.169
 3318TIP3    H1 9897   4.347   3.563   2.169
 3318TIP3    H2 9898   4.456   3.616   2.258
 3319TIP3   OH2 9899   7.149   6.151   0.915
 3319TIP3    H1 9900   7.179   6.213   0.849
 3319TIP3    H2 9901   7.062   6.183   0.940
 3320TIP3   OH2 9902   6.224   0.090   0.669
 3320TIP3    H1 9903   6.164   0.020   0.644
 3320TIP3    H2 9904   6.168   0.164   0.688
 3321TIP3   OH2 9905   4.176   6.753   1.877
 3321TIP3    H1 9906   4.110   6.732   1.811
 3321TIP3    H2 9907   4.189   6.847   1.868
 3322TIP3   OH2 9908   3.034   2.735   0.338
 3322TIP3    H1 9909   3.065   2.738   0.429
 3322TIP3    H2 9910   3.071   2.814   0.298
 3323TIP3   OH2 9911   3.138   2.245   5.873
 3323TIP3    H1 9912   3.123   2.327   5.827
 3323TIP3    H2 9913   3.059   2.193   5.856
 3324TIP3   OH2 9914   6.482   7.367   3.011
 3324TIP3    H1 9915   6.559   7.326   2.972
 3324TIP3    H2 9916   6.457   7.436   2.949
 3325TIP3   OH2 9917   0.045   2.474   0.756
 3325TIP3    H1 9918   0.062   2.380   0.763
 3325TIP3    H2 9919   0.132   2.514   0.758
 3326TIP3   OH2 9920   1.004   6.745   5.506
 3326TIP3    H1 9921   0.947   6.693   5.449
 3326TIP3    H2 9922   1.047   6.680   5.562
 3327TIP3   OH2 9923   3.617   6.855   5.573
 3327TIP3    H1 9924   3.688   6.894   5.523
 3327TIP3    H2 9925   3.539   6.906   5.548
 3328TIP3   OH2 9926   2.035   1.387   6.010
 3328TIP3    H1 9927   2.091   1.348   6.078
 3328TIP3    H2 9928   2.075   1.360   5.928
 3329TIP3   OH2 9929   1.439   2.616   2.045
 3329TIP3    H1 9930   1.399   2.562   2.113
 3329TIP3    H2 9931   1.383   2.603   1.968
 3330TIP3   OH2 9932   4.389   4.386   2.897
 3330TIP3    H1 9933   4.329   4.366   2.825
 3330TIP3    H2 9934   4.453   4.315   2.895
 3331TIP3   OH2 9935   2.014   5.015   5.371
 3331TIP3    H1 9936   1.929   5.040   5.408
 3331TIP3    H2 9937   2.005   5.033   5.278
 3332TIP3   OH2 9938   6.370   5.055   3.753
 3332TIP3    H1 9939   6.395   5.127   3.695
 3332TIP3    H2 9940   6.317   5.097   3.821
 3333TIP3   OH2 9941   7.585   1.387   5.974
 3333TIP3    H1 9942   7.550   1.349   5.894
 3333TIP3    H2 9943   7.673   1.417   5.949
 3334TIP3   OH2 9944   8.096   1.481   3.595
 3334TIP3    H1 9945   8.037   1.502   3.522
 3334TIP3    H2 9946   8.178   1.526   3.573
 3335TIP3   OH2 9947   0.421   0.500   4.131
 3335TIP3    H1 9948   0.462   0.445   4.196
 3335TIP3    H2 9949   0.488   0.512   4.063
 3336TIP3   OH2 9950   7.245   7.233   1.995
 3336TIP3    H1 9951   7.279   7.150   1.962
 3336TIP3    H2 9952   7.149   7.221   1.995
 3337TIP3   OH2 9953   5.240   4.756   1.993
 3337TIP3    H1 9954   5.145   4.748   1.985
 3337TIP3    H2 9955   5.273   4.667   1.981
 3338TIP3   OH2 9956   1.201   5.570   3.841
 3338TIP3    H1 9957   1.277   5.569   3.899
 3338TIP3    H2 9958   1.181   5.663   3.831
 3339TIP3   OH2 9959   8.017   7.794   5.746
 3339TIP3    H1 9960   7.998   7.850   5.671
 3339TIP3    H2 9961   8.071   7.848   5.804
 3340TIP3   OH2 9962   8.155   5.737   4.432
 3340TIP3    H1 9963   8.204   5.693   4.362
 3340TIP3    H2 9964   8.069   5.695   4.431
 3341TIP3   OH2 9965   3.227   4.555   4.517
 3341TIP3    H1 9966   3.242   4.649   4.513
 3341TIP3    H2 9967   3.304   4.519   4.560
 3342TIP3   OH2 9968   7.204   2.053   5.767
 3342TIP3    H1 9969   7.249   2.012   5.693
 3342TIP3    H2 9970   7.113   2.023   5.760
 3343TIP3   OH2 9971   3.352   3.280   2.766
 3343TIP3    H1 9972   3.371   3.211   2.830
 3343TIP3    H2 9973   3.325   3.355   2.819
 3344TIP3   OH2 9974   2.874   2.549   5.623
 3344TIP3    H1 9975   2.785   2.525   5.649
 3344TIP3    H2 9976   2.872   2.644   5.615
 3345TIP3   OH2 9977   3.677   5.720   1.245
 3345TIP3    H1 9978   3.659   5.643   1.190
 3345TIP3    H2 9979   3.758   5.756   1.210
 3346TIP3   OH2 9980   5.704   5.824   2.275
 3346TIP3    H1 9981   5.624   5.796   2.231
 3346TIP3    H2 9982   5.717   5.759   2.344
 3347TIP3   OH2 9983   3.604   6.043   0.119
 3347TIP3    H1 9984   3.511   6.026   0.106
 3347TIP3    H2 9985   3.623   6.114   0.057
 3348TIP3   OH2 9986   5.410   0.755   0.228
 3348TIP3    H1 9987   5.505   0.769   0.233
 3348TIP3    H2 9988   5.400   0.663   0.207
 3349TIP3   OH2 9989   4.258   6.019   5.440
 3349TIP3    H1 9990   4.279   5.927   5.460
 3349TIP3    H2 9991   4.331   6.068   5.478
 3350TIP3   OH2 9992   2.218   6.720   5.291
 3350TIP3    H1 9993   2.155   6.732   5.363
 3350TIP3    H2 9994   2.255   6.807   5.277
 3351TIP3   OH2 9995   0.555   1.542   0.576
 3351TIP3    H1 9996   0.511   1.627   0.583
 3351TIP3    H2 9997   0.602   1.547   0.493
 3352TIP3   OH2 9998   2.637   6.962   4.823
 3352TIP3    H1 9999   2.580   6.910   4.766
 3352TIP3    H210000   2.588   6.970   4.905
 3353TIP3   OH210001   2.427   0.666   5.350
 3353TIP3    H110002   2.426   0.626   5.263
 3353TIP3    H210003   2.433   0.760   5.332
 3354TIP3   OH210004   0.518   2.457   1.332
 3354TIP3    H110005   0.534   2.468   1.238
 3354TIP3    H210006   0.605   2.440   1.369
 3355TIP3   OH210007   1.315   5.128   4.643
 3355TIP3    H110008   1.373   5.201   4.621
 3355TIP3    H210009   1.230   5.153   4.609
 3356TIP3   OH210010   7.192   6.483   2.154
 3356TIP3    H110011   7.254   6.411   2.146
 3356TIP3    H210012   7.114   6.443   2.193
 3357TIP3   OH210013   0.256   2.263   0.794
 3357TIP3    H110014   0.306   2.336   0.759
 3357TIP3    H210015   0.220   2.219   0.716
 3358TIP3   OH210016   8.243   3.881   2.367
 3358TIP3    H110017   8.306   3.949   2.394
 3358TIP3    H210018   8.177   3.881   2.436
 3359TIP3   OH210019   0.837   3.989   0.697
 3359TIP3    H110020   0.864   3.902   0.726
 3359TIP3    H210021   0.843   4.043   0.776
 3360TIP3   OH210022   5.901   1.493   5.469
 3360TIP3    H110023   5.865   1.556   5.406
 3360TIP3    H210024   5.990   1.475   5.436
 3361TIP3   OH210025   7.125   3.780   0.088
 3361TIP3    H110026   7.196   3.822   0.038
 3361TIP3    H210027   7.163   3.764   0.174
 3362TIP3   OH210028   4.812   4.551   5.707
 3362TIP3    H110029   4.740   4.517   5.654
 3362TIP3    H210030   4.891   4.530   5.657
 3363TIP3   OH210031   2.554   4.757   4.820
 3363TIP3    H110032   2.538   4.833   4.764
 3363TIP3    H210033   2.470   4.739   4.861
 3364TIP3   OH210034   3.224   2.006   1.608
 3364TIP3    H110035   3.157   2.064   1.573
 3364TIP3    H210036   3.180   1.957   1.677
 3365TIP3   OH210037   5.058   4.101   3.491
 3365TIP3    H110038   5.001   4.039   3.446
 3365TIP3    H210039   5.077   4.168   3.425
 3366TIP3   OH210040   5.288   5.957   6.147
 3366TIP3    H110041   5.284   6.018   6.073
 3366TIP3    H210042   5.225   5.888   6.124
 3367TIP3   OH210043   6.235   7.746   4.997
 3367TIP3    H110044   6.295   7.704   5.058
 3367TIP3    H210045   6.266   7.837   4.990
 3368TIP3   OH210046   5.141   4.782   4.894
 3368TIP3    H110047   5.049   4.762   4.907
 3368TIP3    H210048   5.183   4.763   4.978
 3369TIP3   OH210049   4.978   4.427   1.288
 3369TIP3    H110050   5.061   4.428   1.335
 3369TIP3    H210051   4.929   4.355   1.328
 3370TIP3   OH210052   3.963   5.453   2.278
 3370TIP3    H110053   4.000   5.517   2.339
 3370TIP3    H210054   3.963   5.371   2.327
 3371TIP3   OH210055   5.576   4.672   1.903
 3371TIP3    H110056   5.577   4.734   1.976
 3371TIP3    H210057   5.553   4.725   1.827
 3372TIP3   OH210058   6.554   2.433   1.257
 3372TIP3    H110059   6.528   2.381   1.181
 3372TIP3    H210060   6.645   2.407   1.274
 3373TIP3   OH210061   7.485   1.388   6.654
 3373TIP3    H110062   7.572   1.374   6.693
 3373TIP3    H210063   7.434   1.312   6.680
 3374TIP3   OH210064   3.393   2.102   3.827
 3374TIP3    H110065   3.388   2.012   3.861
 3374TIP3    H210066   3.403   2.156   3.905
 3375TIP3   OH210067   1.485   1.293   0.925
 3375TIP3    H110068   1.394   1.272   0.948
 3375TIP3    H210069   1.484   1.303   0.830
 3376TIP3   OH210070   6.681   6.728   0.541
 3376TIP3    H110071   6.696   6.636   0.563
 3376TIP3    H210072   6.756   6.774   0.579
 3377TIP3   OH210073   6.762   5.968   0.273
 3377TIP3    H110074   6.673   5.937   0.292
 3377TIP3    H210075   6.797   5.906   0.209
 3378TIP3   OH210076   7.823   0.760   0.861
 3378TIP3    H110077   7.796   0.752   0.769
 3378TIP3    H210078   7.917   0.743   0.860
 3379TIP3   OH210079   4.776   4.034   1.878
 3379TIP3    H110080   4.762   4.114   1.828
 3379TIP3    H210081   4.725   4.046   1.958
 3380TIP3   OH210082   7.932   3.677   2.605
 3380TIP3    H110083   8.005   3.698   2.663
 3380TIP3    H210084   7.864   3.643   2.663
 3381TIP3   OH210085   6.663   3.071   1.630
 3381TIP3    H110086   6.745   3.043   1.671
 3381TIP3    H210087   6.680   3.065   1.536
 3382TIP3   OH210088   3.375   4.510   0.712
 3382TIP3    H110089   3.435   4.453   0.759
 3382TIP3    H210090   3.314   4.542   0.779
 3383TIP3   OH210091   6.365   0.704   5.459
 3383TIP3    H110092   6.458   0.692   5.443
 3383TIP3    H210093   6.359   0.732   5.551
 3384TIP3   OH210094   0.958   1.664   0.578
 3384TIP3    H110095   0.916   1.643   0.661
 3384TIP3    H210096   1.039   1.709   0.603
 3385TIP3   OH210097   1.192   7.669   5.794
 3385TIP3    H110098   1.252   7.744   5.788
 3385TIP3    H210099   1.122   7.689   5.732
 3386TIP3   OH210100   2.971   1.310   2.497
 3386TIP3    H110101   3.026   1.348   2.428
 3386TIP3    H210102   2.954   1.383   2.557
 3387TIP3   OH210103   6.968   4.356   5.713
 3387TIP3    H110104   7.059   4.384   5.703
 3387TIP3    H210105   6.935   4.410   5.785
 3388TIP3   OH210106   1.538   1.760   2.796
 3388TIP3    H110107   1.448   1.781   2.818
 3388TIP3    H210108   1.590   1.825   2.843
 3389TIP3   OH210109   5.944   0.727   3.317
 3389TIP3    H110110   5.923   0.718   3.410
 3389TIP3    H210111   5.981   0.815   3.310
 3390TIP3   OH210112   0.696   1.773   4.045
 3390TIP3    H110113   0.714   1.820   4.127
 3390TIP3    H210114   0.758   1.811   3.982
 3391TIP3   OH210115   5.468   0.130   5.736
 3391TIP3    H110116   5.403   0.198   5.725
 3391TIP3    H210117   5.552   0.173   5.718
 3392TIP3   OH210118   5.499   7.428   0.195
 3392TIP3    H110119   5.561   7.448   0.265
 3392TIP3    H210120   5.445   7.507   0.188
 3393TIP3   OH210121   4.017   0.702   6.576
 3393TIP3    H110122   4.015   0.755   6.497
 3393TIP3    H210123   4.077   0.748   6.635
 3394TIP3   OH210124   7.590   1.233   3.544
 3394TIP3    H110125   7.536   1.309   3.565
 3394TIP3    H210126   7.628   1.253   3.458
 3395TIP3   OH210127   5.940   5.641   3.488
 3395TIP3    H110128   5.959   5.641   3.394
 3395TIP3    H210129   5.876   5.711   3.499
 3396TIP3   OH210130   5.701   7.412   1.361
 3396TIP3    H110131   5.737   7.479   1.302
 3396TIP3    H210132   5.725   7.329   1.321
 3397TIP3   OH210133   6.426   3.372   1.156
 3397TIP3    H110134   6.420   3.280   1.180
 3397TIP3    H210135   6.480   3.411   1.225
 3398TIP3   OH210136   3.852   5.820   4.147
 3398TIP3    H110137   3.813   5.765   4.215
 3398TIP3    H210138   3.882   5.758   4.080
 3399TIP3   OH210139   1.543   6.119   3.511
 3399TIP3    H110140   1.501   6.078   3.436
 3399TIP3    H210141   1.637   6.108   3.495
 3400TIP3   OH210142   8.282   5.128   5.566
 3400TIP3    H110143   8.295   5.080   5.484
 3400TIP3    H210144   8.191   5.156   5.563
 3401TIP3   OH210145   5.811   4.740   5.797
 3401TIP3    H110146   5.864   4.661   5.795
 3401TIP3    H210147   5.841   4.792   5.723
 3402TIP3   OH210148   5.404   1.958   1.819
 3402TIP3    H110149   5.312   1.951   1.846
 3402TIP3    H210150   5.400   1.967   1.724
 3403TIP3   OH210151   0.436   0.685   4.717
 3403TIP3    H110152   0.351   0.693   4.676
 3403TIP3    H210153   0.419   0.701   4.810
 3404TIP3   OH210154   7.509   4.794   2.114
 3404TIP3    H110155   7.482   4.746   2.192
 3404TIP3    H210156   7.485   4.738   2.040
 3405TIP3   OH210157   5.380   5.943   4.944
 3405TIP3    H110158   5.331   5.949   4.862
 3405TIP3    H210159   5.432   5.862   4.935
 3406TIP3   OH210160   6.931   5.192   6.267
 3406TIP3    H110161   7.001   5.258   6.271
 3406TIP3    H210162   6.969   5.121   6.216
 3407TIP3   OH210163   3.359   5.042   5.812
 3407TIP3    H110164   3.381   5.123   5.858
 3407TIP3    H210165   3.277   5.013   5.852
 3408TIP3   OH210166   1.503   3.737   2.522
 3408TIP3    H110167   1.529   3.818   2.568
 3408TIP3    H210168   1.557   3.669   2.562
 3409TIP3   OH210169   3.865   0.099   0.771
 3409TIP3    H110170   3.807   0.032   0.809
 3409TIP3    H210171   3.807   0.174   0.756
 3410TIP3   OH210172   0.822   3.691   0.366
 3410TIP3    H110173   0.848   3.616   0.312
 3410TIP3    H210174   0.893   3.701   0.429
 3411TIP3   OH210175   6.583   2.233   6.144
 3411TIP3    H110176   6.517   2.279   6.093
 3411TIP3    H210177   6.560   2.141   6.136
 3412TIP3   OH210178   6.823   4.334   6.533
 3412TIP3    H110179   6.868   4.372   6.458
 3412TIP3    H210180   6.812   4.241   6.510
 3413TIP3   OH210181   3.908   1.015   2.044
 3413TIP3    H110182   3.981   1.048   1.991
 3413TIP3    H210183   3.930   1.042   2.133
 3414TIP3   OH210184   2.446   3.960   5.114
 3414TIP3    H110185   2.529   3.945   5.069
 3414TIP3    H210186   2.434   3.882   5.169
 3415TIP3   OH210187   4.670   7.434   0.031
 3415TIP3    H110188   4.717   7.516   0.045
 3415TIP3    H210189   4.619   7.449  -0.049
 3416TIP3   OH210190   4.792   4.582   1.160
 3416TIP3    H110191   4.859   4.537   1.212
 3416TIP3    H210192   4.718   4.592   1.221
 3417TIP3   OH210193   4.905   1.741   3.626
 3417TIP3    H110194   4.920   1.833   3.646
 3417TIP3    H210195   4.833   1.742   3.563
 3418TIP3   OH210196   7.168   5.345   3.659
 3418TIP3    H110197   7.189   5.438   3.653
 3418TIP3    H210198   7.100   5.332   3.593
 3419TIP3   OH210199   0.010   6.608   0.010
 3419TIP3    H110200   0.014   6.564   0.095
 3419TIP3    H210201  -0.059   6.561  -0.037
 3420TIP3   OH210202   4.686   7.119   2.280
 3420TIP3    H110203   4.685   7.208   2.244
 3420TIP3    H210204   4.723   7.065   2.211
 3421TIP3   OH210205   1.877   2.906   0.086
 3421TIP3    H110206   1.822   2.876   0.014
 3421TIP3    H210207   1.824   2.972   0.131
 3422TIP3   OH210208   0.783   7.392   2.496
 3422TIP3    H110209   0.876   7.399   2.517
 3422TIP3    H210210   0.781   7.351   2.410
 3423TIP3   OH210211   1.359   0.501   3.630
 3423TIP3    H110212   1.425   0.438   3.601
 3423TIP3    H210213   1.280   0.449   3.644
 3424TIP3   OH210214   2.421   7.267   3.109
 3424TIP3    H110215   2.344   7.307   3.070
 3424TIP3    H210216   2.436   7.188   3.057
 3425TIP3   OH210217   2.207   1.557   1.611
 3425TIP3    H110218   2.231   1.566   1.703
 3425TIP3    H210219   2.203   1.646   1.578
 3426TIP3   OH210220   5.406   3.991   5.432
 3426TIP3    H110221   5.408   4.038   5.515
 3426TIP3    H210222   5.326   4.021   5.389
 3427TIP3   OH210223   4.029   7.128   2.109
 3427TIP3    H110224   4.016   7.177   2.190
 3427TIP3    H210225   3.954   7.069   2.104
 3428TIP3   OH210226   8.195   1.812   2.505
 3428TIP3    H110227   8.161   1.865   2.433
 3428TIP3    H210228   8.283   1.847   2.521
 3429TIP3   OH210229   7.977   4.135   3.198
 3429TIP3    H110230   8.022   4.167   3.120
 3429TIP3    H210231   7.898   4.092   3.165
 3430TIP3   OH210232   5.470   2.147   5.695
 3430TIP3    H110233   5.546   2.189   5.734
 3430TIP3    H210234   5.403   2.151   5.763
 3431TIP3   OH210235   8.018   4.163   0.054
 3431TIP3    H110236   7.952   4.154   0.123
 3431TIP3    H210237   8.102   4.151   0.099
 3432TIP3   OH210238   4.332   6.407   4.900
 3432TIP3    H110239   4.265   6.442   4.960
 3432TIP3    H210240   4.301   6.318   4.880
 3433TIP3   OH210241   7.531   5.701   5.491
 3433TIP3    H110242   7.611   5.751   5.475
 3433TIP3    H210243   7.526   5.640   5.417
 3434TIP3   OH210244   2.008   5.363   0.273
 3434TIP3    H110245   2.022   5.355   0.367
 3434TIP3    H210246   2.037   5.279   0.237
 3435TIP3   OH210247   1.752   1.926   2.876
 3435TIP3    H110248   1.748   1.926   2.972
 3435TIP3    H210249   1.726   2.014   2.851
 3436TIP3   OH210250   4.605   6.399   2.965
 3436TIP3    H110251   4.674   6.411   2.899
 3436TIP3    H210252   4.546   6.473   2.952
 3437TIP3   OH210253   0.253   0.299   0.808
 3437TIP3    H110254   0.191   0.283   0.737
 3437TIP3    H210255   0.329   0.246   0.786
 3438TIP3   OH210256   2.240   2.998   1.024
 3438TIP3    H110257   2.256   3.066   0.958
 3438TIP3    H210258   2.265   3.038   1.107
 3439TIP3   OH210259   0.229   6.468   4.756
 3439TIP3    H110260   0.180   6.400   4.803
 3439TIP3    H210261   0.184   6.549   4.779
 3440TIP3   OH210262   6.796   7.121   1.472
 3440TIP3    H110263   6.857   7.073   1.415
 3440TIP3    H210264   6.852   7.180   1.522
 3441TIP3   OH210265   7.883   5.826   2.203
 3441TIP3    H110266   7.962   5.879   2.214
 3441TIP3    H210267   7.878   5.772   2.283
 3442TIP3   OH210268   0.722   0.369   6.635
 3442TIP3    H110269   0.689   0.285   6.666
 3442TIP3    H210270   0.806   0.380   6.679
 3443TIP3   OH210271   1.256   5.511   2.195
 3443TIP3    H110272   1.274   5.456   2.119
 3443TIP3    H210273   1.201   5.457   2.251
 3444TIP3   OH210274   1.940   3.622   0.995
 3444TIP3    H110275   1.896   3.579   1.068
 3444TIP3    H210276   2.011   3.562   0.971
 3445TIP3   OH210277   2.962   2.210   1.977
 3445TIP3    H110278   3.001   2.281   1.925
 3445TIP3    H210279   2.879   2.245   2.007
 3446TIP3   OH210280   7.261   7.451   5.585
 3446TIP3    H110281   7.325   7.476   5.518
 3446TIP3    H210282   7.176   7.475   5.547
 3447TIP3   OH210283   5.216   0.030   1.654
 3447TIP3    H110284   5.285   0.020   1.719
 3447TIP3    H210285   5.181   0.118   1.670
 3448TIP3   OH210286   7.039   2.275   3.197
 3448TIP3    H110287   6.943   2.279   3.198
 3448TIP3    H210288   7.066   2.363   3.171
 3449TIP3   OH210289   7.417   0.760   4.905
 3449TIP3    H110290   7.385   0.680   4.945
 3449TIP3    H210291   7.510   0.743   4.886
 3450TIP3   OH210292   3.725   2.303   2.521
 3450TIP3    H110293   3.750   2.326   2.431
 3450TIP3    H210294   3.647   2.249   2.511
 3451TIP3   OH210295   4.593   0.658   1.244
 3451TIP3    H110296   4.566   0.699   1.326
 3451TIP3    H210297   4.536   0.696   1.177
 3452TIP3   OH210298   3.884   3.343   3.608
 3452TIP3    H110299   3.808   3.339   3.550
 3452TIP3    H210300   3.874   3.427   3.654
 3453TIP3   OH210301   3.335   4.877   0.391
 3453TIP3    H110302   3.362   4.797   0.436
 3453TIP3    H210303   3.410   4.936   0.403
 3454TIP3   OH210304   4.493   5.336   3.989
 3454TIP3    H110305   4.487   5.314   3.896
 3454TIP3    H210306   4.530   5.424   3.991
 3455TIP3   OH210307   6.427   7.605   0.612
 3455TIP3    H110308   6.341   7.563   0.614
 3455TIP3    H210309   6.421   7.668   0.540
 3456TIP3   OH210310   3.014   1.948   6.329
 3456TIP3    H110311   3.080   1.928   6.262
 3456TIP3    H210312   3.037   1.891   6.402
 3457TIP3   OH210313   7.083   0.025   1.808
 3457TIP3    H110314   7.154  -0.037   1.791
 3457TIP3    H210315   7.111   0.105   1.764
 3458TIP3   OH210316   4.928   4.754   0.222
 3458TIP3    H110317   4.851   4.809   0.233
 3458TIP3    H210318   4.900   4.684   0.163
 3459TIP3   OH210319   6.546   1.699   4.959
 3459TIP3    H110320   6.533   1.756   4.883
 3459TIP3    H210321   6.466   1.647   4.963
 3460TIP3   OH210322   1.371   7.470   4.612
 3460TIP3    H110323   1.276   7.481   4.613
 3460TIP3    H210324   1.387   7.399   4.551
 3461TIP3   OH210325   4.865   3.432   2.331
 3461TIP3    H110326   4.932   3.369   2.304
 3461TIP3    H210327   4.795   3.379   2.369
 3462TIP3   OH210328   0.829   2.496   4.677
 3462TIP3    H110329   0.822   2.589   4.695
 3462TIP3    H210330   0.813   2.489   4.583
 3463TIP3   OH210331   3.275   0.904   2.554
 3463TIP3    H110332   3.284   0.887   2.648
 3463TIP3    H210333   3.351   0.957   2.532
 3464TIP3   OH210334   1.401   4.000   6.140
 3464TIP3    H110335   1.483   4.001   6.190
 3464TIP3    H210336   1.414   3.932   6.075
 3465TIP3   OH210337   2.893   2.136   4.522
 3465TIP3    H110338   2.839   2.191   4.465
 3465TIP3    H210339   2.835   2.064   4.547
 3466TIP3   OH210340   4.943   0.521   2.144
 3466TIP3    H110341   4.925   0.429   2.127
 3466TIP3    H210342   4.965   0.524   2.238
 3467TIP3   OH210343   7.694   3.014   5.095
 3467TIP3    H110344   7.656   3.060   5.021
 3467TIP3    H210345   7.746   2.944   5.056
 3468TIP3   OH210346   7.423   3.931   0.062
 3468TIP3    H110347   7.388   3.967   0.144
 3468TIP3    H210348   7.380   3.982  -0.006
 3469TIP3   OH210349   5.575   2.761   4.673
 3469TIP3    H110350   5.555   2.737   4.763
 3469TIP3    H210351   5.490   2.757   4.628
 3470TIP3   OH210352   6.790   0.666   4.778
 3470TIP3    H110353   6.794   0.643   4.871
 3470TIP3    H210354   6.863   0.618   4.739
 3471TIP3   OH210355   4.951   5.972   2.561
 3471TIP3    H110356   4.922   5.934   2.644
 3471TIP3    H210357   5.034   6.014   2.582
 3472TIP3   OH210358   6.115   7.611   5.407
 3472TIP3    H110359   6.033   7.576   5.373
 3472TIP3    H210360   6.183   7.561   5.363
 3473TIP3   OH210361   1.197   0.752   1.745
 3473TIP3    H110362   1.201   0.660   1.719
 3473TIP3    H210363   1.266   0.762   1.810
 3474TIP3   OH210364   1.494   1.134   2.258
 3474TIP3    H110365   1.571   1.078   2.245
 3474TIP3    H210366   1.452   1.099   2.336
 3475TIP3   OH210367   5.604   6.819   4.302
 3475TIP3    H110368   5.614   6.846   4.393
 3475TIP3    H210369   5.534   6.876   4.268
 3476TIP3   OH210370   0.483   2.116   4.280
 3476TIP3    H110371   0.459   2.143   4.192
 3476TIP3    H210372   0.405   2.134   4.333
 3477TIP3   OH210373   2.393   7.560   5.669
 3477TIP3    H110374   2.418   7.629   5.607
 3477TIP3    H210375   2.401   7.479   5.619
 3478TIP3   OH210376   3.156   4.617   3.942
 3478TIP3    H110377   3.207   4.586   3.867
 3478TIP3    H210378   3.178   4.710   3.948
 3479TIP3   OH210379   3.540   1.289   0.083
 3479TIP3    H110380   3.487   1.216   0.113
 3479TIP3    H210381   3.483   1.338   0.023
 3480TIP3   OH210382   1.107   4.351   3.714
 3480TIP3    H110383   1.058   4.269   3.718
 3480TIP3    H210384   1.198   4.326   3.728
 3481TIP3   OH210385   7.825   7.332   2.594
 3481TIP3    H110386   7.818   7.334   2.690
 3481TIP3    H210387   7.763   7.264   2.568
 3482TIP3   OH210388   2.765   5.996   3.679
 3482TIP3    H110389   2.818   5.986   3.600
 3482TIP3    H210390   2.761   5.909   3.717
 3483TIP3   OH210391   6.182   4.790   4.137
 3483TIP3    H110392   6.210   4.833   4.218
 3483TIP3    H210393   6.141   4.708   4.165
 3484TIP3   OH210394   0.362   0.533   1.828
 3484TIP3    H110395   0.396   0.547   1.740
 3484TIP3    H210396   0.439   0.537   1.884
 3485TIP3   OH210397   4.550   1.013   6.329
 3485TIP3    H110398   4.483   1.069   6.291
 3485TIP3    H210399   4.591   0.971   6.254
 3486TIP3   OH210400   0.690   5.623   6.146
 3486TIP3    H110401   0.771   5.594   6.104
 3486TIP3    H210402   0.655   5.545   6.187
 3487TIP3   OH210403   7.841   1.585   2.601
 3487TIP3    H110404   7.859   1.653   2.536
 3487TIP3    H210405   7.907   1.518   2.585
 3488TIP3   OH210406   7.454   5.263   4.628
 3488TIP3    H110407   7.456   5.302   4.540
 3488TIP3    H210408   7.362   5.267   4.653
 3489TIP3   OH210409   6.080   0.226   5.683
 3489TIP3    H110410   6.031   0.143   5.685
 3489TIP3    H210411   6.036   0.279   5.617
 3490TIP3   OH210412   4.745   7.114   1.396
 3490TIP3    H110413   4.704   7.199   1.410
 3490TIP3    H210414   4.786   7.121   1.310
 3491TIP3   OH210415   3.811   4.584   0.989
 3491TIP3    H110416   3.771   4.578   0.902
 3491TIP3    H210417   3.905   4.571   0.973
 3492TIP3   OH210418   4.734   2.004   5.158
 3492TIP3    H110419   4.726   2.098   5.179
 3492TIP3    H210420   4.753   2.002   5.065
 3493TIP3   OH210421   4.623   5.957   1.957
 3493TIP3    H110422   4.684   5.885   1.978
 3493TIP3    H210423   4.656   6.031   2.007
 3494TIP3   OH210424   7.889   7.092   5.952
 3494TIP3    H110425   7.979   7.088   5.920
 3494TIP3    H210426   7.867   7.001   5.972
 3495TIP3   OH210427   0.371   0.014   3.302
 3495TIP3    H110428   0.326  -0.032   3.373
 3495TIP3    H210429   0.305   0.073   3.266
 3496TIP3   OH210430   2.234   5.568   5.999
 3496TIP3    H110431   2.277   5.589   6.082
 3496TIP3    H210432   2.141   5.585   6.014
 3497TIP3   OH210433   7.734   7.699   2.893
 3497TIP3    H110434   7.760   7.790   2.885
 3497TIP3    H210435   7.744   7.679   2.987
 3498TIP3   OH210436   4.656   3.356   6.420
 3498TIP3    H110437   4.666   3.404   6.338
 3498TIP3    H210438   4.722   3.395   6.478
 3499TIP3   OH210439   1.133   7.640   3.208
 3499TIP3    H110440   1.174   7.559   3.238
 3499TIP3    H210441   1.206   7.697   3.184
 3500TIP3   OH210442   1.570   7.671   0.428
 3500TIP3    H110443   1.485   7.646   0.463
 3500TIP3    H210444   1.550   7.724   0.351
 3501TIP3   OH210445   5.080   5.830   5.992
 3501TIP3    H110446   5.084   5.864   5.903
 3501TIP3    H210447   5.104   5.738   5.984
 3502TIP3   OH210448   7.752   0.450   1.490
 3502TIP3    H110449   7.811   0.520   1.517
 3502TIP3    H210450   7.756   0.386   1.562
 3503TIP3   OH210451   1.039   2.571   5.626
 3503TIP3    H110452   1.107   2.529   5.680
 3503TIP3    H210453   1.003   2.500   5.574
 3504TIP3   OH210454   0.485   6.794   1.162
 3504TIP3    H110455   0.564   6.794   1.217
 3504TIP3    H210456   0.421   6.745   1.213
 3505TIP3   OH210457   2.170   4.832   2.158
 3505TIP3    H110458   2.204   4.915   2.125
 3505TIP3    H210459   2.096   4.812   2.100
 3506TIP3   OH210460   6.734   7.226   0.850
 3506TIP3    H110461   6.736   7.316   0.883
 3506TIP3    H210462   6.803   7.223   0.784
 3507TIP3   OH210463   5.881   0.409   3.679
 3507TIP3    H110464   5.811   0.350   3.653
 3507TIP3    H210465   5.947   0.400   3.610
 3508TIP3   OH210466   4.959   2.316   4.825
 3508TIP3    H110467   5.020   2.378   4.785
 3508TIP3    H210468   4.995   2.230   4.804
 3509TIP3   OH210469   1.521   5.803   5.355
 3509TIP3    H110470   1.542   5.883   5.306
 3509TIP3    H210471   1.452   5.761   5.304
 3510TIP3   OH210472   0.182   1.221   3.570
 3510TIP3    H110473   0.258   1.164   3.580
 3510TIP3    H210474   0.160   1.248   3.659
 3511TIP3   OH210475   2.695   0.558   1.342
 3511TIP3    H110476   2.668   0.480   1.390
 3511TIP3    H210477   2.648   0.630   1.384
 3512TIP3   OH210478   3.198   6.288   5.969
 3512TIP3    H110479   3.195   6.374   6.010
 3512TIP3    H210480   3.144   6.297   5.890
 3513TIP3   OH210481   8.119   2.610   4.087
 3513TIP3    H110482   8.058   2.682   4.106
 3513TIP3    H210483   8.095   2.583   3.998
 3514TIP3   OH210484   3.182   0.447   4.624
 3514TIP3    H110485   3.108   0.471   4.680
 3514TIP3    H210486   3.226   0.530   4.604
 3515TIP3   OH210487   0.900   6.999   6.482
 3515TIP3    H110488   0.887   7.029   6.392
 3515TIP3    H210489   0.964   7.060   6.518
 3516TIP3   OH210490   4.935   5.512   5.441
 3516TIP3    H110491   4.880   5.571   5.492
 3516TIP3    H210492   4.982   5.569   5.380
 3517TIP3   OH210493   7.699   7.527   2.327
 3517TIP3    H110494   7.668   7.483   2.248
 3517TIP3    H210495   7.787   7.492   2.341
 3518TIP3   OH210496   6.841   5.502   5.169
 3518TIP3    H110497   6.767   5.562   5.180
 3518TIP3    H210498   6.804   5.424   5.129
 3519TIP3   OH210499   4.614   4.713   6.070
 3519TIP3    H110500   4.644   4.800   6.045
 3519TIP3    H210501   4.553   4.728   6.142
 3520TIP3   OH210502   7.880   4.098   0.509
 3520TIP3    H110503   7.866   4.132   0.421
 3520TIP3    H210504   7.958   4.043   0.501
 3521TIP3   OH210505   0.099   1.142   2.449
 3521TIP3    H110506   0.053   1.213   2.405
 3521TIP3    H210507   0.061   1.140   2.537
 3522TIP3   OH210508   5.419   3.027   1.972
 3522TIP3    H110509   5.334   3.061   1.999
 3522TIP3    H210510   5.399   2.943   1.931
 3523TIP3   OH210511   3.028   1.713   3.550
 3523TIP3    H110512   3.034   1.808   3.549
 3523TIP3    H210513   3.111   1.683   3.513
 3524TIP3   OH210514   5.607   1.967   5.232
 3524TIP3    H110515   5.517   1.977   5.200
 3524TIP3    H210516   5.611   2.026   5.308
 3525TIP3   OH210517   5.238   7.181   6.471
 3525TIP3    H110518   5.243   7.098   6.518
 3525TIP3    H210519   5.323   7.189   6.428
 3526TIP3   OH210520   1.677   2.250   1.559
 3526TIP3    H110521   1.593   2.284   1.528
 3526TIP3    H210522   1.742   2.290   1.502
 3527TIP3   OH210523   0.406   5.443   1.429
 3527TIP3    H110524   0.479   5.382   1.439
 3527TIP3    H210525   0.389   5.476   1.518
 3528TIP3   OH210526   7.517   4.909   5.049
 3528TIP3    H110527   7.612   4.909   5.066
 3528TIP3    H210528   7.510   4.899   4.955
 3529TIP3   OH210529   7.943   2.438   5.683
 3529TIP3    H110530   8.013   2.403   5.628
 3529TIP3    H210531   7.889   2.362   5.704
 3530TIP3   OH210532   4.370   2.748   1.335
 3530TIP3    H110533   4.276   2.743   1.349
 3530TIP3    H210534   4.398   2.657   1.327
 3531TIP3   OH210535   5.216   0.454   4.955
 3531TIP3    H110536   5.291   0.396   4.969
 3531TIP3    H210537   5.254   0.536   4.925
 3532TIP3   OH210538   5.261   6.425   4.144
 3532TIP3    H110539   5.220   6.461   4.065
 3532TIP3    H210540   5.190   6.378   4.188
 3533TIP3   OH210541   3.130   5.190   2.515
 3533TIP3    H110542   3.102   5.187   2.607
 3533TIP3    H210543   3.213   5.141   2.515
 3534TIP3   OH210544   3.649   5.916   1.849
 3534TIP3    H110545   3.686   5.828   1.858
 3534TIP3    H210546   3.722   5.970   1.818
 3535TIP3   OH210547   8.284   5.365   1.770
 3535TIP3    H110548   8.237   5.376   1.687
 3535TIP3    H210549   8.220   5.323   1.828
 3536TIP3   OH210550   3.453   1.927   1.175
 3536TIP3    H110551   3.471   1.877   1.095
 3536TIP3    H210552   3.530   1.984   1.185
 3537TIP3   OH210553   2.680   2.576   0.893
 3537TIP3    H110554   2.746   2.543   0.954
 3537TIP3    H210555   2.599   2.533   0.919
 3538TIP3   OH210556   4.790   0.272   5.133
 3538TIP3    H110557   4.720   0.246   5.073
 3538TIP3    H210558   4.800   0.366   5.117
 3539TIP3   OH210559   0.289   1.727   0.715
 3539TIP3    H110560   0.307   1.782   0.792
 3539TIP3    H210561   0.196   1.706   0.722
 3540TIP3   OH210562   6.393   4.106   4.081
 3540TIP3    H110563   6.395   4.010   4.086
 3540TIP3    H210564   6.453   4.127   4.010
 3541TIP3   OH210565   0.668   5.141   3.590
 3541TIP3    H110566   0.661   5.138   3.686
 3541TIP3    H210567   0.750   5.096   3.571
 3542TIP3   OH210568   6.959   1.782   2.070
 3542TIP3    H110569   7.054   1.777   2.075
 3542TIP3    H210570   6.938   1.869   2.106
 3543TIP3   OH210571   5.213   7.569   4.696
 3543TIP3    H110572   5.143   7.621   4.736
 3543TIP3    H210573   5.266   7.633   4.648
 3544TIP3   OH210574   0.946   7.171   6.231
 3544TIP3    H110575   0.912   7.121   6.157
 3544TIP3    H210576   1.041   7.171   6.220
 3545TIP3   OH210577   3.471   0.132   5.290
 3545TIP3    H110578   3.526   0.128   5.369
 3545TIP3    H210579   3.432   0.219   5.292
 3546TIP3   OH210580   2.866   3.457   1.425
 3546TIP3    H110581   2.877   3.542   1.469
 3546TIP3    H210582   2.779   3.462   1.385
 3547TIP3   OH210583   3.465   5.374   4.508
 3547TIP3    H110584   3.538   5.330   4.552
 3547TIP3    H210585   3.419   5.304   4.462
 3548TIP3   OH210586   2.813   6.029   2.450
 3548TIP3    H110587   2.836   6.026   2.357
 3548TIP3    H210588   2.807   5.937   2.475
 3549TIP3   OH210589   2.438   4.865   1.150
 3549TIP3    H110590   2.411   4.892   1.062
 3549TIP3    H210591   2.529   4.893   1.158
 3550TIP3   OH210592   1.914   1.889   6.449
 3550TIP3    H110593   1.935   1.953   6.517
 3550TIP3    H210594   1.900   1.807   6.496
 3551TIP3   OH210595   0.741   5.090   5.034
 3551TIP3    H110596   0.830   5.101   5.067
 3551TIP3    H210597   0.727   5.166   4.977
 3552TIP3   OH210598   8.002   3.364   6.422
 3552TIP3    H110599   7.955   3.439   6.386
 3552TIP3    H210600   8.045   3.324   6.345
 3553TIP3   OH210601   0.259   0.442   3.917
 3553TIP3    H110602   0.321   0.454   3.988
 3553TIP3    H210603   0.313   0.438   3.838
 3554TIP3   OH210604   5.973   7.618   0.372
 3554TIP3    H110605   5.909   7.650   0.308
 3554TIP3    H210606   5.920   7.590   0.446
 3555TIP3   OH210607   7.894   6.170   0.097
 3555TIP3    H110608   7.950   6.143   0.025
 3555TIP3    H210609   7.945   6.154   0.176
 3556TIP3   OH210610   1.145   5.546   4.877
 3556TIP3    H110611   1.190   5.617   4.831
 3556TIP3    H210612   1.212   5.511   4.937
 3557TIP3   OH210613   3.905   5.659   0.002
 3557TIP3    H110614   3.853   5.648   0.081
 3557TIP3    H210615   3.849   5.711  -0.056
 3558TIP3   OH210616   6.413   0.083   5.271
 3558TIP3    H110617   6.471   0.012   5.299
 3558TIP3    H210618   6.361   0.046   5.200
 3559TIP3   OH210619   1.101   5.502   2.456
 3559TIP3    H110620   1.005   5.492   2.456
 3559TIP3    H210621   1.130   5.454   2.534
 3560TIP3   OH210622   7.559   6.163   2.734
 3560TIP3    H110623   7.605   6.231   2.784
 3560TIP3    H210624   7.514   6.211   2.664
 3561TIP3   OH210625   0.374   7.395   6.343
 3561TIP3    H110626   0.410   7.435   6.264
 3561TIP3    H210627   0.296   7.447   6.363
 3562TIP3   OH210628   6.322   3.578   1.531
 3562TIP3    H110629   6.315   3.495   1.577
 3562TIP3    H210630   6.380   3.561   1.457
 3563TIP3   OH210631   0.367   1.708   5.452
 3563TIP3    H110632   0.451   1.747   5.477
 3563TIP3    H210633   0.327   1.774   5.395
 3564TIP3   OH210634   3.495   5.846   4.770
 3564TIP3    H110635   3.470   5.779   4.833
 3564TIP3    H210636   3.413   5.886   4.743
 3565TIP3   OH210637   6.625   2.109   1.877
 3565TIP3    H110638   6.576   2.190   1.881
 3565TIP3    H210639   6.568   2.048   1.831
 3566TIP3   OH210640   2.467   5.889   0.425
 3566TIP3    H110641   2.482   5.913   0.334
 3566TIP3    H210642   2.467   5.793   0.425
 3567TIP3   OH210643   3.111   6.373   0.639
 3567TIP3    H110644   3.112   6.459   0.597
 3567TIP3    H210645   3.060   6.386   0.719
 3568TIP3   OH210646   2.926   4.671   4.297
 3568TIP3    H110647   2.910   4.763   4.317
 3568TIP3    H210648   2.955   4.633   4.381
 3569TIP3   OH210649   7.006   5.332   4.472
 3569TIP3    H110650   7.068   5.305   4.539
 3569TIP3    H210651   6.975   5.418   4.500
 3570TIP3   OH210652   6.765   5.363   0.638
 3570TIP3    H110653   6.705   5.306   0.590
 3570TIP3    H210654   6.767   5.328   0.727
 3571TIP3   OH210655   4.267   0.176   5.060
 3571TIP3    H110656   4.335   0.117   5.028
 3571TIP3    H210657   4.290   0.262   5.026
 3572TIP3   OH210658   4.550   5.007   2.975
 3572TIP3    H110659   4.623   4.947   2.965
 3572TIP3    H210660   4.504   5.002   2.891
 3573TIP3   OH210661   0.765   7.442   6.635
 3573TIP3    H110662   0.800   7.449   6.546
 3573TIP3    H210663   0.693   7.380   6.627
 3574TIP3   OH210664   5.532   5.275   2.367
 3574TIP3    H110665   5.489   5.294   2.284
 3574TIP3    H210666   5.517   5.354   2.420
 3575TIP3   OH210667   5.170   3.791   6.668
 3575TIP3    H110668   5.197   3.699   6.669
 3575TIP3    H210669   5.106   3.797   6.739
 3576TIP3   OH210670   2.773   6.875   6.512
 3576TIP3    H110671   2.809   6.861   6.424
 3576TIP3    H210672   2.682   6.848   6.504
 3577TIP3   OH210673   4.475   1.183   3.537
 3577TIP3    H110674   4.490   1.089   3.531
 3577TIP3    H210675   4.519   1.219   3.460
 3578TIP3   OH210676   0.502   7.678   4.693
 3578TIP3    H110677   0.489   7.753   4.635
 3578TIP3    H210678   0.523   7.716   4.778
 3579TIP3   OH210679   2.426   3.378   4.787
 3579TIP3    H110680   2.454   3.362   4.697
 3579TIP3    H210681   2.472   3.312   4.839
 3580TIP3   OH210682   7.108   3.671   0.865
 3580TIP3    H110683   7.038   3.624   0.821
 3580TIP3    H210684   7.104   3.760   0.830
 3581TIP3   OH210685   6.618   0.620   2.064
 3581TIP3    H110686   6.674   0.637   2.139
 3581TIP3    H210687   6.671   0.644   1.988
 3582TIP3   OH210688   6.031   0.527   2.275
 3582TIP3    H110689   5.949   0.570   2.299
 3582TIP3    H210690   6.099   0.589   2.303
 3583TIP3   OH210691   0.094   4.082   0.794
 3583TIP3    H110692   0.096   4.147   0.865
 3583TIP3    H210693   0.182   4.045   0.793
 3584TIP3   OH210694   2.798   0.216   4.257
 3584TIP3    H110695   2.874   0.222   4.199
 3584TIP3    H210696   2.732   0.171   4.206
 3585TIP3   OH210697   3.463   1.020   5.155
 3585TIP3    H110698   3.492   0.942   5.108
 3585TIP3    H210699   3.544   1.059   5.189
 3586TIP3   OH210700   5.439   2.702   4.323
 3586TIP3    H110701   5.448   2.789   4.285
 3586TIP3    H210702   5.527   2.681   4.356
 3587TIP3   OH210703   1.109   4.166   5.570
 3587TIP3    H110704   1.127   4.105   5.642
 3587TIP3    H210705   1.187   4.160   5.514
 3588TIP3   OH210706   3.708   3.868   3.253
 3588TIP3    H110707   3.717   3.787   3.304
 3588TIP3    H210708   3.792   3.875   3.206
 3589TIP3   OH210709   7.342   0.489   5.033
 3589TIP3    H110710   7.347   0.481   5.129
 3589TIP3    H210711   7.413   0.433   5.001
 3590TIP3   OH210712   6.557   6.175   1.094
 3590TIP3    H110713   6.595   6.223   1.168
 3590TIP3    H210714   6.474   6.219   1.077
 3591TIP3   OH210715   0.375   6.767   0.680
 3591TIP3    H110716   0.353   6.860   0.685
 3591TIP3    H210717   0.448   6.756   0.741
 3592TIP3   OH210718   4.991   7.638   3.876
 3592TIP3    H110719   4.999   7.666   3.785
 3592TIP3    H210720   5.059   7.572   3.887
 3593TIP3   OH210721   7.947   5.953   1.384
 3593TIP3    H110722   7.875   6.006   1.350
 3593TIP3    H210723   7.948   5.876   1.327
 3594TIP3   OH210724   4.556   6.404   5.444
 3594TIP3    H110725   4.613   6.447   5.507
 3594TIP3    H210726   4.614   6.377   5.373
 3595TIP3   OH210727   0.823   7.805   4.779
 3595TIP3    H110728   0.915   7.790   4.758
 3595TIP3    H210729   0.824   7.831   4.871
 3596TIP3   OH210730   6.864   7.385   0.516
 3596TIP3    H110731   6.810   7.447   0.566
 3596TIP3    H210732   6.949   7.388   0.559
 3597TIP3   OH210733   7.135   1.346   5.425
 3597TIP3    H110734   7.090   1.396   5.357
 3597TIP3    H210735   7.142   1.407   5.498
 3598TIP3   OH210736   0.270   4.779   5.886
 3598TIP3    H110737   0.331   4.744   5.821
 3598TIP3    H210738   0.183   4.760   5.849
 3599TIP3   OH210739   5.746   3.635   3.958
 3599TIP3    H110740   5.710   3.621   4.045
 3599TIP3    H210741   5.841   3.640   3.972
 3600TIP3   OH210742   1.203   4.830   1.278
 3600TIP3    H110743   1.154   4.912   1.273
 3600TIP3    H210744   1.160   4.773   1.214
 3601TIP3   OH210745   1.178   1.737   0.699
 3601TIP3    H110746   1.261   1.709   0.737
 3601TIP3    H210747   1.193   1.828   0.673
 3602TIP3   OH210748   7.414   4.159   3.480
 3602TIP3    H110749   7.437   4.200   3.396
 3602TIP3    H210750   7.357   4.222   3.523
 3603TIP3   OH210751   0.160   1.956   3.974
 3603TIP3    H110752   0.144   1.888   3.909
 3603TIP3    H210753   0.178   1.907   4.055
 3604TIP3   OH210754   1.248   4.440   0.889
 3604TIP3    H110755   1.187   4.513   0.897
 3604TIP3    H210756   1.255   4.424   0.795
 3605TIP3   OH210757   4.223   7.824   6.640
 3605TIP3    H110758   4.177   7.764   6.583
 3605TIP3    H210759   4.288   7.770   6.685
 3606TIP3   OH210760   3.596   5.831   6.082
 3606TIP3    H110761   3.594   5.818   5.987
 3606TIP3    H210762   3.549   5.755   6.117
 3607TIP3   OH210763   2.970   5.286   0.603
 3607TIP3    H110764   3.021   5.360   0.568
 3607TIP3    H210765   2.888   5.289   0.555
 3608TIP3   OH210766   7.198   6.163   4.747
 3608TIP3    H110767   7.226   6.075   4.774
 3608TIP3    H210768   7.109   6.172   4.782
 3609TIP3   OH210769   6.390   1.442   5.235
 3609TIP3    H110770   6.369   1.457   5.143
 3609TIP3    H210771   6.480   1.473   5.244
 3610TIP3   OH210772   4.008   4.802   4.485
 3610TIP3    H110773   3.936   4.818   4.424
 3610TIP3    H210774   4.028   4.888   4.522
 3611TIP3   OH210775   1.396   4.992   1.404
 3611TIP3    H110776   1.318   4.942   1.379
 3611TIP3    H210777   1.361   5.072   1.444
 3612TIP3   OH210778   4.741   6.813   0.309
 3612TIP3    H110779   4.820   6.807   0.362
 3612TIP3    H210780   4.676   6.761   0.356
 3613TIP3   OH210781   8.089   1.881   3.450
 3613TIP3    H110782   8.099   1.816   3.520
 3613TIP3    H210783   8.161   1.861   3.389
 3614TIP3   OH210784   6.819   4.815   6.405
 3614TIP3    H110785   6.855   4.858   6.482
 3614TIP3    H210786   6.878   4.839   6.334
 3615TIP3   OH210787   7.031   1.978   5.357
 3615TIP3    H110788   6.981   2.048   5.399
 3615TIP3    H210789   6.992   1.897   5.391
 3616TIP3   OH210790   6.509   0.111   4.975
 3616TIP3    H110791   6.529   0.197   4.936
 3616TIP3    H210792   6.414   0.108   4.979
 3617TIP3   OH210793   4.678   0.694   3.932
 3617TIP3    H110794   4.656   0.671   4.022
 3617TIP3    H210795   4.773   0.682   3.926
 3618TIP3   OH210796   6.697   1.724   6.206
 3618TIP3    H110797   6.792   1.728   6.215
 3618TIP3    H210798   6.682   1.655   6.141
 3619TIP3   OH210799   3.416   7.516   0.241
 3619TIP3    H110800   3.409   7.601   0.198
 3619TIP3    H210801   3.498   7.479   0.207
 3620TIP3   OH210802   0.034   6.684   1.944
 3620TIP3    H110803   0.033   6.747   2.017
 3620TIP3    H210804  -0.045   6.706   1.893
 3621TIP3   OH210805   3.829   3.245   5.855
 3621TIP3    H110806   3.908   3.242   5.802
 3621TIP3    H210807   3.819   3.156   5.888
 3622TIP3   OH210808   0.237   3.458   1.804
 3622TIP3    H110809   0.284   3.377   1.788
 3622TIP3    H210810   0.188   3.442   1.884
 3623TIP3   OH210811   0.567   4.136   2.702
 3623TIP3    H110812   0.619   4.068   2.744
 3623TIP3    H210813   0.531   4.188   2.774
 3624TIP3   OH210814   2.812   6.747   5.623
 3624TIP3    H110815   2.820   6.653   5.640
 3624TIP3    H210816   2.819   6.788   5.710
 3625TIP3   OH210817   6.319   5.786   3.137
 3625TIP3    H110818   6.279   5.705   3.105
 3625TIP3    H210819   6.410   5.761   3.156
 3626TIP3   OH210820   6.241   5.109   1.336
 3626TIP3    H110821   6.217   5.180   1.276
 3626TIP3    H210822   6.313   5.064   1.291
 3627TIP3   OH210823   6.752   1.437   2.495
 3627TIP3    H110824   6.809   1.390   2.555
 3627TIP3    H210825   6.776   1.529   2.507
 3628TIP3   OH210826   3.096   2.525   2.639
 3628TIP3    H110827   3.176   2.477   2.618
 3628TIP3    H210828   3.090   2.522   2.735
 3629TIP3   OH210829   6.224   1.966   0.551
 3629TIP3    H110830   6.227   1.932   0.462
 3629TIP3    H210831   6.131   1.967   0.573
 3630TIP3   OH210832   2.240   6.184   4.929
 3630TIP3    H110833   2.236   6.095   4.892
 3630TIP3    H210834   2.149   6.209   4.941
 3631TIP3   OH210835   2.199   5.786   5.675
 3631TIP3    H110836   2.170   5.827   5.593
 3631TIP3    H210837   2.118   5.765   5.721
 3632TIP3   OH210838   1.547   2.374   3.033
 3632TIP3    H110839   1.455   2.359   3.057
 3632TIP3    H210840   1.560   2.468   3.048
 3633TIP3   OH210841   6.838   4.789   3.167
 3633TIP3    H110842   6.833   4.699   3.200
 3633TIP3    H210843   6.747   4.815   3.155
 3634TIP3   OH210844   7.865   2.440   2.540
 3634TIP3    H110845   7.811   2.362   2.544
 3634TIP3    H210846   7.856   2.480   2.627
 3635TIP3   OH210847   1.157   5.093   1.756
 3635TIP3    H110848   1.226   5.156   1.734
 3635TIP3    H210849   1.198   5.008   1.746
 3636TIP3   OH210850   5.348   3.630   1.248
 3636TIP3    H110851   5.378   3.719   1.270
 3636TIP3    H210852   5.331   3.589   1.332
 3637TIP3   OH210853   4.910   1.957   1.219
 3637TIP3    H110854   4.822   1.920   1.213
 3637TIP3    H210855   4.952   1.931   1.137
 3638TIP3   OH210856   4.743   4.504   5.962
 3638TIP3    H110857   4.796   4.507   5.882
 3638TIP3    H210858   4.697   4.588   5.964
 3639TIP3   OH210859   5.390   2.758   1.883
 3639TIP3    H110860   5.420   2.725   1.798
 3639TIP3    H210861   5.399   2.683   1.942
 3640TIP3   OH210862   6.913   1.853   0.358
 3640TIP3    H110863   6.912   1.811   0.272
 3640TIP3    H210864   6.957   1.937   0.343
 3641TIP3   OH210865   0.663   3.817   3.161
 3641TIP3    H110866   0.700   3.894   3.204
 3641TIP3    H210867   0.571   3.840   3.145
 3642TIP3   OH210868   7.219   0.731   4.281
 3642TIP3    H110869   7.224   0.821   4.314
 3642TIP3    H210870   7.126   0.711   4.280
 3643TIP3   OH210871   2.805   7.006   4.297
 3643TIP3    H110872   2.823   7.019   4.204
 3643TIP3    H210873   2.879   6.954   4.329
 3644TIP3   OH210874   6.631   4.166   3.907
 3644TIP3    H110875   6.674   4.239   3.862
 3644TIP3    H210876   6.699   4.098   3.912
 3645TIP3   OH210877   3.511   0.443   4.392
 3645TIP3    H110878   3.557   0.526   4.381
 3645TIP3    H210879   3.446   0.460   4.459
 3646TIP3   OH210880   7.461   3.341   4.638
 3646TIP3    H110881   7.486   3.375   4.552
 3646TIP3    H210882   7.540   3.352   4.691
 3647TIP3   OH210883   7.858   6.868   1.021
 3647TIP3    H110884   7.896   6.896   0.938
 3647TIP3    H210885   7.893   6.929   1.086
 3648TIP3   OH210886   0.285   1.215   5.423
 3648TIP3    H110887   0.228   1.140   5.435
 3648TIP3    H210888   0.310   1.240   5.512
 3649TIP3   OH210889   5.449   3.842   1.395
 3649TIP3    H110890   5.412   3.843   1.483
 3649TIP3    H210891   5.518   3.908   1.397
 3650TIP3   OH210892   6.634   0.797   3.464
 3650TIP3    H110893   6.612   0.873   3.519
 3650TIP3    H210894   6.671   0.835   3.384
 3651TIP3   OH210895   6.814   2.151   6.044
 3651TIP3    H110896   6.872   2.143   6.119
 3651TIP3    H210897   6.731   2.180   6.081
 3652TIP3   OH210898   4.179   2.942   0.033
 3652TIP3    H110899   4.253   2.899  -0.010
 3652TIP3    H210900   4.102   2.894   0.003
 3653TIP3   OH210901   5.927   5.797   0.273
 3653TIP3    H110902   5.833   5.797   0.255
 3653TIP3    H210903   5.934   5.837   0.360
 3654TIP3   OH210904   7.442   0.260   5.297
 3654TIP3    H110905   7.505   0.232   5.363
 3654TIP3    H210906   7.361   0.274   5.346
 3655TIP3   OH210907   1.516   2.785   0.856
 3655TIP3    H110908   1.483   2.695   0.861
 3655TIP3    H210909   1.559   2.790   0.771
 3656TIP3   OH210910   5.341   3.028   0.620
 3656TIP3    H110911   5.363   2.937   0.643
 3656TIP3    H210912   5.406   3.081   0.666
 3657TIP3   OH210913   7.662   7.251   6.609
 3657TIP3    H110914   7.568   7.232   6.611
 3657TIP3    H210915   7.704   7.171   6.639
 3658TIP3   OH210916   4.179   3.600   0.977
 3658TIP3    H110917   4.119   3.672   0.997
 3658TIP3    H210918   4.263   3.643   0.962
 3659TIP3   OH210919   6.472   5.545   4.004
 3659TIP3    H110920   6.563   5.564   4.024
 3659TIP3    H210921   6.454   5.463   4.050
 3660TIP3   OH210922   1.254   1.949   1.933
 3660TIP3    H110923   1.217   2.028   1.971
 3660TIP3    H210924   1.186   1.883   1.944
 3661TIP3   OH210925   2.048   0.725  -0.020
 3661TIP3    H110926   2.004   0.671   0.046
 3661TIP3    H210927   2.058   0.811   0.021
 3662TIP3   OH210928   3.229   0.303   2.746
 3662TIP3    H110929   3.141   0.310   2.708
 3662TIP3    H210930   3.280   0.257   2.680
 3663TIP3   OH210931   5.221   3.669   4.644
 3663TIP3    H110932   5.245   3.618   4.721
 3663TIP3    H210933   5.299   3.667   4.588
 3664TIP3   OH210934   0.194   6.109  -0.001
 3664TIP3    H110935   0.224   6.043  -0.064
 3664TIP3    H210936   0.148   6.060   0.066
 3665TIP3   OH210937   0.744   5.815   2.326
 3665TIP3    H110938   0.833   5.785   2.306
 3665TIP3    H210939   0.716   5.761   2.399
 3666TIP3   OH210940   7.732   5.136   5.589
 3666TIP3    H110941   7.647   5.093   5.575
 3666TIP3    H210942   7.754   5.117   5.680
 3667TIP3   OH210943   0.363   3.932   0.431
 3667TIP3    H110944   0.320   4.005   0.386
 3667TIP3    H210945   0.446   3.968   0.462
 3668TIP3   OH210946   5.885   3.436   0.720
 3668TIP3    H110947   5.866   3.498   0.790
 3668TIP3    H210948   5.980   3.440   0.709
 3669TIP3   OH210949   0.438   3.179   5.329
 3669TIP3    H110950   0.512   3.231   5.296
 3669TIP3    H210951   0.477   3.095   5.353
 3670TIP3   OH210952   0.923   4.695   1.550
 3670TIP3    H110953   1.009   4.659   1.530
 3670TIP3    H210954   0.938   4.752   1.626
 3671TIP3   OH210955   4.194   0.160   0.954
 3671TIP3    H110956   4.269   0.101   0.961
 3671TIP3    H210957   4.144   0.127   0.880
 3672TIP3   OH210958   4.136   0.272   4.592
 3672TIP3    H110959   4.232   0.280   4.597
 3672TIP3    H210960   4.106   0.361   4.575
 3673TIP3   OH210961   3.231   2.967   4.974
 3673TIP3    H110962   3.189   3.040   5.018
 3673TIP3    H210963   3.159   2.908   4.950
 3674TIP3   OH210964   5.496   5.812   5.558
 3674TIP3    H110965   5.434   5.849   5.494
 3674TIP3    H210966   5.471   5.720   5.565
 3675TIP3   OH210967   5.884   5.525   4.053
 3675TIP3    H110968   5.824   5.532   3.978
 3675TIP3    H210969   5.965   5.565   4.023
 3676TIP3   OH210970   5.563   1.672   3.334
 3676TIP3    H110971   5.638   1.731   3.325
 3676TIP3    H210972   5.497   1.706   3.274
 3677TIP3   OH210973   5.529   5.166   0.476
 3677TIP3    H110974   5.616   5.203   0.488
 3677TIP3    H210975   5.536   5.076   0.507
 3678TIP3   OH210976   3.414   1.304   1.129
 3678TIP3    H110977   3.359   1.240   1.174
 3678TIP3    H210978   3.362   1.385   1.130
 3679TIP3   OH210979   1.010   6.837   5.830
 3679TIP3    H110980   1.048   6.820   5.916
 3679TIP3    H210981   1.084   6.868   5.777
 3680TIP3   OH210982   2.283   5.735   3.339
 3680TIP3    H110983   2.246   5.756   3.254
 3680TIP3    H210984   2.207   5.719   3.395
 3681TIP3   OH210985   7.045   2.307   1.270
 3681TIP3    H110986   7.067   2.226   1.318
 3681TIP3    H210987   6.960   2.288   1.230
 3682TIP3   OH210988   2.204   4.810   0.084
 3682TIP3    H110989   2.231   4.847   0.168
 3682TIP3    H210990   2.190   4.886   0.027
 3683TIP3   OH210991   6.430   2.147   5.298
 3683TIP3    H110992   6.525   2.143   5.307
 3683TIP3    H210993   6.397   2.154   5.388
 3684TIP3   OH210994   1.168   6.108   5.525
 3684TIP3    H110995   1.208   6.169   5.587
 3684TIP3    H210996   1.118   6.047   5.580
 3685TIP3   OH210997   4.768   2.695   1.323
 3685TIP3    H110998   4.796   2.787   1.328
 3685TIP3    H210999   4.676   2.700   1.295
 3686TIP3   OH211000   5.998   3.947   2.996
 3686TIP3    H111001   6.075   3.896   2.971
 3686TIP3    H211002   5.999   4.023   2.938
 3687TIP3   OH211003   7.501   3.287   6.257
 3687TIP3    H111004   7.460   3.269   6.172
 3687TIP3    H211005   7.593   3.301   6.237
 3688TIP3   OH211006   5.612   3.597   5.121
 3688TIP3    H111007   5.681   3.606   5.056
 3688TIP3    H211008   5.546   3.663   5.097
 3689TIP3   OH211009   7.065   5.694   3.873
 3689TIP3    H111010   7.070   5.788   3.884
 3689TIP3    H211011   7.101   5.657   3.954
 3690TIP3   OH211012   7.677   4.346   2.754
 3690TIP3    H111013   7.639   4.313   2.836
 3690TIP3    H211014   7.710   4.433   2.777
 3691TIP3   OH211015   3.923   1.463   0.836
 3691TIP3    H111016   3.985   1.524   0.874
 3691TIP3    H211017   3.893   1.410   0.910
 3692TIP3   OH211018   1.541   1.643   3.155
 3692TIP3    H111019   1.577   1.732   3.157
 3692TIP3    H211020   1.610   1.590   3.115
 3693TIP3   OH211021   3.157   1.916   4.454
 3693TIP3    H111022   3.061   1.924   4.450
 3693TIP3    H211023   3.188   1.965   4.378
 3694TIP3   OH211024   0.060   0.736   6.466
 3694TIP3    H111025  -0.009   0.802   6.461
 3694TIP3    H211026   0.026   0.672   6.529
 3695TIP3   OH211027   2.170   5.899   2.217
 3695TIP3    H111028   2.210   5.957   2.152
 3695TIP3    H211029   2.077   5.920   2.214
 3696TIP3   OH211030   0.800   4.732   1.253
 3696TIP3    H111031   0.813   4.809   1.309
 3696TIP3    H211032   0.705   4.723   1.246
 3697TIP3   OH211033   7.335   4.540   6.697
 3697TIP3    H111034   7.252   4.534   6.651
 3697TIP3    H211035   7.320   4.494   6.779
 3698TIP3   OH211036   3.976   4.439   1.270
 3698TIP3    H111037   4.026   4.514   1.237
 3698TIP3    H211038   3.913   4.476   1.331
 3699TIP3   OH211039   0.250   0.052   6.199
 3699TIP3    H111040   0.165   0.084   6.169
 3699TIP3    H211041   0.268   0.102   6.278
 3700TIP3   OH211042   2.261   1.373   4.521
 3700TIP3    H111043   2.213   1.443   4.564
 3700TIP3    H211044   2.353   1.398   4.529
 3701TIP3   OH211045   7.471   3.621   1.154
 3701TIP3    H111046   7.430   3.553   1.207
 3701TIP3    H211047   7.451   3.597   1.064
 3702TIP3   OH211048   6.724   4.351   2.541
 3702TIP3    H111049   6.769   4.382   2.463
 3702TIP3    H211050   6.649   4.410   2.551
 3703TIP3   OH211051   5.507   2.014   2.629
 3703TIP3    H111052   5.577   1.951   2.648
 3703TIP3    H211053   5.550   2.100   2.636
 3704TIP3   OH211054   0.222   7.587   5.360
 3704TIP3    H111055   0.288   7.617   5.424
 3704TIP3    H211056   0.266   7.594   5.276
 3705TIP3   OH211057   5.683   5.589   3.065
 3705TIP3    H111058   5.679   5.511   3.010
 3705TIP3    H211059   5.776   5.603   3.081
 3706TIP3   OH211060   0.283   4.188   6.434
 3706TIP3    H111061   0.373   4.157   6.438
 3706TIP3    H211062   0.256   4.195   6.525
 3707TIP3   OH211063   2.386   7.358   0.784
 3707TIP3    H111064   2.469   7.370   0.830
 3707TIP3    H211065   2.407   7.299   0.712
 3708TIP3   OH211066   6.886   7.484   6.605
 3708TIP3    H111067   6.812   7.429   6.630
 3708TIP3    H211068   6.851   7.573   6.606
 3709TIP3   OH211069   5.352   1.984   5.094
 3709TIP3    H111070   5.358   1.964   5.001
 3709TIP3    H211071   5.271   1.942   5.123
 3710TIP3   OH211072   0.604   5.460   4.181
 3710TIP3    H111073   0.573   5.517   4.251
 3710TIP3    H211074   0.598   5.514   4.102
 3711TIP3   OH211075   1.644   2.206   5.900
 3711TIP3    H111076   1.618   2.263   5.828
 3711TIP3    H211077   1.721   2.160   5.868
 3712TIP3   OH211078   5.247   1.849   2.624
 3712TIP3    H111079   5.288   1.906   2.689
 3712TIP3    H211080   5.317   1.787   2.599
 3713TIP3   OH211081   7.443   1.137   2.398
 3713TIP3    H111082   7.460   1.047   2.371
 3713TIP3    H211083   7.527   1.169   2.429
 3714TIP3   OH211084   0.569   6.382   4.811
 3714TIP3    H111085   0.585   6.357   4.903
 3714TIP3    H211086   0.535   6.302   4.771
 3715TIP3   OH211087   4.725   3.573   4.600
 3715TIP3    H111088   4.742   3.534   4.514
 3715TIP3    H211089   4.806   3.559   4.648
 3716TIP3   OH211090   5.593   7.426   3.404
 3716TIP3    H111091   5.522   7.488   3.391
 3716TIP3    H211092   5.658   7.449   3.337
 3717TIP3   OH211093   1.739   3.755   5.879
 3717TIP3    H111094   1.757   3.813   5.953
 3717TIP3    H211095   1.686   3.807   5.820
 3718TIP3   OH211096   5.660   5.961   0.456
 3718TIP3    H111097   5.700   5.993   0.375
 3718TIP3    H211098   5.731   5.963   0.520
 3719TIP3   OH211099   6.900   0.777   5.237
 3719TIP3    H111100   6.873   0.860   5.196
 3719TIP3    H211101   6.989   0.762   5.205
 3720TIP3   OH211102   0.987   2.760   1.999
 3720TIP3    H111103   0.904   2.720   2.024
 3720TIP3    H211104   1.004   2.824   2.068
 3721TIP3   OH211105   0.410   0.092   0.731
 3721TIP3    H111106   0.426   0.007   0.774
 3721TIP3    H211107   0.497   0.126   0.712
 3722TIP3   OH211108   7.263   3.214   2.372
 3722TIP3    H111109   7.170   3.237   2.375
 3722TIP3    H211110   7.303   3.267   2.441
 3723TIP3   OH211111   0.992   0.142   4.851
 3723TIP3    H111112   1.042   0.174   4.926
 3723TIP3    H211113   0.954   0.060   4.880
 3724TIP3   OH211114   6.417   5.016   2.694
 3724TIP3    H111115   6.377   4.982   2.614
 3724TIP3    H211116   6.424   5.111   2.680
 3725TIP3   OH211117   5.425   7.298   6.720
 3725TIP3    H111118   5.369   7.224   6.745
 3725TIP3    H211119   5.461   7.274   6.635
 3726TIP3   OH211120   2.727   0.332   2.181
 3726TIP3    H111121   2.678   0.251   2.190
 3726TIP3    H211122   2.694   0.388   2.252
 3727TIP3   OH211123   6.038   5.882   4.512
 3727TIP3    H111124   6.068   5.942   4.581
 3727TIP3    H211125   6.025   5.938   4.435
 3728TIP3   OH211126   0.240   7.361   2.496
 3728TIP3    H111127   0.328   7.325   2.496
 3728TIP3    H211128   0.201   7.329   2.415
 3729TIP3   OH211129   8.295   2.086   5.370
 3729TIP3    H111130   8.263   2.113   5.284
 3729TIP3    H211131   8.220   2.042   5.410
 3730TIP3   OH211132   4.938   2.498   4.482
 3730TIP3    H111133   4.921   2.567   4.418
 3730TIP3    H211134   4.975   2.426   4.430
 3731TIP3   OH211135   1.080   4.268   4.667
 3731TIP3    H111136   1.166   4.311   4.659
 3731TIP3    H211137   1.017   4.337   4.648
 3732TIP3   OH211138   3.498   6.375   0.337
 3732TIP3    H111139   3.547   6.395   0.257
 3732TIP3    H211140   3.411   6.412   0.323
 3733TIP3   OH211141   2.464   3.507   4.298
 3733TIP3    H111142   2.497   3.596   4.306
 3733TIP3    H211143   2.390   3.514   4.238
 3734TIP3   OH211144   2.138   1.248   0.943
 3734TIP3    H111145   2.200   1.294   0.886
 3734TIP3    H211146   2.192   1.219   1.017
 3735TIP3   OH211147   7.213   5.501   1.203
 3735TIP3    H111148   7.168   5.531   1.125
 3735TIP3    H211149   7.303   5.485   1.175
 3736TIP3   OH211150   4.352   4.833   2.594
 3736TIP3    H111151   4.387   4.745   2.608
 3736TIP3    H211152   4.279   4.820   2.534
 3737TIP3   OH211153   5.773   6.357   2.641
 3737TIP3    H111154   5.701   6.404   2.684
 3737TIP3    H211155   5.795   6.412   2.565
 3738TIP3   OH211156   7.606   5.469   6.140
 3738TIP3    H111157   7.684   5.501   6.186
 3738TIP3    H211158   7.604   5.520   6.059
 3739TIP3   OH211159   2.047   1.774   5.889
 3739TIP3    H111160   2.013   1.718   5.819
 3739TIP3    H211161   1.973   1.829   5.914
 3740TIP3   OH211162   0.766   6.999   2.933
 3740TIP3    H111163   0.696   6.936   2.915
 3740TIP3    H211164   0.770   7.055   2.855
 3741TIP3   OH211165   6.052   1.746   2.361
 3741TIP3    H111166   5.968   1.700   2.368
 3741TIP3    H211167   6.053   1.805   2.437
 3742TIP3   OH211168   2.702   6.145   2.657
 3742TIP3    H111169   2.733   6.107   2.574
 3742TIP3    H211170   2.654   6.074   2.699
 3743TIP3   OH211171   5.059   1.108   3.871
 3743TIP3    H111172   5.105   1.026   3.888
 3743TIP3    H211173   5.027   1.136   3.957
 3744TIP3   OH211174   7.512   3.886   1.319
 3744TIP3    H111175   7.548   3.974   1.318
 3744TIP3    H211176   7.537   3.851   1.405
 3745TIP3   OH211177   3.633   1.404   0.713
 3745TIP3    H111178   3.719   1.368   0.692
 3745TIP3    H211179   3.572   1.355   0.657
 3746TIP3   OH211180   6.862   3.495   1.116
 3746TIP3    H111181   6.845   3.402   1.129
 3746TIP3    H211182   6.825   3.538   1.193
 3747TIP3   OH211183   6.063   5.166   5.674
 3747TIP3    H111184   6.048   5.166   5.579
 3747TIP3    H211185   6.073   5.074   5.697
 3748TIP3   OH211186   5.591   4.343   0.307
 3748TIP3    H111187   5.501   4.374   0.318
 3748TIP3    H211188   5.582   4.248   0.300
 3749TIP3   OH211189   7.185   2.606   1.247
 3749TIP3    H111190   7.159   2.663   1.175
 3749TIP3    H211191   7.111   2.546   1.259
 3750TIP3   OH211192   1.624   1.140   1.273
 3750TIP3    H111193   1.541   1.188   1.269
 3750TIP3    H211194   1.629   1.109   1.363
 3751TIP3   OH211195   7.818   3.525   3.574
 3751TIP3    H111196   7.795   3.433   3.577
 3751TIP3    H211197   7.787   3.561   3.658
 3752TIP3   OH211198   1.440   2.923   4.593
 3752TIP3    H111199   1.486   2.840   4.581
 3752TIP3    H211200   1.505   2.981   4.633
 3753TIP3   OH211201   3.540   5.464   1.196
 3753TIP3    H111202   3.518   5.428   1.110
 3753TIP3    H211203   3.460   5.508   1.225
 3754TIP3   OH211204   4.772   4.918   4.706
 3754TIP3    H111205   4.815   5.002   4.689
 3754TIP3    H211206   4.844   4.855   4.710
 3755TIP3   OH211207  -0.037   0.537   3.991
 3755TIP3    H111208   0.027   0.484   3.943
 3755TIP3    H211209   0.015   0.585   4.056
 3756TIP3   OH211210   8.227   5.708   5.007
 3756TIP3    H111211   8.208   5.616   4.989
 3756TIP3    H211212   8.209   5.752   4.924
 3757TIP3   OH211213   1.225   7.290   1.706
 3757TIP3    H111214   1.260   7.201   1.705
 3757TIP3    H211215   1.130   7.279   1.713
 3758TIP3   OH211216   3.653   4.184   4.332
 3758TIP3    H111217   3.666   4.251   4.399
 3758TIP3    H211218   3.741   4.167   4.298
 3759TIP3   OH211219   6.960   5.680   3.083
 3759TIP3    H111220   6.879   5.731   3.086
 3759TIP3    H211221   7.027   5.744   3.058
 3760TIP3   OH211222   5.840   2.191   1.910
 3760TIP3    H111223   5.935   2.187   1.919
 3760TIP3    H211224   5.813   2.266   1.962
 3761TIP3   OH211225   2.724   4.743   6.420
 3761TIP3    H111226   2.740   4.649   6.417
 3761TIP3    H211227   2.662   4.759   6.348
 3762TIP3   OH211228   7.534   2.474   0.500
 3762TIP3    H111229   7.464   2.409   0.503
 3762TIP3    H211230   7.614   2.422   0.495
 3763TIP3   OH211231   7.746  -0.039   1.837
 3763TIP3    H111232   7.816  -0.041   1.772
 3763TIP3    H211233   7.698   0.042   1.817
 3764TIP3   OH211234   7.695   7.549   1.619
 3764TIP3    H111235   7.611   7.580   1.655
 3764TIP3    H211236   7.705   7.597   1.537
 3765TIP3   OH211237   1.897   3.357   3.700
 3765TIP3    H111238   1.847   3.389   3.624
 3765TIP3    H211239   1.899   3.431   3.760
 3766TIP3   OH211240   2.089   6.943   6.440
 3766TIP3    H111241   2.016   6.995   6.406
 3766TIP3    H211242   2.152   6.940   6.368
 3767TIP3   OH211243   0.620   4.025   0.471
 3767TIP3    H111244   0.679   3.994   0.402
 3767TIP3    H211245   0.664   4.001   0.552
 3768TIP3   OH211246   6.539   0.929   5.534
 3768TIP3    H111247   6.506   0.990   5.468
 3768TIP3    H211248   6.479   0.939   5.608
 3769TIP3   OH211249   3.105   0.681   2.749
 3769TIP3    H111250   3.159   0.607   2.720
 3769TIP3    H211251   3.167   0.742   2.788
 3770TIP3   OH211252   1.808   6.554   1.712
 3770TIP3    H111253   1.819   6.461   1.692
 3770TIP3    H211254   1.730   6.558   1.767
 3771TIP3   OH211255   1.320   4.430   2.294
 3771TIP3    H111256   1.409   4.451   2.265
 3771TIP3    H211257   1.328   4.344   2.335
 3772TIP3   OH211258   2.514   2.567   5.168
 3772TIP3    H111259   2.464   2.593   5.245
 3772TIP3    H211260   2.532   2.474   5.182
 3773TIP3   OH211261   0.185   5.117   5.748
 3773TIP3    H111262   0.244   5.065   5.694
 3773TIP3    H211263   0.109   5.133   5.692
 3774TIP3   OH211264   1.024   0.326   2.494
 3774TIP3    H111265   1.082   0.386   2.542
 3774TIP3    H211266   0.943   0.326   2.543
 3775TIP3   OH211267   8.236   1.584   3.011
 3775TIP3    H111268   8.250   1.664   2.962
 3775TIP3    H211269   8.143   1.584   3.033
 3776TIP3   OH211270   5.457   5.333   6.402
 3776TIP3    H111271   5.372   5.371   6.379
 3776TIP3    H211272   5.439   5.240   6.414
 3777TIP3   OH211273   3.103   4.650   0.716
 3777TIP3    H111274   3.071   4.578   0.770
 3777TIP3    H211275   3.154   4.607   0.647
 3778TIP3   OH211276   4.149   6.055   0.929
 3778TIP3    H111277   4.210   6.048   1.002
 3778TIP3    H211278   4.145   6.149   0.909
 3779TIP3   OH211279   1.044   7.092   4.930
 3779TIP3    H111280   0.974   7.078   4.867
 3779TIP3    H211281   1.001   7.129   5.007
 3780TIP3   OH211282   8.137   5.759   0.660
 3780TIP3    H111283   8.143   5.664   0.656
 3780TIP3    H211284   8.213   5.785   0.713
 3781TIP3   OH211285   6.216   7.835   5.541
 3781TIP3    H111286   6.219   7.905   5.475
 3781TIP3    H211287   6.217   7.754   5.490
 3782TIP3   OH211288   5.238   0.907   3.873
 3782TIP3    H111289   5.332   0.916   3.857
 3782TIP3    H211290   5.230   0.823   3.917
 3783TIP3   OH211291   1.988   1.951   4.434
 3783TIP3    H111292   2.005   1.908   4.518
 3783TIP3    H211293   1.900   1.921   4.409
 3784TIP3   OH211294   5.812   3.438   6.036
 3784TIP3    H111295   5.888   3.382   6.024
 3784TIP3    H211296   5.843   3.508   6.094
 3785TIP3   OH211297   3.116   1.965   1.879
 3785TIP3    H111298   3.099   2.056   1.906
 3785TIP3    H211299   3.200   1.944   1.921
 3786TIP3   OH211300   2.856   1.126   4.542
 3786TIP3    H111301   2.926   1.161   4.488
 3786TIP3    H211302   2.872   1.163   4.629
 3787TIP3   OH211303   2.635   4.615   0.153
 3787TIP3    H111304   2.710   4.606   0.094
 3787TIP3    H211305   2.569   4.555   0.116
 3788TIP3   OH211306   7.094   1.563   5.977
 3788TIP3    H111307   7.163   1.540   6.040
 3788TIP3    H211308   7.013   1.537   6.021
 3789TIP3   OH211309   1.945   4.032   1.231
 3789TIP3    H111310   1.943   4.002   1.140
 3789TIP3    H211311   1.884   3.974   1.276
 3790TIP3   OH211312   8.267   3.452   0.272
 3790TIP3    H111313   8.297   3.513   0.340
 3790TIP3    H211314   8.180   3.424   0.301
 3791TIP3   OH211315   2.954   2.666   1.988
 3791TIP3    H111316   2.991   2.658   2.076
 3791TIP3    H211317   2.967   2.580   1.949
 3792TIP3   OH211318   3.190   4.872   3.133
 3792TIP3    H111319   3.234   4.794   3.167
 3792TIP3    H211320   3.176   4.928   3.209
 3793TIP3   OH211321   0.662   2.930   1.607
 3793TIP3    H111322   0.676   2.975   1.690
 3793TIP3    H211323   0.619   2.848   1.631
 3794TIP3   OH211324   3.122   4.613   0.044
 3794TIP3    H111325   3.145   4.693   0.090
 3794TIP3    H211326   3.086   4.643  -0.040
 3795TIP3   OH211327   4.641   2.665   2.267
 3795TIP3    H111328   4.563   2.618   2.296
 3795TIP3    H211329   4.713   2.604   2.283
 3796TIP3   OH211330   6.190   4.957   1.797
 3796TIP3    H111331   6.176   4.944   1.891
 3796TIP3    H211332   6.213   4.871   1.763
 3797TIP3   OH211333   2.598   6.357   0.076
 3797TIP3    H111334   2.637   6.336   0.161
 3797TIP3    H211335   2.555   6.442   0.089
 3798TIP3   OH211336   3.689   5.383   2.486
 3798TIP3    H111337   3.743   5.334   2.548
 3798TIP3    H211338   3.728   5.470   2.483
 3799TIP3   OH211339   5.477   2.975   1.599
 3799TIP3    H111340   5.569   2.956   1.584
 3799TIP3    H211341   5.432   2.892   1.582
 3800TIP3   OH211342   5.541   5.538   2.510
 3800TIP3    H111343   5.485   5.573   2.440
 3800TIP3    H211344   5.626   5.579   2.495
 3801TIP3   OH211345   7.077   2.393   2.233
 3801TIP3    H111346   7.110   2.478   2.262
 3801TIP3    H211347   6.997   2.413   2.185
 3802TIP3   OH211348   6.947   1.144   5.888
 3802TIP3    H111349   7.040   1.160   5.869
 3802TIP3    H211350   6.933   1.186   5.973
 3803TIP3   OH211351   3.034   5.206   1.212
 3803TIP3    H111352   3.086   5.285   1.202
 3803TIP3    H211353   3.071   5.145   1.148
 3804TIP3   OH211354   4.629   7.112   0.300
 3804TIP3    H111355   4.714   7.158   0.299
 3804TIP3    H211356   4.639   7.042   0.236
 3805TIP3   OH211357   6.379   2.750   5.150
 3805TIP3    H111358   6.395   2.717   5.238
 3805TIP3    H211359   6.405   2.678   5.092
 3806TIP3   OH211360   4.663   2.302   0.275
 3806TIP3    H111361   4.609   2.303   0.196
 3806TIP3    H211362   4.601   2.287   0.346
 3807TIP3   OH211363   6.117   7.193   5.029
 3807TIP3    H111364   6.119   7.101   5.004
 3807TIP3    H211365   6.197   7.230   4.991
 3808TIP3   OH211366   4.355   7.115   2.728
 3808TIP3    H111367   4.365   7.034   2.780
 3808TIP3    H211368   4.445   7.148   2.720
 3809TIP3   OH211369   2.155   2.733   0.963
 3809TIP3    H111370   2.159   2.828   0.976
 3809TIP3    H211371   2.084   2.703   1.019
 3810TIP3   OH211372   2.989   1.982   3.751
 3810TIP3    H111373   2.923   1.916   3.727
 3810TIP3    H211374   3.034   2.001   3.668
 3811TIP3   OH211375   0.958   2.822   4.629
 3811TIP3    H111376   0.916   2.906   4.612
 3811TIP3    H211377   1.019   2.811   4.556
 3812TIP3   OH211378   5.931   5.024   0.721
 3812TIP3    H111379   6.012   4.991   0.761
 3812TIP3    H211380   5.947   5.019   0.627
 3813TIP3   OH211381   1.475   7.361   1.186
 3813TIP3    H111382   1.459   7.443   1.140
 3813TIP3    H211383   1.490   7.387   1.277
 3814TIP3   OH211384   1.272   2.231   4.794
 3814TIP3    H111385   1.326   2.289   4.740
 3814TIP3    H211386   1.198   2.209   4.739
 3815TIP3   OH211387   0.060   5.899   4.487
 3815TIP3    H111388  -0.016   5.841   4.500
 3815TIP3    H211389   0.044   5.941   4.403
 3816TIP3   OH211390   2.546   0.472   1.941
 3816TIP3    H111391   2.612   0.426   1.993
 3816TIP3    H211392   2.552   0.432   1.854
 3817TIP3   OH211393   2.570   4.779   4.033
 3817TIP3    H111394   2.647   4.835   4.023
 3817TIP3    H211395   2.597   4.696   3.994
 3818TIP3   OH211396   0.448   0.556   0.400
 3818TIP3    H111397   0.478   0.508   0.322
 3818TIP3    H211398   0.476   0.646   0.385
 3819TIP3   OH211399   6.853   5.546   3.722
 3819TIP3    H111400   6.810   5.612   3.667
 3819TIP3    H211401   6.933   5.589   3.753
 3820TIP3   OH211402   7.367   2.717   5.518
 3820TIP3    H111403   7.333   2.689   5.433
 3820TIP3    H211404   7.453   2.755   5.498
 3821TIP3   OH211405   8.208   3.289  -0.027
 3821TIP3    H111406   8.246   3.202  -0.016
 3821TIP3    H211407   8.215   3.329   0.059
 3822TIP3   OH211408   4.166   1.638   4.371
 3822TIP3    H111409   4.143   1.554   4.333
 3822TIP3    H211410   4.257   1.652   4.348
 3823TIP3   OH211411   5.671   0.669   5.528
 3823TIP3    H111412   5.753   0.714   5.508
 3823TIP3    H211413   5.639   0.712   5.607
 3824TIP3   OH211414   7.665   2.511   3.159
 3824TIP3    H111415   7.724   2.441   3.186
 3824TIP3    H211416   7.608   2.471   3.094
 3825TIP3   OH211417   2.975   1.057   1.052
 3825TIP3    H111418   2.885   1.064   1.020
 3825TIP3    H211419   2.968   1.059   1.147
 3826TIP3   OH211420   0.230   1.691   2.851
 3826TIP3    H111421   0.159   1.732   2.901
 3826TIP3    H211422   0.310   1.729   2.888
 3827TIP3   OH211423   2.918   6.843   3.260
 3827TIP3    H111424   2.999   6.889   3.239
 3827TIP3    H211425   2.934   6.753   3.230
 3828TIP3   OH211426   6.012   2.322   0.344
 3828TIP3    H111427   5.986   2.393   0.285
 3828TIP3    H211428   6.009   2.243   0.289
 3829TIP3   OH211429   4.354   0.070   3.745
 3829TIP3    H111430   4.436   0.023   3.726
 3829TIP3    H211431   4.377   0.163   3.734
 3830TIP3   OH211432   4.847   4.567   0.038
 3830TIP3    H111433   4.885   4.554  -0.049
 3830TIP3    H211434   4.753   4.552   0.025
 3831TIP3   OH211435   8.154   5.379   6.267
 3831TIP3    H111436   8.230   5.347   6.219
 3831TIP3    H211437   8.104   5.300   6.288
 3832TIP3   OH211438   6.290   1.133   1.039
 3832TIP3    H111439   6.244   1.073   1.097
 3832TIP3    H211440   6.255   1.220   1.060
 3833TIP3   OH211441   6.371   1.265   1.341
 3833TIP3    H111442   6.390   1.174   1.364
 3833TIP3    H211443   6.276   1.271   1.342
 3834TIP3   OH211444   8.165   4.958   0.908
 3834TIP3    H111445   8.104   4.994   0.972
 3834TIP3    H211446   8.119   4.884   0.869
 3835TIP3   OH211447   2.887   1.000   2.241
 3835TIP3    H111448   2.836   1.000   2.322
 3835TIP3    H211449   2.922   0.912   2.235
 3836TIP3   OH211450   3.977   4.300   3.291
 3836TIP3    H111451   3.955   4.222   3.341
 3836TIP3    H211452   4.051   4.274   3.236
 3837TIP3   OH211453   0.571   2.760   3.098
 3837TIP3    H111454   0.491   2.808   3.078
 3837TIP3    H211455   0.547   2.668   3.086
 3838TIP3   OH211456   6.099   4.318   3.682
 3838TIP3    H111457   6.110   4.262   3.605
 3838TIP3    H211458   6.016   4.364   3.668
 3839TIP3   OH211459   6.968   7.443   4.356
 3839TIP3    H111460   7.011   7.529   4.357
 3839TIP3    H211461   6.960   7.419   4.448
 3840TIP3   OH211462   7.981   6.478   0.667
 3840TIP3    H111463   7.997   6.440   0.753
 3840TIP3    H211464   7.886   6.471   0.654
 3841TIP3   OH211465   1.170   2.642   5.108
 3841TIP3    H111466   1.185   2.729   5.145
 3841TIP3    H211467   1.090   2.652   5.056
 3842TIP3   OH211468   5.979   3.652   1.951
 3842TIP3    H111469   5.971   3.747   1.940
 3842TIP3    H211470   6.069   3.632   1.925
 3843TIP3   OH211471   5.803   1.462   0.967
 3843TIP3    H111472   5.766   1.548   0.987
 3843TIP3    H211473   5.869   1.479   0.900
 3844TIP3   OH211474   1.008   0.082   3.164
 3844TIP3    H111475   0.950   0.026   3.112
 3844TIP3    H211476   0.987   0.171   3.134
 3845TIP3   OH211477   6.559   4.947   0.870
 3845TIP3    H111478   6.516   4.916   0.949
 3845TIP3    H211479   6.530   5.038   0.861
 3846TIP3   OH211480   7.106   5.604   1.892
 3846TIP3    H111481   7.049   5.549   1.839
 3846TIP3    H211482   7.195   5.574   1.871
 3847TIP3   OH211483   7.874   2.729   1.698
 3847TIP3    H111484   7.872   2.824   1.707
 3847TIP3    H211485   7.824   2.712   1.617
 3848TIP3   OH211486   1.044   0.972   1.761
 3848TIP3    H111487   1.104   1.047   1.764
 3848TIP3    H211488   1.101   0.896   1.749
 3849TIP3   OH211489   7.178   1.513   2.215
 3849TIP3    H111490   7.217   1.562   2.287
 3849TIP3    H211491   7.219   1.427   2.219
 3850TIP3   OH211492   8.094   3.300   4.554
 3850TIP3    H111493   8.182   3.306   4.518
 3850TIP3    H211494   8.066   3.211   4.533
 3851TIP3   OH211495   4.186   1.524   3.338
 3851TIP3    H111496   4.220   1.549   3.424
 3851TIP3    H211497   4.208   1.431   3.330
 3852TIP3   OH211498   3.856   0.358   4.302
 3852TIP3    H111499   3.937   0.401   4.274
 3852TIP3    H211500   3.828   0.407   4.379
 3853TIP3   OH211501   1.807   0.713   4.795
 3853TIP3    H111502   1.810   0.650   4.724
 3853TIP3    H211503   1.767   0.666   4.868
 3854TIP3   OH211504   7.029   2.919   0.045
 3854TIP3    H111505   7.037   2.953   0.134
 3854TIP3    H211506   7.113   2.875   0.029
 3855TIP3   OH211507   8.220   0.736   0.574
 3855TIP3    H111508   8.266   0.664   0.618
 3855TIP3    H211509   8.286   0.777   0.519
 3856TIP3   OH211510   1.792   1.475   5.063
 3856TIP3    H111511   1.773   1.569   5.065
 3856TIP3    H211512   1.841   1.459   5.144
 3857TIP3   OH211513   4.128   0.543   5.078
 3857TIP3    H111514   4.048   0.526   5.129
 3857TIP3    H211515   4.177   0.605   5.131
 3858TIP3   OH211516   6.478   5.265   3.611
 3858TIP3    H111517   6.548   5.247   3.549
 3858TIP3    H211518   6.497   5.353   3.643
 3859TIP3   OH211519   0.344   3.192   2.731
 3859TIP3    H111520   0.290   3.266   2.703
 3859TIP3    H211521   0.390   3.164   2.652
 3860TIP3   OH211522   6.648   1.304   5.112
 3860TIP3    H111523   6.663   1.282   5.020
 3860TIP3    H211524   6.672   1.225   5.160
 3861TIP3   OH211525   6.215   3.987   1.884
 3861TIP3    H111526   6.241   4.058   1.943
 3861TIP3    H211527   6.152   3.936   1.934
 3862TIP3   OH211528   0.305   4.971   1.058
 3862TIP3    H111529   0.372   5.009   1.002
 3862TIP3    H211530   0.289   4.885   1.019
 3863TIP3   OH211531   2.539   6.350   6.499
 3863TIP3    H111532   2.519   6.301   6.419
 3863TIP3    H211533   2.468   6.327   6.559
 3864TIP3   OH211534   1.960   0.935   3.541
 3864TIP3    H111535   2.038   0.970   3.584
 3864TIP3    H211536   1.990   0.853   3.501
 3865TIP3   OH211537   2.044   2.695   3.003
 3865TIP3    H111538   2.131   2.695   3.043
 3865TIP3    H211539   2.008   2.781   3.025
 3866TIP3   OH211540   6.768   7.628   1.963
 3866TIP3    H111541   6.737   7.696   2.024
 3866TIP3    H211542   6.716   7.551   1.985
 3867TIP3   OH211543   3.395   1.479   1.454
 3867TIP3    H111544   3.392   1.418   1.528
 3867TIP3    H211545   3.322   1.538   1.469
 3868TIP3   OH211546   2.793   6.374   0.533
 3868TIP3    H111547   2.843   6.414   0.604
 3868TIP3    H211548   2.701   6.394   0.554
 3869TIP3   OH211549   7.472   4.213   6.006
 3869TIP3    H111550   7.439   4.269   5.936
 3869TIP3    H211551   7.422   4.132   5.998
 3870TIP3   OH211552   4.699   4.030   0.141
 3870TIP3    H111553   4.606   4.028   0.163
 3870TIP3    H211554   4.720   3.940   0.116
 3871TIP3   OH211555   2.869   0.121   4.739
 3871TIP3    H111556   2.789   0.173   4.738
 3871TIP3    H211557   2.865   0.069   4.659
 3872TIP3   OH211558   1.674   7.266   0.256
 3872TIP3    H111559   1.700   7.322   0.183
 3872TIP3    H211560   1.755   7.247   0.303
 3873TIP3   OH211561   7.626   2.041   6.761
 3873TIP3    H111562   7.722   2.038   6.769
 3873TIP3    H211563   7.609   2.019   6.669
 3874TIP3   OH211564   1.757   0.843   1.111
 3874TIP3    H111565   1.828   0.805   1.058
 3874TIP3    H211566   1.744   0.930   1.074
 3875TIP3   OH211567   4.055   1.583   2.431
 3875TIP3    H111568   4.004   1.664   2.436
 3875TIP3    H211569   4.037   1.538   2.513
 3876TIP3   OH211570   3.065   3.114   1.643
 3876TIP3    H111571   3.093   3.084   1.730
 3876TIP3    H211572   3.114   3.059   1.582
 3877TIP3   OH211573   4.367   2.698   1.730
 3877TIP3    H111574   4.336   2.764   1.793
 3877TIP3    H211575   4.460   2.718   1.718
 3878TIP3   OH211576   3.088   1.411   6.008
 3878TIP3    H111577   2.997   1.390   6.029
 3878TIP3    H211578   3.119   1.334   5.960
 3879TIP3   OH211579   3.785   4.881   2.529
 3879TIP3    H111580   3.782   4.785   2.523
 3879TIP3    H211581   3.874   4.901   2.557
 3880TIP3   OH211582   3.897   7.828   2.300
 3880TIP3    H111583   3.963   7.774   2.257
 3880TIP3    H211584   3.932   7.844   2.387
 3881TIP3   OH211585   0.054   3.747   1.391
 3881TIP3    H111586  -0.042   3.742   1.389
 3881TIP3    H211587   0.083   3.665   1.351
 3882TIP3   OH211588   1.828   3.291   1.968
 3882TIP3    H111589   1.772   3.306   1.892
 3882TIP3    H211590   1.788   3.218   2.014
 3883TIP3   OH211591   2.317   1.655   4.562
 3883TIP3    H111592   2.344   1.746   4.569
 3883TIP3    H211593   2.296   1.628   4.652
 3884TIP3   OH211594   6.967   5.434   3.180
 3884TIP3    H111595   6.937   5.516   3.142
 3884TIP3    H211596   7.022   5.395   3.112
 3885TIP3   OH211597   3.933   1.900   5.054
 3885TIP3    H111598   3.989   1.966   5.095
 3885TIP3    H211599   3.995   1.839   5.012
 3886TIP3   OH211600   1.053   4.499   1.817
 3886TIP3    H111601   1.016   4.426   1.767
 3886TIP3    H211602   1.100   4.457   1.889
 3887TIP3   OH211603   3.808   0.227   4.032
 3887TIP3    H111604   3.875   0.239   3.965
 3887TIP3    H211605   3.805   0.310   4.079
 3888TIP3   OH211606   7.439   5.870   5.685
 3888TIP3    H111607   7.474   5.838   5.768
 3888TIP3    H211608   7.483   5.818   5.618
 3889TIP3   OH211609   2.153   4.613   4.590
 3889TIP3    H111610   2.085   4.550   4.613
 3889TIP3    H211611   2.169   4.598   4.497
 3890TIP3   OH211612   4.563   0.197   6.630
 3890TIP3    H111613   4.505   0.252   6.682
 3890TIP3    H211614   4.570   0.242   6.546
 3891TIP3   OH211615   5.731   2.835   0.317
 3891TIP3    H111616   5.782   2.852   0.238
 3891TIP3    H211617   5.655   2.892   0.309
 3892TIP3   OH211618   2.442   3.391   3.681
 3892TIP3    H111619   2.428   3.484   3.696
 3892TIP3    H211620   2.471   3.385   3.589
 3893TIP3   OH211621   4.806   1.943   0.167
 3893TIP3    H111622   4.890   1.922   0.127
 3893TIP3    H211623   4.827   2.002   0.239
 3894TIP3   OH211624   4.788   2.219   0.544
 3894TIP3    H111625   4.864   2.162   0.537
 3894TIP3    H211626   4.781   2.262   0.459
 3895TIP3   OH211627   2.161   2.669   1.375
 3895TIP3    H111628   2.137   2.728   1.446
 3895TIP3    H211629   2.193   2.590   1.419
 3896TIP3   OH211630   3.885   7.529   5.594
 3896TIP3    H111631   3.977   7.552   5.580
 3896TIP3    H211632   3.888   7.440   5.631
 3897TIP3   OH211633   4.708   4.616   4.089
 3897TIP3    H111634   4.642   4.684   4.079
 3897TIP3    H211635   4.706   4.594   4.182
 3898TIP3   OH211636   7.052   0.869   0.484
 3898TIP3    H111637   7.078   0.958   0.504
 3898TIP3    H211638   6.994   0.877   0.407
 3899TIP3   OH211639   5.169   6.077   2.712
 3899TIP3    H111640   5.224   6.142   2.755
 3899TIP3    H211641   5.115   6.041   2.783
 3900TIP3   OH211642   6.917   7.132   0.610
 3900TIP3    H111643   6.865   7.210   0.589
 3900TIP3    H211644   7.004   7.166   0.629
 3901TIP3   OH211645   7.514   3.643   4.709
 3901TIP3    H111646   7.585   3.628   4.647
 3901TIP3    H211647   7.438   3.665   4.655
 3902TIP3   OH211648   3.029   5.844   2.383
 3902TIP3    H111649   2.950   5.849   2.437
 3902TIP3    H211650   3.000   5.803   2.301
 3903TIP3   OH211651   0.559   3.970   5.246
 3903TIP3    H111652   0.653   3.958   5.259
 3903TIP3    H211653   0.549   3.979   5.151
 3904TIP3   OH211654   5.975   2.587   0.649
 3904TIP3    H111655   5.885   2.553   0.652
 3904TIP3    H211656   6.018   2.548   0.725
 3905TIP3   OH211657   4.989   2.980   4.048
 3905TIP3    H111658   4.955   3.032   3.975
 3905TIP3    H211659   4.955   2.892   4.033
 3906TIP3   OH211660   0.270   5.079   0.635
 3906TIP3    H111661   0.333   5.130   0.684
 3906TIP3    H211662   0.231   5.020   0.700
 3907TIP3   OH211663   4.801   0.753   3.595
 3907TIP3    H111664   4.890   0.724   3.612
 3907TIP3    H211665   4.804   0.848   3.612
 3908TIP3   OH211666   2.688   7.551   2.958
 3908TIP3    H111667   2.632   7.494   2.905
 3908TIP3    H211668   2.664   7.531   3.048
 3909TIP3   OH211669   2.486   6.105   5.143
 3909TIP3    H111670   2.499   6.095   5.049
 3909TIP3    H211671   2.403   6.061   5.161
 3910TIP3   OH211672   5.268   6.529   2.737
 3910TIP3    H111673   5.330   6.600   2.725
 3910TIP3    H211674   5.241   6.535   2.828
 3911TIP3   OH211675   3.345   2.413   2.557
 3911TIP3    H111676   3.381   2.476   2.494
 3911TIP3    H211677   3.384   2.329   2.531
 3912TIP3   OH211678   3.932   4.036   3.646
 3912TIP3    H111679   4.004   3.976   3.628
 3912TIP3    H211680   3.949   4.066   3.736
 3913TIP3   OH211681   0.352   1.284   1.715
 3913TIP3    H111682   0.282   1.314   1.658
 3913TIP3    H211683   0.316   1.208   1.760
 3914TIP3   OH211684   3.798   0.420   3.324
 3914TIP3    H111685   3.887   0.453   3.308
 3914TIP3    H211686   3.800   0.331   3.288
 3915TIP3   OH211687   1.144   2.070   5.285
 3915TIP3    H111688   1.064   2.093   5.331
 3915TIP3    H211689   1.127   2.094   5.194
 3916TIP3   OH211690   3.488   1.724   2.807
 3916TIP3    H111691   3.416   1.785   2.827
 3916TIP3    H211692   3.477   1.704   2.714
 3917TIP3   OH211693   2.131   1.477   1.216
 3917TIP3    H111694   2.175   1.392   1.226
 3917TIP3    H211695   2.052   1.458   1.165
 3918TIP3   OH211696   5.967   5.496   0.167
 3918TIP3    H111697   5.963   5.581   0.212
 3918TIP3    H211698   6.010   5.438   0.229
 3919TIP3   OH211699   3.781   4.295   4.575
 3919TIP3    H111700   3.701   4.282   4.625
 3919TIP3    H211701   3.850   4.260   4.631
 3920TIP3   OH211702   0.088   4.694   6.293
 3920TIP3    H111703   0.015   4.707   6.354
 3920TIP3    H211704   0.125   4.781   6.281
 3921TIP3   OH211705   2.970   3.854   3.842
 3921TIP3    H111706   2.891   3.899   3.813
 3921TIP3    H211707   2.991   3.793   3.770
 3922TIP3   OH211708   4.598   3.342   0.611
 3922TIP3    H111709   4.542   3.271   0.581
 3922TIP3    H211710   4.676   3.336   0.557
 3923TIP3   OH211711   6.914   7.658   1.478
 3923TIP3    H111712   6.937   7.673   1.569
 3923TIP3    H211713   6.987   7.697   1.428
 3924TIP3   OH211714   4.930   5.053   3.422
 3924TIP3    H111715   4.863   5.098   3.371
 3924TIP3    H211716   4.885   5.025   3.501
 3925TIP3   OH211717   2.305   6.691   5.619
 3925TIP3    H111718   2.380   6.726   5.571
 3925TIP3    H211719   2.229   6.731   5.577
 3926TIP3   OH211720   2.953   7.221   3.412
 3926TIP3    H111721   3.022   7.158   3.433
 3926TIP3    H211722   2.974   7.251   3.324
 3927TIP3   OH211723   7.245   3.397   3.332
 3927TIP3    H111724   7.292   3.454   3.272
 3927TIP3    H211725   7.207   3.456   3.397
 3928TIP3   OH211726   0.200   7.473   2.747
 3928TIP3    H111727   0.218   7.442   2.659
 3928TIP3    H211728   0.261   7.425   2.803
 3929TIP3   OH211729   7.593   7.783   5.197
 3929TIP3    H111730   7.634   7.788   5.110
 3929TIP3    H211731   7.544   7.865   5.205
 3930TIP3   OH211732   2.895   2.800   4.684
 3930TIP3    H111733   2.858   2.713   4.698
 3930TIP3    H211734   2.948   2.817   4.762
 3931TIP3   OH211735   4.605   2.492   6.268
 3931TIP3    H111736   4.635   2.442   6.193
 3931TIP3    H211737   4.601   2.428   6.340
 3932TIP3   OH211738   6.988   6.898   6.369
 3932TIP3    H111739   7.046   6.948   6.426
 3932TIP3    H211740   6.939   6.964   6.320
 3933TIP3   OH211741   4.627   4.406   5.235
 3933TIP3    H111742   4.563   4.436   5.299
 3933TIP3    H211743   4.617   4.311   5.233
 3934TIP3   OH211744   2.349   3.480   0.994
 3934TIP3    H111745   2.263   3.440   0.984
 3934TIP3    H211746   2.367   3.520   0.909
 3935TIP3   OH211747   2.293   6.442   1.199
 3935TIP3    H111748   2.198   6.436   1.211
 3935TIP3    H211749   2.322   6.351   1.190
 3936TIP3   OH211750   0.695   6.296   0.970
 3936TIP3    H111751   0.655   6.209   0.974
 3936TIP3    H211752   0.628   6.351   0.930
 3937TIP3   OH211753   4.484   5.082   4.710
 3937TIP3    H111754   4.521   5.158   4.666
 3937TIP3    H211755   4.406   5.116   4.754
 3938TIP3   OH211756   3.783   2.438   4.703
 3938TIP3    H111757   3.853   2.441   4.769
 3938TIP3    H211758   3.706   2.410   4.752
 3939TIP3   OH211759   5.762   3.124   6.460
 3939TIP3    H111760   5.771   3.157   6.371
 3939TIP3    H211761   5.803   3.191   6.515
 3940TIP3   OH211762   1.948   3.578   3.828
 3940TIP3    H111763   2.006   3.651   3.808
 3940TIP3    H211764   1.955   3.567   3.923
 3941TIP3   OH211765   5.529   5.014   5.339
 3941TIP3    H111766   5.460   4.948   5.351
 3941TIP3    H211767   5.482   5.097   5.333
 3942TIP3   OH211768   0.037   2.332   3.883
 3942TIP3    H111769  -0.038   2.382   3.853
 3942TIP3    H211770   0.008   2.292   3.965
 3943TIP3   OH211771   7.502   6.609   5.168
 3943TIP3    H111772   7.472   6.699   5.150
 3943TIP3    H211773   7.465   6.588   5.253
 3944TIP3   OH211774   3.535   7.366   1.208
 3944TIP3    H111775   3.464   7.353   1.145
 3944TIP3    H211776   3.518   7.300   1.276
 3945TIP3   OH211777   2.908   1.664   3.274
 3945TIP3    H111778   2.921   1.666   3.369
 3945TIP3    H211779   2.865   1.580   3.258
 3946TIP3   OH211780   7.623   7.701   0.624
 3946TIP3    H111781   7.559   7.645   0.579
 3946TIP3    H211782   7.674   7.640   0.678
 3947TIP3   OH211783   0.658   0.161   0.949
 3947TIP3    H111784   0.670   0.213   0.870
 3947TIP3    H211785   0.698   0.076   0.928
 3948TIP3   OH211786   7.004   2.974   5.707
 3948TIP3    H111787   6.945   2.908   5.744
 3948TIP3    H211788   6.952   3.017   5.639
 3949TIP3   OH211789   0.110   6.744   3.253
 3949TIP3    H111790   0.025   6.709   3.226
 3949TIP3    H211791   0.116   6.724   3.347
 3950TIP3   OH211792   0.483   7.631   3.803
 3950TIP3    H111793   0.397   7.659   3.834
 3950TIP3    H211794   0.524   7.591   3.880
 3951TIP3   OH211795   0.105   3.678   2.420
 3951TIP3    H111796   0.062   3.760   2.396
 3951TIP3    H211797   0.198   3.694   2.405
 3952TIP3   OH211798   1.274   5.578   2.810
 3952TIP3    H111799   1.251   5.525   2.886
 3952TIP3    H211800   1.341   5.639   2.842
 3953TIP3   OH211801   4.839   3.290   1.238
 3953TIP3    H111802   4.814   3.350   1.308
 3953TIP3    H211803   4.934   3.302   1.229
 3954TIP3   OH211804   2.821   2.325   1.266
 3954TIP3    H111805   2.758   2.269   1.313
 3954TIP3    H211806   2.889   2.264   1.236
 3955TIP3   OH211807   0.183   5.633   5.604
 3955TIP3    H111808   0.220   5.544   5.602
 3955TIP3    H211809   0.187   5.659   5.696
 3956TIP3   OH211810   5.285   6.931   0.226
 3956TIP3    H111811   5.255   7.016   0.193
 3956TIP3    H211812   5.256   6.868   0.162
 3957TIP3   OH211813   5.381   3.760   2.559
 3957TIP3    H111814   5.462   3.754   2.508
 3957TIP3    H211815   5.398   3.709   2.638
 3958TIP3   OH211816   4.023   2.662   5.507
 3958TIP3    H111817   3.963   2.668   5.432
 3958TIP3    H211818   4.026   2.569   5.528
 3959TIP3   OH211819   3.927   5.877   4.987
 3959TIP3    H111820   3.868   5.941   4.947
 3959TIP3    H211821   3.899   5.793   4.951
 3960TIP3   OH211822   0.934   7.502   0.120
 3960TIP3    H111823   0.882   7.471   0.047
 3960TIP3    H211824   0.870   7.525   0.187
 3961TIP3   OH211825   6.878   7.362   0.244
 3961TIP3    H111826   6.840   7.275   0.255
 3961TIP3    H211827   6.851   7.409   0.323
 3962TIP3   OH211828   2.881   1.165   3.283
 3962TIP3    H111829   2.867   1.121   3.367
 3962TIP3    H211830   2.882   1.094   3.219
 3963TIP3   OH211831   0.841   2.087   6.450
 3963TIP3    H111832   0.909   2.078   6.383
 3963TIP3    H211833   0.887   2.127   6.524
 3964TIP3   OH211834   3.050   4.144   0.436
 3964TIP3    H111835   3.095   4.203   0.497
 3964TIP3    H211836   3.096   4.060   0.446
 3965TIP3   OH211837   2.733   3.373   1.883
 3965TIP3    H111838   2.809   3.388   1.827
 3965TIP3    H211839   2.680   3.453   1.874
 3966TIP3   OH211840   4.213   7.485   0.438
 3966TIP3    H111841   4.165   7.405   0.414
 3966TIP3    H211842   4.178   7.552   0.379
 3967TIP3   OH211843   7.156   5.702   2.746
 3967TIP3    H111844   7.166   5.790   2.709
 3967TIP3    H211845   7.080   5.709   2.804
 3968TIP3   OH211846   4.738   0.631   6.228
 3968TIP3    H111847   4.783   0.715   6.236
 3968TIP3    H211848   4.657   0.651   6.181
 3969TIP3   OH211849   2.296   2.987   4.419
 3969TIP3    H111850   2.305   3.066   4.473
 3969TIP3    H211851   2.306   3.019   4.329
 3970TIP3   OH211852   4.413   1.961   5.105
 3970TIP3    H111853   4.475   1.962   5.032
 3970TIP3    H211854   4.434   1.880   5.152
 3971TIP3   OH211855   5.212   6.843   2.129
 3971TIP3    H111856   5.215   6.913   2.193
 3971TIP3    H211857   5.119   6.821   2.121
 3972TIP3   OH211858   7.674   2.096   3.627
 3972TIP3    H111859   7.742   2.160   3.605
 3972TIP3    H211860   7.633   2.130   3.706
 3973TIP3   OH211861   8.143   3.122   1.642
 3973TIP3    H111862   8.150   3.181   1.717
 3973TIP3    H211863   8.146   3.181   1.566
 3974TIP3   OH211864   2.932   7.795   1.547
 3974TIP3    H111865   2.869   7.723   1.542
 3974TIP3    H211866   2.890   7.859   1.606
 3975TIP3   OH211867   5.865   2.154   4.935
 3975TIP3    H111868   5.781   2.193   4.912
 3975TIP3    H211869   5.927   2.190   4.872
 3976TIP3   OH211870   3.037   0.778   6.578
 3976TIP3    H111871   3.048   0.836   6.503
 3976TIP3    H211872   2.963   0.815   6.626
 3977TIP3   OH211873   6.782   5.203   0.848
 3977TIP3    H111874   6.863   5.247   0.873
 3977TIP3    H211875   6.759   5.151   0.926
 3978TIP3   OH211876   0.332   5.400   5.596
 3978TIP3    H111877   0.301   5.378   5.508
 3978TIP3    H211878   0.419   5.361   5.601
 3979TIP3   OH211879   5.538   5.738   1.363
 3979TIP3    H111880   5.449   5.766   1.385
 3979TIP3    H211881   5.527   5.682   1.286
 3980TIP3   OH211882   2.883   0.489   5.506
 3980TIP3    H111883   2.797   0.505   5.468
 3980TIP3    H211884   2.939   0.556   5.467
 3981TIP3   OH211885   3.363   6.172   3.464
 3981TIP3    H111886   3.455   6.185   3.485
 3981TIP3    H211887   3.364   6.130   3.378
 3982TIP3   OH211888   6.753   7.692   4.166
 3982TIP3    H111889   6.683   7.745   4.128
 3982TIP3    H211890   6.713   7.606   4.178
 3983TIP3   OH211891   1.758   2.543   1.660
 3983TIP3    H111892   1.682   2.490   1.688
 3983TIP3    H211893   1.805   2.485   1.600
 3984TIP3   OH211894   7.820   1.124   5.839
 3984TIP3    H111895   7.768   1.046   5.858
 3984TIP3    H211896   7.839   1.162   5.925
 3985TIP3   OH211897   2.668   4.275   5.683
 3985TIP3    H111898   2.624   4.330   5.618
 3985TIP3    H211899   2.754   4.258   5.646
 3986TIP3   OH211900   2.873   2.495   1.061
 3986TIP3    H111901   2.855   2.451   1.144
 3986TIP3    H211902   2.929   2.569   1.085
 3987TIP3   OH211903   1.364   1.948   5.133
 3987TIP3    H111904   1.276   1.979   5.113
 3987TIP3    H211905   1.422   2.015   5.098
 3988TIP3   OH211906   4.747   4.374   2.000
 3988TIP3    H111907   4.789   4.440   1.944
 3988TIP3    H211908   4.801   4.372   2.079
 3989TIP3   OH211909   2.184   4.593   3.929
 3989TIP3    H111910   2.170   4.624   4.018
 3989TIP3    H211911   2.272   4.625   3.906
 3990TIP3   OH211912   0.808   1.700   6.063
 3990TIP3    H111913   0.758   1.634   6.015
 3990TIP3    H211914   0.897   1.692   6.028
 3991TIP3   OH211915   3.783   0.077   2.162
 3991TIP3    H111916   3.798   0.171   2.154
 3991TIP3    H211917   3.693   0.071   2.194
 3992TIP3   OH211918   1.930   0.575   5.677
 3992TIP3    H111919   1.848   0.582   5.725
 3992TIP3    H211920   1.938   0.658   5.630
 3993TIP3   OH211921   1.963   7.379   2.535
 3993TIP3    H111922   1.988   7.292   2.504
 3993TIP3    H211923   1.990   7.438   2.465
 3994TIP3   OH211924   7.725   3.659   5.928
 3994TIP3    H111925   7.769   3.714   5.864
 3994TIP3    H211926   7.696   3.720   5.996
 3995TIP3   OH211927   5.877   4.360   0.588
 3995TIP3    H111928   5.916   4.425   0.645
 3995TIP3    H211929   5.862   4.406   0.505
 3996TIP3   OH211930   5.879   3.529   0.411
 3996TIP3    H111931   5.844   3.512   0.499
 3996TIP3    H211932   5.936   3.605   0.422
 3997TIP3   OH211933   4.914   5.235   5.489
 3997TIP3    H111934   4.936   5.323   5.461
 3997TIP3    H211935   4.844   5.207   5.431
 3998TIP3   OH211936   4.938   5.999   6.425
 3998TIP3    H111937   4.981   5.918   6.448
 3998TIP3    H211938   5.009   6.059   6.402
 3999TIP3   OH211939   3.892   2.982   3.390
 3999TIP3    H111940   3.943   3.032   3.454
 3999TIP3    H211941   3.951   2.974   3.314
 4000TIP3   OH211942   7.536   0.133   2.162
 4000TIP3    H111943   7.632   0.133   2.166
 4000TIP3    H211944   7.509   0.160   2.250
 4001TIP3   OH211945   3.869   7.227   6.722
 4001TIP3    H111946   3.896   7.137   6.743
 4001TIP3    H211947   3.892   7.278   6.800
 4002TIP3   OH211948   7.087   4.229   3.852
 4002TIP3    H111949   7.089   4.258   3.944
 4002TIP3    H211950   7.045   4.300   3.805
 4003TIP3   OH211951   1.363   4.498   0.026
 4003TIP3    H111952   1.333   4.423  -0.024
 4003TIP3    H211953   1.285   4.526   0.075
 4004TIP3   OH211954   1.364   4.367   3.241
 4004TIP3    H111955   1.316   4.316   3.305
 4004TIP3    H211956   1.456   4.356   3.266
 4005TIP3   OH211957   7.094   1.669   1.645
 4005TIP3    H111958   7.162   1.727   1.680
 4005TIP3    H211959   7.139   1.618   1.578
 4006TIP3   OH211960   0.598   3.061   0.463
 4006TIP3    H111961   0.630   3.149   0.443
 4006TIP3    H211962   0.531   3.044   0.397
 4007TIP3   OH211963   6.069   3.145   1.534
 4007TIP3    H111964   5.987   3.175   1.573
 4007TIP3    H211965   6.055   3.152   1.439
 4008TIP3   OH211966   1.233   2.909   2.363
 4008TIP3    H111967   1.257   2.987   2.413
 4008TIP3    H211968   1.310   2.890   2.310
 4009TIP3   OH211969   4.664   7.631   2.327
 4009TIP3    H111970   4.743   7.628   2.381
 4009TIP3    H211971   4.608   7.694   2.371
 4010TIP3   OH211972   7.624   3.489   2.993
 4010TIP3    H111973   7.652   3.476   3.084
 4010TIP3    H211974   7.672   3.424   2.943
 4011TIP3   OH211975   5.217   2.491   2.379
 4011TIP3    H111976   5.295   2.545   2.368
 4011TIP3    H211977   5.156   2.522   2.312
 4012TIP3   OH211978   0.448   0.325   5.837
 4012TIP3    H111979   0.473   0.239   5.804
 4012TIP3    H211980   0.360   0.313   5.873
 4013TIP3   OH211981   3.803   0.281   1.863
 4013TIP3    H111982   3.835   0.194   1.839
 4013TIP3    H211983   3.796   0.328   1.780
 4014TIP3   OH211984   1.214   1.702   5.050
 4014TIP3    H111985   1.266   1.780   5.068
 4014TIP3    H211986   1.261   1.659   4.978
 4015TIP3   OH211987   0.381   2.133   4.002
 4015TIP3    H111988   0.312   2.072   3.976
 4015TIP3    H211989   0.375   2.204   3.938
 4016TIP3   OH211990   4.881   1.005   3.654
 4016TIP3    H111991   4.932   1.018   3.574
 4016TIP3    H211992   4.920   1.064   3.718
 4017TIP3   OH211993   4.847   2.920   6.095
 4017TIP3    H111994   4.914   2.880   6.151
 4017TIP3    H211995   4.777   2.855   6.091
 4018TIP3   OH211996   1.828   1.516   4.419
 4018TIP3    H111997   1.842   1.575   4.493
 4018TIP3    H211998   1.856   1.430   4.451
 4019TIP3   OH211999   1.661   3.235   0.510
 4019TIP3    H112000   1.606   3.157   0.520
 4019TIP3    H212001   1.749   3.206   0.532
 4020TIP3   OH212002   2.258   0.132   2.851
 4020TIP3    H112003   2.268   0.153   2.758
 4020TIP3    H212004   2.202   0.202   2.885
 4021TIP3   OH212005   5.843   4.021   4.466
 4021TIP3    H112006   5.927   3.976   4.469
 4021TIP3    H212007   5.782   3.959   4.506
 4022TIP3   OH212008   1.642   4.364   4.932
 4022TIP3    H112009   1.710   4.296   4.929
 4022TIP3    H212010   1.569   4.323   4.977
 4023TIP3   OH212011   7.603   0.490   4.511
 4023TIP3    H112012   7.621   0.505   4.418
 4023TIP3    H212013   7.508   0.504   4.519
 4024TIP3   OH212014   0.242   7.173   0.347
 4024TIP3    H112015   0.323   7.154   0.394
 4024TIP3    H212016   0.270   7.220   0.268
 4025TIP3   OH212017   5.533   3.286   4.247
 4025TIP3    H112018   5.454   3.325   4.211
 4025TIP3    H212019   5.538   3.320   4.337
 4026TIP3   OH212020   7.765   4.153   1.559
 4026TIP3    H112021   7.843   4.099   1.572
 4026TIP3    H212022   7.745   4.187   1.647
 4027TIP3   OH212023   3.695   3.004   2.966
 4027TIP3    H112024   3.703   2.909   2.981
 4027TIP3    H212025   3.781   3.030   2.934
 4028TIP3   OH212026   3.752   6.900   4.864
 4028TIP3    H112027   3.768   6.833   4.930
 4028TIP3    H212028   3.839   6.933   4.841
 4029TIP3   OH212029   1.775   0.489   3.007
 4029TIP3    H112030   1.772   0.476   2.912
 4029TIP3    H212031   1.860   0.531   3.022
 4030TIP3   OH212032   3.300   4.895   2.751
 4030TIP3    H112033   3.282   4.979   2.710
 4030TIP3    H212034   3.222   4.877   2.804
 4031TIP3   OH212035   5.060   2.911   0.823
 4031TIP3    H112036   4.975   2.871   0.843
 4031TIP3    H212037   5.109   2.842   0.779
 4032TIP3   OH212038   4.001   2.825   2.542
 4032TIP3    H112039   4.050   2.767   2.601
 4032TIP3    H212040   3.930   2.860   2.596
 4033TIP3   OH212041   6.220   0.944   2.223
 4033TIP3    H112042   6.294   0.959   2.164
 4033TIP3    H212043   6.176   1.029   2.227
 4034TIP3   OH212044   0.593   0.535   2.796
 4034TIP3    H112045   0.654   0.525   2.723
 4034TIP3    H212046   0.649   0.553   2.871
 4035TIP3   OH212047   3.081   4.910   2.894
 4035TIP3    H112048   3.123   4.904   2.980
 4035TIP3    H212049   3.028   4.990   2.899
 4036TIP3   OH212050   7.479   2.396   2.159
 4036TIP3    H112051   7.568   2.391   2.124
 4036TIP3    H212052   7.422   2.385   2.083
 4037TIP3   OH212053   7.828   1.481   1.842
 4037TIP3    H112054   7.805   1.565   1.802
 4037TIP3    H212055   7.786   1.483   1.928
 4038TIP3   OH212056   4.151   4.928   1.088
 4038TIP3    H112057   4.208   4.985   1.140
 4038TIP3    H212058   4.074   4.982   1.070
 4039TIP3   OH212059   4.777   7.598   1.754
 4039TIP3    H112060   4.854   7.644   1.788
 4039TIP3    H212061   4.783   7.510   1.792
 4040TIP3   OH212062   4.950   6.357   4.098
 4040TIP3    H112063   4.858   6.353   4.125
 4040TIP3    H212064   4.999   6.334   4.176
 4041TIP3   OH212065   3.416   4.651   0.495
 4041TIP3    H112066   3.413   4.599   0.576
 4041TIP3    H212067   3.506   4.639   0.463
 4042TIP3   OH212068   1.821   3.361   0.060
 4042TIP3    H112069   1.740   3.412   0.061
 4042TIP3    H212070   1.883   3.415   0.010
 4043TIP3   OH212071   1.922   6.138   3.727
 4043TIP3    H112072   2.010   6.115   3.694
 4043TIP3    H212073   1.862   6.103   3.660
 4044TIP3   OH212074   7.163   6.515   4.011
 4044TIP3    H112075   7.223   6.589   4.023
 4044TIP3    H212076   7.076   6.552   4.029
 4045TIP3   OH212077   7.471   2.707   4.823
 4045TIP3    H112078   7.554   2.752   4.810
 4045TIP3    H212079   7.409   2.753   4.766
 4046TIP3   OH212080   1.439   5.691   0.521
 4046TIP3    H112081   1.440   5.655   0.610
 4046TIP3    H212082   1.516   5.748   0.518
 4047TIP3   OH212083   2.962   0.559   4.741
 4047TIP3    H112084   2.893   0.608   4.695
 4047TIP3    H212085   2.917   0.516   4.814
 4048TIP3   OH212086   5.812   7.338   0.213
 4048TIP3    H112087   5.907   7.348   0.208
 4048TIP3    H212088   5.777   7.427   0.206
 4049TIP3   OH212089   0.705   6.774   3.699
 4049TIP3    H112090   0.695   6.760   3.793
 4049TIP3    H212091   0.638   6.717   3.660
 4050TIP3   OH212092   6.470   0.132   1.843
 4050TIP3    H112093   6.504   0.064   1.785
 4050TIP3    H212094   6.439   0.085   1.920
 4051TIP3   OH212095   6.020   6.374   6.716
 4051TIP3    H112096   5.961   6.406   6.648
 4051TIP3    H212097   6.050   6.452   6.762
 4052TIP3   OH212098   7.631   7.486   1.122
 4052TIP3    H112099   7.668   7.573   1.137
 4052TIP3    H212100   7.545   7.488   1.164
 4053TIP3   OH212101   5.334   7.602   6.203
 4053TIP3    H112102   5.340   7.696   6.218
 4053TIP3    H212103   5.307   7.565   6.288
 4054TIP3   OH212104   6.355   7.272   4.955
 4054TIP3    H112105   6.417   7.344   4.948
 4054TIP3    H212106   6.343   7.242   4.865
 4055TIP3   OH212107   6.647   2.944   1.217
 4055TIP3    H112108   6.674   2.958   1.308
 4055TIP3    H212109   6.694   2.865   1.190
 4056TIP3   OH212110   5.196   0.270   2.061
 4056TIP3    H112111   5.167   0.342   2.006
 4056TIP3    H212112   5.123   0.253   2.120
 4057TIP3   OH212113   6.646   5.334   2.425
 4057TIP3    H112114   6.642   5.428   2.412
 4057TIP3    H212115   6.657   5.322   2.519
 4058TIP3   OH212116   6.648   6.127   5.496
 4058TIP3    H112117   6.683   6.151   5.411
 4058TIP3    H212118   6.710   6.163   5.559
 4059TIP3   OH212119   7.790   3.820   5.536
 4059TIP3    H112120   7.760   3.752   5.475
 4059TIP3    H212121   7.847   3.774   5.597
 4060TIP3   OH212122   2.046   2.280   5.170
 4060TIP3    H112123   2.069   2.316   5.084
 4060TIP3    H212124   2.125   2.235   5.199
 4061TIP3   OH212125   1.821   2.641   4.058
 4061TIP3    H112126   1.865   2.688   3.988
 4061TIP3    H212127   1.735   2.619   4.022
 4062TIP3   OH212128   4.442   1.567   3.818
 4062TIP3    H112129   4.501   1.606   3.883
 4062TIP3    H212130   4.367   1.627   3.814
 4063TIP3   OH212131   6.612   1.530   6.025
 4063TIP3    H112132   6.525   1.537   5.986
 4063TIP3    H212133   6.599   1.481   6.106
 4064TIP3   OH212134   5.358   0.322   3.314
 4064TIP3    H112135   5.277   0.284   3.348
 4064TIP3    H212136   5.377   0.269   3.236
 4065TIP3   OH212137   7.604   7.019   4.923
 4065TIP3    H112138   7.669   6.963   4.881
 4065TIP3    H212139   7.585   7.087   4.858
 4066TIP3   OH212140   1.302   0.154   2.795
 4066TIP3    H112141   1.269   0.068   2.819
 4066TIP3    H212142   1.396   0.151   2.815
 4067TIP3   OH212143   4.223  -0.033   4.585
 4067TIP3    H112144   4.259  -0.091   4.651
 4067TIP3    H212145   4.250   0.055   4.612
 4068TIP3   OH212146   0.502   6.012   1.654
 4068TIP3    H112147   0.440   6.020   1.582
 4068TIP3    H212148   0.534   6.102   1.667
 4069TIP3   OH212149   1.667   3.421   4.606
 4069TIP3    H112150   1.716   3.503   4.605
 4069TIP3    H212151   1.723   3.359   4.653
 4070TIP3   OH212152   0.513   1.936   0.593
 4070TIP3    H112153   0.500   1.892   0.677
 4070TIP3    H212154   0.591   1.990   0.606
 4071TIP3   OH212155   3.439   7.016   2.918
 4071TIP3    H112156   3.516   6.988   2.869
 4071TIP3    H212157   3.445   7.112   2.918
 4072TIP3   OH212158   4.770   6.993   3.395
 4072TIP3    H112159   4.725   7.076   3.380
 4072TIP3    H212160   4.834   6.986   3.323
 4073TIP3   OH212161   8.323   6.875   3.015
 4073TIP3    H112162   8.231   6.855   2.997
 4073TIP3    H212163   8.348   6.811   3.081
 4074TIP3   OH212164   5.393   5.228   3.008
 4074TIP3    H112165   5.423   5.307   3.051
 4074TIP3    H212166   5.298   5.227   3.023
 4075TIP3   OH212167   2.519   4.713   3.086
 4075TIP3    H112168   2.563   4.670   3.159
 4075TIP3    H212169   2.540   4.806   3.097
 4076TIP3   OH212170   6.390   3.856   6.787
 4076TIP3    H112171   6.463   3.823   6.839
 4076TIP3    H212172   6.421   3.853   6.697
 4077TIP3   OH212173   6.987   2.175   2.718
 4077TIP3    H112174   6.974   2.224   2.637
 4077TIP3    H212175   7.044   2.102   2.693
 4078TIP3   OH212176   4.831   0.896   0.213
 4078TIP3    H112177   4.923   0.882   0.190
 4078TIP3    H212178   4.832   0.968   0.276
 4079TIP3   OH212179   1.807   1.932   1.858
 4079TIP3    H112180   1.825   1.870   1.787
 4079TIP3    H212181   1.894   1.963   1.884
 4080TIP3   OH212182   7.863   3.099   0.680
 4080TIP3    H112183   7.953   3.131   0.678
 4080TIP3    H212184   7.810   3.175   0.656
 4081TIP3   OH212185   3.794   3.626   3.419
 4081TIP3    H112186   3.781   3.667   3.504
 4081TIP3    H212187   3.732   3.553   3.418
 4082TIP3   OH212188   4.776   5.675   5.580
 4082TIP3    H112189   4.685   5.649   5.569
 4082TIP3    H212190   4.778   5.767   5.552
 4083TIP3   OH212191   1.642   4.769   5.636
 4083TIP3    H112192   1.607   4.727   5.715
 4083TIP3    H212193   1.736   4.771   5.650
 4084TIP3   OH212194   4.057   3.896   1.079
 4084TIP3    H112195   4.114   3.851   1.142
 4084TIP3    H212196   4.050   3.985   1.114
 4085TIP3   OH212197   4.011   5.529   4.490
 4085TIP3    H112198   4.051   5.530   4.403
 4085TIP3    H212199   3.940   5.464   4.483
 4086TIP3   OH212200   4.155   3.908   2.333
 4086TIP3    H112201   4.209   3.944   2.263
 4086TIP3    H212202   4.196   3.939   2.414
 4087TIP3   OH212203   8.071   6.698   5.506
 4087TIP3    H112204   8.005   6.640   5.546
 4087TIP3    H212205   8.029   6.784   5.503
 4088TIP3   OH212206   4.532   4.481   4.600
 4088TIP3    H112207   4.600   4.545   4.623
 4088TIP3    H212208   4.461   4.498   4.662
 4089TIP3   OH212209   5.068   1.507   3.493
 4089TIP3    H112210   5.072   1.507   3.397
 4089TIP3    H212211   5.011   1.580   3.515
 4090TIP3   OH212212   3.420   7.358   6.543
 4090TIP3    H112213   3.512   7.368   6.568
 4090TIP3    H212214   3.406   7.425   6.476
 4091TIP3   OH212215   7.619   0.119   5.481
 4091TIP3    H112216   7.603   0.052   5.414
 4091TIP3    H212217   7.579   0.083   5.560
 4092TIP3   OH212218   1.121   4.575   3.181
 4092TIP3    H112219   1.202   4.525   3.187
 4092TIP3    H212220   1.120   4.608   3.091
 4093TIP3   OH212221   6.734   0.901   2.140
 4093TIP3    H112222   6.781   0.818   2.129
 4093TIP3    H212223   6.671   0.883   2.210
 4094TIP3   OH212224   3.264   1.338   5.170
 4094TIP3    H112225   3.348   1.346   5.125
 4094TIP3    H212226   3.280   1.373   5.258
 4095TIP3   OH212227   6.463   6.936   4.918
 4095TIP3    H112228   6.452   6.843   4.934
 4095TIP3    H212229   6.379   6.965   4.884
 4096TIP3   OH212230   6.857   0.411   2.916
 4096TIP3    H112231   6.905   0.353   2.975
 4096TIP3    H212232   6.796   0.354   2.870
 4097TIP3   OH212233   7.675   0.841   3.917
 4097TIP3    H112234   7.627   0.900   3.859
 4097TIP3    H212235   7.612   0.773   3.938
 4098TIP3   OH212236   4.620   1.295   4.311
 4098TIP3    H112237   4.564   1.277   4.387
 4098TIP3    H212238   4.679   1.364   4.342
 4099TIP3   OH212239   7.260   0.180   1.686
 4099TIP3    H112240   7.242   0.271   1.663
 4099TIP3    H212241   7.306   0.185   1.769
 4100TIP3   OH212242   5.815   7.531   1.153
 4100TIP3    H112243   5.807   7.621   1.122
 4100TIP3    H212244   5.904   7.505   1.128
 4101TIP3   OH212245   4.316   4.638   1.351
 4101TIP3    H112246   4.255   4.650   1.424
 4101TIP3    H212247   4.260   4.621   1.275
 4102TIP3   OH212248   1.395   5.919   2.670
 4102TIP3    H112249   1.428   5.902   2.758
 4102TIP3    H212250   1.445   5.995   2.639
 4103TIP3   OH212251   1.359   0.370   6.273
 4103TIP3    H112252   1.437   0.331   6.311
 4103TIP3    H212253   1.358   0.460   6.305
 4104TIP3   OH212254   3.921   3.297   4.948
 4104TIP3    H112255   3.988   3.239   4.984
 4104TIP3    H212256   3.951   3.386   4.970
 4105TIP3   OH212257   7.327   5.666   1.634
 4105TIP3    H112258   7.329   5.701   1.723
 4105TIP3    H212259   7.387   5.722   1.585
 4106TIP3   OH212260   6.520   5.385   4.741
 4106TIP3    H112261   6.600   5.425   4.707
 4106TIP3    H212262   6.533   5.380   4.835
 4107TIP3   OH212263   2.644   0.832   5.884
 4107TIP3    H112264   2.630   0.778   5.962
 4107TIP3    H212265   2.680   0.772   5.819
 4108TIP3   OH212266   7.719   2.690   4.407
 4108TIP3    H112267   7.634   2.647   4.417
 4108TIP3    H212268   7.757   2.690   4.494
 4109TIP3   OH212269   0.278   4.492   4.271
 4109TIP3    H112270   0.288   4.403   4.306
 4109TIP3    H212271   0.226   4.537   4.337
 4110TIP3   OH212272   6.561   3.400   4.367
 4110TIP3    H112273   6.552   3.484   4.412
 4110TIP3    H212274   6.510   3.410   4.287
 4111TIP3   OH212275   4.128   7.039   0.025
 4111TIP3    H112276   4.083   6.964   0.065
 4111TIP3    H212277   4.181   7.000  -0.045
 4112TIP3   OH212278   4.645   4.608   3.674
 4112TIP3    H112279   4.603   4.546   3.734
 4112TIP3    H212280   4.615   4.581   3.587
 4113TIP3   OH212281   3.406   6.656   0.183
 4113TIP3    H112282   3.333   6.707   0.149
 4113TIP3    H212283   3.457   6.632   0.105
 4114TIP3   OH212284   1.831   3.945   2.625
 4114TIP3    H112285   1.842   3.908   2.712
 4114TIP3    H212286   1.913   3.925   2.580
 4115TIP3   OH212287   3.991   6.033   5.993
 4115TIP3    H112288   3.898   6.029   5.973
 4115TIP3    H212289   4.030   5.963   5.940
 4116TIP3   OH212290   4.918   3.449   4.034
 4116TIP3    H112291   4.980   3.508   3.992
 4116TIP3    H212292   4.946   3.446   4.125
 4117TIP3   OH212293   7.502   7.555   5.444
 4117TIP3    H112294   7.596   7.555   5.427
 4117TIP3    H212295   7.469   7.630   5.395
 4118TIP3   OH212296   6.796   3.151   5.263
 4118TIP3    H112297   6.790   3.114   5.175
 4118TIP3    H212298   6.889   3.144   5.286
 4119TIP3   OH212299   1.744   7.516   6.392
 4119TIP3    H112300   1.666   7.476   6.430
 4119TIP3    H212301   1.740   7.607   6.418
 4120TIP3   OH212302   2.567   5.948   3.991
 4120TIP3    H112303   2.626   5.881   4.026
 4120TIP3    H212304   2.537   5.913   3.908
 4121TIP3   OH212305   5.785   5.583   2.387
 4121TIP3    H112306   5.845   5.558   2.458
 4121TIP3    H212307   5.798   5.516   2.320
 4122TIP3   OH212308   1.301   6.033   4.308
 4122TIP3    H112309   1.326   6.112   4.356
 4122TIP3    H212310   1.329   6.049   4.218
 4123TIP3   OH212311   5.797   7.174   3.801
 4123TIP3    H112312   5.721   7.213   3.758
 4123TIP3    H212313   5.835   7.245   3.852
 4124TIP3   OH212314   8.161   5.135   4.095
 4124TIP3    H112315   8.131   5.062   4.151
 4124TIP3    H212316   8.160   5.099   4.007
 4125TIP3   OH212317   6.124   7.449   2.006
 4125TIP3    H112318   6.196   7.389   2.026
 4125TIP3    H212319   6.116   7.446   1.911
 4126TIP3   OH212320   7.862   2.688   2.439
 4126TIP3    H112321   7.862   2.593   2.453
 4126TIP3    H212322   7.937   2.719   2.490
 4127TIP3   OH212323   8.029   6.373   1.309
 4127TIP3    H112324   8.003   6.465   1.312
 4127TIP3    H212325   8.114   6.374   1.264
 4128TIP3   OH212326   2.925   0.934   1.920
 4128TIP3    H112327   2.941   0.864   1.857
 4128TIP3    H212328   2.829   0.941   1.925
 4129TIP3   OH212329   3.927   5.041   5.779
 4129TIP3    H112330   3.983   5.101   5.730
 4129TIP3    H212331   3.884   4.988   5.711
 4130TIP3   OH212332   3.438   1.596   5.335
 4130TIP3    H112333   3.408   1.506   5.350
 4130TIP3    H212334   3.500   1.588   5.263
 4131TIP3   OH212335   3.071   2.746   1.109
 4131TIP3    H112336   3.085   2.807   1.182
 4131TIP3    H212337   3.014   2.794   1.049
 4132TIP3   OH212338   8.199   1.625   4.753
 4132TIP3    H112339   8.149   1.591   4.679
 4132TIP3    H212340   8.140   1.689   4.794
 4133TIP3   OH212341   5.893   6.235   0.913
 4133TIP3    H112342   5.968   6.259   0.967
 4133TIP3    H212343   5.825   6.298   0.937
 4134TIP3   OH212344   1.779   4.582   5.299
 4134TIP3    H112345   1.787   4.553   5.208
 4134TIP3    H212346   1.866   4.613   5.322
 4135TIP3   OH212347   1.194   1.287   1.007
 4135TIP3    H112348   1.195   1.268   1.101
 4135TIP3    H212349   1.126   1.229   0.972
 4136TIP3   OH212350   1.775   7.042   4.204
 4136TIP3    H112351   1.814   6.955   4.198
 4136TIP3    H212352   1.810   7.089   4.129
 4137TIP3   OH212353   4.320   2.085   3.990
 4137TIP3    H112354   4.316   2.179   3.973
 4137TIP3    H212355   4.234   2.064   4.028
 4138TIP3   OH212356   6.769   7.625   3.733
 4138TIP3    H112357   6.707   7.603   3.664
 4138TIP3    H212358   6.716   7.626   3.813
 4139TIP3   OH212359   1.048   7.731   2.555
 4139TIP3    H112360   1.021   7.821   2.573
 4139TIP3    H212361   1.014   7.680   2.629
 4140TIP3   OH212362   2.091   4.714   1.716
 4140TIP3    H112363   2.125   4.686   1.630
 4140TIP3    H212364   1.997   4.724   1.701
 4141TIP3   OH212365   5.978   6.393   6.307
 4141TIP3    H112366   5.922   6.318   6.285
 4141TIP3    H212367   5.919   6.455   6.350
 4142TIP3   OH212368   6.450   5.540   0.763
 4142TIP3    H112369   6.532   5.504   0.729
 4142TIP3    H212370   6.472   5.628   0.792
 4143TIP3   OH212371   4.517   3.345   3.339
 4143TIP3    H112372   4.526   3.250   3.340
 4143TIP3    H212373   4.439   3.361   3.286
 4144TIP3   OH212374   1.023   4.930   4.460
 4144TIP3    H112375   1.104   4.936   4.409
 4144TIP3    H212376   1.032   4.999   4.526
 4145TIP3   OH212377   2.680   5.138   6.663
 4145TIP3    H112378   2.691   5.078   6.737
 4145TIP3    H212379   2.585   5.144   6.651
 4146TIP3   OH212380   2.051   3.169   0.130
 4146TIP3    H112381   1.983   3.230   0.101
 4146TIP3    H212382   2.011   3.082   0.119
 4147TIP3   OH212383   5.859   3.870   2.229
 4147TIP3    H112384   5.766   3.871   2.204
 4147TIP3    H212385   5.863   3.808   2.302
 4148TIP3   OH212386   4.314   3.456   5.933
 4148TIP3    H112387   4.321   3.548   5.956
 4148TIP3    H212388   4.294   3.412   6.016
 4149TIP3   OH212389   6.412   2.909   0.963
 4149TIP3    H112390   6.473   2.847   1.003
 4149TIP3    H212391   6.423   2.896   0.869
 4150TIP3   OH212392   7.199   7.026   6.754
 4150TIP3    H112393   7.241   6.944   6.728
 4150TIP3    H212394   7.167   7.063   6.671
 4151TIP3   OH212395   6.424   6.333   6.830
 4151TIP3    H112396   6.394   6.403   6.771
 4151TIP3    H212397   6.430   6.255   6.774
 4152TIP3   OH212398   4.126   1.080   5.459
 4152TIP3    H112399   4.212   1.052   5.490
 4152TIP3    H212400   4.144   1.154   5.401
 4153TIP3   OH212401   5.394   4.794   2.888
 4153TIP3    H112402   5.350   4.787   2.972
 4153TIP3    H212403   5.380   4.710   2.845
 4154TIP3   OH212404   3.942   5.539   1.498
 4154TIP3    H112405   3.932   5.449   1.530
 4154TIP3    H212406   3.934   5.531   1.402
 4155TIP3   OH212407   2.330   6.017   6.595
 4155TIP3    H112408   2.371   6.009   6.681
 4155TIP3    H212409   2.311   6.110   6.586
 4156TIP3   OH212410   6.084   1.942   5.750
 4156TIP3    H112411   6.113   1.851   5.752
 4156TIP3    H212412   6.151   1.988   5.700
 4157TIP3   OH212413   6.567   5.257   6.757
 4157TIP3    H112414   6.487   5.282   6.802
 4157TIP3    H212415   6.539   5.235   6.668
 4158TIP3   OH212416   4.096   0.080   5.847
 4158TIP3    H112417   4.170   0.140   5.851
 4158TIP3    H212418   4.061   0.091   5.758
 4159TIP3   OH212419   3.945   0.925   3.618
 4159TIP3    H112420   3.919   0.837   3.646
 4159TIP3    H212421   4.029   0.913   3.574
 4160TIP3   OH212422   0.844   4.650   5.665
 4160TIP3    H112423   0.794   4.655   5.747
 4160TIP3    H212424   0.867   4.557   5.657
 4161TIP3   OH212425   4.922   4.575   1.954
 4161TIP3    H112426   4.965   4.602   1.873
 4161TIP3    H212427   4.994   4.548   2.011
 4162TIP3   OH212428   7.659   3.293   5.917
 4162TIP3    H112429   7.665   3.275   5.823
 4162TIP3    H212430   7.577   3.252   5.943
 4163TIP3   OH212431   1.740   6.181   4.317
 4163TIP3    H112432   1.726   6.254   4.377
 4163TIP3    H212433   1.713   6.214   4.232
 4164TIP3   OH212434   6.190   5.842   2.838
 4164TIP3    H112435   6.246   5.894   2.780
 4164TIP3    H212436   6.241   5.833   2.919
 4165TIP3   OH212437   3.102   2.983   0.218
 4165TIP3    H112438   3.189   3.008   0.188
 4165TIP3    H212439   3.090   3.030   0.300
 4166TIP3   OH212440   4.654   2.675   2.561
 4166TIP3    H112441   4.688   2.701   2.476
 4166TIP3    H212442   4.559   2.682   2.552
 4167TIP3   OH212443   7.172   0.662   1.816
 4167TIP3    H112444   7.267   0.670   1.811
 4167TIP3    H212445   7.140   0.750   1.795
 4168TIP3   OH212446   3.394   2.409   4.298
 4168TIP3    H112447   3.438   2.486   4.333
 4168TIP3    H212448   3.367   2.359   4.376
 4169TIP3   OH212449   3.481   0.985   6.756
 4169TIP3    H112450   3.390   0.984   6.726
 4169TIP3    H212451   3.523   1.052   6.701
 4170TIP3   OH212452   1.517   0.214   5.109
 4170TIP3    H112453   1.489   0.296   5.069
 4170TIP3    H212454   1.586   0.181   5.052
 4171TIP3   OH212455   6.605   3.784   1.543
 4171TIP3    H112456   6.580   3.702   1.583
 4171TIP3    H212457   6.701   3.784   1.545
 4172TIP3   OH212458   0.855   7.132   3.170
 4172TIP3    H112459   0.890   7.079   3.098
 4172TIP3    H212460   0.766   7.099   3.183
 4173TIP3   OH212461   3.250   3.239   6.387
 4173TIP3    H112462   3.282   3.199   6.468
 4173TIP3    H212463   3.191   3.174   6.350
 4174TIP3   OH212464   3.822   0.858   4.785
 4174TIP3    H112465   3.775   0.913   4.847
 4174TIP3    H212466   3.895   0.822   4.836
 4175TIP3   OH212467   1.657   2.907   5.203
 4175TIP3    H112468   1.669   2.986   5.255
 4175TIP3    H212469   1.741   2.893   5.159
 4176TIP3   OH212470   3.843   0.862   1.817
 4176TIP3    H112471   3.871   0.912   1.893
 4176TIP3    H212472   3.859   0.771   1.840
 4177TIP3   OH212473   6.576   5.299   5.292
 4177TIP3    H112474   6.623   5.291   5.209
 4177TIP3    H212475   6.487   5.272   5.272
 4178TIP3   OH212476   0.819   0.379   1.077
 4178TIP3    H112477   0.794   0.442   1.009
 4178TIP3    H212478   0.769   0.300   1.055
 4179TIP3   OH212479   6.618   2.578   5.929
 4179TIP3    H112480   6.695   2.635   5.926
 4179TIP3    H212481   6.650   2.493   5.898
 4180TIP3   OH212482   2.632   4.707   0.800
 4180TIP3    H112483   2.698   4.638   0.803
 4180TIP3    H212484   2.666   4.774   0.859
 4181TIP3   OH212485   5.003   4.171   2.051
 4181TIP3    H112486   5.069   4.176   2.120
 4181TIP3    H212487   5.010   4.082   2.016
 4182TIP3   OH212488   5.850   3.363   3.102
 4182TIP3    H112489   5.885   3.337   3.187
 4182TIP3    H212490   5.756   3.370   3.116
 4183TIP3   OH212491   1.014   7.729   5.611
 4183TIP3    H112492   0.955   7.805   5.612
 4183TIP3    H212493   1.035   7.717   5.519
 4184TIP3   OH212494   3.197   7.235   6.523
 4184TIP3    H112495   3.144   7.299   6.475
 4184TIP3    H212496   3.287   7.261   6.507
 4185TIP3   OH212497   7.225   1.828   1.442
 4185TIP3    H112498   7.181   1.758   1.394
 4185TIP3    H212499   7.155   1.890   1.462
 4186TIP3   OH212500   2.880   7.030   3.733
 4186TIP3    H112501   2.866   7.048   3.640
 4186TIP3    H212502   2.909   7.114   3.770
 4187TIP3   OH212503   7.035   5.665   1.399
 4187TIP3    H112504   7.094   5.656   1.324
 4187TIP3    H212505   7.029   5.759   1.414
 4188TIP3   OH212506   2.112   5.877   2.811
 4188TIP3    H112507   2.075   5.926   2.737
 4188TIP3    H212508   2.037   5.836   2.852
 4189TIP3   OH212509   1.776   0.500  -0.002
 4189TIP3    H112510   1.697   0.455   0.027
 4189TIP3    H212511   1.826   0.433  -0.048
 4190TIP3   OH212512   2.521   0.660   0.700
 4190TIP3    H112513   2.591   0.627   0.756
 4190TIP3    H212514   2.511   0.593   0.632
 4191TIP3   OH212515   0.183   0.859   3.992
 4191TIP3    H112516   0.178   0.928   4.058
 4191TIP3    H212517   0.158   0.902   3.910
 4192TIP3   OH212518   6.723   4.448   2.884
 4192TIP3    H112519   6.638   4.421   2.919
 4192TIP3    H212520   6.761   4.368   2.847
 4193TIP3   OH212521   1.391   7.731   5.582
 4193TIP3    H112522   1.382   7.826   5.584
 4193TIP3    H212523   1.310   7.700   5.543
 4194TIP3   OH212524   6.232   6.738   1.919
 4194TIP3    H112525   6.282   6.658   1.939
 4194TIP3    H212526   6.151   6.707   1.880
 4195TIP3   OH212527   2.432   3.329   5.627
 4195TIP3    H112528   2.527   3.337   5.626
 4195TIP3    H212529   2.416   3.235   5.613
 4196TIP3   OH212530   0.286   0.786   5.327
 4196TIP3    H112531   0.242   0.858   5.372
 4196TIP3    H212532   0.311   0.725   5.397
 4197TIP3   OH212533   4.280   5.155   1.878
 4197TIP3    H112534   4.224   5.158   1.955
 4197TIP3    H212535   4.335   5.233   1.886
 4198TIP3   OH212536   4.073   4.143   6.005
 4198TIP3    H112537   4.147   4.203   6.019
 4198TIP3    H212538   4.076   4.083   6.079
 4199TIP3   OH212539   0.795   2.379   6.429
 4199TIP3    H112540   0.866   2.321   6.403
 4199TIP3    H212541   0.717   2.324   6.431
 4200TIP3   OH212542   2.473   7.787   4.425
 4200TIP3    H112543   2.434   7.702   4.402
 4200TIP3    H212544   2.515   7.772   4.510
 4201TIP3   OH212545   1.824   3.644   4.704
 4201TIP3    H112546   1.917   3.663   4.700
 4201TIP3    H212547   1.782   3.729   4.705
 4202TIP3   OH212548   7.714   7.760   2.084
 4202TIP3    H112549   7.712   7.839   2.137
 4202TIP3    H212550   7.766   7.698   2.135
 4203TIP3   OH212551   6.296   3.037   4.164
 4203TIP3    H112552   6.271   2.982   4.090
 4203TIP3    H212553   6.251   2.999   4.239
 4204TIP3   OH212554   1.374   3.497   2.648
 4204TIP3    H112555   1.329   3.529   2.569
 4204TIP3    H212556   1.323   3.421   2.675
 4205TIP3   OH212557   4.143   6.381   6.740
 4205TIP3    H112558   4.197   6.449   6.701
 4205TIP3    H212559   4.145   6.309   6.676
 4206TIP3   OH212560   3.220   4.506   2.833
 4206TIP3    H112561   3.309   4.520   2.867
 4206TIP3    H212562   3.178   4.451   2.899
 4207TIP3   OH212563   6.824   2.754   5.846
 4207TIP3    H112564   6.848   2.805   5.923
 4207TIP3    H212565   6.894   2.689   5.838
 4208TIP3   OH212566   6.800   2.796   5.211
 4208TIP3    H112567   6.782   2.845   5.131
 4208TIP3    H212568   6.782   2.858   5.282
 4209TIP3   OH212569   5.424   7.338   6.102
 4209TIP3    H112570   5.375   7.400   6.049
 4209TIP3    H212571   5.437   7.382   6.186
 4210TIP3   OH212572   1.488   6.637   4.712
 4210TIP3    H112573   1.567   6.641   4.766
 4210TIP3    H212574   1.444   6.557   4.740
 4211TIP3   OH212575   7.192   4.025   1.962
 4211TIP3    H112576   7.145   3.952   1.922
 4211TIP3    H212577   7.284   4.001   1.957
 4212TIP3   OH212578   5.066   0.059   3.002
 4212TIP3    H112579   5.006   0.112   2.951
 4212TIP3    H212580   5.105  -0.002   2.939
 4213TIP3   OH212581   6.833   4.470   3.170
 4213TIP3    H112582   6.900   4.401   3.174
 4213TIP3    H212583   6.815   4.479   3.077
 4214TIP3   OH212584   6.121   4.042   5.125
 4214TIP3    H112585   6.180   4.084   5.187
 4214TIP3    H212586   6.102   4.109   5.060
 4215TIP3   OH212587   3.680   1.971   4.975
 4215TIP3    H112588   3.660   1.996   4.885
 4215TIP3    H212589   3.775   1.959   4.976
 4216TIP3   OH212590   7.387   7.565   3.809
 4216TIP3    H112591   7.339   7.619   3.747
 4216TIP3    H212592   7.476   7.562   3.774
 4217TIP3   OH212593   2.740   0.277   3.932
 4217TIP3    H112594   2.821   0.229   3.950
 4217TIP3    H212595   2.671   0.219   3.962
 4218TIP3   OH212596   7.848   2.734   6.624
 4218TIP3    H112597   7.907   2.795   6.668
 4218TIP3    H212598   7.765   2.742   6.670
 4219TIP3   OH212599   2.777   0.648   4.551
 4219TIP3    H112600   2.772   0.721   4.489
 4219TIP3    H212601   2.724   0.579   4.511
 4220TIP3   OH212602   0.605   3.759   3.804
 4220TIP3    H112603   0.553   3.730   3.729
 4220TIP3    H212604   0.569   3.844   3.827
 4221TIP3   OH212605   6.132   6.133   0.238
 4221TIP3    H112606   6.137   6.190   0.315
 4221TIP3    H212607   6.193   6.172   0.175
 4222TIP3   OH212608   0.143   3.181   6.433
 4222TIP3    H112609   0.162   3.113   6.498
 4222TIP3    H212610   0.080   3.140   6.373
 4223TIP3   OH212611   5.852   2.855   5.944
 4223TIP3    H112612   5.831   2.773   5.988
 4223TIP3    H212613   5.915   2.830   5.876
 4224TIP3   OH212614   5.554   6.596   5.408
 4224TIP3    H112615   5.564   6.506   5.439
 4224TIP3    H212616   5.644   6.626   5.392
 4225TIP3   OH212617   8.268   7.761   6.281
 4225TIP3    H112618   8.213   7.760   6.203
 4225TIP3    H212619   8.226   7.699   6.341
 4226TIP3   OH212620   5.915   1.910   3.605
 4226TIP3    H112621   5.942   1.868   3.688
 4226TIP3    H212622   5.909   2.003   3.627
 4227TIP3   OH212623   6.161   4.225   3.934
 4227TIP3    H112624   6.250   4.190   3.927
 4227TIP3    H212625   6.142   4.259   3.846
 4228TIP3   OH212626   5.832   3.044   1.895
 4228TIP3    H112627   5.747   3.069   1.857
 4228TIP3    H212628   5.834   3.089   1.980
 4229TIP3   OH212629   1.864   6.082   1.322
 4229TIP3    H112630   1.902   6.070   1.235
 4229TIP3    H212631   1.938   6.072   1.382
 4230TIP3   OH212632   3.085   7.122   0.115
 4230TIP3    H112633   3.088   7.209   0.076
 4230TIP3    H212634   3.166   7.116   0.166
 4231TIP3   OH212635   1.524   2.429   3.437
 4231TIP3    H112636   1.495   2.483   3.363
 4231TIP3    H212637   1.470   2.459   3.511
 4232TIP3   OH212638   3.836   5.644   2.532
 4232TIP3    H112639   3.870   5.670   2.446
 4232TIP3    H212640   3.809   5.725   2.574
 4233TIP3   OH212641   4.361   2.246   4.319
 4233TIP3    H112642   4.442   2.214   4.280
 4233TIP3    H212643   4.292   2.220   4.258
 4234TIP3   OH212644   0.664   4.279   4.550
 4234TIP3    H112645   0.689   4.314   4.464
 4234TIP3    H212646   0.715   4.331   4.612
 4235TIP3   OH212647   6.273   7.588   1.556
 4235TIP3    H112648   6.351   7.587   1.500
 4235TIP3    H212649   6.279   7.507   1.607
 4236TIP3   OH212650   5.841   7.124   6.717
 4236TIP3    H112651   5.821   7.031   6.711
 4236TIP3    H212652   5.839   7.155   6.626
 4237TIP3   OH212653   7.821   6.646   2.916
 4237TIP3    H112654   7.851   6.580   2.979
 4237TIP3    H212655   7.900   6.674   2.870
 4238TIP3   OH212656   4.095   0.210   2.025
 4238TIP3    H112657   4.185   0.220   1.994
 4238TIP3    H212658   4.080   0.115   2.025
 4239TIP3   OH212659   3.830   3.842   0.466
 4239TIP3    H112660   3.869   3.909   0.522
 4239TIP3    H212661   3.735   3.857   0.473
 4240TIP3   OH212662   4.416  -0.004   5.564
 4240TIP3    H112663   4.370   0.050   5.499
 4240TIP3    H212664   4.346  -0.052   5.609
 4241TIP3   OH212665   5.319   4.704   6.358
 4241TIP3    H112666   5.245   4.764   6.346
 4241TIP3    H212667   5.290   4.622   6.316
 4242TIP3   OH212668   5.581   1.315   1.966
 4242TIP3    H112669   5.648   1.292   1.902
 4242TIP3    H212670   5.504   1.337   1.914
 4243TIP3   OH212671   2.514   7.696   3.443
 4243TIP3    H112672   2.538   7.757   3.513
 4243TIP3    H212673   2.581   7.708   3.376
 4244TIP3   OH212674   6.407   5.991   5.438
 4244TIP3    H112675   6.490   6.033   5.455
 4244TIP3    H212676   6.409   5.971   5.344
 4245TIP3   OH212677   2.119   0.177   3.579
 4245TIP3    H112678   2.190   0.146   3.635
 4245TIP3    H212679   2.154   0.257   3.539
 4246TIP3   OH212680   8.206   1.624   5.939
 4246TIP3    H112681   8.282   1.682   5.933
 4246TIP3    H212682   8.137   1.669   5.890
 4247TIP3   OH212683   4.519   0.264   1.019
 4247TIP3    H112684   4.498   0.326   0.949
 4247TIP3    H212685   4.604   0.294   1.053
 4248TIP3   OH212686   6.530   5.020   6.126
 4248TIP3    H112687   6.527   5.007   6.032
 4248TIP3    H212688   6.617   4.989   6.153
 4249TIP3   OH212689   3.134   6.848   5.181
 4249TIP3    H112690   3.109   6.940   5.192
 4249TIP3    H212691   3.097   6.823   5.097
 4250TIP3   OH212692   4.868   3.472   0.339
 4250TIP3    H112693   4.948   3.499   0.294
 4250TIP3    H212694   4.798   3.495   0.279
 4251TIP3   OH212695   4.037   3.227   4.717
 4251TIP3    H112696   4.094   3.152   4.729
 4251TIP3    H212697   4.009   3.250   4.806
 4252TIP3   OH212698   5.768   6.482   4.575
 4252TIP3    H112699   5.863   6.484   4.587
 4252TIP3    H212700   5.737   6.423   4.644
 4253TIP3   OH212701   8.071   0.109   4.426
 4253TIP3    H112702   8.093   0.185   4.372
 4253TIP3    H212703   7.981   0.088   4.403
 4254TIP3   OH212704   2.259   5.840   1.478
 4254TIP3    H112705   2.316   5.883   1.542
 4254TIP3    H212706   2.299   5.754   1.465
 4255TIP3   OH212707   5.064   2.828   1.233
 4255TIP3    H112708   4.995   2.875   1.281
 4255TIP3    H212709   5.120   2.791   1.301
 4256TIP3   OH212710   2.356   3.947   0.335
 4256TIP3    H112711   2.344   3.906   0.421
 4256TIP3    H212712   2.271   3.937   0.292
 4257TIP3   OH212713   2.667   3.507   2.611
 4257TIP3    H112714   2.720   3.584   2.631
 4257TIP3    H212715   2.730   3.441   2.582
 4258TIP3   OH212716   8.138   3.246   2.388
 4258TIP3    H112717   8.190   3.238   2.308
 4258TIP3    H212718   8.047   3.234   2.358
 4259TIP3   OH212719   6.367   7.595   2.804
 4259TIP3    H112720   6.289   7.632   2.764
 4259TIP3    H212721   6.404   7.667   2.856
 4260TIP3   OH212722   3.741   6.003   5.447
 4260TIP3    H112723   3.831   5.970   5.441
 4260TIP3    H212724   3.721   6.034   5.359
 4261TIP3   OH212725   6.916   2.250   4.895
 4261TIP3    H112726   6.945   2.200   4.971
 4261TIP3    H212727   6.857   2.191   4.849
 4262TIP3   OH212728   5.036   0.120   3.599
 4262TIP3    H112729   5.021   0.065   3.522
 4262TIP3    H212730   4.964   0.097   3.658
 4263TIP3   OH212731   7.387   0.873   0.857
 4263TIP3    H112732   7.475   0.903   0.877
 4263TIP3    H212733   7.358   0.928   0.785
 4264TIP3   OH212734   4.093   1.137   1.866
 4264TIP3    H112735   4.121   1.117   1.776
 4264TIP3    H212736   4.173   1.168   1.909
 4265TIP3   OH212737   4.619   3.587   1.180
 4265TIP3    H112738   4.608   3.635   1.262
 4265TIP3    H212739   4.557   3.514   1.186
 4266TIP3   OH212740   5.295   0.913   4.472
 4266TIP3    H112741   5.296   0.951   4.385
 4266TIP3    H212742   5.348   0.973   4.525
 4267TIP3   OH212743   3.318   1.076   1.278
 4267TIP3    H112744   3.306   1.084   1.372
 4267TIP3    H212745   3.251   1.015   1.250
 4268TIP3   OH212746   3.466   0.116   2.937
 4268TIP3    H112747   3.371   0.119   2.936
 4268TIP3    H212748   3.492   0.156   2.854
 4269TIP3   OH212749   4.559   2.920   2.145
 4269TIP3    H112750   4.583   2.828   2.157
 4269TIP3    H212751   4.504   2.941   2.220
 4270TIP3   OH212752   6.797   5.185   1.778
 4270TIP3    H112753   6.843   5.104   1.800
 4270TIP3    H212754   6.796   5.187   1.682
 4271TIP3   OH212755   5.461   4.684   6.722
 4271TIP3    H112756   5.472   4.621   6.793
 4271TIP3    H212757   5.484   4.768   6.761
 4272TIP3   OH212758   3.573   3.427   3.059
 4272TIP3    H112759   3.537   3.460   2.977
 4272TIP3    H212760   3.668   3.437   3.049
 4273TIP3   OH212761   6.790   0.621   5.758
 4273TIP3    H112762   6.719   0.636   5.695
 4273TIP3    H212763   6.792   0.701   5.811
 4274TIP3   OH212764   3.938   2.919   1.347
 4274TIP3    H112765   3.901   2.892   1.263
 4274TIP3    H212766   4.005   2.853   1.366
 4275TIP3   OH212767   4.040   6.622   1.255
 4275TIP3    H112768   4.109   6.578   1.204
 4275TIP3    H212769   4.015   6.697   1.202
 4276TIP3   OH212770   8.214   3.457   6.622
 4276TIP3    H112771   8.240   3.543   6.588
 4276TIP3    H212772   8.141   3.430   6.566
 4277TIP3   OH212773   4.710   7.675   3.868
 4277TIP3    H112774   4.799   7.662   3.899
 4277TIP3    H212775   4.658   7.610   3.916
 4278TIP3   OH212776   7.728   4.413   6.032
 4278TIP3    H112777   7.690   4.474   6.096
 4278TIP3    H212778   7.668   4.418   5.957
 4279TIP3   OH212779   0.859   6.068   4.585
 4279TIP3    H112780   0.797   5.996   4.595
 4279TIP3    H212781   0.863   6.109   4.671
 4280TIP3   OH212782   1.514   3.460   3.566
 4280TIP3    H112783   1.463   3.525   3.518
 4280TIP3    H212784   1.529   3.500   3.652
 4281TIP3   OH212785   6.349   4.036   4.350
 4281TIP3    H112786   6.306   4.062   4.431
 4281TIP3    H212787   6.340   4.112   4.292
 4282TIP3   OH212788   1.838   0.167   2.143
 4282TIP3    H112789   1.874   0.129   2.063
 4282TIP3    H212790   1.908   0.155   2.208
 4283TIP3   OH212791   4.857   6.550   4.344
 4283TIP3    H112792   4.769   6.556   4.307
 4283TIP3    H212793   4.872   6.456   4.356
 4284TIP3   OH212794   2.929   0.382   2.546
 4284TIP3    H112795   2.842   0.373   2.508
 4284TIP3    H212796   2.918   0.359   2.638
 4285TIP3   OH212797   5.677   4.874   4.748
 4285TIP3    H112798   5.642   4.815   4.815
 4285TIP3    H212799   5.711   4.948   4.797
 4286TIP3   OH212800   2.653   2.941   6.553
 4286TIP3    H112801   2.638   3.032   6.577
 4286TIP3    H212802   2.565   2.905   6.539
 4287TIP3   OH212803   8.223   6.474   5.440
 4287TIP3    H112804   8.164   6.543   5.471
 4287TIP3    H212805   8.293   6.521   5.394
 4288TIP3   OH212806   6.937   6.489   0.062
 4288TIP3    H112807   6.882   6.563   0.039
 4288TIP3    H212808   6.876   6.416   0.075
 4289TIP3   OH212809   1.999   4.060   3.561
 4289TIP3    H112810   2.040   4.090   3.480
 4289TIP3    H212811   2.070   4.057   3.625
 4290TIP3   OH212812   1.050   3.722   0.531
 4290TIP3    H112813   1.144   3.720   0.516
 4290TIP3    H212814   1.041   3.734   0.626
 4291TIP3   OH212815   4.747   3.689   2.191
 4291TIP3    H112816   4.726   3.772   2.234
 4291TIP3    H212817   4.675   3.630   2.214
 4292TIP3   OH212818   7.701   6.543   0.637
 4292TIP3    H112819   7.713   6.592   0.556
 4292TIP3    H212820   7.642   6.472   0.613
 4293TIP3   OH212821   5.484   2.503   6.498
 4293TIP3    H112822   5.497   2.410   6.479
 4293TIP3    H212823   5.433   2.504   6.579
 4294TIP3   OH212824   0.165   3.432   2.306
 4294TIP3    H112825   0.253   3.442   2.271
 4294TIP3    H212826   0.152   3.508   2.363
 4295TIP3   OH212827   3.793   2.534   5.901
 4295TIP3    H112828   3.793   2.585   5.820
 4295TIP3    H212829   3.700   2.517   5.919
 4296TIP3   OH212830   2.952   4.657   0.289
 4296TIP3    H112831   2.978   4.733   0.237
 4296TIP3    H212832   3.023   4.646   0.352
 4297TIP3   OH212833   5.070   0.307   2.339
 4297TIP3    H112834   5.099   0.397   2.360
 4297TIP3    H212835   5.118   0.252   2.401
 4298TIP3   OH212836   5.397   1.404   1.795
 4298TIP3    H112837   5.411   1.343   1.722
 4298TIP3    H212838   5.305   1.392   1.817
 4299TIP3   OH212839   1.566   6.052   5.208
 4299TIP3    H112840   1.588   6.087   5.121
 4299TIP3    H212841   1.472   6.036   5.204
 4300TIP3   OH212842   1.108   4.001   4.900
 4300TIP3    H112843   1.054   4.058   4.954
 4300TIP3    H212844   1.076   4.014   4.811
 4301TIP3   OH212845   6.933   6.180   4.919
 4301TIP3    H112846   6.968   6.216   5.000
 4301TIP3    H212847   6.954   6.086   4.923
 4302TIP3   OH212848   7.777   2.601   6.386
 4302TIP3    H112849   7.805   2.663   6.453
 4302TIP3    H212850   7.843   2.609   6.317
 4303TIP3   OH212851   6.177   5.172   0.338
 4303TIP3    H112852   6.143   5.261   0.342
 4303TIP3    H212853   6.240   5.166   0.409
 4304TIP3   OH212854   2.473   4.307   3.962
 4304TIP3    H112855   2.440   4.233   4.014
 4304TIP3    H212856   2.552   4.272   3.920
 4305TIP3   OH212857   6.465   6.764   0.077
 4305TIP3    H112858   6.535   6.773   0.142
 4305TIP3    H212859   6.441   6.671   0.080
 4306TIP3   OH212860   5.134   0.997   3.506
 4306TIP3    H112861   5.111   1.066   3.444
 4306TIP3    H212862   5.116   0.915   3.459
 4307TIP3   OH212863   7.495   2.899   3.677
 4307TIP3    H112864   7.451   2.974   3.637
 4307TIP3    H212865   7.565   2.878   3.616
 4308TIP3   OH212866   7.462   5.076   2.537
 4308TIP3    H112867   7.382   5.112   2.498
 4308TIP3    H212868   7.430   5.018   2.606
 4309TIP3   OH212869   5.992   2.343   5.161
 4309TIP3    H112870   5.907   2.301   5.176
 4309TIP3    H212871   6.004   2.339   5.066
 4310TIP3   OH212872   8.088   6.725   0.572
 4310TIP3    H112873   8.057   6.639   0.599
 4310TIP3    H212874   8.089   6.720   0.476
 4311TIP3   OH212875   8.136   5.956   2.168
 4311TIP3    H112876   8.178   5.936   2.085
 4311TIP3    H212877   8.206   5.950   2.233
 4312TIP3   OH212878   7.181   2.587   3.220
 4312TIP3    H112879   7.093   2.623   3.234
 4312TIP3    H212880   7.238   2.643   3.272
 4313TIP3   OH212881   4.437   1.806   0.610
 4313TIP3    H112882   4.342   1.807   0.598
 4313TIP3    H212883   4.469   1.746   0.543
 4314TIP3   OH212884   2.032   0.223   0.498
 4314TIP3    H112885   1.941   0.219   0.529
 4314TIP3    H212886   2.029   0.285   0.424
 4315TIP3   OH212887   5.632   7.004   0.661
 4315TIP3    H112888   5.655   6.912   0.662
 4315TIP3    H212889   5.710   7.048   0.628
 4316TIP3   OH212890   5.757   1.074   4.692
 4316TIP3    H112891   5.773   1.148   4.633
 4316TIP3    H212892   5.758   1.113   4.780
 4317TIP3   OH212893   5.519   6.343   4.218
 4317TIP3    H112894   5.494   6.251   4.221
 4317TIP3    H212895   5.437   6.392   4.222
 4318TIP3   OH212896   2.987   0.206   4.028
 4318TIP3    H112897   3.026   0.133   3.980
 4318TIP3    H212898   3.041   0.282   4.004
 4319TIP3   OH212899   7.774   5.409   4.524
 4319TIP3    H112900   7.741   5.446   4.606
 4319TIP3    H212901   7.758   5.315   4.532
 4320TIP3   OH212902   3.680   2.462   3.824
 4320TIP3    H112903   3.690   2.409   3.903
 4320TIP3    H212904   3.758   2.517   3.822
 4321TIP3   OH212905   4.914   0.851   2.773
 4321TIP3    H112906   4.930   0.855   2.679
 4321TIP3    H212907   4.933   0.939   2.805
 4322TIP3   OH212908   6.010   2.063   6.768
 4322TIP3    H112909   6.029   2.121   6.695
 4322TIP3    H212910   6.060   2.099   6.842
 4323TIP3   OH212911   4.721   0.150   5.986
 4323TIP3    H112912   4.809   0.182   6.004
 4323TIP3    H212913   4.706   0.084   6.054
 4324TIP3   OH212914   5.602   5.406   4.383
 4324TIP3    H112915   5.594   5.386   4.290
 4324TIP3    H212916   5.668   5.475   4.387
 4325TIP3   OH212917   4.534   6.527   1.266
 4325TIP3    H112918   4.507   6.537   1.358
 4325TIP3    H212919   4.595   6.454   1.267
 4326TIP3   OH212920   2.371   5.294   0.795
 4326TIP3    H112921   2.417   5.339   0.866
 4326TIP3    H212922   2.295   5.349   0.778
 4327TIP3   OH212923   0.647   6.668   5.264
 4327TIP3    H112924   0.706   6.712   5.203
 4327TIP3    H212925   0.673   6.701   5.350
 4328TIP3   OH212926   0.358   6.790   6.014
 4328TIP3    H112927   0.424   6.855   6.035
 4328TIP3    H212928   0.324   6.762   6.099
 4329TIP3   OH212929   2.378   2.731   1.621
 4329TIP3    H112930   2.303   2.686   1.661
 4329TIP3    H212931   2.340   2.812   1.586
 4330TIP3   OH212932   7.997   6.769   3.850
 4330TIP3    H112933   8.032   6.711   3.919
 4330TIP3    H212934   7.907   6.786   3.876
 4331TIP3   OH212935   2.324   0.677   5.603
 4331TIP3    H112936   2.353   0.591   5.633
 4331TIP3    H212937   2.354   0.683   5.513
 4332TIP3   OH212938   5.751   6.607   5.816
 4332TIP3    H112939   5.804   6.619   5.895
 4332TIP3    H212940   5.759   6.514   5.797
 4333TIP3   OH212941   7.299   0.230   3.541
 4333TIP3    H112942   7.327   0.153   3.491
 4333TIP3    H212943   7.234   0.196   3.602
 4334TIP3   OH212944   8.017   6.688   4.414
 4334TIP3    H112945   8.066   6.728   4.486
 4334TIP3    H212946   7.936   6.657   4.455
 4335TIP3   OH212947   3.609   0.474   0.976
 4335TIP3    H112948   3.619   0.414   0.902
 4335TIP3    H212949   3.545   0.538   0.946
 4336TIP3   OH212950   6.264   5.886   0.352
 4336TIP3    H112951   6.218   5.907   0.434
 4336TIP3    H212952   6.317   5.964   0.333
 4337TIP3   OH212953   4.611   5.894   1.667
 4337TIP3    H112954   4.595   5.803   1.645
 4337TIP3    H212955   4.581   5.903   1.758
 4338TIP3   OH212956   6.591   4.093   5.969
 4338TIP3    H112957   6.648   4.064   5.898
 4338TIP3    H212958   6.588   4.188   5.960
 4339TIP3   OH212959   4.702   3.023   3.206
 4339TIP3    H112960   4.692   3.009   3.300
 4339TIP3    H212961   4.783   2.976   3.183
 4340TIP3   OH212962   2.049   5.855   1.913
 4340TIP3    H112963   1.997   5.859   1.994
 4340TIP3    H212964   2.106   5.932   1.918
 4341TIP3   OH212965   5.643   1.076   4.023
 4341TIP3    H112966   5.670   0.999   3.973
 4341TIP3    H212967   5.552   1.090   3.998
 4342TIP3   OH212968   0.895   3.466   1.087
 4342TIP3    H112969   0.828   3.506   1.031
 4342TIP3    H212970   0.848   3.399   1.136
 4343TIP3   OH212971   6.311   2.737   3.427
 4343TIP3    H112972   6.277   2.822   3.398
 4343TIP3    H212973   6.389   2.759   3.477
 4344TIP3   OH212974   8.233   2.911   2.997
 4344TIP3    H112975   8.171   2.947   2.934
 4344TIP3    H212976   8.319   2.933   2.961
 4345TIP3   OH212977   5.671   3.608   1.990
 4345TIP3    H112978   5.645   3.687   2.038
 4345TIP3    H212979   5.611   3.603   1.916
 4346TIP3   OH212980   0.732   5.699   4.874
 4346TIP3    H112981   0.746   5.691   4.780
 4346TIP3    H212982   0.817   5.728   4.908
 4347TIP3   OH212983   6.259   3.926   5.660
 4347TIP3    H112984   6.189   3.938   5.725
 4347TIP3    H212985   6.216   3.885   5.585
 4348TIP3   OH212986   8.124   3.537   3.404
 4348TIP3    H112987   8.043   3.588   3.396
 4348TIP3    H212988   8.194   3.600   3.388
 4349TIP3   OH212989   2.336   6.140   0.934
 4349TIP3    H112990   2.307   6.057   0.971
 4349TIP3    H212991   2.363   6.192   1.010
 4350TIP3   OH212992   2.256   5.653   0.480
 4350TIP3    H112993   2.206   5.701   0.414
 4350TIP3    H212994   2.216   5.566   0.482
 4351TIP3   OH212995   5.385   0.130   3.113
 4351TIP3    H112996   5.397   0.093   3.026
 4351TIP3    H212997   5.388   0.054   3.172
 4352TIP3   OH212998   7.290   7.639   0.565
 4352TIP3    H112999   7.211   7.645   0.512
 4352TIP3    H213000   7.334   7.560   0.534
 4353TIP3   OH213001   6.605   3.350   2.329
 4353TIP3    H113002   6.585   3.261   2.301
 4353TIP3    H213003   6.602   3.402   2.248
 4354TIP3   OH213004   4.307   5.906   2.740
 4354TIP3    H113005   4.366   5.981   2.739
 4354TIP3    H213006   4.249   5.920   2.666
 4355TIP3   OH213007   3.828   5.636   2.997
 4355TIP3    H113008   3.891   5.603   2.933
 4355TIP3    H213009   3.843   5.730   3.001
 4356TIP3   OH213010   5.372   5.696   2.687
 4356TIP3    H113011   5.410   5.775   2.649
 4356TIP3    H213012   5.436   5.627   2.670
 4357TIP3   OH213013   5.710   2.593   2.543
 4357TIP3    H113014   5.743   2.515   2.498
 4357TIP3    H213015   5.616   2.579   2.549
 4358TIP3   OH213016   0.321   6.172   5.730
 4358TIP3    H113017   0.332   6.124   5.648
 4358TIP3    H213018   0.306   6.105   5.796
 4359TIP3   OH213019   4.981   4.824   3.885
 4359TIP3    H113020   4.914   4.826   3.953
 4359TIP3    H213021   5.040   4.896   3.907
 4360TIP3   OH213022   6.687   7.193   3.945
 4360TIP3    H113023   6.678   7.204   4.040
 4360TIP3    H213024   6.664   7.279   3.909
 4361TIP3   OH213025   5.240   5.325   2.226
 4361TIP3    H113026   5.224   5.267   2.301
 4361TIP3    H213027   5.158   5.373   2.216
 4362TIP3   OH213028   1.676   0.580   2.060
 4362TIP3    H113029   1.704   0.543   1.976
 4362TIP3    H213030   1.669   0.674   2.042
 4363TIP3   OH213031   7.360   7.113   5.591
 4363TIP3    H113032   7.434   7.172   5.601
 4363TIP3    H213033   7.392   7.029   5.624
 4364TIP3   OH213034   7.600   5.798   2.259
 4364TIP3    H113035   7.690   5.816   2.235
 4364TIP3    H213036   7.558   5.769   2.178
 4365TIP3   OH213037   2.872   2.859   2.262
 4365TIP3    H113038   2.878   2.893   2.351
 4365TIP3    H213039   2.954   2.812   2.248
 4366TIP3   OH213040   2.630   2.895   6.040
 4366TIP3    H113041   2.578   2.909   6.120
 4366TIP3    H213042   2.576   2.838   5.986
 4367TIP3   OH213043   5.215   5.005   3.876
 4367TIP3    H113044   5.169   5.088   3.866
 4367TIP3    H213045   5.308   5.029   3.866
 4368TIP3   OH213046   3.466   0.376   5.118
 4368TIP3    H113047   3.441   0.353   5.029
 4368TIP3    H213048   3.384   0.396   5.162
 4369TIP3   OH213049   0.675   4.214   1.992
 4369TIP3    H113050   0.599   4.271   1.978
 4369TIP3    H213051   0.681   4.161   1.912
 4370TIP3   OH213052   5.792   4.140   6.582
 4370TIP3    H113053   5.797   4.188   6.499
 4370TIP3    H213054   5.710   4.169   6.621
 4371TIP3   OH213055   6.936   0.413   2.641
 4371TIP3    H113056   6.842   0.395   2.635
 4371TIP3    H213057   6.971   0.341   2.693
 4372TIP3   OH213058   0.262   2.523   5.837
 4372TIP3    H113059   0.339   2.477   5.805
 4372TIP3    H213060   0.296   2.579   5.907
 4373TIP3   OH213061   7.888   6.135   4.688
 4373TIP3    H113062   7.959   6.179   4.641
 4373TIP3    H213063   7.902   6.157   4.780
 4374TIP3   OH213064   8.193   4.134   4.678
 4374TIP3    H113065   8.196   4.224   4.710
 4374TIP3    H213066   8.270   4.092   4.717
 4375TIP3   OH213067   1.821   7.689   0.114
 4375TIP3    H113068   1.881   7.681   0.187
 4375TIP3    H213069   1.758   7.757   0.141
 4376TIP3   OH213070   3.376   7.674   3.240
 4376TIP3    H113071   3.339   7.658   3.153
 4376TIP3    H213072   3.466   7.642   3.234
 4377TIP3   OH213073   7.592   3.757   0.504
 4377TIP3    H113074   7.631   3.769   0.417
 4377TIP3    H213075   7.600   3.663   0.520
 4378TIP3   OH213076   7.404   3.637   0.822
 4378TIP3    H113077   7.309   3.631   0.835
 4378TIP3    H213078   7.428   3.721   0.861
 4379TIP3   OH213079   0.709   0.088   5.270
 4379TIP3    H113080   0.694  -0.005   5.254
 4379TIP3    H213081   0.625   0.129   5.250
 4380TIP3   OH213082   0.245   2.510   0.255
 4380TIP3    H113083   0.151   2.529   0.257
 4380TIP3    H213084   0.259   2.470   0.169
 4381TIP3   OH213085   3.613   6.239   3.837
 4381TIP3    H113086   3.676   6.167   3.839
 4381TIP3    H213087   3.536   6.206   3.883
 4382TIP3   OH213088   1.803   3.657   5.008
 4382TIP3    H113089   1.788   3.596   4.935
 4382TIP3    H213090   1.870   3.716   4.975
 4383TIP3   OH213091   3.445   5.052   1.315
 4383TIP3    H113092   3.415   5.087   1.231
 4383TIP3    H213093   3.540   5.058   1.311
 4384TIP3   OH213094   1.562   7.199   1.597
 4384TIP3    H113095   1.610   7.166   1.521
 4384TIP3    H213096   1.610   7.163   1.672
 4385TIP3   OH213097   1.413   1.963   3.102
 4385TIP3    H113098   1.498   1.918   3.100
 4385TIP3    H213099   1.386   1.957   3.194
 4386TIP3   OH213100   4.324   1.208   2.618
 4386TIP3    H113101   4.230   1.211   2.600
 4386TIP3    H213102   4.331   1.181   2.709
 4387TIP3   OH213103   0.478   5.561   6.523
 4387TIP3    H113104   0.429   5.508   6.585
 4387TIP3    H213105   0.520   5.498   6.465
 4388TIP3   OH213106   0.455   1.505   0.304
 4388TIP3    H113107   0.436   1.536   0.216
 4388TIP3    H213108   0.473   1.584   0.355
 4389TIP3   OH213109   4.855   2.380   2.959
 4389TIP3    H113110   4.884   2.457   2.910
 4389TIP3    H213111   4.777   2.410   3.006
 4390TIP3   OH213112   8.236   0.447   5.829
 4390TIP3    H113113   8.200   0.494   5.754
 4390TIP3    H213114   8.160   0.415   5.877
 4391TIP3   OH213115   4.406   1.423   0.538
 4391TIP3    H113116   4.464   1.379   0.601
 4391TIP3    H213117   4.325   1.438   0.586
 4392TIP3   OH213118   2.518   6.544   1.046
 4392TIP3    H113119   2.580   6.494   1.099
 4392TIP3    H213120   2.432   6.510   1.072
 4393TIP3   OH213121   5.617   0.349   4.680
 4393TIP3    H113122   5.703   0.386   4.700
 4393TIP3    H213123   5.636   0.262   4.644
 4394TIP3   OH213124   5.532   7.575   0.777
 4394TIP3    H113125   5.485   7.637   0.832
 4394TIP3    H213126   5.466   7.542   0.715
 4395TIP3   OH213127   4.667   5.101   5.603
 4395TIP3    H113128   4.597   5.153   5.644
 4395TIP3    H213129   4.747   5.134   5.643
 4396TIP3   OH213130   2.208   6.330   4.004
 4396TIP3    H113131   2.240   6.420   4.004
 4396TIP3    H213132   2.139   6.329   4.070
 4397TIP3   OH213133   4.848   1.545   0.655
 4397TIP3    H113134   4.815   1.622   0.700
 4397TIP3    H213135   4.837   1.473   0.717
 4398TIP3   OH213136   8.003   1.318   3.267
 4398TIP3    H113137   8.093   1.303   3.294
 4398TIP3    H213138   7.971   1.232   3.239
 4399TIP3   OH213139   3.548   1.641   6.038
 4399TIP3    H113140   3.630   1.673   6.076
 4399TIP3    H213141   3.562   1.547   6.024
 4400TIP3   OH213142   2.340   0.148   6.179
 4400TIP3    H113143   2.321   0.080   6.114
 4400TIP3    H213144   2.311   0.110   6.262
 4401TIP3   OH213145   1.233   3.036   0.864
 4401TIP3    H113146   1.165   3.092   0.900
 4401TIP3    H213147   1.309   3.050   0.921
 4402TIP3   OH213148   5.244   7.269   0.535
 4402TIP3    H113149   5.323   7.233   0.496
 4402TIP3    H213150   5.256   7.258   0.629
 4403TIP3   OH213151   8.029   0.339   5.613
 4403TIP3    H113152   8.001   0.393   5.687
 4403TIP3    H213153   8.038   0.251   5.649
 4404TIP3   OH213154   1.882   0.609   2.500
 4404TIP3    H113155   1.909   0.697   2.473
 4404TIP3    H213156   1.897   0.554   2.423
 4405TIP3   OH213157   0.077   4.884   2.104
 4405TIP3    H113158   0.021   4.860   2.178
 4405TIP3    H213159   0.067   4.811   2.042
 4406TIP3   OH213160   0.786   4.287   5.804
 4406TIP3    H113161   0.796   4.321   5.892
 4406TIP3    H213162   0.853   4.333   5.752
 4407TIP3   OH213163   0.921   0.871   3.154
 4407TIP3    H113164   0.840   0.845   3.109
 4407TIP3    H213165   0.940   0.798   3.213
 4408TIP3   OH213166   6.341   2.638   2.728
 4408TIP3    H113167   6.290   2.685   2.794
 4408TIP3    H213168   6.392   2.575   2.778
 4409TIP3   OH213169   1.018   2.504   4.127
 4409TIP3    H113170   0.960   2.499   4.050
 4409TIP3    H213171   1.015   2.596   4.153
 4410TIP3   OH213172   6.665   2.006   1.376
 4410TIP3    H113173   6.672   1.911   1.382
 4410TIP3    H213174   6.574   2.024   1.403
 4411TIP3   OH213175   7.514   4.096   2.350
 4411TIP3    H113176   7.475   4.012   2.326
 4411TIP3    H213177   7.459   4.127   2.423
 4412TIP3   OH213178   2.873   2.041   0.065
 4412TIP3    H113179   2.938   1.980   0.029
 4412TIP3    H213180   2.925   2.113   0.100
 4413TIP3   OH213181   8.109   0.103   5.165
 4413TIP3    H113182   8.082   0.062   5.247
 4413TIP3    H213183   8.188   0.152   5.188
 4414TIP3   OH213184   3.873   7.115   4.143
 4414TIP3    H113185   3.797   7.057   4.132
 4414TIP3    H213186   3.907   7.093   4.230
 4415TIP3   OH213187   2.240   0.685   4.444
 4415TIP3    H113188   2.251   0.780   4.445
 4415TIP3    H213189   2.312   0.653   4.390
 4416TIP3   OH213190   4.225   0.380   2.873
 4416TIP3    H113191   4.238   0.407   2.782
 4416TIP3    H213192   4.133   0.401   2.891
 4417TIP3   OH213193   3.231   7.773   4.208
 4417TIP3    H113194   3.169   7.821   4.153
 4417TIP3    H213195   3.219   7.681   4.182
 4418TIP3   OH213196   1.851   4.567   2.328
 4418TIP3    H113197   1.944   4.561   2.303
 4418TIP3    H213198   1.828   4.658   2.308
 4419TIP3   OH213199   0.510   0.812   0.329
 4419TIP3    H113200   0.474   0.900   0.336
 4419TIP3    H213201   0.567   0.815   0.252
 4420TIP3   OH213202   2.706   3.655   5.685
 4420TIP3    H113203   2.727   3.637   5.777
 4420TIP3    H213204   2.611   3.654   5.681
 4421TIP3   OH213205   2.698   2.533   6.665
 4421TIP3    H113206   2.744   2.608   6.701
 4421TIP3    H213207   2.758   2.459   6.677
 4422TIP3   OH213208   5.423   6.650   1.793
 4422TIP3    H113209   5.485   6.698   1.848
 4422TIP3    H213210   5.342   6.701   1.796
 4423TIP3   OH213211   6.515   4.836   5.016
 4423TIP3    H113212   6.433   4.799   5.048
 4423TIP3    H213213   6.574   4.761   5.007
 4424TIP3   OH213214   1.246   4.554   3.591
 4424TIP3    H113215   1.188   4.486   3.624
 4424TIP3    H213216   1.334   4.526   3.618
 4425TIP3   OH213217   5.691   4.089   2.330
 4425TIP3    H113218   5.687   4.185   2.333
 4425TIP3    H213219   5.734   4.070   2.246
 4426TIP3   OH213220   4.995   7.766   0.341
 4426TIP3    H113221   5.026   7.814   0.265
 4426TIP3    H213222   4.930   7.704   0.306
 4427TIP3   OH213223   1.748   0.505   3.844
 4427TIP3    H113224   1.776   0.573   3.782
 4427TIP3    H213225   1.816   0.505   3.912
 4428TIP3   OH213226   1.986   5.556   1.981
 4428TIP3    H113227   1.916   5.547   2.045
 4428TIP3    H213228   2.066   5.551   2.034
 4429TIP3   OH213229   4.839   6.690   5.202
 4429TIP3    H113230   4.892   6.647   5.135
 4429TIP3    H213231   4.802   6.767   5.158
 4430TIP3   OH213232   5.239   7.037   4.511
 4430TIP3    H113233   5.229   6.984   4.590
 4430TIP3    H213234   5.272   7.121   4.542
 4431TIP3   OH213235   4.440   2.746   5.084
 4431TIP3    H113236   4.434   2.654   5.061
 4431TIP3    H213237   4.355   2.766   5.125
 4432TIP3   OH213238   0.816   1.100   3.287
 4432TIP3    H113239   0.758   1.064   3.354
 4432TIP3    H213240   0.845   1.024   3.237
 4433TIP3   OH213241   5.525   3.222   3.390
 4433TIP3    H113242   5.560   3.302   3.430
 4433TIP3    H213243   5.517   3.244   3.297
 4434TIP3   OH213244   0.138   2.720   4.849
 4434TIP3    H113245   0.068   2.666   4.814
 4434TIP3    H213246   0.182   2.757   4.772
 4435TIP3   OH213247   5.685   0.525   5.044
 4435TIP3    H113248   5.721   0.596   4.991
 4435TIP3    H213249   5.726   0.537   5.130
 4436TIP3   OH213250   0.113   2.648   0.517
 4436TIP3    H113251   0.100   2.574   0.576
 4436TIP3    H213252   0.030   2.656   0.469
 4437TIP3   OH213253   7.900   5.604   4.374
 4437TIP3    H113254   7.842   5.549   4.426
 4437TIP3    H213255   7.895   5.568   4.286
 4438TIP3   OH213256   7.481   0.317   5.765
 4438TIP3    H113257   7.441   0.265   5.835
 4438TIP3    H213258   7.472   0.408   5.794
 4439TIP3   OH213259   5.766   5.297   0.366
 4439TIP3    H113260   5.736   5.344   0.288
 4439TIP3    H213261   5.822   5.360   0.411
 4440TIP3   OH213262   3.902   2.554   0.156
 4440TIP3    H113263   3.901   2.588   0.245
 4440TIP3    H213264   3.822   2.502   0.149
 4441TIP3   OH213265   4.392   3.737   5.008
 4441TIP3    H113266   4.425   3.712   4.922
 4441TIP3    H213267   4.465   3.719   5.068
 4442TIP3   OH213268   2.162   3.742   3.749
 4442TIP3    H113269   2.195   3.826   3.719
 4442TIP3    H213270   2.112   3.708   3.675
 4443TIP3   OH213271   6.261   3.173   3.109
 4443TIP3    H113272   6.244   3.267   3.104
 4443TIP3    H213273   6.251   3.142   3.019
 4444TIP3   OH213274   1.817   1.308   2.672
 4444TIP3    H113275   1.894   1.266   2.710
 4444TIP3    H213276   1.808   1.391   2.719
 4445TIP3   OH213277   2.251   5.872   0.659
 4445TIP3    H113278   2.269   5.944   0.600
 4445TIP3    H213279   2.260   5.793   0.605
 4446TIP3   OH213280   6.236   2.325   5.530
 4446TIP3    H113281   6.249   2.394   5.465
 4446TIP3    H213282   6.172   2.266   5.491
 4447TIP3   OH213283   5.829   6.143   0.665
 4447TIP3    H113284   5.861   6.173   0.751
 4447TIP3    H213285   5.837   6.220   0.609
 4448TIP3   OH213286   3.599   6.032   5.193
 4448TIP3    H113287   3.637   6.092   5.129
 4448TIP3    H213288   3.510   6.065   5.207
 4449TIP3   OH213289   1.733   0.142   4.974
 4449TIP3    H113290   1.688   0.081   4.916
 4449TIP3    H213291   1.751   0.218   4.918
 4450TIP3   OH213292   7.325   0.212   5.977
 4450TIP3    H113293   7.258   0.143   5.974
 4450TIP3    H213294   7.295   0.271   6.046
 4451TIP3   OH213295   5.484   2.398   2.514
 4451TIP3    H113296   5.472   2.350   2.432
 4451TIP3    H213297   5.399   2.440   2.530
 4452TIP3   OH213298   3.627   7.592   1.096
 4452TIP3    H113299   3.602   7.513   1.142
 4452TIP3    H213300   3.715   7.574   1.063
 4453TIP3   OH213301   1.181   4.455   6.209
 4453TIP3    H113302   1.227   4.402   6.145
 4453TIP3    H213303   1.099   4.408   6.224
 4454TIP3   OH213304   1.394   7.242   0.234
 4454TIP3    H113305   1.484   7.261   0.260
 4454TIP3    H213306   1.347   7.324   0.246
 4455TIP3   OH213307   8.084   2.878   6.422
 4455TIP3    H113308   8.103   2.873   6.516
 4455TIP3    H213309   7.990   2.896   6.418
 4456TIP3   OH213310   4.139   5.469   4.204
 4456TIP3    H113311   4.202   5.536   4.232
 4456TIP3    H213312   4.189   5.387   4.205
 4457TIP3   OH213313   1.005   1.109   4.804
 4457TIP3    H113314   0.956   1.191   4.806
 4457TIP3    H213315   1.055   1.112   4.722
 4458TIP3   OH213316   4.170   0.105   3.937
 4458TIP3    H113317   4.210   0.163   4.001
 4458TIP3    H213318   4.231   0.104   3.863
 4459TIP3   OH213319   7.121   5.387   6.247
 4459TIP3    H113320   7.145   5.471   6.208
 4459TIP3    H213321   7.163   5.387   6.333
 4460TIP3   OH213322   0.977   0.771   0.225
 4460TIP3    H113323   0.950   0.693   0.274
 4460TIP3    H213324   0.948   0.845   0.279
 4461TIP3   OH213325   4.931   2.565   0.452
 4461TIP3    H113326   4.933   2.657   0.475
 4461TIP3    H213327   4.992   2.556   0.379
 4462TIP3   OH213328   3.815   3.629   3.081
 4462TIP3    H113329   3.893   3.589   3.122
 4462TIP3    H213330   3.832   3.623   2.987
 4463TIP3   OH213331   1.961   2.854   6.255
 4463TIP3    H113332   2.031   2.919   6.259
 4463TIP3    H213333   1.886   2.903   6.222
 4464TIP3   OH213334   7.508   4.320   2.961
 4464TIP3    H113335   7.467   4.403   2.987
 4464TIP3    H213336   7.498   4.263   3.037
 4465TIP3   OH213337   1.498   4.768   1.267
 4465TIP3    H113338   1.496   4.842   1.328
 4465TIP3    H213339   1.406   4.747   1.251
 4466TIP3   OH213340   5.579   5.186   6.129
 4466TIP3    H113341   5.671   5.196   6.154
 4466TIP3    H213342   5.539   5.141   6.203
 4467TIP3   OH213343   6.238   7.276   5.468
 4467TIP3    H113344   6.308   7.319   5.518
 4467TIP3    H213345   6.233   7.187   5.505
 4468TIP3   OH213346   3.822   7.077   5.421
 4468TIP3    H113347   3.775   7.036   5.348
 4468TIP3    H213348   3.900   7.115   5.382
 4469TIP3   OH213349   2.172   3.328   2.996
 4469TIP3    H113350   2.134   3.372   3.072
 4469TIP3    H213351   2.098   3.291   2.949
 4470TIP3   OH213352   1.598   6.690   1.602
 4470TIP3    H113353   1.684   6.651   1.619
 4470TIP3    H213354   1.591   6.694   1.507
 4471TIP3   OH213355   7.078   6.844   4.427
 4471TIP3    H113356   7.164   6.807   4.409
 4471TIP3    H213357   7.069   6.839   4.523
 4472TIP3   OH213358   8.120   1.571   2.292
 4472TIP3    H113359   8.193   1.629   2.272
 4472TIP3    H213360   8.045   1.628   2.303
 4473TIP3   OH213361   6.071   0.160   6.328
 4473TIP3    H113362   6.033   0.178   6.242
 4473TIP3    H213363   6.052   0.238   6.380
 4474TIP3   OH213364   5.459   0.455   4.501
 4474TIP3    H113365   5.410   0.521   4.550
 4474TIP3    H213366   5.526   0.425   4.563
 4475TIP3   OH213367   7.230   3.416   2.568
 4475TIP3    H113368   7.272   3.441   2.650
 4475TIP3    H213369   7.143   3.387   2.593
 4476TIP3   OH213370   0.844   1.848   1.604
 4476TIP3    H113371   0.749   1.846   1.594
 4476TIP3    H213372   0.858   1.885   1.691
 4477TIP3   OH213373   2.209   2.020   2.433
 4477TIP3    H113374   2.150   2.095   2.440
 4477TIP3    H213375   2.262   2.023   2.512
 4478TIP3   OH213376   0.319   7.629   2.076
 4478TIP3    H113377   0.306   7.589   1.990
 4478TIP3    H213378   0.232   7.628   2.117
 4479TIP3   OH213379   5.999   0.300   5.107
 4479TIP3    H113380   6.030   0.380   5.064
 4479TIP3    H213381   6.048   0.296   5.189
 4480TIP3   OH213382   6.916   3.501   0.752
 4480TIP3    H113383   6.881   3.501   0.663
 4480TIP3    H213384   6.851   3.452   0.803
 4481TIP3   OH213385   5.762   4.604   1.163
 4481TIP3    H113386   5.745   4.665   1.236
 4481TIP3    H213387   5.676   4.569   1.141
 4482TIP3   OH213388   1.486   6.095   2.950
 4482TIP3    H113389   1.417   6.035   2.979
 4482TIP3    H213390   1.444   6.181   2.949
 4483TIP3   OH213391   3.012   4.045   0.794
 4483TIP3    H113392   3.077   4.079   0.733
 4483TIP3    H213393   3.059   4.033   0.876
 4484TIP3   OH213394   1.883   1.492   3.523
 4484TIP3    H113395   1.957   1.448   3.481
 4484TIP3    H213396   1.847   1.426   3.582
 4485TIP3   OH213397   5.428   0.914   1.013
 4485TIP3    H113398   5.496   0.868   0.963
 4485TIP3    H213399   5.367   0.946   0.946
 4486TIP3   OH213400   0.008   1.440   5.250
 4486TIP3    H113401   0.094   1.456   5.289
 4486TIP3    H213402  -0.049   1.419   5.325
 4487TIP3   OH213403   2.287   2.869   5.999
 4487TIP3    H113404   2.195   2.883   5.975
 4487TIP3    H213405   2.287   2.869   6.095
 4488TIP3   OH213406   4.417   7.795   0.268
 4488TIP3    H113407   4.483   7.733   0.299
 4488TIP3    H213408   4.403   7.771   0.176
 4489TIP3   OH213409   0.268   4.990   1.925
 4489TIP3    H113410   0.214   4.961   1.998
 4489TIP3    H213411   0.222   5.065   1.888
 4490TIP3   OH213412   1.446   5.004   3.740
 4490TIP3    H113413   1.448   5.082   3.796
 4490TIP3    H213414   1.538   4.983   3.724
 4491TIP3   OH213415   7.239   2.303   4.950
 4491TIP3    H113416   7.220   2.375   4.891
 4491TIP3    H213417   7.189   2.323   5.030
 4492TIP3   OH213418   0.599   2.114   6.245
 4492TIP3    H113419   0.636   2.195   6.210
 4492TIP3    H213420   0.620   2.116   6.338
 4493TIP3   OH213421   7.576   1.966   6.486
 4493TIP3    H113422   7.519   2.004   6.419
 4493TIP3    H213423   7.643   1.918   6.436
 4494TIP3   OH213424   4.085   6.441   2.841
 4494TIP3    H113425   4.011   6.497   2.862
 4494TIP3    H213426   4.047   6.366   2.795
 4495TIP3   OH213427   2.538   5.807   2.688
 4495TIP3    H113428   2.465   5.759   2.650
 4495TIP3    H213429   2.520   5.809   2.782
 4496TIP3   OH213430   7.608   7.017   3.790
 4496TIP3    H113431   7.548   6.943   3.801
 4496TIP3    H213432   7.685   6.993   3.841
 4497TIP3   OH213433   0.120   2.882   6.411
 4497TIP3    H113434   0.152   2.815   6.351
 4497TIP3    H213435   0.065   2.834   6.473
 4498TIP3   OH213436   1.432   2.660   3.294
 4498TIP3    H113437   1.352   2.609   3.309
 4498TIP3    H213438   1.405   2.751   3.308
 4499TIP3   OH213439   1.890   1.177   5.402
 4499TIP3    H113440   1.837   1.170   5.323
 4499TIP3    H213441   1.828   1.169   5.474
 4500TIP3   OH213442   6.821   5.636   0.811
 4500TIP3    H113443   6.831   5.575   0.885
 4500TIP3    H213444   6.874   5.597   0.742
 4501TIP3   OH213445   1.562   3.942   5.705
 4501TIP3    H113446   1.575   3.934   5.611
 4501TIP3    H213447   1.563   4.037   5.721
 4502TIP3   OH213448   5.077   5.373   6.196
 4502TIP3    H113449   5.077   5.337   6.285
 4502TIP3    H213450   5.164   5.351   6.161
 4503TIP3   OH213451   3.908   5.332   4.020
 4503TIP3    H113452   3.869   5.418   4.003
 4503TIP3    H213453   3.970   5.348   4.092
 4504TIP3   OH213454   6.600   2.487   3.387
 4504TIP3    H113455   6.552   2.409   3.362
 4504TIP3    H213456   6.691   2.459   3.393
 4505TIP3   OH213457   8.080   0.846   4.269
 4505TIP3    H113458   8.100   0.767   4.218
 4505TIP3    H213459   7.994   0.874   4.237
 4506TIP3   OH213460   0.879   4.321   5.390
 4506TIP3    H113461   0.891   4.352   5.479
 4506TIP3    H213462   0.844   4.232   5.399
 4507TIP3   OH213463   2.041   7.408   0.190
 4507TIP3    H113464   2.020   7.361   0.109
 4507TIP3    H213465   2.131   7.439   0.177
 4508TIP3   OH213466   6.001   5.178   5.370
 4508TIP3    H113467   6.077   5.159   5.315
 4508TIP3    H213468   5.938   5.110   5.347
 4509TIP3   OH213469   7.419   3.597   5.260
 4509TIP3    H113470   7.387   3.508   5.276
 4509TIP3    H213471   7.371   3.652   5.322
 4510TIP3   OH213472   6.661   2.382   3.761
 4510TIP3    H113473   6.746   2.388   3.717
 4510TIP3    H213474   6.673   2.430   3.843
 4511TIP3   OH213475   0.971   1.321   2.217
 4511TIP3    H113476   0.987   1.345   2.125
 4511TIP3    H213477   0.878   1.299   2.221
 4512TIP3   OH213478   2.576   3.471   1.390
 4512TIP3    H113479   2.552   3.402   1.452
 4512TIP3    H213480   2.492   3.502   1.356
 4513TIP3   OH213481   5.666   2.844   2.303
 4513TIP3    H113482   5.720   2.765   2.299
 4513TIP3    H213483   5.684   2.881   2.389
 4514TIP3   OH213484   1.737   2.449   3.685
 4514TIP3    H113485   1.787   2.470   3.606
 4514TIP3    H213486   1.709   2.358   3.671
 4515TIP3   OH213487   5.588   6.528   0.187
 4515TIP3    H113488   5.531   6.462   0.226
 4515TIP3    H213489   5.662   6.479   0.153
 4516TIP3   OH213490   2.109   7.820   4.617
 4516TIP3    H113491   2.144   7.752   4.674
 4516TIP3    H213492   2.055   7.774   4.553
 4517TIP3   OH213493   2.030   0.116   4.942
 4517TIP3    H113494   1.979   0.197   4.929
 4517TIP3    H213495   1.998   0.057   4.874
 4518TIP3   OH213496   1.901   3.625   1.726
 4518TIP3    H113497   1.844   3.634   1.802
 4518TIP3    H213498   1.931   3.534   1.728
 4519TIP3   OH213499   0.165   4.818   4.593
 4519TIP3    H113500   0.146   4.811   4.499
 4519TIP3    H213501   0.147   4.731   4.628
 4520TIP3   OH213502   4.459   1.550   4.493
 4520TIP3    H113503   4.538   1.581   4.537
 4520TIP3    H213504   4.443   1.613   4.423
 4521TIP3   OH213505   4.173   2.839   0.325
 4521TIP3    H113506   4.220   2.919   0.301
 4521TIP3    H213507   4.117   2.821   0.249
 4522TIP3   OH213508   2.429   0.087   3.703
 4522TIP3    H113509   2.445   0.143   3.628
 4522TIP3    H213510   2.501   0.024   3.702
 4523TIP3   OH213511   7.043   2.119   0.672
 4523TIP3    H113512   7.059   2.128   0.578
 4523TIP3    H213513   7.024   2.026   0.684
 4524TIP3   OH213514   0.302   7.495   1.805
 4524TIP3    H113515   0.294   7.450   1.721
 4524TIP3    H213516   0.384   7.464   1.842
 4525TIP3   OH213517   8.136   5.685   0.143
 4525TIP3    H113518   8.112   5.651   0.229
 4525TIP3    H213519   8.067   5.748   0.122
 4526TIP3   OH213520   2.537   7.574   2.492
 4526TIP3    H113521   2.456   7.622   2.473
 4526TIP3    H213522   2.607   7.636   2.471
 4527TIP3   OH213523   1.693   7.577   1.582
 4527TIP3    H113524   1.644   7.613   1.656
 4527TIP3    H213525   1.755   7.646   1.557
 4528TIP3   OH213526   6.328   0.182   2.835
 4528TIP3    H113527   6.310   0.268   2.797
 4528TIP3    H213528   6.250   0.160   2.886
 4529TIP3   OH213529   0.555   5.288   2.601
 4529TIP3    H113530   0.461   5.278   2.616
 4529TIP3    H213531   0.580   5.365   2.652
 4530TIP3   OH213532   6.704   4.394   2.009
 4530TIP3    H113533   6.799   4.404   2.008
 4530TIP3    H213534   6.689   4.301   1.992
 4531TIP3   OH213535   4.229   6.910   3.413
 4531TIP3    H113536   4.152   6.941   3.461
 4531TIP3    H213537   4.273   6.850   3.474
 4532TIP3   OH213538   7.750   5.089   1.094
 4532TIP3    H113539   7.687   5.020   1.075
 4532TIP3    H213540   7.734   5.156   1.027
 4533TIP3   OH213541   7.028   1.440   4.898
 4533TIP3    H113542   6.939   1.445   4.932
 4533TIP3    H213543   7.034   1.354   4.858
 4534TIP3   OH213544   2.689   0.287   0.117
 4534TIP3    H113545   2.763   0.291   0.177
 4534TIP3    H213546   2.629   0.355   0.146
 4535TIP3   OH213547   3.633   7.778   2.074
 4535TIP3    H113548   3.601   7.750   2.160
 4535TIP3    H213549   3.668   7.699   2.034
 4536TIP3   OH213550   1.035   1.300   4.530
 4536TIP3    H113551   1.124   1.330   4.512
 4536TIP3    H213552   1.012   1.343   4.612
 4537TIP3   OH213553   8.071   6.727   2.800
 4537TIP3    H113554   8.116   6.782   2.736
 4537TIP3    H213555   8.124   6.648   2.805
 4538TIP3   OH213556   4.838   6.345   0.995
 4538TIP3    H113557   4.751   6.328   1.031
 4538TIP3    H213558   4.883   6.394   1.064
 4539TIP3   OH213559   5.795   5.091   3.963
 4539TIP3    H113560   5.764   5.168   3.916
 4539TIP3    H213561   5.830   5.033   3.895
 4540TIP3   OH213562   4.766   5.272   2.833
 4540TIP3    H113563   4.740   5.355   2.794
 4540TIP3    H213564   4.832   5.237   2.773
 4541TIP3   OH213565   4.861   1.020   0.642
 4541TIP3    H113566   4.869   0.926   0.659
 4541TIP3    H213567   4.918   1.061   0.707
 4542TIP3   OH213568   2.575   1.036   3.106
 4542TIP3    H113569   2.625   0.957   3.129
 4542TIP3    H213570   2.629   1.079   3.039
 4543TIP3   OH213571   7.426   7.385   4.899
 4543TIP3    H113572   7.428   7.457   4.963
 4543TIP3    H213573   7.405   7.427   4.816
 4544TIP3   OH213574   0.100   5.615   0.360
 4544TIP3    H113575   0.172   5.667   0.325
 4544TIP3    H213576   0.121   5.525   0.334
 4545TIP3   OH213577   1.378   3.645   3.436
 4545TIP3    H113578   1.445   3.703   3.399
 4545TIP3    H213579   1.312   3.638   3.367
 4546TIP3   OH213580   2.194   0.590   3.963
 4546TIP3    H113581   2.265   0.529   3.984
 4546TIP3    H213582   2.140   0.543   3.900
 4547TIP3   OH213583   4.395   6.395   1.808
 4547TIP3    H113584   4.399   6.488   1.787
 4547TIP3    H213585   4.362   6.354   1.728
 4548TIP3   OH213586   4.280   3.096   3.744
 4548TIP3    H113587   4.302   3.022   3.801
 4548TIP3    H213588   4.285   3.173   3.800
 4549TIP3   OH213589   4.651   5.468   2.564
 4549TIP3    H113590   4.637   5.562   2.563
 4549TIP3    H213591   4.697   5.450   2.483
 4550TIP3   OH213592   3.835   5.262   0.948
 4550TIP3    H113593   3.806   5.341   0.993
 4550TIP3    H213594   3.760   5.235   0.895
 4551TIP3   OH213595   5.293   2.387   0.084
 4551TIP3    H113596   5.332   2.468   0.051
 4551TIP3    H213597   5.368   2.330   0.101
 4552TIP3   OH213598   4.142   3.595   5.518
 4552TIP3    H113599   4.195   3.667   5.551
 4552TIP3    H213600   4.060   3.635   5.490
 4553TIP3   OH213601   6.817   5.218   1.515
 4553TIP3    H113602   6.856   5.304   1.502
 4553TIP3    H213603   6.866   5.160   1.456
 4554TIP3   OH213604   2.760   4.453   6.351
 4554TIP3    H113605   2.774   4.394   6.426
 4554TIP3    H213606   2.667   4.474   6.355
 4555TIP3   OH213607  -0.004   2.989   2.683
 4555TIP3    H113608   0.070   3.037   2.719
 4555TIP3    H213609  -0.057   3.056   2.640
 4556TIP3   OH213610   5.155   4.165   1.535
 4556TIP3    H113611   5.062   4.142   1.531
 4556TIP3    H213612   5.200   4.081   1.540
 4557TIP3   OH213613   3.269   3.031   3.272
 4557TIP3    H113614   3.189   3.078   3.251
 4557TIP3    H213615   3.336   3.099   3.277
 4558TIP3   OH213616   4.269   4.533   5.117
 4558TIP3    H113617   4.229   4.565   5.199
 4558TIP3    H213618   4.205   4.556   5.050
 4559TIP3   OH213619   1.001   3.148   1.308
 4559TIP3    H113620   0.938   3.219   1.320
 4559TIP3    H213621   0.948   3.070   1.295
 4560TIP3   OH213622   0.425   0.699   5.009
 4560TIP3    H113623   0.337   0.736   4.997
 4560TIP3    H213624   0.481   0.774   5.025
 4561TIP3   OH213625   4.059   0.311   3.472
 4561TIP3    H113626   4.054   0.390   3.419
 4561TIP3    H213627   4.047   0.341   3.562
 4562TIP3   OH213628   6.678   6.483   5.954
 4562TIP3    H113629   6.715   6.562   5.914
 4562TIP3    H213630   6.627   6.515   6.028
 4563TIP3   OH213631   0.197   3.674   5.239
 4563TIP3    H113632   0.117   3.653   5.192
 4563TIP3    H213633   0.190   3.767   5.260
 4564TIP3   OH213634   0.778   0.958   6.145
 4564TIP3    H113635   0.750   1.034   6.195
 4564TIP3    H213636   0.718   0.888   6.172
 4565TIP3   OH213637   5.751   3.989   3.877
 4565TIP3    H113638   5.805   4.061   3.910
 4565TIP3    H213639   5.726   3.940   3.955
 4566TIP3   OH213640   4.875   4.006   2.958
 4566TIP3    H113641   4.852   3.913   2.956
 4566TIP3    H213642   4.921   4.017   3.042
 4567TIP3   OH213643   2.098   2.151   2.690
 4567TIP3    H113644   2.028   2.212   2.714
 4567TIP3    H213645   2.174   2.181   2.740
 4568TIP3   OH213646   0.724   1.211   6.273
 4568TIP3    H113647   0.646   1.260   6.299
 4568TIP3    H213648   0.787   1.279   6.246
 4569TIP3   OH213649   3.472   1.045   1.813
 4569TIP3    H113650   3.470   1.048   1.717
 4569TIP3    H213651   3.380   1.047   1.839
 4570TIP3   OH213652   4.231   1.676   4.023
 4570TIP3    H113653   4.211   1.612   4.092
 4570TIP3    H213654   4.308   1.723   4.055
 4571TIP3   OH213655   3.770   2.548   4.426
 4571TIP3    H113656   3.687   2.595   4.418
 4571TIP3    H213657   3.773   2.519   4.517
 4572TIP3   OH213658   1.358   5.827   4.470
 4572TIP3    H113659   1.453   5.834   4.479
 4572TIP3    H213660   1.333   5.901   4.414
 4573TIP3   OH213661   5.523   4.337   5.708
 4573TIP3    H113662   5.542   4.278   5.781
 4573TIP3    H213663   5.547   4.424   5.741
 4574TIP3   OH213664   2.460   1.793   6.359
 4574TIP3    H113665   2.382   1.830   6.402
 4574TIP3    H213666   2.522   1.865   6.355
 4575TIP3   OH213667   0.355   5.646   3.440
 4575TIP3    H113668   0.449   5.659   3.437
 4575TIP3    H213669   0.328   5.683   3.524
 4576TIP3   OH213670   4.667   0.353   3.939
 4576TIP3    H113671   4.690   0.301   3.862
 4576TIP3    H213672   4.751   0.383   3.974
 4577TIP3   OH213673   1.340   3.800   4.454
 4577TIP3    H113674   1.287   3.793   4.374
 4577TIP3    H213675   1.277   3.818   4.524
 4578TIP3   OH213676   2.352   2.517   4.161
 4578TIP3    H113677   2.295   2.493   4.235
 4578TIP3    H213678   2.314   2.599   4.129
 4579TIP3   OH213679   5.719   3.650   0.639
 4579TIP3    H113680   5.772   3.692   0.707
 4579TIP3    H213681   5.658   3.718   0.611
 4580TIP3   OH213682   6.913   5.978   0.630
 4580TIP3    H113683   6.905   5.897   0.579
 4580TIP3    H213684   6.921   5.949   0.720
 4581TIP3   OH213685   1.130   6.814   2.533
 4581TIP3    H113686   1.119   6.909   2.528
 4581TIP3    H213687   1.224   6.801   2.551
 4582TIP3   OH213688   6.176   6.156   5.343
 4582TIP3    H113689   6.108   6.088   5.340
 4582TIP3    H213690   6.251   6.114   5.385
 4583TIP3   OH213691   5.946   1.840   0.244
 4583TIP3    H113692   5.896   1.758   0.248
 4583TIP3    H213693   6.037   1.812   0.246
 4584TIP3   OH213694   0.136   0.980   1.620
 4584TIP3    H113695   0.114   1.042   1.689
 4584TIP3    H213696   0.211   0.932   1.654
 4585TIP3   OH213697   2.871   5.420   1.940
 4585TIP3    H113698   2.794   5.378   1.978
 4585TIP3    H213699   2.855   5.513   1.949
 4586TIP3   OH213700   5.598   3.069   0.268
 4586TIP3    H113701   5.689   3.089   0.290
 4586TIP3    H213702   5.550   3.149   0.292
 4587TIP3   OH213703   7.417   4.745   6.236
 4587TIP3    H113704   7.438   4.826   6.188
 4587TIP3    H213705   7.495   4.691   6.227
 4588TIP3   OH213706   4.327   0.595   0.649
 4588TIP3    H113707   4.313   0.556   0.563
 4588TIP3    H213708   4.278   0.539   0.709
 4589TIP3   OH213709   7.092   6.296   4.252
 4589TIP3    H113710   7.083   6.373   4.309
 4589TIP3    H213711   7.184   6.294   4.229
 4590TIP3   OH213712   6.782   1.996   3.023
 4590TIP3    H113713   6.733   2.068   3.062
 4590TIP3    H213714   6.727   1.965   2.951
 4591TIP3   OH213715   5.117   1.590   5.770
 4591TIP3    H113716   5.125   1.674   5.816
 4591TIP3    H213717   5.023   1.570   5.773
 4592TIP3   OH213718   6.479   1.656   6.388
 4592TIP3    H113719   6.403   1.665   6.330
 4592TIP3    H213720   6.554   1.678   6.334
 4593TIP3   OH213721   2.364   7.579   3.001
 4593TIP3    H113722   2.420   7.581   2.923
 4593TIP3    H213723   2.275   7.578   2.966
 4594TIP3   OH213724   3.213   7.594   0.950
 4594TIP3    H113725   3.217   7.556   0.862
 4594TIP3    H213726   3.134   7.557   0.989
 4595TIP3   OH213727   4.607   2.003   1.514
 4595TIP3    H113728   4.517   1.972   1.502
 4595TIP3    H213729   4.621   2.001   1.608
 4596TIP3   OH213730   5.050   1.049   5.704
 4596TIP3    H113731   5.006   1.130   5.679
 4596TIP3    H213732   5.052   0.996   5.624
 4597TIP3   OH213733   0.566   2.279   4.644
 4597TIP3    H113734   0.471   2.267   4.635
 4597TIP3    H213735   0.585   2.359   4.594
 4598TIP3   OH213736   1.026   4.995   0.932
 4598TIP3    H113737   1.020   4.991   1.027
 4598TIP3    H213738   1.094   5.059   0.914
 4599TIP3   OH213739   2.308   3.569   2.943
 4599TIP3    H113740   2.268   3.610   2.867
 4599TIP3    H213741   2.248   3.498   2.967
 4600TIP3   OH213742   2.100   4.713   4.962
 4600TIP3    H113743   2.065   4.627   4.942
 4600TIP3    H213744   2.163   4.697   5.032
 4601TIP3   OH213745   4.467   5.225   0.767
 4601TIP3    H113746   4.511   5.180   0.839
 4601TIP3    H213747   4.387   5.175   0.754
 4602TIP3   OH213748   2.594   7.030   3.508
 4602TIP3    H113749   2.661   6.962   3.509
 4602TIP3    H213750   2.568   7.037   3.416
 4603TIP3   OH213751   7.027   1.155   0.480
 4603TIP3    H113752   7.091   1.179   0.413
 4603TIP3    H213753   7.023   1.231   0.538
 4604TIP3   OH213754   8.177   5.888   0.375
 4604TIP3    H113755   8.088   5.901   0.408
 4604TIP3    H213756   8.221   5.837   0.443
 4605TIP3   OH213757   7.575   0.509   5.442
 4605TIP3    H113758   7.664   0.512   5.408
 4605TIP3    H213759   7.581   0.454   5.520
 4606TIP3   OH213760   6.436   4.405   2.043
 4606TIP3    H113761   6.432   4.472   1.974
 4606TIP3    H213762   6.530   4.389   2.055
 4607TIP3   OH213763   1.510   7.639   5.289
 4607TIP3    H113764   1.479   7.644   5.199
 4607TIP3    H213765   1.430   7.649   5.342
 4608TIP3   OH213766   5.593   3.468   5.604
 4608TIP3    H113767   5.589   3.450   5.698
 4608TIP3    H213768   5.683   3.449   5.579
 4609TIP3   OH213769   3.468   1.167   3.142
 4609TIP3    H113770   3.495   1.131   3.226
 4609TIP3    H213771   3.372   1.166   3.146
 4610TIP3   OH213772   2.579   7.432   0.265
 4610TIP3    H113773   2.557   7.507   0.209
 4610TIP3    H213774   2.642   7.381   0.214
 4611TIP3   OH213775   4.506   6.598   4.318
 4611TIP3    H113776   4.560   6.547   4.258
 4611TIP3    H213777   4.441   6.536   4.352
 4612TIP3   OH213778   6.580   3.879   6.546
 4612TIP3    H113779   6.571   3.784   6.542
 4612TIP3    H213780   6.564   3.908   6.456
 4613TIP3   OH213781   3.848   2.200   1.955
 4613TIP3    H113782   3.763   2.169   1.923
 4613TIP3    H213783   3.866   2.278   1.903
 4614TIP3   OH213784   7.492   3.067   5.735
 4614TIP3    H113785   7.417   3.009   5.721
 4614TIP3    H213786   7.568   3.008   5.734
 4615TIP3   OH213787   7.149   7.653   4.334
 4615TIP3    H113788   7.239   7.620   4.328
 4615TIP3    H213789   7.125   7.673   4.244
 4616TIP3   OH213790   2.919   3.703   2.612
 4616TIP3    H113791   2.938   3.765   2.542
 4616TIP3    H213792   2.878   3.757   2.681
 4617TIP3   OH213793   0.403   1.227   3.310
 4617TIP3    H113794   0.472   1.241   3.245
 4617TIP3    H213795   0.322   1.226   3.259
 4618TIP3   OH213796   4.772   2.767   0.116
 4618TIP3    H113797   4.736   2.708   0.182
 4618TIP3    H213798   4.706   2.835   0.105
 4619TIP3   OH213799   8.257   4.641   4.801
 4619TIP3    H113800   8.299   4.603   4.878
 4619TIP3    H213801   8.214   4.567   4.758
 4620TIP3   OH213802   5.234   2.369   5.336
 4620TIP3    H113803   5.305   2.350   5.275
 4620TIP3    H213804   5.160   2.319   5.304
 4621TIP3   OH213805   6.966   4.037   4.126
 4621TIP3    H113806   6.927   4.001   4.047
 4621TIP3    H213807   6.921   4.121   4.139
 4622TIP3   OH213808   8.075   3.735   4.814
 4622TIP3    H113809   8.139   3.769   4.877
 4622TIP3    H213810   8.001   3.795   4.820
 4623TIP3   OH213811   3.033   5.874   4.560
 4623TIP3    H113812   3.057   5.835   4.476
 4623TIP3    H213813   3.099   5.941   4.576
 4624TIP3   OH213814   7.608   1.009   3.687
 4624TIP3    H113815   7.521   0.980   3.658
 4624TIP3    H213816   7.619   1.095   3.645
 4625TIP3   OH213817   4.586   5.580   3.154
 4625TIP3    H113818   4.495   5.606   3.138
 4625TIP3    H213819   4.594   5.494   3.114
 4626TIP3   OH213820   4.345   4.065   0.405
 4626TIP3    H113821   4.361   4.016   0.324
 4626TIP3    H213822   4.432   4.086   0.438
 4627TIP3   OH213823   8.272   7.447   3.416
 4627TIP3    H113824   8.288   7.449   3.322
 4627TIP3    H213825   8.177   7.452   3.425
 4628TIP3   OH213826   3.203   4.828   0.878
 4628TIP3    H113827   3.279   4.852   0.826
 4628TIP3    H213828   3.155   4.765   0.823
 4629TIP3   OH213829   3.219   0.019   5.803
 4629TIP3    H113830   3.210  -0.065   5.849
 4629TIP3    H213831   3.198   0.085   5.870
 4630TIP3   OH213832   8.157   4.256   6.085
 4630TIP3    H113833   8.094   4.293   6.024
 4630TIP3    H213834   8.115   4.178   6.120
 4631TIP3   OH213835   8.176   3.471   1.189
 4631TIP3    H113836   8.241   3.537   1.163
 4631TIP3    H213837   8.152   3.495   1.279
 4632TIP3   OH213838   4.280   7.610   4.868
 4632TIP3    H113839   4.262   7.580   4.779
 4632TIP3    H213840   4.211   7.672   4.887
 4633TIP3   OH213841   6.240   6.703   3.087
 4633TIP3    H113842   6.303   6.772   3.063
 4633TIP3    H213843   6.232   6.650   3.008
 4634TIP3   OH213844   2.624   0.507   5.435
 4634TIP3    H113845   2.588   0.591   5.406
 4634TIP3    H213846   2.547   0.457   5.463
 4635TIP3   OH213847   2.224   2.458   2.822
 4635TIP3    H113848   2.244   2.496   2.908
 4635TIP3    H213849   2.156   2.515   2.786
 4636TIP3   OH213850   6.735   1.748   1.905
 4636TIP3    H113851   6.664   1.781   1.961
 4636TIP3    H213852   6.791   1.699   1.965
 4637TIP3   OH213853   1.125   7.762   4.727
 4637TIP3    H113854   1.123   7.835   4.665
 4637TIP3    H213855   1.148   7.686   4.674
 4638TIP3   OH213856   6.697   4.736   3.548
 4638TIP3    H113857   6.703   4.731   3.643
 4638TIP3    H213858   6.630   4.802   3.531
 4639TIP3   OH213859   2.360   7.791   0.778
 4639TIP3    H113860   2.455   7.777   0.781
 4639TIP3    H213861   2.339   7.798   0.685
 4640TIP3   OH213862   5.358   1.809   3.235
 4640TIP3    H113863   5.311   1.860   3.168
 4640TIP3    H213864   5.374   1.872   3.305
 4641TIP3   OH213865   4.952   1.173   3.073
 4641TIP3    H113866   5.024   1.123   3.035
 4641TIP3    H213867   4.873   1.134   3.036
 4642TIP3   OH213868   5.346   0.770   5.313
 4642TIP3    H113869   5.263   0.749   5.271
 4642TIP3    H213870   5.377   0.687   5.349
 4643TIP3   OH213871   4.329   4.287   3.187
 4643TIP3    H113872   4.400   4.337   3.145
 4643TIP3    H213873   4.355   4.283   3.279
 4644TIP3   OH213874   7.795   7.163   5.158
 4644TIP3    H113875   7.834   7.250   5.159
 4644TIP3    H213876   7.816   7.128   5.071
 4645TIP3   OH213877   0.627   1.593   5.227
 4645TIP3    H113878   0.594   1.533   5.294
 4645TIP3    H213879   0.654   1.671   5.276
 4646TIP3   OH213880   0.800   4.427   4.771
 4646TIP3    H113881   0.890   4.457   4.763
 4646TIP3    H213882   0.771   4.462   4.855
 4647TIP3   OH213883   3.640   4.853   1.003
 4647TIP3    H113884   3.711   4.789   1.016
 4647TIP3    H213885   3.684   4.938   1.003
 4648TIP3   OH213886   6.468   4.981   1.908
 4648TIP3    H113887   6.544   4.931   1.880
 4648TIP3    H213888   6.444   5.034   1.832
 4649TIP3   OH213889   4.467   6.899   5.300
 4649TIP3    H113890   4.425   6.825   5.344
 4649TIP3    H213891   4.466   6.969   5.365
 4650TIP3   OH213892   4.382   0.300   1.435
 4650TIP3    H113893   4.356   0.391   1.451
 4650TIP3    H213894   4.335   0.250   1.502
 4651TIP3   OH213895   7.661   6.952   0.135
 4651TIP3    H113896   7.635   6.863   0.113
 4651TIP3    H213897   7.585   6.989   0.181
 4652TIP3   OH213898   5.022   6.241   6.136
 4652TIP3    H113899   4.939   6.207   6.171
 4652TIP3    H213900   5.081   6.240   6.211
 4653TIP3   OH213901   6.096   7.491   1.107
 4653TIP3    H113902   6.177   7.543   1.104
 4653TIP3    H213903   6.102   7.434   1.030
 4654TIP3   OH213904   3.633   5.246   0.703
 4654TIP3    H113905   3.625   5.173   0.642
 4654TIP3    H213906   3.688   5.309   0.658
 4655TIP3   OH213907   6.690   5.772   2.999
 4655TIP3    H113908   6.634   5.712   3.049
 4655TIP3    H213909   6.638   5.853   2.992
 4656TIP3   OH213910   7.789   0.169   1.063
 4656TIP3    H113911   7.697   0.193   1.072
 4656TIP3    H213912   7.834   0.253   1.053
 4657TIP3   OH213913   0.268   4.956   3.431
 4657TIP3    H113914   0.225   5.041   3.444
 4657TIP3    H213915   0.361   4.977   3.423
 4658TIP3   OH213916   1.975   3.864   6.302
 4658TIP3    H113917   2.048   3.838   6.358
 4658TIP3    H213918   2.017   3.893   6.221
 4659TIP3   OH213919   4.429   7.294   4.367
 4659TIP3    H113920   4.486   7.261   4.436
 4659TIP3    H213921   4.426   7.223   4.303
 4660TIP3   OH213922   1.512   7.649   3.881
 4660TIP3    H113923   1.572   7.703   3.933
 4660TIP3    H213924   1.487   7.705   3.807
 4661TIP3   OH213925   3.559   0.526   6.294
 4661TIP3    H113926   3.629   0.549   6.356
 4661TIP3    H213927   3.537   0.435   6.315
 4662TIP3   OH213928   5.586   3.095   3.653
 4662TIP3    H113929   5.589   3.161   3.723
 4662TIP3    H213930   5.582   3.145   3.572
 4663TIP3   OH213931   8.309   4.326   4.417
 4663TIP3    H113932   8.345   4.239   4.400
 4663TIP3    H213933   8.260   4.348   4.338
 4664TIP3   OH213934   0.282   6.087   4.481
 4664TIP3    H113935   0.203   6.034   4.488
 4664TIP3    H213936   0.251   6.172   4.448
 4665TIP3   OH213937   0.453   7.598   0.571
 4665TIP3    H113938   0.502   7.621   0.493
 4665TIP3    H213939   0.504   7.528   0.612
 4666TIP3   OH213940   2.206   3.041   0.588
 4666TIP3    H113941   2.270   3.095   0.542
 4666TIP3    H213942   2.185   2.971   0.527
 4667TIP3   OH213943   3.771   4.903   5.580
 4667TIP3    H113944   3.681   4.914   5.612
 4667TIP3    H213945   3.770   4.821   5.532
 4668TIP3   OH213946   5.865   2.797   2.969
 4668TIP3    H113947   5.955   2.794   2.935
 4668TIP3    H213948   5.863   2.875   3.024
 4669TIP3   OH213949   7.491   7.114   2.278
 4669TIP3    H113950   7.476   7.065   2.197
 4669TIP3    H213951   7.422   7.083   2.337
 4670TIP3   OH213952   3.426   7.131   3.916
 4670TIP3    H113953   3.384   7.046   3.929
 4670TIP3    H213954   3.434   7.140   3.821
 4671TIP3   OH213955   6.672   2.152   0.223
 4671TIP3    H113956   6.654   2.207   0.148
 4671TIP3    H213957   6.760   2.116   0.206
 4672TIP3   OH213958   1.442   5.644   5.013
 4672TIP3    H113959   1.383   5.645   5.089
 4672TIP3    H213960   1.507   5.577   5.034
 4673TIP3   OH213961   1.037   2.286   4.614
 4673TIP3    H113962   1.041   2.206   4.561
 4673TIP3    H213963   0.977   2.343   4.566
 4674TIP3   OH213964   4.365   5.754   5.374
 4674TIP3    H113965   4.353   5.752   5.279
 4674TIP3    H213966   4.454   5.788   5.386
 4675TIP3   OH213967   0.101   6.418   6.695
 4675TIP3    H113968   0.173   6.373   6.738
 4675TIP3    H213969   0.142   6.468   6.625
 4676TIP3   OH213970   2.264   2.572   0.149
 4676TIP3    H113971   2.247   2.494   0.096
 4676TIP3    H213972   2.319   2.542   0.221
 4677TIP3   OH213973   2.997   3.939   1.332
 4677TIP3    H113974   3.038   3.853   1.325
 4677TIP3    H213975   2.980   3.950   1.426
 4678TIP3   OH213976   7.582   5.471   1.653
 4678TIP3    H113977   7.655   5.497   1.710
 4678TIP3    H213978   7.594   5.525   1.574
 4679TIP3   OH213979   8.036   1.346   1.701
 4679TIP3    H113980   8.125   1.368   1.728
 4679TIP3    H213981   7.982   1.416   1.737
 4680TIP3   OH213982   2.863   6.599   3.092
 4680TIP3    H113983   2.937   6.541   3.074
 4680TIP3    H213984   2.820   6.560   3.168
 4681TIP3   OH213985   2.097   5.156   1.237
 4681TIP3    H113986   2.059   5.069   1.229
 4681TIP3    H213987   2.047   5.199   1.306
 4682TIP3   OH213988   5.219   2.732   2.765
 4682TIP3    H113989   5.294   2.674   2.772
 4682TIP3    H213990   5.219   2.782   2.846
 4683TIP3   OH213991   0.611   6.260   5.708
 4683TIP3    H113992   0.527   6.216   5.697
 4683TIP3    H213993   0.600   6.345   5.667
 4684TIP3   OH213994   2.611   4.746   5.120
 4684TIP3    H113995   2.699   4.721   5.147
 4684TIP3    H213996   2.624   4.815   5.055
 4685TIP3   OH213997   3.614   6.819   6.411
 4685TIP3    H113998   3.607   6.910   6.440
 4685TIP3    H213999   3.623   6.768   6.492
 4686TIP3   OH214000   3.227   1.500   6.217
 4686TIP3    H114001   3.177   1.453   6.150
 4686TIP3    H214002   3.198   1.591   6.210
 4687TIP3   OH214003   7.272   6.732   4.767
 4687TIP3    H114004   7.331   6.778   4.826
 4687TIP3    H214005   7.329   6.687   4.706
 4688TIP3   OH214006   6.303   3.316   1.643
 4688TIP3    H114007   6.390   3.307   1.681
 4688TIP3    H214008   6.244   3.277   1.707
 4689TIP3   OH214009   7.747   3.611   4.550
 4689TIP3    H114010   7.827   3.595   4.501
 4689TIP3    H214011   7.686   3.645   4.484
 4690TIP3   OH214012   1.433   0.117   0.427
 4690TIP3    H114013   1.527   0.130   0.438
 4690TIP3    H214014   1.414   0.036   0.474
 4691TIP3   OH214015   4.515   3.646   5.315
 4691TIP3    H114016   4.522   3.647   5.410
 4691TIP3    H214017   4.605   3.658   5.284
 4692TIP3   OH214018   1.892   2.693   2.790
 4692TIP3    H114019   1.942   2.656   2.717
 4692TIP3    H214020   1.954   2.695   2.863
 4693TIP3   OH214021   1.805   2.942   1.210
 4693TIP3    H114022   1.775   3.033   1.214
 4693TIP3    H214023   1.735   2.891   1.250
 4694TIP3   OH214024   5.727   2.259   5.191
 4694TIP3    H114025   5.653   2.241   5.249
 4694TIP3    H214026   5.704   2.216   5.109
 4695TIP3   OH214027   6.720   3.685   0.940
 4695TIP3    H114028   6.651   3.621   0.918
 4695TIP3    H214029   6.776   3.638   1.002
 4696TIP3   OH214030   4.294   1.648   2.779
 4696TIP3    H114031   4.319   1.575   2.836
 4696TIP3    H214032   4.208   1.625   2.746
 4697TIP3   OH214033   4.148   4.477   3.972
 4697TIP3    H114034   4.119   4.483   4.063
 4697TIP3    H214035   4.069   4.492   3.921
 4698TIP3   OH214036   1.505   6.749   2.295
 4698TIP3    H114037   1.600   6.758   2.302
 4698TIP3    H214038   1.487   6.660   2.325
 4699TIP3   OH214039   6.537   4.651   4.446
 4699TIP3    H114040   6.572   4.586   4.385
 4699TIP3    H214041   6.570   4.734   4.414
 4700TIP3   OH214042   2.748   4.970   2.368
 4700TIP3    H114043   2.791   5.054   2.382
 4700TIP3    H214044   2.684   4.963   2.438
 4701TIP3   OH214045   4.761   2.017   6.032
 4701TIP3    H114046   4.830   2.081   6.013
 4701TIP3    H214047   4.689   2.041   5.974
 4702TIP3   OH214048   3.301   6.919   4.851
 4702TIP3    H114049   3.210   6.896   4.868
 4702TIP3    H214050   3.306   7.014   4.868
 4703TIP3   OH214051   5.061   1.917   2.443
 4703TIP3    H114052   4.986   1.870   2.481
 4703TIP3    H214053   5.136   1.883   2.491
 4704TIP3   OH214054   7.317   6.518   3.549
 4704TIP3    H114055   7.289   6.448   3.490
 4704TIP3    H214056   7.374   6.474   3.612
 4705TIP3   OH214057   5.063   3.119   4.538
 4705TIP3    H114058   4.984   3.118   4.484
 4705TIP3    H214059   5.032   3.106   4.627
 4706TIP3   OH214060   6.842   2.755   4.339
 4706TIP3    H114061   6.844   2.678   4.283
 4706TIP3    H214062   6.911   2.739   4.404
 4707TIP3   OH214063   0.895   5.090   4.104
 4707TIP3    H114064   0.811   5.133   4.089
 4707TIP3    H214065   0.928   5.130   4.184
 4708TIP3   OH214066   1.304   6.886   5.263
 4708TIP3    H114067   1.327   6.797   5.235
 4708TIP3    H214068   1.362   6.904   5.337
 4709TIP3   OH214069   1.883   2.864   1.510
 4709TIP3    H114070   1.913   2.802   1.577
 4709TIP3    H214071   1.825   2.813   1.454
 4710TIP3   OH214072   2.998   0.775   3.755
 4710TIP3    H114073   2.925   0.734   3.708
 4710TIP3    H214074   2.964   0.789   3.843
 4711TIP3   OH214075   7.769   5.806   5.960
 4711TIP3    H114076   7.805   5.722   5.986
 4711TIP3    H214077   7.775   5.860   6.039
 4712TIP3   OH214078   3.603   7.208   3.190
 4712TIP3    H114079   3.683   7.235   3.145
 4712TIP3    H214080   3.616   7.115   3.208
 4713TIP3   OH214081   1.073   6.975   5.391
 4713TIP3    H114082   1.043   6.899   5.441
 4713TIP3    H214083   1.146   6.942   5.338
 4714TIP3   OH214084   3.291   5.430   3.233
 4714TIP3    H114085   3.277   5.425   3.139
 4714TIP3    H214086   3.250   5.351   3.267
 4715TIP3   OH214087   7.369   7.380   2.181
 4715TIP3    H114088   7.428   7.310   2.210
 4715TIP3    H214089   7.331   7.347   2.100
 4716TIP3   OH214090   1.464   1.034   5.869
 4716TIP3    H114091   1.401   1.073   5.930
 4716TIP3    H214092   1.544   1.085   5.882
 4717TIP3   OH214093   7.461   7.607   6.027
 4717TIP3    H114094   7.461   7.565   5.941
 4717TIP3    H214095   7.474   7.700   6.008
 4718TIP3   OH214096   1.645   0.755   3.415
 4718TIP3    H114097   1.670   0.672   3.375
 4718TIP3    H214098   1.558   0.774   3.378
 4719TIP3   OH214099   7.624   2.410   3.995
 4719TIP3    H114100   7.633   2.504   3.979
 4719TIP3    H214101   7.546   2.402   4.049
 4720TIP3   OH214102   7.570   5.991   1.935
 4720TIP3    H114103   7.558   6.079   1.900
 4720TIP3    H214104   7.613   6.004   2.020
 4721TIP3   OH214105   2.984   1.118   4.192
 4721TIP3    H114106   3.045   1.049   4.165
 4721TIP3    H214107   2.900   1.091   4.155
 4722TIP3   OH214108   2.797   5.074   1.946
 4722TIP3    H114109   2.759   5.112   1.867
 4722TIP3    H214110   2.728   5.080   2.012
 4723TIP3   OH214111   6.029   3.248   6.312
 4723TIP3    H114112   6.092   3.304   6.357
 4723TIP3    H214113   6.038   3.163   6.354
 4724TIP3   OH214114   5.903   4.215   3.203
 4724TIP3    H114115   5.927   4.235   3.112
 4724TIP3    H214116   5.947   4.282   3.254
 4725TIP3   OH214117   8.160   3.152   6.752
 4725TIP3    H114118   8.238   3.102   6.776
 4725TIP3    H214119   8.193   3.238   6.727
 4726TIP3   OH214120   0.688   1.593   2.341
 4726TIP3    H114121   0.603   1.627   2.370
 4726TIP3    H214122   0.749   1.666   2.357
 4727TIP3   OH214123   4.958   4.590   6.394
 4727TIP3    H114124   5.004   4.650   6.453
 4727TIP3    H214125   4.926   4.520   6.451
 4728TIP3   OH214126   1.383   3.054   4.272
 4728TIP3    H114127   1.469   3.081   4.306
 4728TIP3    H214128   1.400   2.975   4.222
 4729TIP3   OH214129   4.659   5.214   2.223
 4729TIP3    H114130   4.644   5.177   2.136
 4729TIP3    H214131   4.607   5.294   2.225
 4730TIP3   OH214132   1.821   7.342   1.437
 4730TIP3    H114133   1.746   7.293   1.405
 4730TIP3    H214134   1.784   7.409   1.495
 4731TIP3   OH214135   4.379   6.656   1.718
 4731TIP3    H114136   4.447   6.722   1.716
 4731TIP3    H214137   4.303   6.700   1.757
 4732TIP3   OH214138   6.269   0.988   3.115
 4732TIP3    H114139   6.314   0.986   3.199
 4732TIP3    H214140   6.277   1.079   3.085
 4733TIP3   OH214141   3.339   1.438   2.191
 4733TIP3    H114142   3.412   1.497   2.174
 4733TIP3    H214143   3.330   1.387   2.111
 4734TIP3   OH214144   8.069   4.061   5.735
 4734TIP3    H114145   8.135   4.002   5.698
 4734TIP3    H214146   8.035   4.014   5.811
 4735TIP3   OH214147   3.151   1.736   3.130
 4735TIP3    H114148   3.056   1.731   3.141
 4735TIP3    H214149   3.170   1.830   3.130
 4736TIP3   OH214150   5.925   6.960   1.939
 4736TIP3    H114151   5.897   6.882   1.986
 4736TIP3    H214152   6.016   6.973   1.966
 4737TIP3   OH214153   1.438   4.417   1.890
 4737TIP3    H114154   1.358   4.382   1.930
 4737TIP3    H214155   1.409   4.462   1.811
 4738TIP3   OH214156   2.352   3.750   5.283
 4738TIP3    H114157   2.408   3.675   5.265
 4738TIP3    H214158   2.316   3.733   5.371
 4739TIP3   OH214159   4.792   4.810   5.722
 4739TIP3    H114160   4.852   4.832   5.650
 4739TIP3    H214161   4.798   4.714   5.729
 4740TIP3   OH214162   7.275  -0.001   2.465
 4740TIP3    H114163   7.312   0.072   2.515
 4740TIP3    H214164   7.240   0.040   2.386
 4741TIP3   OH214165   2.473   3.312   6.543
 4741TIP3    H114166   2.564   3.311   6.575
 4741TIP3    H214167   2.451   3.219   6.531
 4742TIP3   OH214168   4.800   5.237   4.062
 4742TIP3    H114169   4.707   5.260   4.063
 4742TIP3    H214170   4.830   5.258   4.151
 4743TIP3   OH214171   6.101   5.111   6.042
 4743TIP3    H114172   6.085   5.180   6.106
 4743TIP3    H214173   6.183   5.135   5.999
 4744TIP3   OH214174   1.824   7.169   6.576
 4744TIP3    H114175   1.764   7.238   6.547
 4744TIP3    H214176   1.832   7.112   6.499
 4745TIP3   OH214177   5.830   0.391   3.971
 4745TIP3    H114178   5.907   0.407   4.025
 4745TIP3    H214179   5.855   0.422   3.884
 4746TIP3   OH214180   4.568   7.701   5.685
 4746TIP3    H114181   4.525   7.702   5.600
 4746TIP3    H214182   4.526   7.630   5.733
 4747TIP3   OH214183   0.714   5.898   5.100
 4747TIP3    H114184   0.675   5.874   5.184
 4747TIP3    H214185   0.640   5.899   5.038
 4748TIP3   OH214186   7.335   5.508   3.388
 4748TIP3    H114187   7.352   5.576   3.323
 4748TIP3    H214188   7.306   5.556   3.466
 4749TIP3   OH214189   7.709   6.463   2.220
 4749TIP3    H114190   7.648   6.456   2.293
 4749TIP3    H214191   7.791   6.494   2.260
 4750TIP3   OH214192   7.733   7.685   5.737
 4750TIP3    H114193   7.814   7.713   5.782
 4750TIP3    H214194   7.724   7.747   5.664
 4751TIP3   OH214195   4.618   2.867   6.587
 4751TIP3    H114196   4.656   2.933   6.528
 4751TIP3    H214197   4.557   2.818   6.532
 4752TIP3   OH214198   0.407   3.901   3.065
 4752TIP3    H114199   0.389   3.987   3.104
 4752TIP3    H214200   0.323   3.857   3.065
 4753TIP3   OH214201   6.492   2.368   2.234
 4753TIP3    H114202   6.448   2.428   2.296
 4753TIP3    H214203   6.559   2.325   2.286
 4754TIP3   OH214204   1.958   2.760   0.303
 4754TIP3    H114205   1.899   2.784   0.375
 4754TIP3    H214206   1.924   2.807   0.227
 4755TIP3   OH214207   4.066   4.723   3.254
 4755TIP3    H114208   4.152   4.765   3.254
 4755TIP3    H214209   4.005   4.792   3.227
 4756TIP3   OH214210   2.994   5.632   6.293
 4756TIP3    H114211   2.949   5.595   6.368
 4756TIP3    H214212   3.021   5.720   6.322
 4757TIP3   OH214213   6.035   7.650   2.170
 4757TIP3    H114214   6.064   7.571   2.125
 4757TIP3    H214215   5.940   7.652   2.157
 4758TIP3   OH214216   1.742   0.225   3.051
 4758TIP3    H114217   1.709   0.188   2.969
 4758TIP3    H214218   1.738   0.320   3.037
 4759TIP3   OH214219   5.480   3.884   1.689
 4759TIP3    H114220   5.458   3.858   1.779
 4759TIP3    H214221   5.488   3.979   1.692
 4760TIP3   OH214222   5.470   2.713   3.817
 4760TIP3    H114223   5.560   2.691   3.839
 4760TIP3    H214224   5.464   2.697   3.723
 4761TIP3   OH214225   1.735   4.627   3.777
 4761TIP3    H114226   1.822   4.593   3.757
 4761TIP3    H214227   1.745   4.722   3.777
 4762TIP3   OH214228   0.411   2.542   2.624
 4762TIP3    H114229   0.331   2.525   2.672
 4762TIP3    H214230   0.478   2.489   2.668
 4763TIP3   OH214231   0.305   2.610   6.517
 4763TIP3    H114232   0.362   2.544   6.478
 4763TIP3    H214233   0.278   2.573   6.601
 4764TIP3   OH214234   4.072   6.685   5.184
 4764TIP3    H114235   4.087   6.705   5.277
 4764TIP3    H214236   4.127   6.608   5.168
 4765TIP3   OH214237   7.826   5.361   3.628
 4765TIP3    H114238   7.854   5.299   3.695
 4765TIP3    H214239   7.854   5.447   3.660
 4766TIP3   OH214240   1.525   7.053   4.716
 4766TIP3    H114241   1.506   7.114   4.646
 4766TIP3    H214242   1.605   7.087   4.757
 4767TIP3   OH214243   3.976   4.166   5.738
 4767TIP3    H114244   3.889   4.194   5.710
 4767TIP3    H214245   3.970   4.157   5.833
 4768TIP3   OH214246   5.442   5.494   0.297
 4768TIP3    H114247   5.476   5.528   0.380
 4768TIP3    H214248   5.365   5.442   0.322
 4769TIP3   OH214249   4.513   5.042   0.983
 4769TIP3    H114250   4.462   5.084   1.052
 4769TIP3    H214251   4.542   4.960   1.022
 4770TIP3   OH214252   5.162   5.503   5.034
 4770TIP3    H114253   5.248   5.464   5.045
 4770TIP3    H214254   5.102   5.445   5.081
 4771TIP3   OH214255   3.079   1.203   6.490
 4771TIP3    H114256   3.054   1.244   6.573
 4771TIP3    H214257   3.159   1.249   6.464
 4772TIP3   OH214258   3.644   2.101   3.659
 4772TIP3    H114259   3.721   2.125   3.711
 4772TIP3    H214260   3.569   2.131   3.710
 4773TIP3   OH214261   6.580   3.787   5.496
 4773TIP3    H114262   6.596   3.773   5.589
 4773TIP3    H214263   6.607   3.878   5.481
 4774TIP3   OH214264   3.012   6.979   6.092
 4774TIP3    H114265   3.013   7.053   6.031
 4774TIP3    H214266   3.080   7.001   6.156
 4775TIP3   OH214267   4.573   7.531   0.943
 4775TIP3    H114268   4.640   7.599   0.945
 4775TIP3    H214269   4.524   7.547   0.862
 4776TIP3   OH214270   7.059   6.592   1.945
 4776TIP3    H114271   7.136   6.537   1.958
 4776TIP3    H214272   7.028   6.571   1.857
 4777TIP3   OH214273   2.384   4.476   1.323
 4777TIP3    H114274   2.356   4.404   1.379
 4777TIP3    H214275   2.477   4.462   1.311
 4778TIP3   OH214276   5.286   1.757   4.676
 4778TIP3    H114277   5.348   1.704   4.625
 4778TIP3    H214278   5.336   1.834   4.703
 4779TIP3   OH214279   0.553   3.470   5.588
 4779TIP3    H114280   0.623   3.536   5.584
 4779TIP3    H214281   0.506   3.480   5.505
 4780TIP3   OH214282   0.487   4.527   0.166
 4780TIP3    H114283   0.555   4.461   0.172
 4780TIP3    H214284   0.426   4.506   0.237
 4781TIP3   OH214285   6.738   5.731   6.288
 4781TIP3    H114286   6.718   5.667   6.219
 4781TIP3    H214287   6.832   5.721   6.303
 4782TIP3   OH214288   1.491   4.374   5.541
 4782TIP3    H114289   1.575   4.329   5.526
 4782TIP3    H214290   1.496   4.453   5.488
 4783TIP3   OH214291   5.476   0.368   2.986
 4783TIP3    H114292   5.497   0.436   3.049
 4783TIP3    H214293   5.435   0.299   3.038
 4784TIP3   OH214294   3.996   6.520   3.891
 4784TIP3    H114295   4.059   6.573   3.939
 4784TIP3    H214296   4.048   6.451   3.850
 4785TIP3   OH214297   4.291   3.646   3.045
 4785TIP3    H114298   4.276   3.738   3.067
 4785TIP3    H214299   4.362   3.648   2.981
 4786TIP3   OH214300   1.557   4.329   1.443
 4786TIP3    H114301   1.508   4.410   1.455
 4786TIP3    H214302   1.516   4.268   1.505
 4787TIP3   OH214303   3.134   6.150   2.069
 4787TIP3    H114304   3.199   6.171   2.002
 4787TIP3    H214305   3.173   6.077   2.118
 4788TIP3   OH214306   0.429   1.394   3.536
 4788TIP3    H114307   0.402   1.323   3.477
 4788TIP3    H214308   0.478   1.350   3.605
 4789TIP3   OH214309   2.780   5.786   2.566
 4789TIP3    H114310   2.689   5.790   2.595
 4789TIP3    H214311   2.811   5.700   2.594
 4790TIP3   OH214312   5.849   1.369   0.313
 4790TIP3    H114313   5.902   1.294   0.287
 4790TIP3    H214314   5.838   1.358   0.408
 4791TIP3   OH214315   4.189   3.265   6.438
 4791TIP3    H114316   4.262   3.320   6.468
 4791TIP3    H214317   4.120   3.279   6.502
 4792TIP3   OH214318   1.464   2.559   1.162
 4792TIP3    H114319   1.472   2.531   1.071
 4792TIP3    H214320   1.376   2.597   1.168
 4793TIP3   OH214321   0.088   3.061   4.826
 4793TIP3    H114322   0.180   3.041   4.840
 4793TIP3    H214323   0.064   3.013   4.746
 4794TIP3   OH214324   5.418   5.232   4.936
 4794TIP3    H114325   5.352   5.211   4.870
 4794TIP3    H214326   5.432   5.150   4.983
 4795TIP3   OH214327   2.247   6.887   2.883
 4795TIP3    H114328   2.271   6.818   2.945
 4795TIP3    H214329   2.158   6.864   2.855
 4796TIP3   OH214330   1.852   6.132   4.001
 4796TIP3    H114331   1.900   6.120   3.920
 4796TIP3    H214332   1.771   6.082   3.989
 4797TIP3   OH214333   7.902   4.194   2.647
 4797TIP3    H114334   7.841   4.257   2.686
 4797TIP3    H214335   7.847   4.140   2.591
 4798TIP3   OH214336   4.151   4.910   4.215
 4798TIP3    H114337   4.214   4.968   4.173
 4798TIP3    H214338   4.178   4.907   4.307
 4799TIP3   OH214339   2.978   1.629   2.142
 4799TIP3    H114340   2.966   1.593   2.055
 4799TIP3    H214341   2.966   1.724   2.131
 4800TIP3   OH214342   7.389   3.568   3.862
 4800TIP3    H114343   7.459   3.591   3.923
 4800TIP3    H214344   7.425   3.586   3.775
 4801TIP3   OH214345   7.465   3.216   5.019
 4801TIP3    H114346   7.500   3.157   4.952
 4801TIP3    H214347   7.381   3.177   5.045
 4802TIP3   OH214348   3.439   4.529   2.033
 4802TIP3    H114349   3.385   4.598   2.071
 4802TIP3    H214350   3.469   4.478   2.108
 4803TIP3   OH214351   6.157   7.250   0.593
 4803TIP3    H114352   6.237   7.222   0.549
 4803TIP3    H214353   6.143   7.340   0.562
 4804TIP3   OH214354   4.700   7.261   3.311
 4804TIP3    H114355   4.787   7.300   3.323
 4804TIP3    H214356   4.653   7.280   3.393
 4805TIP3   OH214357   5.052   3.417   2.758
 4805TIP3    H114358   5.062   3.488   2.694
 4805TIP3    H214359   5.101   3.344   2.722
 4806TIP3   OH214360   2.608   3.407   1.083
 4806TIP3    H114361   2.600   3.502   1.078
 4806TIP3    H214362   2.518   3.375   1.074
 4807TIP3   OH214363   1.897   6.796   4.246
 4807TIP3    H114364   1.949   6.783   4.325
 4807TIP3    H214365   1.829   6.729   4.251
 4808TIP3   OH214366   2.854   0.992   5.237
 4808TIP3    H114367   2.815   1.030   5.158
 4808TIP3    H214368   2.873   0.901   5.213
 4809TIP3   OH214369   1.665   2.268   2.287
 4809TIP3    H114370   1.605   2.214   2.339
 4809TIP3    H214371   1.732   2.296   2.349
 4810TIP3   OH214372   0.253   0.351   3.458
 4810TIP3    H114373   0.306   0.372   3.380
 4810TIP3    H214374   0.278   0.417   3.522
 4811TIP3   OH214375   3.736   3.866   4.037
 4811TIP3    H114376   3.696   3.930   3.979
 4811TIP3    H214377   3.829   3.868   4.015
 4812TIP3   OH214378   7.404   5.504   6.342
 4812TIP3    H114379   7.455   5.524   6.263
 4812TIP3    H214380   7.447   5.427   6.379
 4813TIP3   OH214381   6.765   4.386   4.981
 4813TIP3    H114382   6.850   4.388   4.938
 4813TIP3    H214383   6.726   4.303   4.954
 4814TIP3   OH214384   4.249   7.364   2.709
 4814TIP3    H114385   4.297   7.281   2.718
 4814TIP3    H214386   4.294   7.411   2.640
 4815TIP3   OH214387   2.503   1.949   4.033
 4815TIP3    H114388   2.547   1.873   3.994
 4815TIP3    H214389   2.560   2.023   4.011
 4816TIP3   OH214390   3.887   7.641   0.983
 4816TIP3    H114391   3.893   7.642   0.888
 4816TIP3    H214392   3.847   7.725   1.006
 4817TIP3   OH214393   1.045   7.007   0.026
 4817TIP3    H114394   1.116   7.030   0.086
 4817TIP3    H214395   1.090   6.974  -0.052
 4818TIP3   OH214396   2.344   0.280   0.391
 4818TIP3    H114397   2.265   0.268   0.445
 4818TIP3    H214398   2.385   0.359   0.426
 4819TIP3   OH214399   3.038   6.514   5.432
 4819TIP3    H114400   3.079   6.560   5.506
 4819TIP3    H214401   3.021   6.426   5.466
 4820TIP3   OH214402   6.470   1.374   5.776
 4820TIP3    H114403   6.422   1.446   5.818
 4820TIP3    H214404   6.512   1.328   5.849
 4821TIP3   OH214405   7.489   4.509   3.899
 4821TIP3    H114406   7.510   4.418   3.917
 4821TIP3    H214407   7.460   4.544   3.983
 4822TIP3   OH214408   8.003   6.201   2.260
 4822TIP3    H114409   8.018   6.110   2.234
 4822TIP3    H214410   8.046   6.253   2.192
 4823TIP3   OH214411   0.647   7.690   6.733
 4823TIP3    H114412   0.627   7.747   6.659
 4823TIP3    H214413   0.670   7.606   6.692
 4824TIP3   OH214414   3.021   1.121   1.690
 4824TIP3    H114415   3.046   1.041   1.645
 4824TIP3    H214416   3.104   1.156   1.724
 4825TIP3   OH214417   5.510   3.993   5.694
 4825TIP3    H114418   5.577   4.040   5.744
 4825TIP3    H214419   5.512   3.904   5.728
 4826TIP3   OH214420   8.048   5.263   5.871
 4826TIP3    H114421   8.005   5.347   5.888
 4826TIP3    H214422   8.122   5.285   5.815
 4827TIP3   OH214423   4.271   2.871   6.144
 4827TIP3    H114424   4.362   2.902   6.139
 4827TIP3    H214425   4.218   2.950   6.131
 4828TIP3   OH214426   7.886   2.290   1.860
 4828TIP3    H114427   7.903   2.376   1.821
 4828TIP3    H214428   7.826   2.248   1.799
 4829TIP3   OH214429   5.721   7.761   1.658
 4829TIP3    H114430   5.712   7.666   1.665
 4829TIP3    H214431   5.740   7.777   1.566
 4830TIP3   OH214432   4.343   5.995   3.306
 4830TIP3    H114433   4.429   5.982   3.266
 4830TIP3    H214434   4.345   6.085   3.339
 4831TIP3   OH214435   4.882   7.018   2.095
 4831TIP3    H114436   4.926   6.954   2.150
 4831TIP3    H214437   4.922   7.009   2.009
 4832TIP3   OH214438   7.630   0.917   5.843
 4832TIP3    H114439   7.620   0.848   5.777
 4832TIP3    H214440   7.545   0.961   5.845
 4833TIP3   OH214441   3.741   6.219   4.301
 4833TIP3    H114442   3.809   6.190   4.240
 4833TIP3    H214443   3.733   6.148   4.365
 4834TIP3   OH214444   6.109   2.463   3.013
 4834TIP3    H114445   6.125   2.553   2.985
 4834TIP3    H214446   6.114   2.466   3.108
 4835TIP3   OH214447   6.594   4.410   0.359
 4835TIP3    H114448   6.665   4.471   0.336
 4835TIP3    H214449   6.520   4.466   0.381
 4836TIP3   OH214450   3.862   1.385   0.341
 4836TIP3    H114451   3.863   1.451   0.273
 4836TIP3    H214452   3.867   1.302   0.294
 4837TIP3   OH214453   4.854   3.560   1.321
 4837TIP3    H114454   4.780   3.562   1.261
 4837TIP3    H214455   4.864   3.650   1.351
 4838TIP3   OH214456   1.571   2.167   5.548
 4838TIP3    H114457   1.501   2.206   5.496
 4838TIP3    H214458   1.648   2.222   5.530
 4839TIP3   OH214459   6.920   6.833   0.887
 4839TIP3    H114460   6.886   6.845   0.799
 4839TIP3    H214461   6.998   6.777   0.876
 4840TIP3   OH214462   8.090   3.774   1.260
 4840TIP3    H114463   8.014   3.717   1.274
 4840TIP3    H214464   8.063   3.833   1.190
 4841TIP3   OH214465   0.624   1.521   4.685
 4841TIP3    H114466   0.645   1.578   4.610
 4841TIP3    H214467   0.551   1.565   4.728
 4842TIP3   OH214468   3.342   7.610   1.232
 4842TIP3    H114469   3.253   7.617   1.266
 4842TIP3    H214470   3.379   7.533   1.277
 4843TIP3   OH214471   3.971   3.913   3.155
 4843TIP3    H114472   3.960   3.913   3.060
 4843TIP3    H214473   4.063   3.937   3.168
 4844TIP3   OH214474   6.993   3.610   2.556
 4844TIP3    H114475   6.916   3.562   2.523
 4844TIP3    H214476   7.067   3.553   2.536
 4845TIP3   OH214477   6.188   6.407   0.889
 4845TIP3    H114478   6.243   6.484   0.873
 4845TIP3    H214479   6.127   6.406   0.816
 4846TIP3   OH214480   1.917   7.122   5.109
 4846TIP3    H114481   1.991   7.121   5.170
 4846TIP3    H214482   1.875   7.207   5.122
 4847TIP3   OH214483   1.448   7.110   5.985
 4847TIP3    H114484   1.512   7.105   5.914
 4847TIP3    H214485   1.384   7.174   5.956
 4848TIP3   OH214486   8.070   5.871   1.608
 4848TIP3    H114487   8.008   5.799   1.623
 4848TIP3    H214488   8.042   5.909   1.525
 4849TIP3   OH214489   2.349   4.858   4.195
 4849TIP3    H114490   2.425   4.812   4.159
 4849TIP3    H214491   2.323   4.805   4.271
 4850TIP3   OH214492   4.668   7.617   4.272
 4850TIP3    H114493   4.690   7.702   4.233
 4850TIP3    H214494   4.734   7.605   4.340
 4851TIP3   OH214495   7.948   5.300   4.023
 4851TIP3    H114496   7.894   5.259   3.956
 4851TIP3    H214497   8.032   5.255   4.017
 4852TIP3   OH214498   6.606   4.593   0.872
 4852TIP3    H114499   6.640   4.575   0.959
 4852TIP3    H214500   6.638   4.521   0.818
 4853TIP3   OH214501   3.314   1.346   6.431
 4853TIP3    H114502   3.344   1.387   6.350
 4853TIP3    H214503   3.382   1.368   6.495
 4854TIP3   OH214504   6.983   0.456   1.744
 4854TIP3    H114505   7.003   0.399   1.818
 4854TIP3    H214506   7.051   0.523   1.746
 4855TIP3   OH214507   1.588   2.835   4.942
 4855TIP3    H114508   1.670   2.852   4.897
 4855TIP3    H214509   1.596   2.881   5.026
 4856TIP3   OH214510   3.593   0.814   1.612
 4856TIP3    H114511   3.645   0.737   1.588
 4856TIP3    H214512   3.613   0.828   1.705
 4857TIP3   OH214513   4.508   5.515   1.316
 4857TIP3    H114514   4.505   5.420   1.322
 4857TIP3    H214515   4.540   5.544   1.401
 4858TIP3   OH214516   2.286   3.379   1.664
 4858TIP3    H114517   2.214   3.403   1.722
 4858TIP3    H214518   2.336   3.460   1.654
 4859TIP3   OH214519   6.119   7.135   2.950
 4859TIP3    H114520   6.157   7.106   2.868
 4859TIP3    H214521   6.114   7.230   2.943
 4860TIP3   OH214522   4.510   2.323   2.771
 4860TIP3    H114523   4.527   2.299   2.862
 4860TIP3    H214524   4.593   2.357   2.739
 4861TIP3   OH214525   7.375   5.970   2.182
 4861TIP3    H114526   7.459   5.924   2.194
 4861TIP3    H214527   7.318   5.904   2.142
 4862TIP3   OH214528   3.526   5.863   5.806
 4862TIP3    H114529   3.447   5.916   5.803
 4862TIP3    H214530   3.591   5.913   5.757
 4863TIP3   OH214531   4.833   0.095   2.423
 4863TIP3    H114532   4.823   0.190   2.423
 4863TIP3    H214533   4.753   0.062   2.383
 4864TIP3   OH214534   5.643   4.146   3.226
 4864TIP3    H114535   5.609   4.208   3.291
 4864TIP3    H214536   5.731   4.178   3.206
 4865TIP3   OH214537   0.354   0.151   0.381
 4865TIP3    H114538   0.350   0.184   0.291
 4865TIP3    H214539   0.300   0.213   0.431
 4866TIP3   OH214540   4.287   5.179   4.102
 4866TIP3    H114541   4.290   5.179   4.197
 4866TIP3    H214542   4.365   5.228   4.075
 4867TIP3   OH214543   4.324   6.497   0.379
 4867TIP3    H114544   4.301   6.436   0.449
 4867TIP3    H214545   4.347   6.441   0.305
 4868TIP3   OH214546   4.780   1.492   4.438
 4868TIP3    H114547   4.832   1.507   4.517
 4868TIP3    H214548   4.745   1.578   4.416
 4869TIP3   OH214549   3.813   0.365   2.888
 4869TIP3    H114550   3.832   0.390   2.797
 4869TIP3    H214551   3.899   0.364   2.931
 4870TIP3   OH214552   7.691   3.300   2.808
 4870TIP3    H114553   7.761   3.250   2.849
 4870TIP3    H214554   7.734   3.357   2.746
 4871TIP3   OH214555   4.157   4.444   2.054
 4871TIP3    H114556   4.205   4.520   2.086
 4871TIP3    H214557   4.091   4.428   2.122
 4872TIP3   OH214558   3.603   0.729   0.866
 4872TIP3    H114559   3.649   0.793   0.921
 4872TIP3    H214560   3.531   0.778   0.828
 4873TIP3   OH214561   6.730   3.459   4.995
 4873TIP3    H114562   6.774   3.544   4.984
 4873TIP3    H214563   6.798   3.394   4.976
 4874TIP3   OH214564   5.151   2.144   2.875
 4874TIP3    H114565   5.208   2.217   2.851
 4874TIP3    H214566   5.071   2.158   2.826
 4875TIP3   OH214567   2.474   5.570   1.653
 4875TIP3    H114568   2.527   5.511   1.706
 4875TIP3    H214569   2.513   5.566   1.566
 4876TIP3   OH214570   7.178   0.496   3.783
 4876TIP3    H114571   7.254   0.446   3.812
 4876TIP3    H214572   7.206   0.538   3.702
 4877TIP3   OH214573   4.375   6.112   4.940
 4877TIP3    H114574   4.328   6.056   4.877
 4877TIP3    H214575   4.408   6.051   5.006
 4878TIP3   OH214576   3.648   0.693   5.528
 4878TIP3    H114577   3.688   0.705   5.442
 4878TIP3    H214578   3.708   0.633   5.573
 4879TIP3   OH214579   5.588   6.959   6.609
 4879TIP3    H114580   5.603   6.971   6.703
 4879TIP3    H214581   5.499   6.922   6.604
 4880TIP3   OH214582   2.066   3.772   1.534
 4880TIP3    H114583   2.004   3.741   1.600
 4880TIP3    H214584   2.020   3.761   1.451
 4881TIP3   OH214585   6.027   3.252   6.010
 4881TIP3    H114586   6.116   3.241   5.979
 4881TIP3    H214587   6.033   3.238   6.105
 4882TIP3   OH214588   8.088   0.745   0.955
 4882TIP3    H114589   8.036   0.750   1.035
 4882TIP3    H214590   8.173   0.710   0.983
 4883TIP3   OH214591   4.025   3.347   6.641
 4883TIP3    H114592   3.946   3.311   6.681
 4883TIP3    H214593   3.993   3.419   6.586
 4884TIP3   OH214594   1.491   0.164   5.375
 4884TIP3    H114595   1.510   0.176   5.282
 4884TIP3    H214596   1.523   0.076   5.395
 4885TIP3   OH214597   7.034   3.579   3.463
 4885TIP3    H114598   7.030   3.624   3.379
 4885TIP3    H214599   7.105   3.622   3.510
 4886TIP3   OH214600   0.277   5.577   2.844
 4886TIP3    H114601   0.239   5.513   2.904
 4886TIP3    H214602   0.342   5.528   2.794
 4887TIP3   OH214603   4.593   6.905   5.813
 4887TIP3    H114604   4.519   6.846   5.800
 4887TIP3    H214605   4.667   6.848   5.832
 4888TIP3   OH214606   3.654   1.850   6.574
 4888TIP3    H114607   3.645   1.831   6.481
 4888TIP3    H214608   3.632   1.767   6.617
 4889TIP3   OH214609   2.852   0.075   3.054
 4889TIP3    H114610   2.927   0.029   3.091
 4889TIP3    H214611   2.792   0.086   3.127
 4890TIP3   OH214612   6.715   1.729   0.476
 4890TIP3    H114613   6.781   1.787   0.438
 4890TIP3    H214614   6.744   1.641   0.452
 4891TIP3   OH214615   1.085   4.604   4.951
 4891TIP3    H114616   1.034   4.608   5.032
 4891TIP3    H214617   1.092   4.695   4.922
 4892TIP3   OH214618   4.145   2.470   3.068
 4892TIP3    H114619   4.194   2.415   3.130
 4892TIP3    H214620   4.053   2.451   3.087
 4893TIP3   OH214621   2.981   5.268   6.444
 4893TIP3    H114622   2.986   5.361   6.464
 4893TIP3    H214623   2.888   5.251   6.429
 4894TIP3   OH214624   5.176   1.954   6.806
 4894TIP3    H114625   5.124   1.913   6.737
 4894TIP3    H214626   5.253   1.988   6.762
 4895TIP3   OH214627   5.709   3.455   0.193
 4895TIP3    H114628   5.788   3.479   0.241
 4895TIP3    H214629   5.663   3.394   0.251
 4896TIP3   OH214630   0.332   3.899   1.914
 4896TIP3    H114631   0.316   3.965   1.847
 4896TIP3    H214632   0.288   3.821   1.882
 4897TIP3   OH214633   3.116   1.925   5.220
 4897TIP3    H114634   3.194   1.905   5.272
 4897TIP3    H214635   3.122   2.019   5.202
 4898TIP3   OH214636   4.225   2.614   4.597
 4898TIP3    H114637   4.162   2.609   4.525
 4898TIP3    H214638   4.272   2.531   4.593
 4899TIP3   OH214639   7.793   5.898   4.569
 4899TIP3    H114640   7.813   5.986   4.602
 4899TIP3    H214641   7.809   5.840   4.643
 4900TIP3   OH214642   7.786   0.601   1.185
 4900TIP3    H114643   7.706   0.651   1.202
 4900TIP3    H214644   7.857   0.663   1.198
 4901TIP3   OH214645   8.022   5.182   5.493
 4901TIP3    H114646   8.005   5.255   5.434
 4901TIP3    H214647   7.938   5.162   5.533
 4902TIP3   OH214648   2.664   3.952   1.074
 4902TIP3    H114649   2.568   3.955   1.071
 4902TIP3    H214650   2.685   3.861   1.092
 4903TIP3   OH214651   1.820   5.457   2.223
 4903TIP3    H114652   1.790   5.466   2.313
 4903TIP3    H214653   1.841   5.365   2.213
 4904TIP3   OH214654   1.252   0.729   1.317
 4904TIP3    H114655   1.284   0.768   1.399
 4904TIP3    H214656   1.174   0.780   1.295
 4905TIP3   OH214657   2.648   1.678   4.898
 4905TIP3    H114658   2.691   1.652   4.816
 4905TIP3    H214659   2.588   1.606   4.917
 4906TIP3   OH214660   1.998   0.542   1.133
 4906TIP3    H114661   2.024   0.475   1.069
 4906TIP3    H214662   1.956   0.610   1.080
 4907TIP3   OH214663   7.905   4.390   6.296
 4907TIP3    H114664   7.972   4.453   6.270
 4907TIP3    H214665   7.847   4.438   6.355
 4908TIP3   OH214666   4.294   1.339   3.958
 4908TIP3    H114667   4.335   1.267   3.911
 4908TIP3    H214668   4.367   1.393   3.989
 4909TIP3   OH214669   4.237   7.095   2.397
 4909TIP3    H114670   4.276   7.162   2.340
 4909TIP3    H214671   4.224   7.140   2.480
 4910TIP3   OH214672   6.532   4.111   3.411
 4910TIP3    H114673   6.541   4.081   3.321
 4910TIP3    H214674   6.532   4.206   3.405
 4911TIP3   OH214675   7.523   2.214   2.603
 4911TIP3    H114676   7.619   2.213   2.594
 4911TIP3    H214677   7.508   2.231   2.696
 4912TIP3   OH214678   0.755   1.764   1.183
 4912TIP3    H114679   0.697   1.767   1.107
 4912TIP3    H214680   0.722   1.693   1.237
 4913TIP3   OH214681   3.698   2.198   5.853
 4913TIP3    H114682   3.726   2.243   5.933
 4913TIP3    H214683   3.605   2.219   5.845
 4914TIP3   OH214684   3.693   5.480   6.007
 4914TIP3    H114685   3.750   5.407   6.031
 4914TIP3    H214686   3.660   5.513   6.090
 4915TIP3   OH214687   2.194   2.967   5.161
 4915TIP3    H114688   2.211   2.889   5.213
 4915TIP3    H214689   2.268   3.026   5.180
 4916TIP3   OH214690   5.431   1.783   5.943
 4916TIP3    H114691   5.415   1.691   5.965
 4916TIP3    H214692   5.506   1.780   5.884
 4917TIP3   OH214693   6.390   6.353   2.155
 4917TIP3    H114694   6.380   6.395   2.240
 4917TIP3    H214695   6.344   6.411   2.094
 4918TIP3   OH214696   7.127   7.742   2.897
 4918TIP3    H114697   7.118   7.737   2.992
 4918TIP3    H214698   7.041   7.716   2.863
 4919TIP3   OH214699   0.389   1.848   6.371
 4919TIP3    H114700   0.483   1.846   6.390
 4919TIP3    H214701   0.382   1.890   6.285
 4920TIP3   OH214702   2.267   6.895   6.198
 4920TIP3    H114703   2.329   6.823   6.200
 4920TIP3    H214704   2.290   6.944   6.119
 4921TIP3   OH214705   1.050   4.730   1.983
 4921TIP3    H114706   1.058   4.645   1.939
 4921TIP3    H214707   1.024   4.709   2.072
 4922TIP3   OH214708   1.520   0.496   0.816
 4922TIP3    H114709   1.557   0.474   0.901
 4922TIP3    H214710   1.438   0.542   0.837
 4923TIP3   OH214711   3.761   5.620   6.447
 4923TIP3    H114712   3.743   5.609   6.541
 4923TIP3    H214713   3.710   5.550   6.406
 4924TIP3   OH214714   7.064   3.578   6.568
 4924TIP3    H114715   7.017   3.498   6.545
 4924TIP3    H214716   7.054   3.634   6.491
 4925TIP3   OH214717   2.541   0.855   5.008
 4925TIP3    H114718   2.518   0.839   4.916
 4925TIP3    H214719   2.458   0.852   5.054
 4926TIP3   OH214720   2.924   3.361   1.699
 4926TIP3    H114721   3.006   3.311   1.703
 4926TIP3    H214722   2.927   3.404   1.613
 4927TIP3   OH214723   1.707   5.061   1.276
 4927TIP3    H114724   1.641   5.126   1.254
 4927TIP3    H214725   1.673   4.979   1.240
 4928TIP3   OH214726   7.542   6.387   0.948
 4928TIP3    H114727   7.472   6.386   0.884
 4928TIP3    H214728   7.563   6.295   0.964
 4929TIP3   OH214729   3.500   2.525   0.676
 4929TIP3    H114730   3.468   2.586   0.742
 4929TIP3    H214731   3.489   2.439   0.715
 4930TIP3   OH214732   6.557   0.417   1.729
 4930TIP3    H114733   6.624   0.353   1.707
 4930TIP3    H214734   6.594   0.467   1.802
 4931TIP3   OH214735   5.001   3.296   5.292
 4931TIP3    H114736   5.085   3.253   5.309
 4931TIP3    H214737   4.950   3.230   5.246
 4932TIP3   OH214738   0.329   7.412   1.307
 4932TIP3    H114739   0.337   7.490   1.253
 4932TIP3    H214740   0.307   7.342   1.245
 4933TIP3   OH214741   6.372   4.490   5.764
 4933TIP3    H114742   6.307   4.556   5.740
 4933TIP3    H214743   6.417   4.470   5.682
 4934TIP3   OH214744   4.115   4.208   3.046
 4934TIP3    H114745   4.145   4.181   2.959
 4934TIP3    H214746   4.195   4.234   3.092
 4935TIP3   OH214747   3.763   1.768   5.263
 4935TIP3    H114748   3.752   1.827   5.338
 4935TIP3    H214749   3.811   1.820   5.199
 4936TIP3   OH214750   7.026   3.357   5.401
 4936TIP3    H114751   6.938   3.323   5.385
 4936TIP3    H214752   7.050   3.320   5.486
 4937TIP3   OH214753   5.150   1.028   2.956
 4937TIP3    H114754   5.235   1.039   2.998
 4937TIP3    H214755   5.146   0.935   2.933
 4938TIP3   OH214756   3.886   5.795   2.295
 4938TIP3    H114757   3.819   5.863   2.289
 4938TIP3    H214758   3.906   5.773   2.205
 4939TIP3   OH214759   6.476   5.980   5.185
 4939TIP3    H114760   6.552   5.926   5.165
 4939TIP3    H214761   6.432   5.991   5.100
 4940TIP3   OH214762   6.176   3.712   0.234
 4940TIP3    H114763   6.202   3.734   0.144
 4940TIP3    H214764   6.246   3.656   0.267
 4941TIP3   OH214765   7.360   1.734   5.900
 4941TIP3    H114766   7.274   1.763   5.867
 4941TIP3    H214767   7.420   1.804   5.876
 4942TIP3   OH214768   3.057   2.474   1.425
 4942TIP3    H114769   3.015   2.419   1.359
 4942TIP3    H214770   3.016   2.448   1.507
 4943TIP3   OH214771   2.297   3.127   3.190
 4943TIP3    H114772   2.320   3.192   3.124
 4943TIP3    H214773   2.294   3.044   3.143
 4944TIP3   OH214774   3.798   4.623   5.360
 4944TIP3    H114775   3.752   4.704   5.336
 4944TIP3    H214776   3.773   4.608   5.451
 4945TIP3   OH214777   3.730   3.852   1.205
 4945TIP3    H114778   3.751   3.943   1.184
 4945TIP3    H214779   3.732   3.848   1.301
 4946TIP3   OH214780   1.430   4.119   4.471
 4946TIP3    H114781   1.520   4.087   4.473
 4946TIP3    H214782   1.407   4.132   4.563
 4947TIP3   OH214783   3.275   3.670   6.400
 4947TIP3    H114784   3.245   3.633   6.484
 4947TIP3    H214785   3.327   3.600   6.361
 4948TIP3   OH214786   3.854   7.668   4.957
 4948TIP3    H114787   3.796   7.614   5.011
 4948TIP3    H214788   3.813   7.754   4.957
 4949TIP3   OH214789   4.354   4.123   4.711
 4949TIP3    H114790   4.308   4.042   4.732
 4949TIP3    H214791   4.324   4.145   4.623
 4950TIP3   OH214792   5.706   5.701   0.637
 4950TIP3    H114793   5.740   5.680   0.724
 4950TIP3    H214794   5.762   5.773   0.606
 4951TIP3   OH214795   0.456   3.615   6.219
 4951TIP3    H114796   0.406   3.693   6.196
 4951TIP3    H214797   0.544   3.648   6.240
 4952TIP3   OH214798   1.343   6.319   2.962
 4952TIP3    H114799   1.283   6.292   2.892
 4952TIP3    H214800   1.286   6.340   3.035
 4953TIP3   OH214801   3.161   3.769   6.027
 4953TIP3    H114802   3.201   3.807   5.949
 4953TIP3    H214803   3.213   3.803   6.100
 4954TIP3   OH214804   5.055   1.593   3.247
 4954TIP3    H114805   5.138   1.605   3.201
 4954TIP3    H214806   5.010   1.676   3.238
 4955TIP3   OH214807   2.629   4.493   4.321
 4955TIP3    H114808   2.634   4.410   4.370
 4955TIP3    H214809   2.716   4.531   4.330
 4956TIP3   OH214810   3.574   7.402   3.400
 4956TIP3    H114811   3.593   7.356   3.318
 4956TIP3    H214812   3.618   7.486   3.390
 4957TIP3   OH214813   4.611   4.231   1.763
 4957TIP3    H114814   4.637   4.277   1.843
 4957TIP3    H214815   4.594   4.300   1.699
 4958TIP3   OH214816   2.460   6.149   4.181
 4958TIP3    H114817   2.504   6.083   4.128
 4958TIP3    H214818   2.525   6.220   4.189
 4959TIP3   OH214819   5.992   4.125   1.242
 4959TIP3    H114820   6.011   4.186   1.314
 4959TIP3    H214821   6.077   4.107   1.202
 4960TIP3   OH214822   6.214   7.611   3.486
 4960TIP3    H114823   6.158   7.589   3.561
 4960TIP3    H214824   6.235   7.527   3.446
 4961TIP3   OH214825   4.675   7.728   6.664
 4961TIP3    H114826   4.676   7.821   6.689
 4961TIP3    H214827   4.596   7.693   6.705
 4962TIP3   OH214828   7.747   4.985   3.304
 4962TIP3    H114829   7.658   4.957   3.281
 4962TIP3    H214830   7.801   4.907   3.291
 4963TIP3   OH214831   5.865   4.951   2.604
 4963TIP3    H114832   5.941   4.918   2.556
 4963TIP3    H214833   5.818   5.004   2.540
 4964TIP3   OH214834   7.137   0.516   4.762
 4964TIP3    H114835   7.202   0.531   4.693
 4964TIP3    H214836   7.189   0.506   4.842
 4965TIP3   OH214837   5.795   7.536   5.902
 4965TIP3    H114838   5.825   7.624   5.880
 4965TIP3    H214839   5.810   7.529   5.996
 4966TIP3   OH214840   2.337   2.416   1.278
 4966TIP3    H114841   2.424   2.454   1.293
 4966TIP3    H214842   2.292   2.427   1.362
 4967TIP3   OH214843   0.525   3.840   4.163
 4967TIP3    H114844   0.476   3.783   4.104
 4967TIP3    H214845   0.545   3.785   4.239
 4968TIP3   OH214846   7.706   3.020   2.010
 4968TIP3    H114847   7.674   2.973   1.933
 4968TIP3    H214848   7.633   3.016   2.072
 4969TIP3   OH214849   0.282   5.085   4.406
 4969TIP3    H114850   0.343   5.157   4.393
 4969TIP3    H214851   0.222   5.090   4.332
 4970TIP3   OH214852   0.544   6.189   3.487
 4970TIP3    H114853   0.555   6.176   3.581
 4970TIP3    H214854   0.613   6.136   3.447
 4971TIP3   OH214855   6.800   4.154   0.157
 4971TIP3    H114856   6.816   4.165   0.251
 4971TIP3    H214857   6.780   4.242   0.126
 4972TIP3   OH214858   6.620   5.233   1.298
 4972TIP3    H114859   6.632   5.325   1.275
 4972TIP3    H214860   6.686   5.215   1.365
 4973TIP3   OH214861   3.814   6.399   2.129
 4973TIP3    H114862   3.875   6.372   2.059
 4973TIP3    H214863   3.806   6.322   2.185
 4974TIP3   OH214864   1.682   6.959   5.592
 4974TIP3    H114865   1.775   6.956   5.614
 4974TIP3    H214866   1.645   7.022   5.654
 4975TIP3   OH214867   7.185   5.950   3.833
 4975TIP3    H114868   7.139   6.028   3.803
 4975TIP3    H214869   7.179   5.955   3.929
 4976TIP3   OH214870   4.206   2.878   0.838
 4976TIP3    H114871   4.233   2.854   0.926
 4976TIP3    H214872   4.130   2.935   0.851
 4977TIP3   OH214873   1.789   1.773   5.469
 4977TIP3    H114874   1.731   1.833   5.424
 4977TIP3    H214875   1.762   1.686   5.441
 4978TIP3   OH214876   7.393   0.426   2.848
 4978TIP3    H114877   7.403   0.521   2.836
 4978TIP3    H214878   7.353   0.417   2.934
 4979TIP3   OH214879   4.648   4.190   6.689
 4979TIP3    H114880   4.722   4.130   6.680
 4979TIP3    H214881   4.577   4.149   6.638
 4980TIP3   OH214882   2.653   0.337   2.912
 4980TIP3    H114883   2.591   0.409   2.924
 4980TIP3    H214884   2.613   0.263   2.959
 4981TIP3   OH214885   1.043   4.051   1.874
 4981TIP3    H114886   0.955   4.047   1.838
 4981TIP3    H214887   1.040   4.123   1.938
 4982TIP3   OH214888   8.129   2.079   3.706
 4982TIP3    H114889   8.074   2.111   3.634
 4982TIP3    H214890   8.114   1.984   3.706
 4983TIP3   OH214891   5.525   6.522   0.639
 4983TIP3    H114892   5.524   6.434   0.601
 4983TIP3    H214893   5.437   6.533   0.677
 4984TIP3   OH214894   6.238   0.058   5.856
 4984TIP3    H114895   6.227   0.042   5.950
 4984TIP3    H214896   6.149   0.073   5.824
 4985TIP3   OH214897   4.425   1.157   3.798
 4985TIP3    H114898   4.417   1.169   3.704
 4985TIP3    H214899   4.503   1.103   3.809
 4986TIP3   OH214900   4.202   4.212   2.382
 4986TIP3    H114901   4.232   4.301   2.395
 4986TIP3    H214902   4.107   4.219   2.378
 4987TIP3   OH214903   5.079   4.632   6.658
 4987TIP3    H114904   4.988   4.618   6.685
 4987TIP3    H214905   5.126   4.555   6.688
 4988TIP3   OH214906   4.388   5.580   6.688
 4988TIP3    H114907   4.302   5.546   6.663
 4988TIP3    H214908   4.446   5.554   6.617
 4989TIP3   OH214909   1.552   3.673   1.355
 4989TIP3    H114910   1.577   3.765   1.356
 4989TIP3    H214911   1.609   3.631   1.419
 4990TIP3   OH214912   1.643   5.490   5.476
 4990TIP3    H114913   1.663   5.423   5.542
 4990TIP3    H214914   1.706   5.560   5.492
 4991TIP3   OH214915   4.339   2.531   4.228
 4991TIP3    H114916   4.374   2.446   4.200
 4991TIP3    H214917   4.248   2.514   4.248
 4992TIP3   OH214918   5.105   4.163   5.423
 4992TIP3    H114919   5.162   4.236   5.448
 4992TIP3    H214920   5.116   4.156   5.329
 4993TIP3   OH214921   6.593   1.631   2.350
 4993TIP3    H114922   6.683   1.629   2.318
 4993TIP3    H214923   6.585   1.553   2.405
 4994TIP3   OH214924   5.807   7.192   1.186
 4994TIP3    H114925   5.892   7.233   1.204
 4994TIP3    H214926   5.772   7.242   1.112
 4995TIP3   OH214927   0.932   1.649   2.518
 4995TIP3    H114928   0.905   1.715   2.455
 4995TIP3    H214929   0.890   1.675   2.600
 4996TIP3   OH214930   3.335   1.511   3.189
 4996TIP3    H114931   3.390   1.496   3.112
 4996TIP3    H214932   3.329   1.606   3.196
 4997TIP3   OH214933   7.217   6.590   3.053
 4997TIP3    H114934   7.193   6.502   3.024
 4997TIP3    H214935   7.278   6.576   3.125
 4998TIP3   OH214936   4.570   5.203   4.331
 4998TIP3    H114937   4.589   5.111   4.354
 4998TIP3    H214938   4.483   5.220   4.367
 4999TIP3   OH214939   3.870   0.233   5.382
 4999TIP3    H114940   3.778   0.256   5.375
 4999TIP3    H214941   3.890   0.186   5.301
 5000TIP3   OH214942   6.441   7.209   5.841
 5000TIP3    H114943   6.479   7.239   5.758
 5000TIP3    H214944   6.418   7.117   5.824
 5001TIP3   OH214945   3.984   2.773   6.791
 5001TIP3    H114946   3.946   2.765   6.704
 5001TIP3    H214947   4.020   2.862   6.794
 5002TIP3   OH214948   6.392   0.311   4.659
 5002TIP3    H114949   6.383   0.368   4.735
 5002TIP3    H214950   6.327   0.242   4.672
 5003TIP3   OH214951   3.818   7.588   5.891
 5003TIP3    H114952   3.874   7.664   5.906
 5003TIP3    H214953   3.772   7.608   5.809
 5004TIP3   OH214954   3.745   0.323   4.979
 5004TIP3    H114955   3.768   0.375   4.903
 5004TIP3    H214956   3.657   0.353   5.003
 5005TIP3   OH214957   5.978   1.386   2.864
 5005TIP3    H114958   5.947   1.385   2.955
 5005TIP3    H214959   5.970   1.478   2.837
 5006TIP3   OH214960   0.711   1.087   2.876
 5006TIP3    H114961   0.695   1.172   2.918
 5006TIP3    H214962   0.632   1.070   2.826
 5007TIP3   OH214963   5.899   1.093   2.030
 5007TIP3    H114964   5.900   1.174   2.080
 5007TIP3    H214965   5.914   1.121   1.939
 5008TIP3   OH214966   2.101   1.475   0.700
 5008TIP3    H114967   2.102   1.570   0.685
 5008TIP3    H214968   2.173   1.442   0.648
 5009TIP3   OH214969   6.942   7.545   2.490
 5009TIP3    H114970   6.956   7.450   2.485
 5009TIP3    H214971   6.921   7.571   2.400
 5010TIP3   OH214972   5.101   6.499   5.299
 5010TIP3    H114973   5.143   6.470   5.380
 5010TIP3    H214974   5.037   6.565   5.327
 5011TIP3   OH214975   0.781   3.890   6.675
 5011TIP3    H114976   0.846   3.936   6.728
 5011TIP3    H214977   0.827   3.866   6.595
 5012TIP3   OH214978   4.342   2.136   2.898
 5012TIP3    H114979   4.369   2.045   2.889
 5012TIP3    H214980   4.387   2.182   2.827
 5013TIP3   OH214981   7.589   3.726   3.331
 5013TIP3    H114982   7.498   3.750   3.312
 5013TIP3    H214983   7.637   3.750   3.253
 5014TIP3   OH214984   1.637   5.870   0.559
 5014TIP3    H114985   1.730   5.852   0.568
 5014TIP3    H214986   1.631   5.965   0.554
 5015TIP3   OH214987   5.090   7.411   6.225
 5015TIP3    H114988   5.149   7.414   6.300
 5015TIP3    H214989   5.121   7.482   6.168
 5016TIP3   OH214990   3.077   2.145   6.576
 5016TIP3    H114991   3.081   2.055   6.609
 5016TIP3    H214992   2.992   2.150   6.531
 5017TIP3   OH214993   8.016   6.714   2.495
 5017TIP3    H114994   7.941   6.757   2.537
 5017TIP3    H214995   8.009   6.739   2.403
 5018TIP3   OH214996   4.328   6.766   1.292
 5018TIP3    H114997   4.389   6.839   1.297
 5018TIP3    H214998   4.260   6.795   1.231
 5019TIP3   OH214999   4.788   0.131   3.416
 5019TIP3    H115000   4.718   0.111   3.354
 5019TIP3    H215001   4.847   0.190   3.369
 5020TIP3   OH215002   2.880   5.655   3.471
 5020TIP3    H115003   2.832   5.718   3.417
 5020TIP3    H215004   2.882   5.695   3.558
 5021TIP3   OH215005   5.519   4.493   1.179
 5021TIP3    H115006   5.523   4.408   1.136
 5021TIP3    H215007   5.443   4.536   1.141
 5022TIP3   OH215008   6.571   6.798   5.697
 5022TIP3    H115009   6.522   6.828   5.774
 5022TIP3    H215010   6.653   6.763   5.734
 5023TIP3   OH215011   1.282   5.742   1.857
 5023TIP3    H115012   1.372   5.710   1.854
 5023TIP3    H215013   1.268   5.781   1.770
 5024TIP3   OH215014   1.024   2.764   0.258
 5024TIP3    H115015   1.065   2.721   0.183
 5024TIP3    H215016   1.095   2.771   0.322
 5025TIP3   OH215017   0.614   5.776   3.469
 5025TIP3    H115018   0.549   5.810   3.530
 5025TIP3    H215019   0.679   5.734   3.525
 5026TIP3   OH215020   1.943   6.327   4.774
 5026TIP3    H115021   1.958   6.232   4.771
 5026TIP3    H215022   2.013   6.360   4.830
 5027TIP3   OH215023   3.021   2.765   2.539
 5027TIP3    H115024   3.042   2.675   2.562
 5027TIP3    H215025   3.106   2.808   2.528
 5028TIP3   OH215026   1.056   5.192   3.173
 5028TIP3    H115027   0.983   5.178   3.233
 5028TIP3    H215028   1.125   5.134   3.205
 5029TIP3   OH215029   5.159   0.051   4.809
 5029TIP3    H115030   5.220   0.011   4.871
 5029TIP3    H215031   5.213   0.110   4.756
 5030TIP3   OH215032   1.512   1.990   0.916
 5030TIP3    H115033   1.524   1.896   0.908
 5030TIP3    H215034   1.435   1.999   0.972
 5031TIP3   OH215035   7.501   1.377   2.215
 5031TIP3    H115036   7.510   1.458   2.265
 5031TIP3    H215037   7.491   1.309   2.281
 5032TIP3   OH215038   2.865   3.707   4.716
 5032TIP3    H115039   2.949   3.688   4.674
 5032TIP3    H215040   2.801   3.658   4.664
 5033TIP3   OH215041   3.179   3.989   4.454
 5033TIP3    H115042   3.209   3.908   4.413
 5033TIP3    H215043   3.161   3.964   4.545
 5034TIP3   OH215044   7.250   4.016   4.168
 5034TIP3    H115045   7.158   4.028   4.141
 5034TIP3    H215046   7.273   3.930   4.133
 5035TIP3   OH215047   3.596   1.299   5.122
 5035TIP3    H115048   3.609   1.392   5.141
 5035TIP3    H215049   3.609   1.255   5.206
 5036TIP3   OH215050   3.904   0.272   1.083
 5036TIP3    H115051   3.948   0.207   1.028
 5036TIP3    H215052   3.930   0.357   1.045
 5037TIP3   OH215053   5.041   5.776   4.958
 5037TIP3    H115054   4.948   5.776   4.937
 5037TIP3    H215055   5.060   5.685   4.983
 5038TIP3   OH215056   0.524   7.162   0.447
 5038TIP3    H115057   0.559   7.124   0.527
 5038TIP3    H215058   0.535   7.257   0.458
 5039TIP3   OH215059   0.915   5.353   1.136
 5039TIP3    H115060   0.827   5.380   1.109
 5039TIP3    H215061   0.973   5.416   1.094
 5040TIP3   OH215062   8.140   5.390   6.579
 5040TIP3    H115063   8.186   5.337   6.514
 5040TIP3    H215064   8.208   5.444   6.619
 5041TIP3   OH215065   8.186   0.231   1.162
 5041TIP3    H115066   8.132   0.173   1.215
 5041TIP3    H215067   8.128   0.302   1.136
 5042TIP3   OH215068   0.654   1.971   0.890
 5042TIP3    H115069   0.653   2.050   0.944
 5042TIP3    H215070   0.588   1.914   0.929
 5043TIP3   OH215071   1.593   3.868   3.985
 5043TIP3    H115072   1.531   3.928   4.026
 5043TIP3    H215073   1.670   3.871   4.041
 5044TIP3   OH215074   7.866   1.592   5.265
 5044TIP3    H115075   7.888   1.501   5.286
 5044TIP3    H215076   7.861   1.636   5.349
 5045TIP3   OH215077   8.111   4.877   3.072
 5045TIP3    H115078   8.075   4.835   3.150
 5045TIP3    H215079   8.041   4.933   3.040
 5046TIP3   OH215080   7.842   5.046   2.481
 5046TIP3    H115081   7.873   5.136   2.487
 5046TIP3    H215082   7.772   5.049   2.415
 5047TIP3   OH215083   8.012   1.609   0.871
 5047TIP3    H115084   7.931   1.631   0.825
 5047TIP3    H215085   8.012   1.665   0.948
 5048TIP3   OH215086   6.632   1.816   5.666
 5048TIP3    H115087   6.683   1.876   5.610
 5048TIP3    H215088   6.541   1.831   5.639
 5049TIP3   OH215089   2.094   7.098   2.492
 5049TIP3    H115090   2.048   7.014   2.497
 5049TIP3    H215091   2.173   7.085   2.546
 5050TIP3   OH215092   7.557   5.407   4.836
 5050TIP3    H115093   7.586   5.491   4.802
 5050TIP3    H215094   7.518   5.363   4.761
 5051TIP3   OH215095   0.274   4.451   0.326
 5051TIP3    H115096   0.188   4.490   0.340
 5051TIP3    H215097   0.289   4.398   0.405
 5052TIP3   OH215098   0.836   2.918   3.399
 5052TIP3    H115099   0.748   2.899   3.431
 5052TIP3    H215100   0.872   2.978   3.464
 5053TIP3   OH215101   4.411   2.150   6.771
 5053TIP3    H115102   4.372   2.071   6.734
 5053TIP3    H215103   4.362   2.222   6.732
 5054TIP3   OH215104   5.012   1.814   0.743
 5054TIP3    H115105   5.060   1.895   0.757
 5054TIP3    H215106   5.073   1.758   0.694
 5055TIP3   OH215107   7.493   3.386   1.517
 5055TIP3    H115108   7.473   3.296   1.543
 5055TIP3    H215109   7.458   3.394   1.429
 5056TIP3   OH215110   7.467   4.577   5.465
 5056TIP3    H115111   7.417   4.496   5.463
 5056TIP3    H215112   7.552   4.554   5.429
 5057TIP3   OH215113   6.171   0.462   5.484
 5057TIP3    H115114   6.209   0.518   5.416
 5057TIP3    H215115   6.134   0.524   5.547
 5058TIP3   OH215116   1.672   7.200   1.046
 5058TIP3    H115117   1.734   7.155   1.104
 5058TIP3    H215118   1.647   7.279   1.094
 5059TIP3   OH215119   7.922   7.220   3.448
 5059TIP3    H115120   7.882   7.233   3.362
 5059TIP3    H215121   8.014   7.202   3.430
 5060TIP3   OH215122   4.633   3.082   2.731
 5060TIP3    H115123   4.616   3.171   2.700
 5060TIP3    H215124   4.628   3.089   2.826
 5061TIP3   OH215125   5.457   1.259   5.259
 5061TIP3    H115126   5.421   1.345   5.238
 5061TIP3    H215127   5.536   1.278   5.310
 5062TIP3   OH215128   5.923   7.219   6.172
 5062TIP3    H115129   5.959   7.131   6.160
 5062TIP3    H215130   5.946   7.267   6.093
 5063TIP3   OH215131   4.424   5.320   0.251
 5063TIP3    H115132   4.364   5.253   0.218
 5063TIP3    H215133   4.370   5.375   0.308
 5064TIP3   OH215134   1.185   2.150   5.612
 5064TIP3    H115135   1.156   2.217   5.550
 5064TIP3    H215136   1.238   2.090   5.560
 5065TIP3   OH215137   2.190   0.625   2.388
 5065TIP3    H115138   2.219   0.663   2.305
 5065TIP3    H215139   2.174   0.701   2.444
 5066TIP3   OH215140   1.600   5.627   4.517
 5066TIP3    H115141   1.687   5.656   4.491
 5066TIP3    H215142   1.596   5.644   4.611
 5067TIP3   OH215143   7.091   6.841   3.887
 5067TIP3    H115144   7.152   6.899   3.842
 5067TIP3    H215145   7.104   6.859   3.980
 5068TIP3   OH215146   2.543   1.889   5.216
 5068TIP3    H115147   2.560   1.935   5.298
 5068TIP3    H215148   2.517   1.801   5.242
 5069TIP3   OH215149   3.191   0.080   6.573
 5069TIP3    H115150   3.113   0.072   6.627
 5069TIP3    H215151   3.169   0.146   6.508
 5070TIP3   OH215152   5.967   1.809   1.510
 5070TIP3    H115153   6.045   1.782   1.462
 5070TIP3    H215154   5.998   1.830   1.598
 5071TIP3   OH215155   1.141   5.931   2.530
 5071TIP3    H115156   1.115   5.906   2.441
 5071TIP3    H215157   1.237   5.924   2.530
 5072TIP3   OH215158   4.122   0.837   4.931
 5072TIP3    H115159   4.146   0.921   4.971
 5072TIP3    H215160   4.139   0.772   4.999
 5073TIP3   OH215161   7.044   5.019   6.073
 5073TIP3    H115162   7.046   5.045   5.981
 5073TIP3    H215163   7.136   5.008   6.097
 5074TIP3   OH215164   0.051   3.045   0.593
 5074TIP3    H115165   0.027   3.062   0.502
 5074TIP3    H215166   0.090   2.958   0.592
 5075TIP3   OH215167   2.009   3.823   0.473
 5075TIP3    H115168   1.974   3.780   0.552
 5075TIP3    H215169   2.024   3.914   0.500
 5076TIP3   OH215170   5.688   4.970   0.836
 5076TIP3    H115171   5.716   4.880   0.849
 5076TIP3    H215172   5.759   5.010   0.784
 5077TIP3   OH215173   2.693   0.687   1.657
 5077TIP3    H115174   2.629   0.723   1.718
 5077TIP3    H215175   2.699   0.595   1.679
 5078TIP3   OH215176   5.070   5.001   5.527
 5078TIP3    H115177   5.114   5.007   5.612
 5078TIP3    H215178   5.004   5.070   5.529
 5079TIP3   OH215179   5.579   5.269   1.343
 5079TIP3    H115180   5.670   5.289   1.364
 5079TIP3    H215181   5.584   5.199   1.278
 5080TIP3   OH215182   7.047   3.705   3.738
 5080TIP3    H115183   7.009   3.632   3.787
 5080TIP3    H215184   6.973   3.762   3.717
 5081TIP3   OH215185   7.940   3.368   3.268
 5081TIP3    H115186   8.004   3.399   3.333
 5081TIP3    H215187   7.989   3.305   3.215
 5082TIP3   OH215188   4.169   4.820   0.407
 5082TIP3    H115189   4.237   4.884   0.391
 5082TIP3    H215190   4.214   4.747   0.451
 5083TIP3   OH215191   0.336   4.871   2.235
 5083TIP3    H115192   0.307   4.883   2.325
 5083TIP3    H215193   0.258   4.888   2.182
 5084TIP3   OH215194   3.126   5.418   6.744
 5084TIP3    H115195   3.206   5.370   6.728
 5084TIP3    H215196   3.057   5.352   6.742
 5085TIP3   OH215197   6.362   2.033   1.066
 5085TIP3    H115198   6.299   2.093   1.027
 5085TIP3    H215199   6.310   1.956   1.090
 5086TIP3   OH215200   5.482   3.939   4.362
 5086TIP3    H115201   5.539   3.894   4.424
 5086TIP3    H215202   5.417   3.873   4.337
 5087TIP3   OH215203   2.752   2.346   2.795
 5087TIP3    H115204   2.672   2.327   2.844
 5087TIP3    H215205   2.723   2.400   2.721
 5088TIP3   OH215206   3.679   1.538   2.434
 5088TIP3    H115207   3.631   1.456   2.448
 5088TIP3    H215208   3.767   1.512   2.411
 5089TIP3   OH215209   3.391   7.642   4.856
 5089TIP3    H115210   3.334   7.713   4.825
 5089TIP3    H215211   3.332   7.573   4.884
 5090TIP3   OH215212   7.947   7.038   0.352
 5090TIP3    H115213   8.020   7.086   0.313
 5090TIP3    H215214   7.953   6.951   0.312
 5091TIP3   OH215215   3.152   0.477   0.946
 5091TIP3    H115216   3.156   0.572   0.933
 5091TIP3    H215217   3.122   0.443   0.862
 5092TIP3   OH215218   4.858   6.354   5.055
 5092TIP3    H115219   4.787   6.358   5.119
 5092TIP3    H215220   4.818   6.314   4.977
 5093TIP3   OH215221   1.809   5.168   2.810
 5093TIP3    H115222   1.746   5.097   2.796
 5093TIP3    H215223   1.771   5.221   2.879
 5094TIP3   OH215224   5.853   5.326   1.347
 5094TIP3    H115225   5.855   5.421   1.359
 5094TIP3    H215226   5.905   5.291   1.419
 5095TIP3   OH215227   4.594   2.717   1.107
 5095TIP3    H115228   4.567   2.802   1.072
 5095TIP3    H215229   4.544   2.653   1.058
 5096TIP3   OH215230   0.929   5.396   1.569
 5096TIP3    H115231   0.993   5.459   1.534
 5096TIP3    H215232   0.857   5.451   1.601
 5097TIP3   OH215233   0.412   2.160   3.660
 5097TIP3    H115234   0.430   2.140   3.751
 5097TIP3    H215235   0.324   2.126   3.645
 5098TIP3   OH215236   5.822   0.747   4.195
 5098TIP3    H115237   5.758   0.680   4.219
 5098TIP3    H215238   5.854   0.721   4.109
 5099TIP3   OH215239   7.445   0.811   0.461
 5099TIP3    H115240   7.431   0.722   0.429
 5099TIP3    H215241   7.420   0.868   0.388
 5100TIP3   OH215242   1.833   6.244   2.077
 5100TIP3    H115243   1.837   6.301   2.154
 5100TIP3    H215244   1.913   6.264   2.028
 5101TIP3   OH215245   6.675   5.722   1.544
 5101TIP3    H115246   6.584   5.698   1.530
 5101TIP3    H215247   6.701   5.768   1.465
 5102TIP3   OH215248   7.283   6.720   3.719
 5102TIP3    H115249   7.195   6.756   3.727
 5102TIP3    H215250   7.273   6.641   3.666
 5103TIP3   OH215251   0.950   1.794   5.605
 5103TIP3    H115252   0.953   1.889   5.613
 5103TIP3    H215253   1.017   1.773   5.539
 5104TIP3   OH215254   6.734   5.318  -0.010
 5104TIP3    H115255   6.671   5.247   0.001
 5104TIP3    H215256   6.771   5.331   0.077
 5105TIP3   OH215257   1.684   0.564   5.838
 5105TIP3    H115258   1.614   0.622   5.869
 5105TIP3    H215259   1.640   0.504   5.778
 5106TIP3   OH215260   7.096   2.232   4.350
 5106TIP3    H115261   7.006   2.261   4.359
 5106TIP3    H215262   7.105   2.211   4.256
 5107TIP3   OH215263   7.118   7.014   0.363
 5107TIP3    H115264   7.071   6.931   0.373
 5107TIP3    H215265   7.134   7.044   0.453
 5108TIP3   OH215266   0.333   0.150   3.652
 5108TIP3    H115267   0.265   0.083   3.664
 5108TIP3    H215268   0.317   0.184   3.564
 5109TIP3   OH215269   4.141   3.052   0.550
 5109TIP3    H115270   4.058   3.074   0.591
 5109TIP3    H215271   4.134   3.086   0.461
 5110TIP3   OH215272   5.272   3.324   4.196
 5110TIP3    H115273   5.206   3.299   4.132
 5110TIP3    H215274   5.228   3.315   4.281
 5111TIP3   OH215275   0.959   6.459   4.126
 5111TIP3    H115276   0.959   6.383   4.184
 5111TIP3    H215277   0.878   6.505   4.148
 5112TIP3   OH215278   1.453   7.759   6.050
 5112TIP3    H115279   1.472   7.824   5.982
 5112TIP3    H215280   1.485   7.676   6.014
 5113TIP3   OH215281   4.685   2.326   4.874
 5113TIP3    H115282   4.775   2.324   4.843
 5113TIP3    H215283   4.691   2.363   4.962
 5114TIP3   OH215284   4.683   2.271   5.305
 5114TIP3    H115285   4.683   2.348   5.363
 5114TIP3    H215286   4.618   2.292   5.237
 5115TIP3   OH215287   1.385   7.737   0.774
 5115TIP3    H115288   1.368   7.769   0.686
 5115TIP3    H215289   1.399   7.643   0.763
 5116TIP3   OH215290   0.432   2.889   4.420
 5116TIP3    H115291   0.430   2.984   4.426
 5116TIP3    H215292   0.520   2.865   4.451
 5117TIP3   OH215293   0.097   0.471   1.903
 5117TIP3    H115294   0.050   0.503   1.825
 5117TIP3    H215295   0.189   0.483   1.882
 5118TIP3   OH215296   4.554   3.865   6.054
 5118TIP3    H115297   4.645   3.868   6.025
 5118TIP3    H215298   4.515   3.946   6.020
 5119TIP3   OH215299   0.443   1.880   0.167
 5119TIP3    H115300   0.443   1.975   0.160
 5119TIP3    H215301   0.491   1.850   0.089
 5120TIP3   OH215302   2.525   1.237   2.011
 5120TIP3    H115303   2.582   1.160   2.002
 5120TIP3    H215304   2.517   1.249   2.106
 5121TIP3   OH215305   4.711   6.037   4.436
 5121TIP3    H115306   4.720   6.008   4.526
 5121TIP3    H215307   4.801   6.054   4.407
 5122TIP3   OH215308   6.957   2.629   5.040
 5122TIP3    H115309   6.971   2.696   4.973
 5122TIP3    H215310   6.928   2.678   5.117
 5123TIP3   OH215311   1.747   2.529   0.890
 5123TIP3    H115312   1.655   2.524   0.867
 5123TIP3    H215313   1.793   2.523   0.807
 5124TIP3   OH215314   7.822   5.952   0.659
 5124TIP3    H115315   7.844   5.906   0.740
 5124TIP3    H215316   7.838   5.888   0.590
 5125TIP3   OH215317   4.038   5.011   0.613
 5125TIP3    H115318   4.112   5.034   0.669
 5125TIP3    H215319   4.073   4.944   0.555
 5126TIP3   OH215320   1.131   0.643   5.445
 5126TIP3    H115321   1.097   0.732   5.455
 5126TIP3    H215322   1.056   0.587   5.465
 5127TIP3   OH215323   7.774   7.564   5.393
 5127TIP3    H115324   7.835   7.603   5.331
 5127TIP3    H215325   7.829   7.535   5.466
 5128TIP3   OH215326   4.542   7.070   3.874
 5128TIP3    H115327   4.539   7.165   3.862
 5128TIP3    H215328   4.608   7.040   3.811
 5129TIP3   OH215329   0.651   7.726   1.383
 5129TIP3    H115330   0.563   7.719   1.345
 5129TIP3    H215331   0.710   7.704   1.311
 5130TIP3   OH215332   6.958   3.053   6.647
 5130TIP3    H115333   6.876   3.014   6.616
 5130TIP3    H215334   6.991   3.103   6.571
 5131TIP3   OH215335   7.855   4.317   4.815
 5131TIP3    H115336   7.775   4.365   4.835
 5131TIP3    H215337   7.848   4.236   4.866
 5132TIP3   OH215338   7.519   0.986   6.523
 5132TIP3    H115339   7.605   1.028   6.531
 5132TIP3    H215340   7.472   1.012   6.602
 5133TIP3   OH215341   6.175   6.391   4.823
 5133TIP3    H115342   6.159   6.330   4.895
 5133TIP3    H215343   6.243   6.450   4.855
 5134TIP3   OH215344   2.631   2.853   2.788
 5134TIP3    H115345   2.649   2.946   2.806
 5134TIP3    H215346   2.642   2.810   2.872
 5135TIP3   OH215347   3.629   3.644   1.578
 5135TIP3    H115348   3.586   3.581   1.636
 5135TIP3    H215349   3.658   3.714   1.637
 5136TIP3   OH215350   3.785   7.533   4.140
 5136TIP3    H115351   3.835   7.460   4.175
 5136TIP3    H215352   3.842   7.573   4.075
 5137TIP3   OH215353   0.471   3.981   5.510
 5137TIP3    H115354   0.499   3.997   5.420
 5137TIP3    H215355   0.481   3.887   5.522
 5138TIP3   OH215356   1.779   4.497   0.072
 5138TIP3    H115357   1.833   4.419   0.086
 5138TIP3    H215358   1.831   4.569   0.108
 5139TIP3   OH215359   8.130   0.200   3.818
 5139TIP3    H115360   8.102   0.280   3.775
 5139TIP3    H215361   8.225   0.205   3.819
 5140TIP3   OH215362   0.788   7.470   0.854
 5140TIP3    H115363   0.736   7.535   0.900
 5140TIP3    H215364   0.797   7.397   0.916
 5141TIP3   OH215365   4.757   5.235   5.907
 5141TIP3    H115366   4.704   5.287   5.846
 5141TIP3    H215367   4.758   5.287   5.987
 5142TIP3   OH215368   0.808   2.355   1.416
 5142TIP3    H115369   0.903   2.368   1.412
 5142TIP3    H215370   0.797   2.274   1.465
 5143TIP3   OH215371   2.788   5.002   3.413
 5143TIP3    H115372   2.860   5.014   3.476
 5143TIP3    H215373   2.718   4.961   3.464
 5144TIP3   OH215374   3.819   2.811   5.012
 5144TIP3    H115375   3.805   2.904   4.992
 5144TIP3    H215376   3.732   2.772   5.000
 5145TIP3   OH215377   5.770   0.401   2.561
 5145TIP3    H115378   5.829   0.328   2.540
 5145TIP3    H215379   5.726   0.421   2.479
 5146TIP3   OH215380   7.766   7.154  -0.010
 5146TIP3    H115381   7.752   7.231   0.045
 5146TIP3    H215382   7.730   7.081   0.040
 5147TIP3   OH215383   6.705   6.591   2.721
 5147TIP3    H115384   6.682   6.582   2.813
 5147TIP3    H215385   6.622   6.580   2.674
 5148TIP3   OH215386   2.962   5.852   5.999
 5148TIP3    H115387   2.891   5.866   6.061
 5148TIP3    H215388   2.952   5.762   5.970
 5149TIP3   OH215389   4.311   1.992   3.720
 5149TIP3    H115390   4.318   1.999   3.816
 5149TIP3    H215391   4.293   2.082   3.691
 5150TIP3   OH215392   2.091   4.837   4.723
 5150TIP3    H115393   2.100   4.804   4.813
 5150TIP3    H215394   2.145   4.779   4.670
 5151TIP3   OH215395   6.501   3.626   6.501
 5151TIP3    H115396   6.554   3.562   6.454
 5151TIP3    H215397   6.416   3.583   6.512
 5152TIP3   OH215398   4.913   0.520   5.427
 5152TIP3    H115399   4.915   0.439   5.478
 5152TIP3    H215400   4.967   0.501   5.350
 5153TIP3   OH215401   3.283   5.978   3.850
 5153TIP3    H115402   3.263   6.024   3.769
 5153TIP3    H215403   3.200   5.976   3.898
 5154TIP3   OH215404   0.648   7.327   0.130
 5154TIP3    H115405   0.633   7.384   0.055
 5154TIP3    H215406   0.700   7.254   0.095
 5155TIP3   OH215407   3.061   5.636   2.563
 5155TIP3    H115408   3.055   5.726   2.531
 5155TIP3    H215409   3.104   5.588   2.492
 5156TIP3   OH215410   5.525   3.447   6.681
 5156TIP3    H115411   5.452   3.410   6.731
 5156TIP3    H215412   5.546   3.379   6.617
 5157TIP3   OH215413   5.724   5.394   5.976
 5157TIP3    H115414   5.697   5.345   6.054
 5157TIP3    H215415   5.774   5.331   5.925
 5158TIP3   OH215416   0.076   3.292   2.691
 5158TIP3    H115417   0.048   3.350   2.763
 5158TIP3    H215418   0.053   3.340   2.612
 5159TIP3   OH215419   7.976   0.445   4.821
 5159TIP3    H115420   7.906   0.417   4.880
 5159TIP3    H215421   8.009   0.364   4.783
 5160TIP3   OH215422   8.275   0.743   5.805
 5160TIP3    H115423   8.184   0.751   5.777
 5160TIP3    H215424   8.305   0.663   5.762
 5161TIP3   OH215425   7.098   7.377   6.445
 5161TIP3    H115426   7.156   7.452   6.431
 5161TIP3    H215427   7.018   7.415   6.480
 5162TIP3   OH215428   7.255   3.911   1.451
 5162TIP3    H115429   7.329   3.920   1.391
 5162TIP3    H215430   7.293   3.873   1.531
 5163TIP3   OH215431   3.317   1.351   5.442
 5163TIP3    H115432   3.251   1.387   5.502
 5163TIP3    H215433   3.398   1.350   5.493
 5164TIP3   OH215434   5.525   3.420   0.651
 5164TIP3    H115435   5.584   3.496   0.658
 5164TIP3    H215436   5.441   3.453   0.682
 5165TIP3   OH215437   3.742   4.335   5.707
 5165TIP3    H115438   3.651   4.308   5.717
 5165TIP3    H215439   3.738   4.431   5.706
 5166TIP3   OH215440   5.789   4.632   2.907
 5166TIP3    H115441   5.778   4.727   2.905
 5166TIP3    H215442   5.882   4.619   2.922
 5167TIP3   OH215443   0.623   3.618   4.354
 5167TIP3    H115444   0.561   3.609   4.427
 5167TIP3    H215445   0.707   3.635   4.396
 5168TIP3   OH215446   5.515   2.586   1.193
 5168TIP3    H115447   5.584   2.637   1.150
 5168TIP3    H215448   5.470   2.542   1.121
 5169TIP3   OH215449   5.115   5.101   5.950
 5169TIP3    H115450   5.106   5.190   5.916
 5169TIP3    H215451   5.129   5.046   5.872
 5170TIP3   OH215452   1.861   1.196   6.088
 5170TIP3    H115453   1.914   1.271   6.063
 5170TIP3    H215454   1.870   1.190   6.183
 5171TIP3   OH215455   1.908   4.964   1.672
 5171TIP3    H115456   1.836   4.905   1.651
 5171TIP3    H215457   1.872   5.025   1.736
 5172TIP3   OH215458   4.605   3.698   5.578
 5172TIP3    H115459   4.652   3.764   5.628
 5172TIP3    H215460   4.642   3.615   5.608
 5173TIP3   OH215461   0.743   2.337   4.187
 5173TIP3    H115462   0.755   2.317   4.095
 5173TIP3    H215463   0.720   2.253   4.227
 5174TIP3   OH215464   2.200   5.147   6.310
 5174TIP3    H115465   2.125   5.206   6.300
 5174TIP3    H215466   2.164   5.060   6.295
 5175TIP3   OH215467   6.173   4.240   0.358
 5175TIP3    H115468   6.261   4.255   0.393
 5175TIP3    H215469   6.117   4.232   0.436
 5176TIP3   OH215470   8.242   2.995   5.938
 5176TIP3    H115471   8.333   3.011   5.963
 5176TIP3    H215472   8.203   2.952   6.014
 5177TIP3   OH215473   7.967   2.472   1.668
 5177TIP3    H115474   7.931   2.558   1.687
 5177TIP3    H215475   7.958   2.462   1.573
 5178TIP3   OH215476   7.330   1.931   3.684
 5178TIP3    H115477   7.402   1.886   3.729
 5178TIP3    H215478   7.371   1.971   3.607
 5179TIP3   OH215479   4.774   7.346   4.492
 5179TIP3    H115480   4.856   7.329   4.537
 5179TIP3    H215481   4.776   7.439   4.472
 5180TIP3   OH215482   1.380   0.506   4.992
 5180TIP3    H115483   1.354   0.424   4.950
 5180TIP3    H215484   1.426   0.554   4.924
 5181TIP3   OH215485   3.646   3.259   6.530
 5181TIP3    H115486   3.686   3.191   6.476
 5181TIP3    H215487   3.561   3.223   6.556
 5182TIP3   OH215488   5.691   7.748   3.502
 5182TIP3    H115489   5.621   7.812   3.491
 5182TIP3    H215490   5.645   7.663   3.505
 5183TIP3   OH215491   1.240   4.734   4.290
 5183TIP3    H115492   1.273   4.702   4.205
 5183TIP3    H215493   1.184   4.808   4.268
 5184TIP3   OH215494   4.849   7.436   3.605
 5184TIP3    H115495   4.922   7.493   3.629
 5184TIP3    H215496   4.889   7.368   3.551
 5185TIP3   OH215497   2.142   3.349   4.747
 5185TIP3    H115498   2.088   3.346   4.827
 5185TIP3    H215499   2.232   3.349   4.779
 5186TIP3   OH215500   1.230   2.011   1.666
 5186TIP3    H115501   1.197   1.930   1.626
 5186TIP3    H215502   1.245   1.987   1.758
 5187TIP3   OH215503   8.208   1.214   6.264
 5187TIP3    H115504   8.200   1.249   6.353
 5187TIP3    H215505   8.175   1.125   6.270
 5188TIP3   OH215506   1.815   6.843   5.365
 5188TIP3    H115507   1.755   6.858   5.439
 5188TIP3    H215508   1.786   6.906   5.298
 5189TIP3   OH215509   0.472   7.142   4.110
 5189TIP3    H115510   0.545   7.085   4.134
 5189TIP3    H215511   0.425   7.157   4.192
 5190TIP3   OH215512   5.902   2.919   4.472
 5190TIP3    H115513   5.913   2.890   4.381
 5190TIP3    H215514   5.808   2.918   4.486
 5191TIP3   OH215515   7.806   0.538   0.174
 5191TIP3    H115516   7.797   0.625   0.213
 5191TIP3    H215517   7.800   0.478   0.248
 5192TIP3   OH215518   7.281   6.679   4.307
 5192TIP3    H115519   7.312   6.589   4.312
 5192TIP3    H215520   7.360   6.733   4.315
 5193TIP3   OH215521   6.541   5.197   6.502
 5193TIP3    H115522   6.548   5.102   6.490
 5193TIP3    H215523   6.468   5.223   6.447
 5194TIP3   OH215524   5.175   3.673   0.293
 5194TIP3    H115525   5.139   3.682   0.381
 5194TIP3    H215526   5.138   3.747   0.244
 5195TIP3   OH215527   4.492   5.418   2.225
 5195TIP3    H115528   4.547   5.496   2.232
 5195TIP3    H215529   4.406   5.447   2.255
 5196TIP3   OH215530   1.357   1.196   3.450
 5196TIP3    H115531   1.398   1.281   3.467
 5196TIP3    H215532   1.292   1.214   3.382
 5197TIP3   OH215533   4.328   4.169   6.359
 5197TIP3    H115534   4.300   4.220   6.283
 5197TIP3    H215535   4.350   4.235   6.425
 5198TIP3   OH215536   7.505   4.843   2.751
 5198TIP3    H115537   7.580   4.793   2.720
 5198TIP3    H215538   7.542   4.909   2.809
 5199TIP3   OH215539   6.605   4.869   3.054
 5199TIP3    H115540   6.512   4.844   3.045
 5199TIP3    H215541   6.629   4.902   2.967
 5200TIP3   OH215542   0.669   3.596   1.841
 5200TIP3    H115543   0.622   3.522   1.879
 5200TIP3    H215544   0.625   3.673   1.877
 5201TIP3   OH215545   0.396   4.766   6.434
 5201TIP3    H115546   0.343   4.810   6.367
 5201TIP3    H215547   0.472   4.823   6.445
 5202TIP3   OH215548   2.014   4.115   2.277
 5202TIP3    H115549   2.025   4.079   2.189
 5202TIP3    H215550   2.090   4.081   2.326
 5203TIP3   OH215551   4.758   3.260   2.044
 5203TIP3    H115552   4.814   3.203   2.096
 5203TIP3    H215553   4.671   3.251   2.082
 5204TIP3   OH215554   6.606   7.175   1.198
 5204TIP3    H115555   6.583   7.095   1.246
 5204TIP3    H215556   6.678   7.148   1.140
 5205TIP3   OH215557   2.828   2.421   4.933
 5205TIP3    H115558   2.823   2.337   4.886
 5205TIP3    H215559   2.773   2.408   5.011
 5206TIP3   OH215560   6.530   2.142   4.068
 5206TIP3    H115561   6.534   2.046   4.067
 5206TIP3    H215562   6.436   2.162   4.064
 5207TIP3   OH215563   7.444   4.621   3.633
 5207TIP3    H115564   7.382   4.694   3.633
 5207TIP3    H215565   7.445   4.590   3.723
 5208TIP3   OH215566   6.660   6.296   4.937
 5208TIP3    H115567   6.652   6.247   5.020
 5208TIP3    H215568   6.745   6.268   4.902
 5209TIP3   OH215569   3.105   6.678   0.505
 5209TIP3    H115570   3.154   6.731   0.568
 5209TIP3    H215571   3.172   6.637   0.450
 5210TIP3   OH215572   7.513   7.436   0.529
 5210TIP3    H115573   7.447   7.418   0.462
 5210TIP3    H215574   7.574   7.362   0.522
 5211TIP3   OH215575   3.859   2.836   4.558
 5211TIP3    H115576   3.927   2.843   4.490
 5211TIP3    H215577   3.895   2.775   4.622
 5212TIP3   OH215578   7.231   1.557   4.324
 5212TIP3    H115579   7.270   1.509   4.397
 5212TIP3    H215580   7.235   1.649   4.351
 5213TIP3   OH215581   0.829   5.814   3.273
 5213TIP3    H115582   0.839   5.755   3.199
 5213TIP3    H215583   0.784   5.762   3.340
 5214TIP3   OH215584   1.238   5.738   4.169
 5214TIP3    H115585   1.285   5.820   4.188
 5214TIP3    H215586   1.300   5.687   4.116
 5215TIP3   OH215587   6.480   7.114   0.889
 5215TIP3    H115588   6.493   7.111   0.984
 5215TIP3    H215589   6.559   7.156   0.855
 5216TIP3   OH215590   5.440   1.033   0.148
 5216TIP3    H115591   5.394   0.949   0.152
 5216TIP3    H215592   5.499   1.023   0.073
 5217TIP3   OH215593   2.749   4.978   0.863
 5217TIP3    H115594   2.687   5.039   0.822
 5217TIP3    H215595   2.810   4.956   0.793
 5218TIP3   OH215596   2.170   1.642   1.924
 5218TIP3    H115597   2.228   1.569   1.902
 5218TIP3    H215598   2.083   1.612   1.900
 5219TIP3   OH215599   1.500   5.033   0.065
 5219TIP3    H115600   1.531   4.946   0.089
 5219TIP3    H215601   1.574   5.072   0.017
 5220TIP3   OH215602   0.505   2.490   4.272
 5220TIP3    H115603   0.468   2.511   4.358
 5220TIP3    H215604   0.590   2.451   4.292
 5221TIP3   OH215605   7.827   3.855   4.872
 5221TIP3    H115606   7.778   3.778   4.845
 5221TIP3    H215607   7.760   3.921   4.889
 5222TIP3   OH215608   5.014   3.660   4.405
 5222TIP3    H115609   5.070   3.624   4.474
 5222TIP3    H215610   5.028   3.603   4.330
 5223TIP3   OH215611   1.319   1.715   5.985
 5223TIP3    H115612   1.288   1.766   5.910
 5223TIP3    H215613   1.347   1.631   5.948
 5224TIP3   OH215614   1.182   4.173   3.407
 5224TIP3    H115615   1.252   4.153   3.468
 5224TIP3    H215616   1.170   4.093   3.356
 5225TIP3   OH215617   2.150   4.551   1.501
 5225TIP3    H115618   2.239   4.528   1.475
 5225TIP3    H215619   2.098   4.535   1.423
 5226TIP3   OH215620   3.118   3.532   5.877
 5226TIP3    H115621   3.123   3.562   5.967
 5226TIP3    H215622   3.029   3.554   5.849
 5227TIP3   OH215623   6.188   0.712   2.402
 5227TIP3    H115624   6.171   0.786   2.344
 5227TIP3    H215625   6.148   0.737   2.485
 5228TIP3   OH215626   0.206   7.076   3.557
 5228TIP3    H115627   0.206   7.172   3.561
 5228TIP3    H215628   0.199   7.056   3.463
 5229TIP3   OH215629   0.151   6.365   4.497
 5229TIP3    H115630   0.197   6.404   4.571
 5229TIP3    H215631   0.069   6.413   4.491
 5230TIP3   OH215632   7.671   1.696   4.021
 5230TIP3    H115633   7.739   1.633   4.000
 5230TIP3    H215634   7.613   1.650   4.082
 5231TIP3   OH215635   7.956   1.970   4.466
 5231TIP3    H115636   8.015   2.035   4.428
 5231TIP3    H215637   7.895   2.022   4.519
 5232TIP3   OH215638   1.623   5.401   2.637
 5232TIP3    H115639   1.581   5.414   2.552
 5232TIP3    H215640   1.691   5.335   2.620
 5233TIP3   OH215641   3.361   1.891   5.808
 5233TIP3    H115642   3.306   1.813   5.811
 5233TIP3    H215643   3.369   1.911   5.715
 5234TIP3   OH215644   0.224   7.867   6.240
 5234TIP3    H115645   0.271   7.808   6.298
 5234TIP3    H215646   0.133   7.840   6.246
 5235TIP3   OH215647   3.879   6.788   1.622
 5235TIP3    H115648   3.805   6.796   1.682
 5235TIP3    H215649   3.940   6.731   1.667
 5236TIP3   OH215650   4.895   1.668   4.092
 5236TIP3    H115651   4.910   1.583   4.051
 5236TIP3    H215652   4.969   1.679   4.152
 5237TIP3   OH215653   5.218   5.226   1.686
 5237TIP3    H115654   5.185   5.313   1.665
 5237TIP3    H215655   5.257   5.236   1.773
 5238TIP3   OH215656   3.635   1.568   1.840
 5238TIP3    H115657   3.541   1.564   1.824
 5238TIP3    H215658   3.643   1.618   1.921
 5239TIP3   OH215659   0.347   4.637   2.056
 5239TIP3    H115660   0.336   4.705   2.123
 5239TIP3    H215661   0.264   4.637   2.009
 5240TIP3   OH215662   4.409   7.779   2.895
 5240TIP3    H115663   4.429   7.746   2.982
 5240TIP3    H215664   4.493   7.813   2.863
 5241TIP3   OH215665   1.583   0.673   3.004
 5241TIP3    H115666   1.551   0.596   3.051
 5241TIP3    H215667   1.676   0.656   2.991
 5242TIP3   OH215668   0.372   6.413   3.488
 5242TIP3    H115669   0.419   6.330   3.477
 5242TIP3    H215670   0.280   6.387   3.494
 5243TIP3   OH215671   1.380   1.930   6.141
 5243TIP3    H115672   1.325   1.886   6.077
 5243TIP3    H215673   1.441   1.863   6.170
 5244TIP3   OH215674   7.310   3.051   0.567
 5244TIP3    H115675   7.299   3.145   0.580
 5244TIP3    H215676   7.235   3.011   0.610
 5245TIP3   OH215677   1.057   6.884   5.102
 5245TIP3    H115678   1.135   6.882   5.157
 5245TIP3    H215679   1.066   6.963   5.049
 5246TIP3   OH215680   5.269   2.194   4.630
 5246TIP3    H115681   5.286   2.271   4.577
 5246TIP3    H215682   5.274   2.120   4.569
 5247TIP3   OH215683   5.135   3.705   5.499
 5247TIP3    H115684   5.135   3.765   5.575
 5247TIP3    H215685   5.135   3.618   5.538
 5248TIP3   OH215686   7.038   6.345   3.103
 5248TIP3    H115687   6.961   6.298   3.073
 5248TIP3    H215688   7.008   6.435   3.115
 5249TIP3   OH215689   8.279   2.470   4.837
 5249TIP3    H115690   8.215   2.499   4.903
 5249TIP3    H215691   8.325   2.398   4.878
 5250TIP3   OH215692   1.772   1.030   3.716
 5250TIP3    H115693   1.712   0.958   3.735
 5250TIP3    H215694   1.839   0.992   3.659
 5251TIP3   OH215695   0.182   5.510   1.300
 5251TIP3    H115696   0.261   5.458   1.317
 5251TIP3    H215697   0.159   5.547   1.386
 5252TIP3   OH215698   7.222   0.606   6.360
 5252TIP3    H115699   7.252   0.595   6.450
 5252TIP3    H215700   7.289   0.659   6.318
 5253TIP3   OH215701   5.988   7.850   5.717
 5253TIP3    H115702   6.009   7.758   5.734
 5253TIP3    H215703   6.056   7.879   5.656
 5254TIP3   OH215704   1.842   3.173   4.873
 5254TIP3    H115705   1.842   3.159   4.968
 5254TIP3    H215706   1.921   3.131   4.842
 5255TIP3   OH215707   3.660   4.183   2.312
 5255TIP3    H115708   3.607   4.203   2.235
 5255TIP3    H215709   3.623   4.239   2.381
 5256TIP3   OH215710   2.551   4.809   0.320
 5256TIP3    H115711   2.580   4.747   0.253
 5256TIP3    H215712   2.604   4.788   0.397
 5257TIP3   OH215713   3.343   6.475   5.772
 5257TIP3    H115714   3.398   6.503   5.699
 5257TIP3    H215715   3.400   6.479   5.849
 5258TIP3   OH215716   2.048   7.791   5.553
 5258TIP3    H115717   2.106   7.777   5.627
 5258TIP3    H215718   1.987   7.858   5.582
 5259TIP3   OH215719   6.138   7.397   0.195
 5259TIP3    H115720   6.088   7.407   0.114
 5259TIP3    H215721   6.123   7.478   0.243
 5260TIP3   OH215722   4.186   3.903   3.562
 5260TIP3    H115723   4.236   3.980   3.535
 5260TIP3    H215724   4.166   3.857   3.480
 5261TIP3   OH215725   3.853   1.573   0.136
 5261TIP3    H115726   3.862   1.549   0.044
 5261TIP3    H215727   3.927   1.632   0.153
 5262TIP3   OH215728   0.110   1.837   1.452
 5262TIP3    H115729   0.043   1.895   1.487
 5262TIP3    H215730   0.175   1.830   1.522
 5263TIP3   OH215731   0.734   1.946   2.817
 5263TIP3    H115732   0.749   1.998   2.738
 5263TIP3    H215733   0.682   2.004   2.874
 5264TIP3   OH215734   0.902   7.463   6.028
 5264TIP3    H115735   0.854   7.521   6.087
 5264TIP3    H215736   0.986   7.449   6.071
 5265TIP3   OH215737   5.920   4.400   4.689
 5265TIP3    H115738   6.011   4.423   4.705
 5265TIP3    H215739   5.921   4.304   4.681
 5266TIP3   OH215740   0.444   6.992   1.925
 5266TIP3    H115741   0.410   7.070   1.969
 5266TIP3    H215742   0.505   6.954   1.988
 5267TIP3   OH215743   5.436   4.633   0.095
 5267TIP3    H115744   5.356   4.603   0.139
 5267TIP3    H215745   5.433   4.728   0.103
 5268TIP3   OH215746   2.359   1.488   3.901
 5268TIP3    H115747   2.411   1.487   3.821
 5268TIP3    H215748   2.343   1.581   3.918
 5269TIP3   OH215749   1.996   5.513   3.256
 5269TIP3    H115750   1.994   5.586   3.319
 5269TIP3    H215751   1.939   5.542   3.184
 5270TIP3   OH215752   2.641   1.880   1.905
 5270TIP3    H115753   2.551   1.911   1.908
 5270TIP3    H215754   2.662   1.875   1.812
 5271TIP3   OH215755   2.857   4.442   2.969
 5271TIP3    H115756   2.880   4.534   2.957
 5271TIP3    H215757   2.942   4.397   2.969
 5272TIP3   OH215758   7.775   5.129   4.249
 5272TIP3    H115759   7.836   5.181   4.195
 5272TIP3    H215760   7.702   5.110   4.190
 5273TIP3   OH215761   7.047   6.213   0.649
 5273TIP3    H115762   6.995   6.132   0.650
 5273TIP3    H215763   7.107   6.202   0.576
 5274TIP3   OH215764   5.344   5.543   2.317
 5274TIP3    H115765   5.261   5.571   2.356
 5274TIP3    H215766   5.321   5.468   2.263
 5275TIP3   OH215767   3.247   1.572   0.612
 5275TIP3    H115768   3.318   1.613   0.661
 5275TIP3    H215769   3.239   1.484   0.650
 5276TIP3   OH215770   4.320   6.616   0.796
 5276TIP3    H115771   4.326   6.614   0.892
 5276TIP3    H215772   4.227   6.628   0.777
 5277TIP3   OH215773   7.472   5.395   6.649
 5277TIP3    H115774   7.456   5.354   6.564
 5277TIP3    H215775   7.412   5.350   6.709
 5278TIP3   OH215776   0.344   3.168   5.058
 5278TIP3    H115777   0.257   3.148   5.091
 5278TIP3    H215778   0.394   3.194   5.136
 5279TIP3   OH215779   6.231   2.330   2.392
 5279TIP3    H115780   6.221   2.281   2.474
 5279TIP3    H215781   6.308   2.386   2.407
 5280TIP3   OH215782   3.860   2.272   0.584
 5280TIP3    H115783   3.841   2.330   0.510
 5280TIP3    H215784   3.946   2.236   0.566
 5281TIP3   OH215785   3.611   0.288   2.106
 5281TIP3    H115786   3.588   0.227   2.036
 5281TIP3    H215787   3.598   0.237   2.187
 5282TIP3   OH215788   0.509   4.593   0.868
 5282TIP3    H115789   0.478   4.515   0.914
 5282TIP3    H215790   0.584   4.562   0.817
 5283TIP3   OH215791   3.916   7.687   4.596
 5283TIP3    H115792   3.858   7.615   4.569
 5283TIP3    H215793   3.900   7.698   4.689
 5284TIP3   OH215794   6.434   1.618   1.974
 5284TIP3    H115795   6.432   1.711   1.999
 5284TIP3    H215796   6.519   1.607   1.931
 5285TIP3   OH215797   1.785   7.261   5.958
 5285TIP3    H115798   1.810   7.171   5.938
 5285TIP3    H215799   1.857   7.294   6.012
 5286TIP3   OH215800   1.810   6.012   3.523
 5286TIP3    H115801   1.855   5.929   3.536
 5286TIP3    H215802   1.857   6.053   3.450
 5287TIP3   OH215803   1.185   1.296   3.715
 5287TIP3    H115804   1.144   1.299   3.629
 5287TIP3    H215805   1.277   1.318   3.698
 5288TIP3   OH215806   3.306   5.163   5.036
 5288TIP3    H115807   3.372   5.214   5.082
 5288TIP3    H215808   3.345   5.076   5.027
 5289TIP3   OH215809   7.183   5.433   1.632
 5289TIP3    H115810   7.166   5.407   1.542
 5289TIP3    H215811   7.215   5.523   1.625
 5290TIP3   OH215812   0.112   2.030   0.907
 5290TIP3    H115813   0.036   2.057   0.958
 5290TIP3    H215814   0.166   2.110   0.901
 5291TIP3   OH215815   5.244   4.940   5.776
 5291TIP3    H115816   5.328   4.932   5.731
 5291TIP3    H215817   5.224   4.852   5.805
 5292TIP3   OH215818   4.727   4.233   5.913
 5292TIP3    H115819   4.646   4.193   5.944
 5292TIP3    H215820   4.729   4.319   5.954
 5293TIP3   OH215821   7.243   1.899   0.024
 5293TIP3    H115822   7.336   1.876   0.016
 5293TIP3    H215823   7.196   1.828  -0.018
 5294TIP3   OH215824   1.252   1.803   0.999
 5294TIP3    H115825   1.297   1.719   0.996
 5294TIP3    H215826   1.169   1.784   1.042
 5295TIP3   OH215827   2.693   3.233   1.587
 5295TIP3    H115828   2.748   3.156   1.574
 5295TIP3    H215829   2.751   3.296   1.630
 5296TIP3   OH215830   2.553   1.017   0.292
 5296TIP3    H115831   2.460   1.031   0.309
 5296TIP3    H215832   2.575   1.082   0.225
 5297TIP3   OH215833   6.855   0.647   3.257
 5297TIP3    H115834   6.827   0.736   3.237
 5297TIP3    H215835   6.775   0.595   3.255
 5298TIP3   OH215836   5.817   4.785   5.371
 5298TIP3    H115837   5.778   4.757   5.288
 5298TIP3    H215838   5.879   4.717   5.394
 5299TIP3   OH215839   6.162   5.350   6.698
 5299TIP3    H115840   6.150   5.380   6.608
 5299TIP3    H215841   6.079   5.370   6.741
 5300TIP3   OH215842   1.245   4.155   0.703
 5300TIP3    H115843   1.220   4.079   0.755
 5300TIP3    H215844   1.255   4.122   0.614
 5301TIP3   OH215845   4.596   0.164   2.158
 5301TIP3    H115846   4.534   0.234   2.177
 5301TIP3    H215847   4.661   0.205   2.101
 5302TIP3   OH215848   1.835   4.513   5.042
 5302TIP3    H115849   1.895   4.473   4.979
 5302TIP3    H215850   1.749   4.477   5.020
 5303TIP3   OH215851   7.544   2.688   4.000
 5303TIP3    H115852   7.514   2.730   4.080
 5303TIP3    H215853   7.581   2.759   3.948
 5304TIP3   OH215854   0.066   5.496   2.019
 5304TIP3    H115855   0.067   5.456   1.932
 5304TIP3    H215856  -0.027   5.507   2.039
 5305TIP3   OH215857   4.424   2.458   2.228
 5305TIP3    H115858   4.458   2.371   2.209
 5305TIP3    H215859   4.390   2.489   2.144
 5306TIP3   OH215860   5.350   4.362   3.259
 5306TIP3    H115861   5.320   4.429   3.197
 5306TIP3    H215862   5.360   4.408   3.342
 5307TIP3   OH215863   2.415   4.087   4.807
 5307TIP3    H115864   2.505   4.099   4.776
 5307TIP3    H215865   2.418   4.110   4.900
 5308TIP3   OH215866   7.015   2.825   0.408
 5308TIP3    H115867   7.049   2.877   0.335
 5308TIP3    H215868   6.998   2.739   0.370
 5309TIP3   OH215869   7.088   4.941   0.597
 5309TIP3    H115870   7.184   4.939   0.596
 5309TIP3    H215871   7.061   4.888   0.522
 5310TIP3   OH215872   6.754   2.840   2.921
 5310TIP3    H115873   6.664   2.872   2.927
 5310TIP3    H215874   6.746   2.755   2.877
 5311TIP3   OH215875   2.252   6.369   3.707
 5311TIP3    H115876   2.236   6.464   3.707
 5311TIP3    H215877   2.249   6.344   3.800
 5312TIP3   OH215878   5.244   4.089   5.187
 5312TIP3    H115879   5.206   4.029   5.123
 5312TIP3    H215880   5.324   4.120   5.145
 5313TIP3   OH215881   0.764   1.631   0.773
 5313TIP3    H115882   0.702   1.636   0.847
 5313TIP3    H215883   0.711   1.599   0.700
 5314TIP3   OH215884   5.192   0.721   0.670
 5314TIP3    H115885   5.143   0.709   0.588
 5314TIP3    H215886   5.223   0.633   0.692
 5315TIP3   OH215887   2.706   3.036   2.981
 5315TIP3    H115888   2.670   3.060   3.066
 5315TIP3    H215889   2.788   2.992   3.001
 5316TIP3   OH215890   6.902   6.650   4.744
 5316TIP3    H115891   6.947   6.734   4.744
 5316TIP3    H215892   6.950   6.596   4.806
 5317TIP3   OH215893   4.301   1.747   2.521
 5317TIP3    H115894   4.318   1.704   2.605
 5317TIP3    H215895   4.264   1.679   2.466
 5318TIP3   OH215896   0.797   3.972   0.996
 5318TIP3    H115897   0.760   4.045   1.045
 5318TIP3    H215898   0.780   3.895   1.051
 5319TIP3   OH215899   0.645   1.631   4.420
 5319TIP3    H115900   0.729   1.666   4.391
 5319TIP3    H215901   0.580   1.685   4.375
 5320TIP3   OH215902   7.052   2.489   1.819
 5320TIP3    H115903   6.974   2.435   1.834
 5320TIP3    H215904   7.069   2.480   1.725
 5321TIP3   OH215905   8.064   0.092   5.737
 5321TIP3    H115906   8.143   0.068   5.785
 5321TIP3    H215907   8.016   0.010   5.725
 5322TIP3   OH215908   6.908   1.967   6.290
 5322TIP3    H115909   6.814   1.983   6.294
 5322TIP3    H215910   6.948   2.052   6.308
 5323TIP3   OH215911   3.853   0.447   2.627
 5323TIP3    H115912   3.889   0.421   2.542
 5323TIP3    H215913   3.884   0.537   2.640
 5324TIP3   OH215914   7.087   7.192   5.375
 5324TIP3    H115915   7.079   7.198   5.280
 5324TIP3    H215916   7.179   7.171   5.390
 5325TIP3   OH215917   1.243   2.682   4.717
 5325TIP3    H115918   1.172   2.718   4.769
 5325TIP3    H215919   1.282   2.758   4.674
 5326TIP3   OH215920   1.280   0.611   2.081
 5326TIP3    H115921   1.255   0.644   2.167
 5326TIP3    H215922   1.325   0.685   2.039
 5327TIP3   OH215923   2.087   6.392   5.341
 5327TIP3    H115924   2.170   6.404   5.294
 5327TIP3    H215925   2.031   6.463   5.309
 5328TIP3   OH215926   2.472   2.463   6.161
 5328TIP3    H115927   2.536   2.485   6.094
 5328TIP3    H215928   2.387   2.481   6.121
 5329TIP3   OH215929   6.969   1.129   3.228
 5329TIP3    H115930   6.918   1.208   3.209
 5329TIP3    H215931   7.060   1.157   3.222
 5330TIP3   OH215932   0.202   7.868   2.749
 5330TIP3    H115933   0.231   7.829   2.832
 5330TIP3    H215934   0.181   7.793   2.693
 5331TIP3   OH215935   6.116   5.874   0.089
 5331TIP3    H115936   6.038   5.838   0.133
 5331TIP3    H215937   6.160   5.926   0.157
 5332TIP3   OH215938   7.283   6.270   3.428
 5332TIP3    H115939   7.291   6.177   3.410
 5332TIP3    H215940   7.192   6.282   3.455
 5333TIP3   OH215941   0.917   2.031   1.815
 5333TIP3    H115942   0.836   2.020   1.864
 5333TIP3    H215943   0.978   1.970   1.856
 5334TIP3   OH215944   3.297   2.719   4.212
 5334TIP3    H115945   3.325   2.653   4.275
 5334TIP3    H215946   3.320   2.802   4.254
 5335TIP3   OH215947   2.863   1.531   3.635
 5335TIP3    H115948   2.900   1.612   3.601
 5335TIP3    H215949   2.939   1.484   3.670
 5336TIP3   OH215950   8.235   3.426   0.608
 5336TIP3    H115951   8.235   3.399   0.700
 5336TIP3    H215952   8.178   3.363   0.564
 5337TIP3   OH215953   7.722   1.258   0.778
 5337TIP3    H115954   7.807   1.228   0.811
 5337TIP3    H215955   7.693   1.322   0.842
 5338TIP3   OH215956   2.851   6.577   1.187
 5338TIP3    H115957   2.939   6.542   1.176
 5338TIP3    H215958   2.793   6.503   1.170
 5339TIP3   OH215959   6.416   1.525   4.137
 5339TIP3    H115960   6.471   1.503   4.212
 5339TIP3    H215961   6.476   1.523   4.062
 5340TIP3   OH215962   4.135   1.139   3.234
 5340TIP3    H115963   4.164   1.182   3.314
 5340TIP3    H215964   4.170   1.050   3.239
 5341TIP3   OH215965   3.706   3.135   5.500
 5341TIP3    H115966   3.683   3.203   5.563
 5341TIP3    H215967   3.663   3.162   5.419
 5342TIP3   OH215968   1.645   2.656   5.438
 5342TIP3    H115969   1.589   2.706   5.497
 5342TIP3    H215970   1.702   2.721   5.398
 5343TIP3   OH215971   0.113   4.407   2.155
 5343TIP3    H115972   0.105   4.374   2.244
 5343TIP3    H215973   0.167   4.486   2.164
 5344TIP3   OH215974   1.995   2.953   1.860
 5344TIP3    H115975   1.958   2.923   1.777
 5344TIP3    H215976   2.089   2.957   1.844
 5345TIP3   OH215977   8.231   0.590   4.539
 5345TIP3    H115978   8.277   0.641   4.472
 5345TIP3    H215979   8.285   0.512   4.550
 5346TIP3   OH215980   0.673   4.634   6.246
 5346TIP3    H115981   0.641   4.554   6.287
 5346TIP3    H215982   0.596   4.675   6.208
 5347TIP3   OH215983   0.176   7.664   3.213
 5347TIP3    H115984   0.204   7.574   3.231
 5347TIP3    H215985   0.227   7.718   3.274
 5348TIP3   OH215986   0.430   7.418   0.269
 5348TIP3    H115987   0.380   7.464   0.201
 5348TIP3    H215988   0.511   7.393   0.226
 5349TIP3   OH215989   4.794   2.798   1.667
 5349TIP3    H115990   4.769   2.841   1.749
 5349TIP3    H215991   4.727   2.825   1.604
 5350TIP3   OH215992   5.310   7.114   1.823
 5350TIP3    H115993   5.256   7.041   1.794
 5350TIP3    H215994   5.252   7.190   1.816
 5351TIP3   OH215995   7.698   3.607   5.353
 5351TIP3    H115996   7.691   3.548   5.428
 5351TIP3    H215997   7.625   3.582   5.296
 5352TIP3   OH215998   4.200   2.957   1.769
 5352TIP3    H115999   4.200   2.968   1.865
 5352TIP3    H216000   4.122   2.905   1.751
 5353TIP3   OH216001   4.623   0.071   5.722
 5353TIP3    H116002   4.628   0.113   5.808
 5353TIP3    H216003   4.529   0.059   5.707
 5354TIP3   OH216004   3.818   4.853   3.183
 5354TIP3    H116005   3.743   4.794   3.194
 5354TIP3    H216006   3.823   4.870   3.089
 5355TIP3   OH216007   6.360   4.786   1.029
 5355TIP3    H116008   6.341   4.814   1.119
 5355TIP3    H216009   6.286   4.730   1.005
 5356TIP3   OH216010   6.828   2.255   0.773
 5356TIP3    H116011   6.850   2.313   0.847
 5356TIP3    H216012   6.910   2.249   0.723
 5357TIP3   OH216013   6.924   0.950   6.489
 5357TIP3    H116014   7.002   0.990   6.527
 5357TIP3    H216015   6.934   0.856   6.507
 5358TIP3   OH216016   6.530   4.540   3.082
 5358TIP3    H116017   6.507   4.477   3.150
 5358TIP3    H216018   6.523   4.625   3.125
 5359TIP3   OH216019   0.859   4.448   3.612
 5359TIP3    H116020   0.946   4.416   3.637
 5359TIP3    H216021   0.813   4.458   3.696
 5360TIP3   OH216022   1.000   6.163   3.571
 5360TIP3    H116023   0.938   6.144   3.642
 5360TIP3    H216024   1.074   6.104   3.588
 5361TIP3   OH216025   5.304   5.869   5.779
 5361TIP3    H116026   5.364   5.830   5.716
 5361TIP3    H216027   5.301   5.807   5.851
 5362TIP3   OH216028   2.123   6.242   3.020
 5362TIP3    H116029   2.197   6.206   3.069
 5362TIP3    H216030   2.051   6.180   3.037
 5363TIP3   OH216031   6.372   2.794   1.368
 5363TIP3    H116032   6.343   2.877   1.406
 5363TIP3    H216033   6.414   2.748   1.441
 5364TIP3   OH216034   2.733   6.590   3.644
 5364TIP3    H116035   2.667   6.548   3.589
 5364TIP3    H216036   2.690   6.602   3.729
 5365TIP3   OH216037   5.678   7.403   6.242
 5365TIP3    H116038   5.728   7.324   6.220
 5365TIP3    H216039   5.724   7.474   6.198
 5366TIP3   OH216040   0.783   6.100   3.727
 5366TIP3    H116041   0.778   6.005   3.744
 5366TIP3    H216042   0.705   6.135   3.770
 5367TIP3   OH216043   7.198   1.007   6.499
 5367TIP3    H116044   7.232   0.917   6.501
 5367TIP3    H216045   7.227   1.046   6.581
 5368TIP3   OH216046   1.462   2.525   0.573
 5368TIP3    H116047   1.376   2.512   0.534
 5368TIP3    H216048   1.523   2.485   0.510
 5369TIP3   OH216049   6.304   0.741   1.122
 5369TIP3    H116050   6.231   0.685   1.095
 5369TIP3    H216051   6.262   0.822   1.152
 5370TIP3   OH216052   4.402   6.002   0.530
 5370TIP3    H116053   4.335   5.978   0.465
 5370TIP3    H216054   4.483   5.963   0.496
 5371TIP3   OH216055   3.023   3.421   4.351
 5371TIP3    H116056   2.927   3.414   4.345
 5371TIP3    H216057   3.052   3.331   4.367
 5372TIP3   OH216058   5.160   5.598   0.795
 5372TIP3    H116059   5.137   5.545   0.718
 5372TIP3    H216060   5.093   5.575   0.860
 5373TIP3   OH216061   6.305   2.146   4.529
 5373TIP3    H116062   6.246   2.081   4.568
 5373TIP3    H216063   6.333   2.200   4.603
 5374TIP3   OH216064   6.528   1.496   1.304
 5374TIP3    H116065   6.609   1.455   1.273
 5374TIP3    H216066   6.469   1.423   1.321
 5375TIP3   OH216067   7.562   2.423   4.811
 5375TIP3    H116068   7.538   2.513   4.832
 5375TIP3    H216069   7.591   2.385   4.894
 5376TIP3   OH216070   1.862   4.903   4.577
 5376TIP3    H116071   1.852   4.998   4.584
 5376TIP3    H216072   1.930   4.881   4.641
 5377TIP3   OH216073   2.941   3.751   0.908
 5377TIP3    H116074   2.948   3.773   1.001
 5377TIP3    H216075   3.007   3.684   0.894
 5378TIP3   OH216076   2.022   3.081   2.125
 5378TIP3    H116077   2.015   3.014   2.057
 5378TIP3    H216078   1.958   3.055   2.191
 5379TIP3   OH216079   1.677   6.375   4.505
 5379TIP3    H116080   1.730   6.347   4.579
 5379TIP3    H216081   1.618   6.441   4.542
 5380TIP3   OH216082   4.839   4.952   0.512
 5380TIP3    H116083   4.765   4.920   0.563
 5380TIP3    H216084   4.899   4.877   0.509
 5381TIP3   OH216085   6.527   1.168   2.857
 5381TIP3    H116086   6.486   1.109   2.794
 5381TIP3    H216087   6.569   1.236   2.803
 5382TIP3   OH216088   1.563   7.157   3.095
 5382TIP3    H116089   1.497   7.207   3.144
 5382TIP3    H216090   1.528   7.068   3.093
 5383TIP3   OH216091   6.185   1.979   4.721
 5383TIP3    H116092   6.173   2.010   4.811
 5383TIP3    H216093   6.154   1.889   4.723
 5384TIP3   OH216094   6.807   2.250   4.075
 5384TIP3    H116095   6.728   2.211   4.039
 5384TIP3    H216096   6.876   2.230   4.011
 5385TIP3   OH216097   5.979   1.638   2.648
 5385TIP3    H116098   6.029   1.557   2.655
 5385TIP3    H216099   6.045   1.707   2.645
 5386TIP3   OH216100   3.300   0.230   5.973
 5386TIP3    H116101   3.375   0.195   6.022
 5386TIP3    H216102   3.339   0.293   5.912
 5387TIP3   OH216103   3.622   3.162   2.666
 5387TIP3    H116104   3.582   3.247   2.687
 5387TIP3    H216105   3.617   3.157   2.570
 5388TIP3   OH216106   8.115   3.126   5.740
 5388TIP3    H116107   8.165   3.073   5.802
 5388TIP3    H216108   8.024   3.100   5.755
 5389TIP3   OH216109   0.190   0.844   3.541
 5389TIP3    H116110   0.144   0.898   3.605
 5389TIP3    H216111   0.275   0.887   3.530
 5390TIP3   OH216112   2.890   5.583   1.267
 5390TIP3    H116113   2.803   5.560   1.299
 5390TIP3    H216114   2.914   5.661   1.318
 5391TIP3   OH216115   5.332   4.995   1.406
 5391TIP3    H116116   5.248   4.995   1.454
 5391TIP3    H216117   5.392   5.043   1.463
 5392TIP3   OH216118   5.410   5.070   6.310
 5392TIP3    H116119   5.441   5.003   6.370
 5392TIP3    H216120   5.348   5.025   6.253
 5393TIP3   OH216121   4.292   3.592   3.321
 5393TIP3    H116122   4.208   3.633   3.342
 5393TIP3    H216123   4.300   3.601   3.226
 5394TIP3   OH216124   6.350   1.259   3.947
 5394TIP3    H116125   6.286   1.210   3.999
 5394TIP3    H216126   6.378   1.331   4.005
 5395TIP3   OH216127   2.162   3.156   3.408
 5395TIP3    H116128   2.185   3.248   3.421
 5395TIP3    H216129   2.208   3.131   3.328
 5396TIP3   OH216130   1.989   2.945   3.390
 5396TIP3    H116131   1.926   2.992   3.334
 5396TIP3    H216132   2.050   3.013   3.419
 5397TIP3   OH216133   2.258   3.998   2.274
 5397TIP3    H116134   2.352   4.008   2.287
 5397TIP3    H216135   2.249   3.959   2.187
 5398TIP3   OH216136   4.944   6.272   0.122
 5398TIP3    H116137   4.924   6.181   0.099
 5398TIP3    H216138   4.859   6.314   0.128
 5399TIP3   OH216139   3.702   3.488   6.643
 5399TIP3    H116140   3.647   3.482   6.722
 5399TIP3    H216141   3.673   3.415   6.588
 5400TIP3   OH216142   3.230   6.050   1.194
 5400TIP3    H116143   3.182   6.021   1.272
 5400TIP3    H216144   3.306   5.992   1.189
 5401TIP3   OH216145   3.495   2.611   4.464
 5401TIP3    H116146   3.512   2.704   4.480
 5401TIP3    H216147   3.472   2.576   4.549
 5402TIP3   OH216148   0.574   5.514   2.778
 5402TIP3    H116149   0.556   5.454   2.849
 5402TIP3    H216150   0.627   5.583   2.818
 5403TIP3   OH216151   1.432   1.816   3.687
 5403TIP3    H116152   1.356   1.759   3.700
 5403TIP3    H216153   1.503   1.757   3.662
 5404TIP3   OH216154   4.047   2.232   4.481
 5404TIP3    H116155   4.036   2.280   4.399
 5404TIP3    H216156   4.124   2.272   4.522
 5405TIP3   OH216157   1.848   2.790   0.927
 5405TIP3    H116158   1.796   2.711   0.944
 5405TIP3    H216159   1.799   2.861   0.970
 5406TIP3   OH216160   4.938   0.651   3.968
 5406TIP3    H116161   4.985   0.701   4.035
 5406TIP3    H216162   4.979   0.678   3.886
 5407TIP3   OH216163   3.093   6.798   1.383
 5407TIP3    H116164   3.041   6.730   1.426
 5407TIP3    H216165   3.165   6.751   1.341
 5408TIP3   OH216166   1.929   5.991   4.244
 5408TIP3    H116167   1.881   6.072   4.264
 5408TIP3    H216168   1.940   5.993   4.149
 5409TIP3   OH216169   5.335   0.451   6.638
 5409TIP3    H116170   5.404   0.468   6.703
 5409TIP3    H216171   5.256   0.436   6.690
 5410TIP3   OH216172   6.595   3.157   3.339
 5410TIP3    H116173   6.602   3.194   3.250
 5410TIP3    H216174   6.612   3.231   3.397
 5411TIP3   OH216175   6.896   7.592   2.784
 5411TIP3    H116176   6.952   7.520   2.814
 5411TIP3    H216177   6.905   7.592   2.689
 5412TIP3   OH216178   8.232   3.846   1.721
 5412TIP3    H116179   8.179   3.868   1.644
 5412TIP3    H216180   8.232   3.926   1.774
 5413TIP3   OH216181   7.354   3.843   3.171
 5413TIP3    H116182   7.295   3.887   3.231
 5413TIP3    H216183   7.358   3.900   3.094
 5414TIP3   OH216184   1.148   5.749   6.074
 5414TIP3    H116185   1.178   5.739   5.984
 5414TIP3    H216186   1.097   5.830   6.074
 5415TIP3   OH216187   6.617   3.065   0.718
 5415TIP3    H116188   6.569   3.021   0.647
 5415TIP3    H216189   6.550   3.117   0.763
 5416TIP3   OH216190   0.959   4.639   5.385
 5416TIP3    H116191   0.908   4.565   5.352
 5416TIP3    H216192   0.916   4.661   5.468
 5417TIP3   OH216193   1.834   0.256   3.370
 5417TIP3    H116194   1.905   0.194   3.348
 5417TIP3    H216195   1.837   0.262   3.465
 5418TIP3   OH216196   1.894   7.141   3.104
 5418TIP3    H116197   1.801   7.116   3.099
 5418TIP3    H216198   1.935   7.069   3.153
 5419TIP3   OH216199   1.661   4.273   3.576
 5419TIP3    H116200   1.709   4.243   3.654
 5419TIP3    H216201   1.694   4.217   3.505
 5420TIP3   OH216202   1.893   1.117   2.005
 5420TIP3    H116203   1.964   1.169   2.043
 5420TIP3    H216204   1.900   1.131   1.911
 5421TIP3   OH216205   8.048   4.600   5.263
 5421TIP3    H116206   8.018   4.633   5.179
 5421TIP3    H216207   8.114   4.535   5.241
 5422TIP3   OH216208   3.752   0.873   1.052
 5422TIP3    H116209   3.736   0.959   1.092
 5422TIP3    H216210   3.740   0.811   1.124
 5423TIP3   OH216211   7.984   7.131   3.682
 5423TIP3    H116212   8.045   7.070   3.640
 5423TIP3    H216213   7.954   7.189   3.612
 5424TIP3   OH216214   5.273   0.893   6.334
 5424TIP3    H116215   5.203   0.891   6.269
 5424TIP3    H216216   5.271   0.807   6.375
 5425TIP3   OH216217   3.148   4.867   4.506
 5425TIP3    H116218   3.070   4.902   4.549
 5425TIP3    H216219   3.217   4.931   4.522
 5426TIP3   OH216220   0.160   5.899   4.750
 5426TIP3    H116221   0.252   5.873   4.749
 5426TIP3    H216222   0.127   5.872   4.664
 5427TIP3   OH216223   7.815   1.326   0.276
 5427TIP3    H116224   7.824   1.234   0.302
 5427TIP3    H216225   7.777   1.369   0.353
 5428TIP3   OH216226   4.294   4.917   1.736
 5428TIP3    H116227   4.271   4.947   1.648
 5428TIP3    H216228   4.311   4.997   1.786
 5429TIP3   OH216229   5.087   5.703   4.136
 5429TIP3    H116230   5.147   5.678   4.066
 5429TIP3    H216231   5.013   5.643   4.127
 5430TIP3   OH216232   3.200   5.622   6.581
 5430TIP3    H116233   3.119   5.671   6.589
 5430TIP3    H216234   3.183   5.539   6.627
 5431TIP3   OH216235   4.557   6.413   3.856
 5431TIP3    H116236   4.517   6.328   3.838
 5431TIP3    H216237   4.581   6.448   3.769
 5432TIP3   OH216238   4.862   1.654   0.932
 5432TIP3    H116239   4.767   1.655   0.916
 5432TIP3    H216240   4.898   1.714   0.867
 5433TIP3   OH216241   0.927   2.058   2.167
 5433TIP3    H116242   0.957   2.106   2.090
 5433TIP3    H216243   1.007   2.039   2.217
 5434TIP3   OH216244   1.249   7.841   2.418
 5434TIP3    H116245   1.182   7.822   2.483
 5434TIP3    H216246   1.259   7.760   2.368
 5435TIP3   OH216247   1.569   4.598   3.084
 5435TIP3    H116248   1.574   4.587   3.179
 5435TIP3    H216249   1.640   4.544   3.050
 5436TIP3   OH216250   1.638   7.124   0.635
 5436TIP3    H116251   1.577   7.110   0.562
 5436TIP3    H216252   1.583   7.124   0.713
 5437TIP3   OH216253   8.147   4.524   6.246
 5437TIP3    H116254   8.202   4.447   6.235
 5437TIP3    H216255   8.133   4.556   6.156
 5438TIP3   OH216256   4.001   3.844   1.878
 5438TIP3    H116257   4.011   3.938   1.890
 5438TIP3    H216258   3.910   3.826   1.903
 5439TIP3   OH216259   8.125   4.783   4.583
 5439TIP3    H116260   8.170   4.764   4.666
 5439TIP3    H216261   8.118   4.697   4.540
 5440TIP3   OH216262   4.619   5.652   1.118
 5440TIP3    H116263   4.562   5.718   1.080
 5440TIP3    H216264   4.567   5.613   1.188
 5441TIP3   OH216265   1.961   2.677   1.174
 5441TIP3    H116266   2.015   2.684   1.253
 5441TIP3    H216267   1.926   2.765   1.161
 5442TIP3   OH216268   5.894   1.666   5.188
 5442TIP3    H116269   5.980   1.702   5.165
 5442TIP3    H216270   5.898   1.575   5.158
 5443TIP3   OH216271   2.652   5.636   1.939
 5443TIP3    H116272   2.718   5.664   2.002
 5443TIP3    H216273   2.676   5.683   1.858
 5444TIP3   OH216274   1.976   6.059   4.749
 5444TIP3    H116275   2.056   6.015   4.778
 5444TIP3    H216276   1.944   6.005   4.677
 5445TIP3   OH216277   0.959   3.842   4.368
 5445TIP3    H116278   0.926   3.762   4.409
 5445TIP3    H216279   0.975   3.901   4.442
 5446TIP3   OH216280   1.006   4.915   3.071
 5446TIP3    H116281   1.066   4.900   3.145
 5446TIP3    H216282   0.941   4.977   3.105
 5447TIP3   OH216283   4.432   4.783   2.301
 5447TIP3    H116284   4.492   4.709   2.286
 5447TIP3    H216285   4.487   4.850   2.341
 5448TIP3   OH216286   4.717   0.879   2.960
 5448TIP3    H116287   4.750   0.876   2.870
 5448TIP3    H216288   4.658   0.804   2.967
 5449TIP3   OH216289   0.541   5.178   5.617
 5449TIP3    H116290   0.529   5.132   5.700
 5449TIP3    H216291   0.551   5.108   5.552
 5450TIP3   OH216292  -0.016   7.477   2.942
 5450TIP3    H116293  -0.010   7.389   2.978
 5450TIP3    H216294   0.027   7.471   2.856
 5451TIP3   OH216295   7.005   1.244   3.665
 5451TIP3    H116296   6.926   1.243   3.718
 5451TIP3    H216297   6.978   1.282   3.581
 5452TIP3   OH216298   7.495   2.256   1.286
 5452TIP3    H116299   7.446   2.276   1.206
 5452TIP3    H216300   7.492   2.161   1.293
 5453TIP3   OH216301   0.748   0.951   4.885
 5453TIP3    H116302   0.694   1.029   4.897
 5453TIP3    H216303   0.838   0.982   4.898
 5454TIP3   OH216304   6.751   0.283   0.499
 5454TIP3    H116305   6.749   0.195   0.462
 5454TIP3    H216306   6.733   0.270   0.592
 5455TIP3   OH216307   4.568   2.614   4.453
 5455TIP3    H116308   4.571   2.562   4.533
 5455TIP3    H216309   4.482   2.596   4.416
 5456TIP3   OH216310   2.226   0.398   5.083
 5456TIP3    H116311   2.203   0.338   5.012
 5456TIP3    H216312   2.197   0.484   5.053
 5457TIP3   OH216313   6.452   4.933   0.409
 5457TIP3    H116314   6.425   4.903   0.496
 5457TIP3    H216315   6.492   4.857   0.369
 5458TIP3   OH216316   7.267   1.010   1.235
 5458TIP3    H116317   7.255   0.971   1.322
 5458TIP3    H216318   7.179   1.037   1.208
 5459TIP3   OH216319   5.344   7.865   1.333
 5459TIP3    H116320   5.379   7.788   1.377
 5459TIP3    H216321   5.309   7.833   1.250
 5460TIP3   OH216322   5.402   2.433   4.550
 5460TIP3    H116323   5.397   2.455   4.457
 5460TIP3    H216324   5.481   2.380   4.558
 5461TIP3   OH216325   2.604   3.280   4.159
 5461TIP3    H116326   2.615   3.211   4.224
 5461TIP3    H216327   2.514   3.310   4.171
 5462TIP3   OH216328   8.115   3.192   0.692
 5462TIP3    H116329   8.145   3.108   0.659
 5462TIP3    H216330   8.136   3.191   0.786
 5463TIP3   OH216331   0.461   7.288   3.207
 5463TIP3    H116332   0.496   7.200   3.218
 5463TIP3    H216333   0.524   7.332   3.151
 5464TIP3   OH216334   7.168   0.277   4.157
 5464TIP3    H116335   7.117   0.308   4.082
 5464TIP3    H216336   7.162   0.181   4.152
 5465TIP3   OH216337   5.813   5.609   3.794
 5465TIP3    H116338   5.732   5.649   3.826
 5465TIP3    H216339   5.806   5.615   3.698
 5466TIP3   OH216340   1.858   0.011   5.861
 5466TIP3    H116341   1.816  -0.011   5.778
 5466TIP3    H216342   1.917   0.084   5.839
 5467TIP3   OH216343   6.623   6.864   2.603
 5467TIP3    H116344   6.709   6.837   2.570
 5467TIP3    H216345   6.640   6.894   2.692
 5468TIP3   OH216346   2.047   0.049   1.677
 5468TIP3    H116347   2.107   0.045   1.602
 5468TIP3    H216348   1.960   0.056   1.637
 5469TIP3   OH216349   3.455   7.835   4.050
 5469TIP3    H116350   3.427   7.799   3.966
 5469TIP3    H216351   3.382   7.817   4.109
 5470TIP3   OH216352   0.032   6.226   3.246
 5470TIP3    H116353   0.089   6.284   3.197
 5470TIP3    H216354   0.049   6.139   3.211
 5471TIP3   OH216355   6.581   3.990   0.117
 5471TIP3    H116356   6.497   4.017   0.154
 5471TIP3    H216357   6.640   4.064   0.133
 5472TIP3   OH216358   5.208   4.959   0.946
 5472TIP3    H116359   5.234   4.884   0.999
 5472TIP3    H216360   5.219   4.930   0.856
 5473TIP3   OH216361   4.742   1.061   2.415
 5473TIP3    H116362   4.826   1.096   2.445
 5473TIP3    H216363   4.755   1.044   2.322
 5474TIP3   OH216364   7.737   3.480   0.410
 5474TIP3    H116365   7.695   3.451   0.329
 5474TIP3    H216366   7.738   3.401   0.465
 5475TIP3   OH216367   6.622   2.434   4.899
 5475TIP3    H116368   6.707   2.459   4.862
 5475TIP3    H216369   6.642   2.358   4.954
 5476TIP3   OH216370   5.735   5.865   1.619
 5476TIP3    H116371   5.676   5.827   1.554
 5476TIP3    H216372   5.701   5.954   1.633
 5477TIP3   OH216373   7.801   0.555   4.300
 5477TIP3    H116374   7.865   0.599   4.244
 5477TIP3    H216375   7.854   0.509   4.365
 5478TIP3   OH216376   4.559   2.036   0.137
 5478TIP3    H116377   4.651   2.011   0.136
 5478TIP3    H216378   4.511   1.953   0.136
 5479TIP3   OH216379   2.193   1.428   2.676
 5479TIP3    H116380   2.169   1.460   2.589
 5479TIP3    H216381   2.122   1.369   2.700
 5480TIP3   OH216382   3.084   1.767   6.536
 5480TIP3    H116383   3.158   1.754   6.596
 5480TIP3    H216384   3.059   1.679   6.509
 5481TIP3   OH216385   0.098   3.055   3.527
 5481TIP3    H116386   0.043   3.130   3.504
 5481TIP3    H216387   0.187   3.091   3.533
 5482TIP3   OH216388   4.972   1.241   1.625
 5482TIP3    H116389   4.889   1.199   1.600
 5482TIP3    H216390   4.946   1.306   1.690
 5483TIP3   OH216391   4.586   6.050   6.695
 5483TIP3    H116392   4.544   6.136   6.698
 5483TIP3    H216393   4.602   6.027   6.786
 5484TIP3   OH216394   6.848   6.501   5.068
 5484TIP3    H116395   6.867   6.464   5.155
 5484TIP3    H216396   6.934   6.527   5.034
 5485TIP3   OH216397   7.377   7.482   1.832
 5485TIP3    H116398   7.378   7.387   1.819
 5485TIP3    H216399   7.459   7.500   1.878
 5486TIP3   OH216400   5.106   7.516   2.956
 5486TIP3    H116401   5.123   7.424   2.975
 5486TIP3    H216402   5.182   7.545   2.906
 5487TIP3   OH216403   6.106   2.757   6.589
 5487TIP3    H116404   6.029   2.724   6.636
 5487TIP3    H216405   6.103   2.710   6.505
 5488TIP3   OH216406   2.291   7.611   3.276
 5488TIP3    H116407   2.362   7.606   3.340
 5488TIP3    H216408   2.331   7.590   3.192
 5489TIP3   OH216409   2.140   7.559   2.826
 5489TIP3    H116410   2.161   7.624   2.759
 5489TIP3    H216411   2.053   7.528   2.803
 5490TIP3   OH216412   1.298   7.216   3.031
 5490TIP3    H116413   1.312   7.299   2.986
 5490TIP3    H216414   1.227   7.234   3.093
 5491TIP3   OH216415   3.139   5.013   1.446
 5491TIP3    H116416   3.098   4.932   1.414
 5491TIP3    H216417   3.077   5.047   1.510
 5492TIP3   OH216418   2.690   6.433   0.846
 5492TIP3    H116419   2.625   6.494   0.881
 5492TIP3    H216420   2.681   6.355   0.901
 5493TIP3   OH216421   3.733   2.419   0.380
 5493TIP3    H116422   3.669   2.490   0.387
 5493TIP3    H216423   3.786   2.441   0.303
 5494TIP3   OH216424   2.772   5.894   6.543
 5494TIP3    H116425   2.783   5.911   6.450
 5494TIP3    H216426   2.727   5.809   6.548
 5495TIP3   OH216427   4.332   0.416   4.929
 5495TIP3    H116428   4.252   0.466   4.945
 5495TIP3    H216429   4.390   0.478   4.885
 5496TIP3   OH216430   1.215   7.493   6.016
 5496TIP3    H116431   1.154   7.507   6.089
 5496TIP3    H216432   1.179   7.545   5.944
 5497TIP3   OH216433   5.306   5.714   5.207
 5497TIP3    H116434   5.316   5.802   5.170
 5497TIP3    H216435   5.313   5.656   5.131
 5498TIP3   OH216436   7.875   5.122   3.783
 5498TIP3    H116437   7.854   5.079   3.700
 5498TIP3    H216438   7.851   5.059   3.850
 5499TIP3   OH216439   7.467   7.426   6.233
 5499TIP3    H116440   7.550   7.385   6.208
 5499TIP3    H216441   7.467   7.510   6.186
 5500TIP3   OH216442   1.461   1.286   0.651
 5500TIP3    H116443   1.548   1.276   0.613
 5500TIP3    H216444   1.404   1.233   0.595
 5501TIP3   OH216445   3.205   0.939   5.458
 5501TIP3    H116446   3.236   0.977   5.540
 5501TIP3    H216447   3.247   0.853   5.454
 5502TIP3   OH216448   7.907   6.202   6.628
 5502TIP3    H116449   7.869   6.267   6.569
 5502TIP3    H216450   7.927   6.250   6.708
 5503TIP3   OH216451   5.585   0.696   0.916
 5503TIP3    H116452   5.669   0.721   0.954
 5503TIP3    H216453   5.608   0.645   0.839
 5504TIP3   OH216454   0.904   7.364   1.908
 5504TIP3    H116455   0.833   7.305   1.931
 5504TIP3    H216456   0.947   7.323   1.834
 5505TIP3   OH216457   6.408   6.940   2.156
 5505TIP3    H116458   6.457   7.018   2.178
 5505TIP3    H216459   6.474   6.878   2.125
 5506TIP3   OH216460   5.249   6.230   5.606
 5506TIP3    H116461   5.189   6.202   5.675
 5506TIP3    H216462   5.227   6.322   5.591
 5507TIP3   OH216463   1.543   7.729   3.392
 5507TIP3    H116464   1.484   7.798   3.423
 5507TIP3    H216465   1.566   7.757   3.303
 5508TIP3   OH216466   2.463   2.441   0.322
 5508TIP3    H116467   2.463   2.456   0.417
 5508TIP3    H216468   2.551   2.408   0.303
 5509TIP3   OH216469   5.363   6.966   0.624
 5509TIP3    H116470   5.318   6.904   0.680
 5509TIP3    H216471   5.428   7.007   0.681
 5510TIP3   OH216472   0.737   5.098   1.094
 5510TIP3    H116473   0.677   5.110   1.167
 5510TIP3    H216474   0.818   5.141   1.122
 5511TIP3   OH216475   4.626   7.840   3.393
 5511TIP3    H116476   4.640   7.752   3.430
 5511TIP3    H216477   4.543   7.832   3.345
 5512TIP3   OH216478   6.456   0.539   3.759
 5512TIP3    H116479   6.413   0.514   3.677
 5512TIP3    H216480   6.418   0.480   3.824
 5513TIP3   OH216481   1.418   2.139   4.535
 5513TIP3    H116482   1.402   2.215   4.591
 5513TIP3    H216483   1.513   2.139   4.522
 5514TIP3   OH216484   2.294   4.322   6.179
 5514TIP3    H116485   2.356   4.318   6.106
 5514TIP3    H216486   2.212   4.352   6.139
 5515TIP3   OH216487   4.625   2.460   4.005
 5515TIP3    H116488   4.613   2.412   4.087
 5515TIP3    H216489   4.544   2.511   3.996
 5516TIP3   OH216490   0.303   2.558   0.786
 5516TIP3    H116491   0.283   2.631   0.846
 5516TIP3    H216492   0.328   2.601   0.704
 5517TIP3   OH216493   6.806   6.694   5.791
 5517TIP3    H116494   6.833   6.625   5.730
 5517TIP3    H216495   6.889   6.727   5.827
 5518TIP3   OH216496   3.076   7.270   0.684
 5518TIP3    H116497   3.161   7.282   0.642
 5518TIP3    H216498   3.068   7.345   0.744
 5519TIP3   OH216499   7.146   5.458   5.337
 5519TIP3    H116500   7.178   5.372   5.364
 5519TIP3    H216501   7.126   5.504   5.419
 5520TIP3   OH216502   1.939   5.563   5.408
 5520TIP3    H116503   1.883   5.624   5.455
 5520TIP3    H216504   2.014   5.549   5.465
 5521TIP3   OH216505   1.842   5.468   0.573
 5521TIP3    H116506   1.866   5.531   0.505
 5521TIP3    H216507   1.790   5.519   0.636
 5522TIP3   OH216508   3.799   7.556   0.193
 5522TIP3    H116509   3.758   7.518   0.115
 5522TIP3    H216510   3.749   7.636   0.210
 5523TIP3   OH216511   1.406   6.924   5.522
 5523TIP3    H116512   1.502   6.931   5.528
 5523TIP3    H216513   1.385   6.847   5.576
 5524TIP3   OH216514   1.778   4.378   5.488
 5524TIP3    H116515   1.746   4.460   5.450
 5524TIP3    H216516   1.872   4.392   5.500
 5525TIP3   OH216517   0.387   5.690   6.262
 5525TIP3    H116518   0.411   5.768   6.211
 5525TIP3    H216519   0.419   5.709   6.351
 5526TIP3   OH216520   4.815   5.064   1.857
 5526TIP3    H116521   4.855   4.990   1.810
 5526TIP3    H216522   4.753   5.022   1.917
 5527TIP3   OH216523   1.583   7.786   3.107
 5527TIP3    H116524   1.627   7.867   3.132
 5527TIP3    H216525   1.646   7.740   3.051
 5528TIP3   OH216526   7.802   1.055   0.377
 5528TIP3    H116527   7.892   1.024   0.370
 5528TIP3    H216528   7.762   1.032   0.293
 5529TIP3   OH216529   4.324   7.049   4.902
 5529TIP3    H116530   4.357   6.986   4.838
 5529TIP3    H216531   4.240   7.013   4.929
 5530TIP3   OH216532   1.189   2.153   1.415
 5530TIP3    H116533   1.185   2.128   1.507
 5530TIP3    H216534   1.188   2.249   1.417
 5531TIP3   OH216535   4.613   5.917   5.419
 5531TIP3    H116536   4.703   5.938   5.441
 5531TIP3    H216537   4.561   5.983   5.466
 5532TIP3   OH216538   0.658   7.023   3.524
 5532TIP3    H116539   0.602   7.042   3.449
 5532TIP3    H216540   0.613   6.951   3.569
 5533TIP3   OH216541   2.806   3.992   3.268
 5533TIP3    H116542   2.853   4.010   3.186
 5533TIP3    H216543   2.833   4.062   3.327
 5534TIP3   OH216544   3.963   6.073   1.394
 5534TIP3    H116545   3.976   5.991   1.441
 5534TIP3    H216546   3.885   6.112   1.434
 5535TIP3   OH216547   5.932   0.677   0.396
 5535TIP3    H116548   5.992   0.619   0.347
 5535TIP3    H216549   5.903   0.624   0.470
 5536TIP3   OH216550   7.849   1.485   0.013
 5536TIP3    H116551   7.832   1.442   0.096
 5536TIP3    H216552   7.905   1.559   0.035
 5537TIP3   OH216553   6.902   7.519   3.404
 5537TIP3    H116554   6.808   7.505   3.417
 5537TIP3    H216555   6.925   7.458   3.333
 5538TIP3   OH216556   1.560   1.009   3.253
 5538TIP3    H116557   1.637   1.049   3.293
 5538TIP3    H216558   1.493   1.013   3.321
 5539TIP3   OH216559   4.024   0.997   4.035
 5539TIP3    H116560   4.109   1.026   4.067
 5539TIP3    H216561   4.039   0.908   4.001
 5540TIP3   OH216562   2.867   1.677   1.746
 5540TIP3    H116563   2.930   1.605   1.750
 5540TIP3    H216564   2.817   1.669   1.827
 5541TIP3   OH216565   2.144   0.122   0.723
 5541TIP3    H116566   2.111   0.168   0.647
 5541TIP3    H216567   2.143   0.029   0.698
 5542TIP3   OH216568   5.995   1.744   6.108
 5542TIP3    H116569   5.900   1.755   6.110
 5542TIP3    H216570   6.019   1.720   6.197
 5543TIP3   OH216571   2.889   1.617   6.166
 5543TIP3    H116572   2.900   1.523   6.179
 5543TIP3    H216573   2.965   1.644   6.116
 5544TIP3   OH216574   7.914   3.700   1.589
 5544TIP3    H116575   7.909   3.610   1.623
 5544TIP3    H216576   7.858   3.751   1.648
 5545TIP3   OH216577   1.730   3.599   2.558
 5545TIP3    H116578   1.785   3.612   2.635
 5545TIP3    H216579   1.762   3.518   2.518
 5546TIP3   OH216580   2.822   3.743   1.193
 5546TIP3    H116581   2.805   3.761   1.285
 5546TIP3    H216582   2.869   3.660   1.192
 5547TIP3   OH216583   1.539   2.973   6.652
 5547TIP3    H116584   1.620   2.931   6.624
 5547TIP3    H216585   1.482   2.969   6.575
 5548TIP3   OH216586   7.635   2.343   6.670
 5548TIP3    H116587   7.647   2.257   6.711
 5548TIP3    H216588   7.667   2.405   6.736
 5549TIP3   OH216589   6.355   5.592   2.715
 5549TIP3    H116590   6.380   5.684   2.715
 5549TIP3    H216591   6.344   5.569   2.807
 5550TIP3   OH216592   3.877   1.039   2.583
 5550TIP3    H116593   3.942   1.056   2.651
 5550TIP3    H216594   3.838   0.955   2.607
 5551TIP3   OH216595   3.210   6.570   6.079
 5551TIP3    H116596   3.250   6.635   6.021
 5551TIP3    H216597   3.245   6.591   6.166
 5552TIP3   OH216598   5.682   0.158   6.211
 5552TIP3    H116599   5.669   0.113   6.128
 5552TIP3    H216600   5.606   0.134   6.264
 5553TIP3   OH216601   6.682   1.929   5.067
 5553TIP3    H116602   6.666   1.878   4.987
 5553TIP3    H216603   6.595   1.939   5.107
 5554TIP3   OH216604   7.235   1.322   5.676
 5554TIP3    H116605   7.196   1.329   5.763
 5554TIP3    H216606   7.205   1.238   5.642
 5555TIP3   OH216607   0.179   5.562   0.629
 5555TIP3    H116608   0.272   5.582   0.637
 5555TIP3    H216609   0.158   5.583   0.538
 5556TIP3   OH216610   7.266   2.609   0.630
 5556TIP3    H116611   7.279   2.630   0.537
 5556TIP3    H216612   7.282   2.515   0.635
 5557TIP3   OH216613   5.316   7.301   4.623
 5557TIP3    H116614   5.237   7.337   4.663
 5557TIP3    H216615   5.380   7.372   4.627
 5558TIP3   OH216616   6.894   5.944   2.098
 5558TIP3    H116617   6.820   5.917   2.152
 5558TIP3    H216618   6.859   5.949   2.009
 5559TIP3   OH216619   5.794   4.405   1.698
 5559TIP3    H116620   5.851   4.330   1.718
 5559TIP3    H216621   5.847   4.461   1.641
 5560TIP3   OH216622   3.705   6.719   3.098
 5560TIP3    H116623   3.639   6.689   3.035
 5560TIP3    H216624   3.784   6.669   3.075
 5561TIP3   OH216625   5.351   5.390   6.105
 5561TIP3    H116626   5.412   5.463   6.112
 5561TIP3    H216627   5.407   5.313   6.097
 5562TIP3   OH216628   0.348   2.747   0.520
 5562TIP3    H116629   0.339   2.822   0.461
 5562TIP3    H216630   0.263   2.704   0.517
 5563TIP3   OH216631   0.588   4.059   3.556
 5563TIP3    H116632   0.641   3.997   3.605
 5563TIP3    H216633   0.600   4.143   3.600
 5564TIP3   OH216634   0.390   0.944   4.377
 5564TIP3    H116635   0.402   0.855   4.345
 5564TIP3    H216636   0.388   0.935   4.472
 5565TIP3   OH216637   7.345   4.450   6.395
 5565TIP3    H116638   7.394   4.506   6.456
 5565TIP3    H216639   7.407   4.381   6.372
 5566TIP3   OH216640   8.140   6.333   1.933
 5566TIP3    H116641   8.081   6.402   1.905
 5566TIP3    H216642   8.142   6.271   1.859
 5567TIP3   OH216643   4.449   6.267   2.122
 5567TIP3    H116644   4.512   6.316   2.069
 5567TIP3    H216645   4.502   6.214   2.181
 5568TIP3   OH216646   7.659   3.973   5.728
 5568TIP3    H116647   7.664   4.062   5.693
 5568TIP3    H216648   7.702   3.919   5.662
 5569TIP3   OH216649   6.819   3.143   0.159
 5569TIP3    H116650   6.727   3.158   0.138
 5569TIP3    H216651   6.866   3.176   0.083
 5570TIP3   OH216652   7.900   3.780   3.925
 5570TIP3    H116653   7.884   3.865   3.885
 5570TIP3    H216654   7.968   3.797   3.991
 5571TIP3   OH216655   2.535   0.813   3.327
 5571TIP3    H116656   2.497   0.885   3.276
 5571TIP3    H216657   2.581   0.759   3.263
 5572TIP3   OH216658   5.332   0.936   1.667
 5572TIP3    H116659   5.306   0.906   1.579
 5572TIP3    H216660   5.268   1.003   1.689
 5573TIP3   OH216661   3.897   1.235   1.472
 5573TIP3    H116662   3.868   1.252   1.561
 5573TIP3    H216663   3.818   1.245   1.419
 5574TIP3   OH216664   1.657   7.772   0.922
 5574TIP3    H116665   1.605   7.785   0.842
 5574TIP3    H216666   1.746   7.798   0.898
 5575TIP3   OH216667   4.045   1.807   1.819
 5575TIP3    H116668   3.968   1.779   1.868
 5575TIP3    H216669   4.019   1.888   1.776
 5576TIP3   OH216670   6.284   5.350   4.311
 5576TIP3    H116671   6.237   5.357   4.228
 5576TIP3    H216672   6.276   5.438   4.350
 5577TIP3   OH216673   7.745   3.799   1.127
 5577TIP3    H116674   7.797   3.735   1.176
 5577TIP3    H216675   7.804   3.829   1.057
 5578TIP3   OH216676   3.396   7.409   4.635
 5578TIP3    H116677   3.322   7.453   4.675
 5578TIP3    H216678   3.466   7.474   4.637
 5579TIP3   OH216679   3.239   4.973   4.802
 5579TIP3    H116680   3.235   4.987   4.897
 5579TIP3    H216681   3.148   4.965   4.775
 5580TIP3   OH216682   1.740   1.354   3.303
 5580TIP3    H116683   1.813   1.391   3.353
 5580TIP3    H216684   1.692   1.300   3.366
 5581TIP3   OH216685   3.499   7.451   2.463
 5581TIP3    H116686   3.585   7.410   2.474
 5581TIP3    H216687   3.441   7.403   2.522
 5582TIP3   OH216688   0.234   7.631   0.756
 5582TIP3    H116689   0.144   7.656   0.737
 5582TIP3    H216690   0.276   7.622   0.670
 5583TIP3   OH216691   3.046   1.273   4.403
 5583TIP3    H116692   3.141   1.276   4.393
 5583TIP3    H216693   3.015   1.230   4.323
 5584TIP3   OH216694   2.145   3.421   3.531
 5584TIP3    H116695   2.085   3.394   3.602
 5584TIP3    H216696   2.204   3.484   3.573
 5585TIP3   OH216697   3.421   5.919   2.397
 5585TIP3    H116698   3.382   5.921   2.485
 5585TIP3    H216699   3.453   5.829   2.388
 5586TIP3   OH216700   3.973   7.057   4.403
 5586TIP3    H116701   3.980   7.100   4.488
 5586TIP3    H216702   4.058   7.015   4.390
 5587TIP3   OH216703   6.370   5.933   4.287
 5587TIP3    H116704   6.419   5.889   4.218
 5587TIP3    H216705   6.312   5.994   4.241
 5588TIP3   OH216706   3.570   3.897   0.486
 5588TIP3    H116707   3.485   3.855   0.495
 5588TIP3    H216708   3.559   3.956   0.411
 5589TIP3   OH216709   6.631   2.574   5.241
 5589TIP3    H116710   6.559   2.563   5.302
 5589TIP3    H216711   6.661   2.664   5.254
 5590TIP3   OH216712   3.234   4.779   2.087
 5590TIP3    H116713   3.261   4.869   2.104
 5590TIP3    H216714   3.228   4.740   2.174
 5591TIP3   OH216715   5.669   3.072   1.391
 5591TIP3    H116716   5.714   3.062   1.308
 5591TIP3    H216717   5.720   3.019   1.453
 5592TIP3   OH216718   0.382   5.859   2.082
 5592TIP3    H116719   0.373   5.951   2.108
 5592TIP3    H216720   0.351   5.857   1.991
 5593TIP3   OH216721   6.611   1.460   6.541
 5593TIP3    H116722   6.593   1.539   6.491
 5593TIP3    H216723   6.533   1.405   6.528
 5594TIP3   OH216724   6.928   1.296   2.690
 5594TIP3    H116725   6.910   1.201   2.690
 5594TIP3    H216726   7.022   1.303   2.678
 5595TIP3   OH216727   8.079   1.837   5.780
 5595TIP3    H116728   8.077   1.812   5.688
 5595TIP3    H216729   8.144   1.907   5.785
 5596TIP3   OH216730   6.785   0.390   2.164
 5596TIP3    H116731   6.737   0.459   2.118
 5596TIP3    H216732   6.737   0.310   2.144
 5597TIP3   OH216733   5.981   4.821   0.304
 5597TIP3    H116734   5.951   4.899   0.351
 5597TIP3    H216735   5.901   4.779   0.274
 5598TIP3   OH216736   3.590   3.609   5.340
 5598TIP3    H116737   3.504   3.650   5.333
 5598TIP3    H216738   3.635   3.659   5.407
 5599TIP3   OH216739   4.254   4.712   3.867
 5599TIP3    H116740   4.193   4.777   3.902
 5599TIP3    H216741   4.236   4.633   3.917
 5600TIP3   OH216742   4.661   3.967   5.077
 5600TIP3    H116743   4.608   4.040   5.111
 5600TIP3    H216744   4.629   3.955   4.987
 5601TIP3   OH216745   4.090   0.719   3.955
 5601TIP3    H116746   4.141   0.723   4.036
 5601TIP3    H216747   4.151   0.683   3.890
 5602TIP3   OH216748   2.035   2.459   2.192
 5602TIP3    H116749   2.122   2.498   2.193
 5602TIP3    H216750   1.981   2.522   2.144
 5603TIP3   OH216751   0.709   7.331   5.222
 5603TIP3    H116752   0.686   7.416   5.184
 5603TIP3    H216753   0.689   7.267   5.154
 5604TIP3   OH216754   4.642   1.717   2.278
 5604TIP3    H116755   4.616   1.677   2.361
 5604TIP3    H216756   4.655   1.810   2.299
 5605TIP3   OH216757   6.299   1.998   3.293
 5605TIP3    H116758   6.290   2.007   3.387
 5605TIP3    H216759   6.232   1.934   3.268
 5606TIP3   OH216760   6.212   2.636   1.804
 5606TIP3    H116761   6.203   2.714   1.858
 5606TIP3    H216762   6.126   2.595   1.806
 5607TIP3   OH216763   0.789   2.402   2.030
 5607TIP3    H116764   0.817   2.389   1.939
 5607TIP3    H216765   0.710   2.349   2.038
 5608TIP3   OH216766   2.755   1.448   0.682
 5608TIP3    H116767   2.672   1.443   0.729
 5608TIP3    H216768   2.791   1.360   0.689
 5609TIP3   OH216769   4.479   7.077   4.143
 5609TIP3    H116770   4.412   7.010   4.132
 5609TIP3    H216771   4.526   7.077   4.060
 5610TIP3   OH216772   1.603   4.081   0.466
 5610TIP3    H116773   1.601   4.164   0.513
 5610TIP3    H216774   1.645   4.020   0.526
 5611TIP3   OH216775   0.046   0.585   3.510
 5611TIP3    H116776   0.134   0.578   3.547
 5611TIP3    H216777   0.022   0.495   3.488
 5612TIP3   OH216778   8.167   1.126   1.038
 5612TIP3    H116779   8.163   1.094   1.127
 5612TIP3    H216780   8.078   1.117   1.004
 5613TIP3   OH216781   4.631   2.582   0.243
 5613TIP3    H116782   4.575   2.627   0.308
 5613TIP3    H216783   4.654   2.499   0.285
 5614TIP3   OH216784   5.058   5.770   1.422
 5614TIP3    H116785   5.088   5.728   1.341
 5614TIP3    H216786   4.963   5.766   1.417
 5615TIP3   OH216787   7.753   1.696   0.858
 5615TIP3    H116788   7.680   1.716   0.800
 5615TIP3    H216789   7.721   1.626   0.914
 5616TIP3   OH216790   7.726   1.765   0.253
 5616TIP3    H116791   7.662   1.693   0.248
 5616TIP3    H216792   7.798   1.729   0.305
 5617TIP3   OH216793   0.482   1.445   3.876
 5617TIP3    H116794   0.498   1.509   3.945
 5617TIP3    H216795   0.541   1.471   3.805
 5618TIP3   OH216796   7.829   7.308   1.663
 5618TIP3    H116797   7.900   7.297   1.601
 5618TIP3    H216798   7.801   7.399   1.651
 5619TIP3   OH216799   0.940   1.190   4.257
 5619TIP3    H116800   0.901   1.164   4.173
 5619TIP3    H216801   1.031   1.161   4.250
 5620TIP3   OH216802   5.112   5.262   3.861
 5620TIP3    H116803   5.033   5.307   3.892
 5620TIP3    H216804   5.133   5.305   3.778
 5621TIP3   OH216805   6.915   1.476   4.424
 5621TIP3    H116806   6.963   1.394   4.420
 5621TIP3    H216807   6.966   1.531   4.484
 5622TIP3   OH216808   4.328   7.044   2.051
 5622TIP3    H116809   4.233   7.047   2.049
 5622TIP3    H216810   4.354   7.112   2.112
 5623TIP3   OH216811   0.234   3.121   5.708
 5623TIP3    H116812   0.189   3.153   5.786
 5623TIP3    H216813   0.321   3.098   5.738
 5624TIP3   OH216814   6.929   4.593   2.797
 5624TIP3    H116815   6.850   4.541   2.809
 5624TIP3    H216816   6.907   4.653   2.726
 5625TIP3   OH216817   3.154   0.856   1.245
 5625TIP3    H116818   3.219   0.792   1.214
 5625TIP3    H216819   3.070   0.816   1.226
 5626TIP3   OH216820   4.022   3.972   0.628
 5626TIP3    H116821   4.106   3.933   0.649
 5626TIP3    H216822   3.974   3.975   0.711
 5627TIP3   OH216823   4.090   3.187   0.076
 5627TIP3    H116824   4.055   3.214  -0.008
 5627TIP3    H216825   4.132   3.103   0.059
 5628TIP3   OH216826   7.235   1.271   1.390
 5628TIP3    H116827   7.326   1.266   1.361
 5628TIP3    H216828   7.185   1.234   1.317
 5629TIP3   OH216829   1.049   6.361   2.298
 5629TIP3    H116830   1.139   6.341   2.324
 5629TIP3    H216831   1.038   6.453   2.322
 5630TIP3   OH216832   0.979   3.906   3.550
 5630TIP3    H116833   0.937   3.826   3.519
 5630TIP3    H216834   1.054   3.917   3.492
 5631TIP3   OH216835   7.845   4.269   3.871
 5631TIP3    H116836   7.812   4.338   3.813
 5631TIP3    H216837   7.792   4.277   3.950
 5632TIP3   OH216838   1.168   3.956   0.868
 5632TIP3    H116839   1.131   3.994   0.948
 5632TIP3    H216840   1.125   3.870   0.861
 5633TIP3   OH216841   7.120   2.810   5.303
 5633TIP3    H116842   7.045   2.769   5.347
 5633TIP3    H216843   7.160   2.738   5.254
 5634TIP3   OH216844   0.987   3.240   0.448
 5634TIP3    H116845   1.009   3.163   0.500
 5634TIP3    H216846   0.926   3.208   0.382
 5635TIP3   OH216847   5.784   1.661   3.575
 5635TIP3    H116848   5.763   1.614   3.656
 5635TIP3    H216849   5.834   1.738   3.604
 5636TIP3   OH216850   2.866   1.212   3.817
 5636TIP3    H116851   2.782   1.246   3.850
 5636TIP3    H216852   2.885   1.138   3.874
 5637TIP3   OH216853   3.991   5.887   3.724
 5637TIP3    H116854   4.023   5.797   3.735
 5637TIP3    H216855   3.983   5.898   3.629
 5638TIP3   OH216856   1.200   7.584   1.662
 5638TIP3    H116857   1.137   7.532   1.613
 5638TIP3    H216858   1.149   7.659   1.695
 5639TIP3   OH216859   7.192   4.266   0.016
 5639TIP3    H116860   7.241   4.293   0.094
 5639TIP3    H216861   7.144   4.188   0.044
 5640TIP3   OH216862   0.647   4.458   1.083
 5640TIP3    H116863   0.672   4.494   1.168
 5640TIP3    H216864   0.699   4.378   1.075
 5641TIP3   OH216865   2.595   7.028   0.284
 5641TIP3    H116866   2.688   7.049   0.275
 5641TIP3    H216867   2.587   6.936   0.258
 5642TIP3   OH216868   4.956   6.300   0.444
 5642TIP3    H116869   5.040   6.255   0.455
 5642TIP3    H216870   4.935   6.334   0.532
 5643TIP3   OH216871   3.545   7.534   3.667
 5643TIP3    H116872   3.491   7.585   3.607
 5643TIP3    H216873   3.539   7.444   3.634
 5644TIP3   OH216874   7.742   7.780   0.403
 5644TIP3    H116875   7.668   7.747   0.352
 5644TIP3    H216876   7.717   7.767   0.494
 5645TIP3   OH216877   6.538   7.412   3.354
 5645TIP3    H116878   6.572   7.368   3.276
 5645TIP3    H216879   6.444   7.394   3.352
 5646TIP3   OH216880   3.936   5.270   4.457
 5646TIP3    H116881   4.020   5.249   4.417
 5646TIP3    H216882   3.871   5.230   4.400
 5647TIP3   OH216883   0.993   6.697   2.979
 5647TIP3    H116884   0.946   6.677   3.060
 5647TIP3    H216885   1.085   6.677   2.999
 5648TIP3   OH216886   7.882   4.686   6.344
 5648TIP3    H116887   7.973   4.715   6.354
 5648TIP3    H216888   7.831   4.743   6.401
 5649TIP3   OH216889   5.177   7.152   2.787
 5649TIP3    H116890   5.107   7.089   2.769
 5649TIP3    H216891   5.234   7.146   2.711
 5650TIP3   OH216892   3.160   1.405   1.692
 5650TIP3    H116893   3.081   1.395   1.745
 5650TIP3    H216894   3.231   1.413   1.756
 5651TIP3   OH216895   2.635   7.182   5.557
 5651TIP3    H116896   2.571   7.152   5.622
 5651TIP3    H216897   2.659   7.103   5.508
 5652TIP3   OH216898   4.805   0.417   4.661
 5652TIP3    H116899   4.737   0.351   4.676
 5652TIP3    H216900   4.877   0.390   4.718
 5653TIP3   OH216901   6.428   4.561   6.462
 5653TIP3    H116902   6.510   4.602   6.490
 5653TIP3    H216903   6.455   4.482   6.414
 5654TIP3   OH216904   2.126   4.663   2.575
 5654TIP3    H116905   2.059   4.654   2.643
 5654TIP3    H216906   2.204   4.691   2.623
 5655TIP3   OH216907   0.211   2.038   1.743
 5655TIP3    H116908   0.278   1.998   1.689
 5655TIP3    H216909   0.189   2.120   1.699
 5656TIP3   OH216910   6.685   2.833   3.218
 5656TIP3    H116911   6.625   2.862   3.149
 5656TIP3    H216912   6.696   2.910   3.274
 5657TIP3   OH216913   2.502   6.300   5.325
 5657TIP3    H116914   2.569   6.368   5.324
 5657TIP3    H216915   2.525   6.244   5.251
 5658TIP3   OH216916   0.272   3.680   0.050
 5658TIP3    H116917   0.182   3.652   0.033
 5658TIP3    H216918   0.271   3.706   0.142
 5659TIP3   OH216919   3.481   2.918   2.669
 5659TIP3    H116920   3.522   3.000   2.640
 5659TIP3    H216921   3.546   2.851   2.652
 5660TIP3   OH216922  -0.016   4.956   4.821
 5660TIP3    H116923  -0.003   4.861   4.824
 5660TIP3    H216924   0.002   4.980   4.730
 5661TIP3   OH216925   6.864   4.029   3.871
 5661TIP3    H116926   6.870   3.956   3.809
 5661TIP3    H216927   6.902   4.103   3.824
 5662TIP3   OH216928   0.157   4.023   0.065
 5662TIP3    H116929   0.140   3.989  -0.023
 5662TIP3    H216930   0.252   4.027   0.072
 5663TIP3   OH216931   5.094   0.715   3.709
 5663TIP3    H116932   5.178   0.668   3.711
 5663TIP3    H216933   5.117   0.805   3.686
 5664TIP3   OH216934   2.872   5.325   5.679
 5664TIP3    H116935   2.796   5.383   5.687
 5664TIP3    H216936   2.904   5.316   5.768
 5665TIP3   OH216937   6.135   3.823   5.427
 5665TIP3    H116938   6.224   3.800   5.401
 5665TIP3    H216939   6.082   3.804   5.349
 5666TIP3   OH216940   4.885   1.510   2.187
 5666TIP3    H116941   4.908   1.419   2.204
 5666TIP3    H216942   4.968   1.553   2.168
 5667TIP3   OH216943   0.228   3.925   5.301
 5667TIP3    H116944   0.193   4.013   5.315
 5667TIP3    H216945   0.301   3.918   5.363
 5668TIP3   OH216946   7.636   4.614   1.355
 5668TIP3    H116947   7.672   4.647   1.273
 5668TIP3    H216948   7.694   4.542   1.380
 5669TIP3   OH216949   1.872   6.046   6.282
 5669TIP3    H116950   1.780   6.025   6.264
 5669TIP3    H216951   1.918   6.025   6.201
 5670TIP3   OH216952   7.246   2.834   1.383
 5670TIP3    H116953   7.254   2.762   1.321
 5670TIP3    H216954   7.152   2.841   1.400
 5671TIP3   OH216955   2.809   4.975   4.991
 5671TIP3    H116956   2.838   5.029   5.064
 5671TIP3    H216957   2.886   4.923   4.967
 5672TIP3   OH216958   5.990   6.112   5.683
 5672TIP3    H116959   6.050   6.181   5.655
 5672TIP3    H216960   6.002   6.043   5.618
 5673TIP3   OH216961   2.101   0.851   1.767
 5673TIP3    H116962   2.016   0.853   1.723
 5673TIP3    H216963   2.165   0.847   1.696
 5674TIP3   OH216964   3.834   4.714   2.259
 5674TIP3    H116965   3.742   4.738   2.249
 5674TIP3    H216966   3.878   4.796   2.280
 5675TIP3   OH216967   5.244   6.525   0.486
 5675TIP3    H116968   5.284   6.612   0.477
 5675TIP3    H216969   5.213   6.522   0.576
 5676TIP3   OH216970   0.345   4.151   2.503
 5676TIP3    H116971   0.390   4.136   2.586
 5676TIP3    H216972   0.415   4.149   2.438
 5677TIP3   OH216973   3.429   1.794   1.641
 5677TIP3    H116974   3.489   1.774   1.569
 5677TIP3    H216975   3.380   1.870   1.610
 5678TIP3   OH216976   4.883   2.853   2.280
 5678TIP3    H116977   4.894   2.818   2.192
 5678TIP3    H216978   4.954   2.815   2.331
 5679TIP3   OH216979   4.226   7.163   5.486
 5679TIP3    H116980   4.167   7.133   5.417
 5679TIP3    H216981   4.230   7.258   5.475
 5680TIP3   OH216982   3.615   1.576   5.124
 5680TIP3    H116983   3.683   1.633   5.160
 5680TIP3    H216984   3.631   1.575   5.029
 5681TIP3   OH216985   7.586   4.620   3.067
 5681TIP3    H116986   7.674   4.602   3.034
 5681TIP3    H216987   7.594   4.615   3.162
 5682TIP3   OH216988   7.243   0.608   0.724
 5682TIP3    H116989   7.298   0.674   0.766
 5682TIP3    H216990   7.224   0.545   0.794
 5683TIP3   OH216991   8.147   6.390   5.143
 5683TIP3    H116992   8.060   6.421   5.171
 5683TIP3    H216993   8.200   6.469   5.139
 5684TIP3   OH216994   2.587   2.640   6.327
 5684TIP3    H116995   2.673   2.601   6.311
 5684TIP3    H216996   2.527   2.589   6.272
 5685TIP3   OH216997   2.356   6.183   3.170
 5685TIP3    H116998   2.437   6.232   3.186
 5685TIP3    H216999   2.339   6.139   3.254
 5686TIP3   OH217000   0.757   4.428   5.179
 5686TIP3    H117001   0.813   4.402   5.252
 5686TIP3    H217002   0.789   4.514   5.153
 5687TIP3   OH217003   4.984   7.136   0.706
 5687TIP3    H117004   5.026   7.085   0.775
 5687TIP3    H217005   4.909   7.178   0.748
 5688TIP3   OH217006   2.514  -0.003   1.922
 5688TIP3    H117007   2.605  -0.005   1.950
 5688TIP3    H217008   2.464  -0.023   2.001
 5689TIP3   OH217009   6.963   6.971   1.274
 5689TIP3    H117010   6.896   7.009   1.218
 5689TIP3    H217011   6.958   6.877   1.259
 5690TIP3   OH217012   2.297   1.837   3.290
 5690TIP3    H117013   2.261   1.920   3.320
 5690TIP3    H217014   2.331   1.856   3.202
 5691TIP3   OH217015   3.576   0.619   2.754
 5691TIP3    H117016   3.571   0.692   2.692
 5691TIP3    H217017   3.670   0.601   2.761
 5692TIP3   OH217018   0.075   0.877   0.403
 5692TIP3    H117019   0.167   0.891   0.380
 5692TIP3    H217020   0.036   0.964   0.396
 5693TIP3   OH217021   0.747   5.793   6.356
 5693TIP3    H117022   0.691   5.770   6.430
 5693TIP3    H217023   0.704   5.752   6.280
 5694TIP3   OH217024   7.248   4.915   5.128
 5694TIP3    H117025   7.342   4.900   5.125
 5694TIP3    H217026   7.228   4.961   5.046
 5695TIP3   OH217027   6.000   2.448   1.795
 5695TIP3    H117028   6.031   2.377   1.852
 5695TIP3    H217029   5.993   2.408   1.709
 5696TIP3   OH217030   0.909   3.031   4.241
 5696TIP3    H117031   0.849   3.025   4.315
 5696TIP3    H217032   0.985   3.078   4.275
 5697TIP3   OH217033   0.241   4.846   3.930
 5697TIP3    H117034   0.270   4.936   3.943
 5697TIP3    H217035   0.269   4.824   3.841
 5698TIP3   OH217036   7.164   0.487   0.136
 5698TIP3    H117037   7.086   0.436   0.115
 5698TIP3    H217038   7.191   0.457   0.222
 5699TIP3   OH217039   6.349   0.795   4.484
 5699TIP3    H117040   6.376   0.719   4.432
 5699TIP3    H217041   6.253   0.793   4.482
 5700TIP3   OH217042   5.547   3.562   2.390
 5700TIP3    H117043   5.535   3.482   2.340
 5700TIP3    H217044   5.611   3.613   2.340
 5701TIP3   OH217045   2.821   2.983   3.538
 5701TIP3    H117046   2.780   2.907   3.497
 5701TIP3    H217047   2.914   2.959   3.546
 5702TIP3   OH217048   5.563   1.399   1.537
 5702TIP3    H117049   5.571   1.415   1.443
 5702TIP3    H217050   5.481   1.352   1.547
 5703TIP3   OH217051   8.057   3.894   0.526
 5703TIP3    H117052   8.080   3.926   0.613
 5703TIP3    H217053   8.024   3.805   0.542
 5704TIP3   OH217054   5.411   0.070   6.264
 5704TIP3    H117055   5.324   0.046   6.231
 5704TIP3    H217056   5.398   0.155   6.307
 5705TIP3   OH217057   2.011   6.018   6.034
 5705TIP3    H117058   2.091   5.978   6.070
 5705TIP3    H217059   2.042   6.088   5.977
 5706TIP3   OH217060   7.136   4.287   1.334
 5706TIP3    H117061   7.132   4.207   1.282
 5706TIP3    H217062   7.097   4.354   1.277
 5707TIP3   OH217063   5.774   4.564   3.910
 5707TIP3    H117064   5.695   4.557   3.963
 5707TIP3    H217065   5.845   4.574   3.974
 5708TIP3   OH217066   3.393   5.160   3.505
 5708TIP3    H117067   3.368   5.209   3.583
 5708TIP3    H217068   3.462   5.214   3.465
 5709TIP3   OH217069   7.084   3.264   5.912
 5709TIP3    H117070   7.100   3.350   5.951
 5709TIP3    H217071   6.990   3.250   5.922
 5710TIP3   OH217072   7.917   3.504   0.843
 5710TIP3    H117073   7.941   3.590   0.877
 5710TIP3    H217074   7.865   3.522   0.764
 5711TIP3   OH217075   5.135   2.529   1.796
 5711TIP3    H117076   5.049   2.490   1.812
 5711TIP3    H217077   5.162   2.494   1.711
 5712TIP3   OH217078   2.702   4.589   1.186
 5712TIP3    H117079   2.687   4.675   1.225
 5712TIP3    H217080   2.690   4.527   1.258
 5713TIP3   OH217081   7.644   4.993   0.118
 5713TIP3    H117082   7.691   5.011   0.037
 5713TIP3    H217083   7.693   4.922   0.159
 5714TIP3   OH217084   8.065   5.595   6.414
 5714TIP3    H117085   8.111   5.523   6.370
 5714TIP3    H217086   8.022   5.554   6.489
 5715TIP3   OH217087   5.761   2.790   3.793
 5715TIP3    H117088   5.833   2.834   3.838
 5715TIP3    H217089   5.747   2.841   3.714
 5716TIP3   OH217090   0.040   4.761   0.304
 5716TIP3    H117091   0.116   4.748   0.248
 5716TIP3    H217092  -0.008   4.834   0.263
 5717TIP3   OH217093   1.268   7.532   2.563
 5717TIP3    H117094   1.203   7.600   2.549
 5717TIP3    H217095   1.341   7.556   2.505
 5718TIP3   OH217096   8.168   4.663   4.236
 5718TIP3    H117097   8.084   4.703   4.260
 5718TIP3    H217098   8.148   4.607   4.161
 5719TIP3   OH217099   2.207   3.479   2.044
 5719TIP3    H117100   2.224   3.441   2.130
 5719TIP3    H217101   2.286   3.461   1.994
 5720TIP3   OH217102   6.025   0.588   2.677
 5720TIP3    H117103   5.931   0.573   2.685
 5720TIP3    H217104   6.033   0.677   2.644
 5721TIP3   OH217105   1.327   6.862   5.855
 5721TIP3    H117106   1.343   6.799   5.926
 5721TIP3    H217107   1.353   6.946   5.892
 5722TIP3   OH217108   6.216   5.930   1.429
 5722TIP3    H117109   6.190   5.838   1.423
 5722TIP3    H217110   6.138   5.979   1.401
 5723TIP3   OH217111  -0.027   7.142   1.523
 5723TIP3    H117112   0.048   7.111   1.574
 5723TIP3    H217113   0.010   7.201   1.458
 5724TIP3   OH217114   3.122   0.361   0.035
 5724TIP3    H117115   3.107   0.287  -0.025
 5724TIP3    H217116   3.091   0.437  -0.013
 5725TIP3   OH217117   7.690   0.386   3.862
 5725TIP3    H117118   7.650   0.345   3.786
 5725TIP3    H217119   7.725   0.469   3.829
 5726TIP3   OH217120   0.573   6.475   1.171
 5726TIP3    H117121   0.653   6.488   1.120
 5726TIP3    H217122   0.577   6.385   1.201
 5727TIP3   OH217123   4.304   6.553   1.465
 5727TIP3    H117124   4.344   6.589   1.544
 5727TIP3    H217125   4.272   6.630   1.418
 5728TIP3   OH217126   6.432   2.490   2.493
 5728TIP3    H117127   6.491   2.436   2.545
 5728TIP3    H217128   6.407   2.562   2.551
 5729TIP3   OH217129   7.473   3.270   0.861
 5729TIP3    H117130   7.482   3.309   0.774
 5729TIP3    H217131   7.384   3.292   0.888
 5730TIP3   OH217132   5.094   0.076   3.270
 5730TIP3    H117133   5.111   0.075   3.176
 5730TIP3    H217134   5.142   0.001   3.304
 5731TIP3   OH217135   1.856   4.794   0.178
 5731TIP3    H117136   1.845   4.864   0.114
 5731TIP3    H217137   1.948   4.771   0.173
 5732TIP3   OH217138   7.893   1.223   1.449
 5732TIP3    H117139   7.825   1.248   1.512
 5732TIP3    H217140   7.975   1.241   1.494
 5733TIP3   OH217141   7.564   2.910   5.450
 5733TIP3    H117142   7.641   2.875   5.405
 5733TIP3    H217143   7.598   2.980   5.505
 5734TIP3   OH217144   3.773   2.819   3.633
 5734TIP3    H117145   3.784   2.913   3.641
 5734TIP3    H217146   3.680   2.807   3.611
 5735TIP3   OH217147   0.794   1.624   5.768
 5735TIP3    H117148   0.740   1.658   5.696
 5735TIP3    H217149   0.884   1.639   5.740
 5736TIP3   OH217150   5.602   2.408   1.740
 5736TIP3    H117151   5.628   2.360   1.661
 5736TIP3    H217152   5.655   2.369   1.810
 5737TIP3   OH217153   4.644   6.601   1.606
 5737TIP3    H117154   4.550   6.598   1.620
 5737TIP3    H217155   4.679   6.646   1.682
 5738TIP3   OH217156   3.125   2.368   4.189
 5738TIP3    H117157   3.202   2.412   4.155
 5738TIP3    H217158   3.159   2.312   4.260
 5739TIP3   OH217159   5.027   4.092   4.135
 5739TIP3    H117160   4.946   4.102   4.185
 5739TIP3    H217161   5.006   4.025   4.069
 5740TIP3   OH217162   5.340   6.750   5.512
 5740TIP3    H117163   5.412   6.705   5.467
 5740TIP3    H217164   5.368   6.754   5.603
 5741TIP3   OH217165   7.860   1.527   4.050
 5741TIP3    H117166   7.826   1.444   4.016
 5741TIP3    H217167   7.833   1.528   4.142
 5742TIP3   OH217168   5.254   0.415   1.501
 5742TIP3    H117169   5.186   0.376   1.556
 5742TIP3    H217170   5.266   0.503   1.537
 5743TIP3   OH217171   1.127   4.049   6.252
 5743TIP3    H117172   1.220   4.070   6.253
 5743TIP3    H217173   1.121   3.969   6.199
 5744TIP3   OH217174   6.060   5.065   4.341
 5744TIP3    H117175   6.062   5.150   4.296
 5744TIP3    H217176   5.979   5.024   4.311
 5745TIP3   OH217177   5.510   6.770   0.118
 5745TIP3    H117178   5.536   6.684   0.151
 5745TIP3    H217179   5.449   6.803   0.184
 5746TIP3   OH217180   5.907   0.287   5.471
 5746TIP3    H117181   5.927   0.376   5.500
 5746TIP3    H217182   5.990   0.254   5.436
 5747TIP3   OH217183   7.778   1.203   6.776
 5747TIP3    H117184   7.849   1.229   6.834
 5747TIP3    H217185   7.818   1.196   6.690
 5748TIP3   OH217186   5.729   2.182   5.800
 5748TIP3    H117187   5.802   2.178   5.862
 5748TIP3    H217188   5.740   2.104   5.745
 5749TIP3   OH217189   2.278   6.277   6.591
 5749TIP3    H117190   2.209   6.271   6.524
 5749TIP3    H217191   2.238   6.328   6.661
 5750TIP3   OH217192   1.632   2.744   1.276
 5750TIP3    H117193   1.592   2.682   1.216
 5750TIP3    H217194   1.560   2.773   1.333
 5751TIP3   OH217195   1.031   4.705   6.551
 5751TIP3    H117196   1.064   4.667   6.632
 5751TIP3    H217197   0.942   4.672   6.543
 5752TIP3   OH217198   0.614   4.924   6.435
 5752TIP3    H117199   0.681   4.921   6.367
 5752TIP3    H217200   0.664   4.931   6.517
 5753TIP3   OH217201   6.731   5.995   6.283
 5753TIP3    H117202   6.719   5.904   6.307
 5753TIP3    H217203   6.706   6.045   6.360
 5754TIP3   OH217204   2.043   3.109   1.437
 5754TIP3    H117205   1.971   3.055   1.469
 5754TIP3    H217206   2.122   3.063   1.466
 5755TIP3   OH217207   8.319   0.061   5.536
 5755TIP3    H117208   8.338   0.008   5.614
 5755TIP3    H217209   8.246   0.117   5.563
 5756TIP3   OH217210   4.062   1.648   5.254
 5756TIP3    H117211   4.059   1.577   5.319
 5756TIP3    H217212   3.982   1.637   5.204
 5757TIP3   OH217213   5.475   7.472   2.890
 5757TIP3    H117214   5.536   7.520   2.835
 5757TIP3    H217215   5.505   7.381   2.887
 5758TIP3   OH217216   4.125   6.661   2.123
 5758TIP3    H117217   4.211   6.635   2.157
 5758TIP3    H217218   4.144   6.701   2.038
 5759TIP3   OH217219   6.780   6.100   0.980
 5759TIP3    H117220   6.734   6.115   0.897
 5759TIP3    H217221   6.711   6.095   1.046
 5760TIP3   OH217222   4.144   5.093   6.598
 5760TIP3    H117223   4.184   5.008   6.578
 5760TIP3    H217224   4.050   5.074   6.605
 5761TIP3   OH217225   7.775   5.684   2.000
 5761TIP3    H117226   7.795   5.609   2.055
 5761TIP3    H217227   7.801   5.760   2.052
 5762TIP3   OH217228   6.090   2.169   6.522
 5762TIP3    H117229   6.067   2.246   6.469
 5762TIP3    H217230   6.091   2.096   6.460
 5763TIP3   OH217231   1.194   0.486   4.149
 5763TIP3    H117232   1.116   0.540   4.134
 5763TIP3    H217233   1.251   0.505   4.074
 5764TIP3   OH217234   3.919   6.124   4.100
 5764TIP3    H117235   3.881   6.037   4.104
 5764TIP3    H217236   3.997   6.114   4.045
 5765TIP3   OH217237   4.610   1.633   3.041
 5765TIP3    H117238   4.540   1.652   3.104
 5765TIP3    H217239   4.647   1.718   3.019
 5766TIP3   OH217240   4.648   3.974   6.320
 5766TIP3    H117241   4.596   3.985   6.241
 5766TIP3    H217242   4.690   4.059   6.333
 5767TIP3   OH217243   3.831   7.360   1.017
 5767TIP3    H117244   3.866   7.443   0.984
 5767TIP3    H217245   3.821   7.374   1.111
 5768TIP3   OH217246   0.340   2.895   6.615
 5768TIP3    H117247   0.285   2.930   6.546
 5768TIP3    H217248   0.317   2.802   6.620
 5769TIP3   OH217249   3.029   5.362   3.358
 5769TIP3    H117250   3.030   5.405   3.272
 5769TIP3    H217251   2.937   5.354   3.380
 5770TIP3   OH217252   2.731   3.923   2.793
 5770TIP3    H117253   2.675   3.869   2.737
 5770TIP3    H217254   2.723   4.011   2.756
 5771TIP3   OH217255   3.569   2.418   3.346
 5771TIP3    H117256   3.536   2.454   3.429
 5771TIP3    H217257   3.491   2.411   3.291
 5772TIP3   OH217258   3.481   1.327   1.690
 5772TIP3    H117259   3.467   1.393   1.758
 5772TIP3    H217260   3.574   1.333   1.670
 5773TIP3   OH217261   4.689   4.335   4.016
 5773TIP3    H117262   4.694   4.430   4.016
 5773TIP3    H217263   4.633   4.314   3.941
 5774TIP3   OH217264   4.568   0.139   0.263
 5774TIP3    H117265   4.656   0.177   0.261
 5774TIP3    H217266   4.564   0.094   0.347
 5775TIP3   OH217267   6.645   2.978   4.069
 5775TIP3    H117268   6.644   3.037   4.145
 5775TIP3    H217269   6.615   2.895   4.104
 5776TIP3   OH217270   1.101   0.971   3.451
 5776TIP3    H117271   1.083   1.008   3.364
 5776TIP3    H217272   1.179   0.918   3.438
 5777TIP3   OH217273   4.287   5.220   5.893
 5777TIP3    H117274   4.261   5.297   5.943
 5777TIP3    H217275   4.273   5.147   5.952
 5778TIP3   OH217276   5.033   1.986   3.761
 5778TIP3    H117277   4.982   1.981   3.841
 5778TIP3    H217278   5.104   1.923   3.772
 5779TIP3   OH217279   7.759   6.260   2.958
 5779TIP3    H117280   7.798   6.330   3.010
 5779TIP3    H217281   7.697   6.218   3.018
 5780TIP3   OH217282   5.412   0.780   1.961
 5780TIP3    H117283   5.479   0.824   2.013
 5780TIP3    H217284   5.433   0.803   1.871
 5781TIP3   OH217285   5.644   5.247   1.994
 5781TIP3    H117286   5.609   5.161   2.015
 5781TIP3    H217287   5.673   5.239   1.903
 5782TIP3   OH217288   4.431   7.202   5.245
 5782TIP3    H117289   4.358   7.260   5.265
 5782TIP3    H217290   4.445   7.152   5.325
 5783TIP3   OH217291   6.943   0.736   3.688
 5783TIP3    H117292   6.909   0.801   3.749
 5783TIP3    H217293   6.869   0.676   3.675
 5784TIP3   OH217294   8.190   6.091   6.637
 5784TIP3    H117295   8.130   6.164   6.651
 5784TIP3    H217296   8.176   6.066   6.546
 5785TIP3   OH217297   4.134   7.666   1.908
 5785TIP3    H117298   4.183   7.733   1.862
 5785TIP3    H217299   4.166   7.583   1.871
 5786TIP3   OH217300   7.079   7.247   6.151
 5786TIP3    H117301   7.168   7.272   6.126
 5786TIP3    H217302   7.040   7.327   6.187
 5787TIP3   OH217303   4.177   7.434   1.690
 5787TIP3    H117304   4.128   7.399   1.616
 5787TIP3    H217305   4.133   7.398   1.767
 5788TIP3   OH217306   4.268   4.800   0.875
 5788TIP3    H117307   4.329   4.729   0.894
 5788TIP3    H217308   4.232   4.825   0.960
 5789TIP3   OH217309   7.967   7.655   2.181
 5789TIP3    H117310   8.016   7.608   2.249
 5789TIP3    H217311   7.982   7.604   2.101
 5790TIP3   OH217312   4.114   1.998   4.569
 5790TIP3    H117313   4.058   1.973   4.643
 5790TIP3    H217314   4.087   2.087   4.547
 5791TIP3   OH217315   7.665   2.898   3.454
 5791TIP3    H117316   7.591   2.900   3.393
 5791TIP3    H217317   7.723   2.968   3.423
 5792TIP3   OH217318   7.733   3.767   0.752
 5792TIP3    H117319   7.805   3.734   0.698
 5792TIP3    H217320   7.656   3.758   0.697
 5793TIP3   OH217321   4.798   3.430   2.898
 5793TIP3    H117322   4.885   3.423   2.860
 5793TIP3    H217323   4.804   3.381   2.980
 5794TIP3   OH217324   1.603   4.991   1.608
 5794TIP3    H117325   1.550   5.006   1.530
 5794TIP3    H217326   1.576   5.061   1.668
 5795TIP3   OH217327   4.572   0.704   4.202
 5795TIP3    H117328   4.587   0.779   4.259
 5795TIP3    H217329   4.622   0.633   4.241
 5796TIP3   OH217330   0.580   6.199   3.889
 5796TIP3    H117331   0.589   6.252   3.968
 5796TIP3    H217332   0.488   6.209   3.864
 5797TIP3   OH217333   3.712   4.507   1.419
 5797TIP3    H117334   3.648   4.479   1.485
 5797TIP3    H217335   3.756   4.582   1.458
 5798TIP3   OH217336   6.050   3.798   4.995
 5798TIP3    H117337   6.057   3.876   5.050
 5798TIP3    H217338   6.133   3.752   5.008
 5799TIP3   OH217339   1.560   0.253   4.080
 5799TIP3    H117340   1.529   0.296   3.999
 5799TIP3    H217341   1.524   0.165   4.074
 5800TIP3   OH217342   1.774   6.054   6.557
 5800TIP3    H117343   1.773   6.072   6.463
 5800TIP3    H217344   1.858   6.012   6.573
 5801TIP3   OH217345   1.137   7.602   4.174
 5801TIP3    H117346   1.123   7.526   4.230
 5801TIP3    H217347   1.196   7.659   4.224
 5802TIP3   OH217348   7.199   7.630   2.005
 5802TIP3    H117349   7.262   7.657   1.939
 5802TIP3    H217350   7.180   7.539   1.985
 5803TIP3   OH217351   5.663   4.052   0.232
 5803TIP3    H117352   5.710   3.970   0.219
 5803TIP3    H217353   5.576   4.025   0.263
 5804TIP3   OH217354   8.176   5.770   3.611
 5804TIP3    H117355   8.110   5.788   3.678
 5804TIP3    H217356   8.153   5.684   3.576
 5805TIP3   OH217357   3.381   3.804   4.330
 5805TIP3    H117358   3.366   3.770   4.241
 5805TIP3    H217359   3.475   3.822   4.334
 5806TIP3   OH217360   7.814   2.066   2.151
 5806TIP3    H117361   7.781   2.156   2.150
 5806TIP3    H217362   7.765   2.023   2.220
 5807TIP3   OH217363   4.858   3.564   4.859
 5807TIP3    H117364   4.806   3.485   4.845
 5807TIP3    H217365   4.816   3.608   4.933
 5808TIP3   OH217366   7.459   4.436   5.786
 5808TIP3    H117367   7.492   4.525   5.801
 5808TIP3    H217368   7.390   4.446   5.721
 5809TIP3   OH217369   1.062   2.879   1.569
 5809TIP3    H117370   0.990   2.872   1.506
 5809TIP3    H217371   1.060   2.797   1.617
 5810TIP3   OH217372   1.084   6.936   3.959
 5810TIP3    H117373   1.121   7.017   3.995
 5810TIP3    H217374   1.142   6.867   3.989
 5811TIP3   OH217375   6.511   5.941   0.555
 5811TIP3    H117376   6.537   6.021   0.508
 5811TIP3    H217377   6.420   5.956   0.578
 5812TIP3   OH217378   3.233   3.421   3.374
 5812TIP3    H117379   3.234   3.505   3.327
 5812TIP3    H217380   3.262   3.443   3.462
 5813TIP3   OH217381   3.491   3.413   3.908
 5813TIP3    H117382   3.525   3.337   3.861
 5813TIP3    H217383   3.526   3.488   3.860
 5814TIP3   OH217384   4.822   7.669   2.058
 5814TIP3    H117385   4.817   7.764   2.062
 5814TIP3    H217386   4.915   7.649   2.070
 5815TIP3   OH217387   3.217   2.044   0.574
 5815TIP3    H117388   3.301   2.017   0.611
 5815TIP3    H217389   3.199   1.980   0.505
 5816TIP3   OH217390   7.506   5.840   1.524
 5816TIP3    H117391   7.587   5.808   1.563
 5816TIP3    H217392   7.534   5.905   1.459
 5817TIP3   OH217393   6.881   6.455   2.569
 5817TIP3    H117394   6.820   6.513   2.615
 5817TIP3    H217395   6.967   6.478   2.604
 5818TIP3   OH217396   5.200   5.677   4.389
 5818TIP3    H117397   5.235   5.589   4.375
 5818TIP3    H217398   5.149   5.696   4.310
 5819TIP3   OH217399   4.436   5.529   6.145
 5819TIP3    H117400   4.444   5.557   6.237
 5819TIP3    H217401   4.383   5.449   6.150
 5820TIP3   OH217402   7.656   7.235   6.127
 5820TIP3    H117403   7.722   7.182   6.081
 5820TIP3    H217404   7.603   7.171   6.174
 5821TIP3   OH217405   2.942   1.295   1.508
 5821TIP3    H117406   2.987   1.260   1.585
 5821TIP3    H217407   2.923   1.386   1.531
 5822TIP3   OH217408   5.239   1.453   5.235
 5822TIP3    H117409   5.186   1.512   5.289
 5822TIP3    H217410   5.300   1.511   5.188
 5823TIP3   OH217411   6.165   5.057   6.343
 5823TIP3    H117412   6.219   4.980   6.359
 5823TIP3    H217413   6.226   5.130   6.342
 5824TIP3   OH217414   7.112   6.612   0.923
 5824TIP3    H117415   7.074   6.543   0.868
 5824TIP3    H217416   7.206   6.599   0.915
 5825TIP3   OH217417   3.688   4.575   0.445
 5825TIP3    H117418   3.747   4.517   0.397
 5825TIP3    H217419   3.727   4.662   0.434
 5826TIP3   OH217420   4.656   5.291   1.877
 5826TIP3    H117421   4.699   5.365   1.835
 5826TIP3    H217422   4.716   5.218   1.864
 5827TIP3   OH217423   7.262   7.024   1.741
 5827TIP3    H117424   7.322   6.950   1.733
 5827TIP3    H217425   7.264   7.066   1.654
 5828TIP3   OH217426   4.615   1.215   1.495
 5828TIP3    H117427   4.664   1.183   1.571
 5828TIP3    H217428   4.666   1.290   1.463
 5829TIP3   OH217429   0.559   2.726   0.688
 5829TIP3    H117430   0.483   2.743   0.632
 5829TIP3    H217431   0.630   2.707   0.627
 5830TIP3   OH217432   0.796   1.378   3.681
 5830TIP3    H117433   0.851   1.358   3.605
 5830TIP3    H217434   0.788   1.473   3.681
 5831TIP3   OH217435   6.373   2.366   3.021
 5831TIP3    H117436   6.370   2.443   3.077
 5831TIP3    H217437   6.283   2.334   3.018
 5832TIP3   OH217438   7.196   4.486   6.145
 5832TIP3    H117439   7.227   4.539   6.072
 5832TIP3    H217440   7.264   4.493   6.211
 5833TIP3   OH217441   5.064   5.839   0.423
 5833TIP3    H117442   5.154   5.830   0.455
 5833TIP3    H217443   5.017   5.766   0.463
 5834TIP3   OH217444   2.975  -0.020   4.957
 5834TIP3    H117445   2.976   0.062   4.907
 5834TIP3    H217446   3.059  -0.021   5.003
 5835TIP3   OH217447   5.772   6.326   5.754
 5835TIP3    H117448   5.740   6.297   5.840
 5835TIP3    H217449   5.746   6.257   5.694
 5836TIP3   OH217450   2.945   5.225   6.746
 5836TIP3    H117451   2.853   5.246   6.727
 5836TIP3    H217452   2.964   5.149   6.691
 5837TIP3   OH217453   5.919   1.342   3.509
 5837TIP3    H117454   5.976   1.414   3.483
 5837TIP3    H217455   5.952   1.315   3.595
 5838TIP3   OH217456   4.851   0.705   1.133
 5838TIP3    H117457   4.908   0.697   1.209
 5838TIP3    H217458   4.766   0.673   1.162
 5839TIP3   OH217459   5.161   6.935   3.700
 5839TIP3    H117460   5.085   6.977   3.661
 5839TIP3    H217461   5.128   6.893   3.779
 5840TIP3   OH217462   4.499   7.436   3.240
 5840TIP3    H117463   4.578   7.384   3.229
 5840TIP3    H217464   4.434   7.392   3.184
 5841TIP3   OH217465   6.372   7.637   0.251
 5841TIP3    H117466   6.413   7.558   0.217
 5841TIP3    H217467   6.440   7.678   0.304
 5842TIP3   OH217468   2.159   2.342   3.486
 5842TIP3    H117469   2.144   2.364   3.394
 5842TIP3    H217470   2.076   2.361   3.530
 5843TIP3   OH217471   3.418   7.031   6.668
 5843TIP3    H117472   3.349   7.097   6.680
 5843TIP3    H217473   3.372   6.956   6.631
 5844TIP3   OH217474   4.675   0.048   0.847
 5844TIP3    H117475   4.672   0.106   0.771
 5844TIP3    H217476   4.764   0.059   0.881
 5845TIP3   OH217477   0.554   1.438   5.461
 5845TIP3    H117478   0.472   1.432   5.509
 5845TIP3    H217479   0.608   1.497   5.514
 5846TIP3   OH217480   4.227   7.434   6.032
 5846TIP3    H117481   4.157   7.391   5.983
 5846TIP3    H217482   4.303   7.377   6.019
 5847TIP3   OH217483   2.152   4.435   6.710
 5847TIP3    H117484   2.089   4.371   6.744
 5847TIP3    H217485   2.219   4.441   6.779
 5848TIP3   OH217486   4.707   3.592   2.514
 5848TIP3    H117487   4.647   3.642   2.459
 5848TIP3    H217488   4.762   3.544   2.453
 5849TIP3   OH217489   8.272   0.922   6.175
 5849TIP3    H117490   8.362   0.914   6.207
 5849TIP3    H217491   8.218   0.922   6.254
 5850TIP3   OH217492   6.349   7.633   5.895
 5850TIP3    H117493   6.312   7.698   5.836
 5850TIP3    H217494   6.430   7.604   5.852
 5851TIP3   OH217495   7.421   0.322   0.621
 5851TIP3    H117496   7.354   0.305   0.688
 5851TIP3    H217497   7.481   0.248   0.629
 5852TIP3   OH217498   5.422   3.996   2.339
 5852TIP3    H117499   5.499   4.047   2.362
 5852TIP3    H217500   5.352   4.030   2.395
 5853TIP3   OH217501   4.020   5.418   0.375
 5853TIP3    H117502   4.075   5.461   0.440
 5853TIP3    H217503   4.026   5.474   0.297
 5854TIP3   OH217504   2.187   5.633   2.152
 5854TIP3    H117505   2.207   5.718   2.191
 5854TIP3    H217506   2.260   5.577   2.178
 5855TIP3   OH217507   3.397   0.725   1.903
 5855TIP3    H117508   3.354   0.807   1.923
 5855TIP3    H217509   3.326   0.660   1.899
 5856TIP3   OH217510   4.001   3.938   4.016
 5856TIP3    H117511   4.079   3.967   4.063
 5856TIP3    H217512   4.035   3.883   3.945
 5857TIP3   OH217513   7.881   3.683   0.060
 5857TIP3    H117514   7.873   3.590   0.039
 5857TIP3    H217515   7.973   3.703   0.042
 5858TIP3   OH217516   4.332   7.213   4.675
 5858TIP3    H117517   4.344   7.166   4.758
 5858TIP3    H217518   4.412   7.196   4.626
 5859TIP3   OH217519   4.751   6.182   5.304
 5859TIP3    H117520   4.659   6.165   5.326
 5859TIP3    H217521   4.766   6.129   5.226
 5860TIP3   OH217522   1.435   1.660   6.267
 5860TIP3    H117523   1.362   1.650   6.206
 5860TIP3    H217524   1.399   1.636   6.352
 5861TIP3   OH217525   1.780   2.612   3.447
 5861TIP3    H117526   1.690   2.582   3.461
 5861TIP3    H217527   1.792   2.611   3.352
 5862TIP3   OH217528   1.801   4.824   2.231
 5862TIP3    H117529   1.815   4.847   2.139
 5862TIP3    H217530   1.729   4.880   2.260
 5863TIP3   OH217531   6.423   3.269   6.411
 5863TIP3    H117532   6.359   3.316   6.465
 5863TIP3    H217533   6.416   3.312   6.325
 5864TIP3   OH217534   5.538   5.372   3.420
 5864TIP3    H117535   5.621   5.381   3.466
 5864TIP3    H217536   5.493   5.456   3.434
 5865TIP3   OH217537   6.059   1.904   2.568
 5865TIP3    H117538   6.004   1.972   2.527
 5865TIP3    H217539   6.062   1.929   2.660
 5866TIP3   OH217540   4.272   1.328   6.414
 5866TIP3    H117541   4.357   1.371   6.417
 5866TIP3    H217542   4.218   1.376   6.477
 5867TIP3   OH217543   3.408   0.469   3.222
 5867TIP3    H117544   3.461   0.540   3.258
 5867TIP3    H217545   3.468   0.394   3.218
 5868TIP3   OH217546   6.618   6.564   4.872
 5868TIP3    H117547   6.697   6.618   4.869
 5868TIP3    H217548   6.645   6.484   4.918
 5869TIP3   OH217549   3.166   6.185   4.344
 5869TIP3    H117550   3.248   6.235   4.347
 5869TIP3    H217551   3.194   6.094   4.348
 5870TIP3   OH217552   5.304   3.743   3.744
 5870TIP3    H117553   5.310   3.834   3.714
 5870TIP3    H217554   5.390   3.725   3.783
 5871TIP3   OH217555   7.137   1.701   5.493
 5871TIP3    H117556   7.207   1.760   5.519
 5871TIP3    H217557   7.104   1.664   5.575
 5872TIP3   OH217558   0.943   5.151   3.778
 5872TIP3    H117559   1.038   5.156   3.776
 5872TIP3    H217560   0.923   5.121   3.867
 5873TIP3   OH217561   6.097   3.903   0.643
 5873TIP3    H117562   6.183   3.903   0.602
 5873TIP3    H217563   6.104   3.835   0.711
 5874TIP3   OH217564   0.442   4.473   6.361
 5874TIP3    H117565   0.418   4.563   6.382
 5874TIP3    H217566   0.387   4.450   6.286
 5875TIP3   OH217567   3.318   6.093   5.837
 5875TIP3    H117568   3.284   6.168   5.887
 5875TIP3    H217569   3.289   6.016   5.887
 5876TIP3   OH217570   6.603   7.500   2.365
 5876TIP3    H117571   6.589   7.566   2.433
 5876TIP3    H217572   6.697   7.504   2.347
 5877TIP3   OH217573   5.852   7.269   6.438
 5877TIP3    H117574   5.937   7.293   6.476
 5877TIP3    H217575   5.874   7.231   6.353
 5878TIP3   OH217576   5.909   6.499   4.080
 5878TIP3    H117577   5.922   6.558   4.005
 5878TIP3    H217578   5.953   6.543   4.153
 5879TIP3   OH217579   0.368   2.808   2.680
 5879TIP3    H117580   0.278   2.801   2.646
 5879TIP3    H217581   0.409   2.725   2.658
 5880TIP3   OH217582   4.288   3.926   3.092
 5880TIP3    H117583   4.378   3.920   3.124
 5880TIP3    H217584   4.272   4.020   3.081
 5881TIP3   OH217585   3.406   7.041   0.646
 5881TIP3    H117586   3.446   7.082   0.569
 5881TIP3    H217587   3.432   7.097   0.719
 5882TIP3   OH217588   3.127   7.466   3.913
 5882TIP3    H117589   3.123   7.370   3.908
 5882TIP3    H217590   3.131   7.495   3.822
 5883TIP3   OH217591   2.666   7.782   5.350
 5883TIP3    H117592   2.614   7.748   5.278
 5883TIP3    H217593   2.681   7.706   5.406
 5884TIP3   OH217594   5.140   6.871   3.281
 5884TIP3    H117595   5.109   6.818   3.355
 5884TIP3    H217596   5.066   6.929   3.261
 5885TIP3   OH217597   6.159   2.994   1.053
 5885TIP3    H117598   6.242   2.952   1.029
 5885TIP3    H217599   6.111   3.000   0.970
 5886TIP3   OH217600   1.680   0.149   6.027
 5886TIP3    H117601   1.715   0.084   5.967
 5886TIP3    H217602   1.714   0.124   6.113
 5887TIP3   OH217603   1.902   3.688   5.248
 5887TIP3    H117604   1.873   3.678   5.157
 5887TIP3    H217605   1.915   3.598   5.279
 5888TIP3   OH217606   7.727   2.361   3.529
 5888TIP3    H117607   7.633   2.344   3.540
 5888TIP3    H217608   7.736   2.455   3.549
 5889TIP3   OH217609   2.385   1.910   3.018
 5889TIP3    H117610   2.346   1.998   3.016
 5889TIP3    H217611   2.450   1.912   2.948
 5890TIP3   OH217612   5.398   5.616   3.446
 5890TIP3    H117613   5.321   5.612   3.389
 5890TIP3    H217614   5.364   5.645   3.531
 5891TIP3   OH217615   3.267   6.380   2.252
 5891TIP3    H117616   3.311   6.450   2.300
 5891TIP3    H217617   3.315   6.301   2.276
 5892TIP3   OH217618   7.475   4.312   4.694
 5892TIP3    H117619   7.524   4.232   4.673
 5892TIP3    H217620   7.511   4.341   4.778
 5893TIP3   OH217621   1.104   6.700   4.825
 5893TIP3    H117622   1.131   6.609   4.828
 5893TIP3    H217623   1.108   6.730   4.916
 5894TIP3   OH217624   3.134   1.515   0.010
 5894TIP3    H117625   3.106   1.495  -0.080
 5894TIP3    H217626   3.136   1.430   0.054
 5895TIP3   OH217627   1.981   2.802   3.871
 5895TIP3    H117628   2.046   2.828   3.806
 5895TIP3    H217629   1.949   2.885   3.907
 5896TIP3   OH217630   3.400   2.758   0.842
 5896TIP3    H117631   3.369   2.721   0.925
 5896TIP3    H217632   3.374   2.850   0.845
 5897TIP3   OH217633   0.941   4.112   3.708
 5897TIP3    H117634   0.956   4.062   3.789
 5897TIP3    H217635   0.945   4.047   3.638
 5898TIP3   OH217636   7.116   4.420   2.922
 5898TIP3    H117637   7.194   4.470   2.944
 5898TIP3    H217638   7.063   4.480   2.870
 5899TIP3   OH217639   4.973   3.145   1.587
 5899TIP3    H117640   4.969   3.050   1.587
 5899TIP3    H217641   5.067   3.165   1.587
 5900TIP3   OH217642   3.959   6.871   4.703
 5900TIP3    H117643   3.961   6.846   4.610
 5900TIP3    H217644   3.998   6.797   4.749
 5901TIP3   OH217645   7.544   1.858   1.112
 5901TIP3    H117646   7.499   1.880   1.031
 5901TIP3    H217647   7.502   1.912   1.179
 5902TIP3   OH217648   3.381   6.634   4.296
 5902TIP3    H117649   3.434   6.712   4.312
 5902TIP3    H217650   3.387   6.584   4.377
 5903TIP3   OH217651   2.997   0.854   5.021
 5903TIP3    H117652   3.055   0.874   5.095
 5903TIP3    H217653   2.929   0.799   5.059
 5904TIP3   OH217654   7.931   3.775   2.146
 5904TIP3    H117655   7.967   3.697   2.187
 5904TIP3    H217656   7.998   3.804   2.084
 5905TIP3   OH217657   7.238   6.996   6.191
 5905TIP3    H117658   7.277   7.028   6.110
 5905TIP3    H217659   7.156   7.044   6.199
 5906TIP3   OH217660   1.085   0.704   0.523
 5906TIP3    H117661   1.123   0.642   0.584
 5906TIP3    H217662   1.041   0.650   0.458
 5907TIP3   OH217663   2.712   2.661   2.174
 5907TIP3    H117664   2.736   2.655   2.081
 5907TIP3    H217665   2.776   2.721   2.211
 5908TIP3   OH217666   4.124   2.354   5.044
 5908TIP3    H117667   4.117   2.382   5.135
 5908TIP3    H217668   4.035   2.362   5.009
 5909TIP3   OH217669   0.954   2.452   0.566
 5909TIP3    H117670   0.897   2.375   0.565
 5909TIP3    H217671   1.041   2.417   0.550
 5910TIP3   OH217672   0.047   6.410   2.101
 5910TIP3    H117673   0.079   6.325   2.131
 5910TIP3    H217674  -0.021   6.390   2.037
 5911TIP3   OH217675   1.206   5.278   5.915
 5911TIP3    H117676   1.224   5.198   5.964
 5911TIP3    H217677   1.129   5.315   5.957
 5912TIP3   OH217678   5.433   1.554   4.288
 5912TIP3    H117679   5.505   1.499   4.319
 5912TIP3    H217680   5.388   1.500   4.223
 5913TIP3   OH217681   6.034   2.347   1.554
 5913TIP3    H117682   6.066   2.297   1.479
 5913TIP3    H217683   5.953   2.387   1.522
 5914TIP3   OH217684   0.505   4.852   2.483
 5914TIP3    H117685   0.410   4.864   2.489
 5914TIP3    H217686   0.537   4.935   2.447
 5915TIP3   OH217687   3.346   6.979   1.457
 5915TIP3    H117688   3.299   6.921   1.398
 5915TIP3    H217689   3.408   6.922   1.502
 5916TIP3   OH217690   8.023   1.715   1.136
 5916TIP3    H117691   8.099   1.759   1.098
 5916TIP3    H217692   8.043   1.710   1.230
 5917TIP3   OH217693   3.688   4.733   4.421
 5917TIP3    H117694   3.749   4.794   4.380
 5917TIP3    H217695   3.622   4.717   4.354
 5918TIP3   OH217696   3.560   1.683   0.710
 5918TIP3    H117697   3.555   1.700   0.616
 5918TIP3    H217698   3.591   1.593   0.717
 5919TIP3   OH217699   4.345   6.907   1.018
 5919TIP3    H117700   4.299   6.924   0.936
 5919TIP3    H217701   4.291   6.949   1.085
 5920TIP3   OH217702   7.361   6.865   6.385
 5920TIP3    H117703   7.342   6.774   6.361
 5920TIP3    H217704   7.309   6.918   6.325
 5921TIP3   OH217705   0.875   7.107   5.904
 5921TIP3    H117706   0.916   7.025   5.875
 5921TIP3    H217707   0.883   7.165   5.828
 5922TIP3   OH217708   7.386   1.149   2.864
 5922TIP3    H117709   7.299   1.123   2.832
 5922TIP3    H217710   7.393   1.107   2.949
 5923TIP3   OH217711   0.070   0.785   2.398
 5923TIP3    H117712   0.117   0.715   2.352
 5923TIP3    H217713   0.139   0.836   2.441
 5924TIP3   OH217714   1.816   7.422   1.859
 5924TIP3    H117715   1.872   7.422   1.781
 5924TIP3    H217716   1.740   7.370   1.835
 5925TIP3   OH217717   4.839   5.563   0.318
 5925TIP3    H117718   4.745   5.555   0.299
 5925TIP3    H217719   4.844   5.567   0.413
 5926TIP3   OH217720   5.990   5.963   4.233
 5926TIP3    H117721   5.920   5.986   4.172
 5926TIP3    H217722   6.059   6.027   4.215
 5927TIP3   OH217723   2.952   7.221   5.927
 5927TIP3    H117724   2.906   7.298   5.896
 5927TIP3    H217725   2.916   7.205   6.014
 5928TIP3   OH217726   0.106   0.226   3.851
 5928TIP3    H117727   0.160   0.302   3.873
 5928TIP3    H217728   0.138   0.156   3.908
 5929TIP3   OH217729   6.766   7.348   5.544
 5929TIP3    H117730   6.797   7.420   5.598
 5929TIP3    H217731   6.787   7.375   5.454
 5930TIP3   OH217732   6.655   2.986   2.592
 5930TIP3    H117733   6.671   3.078   2.611
 5930TIP3    H217734   6.568   2.969   2.628
 5931TIP3   OH217735   2.709   3.793   1.434
 5931TIP3    H117736   2.750   3.877   1.458
 5931TIP3    H217737   2.615   3.812   1.433
 5932TIP3   OH217738   2.264   1.063   5.841
 5932TIP3    H117739   2.275   0.976   5.880
 5932TIP3    H217740   2.342   1.074   5.786
 5933TIP3   OH217741   5.040   4.512   5.560
 5933TIP3    H117742   5.128   4.484   5.584
 5933TIP3    H217743   5.053   4.584   5.498
 5934TIP3   OH217744   5.026   3.374   6.416
 5934TIP3    H117745   4.967   3.438   6.456
 5934TIP3    H217746   5.084   3.347   6.487
 5935TIP3   OH217747   0.067   0.187   4.191
 5935TIP3    H117748  -0.005   0.245   4.218
 5935TIP3    H217749   0.138   0.208   4.252
 5936TIP3   OH217750   3.963   4.814   2.946
 5936TIP3    H117751   4.037   4.858   2.989
 5936TIP3    H217752   3.975   4.831   2.853
 5937TIP3   OH217753   0.613   1.272   1.584
 5937TIP3    H117754   0.584   1.299   1.671
 5937TIP3    H217755   0.541   1.219   1.550
 5938TIP3   OH217756   2.292   4.165   0.706
 5938TIP3    H117757   2.366   4.169   0.766
 5938TIP3    H217758   2.330   4.180   0.619
 5939TIP3   OH217759   7.641   7.629   3.644
 5939TIP3    H117760   7.711   7.571   3.674
 5939TIP3    H217761   7.614   7.593   3.560
 5940TIP3   OH217762   2.733   6.500   5.349
 5940TIP3    H117763   2.796   6.554   5.397
 5940TIP3    H217764   2.718   6.548   5.267
 5941TIP3   OH217765   8.195   7.697   3.524
 5941TIP3    H117766   8.117   7.642   3.515
 5941TIP3    H217767   8.261   7.655   3.468
 5942TIP3   OH217768   3.667   2.827   1.438
 5942TIP3    H117769   3.758   2.807   1.414
 5942TIP3    H217770   3.641   2.895   1.376
 5943TIP3   OH217771   4.499   3.758   3.429
 5943TIP3    H117772   4.543   3.799   3.355
 5943TIP3    H217773   4.419   3.720   3.392
 5944TIP3   OH217774   8.015   0.791   4.608
 5944TIP3    H117775   8.079   0.721   4.597
 5944TIP3    H217776   7.935   0.745   4.635
 5945TIP3   OH217777   0.174   2.994   4.294
 5945TIP3    H117778   0.104   2.934   4.317
 5945TIP3    H217779   0.254   2.941   4.296
 5946TIP3   OH217780   6.968   5.905   6.357
 5946TIP3    H117781   6.894   5.951   6.318
 5946TIP3    H217782   6.966   5.931   6.450
 5947TIP3   OH217783   2.203   6.520   1.533
 5947TIP3    H117784   2.183   6.604   1.576
 5947TIP3    H217785   2.118   6.488   1.503
 5948TIP3   OH217786   7.888   6.913   5.506
 5948TIP3    H117787   7.847   6.931   5.591
 5948TIP3    H217788   7.880   6.994   5.457
 5949TIP3   OH217789   2.198   5.669   3.961
 5949TIP3    H117790   2.122   5.685   4.016
 5949TIP3    H217791   2.184   5.722   3.883
 5950TIP3   OH217792   6.915   3.332   2.331
 5950TIP3    H117793   6.821   3.339   2.345
 5950TIP3    H217794   6.942   3.260   2.388
 5951TIP3   OH217795   5.527   0.716   3.564
 5951TIP3    H117796   5.462   0.646   3.561
 5951TIP3    H217797   5.520   0.759   3.479
 5952TIP3   OH217798   4.393   5.573   3.870
 5952TIP3    H117799   4.480   5.603   3.895
 5952TIP3    H217800   4.408   5.491   3.823
 5953TIP3   OH217801   7.109   4.647   1.028
 5953TIP3    H117802   7.052   4.719   1.000
 5953TIP3    H217803   7.119   4.660   1.122
 5954TIP3   OH217804   2.958   6.497   0.847
 5954TIP3    H117805   2.863   6.487   0.854
 5954TIP3    H217806   2.972   6.591   0.850
 5955TIP3   OH217807   4.938   6.882   1.798
 5955TIP3    H117808   4.894   6.889   1.713
 5955TIP3    H217809   4.904   6.800   1.836
 5956TIP3   OH217810   5.190   6.138   2.410
 5956TIP3    H117811   5.249   6.085   2.356
 5956TIP3    H217812   5.239   6.219   2.426
 5957TIP3   OH217813   7.246   5.204   2.430
 5957TIP3    H117814   7.296   5.283   2.409
 5957TIP3    H217815   7.155   5.234   2.435
 5958TIP3   OH217816   0.429   3.199   4.456
 5958TIP3    H117817   0.486   3.236   4.388
 5958TIP3    H217818   0.386   3.274   4.496
 5959TIP3   OH217819   5.982   5.593   2.609
 5959TIP3    H117820   5.985   5.543   2.690
 5959TIP3    H217821   6.034   5.541   2.547
 5960TIP3   OH217822   3.573   5.121   3.916
 5960TIP3    H117823   3.600   5.204   3.878
 5960TIP3    H217824   3.549   5.066   3.841
 5961TIP3   OH217825   5.092   2.356   4.337
 5961TIP3    H117826   5.083   2.381   4.245
 5961TIP3    H217827   5.105   2.261   4.335
 5962TIP3   OH217828   5.009   6.849   6.138
 5962TIP3    H117829   4.970   6.894   6.213
 5962TIP3    H217830   5.037   6.764   6.173
 5963TIP3   OH217831   0.529   2.489   2.348
 5963TIP3    H117832   0.608   2.440   2.323
 5963TIP3    H217833   0.520   2.475   2.442
 5964TIP3   OH217834   1.279   1.087   6.657
 5964TIP3    H117835   1.324   1.003   6.653
 5964TIP3    H217836   1.242   1.090   6.745
 5965TIP3   OH217837   7.852   4.066   5.412
 5965TIP3    H117838   7.944   4.051   5.389
 5965TIP3    H217839   7.831   3.995   5.474
 5966TIP3   OH217840   2.102   5.089   0.951
 5966TIP3    H117841   2.013   5.106   0.921
 5966TIP3    H217842   2.096   5.096   1.047
 5967TIP3   OH217843   6.095   4.606   1.433
 5967TIP3    H117844   6.132   4.677   1.381
 5967TIP3    H217845   6.000   4.623   1.432
 5968TIP3   OH217846   4.676   6.714   1.870
 5968TIP3    H117847   4.639   6.803   1.869
 5968TIP3    H217848   4.680   6.690   1.962
 5969TIP3   OH217849   2.852   5.377   6.101
 5969TIP3    H117850   2.838   5.426   6.020
 5969TIP3    H217851   2.936   5.409   6.134
 5970TIP3   OH217852   2.030   4.465   4.866
 5970TIP3    H117853   1.977   4.447   4.789
 5970TIP3    H217854   2.061   4.379   4.895
 5971TIP3   OH217855   8.259   4.491   0.196
 5971TIP3    H117856   8.267   4.409   0.245
 5971TIP3    H217857   8.310   4.554   0.246
 5972TIP3   OH217858   4.393   1.374   3.126
 5972TIP3    H117859   4.398   1.468   3.143
 5972TIP3    H217860   4.432   1.333   3.203
 5973TIP3   OH217861   4.357   5.837   5.733
 5973TIP3    H117862   4.277   5.787   5.754
 5973TIP3    H217863   4.355   5.911   5.794
 5974TIP3   OH217864   3.511   3.534   0.271
 5974TIP3    H117865   3.514   3.590   0.193
 5974TIP3    H217866   3.421   3.544   0.303
 5975TIP3   OH217867   3.711   5.493   4.304
 5975TIP3    H117868   3.748   5.523   4.387
 5975TIP3    H217869   3.673   5.408   4.324
 5976TIP3   OH217870   1.967   6.861   2.645
 5976TIP3    H117871   1.948   6.790   2.706
 5976TIP3    H217872   1.909   6.844   2.570
 5977TIP3   OH217873   7.852   4.459   5.698
 5977TIP3    H117874   7.934   4.452   5.651
 5977TIP3    H217875   7.832   4.553   5.698
 5978TIP3   OH217876   7.208   3.542   1.797
 5978TIP3    H117877   7.294   3.578   1.777
 5978TIP3    H217878   7.169   3.605   1.858
 5979TIP3   OH217879   0.332   6.153   0.302
 5979TIP3    H117880   0.245   6.143   0.264
 5979TIP3    H217881   0.354   6.245   0.286
 5980TIP3   OH217882   5.753   4.768   0.515
 5980TIP3    H117883   5.846   4.788   0.523
 5980TIP3    H217884   5.749   4.673   0.507
 5981TIP3   OH217885   2.904   1.127   4.841
 5981TIP3    H117886   2.843   1.083   4.900
 5981TIP3    H217887   2.990   1.115   4.883
 5982TIP3   OH217888   1.830   0.386   6.007
 5982TIP3    H117889   1.775   0.312   5.980
 5982TIP3    H217890   1.792   0.462   5.962
 5983TIP3   OH217891   1.981   3.410   4.553
 5983TIP3    H117892   2.042   3.402   4.626
 5983TIP3    H217893   1.907   3.460   4.588
 5984TIP3   OH217894   4.951   7.490   5.789
 5984TIP3    H117895   4.916   7.421   5.733
 5984TIP3    H217896   4.928   7.571   5.745
 5985TIP3   OH217897   4.745   6.744   1.370
 5985TIP3    H117898   4.693   6.750   1.290
 5985TIP3    H217899   4.724   6.657   1.405
 5986TIP3   OH217900   3.905   2.193   5.168
 5986TIP3    H117901   3.990   2.159   5.195
 5986TIP3    H217902   3.916   2.213   5.075
 5987TIP3   OH217903   3.637   7.461   5.483
 5987TIP3    H117904   3.601   7.546   5.459
 5987TIP3    H217905   3.731   7.478   5.496
 5988TIP3   OH217906   6.455   4.534   0.137
 5988TIP3    H117907   6.406   4.563   0.060
 5988TIP3    H217908   6.464   4.612   0.191
 5989TIP3   OH217909   5.119   6.752   2.720
 5989TIP3    H117910   5.074   6.754   2.804
 5989TIP3    H217911   5.164   6.668   2.719
 5990TIP3   OH217912   7.456   2.507   1.489
 5990TIP3    H117913   7.489   2.497   1.400
 5990TIP3    H217914   7.495   2.434   1.537
 5991TIP3   OH217915   6.356   5.127   1.688
 5991TIP3    H117916   6.327   5.217   1.675
 5991TIP3    H217917   6.280   5.082   1.724
 5992TIP3   OH217918   3.765   5.099   2.221
 5992TIP3    H117919   3.791   5.111   2.312
 5992TIP3    H217920   3.670   5.096   2.223
 5993TIP3   OH217921   1.264   1.017   2.022
 5993TIP3    H117922   1.282   1.108   2.000
 5993TIP3    H217923   1.169   1.012   2.033
 5994TIP3   OH217924   0.582   6.513   5.648
 5994TIP3    H117925   0.668   6.533   5.687
 5994TIP3    H217926   0.533   6.595   5.658
 5995TIP3   OH217927   3.815   3.289   3.939
 5995TIP3    H117928   3.871   3.211   3.948
 5995TIP3    H217929   3.785   3.307   4.028
 5996TIP3   OH217930   2.643   0.710   6.475
 5996TIP3    H117931   2.655   0.797   6.438
 5996TIP3    H217932   2.716   0.659   6.441
 5997TIP3   OH217933   2.593   1.795   3.445
 5997TIP3    H117934   2.521   1.800   3.383
 5997TIP3    H217935   2.551   1.779   3.530
 5998TIP3   OH217936   6.607   1.090   3.105
 5998TIP3    H117937   6.617   1.167   3.161
 5998TIP3    H217938   6.584   1.126   3.019
 5999TIP3   OH217939   5.970   3.682   5.271
 5999TIP3    H117940   5.972   3.672   5.176
 5999TIP3    H217941   5.973   3.592   5.305
 6000TIP3   OH217942   6.739   3.339   3.951
 6000TIP3    H117943   6.821   3.383   3.928
 6000TIP3    H217944   6.748   3.252   3.912
 6001TIP3   OH217945   4.882   2.742   3.949
 6001TIP3    H117946   4.859   2.705   4.034
 6001TIP3    H217947   4.934   2.674   3.906
 6002TIP3   OH217948   7.761   5.734   3.458
 6002TIP3    H117949   7.699   5.673   3.498
 6002TIP3    H217950   7.781   5.696   3.373
 6003TIP3   OH217951   6.154   7.099   6.583
 6003TIP3    H117952   6.236   7.093   6.632
 6003TIP3    H217953   6.101   7.162   6.631
 6004TIP3   OH217954   0.041   1.076   2.789
 6004TIP3    H117955  -0.007   1.154   2.816
 6004TIP3    H217956  -0.027   1.009   2.775
 6005TIP3   OH217957   1.810   3.559   5.697
 6005TIP3    H117958   1.772   3.617   5.763
 6005TIP3    H217959   1.898   3.595   5.682
 6006TIP3   OH217960   2.175   2.215   4.088
 6006TIP3    H117961   2.235   2.207   4.162
 6006TIP3    H217962   2.120   2.290   4.110
 6007TIP3   OH217963   3.426   3.125   6.596
 6007TIP3    H117964   3.462   3.113   6.684
 6007TIP3    H217965   3.357   3.059   6.589
 6008TIP3   OH217966   5.147   3.171   0.832
 6008TIP3    H117967   5.224   3.190   0.886
 6008TIP3    H217968   5.138   3.075   0.836
 6009TIP3   OH217969   4.611   7.221   2.686
 6009TIP3    H117970   4.600   7.301   2.738
 6009TIP3    H217971   4.675   7.244   2.620
 6010TIP3   OH217972   4.704   2.973   3.459
 6010TIP3    H117973   4.768   2.966   3.529
 6010TIP3    H217974   4.629   3.017   3.498
 6011TIP3   OH217975   1.765   4.252   2.010
 6011TIP3    H117976   1.771   4.327   2.069
 6011TIP3    H217977   1.677   4.217   2.025
 6012TIP3   OH217978   2.402   1.225   4.785
 6012TIP3    H117979   2.349   1.226   4.706
 6012TIP3    H217980   2.437   1.136   4.790
 6013TIP3   OH217981   2.616   7.695   0.724
 6013TIP3    H117982   2.684   7.711   0.789
 6013TIP3    H217983   2.661   7.647   0.654
 6014TIP3   OH217984   4.683   5.289   1.250
 6014TIP3    H117985   4.730   5.209   1.226
 6014TIP3    H217986   4.683   5.289   1.346
 6015TIP3   OH217987   7.711   0.842   2.918
 6015TIP3    H117988   7.730   0.847   3.012
 6015TIP3    H217989   7.793   0.812   2.879
 6016TIP3   OH217990   4.633   0.344   2.732
 6016TIP3    H117991   4.602   0.371   2.819
 6016TIP3    H217992   4.726   0.366   2.732
 6017TIP3   OH217993   4.948   0.642   1.400
 6017TIP3    H117994   4.901   0.566   1.433
 6017TIP3    H217995   4.933   0.710   1.465
 6018TIP3   OH217996   8.216   4.174   4.982
 6018TIP3    H117997   8.287   4.125   4.940
 6018TIP3    H217998   8.244   4.184   5.073
 6019TIP3   OH217999   4.021   0.067   5.205
 6019TIP3    H118000   4.086   0.110   5.149
 6019TIP3    H218001   3.978   0.004   5.148
 6020TIP3   OH218002   0.908   4.314   1.645
 6020TIP3    H118003   0.850   4.355   1.580
 6020TIP3    H218004   0.852   4.250   1.689
 6021TIP3   OH218005   3.276   4.691   5.273
 6021TIP3    H118006   3.206   4.649   5.323
 6021TIP3    H218007   3.357   4.653   5.307
 6022TIP3   OH218008   6.603   5.615   5.229
 6022TIP3    H118009   6.646   5.646   5.308
 6022TIP3    H218010   6.538   5.551   5.260
 6023TIP3   OH218011   4.904   4.449   2.303
 6023TIP3    H118012   4.992   4.450   2.267
 6023TIP3    H218013   4.914   4.415   2.392
 6024TIP3   OH218014   1.488   3.730   4.672
 6024TIP3    H118015   1.430   3.757   4.743
 6024TIP3    H218016   1.454   3.775   4.595
 6025TIP3   OH218017   1.896   3.745   1.317
 6025TIP3    H118018   1.893   3.668   1.260
 6025TIP3    H218019   1.811   3.787   1.305
 6026TIP3   OH218020   3.701   7.173   4.540
 6026TIP3    H118021   3.648   7.126   4.604
 6026TIP3    H218022   3.645   7.181   4.463
 6027TIP3   OH218023   2.419   4.651   3.763
 6027TIP3    H118024   2.372   4.734   3.767
 6027TIP3    H218025   2.492   4.662   3.825
 6028TIP3   OH218026   2.321   2.561   3.077
 6028TIP3    H118027   2.414   2.572   3.058
 6028TIP3    H218028   2.316   2.556   3.173
 6029TIP3   OH218029   6.093   2.941   0.300
 6029TIP3    H118030   6.071   2.901   0.384
 6029TIP3    H218031   6.184   2.969   0.310
 6030TIP3   OH218032   1.943   1.291   0.386
 6030TIP3    H118033   1.947   1.379   0.349
 6030TIP3    H218034   1.992   1.296   0.468
 6031TIP3   OH218035   6.607   6.542   3.229
 6031TIP3    H118036   6.534   6.484   3.211
 6031TIP3    H218037   6.653   6.502   3.302
 6032TIP3   OH218038   4.898   7.685   2.881
 6032TIP3    H118039   4.960   7.623   2.918
 6032TIP3    H218040   4.818   7.672   2.933
 6033TIP3   OH218041   0.450   5.772   4.828
 6033TIP3    H118042   0.408   5.809   4.906
 6033TIP3    H218043   0.542   5.796   4.837
 6034TIP3   OH218044   0.480   5.433   0.297
 6034TIP3    H118045   0.386   5.434   0.312
 6034TIP3    H218046   0.515   5.498   0.358
 6035TIP3   OH218047   3.500   6.650   2.046
 6035TIP3    H118048   3.585   6.645   2.088
 6035TIP3    H218049   3.474   6.742   2.055
 6036TIP3   OH218050   0.320   4.275   4.053
 6036TIP3    H118051   0.276   4.360   4.054
 6036TIP3    H218052   0.340   4.258   4.145
 6037TIP3   OH218053   5.567   0.286   4.000
 6037TIP3    H118054   5.662   0.295   4.002
 6037TIP3    H218055   5.539   0.309   4.089
 6038TIP3   OH218056   6.694   5.165   5.506
 6038TIP3    H118057   6.620   5.110   5.534
 6038TIP3    H218058   6.657   5.223   5.440
 6039TIP3   OH218059   5.758   4.982   5.937
 6039TIP3    H118060   5.679   4.936   5.967
 6039TIP3    H218061   5.787   4.931   5.861
 6040TIP3   OH218062   7.177   3.263   5.652
 6040TIP3    H118063   7.122   3.233   5.724
 6040TIP3    H218064   7.208   3.182   5.611
 6041TIP3   OH218065   7.898   5.582   4.110
 6041TIP3    H118066   7.954   5.505   4.110
 6041TIP3    H218067   7.809   5.547   4.112
 6042TIP3   OH218068   3.799   1.743   6.087
 6042TIP3    H118069   3.816   1.789   6.170
 6042TIP3    H218070   3.820   1.808   6.020
 6043TIP3   OH218071   2.279   6.490   5.160
 6043TIP3    H118072   2.262   6.572   5.206
 6043TIP3    H218073   2.370   6.497   5.133
 6044TIP3   OH218074   2.593   2.103   0.132
 6044TIP3    H118075   2.685   2.079   0.124
 6044TIP3    H218076   2.583   2.131   0.223
 6045TIP3   OH218077   6.214   2.004   3.549
 6045TIP3    H118078   6.245   2.079   3.600
 6045TIP3    H218079   6.234   1.928   3.604
 6046TIP3   OH218080   7.979   1.365   5.665
 6046TIP3    H118081   7.931   1.404   5.737
 6046TIP3    H218082   8.039   1.303   5.707
 6047TIP3   OH218083   1.512   2.895   5.967
 6047TIP3    H118084   1.419   2.873   5.965
 6047TIP3    H218085   1.516   2.985   5.937
 6048TIP3   OH218086   6.066   4.607   2.942
 6048TIP3    H118087   6.101   4.551   2.872
 6048TIP3    H218088   6.132   4.676   2.952
 6049TIP3   OH218089   7.518   5.207   2.854
 6049TIP3    H118090   7.437   5.213   2.804
 6049TIP3    H218091   7.587   5.233   2.792
 6050TIP3   OH218092   2.849   6.634   0.052
 6050TIP3    H118093   2.839   6.597   0.140
 6050TIP3    H218094   2.920   6.584   0.013
 6051TIP3   OH218095   0.958   6.546   2.764
 6051TIP3    H118096   0.946   6.625   2.816
 6051TIP3    H218097   0.903   6.480   2.807
 6052TIP3   OH218098   5.859   1.103   1.208
 6052TIP3    H118099   5.809   1.063   1.279
 6052TIP3    H218100   5.878   1.192   1.239
 6053TIP3   OH218101   7.478   0.269   4.303
 6053TIP3    H118102   7.540   0.310   4.242
 6053TIP3    H218103   7.426   0.341   4.336
 6054TIP3   OH218104   1.081   5.421   1.873
 6054TIP3    H118105   1.077   5.476   1.795
 6054TIP3    H218106   0.995   5.378   1.876
 6055TIP3   OH218107   4.622   6.208   1.753
 6055TIP3    H118108   4.613   6.295   1.790
 6055TIP3    H218109   4.562   6.153   1.804
 6056TIP3   OH218110   0.592   3.836   1.948
 6056TIP3    H118111   0.615   3.797   2.033
 6056TIP3    H218112   0.496   3.835   1.946
 6057TIP3   OH218113   6.688   2.081   4.798
 6057TIP3    H118114   6.692   2.025   4.720
 6057TIP3    H218115   6.595   2.085   4.819
 6058TIP3   OH218116   1.194   4.619   1.449
 6058TIP3    H118117   1.203   4.682   1.377
 6058TIP3    H218118   1.226   4.536   1.413
 6059TIP3   OH218119   2.532   1.366   0.818
 6059TIP3    H118120   2.465   1.418   0.863
 6059TIP3    H218121   2.483   1.304   0.764
 6060TIP3   OH218122   6.974   4.912   3.707
 6060TIP3    H118123   6.946   4.974   3.639
 6060TIP3    H218124   6.919   4.932   3.782
 6061TIP3   OH218125   5.013   5.652   0.118
 6061TIP3    H118126   4.979   5.607   0.195
 6061TIP3    H218127   5.017   5.744   0.144
 6062TIP3   OH218128   4.473   5.876   1.101
 6062TIP3    H118129   4.385   5.871   1.136
 6062TIP3    H218130   4.478   5.962   1.059
 6063TIP3   OH218131   1.857   5.570   6.308
 6063TIP3    H118132   1.861   5.635   6.378
 6063TIP3    H218133   1.765   5.544   6.304
 6064TIP3   OH218134   7.776   6.526   0.955
 6064TIP3    H118135   7.697   6.474   0.964
 6064TIP3    H218136   7.776   6.553   0.863
 6065TIP3   OH218137   2.633   2.155   1.353
 6065TIP3    H118138   2.637   2.060   1.351
 6065TIP3    H218139   2.565   2.178   1.289
 6066TIP3   OH218140   6.522   1.857   0.952
 6066TIP3    H118141   6.451   1.916   0.977
 6066TIP3    H218142   6.600   1.912   0.951
 6067TIP3   OH218143   0.048   3.062   3.959
 6067TIP3    H118144   0.027   3.139   3.906
 6067TIP3    H218145   0.001   3.075   4.041
 6068TIP3   OH218146   1.456   5.751   2.879
 6068TIP3    H118147   1.526   5.689   2.860
 6068TIP3    H218148   1.483   5.794   2.961
 6069TIP3   OH218149   8.215   1.312   2.862
 6069TIP3    H118150   8.129   1.271   2.870
 6069TIP3    H218151   8.215   1.382   2.927
 6070TIP3   OH218152   3.238   1.734   4.649
 6070TIP3    H118153   3.243   1.804   4.584
 6070TIP3    H218154   3.203   1.659   4.602
 6071TIP3   OH218155   5.211   6.838   1.837
 6071TIP3    H118156   5.116   6.847   1.825
 6071TIP3    H218157   5.225   6.863   1.929
 6072TIP3   OH218158   4.488   4.833   3.807
 6072TIP3    H118159   4.407   4.786   3.826
 6072TIP3    H218160   4.532   4.780   3.741
 6073TIP3   OH218161   7.950   3.650   0.565
 6073TIP3    H118162   7.972   3.560   0.588
 6073TIP3    H218163   7.923   3.645   0.473
 6074TIP3   OH218164   4.154   2.904   3.607
 6074TIP3    H118165   4.182   2.977   3.662
 6074TIP3    H218166   4.200   2.918   3.524
 6075TIP3   OH218167   7.870   2.665   4.626
 6075TIP3    H118168   7.943   2.726   4.625
 6075TIP3    H218169   7.908   2.581   4.598
 6076TIP3   OH218170   7.906   0.214   3.153
 6076TIP3    H118171   7.926   0.123   3.174
 6076TIP3    H218172   7.971   0.264   3.202
 6077TIP3   OH218173   7.326   0.495   4.212
 6077TIP3    H118174   7.257   0.431   4.192
 6077TIP3    H218175   7.279   0.579   4.218
 6078TIP3   OH218176   4.009   0.942   5.839
 6078TIP3    H118177   4.024   0.895   5.757
 6078TIP3    H218178   3.929   0.992   5.824
 6079TIP3   OH218179   0.659   2.768   4.521
 6079TIP3    H118180   0.716   2.749   4.596
 6079TIP3    H218181   0.717   2.759   4.445
 6080TIP3   OH218182   0.398   4.686   3.352
 6080TIP3    H118183   0.365   4.775   3.340
 6080TIP3    H218184   0.490   4.697   3.378
 6081TIP3   OH218185   3.062   3.675   2.143
 6081TIP3    H118186   3.150   3.675   2.181
 6081TIP3    H218187   3.076   3.658   2.050
 6082TIP3   OH218188   5.399   0.454   1.834
 6082TIP3    H118189   5.343   0.464   1.911
 6082TIP3    H218190   5.357   0.508   1.767
 6083TIP3   OH218191   0.732   1.822   3.113
 6083TIP3    H118192   0.799   1.779   3.059
 6083TIP3    H218193   0.777   1.898   3.150
 6084TIP3   OH218194   0.079   3.782   6.233
 6084TIP3    H118195   0.166   3.814   6.256
 6084TIP3    H218196   0.037   3.855   6.189
 6085TIP3   OH218197   5.958   5.701   5.549
 6085TIP3    H118198   5.968   5.608   5.529
 6085TIP3    H218199   6.047   5.730   5.572
 6086TIP3   OH218200   6.468   6.121   3.390
 6086TIP3    H118201   6.546   6.068   3.374
 6086TIP3    H218202   6.397   6.073   3.350
 6087TIP3   OH218203   6.163   4.796   2.673
 6087TIP3    H118204   6.235   4.766   2.729
 6087TIP3    H218205   6.206   4.825   2.593
 6088TIP3   OH218206   5.505   1.615   4.566
 6088TIP3    H118207   5.597   1.592   4.572
 6088TIP3    H218208   5.493   1.644   4.475
 6089TIP3   OH218209   0.006   6.112   4.856
 6089TIP3    H118210   0.004   6.108   4.952
 6089TIP3    H218211   0.067   6.043   4.830
 6090TIP3   OH218212   6.435   4.619   2.828
 6090TIP3    H118213   6.433   4.580   2.915
 6090TIP3    H218214   6.505   4.684   2.833
 6091TIP3   OH218215   2.671   5.678   5.117
 6091TIP3    H118216   2.736   5.621   5.074
 6091TIP3    H218217   2.724   5.744   5.161
 6092TIP3   OH218218   1.856   3.490   1.252
 6092TIP3    H118219   1.933   3.433   1.263
 6092TIP3    H218220   1.805   3.478   1.332
 6093TIP3   OH218221   7.324   0.536   5.325
 6093TIP3    H118222   7.329   0.631   5.313
 6093TIP3    H218223   7.415   0.508   5.335
 6094TIP3   OH218224   5.366   4.970   1.850
 6094TIP3    H118225   5.346   5.059   1.822
 6094TIP3    H218226   5.390   4.924   1.769
 6095TIP3   OH218227   1.446   2.512   0.869
 6095TIP3    H118228   1.458   2.482   0.778
 6095TIP3    H218229   1.370   2.463   0.900
 6096TIP3   OH218230   2.213   5.546   3.615
 6096TIP3    H118231   2.283   5.530   3.551
 6096TIP3    H218232   2.153   5.606   3.571
 6097TIP3   OH218233   0.439   7.534   6.794
 6097TIP3    H118234   0.371   7.552   6.729
 6097TIP3    H218235   0.500   7.608   6.786
 6098TIP3   OH218236   8.210   7.304   1.238
 6098TIP3    H118237   8.153   7.297   1.162
 6098TIP3    H218238   8.298   7.292   1.204
 6099TIP3   OH218239   7.711   7.656   6.373
 6099TIP3    H118240   7.620   7.640   6.397
 6099TIP3    H218241   7.755   7.573   6.392
 6100TIP3   OH218242   2.145   1.880   5.069
 6100TIP3    H118243   2.144   1.821   5.144
 6100TIP3    H218244   2.216   1.847   5.013
 6101TIP3   OH218245   6.875   5.446   2.824
 6101TIP3    H118246   6.858   5.354   2.804
 6101TIP3    H218247   6.955   5.445   2.875
 6102TIP3   OH218248   0.348   5.512   2.528
 6102TIP3    H118249   0.401   5.438   2.497
 6102TIP3    H218250   0.257   5.485   2.514
 6103TIP3   OH218251   1.219   7.258   5.216
 6103TIP3    H118252   1.262   7.321   5.275
 6103TIP3    H218253   1.291   7.210   5.176
 6104TIP3   OH218254   6.320   7.275   2.130
 6104TIP3    H118255   6.333   7.322   2.212
 6104TIP3    H218256   6.404   7.233   2.113
 6105TIP3   OH218257   4.963   2.067   0.395
 6105TIP3    H118258   4.978   1.977   0.425
 6105TIP3    H218259   5.051   2.102   0.379
 6106TIP3   OH218260   0.755   5.385   4.416
 6106TIP3    H118261   0.736   5.423   4.330
 6106TIP3    H218262   0.814   5.448   4.457
 6107TIP3   OH218263   3.228   2.751   4.660
 6107TIP3    H118264   3.202   2.689   4.592
 6107TIP3    H218265   3.184   2.720   4.739
 6108TIP3   OH218266   6.758   3.544   4.617
 6108TIP3    H118267   6.677   3.586   4.587
 6108TIP3    H218268   6.781   3.592   4.697
 6109TIP3   OH218269   3.482   0.261   3.753
 6109TIP3    H118270   3.503   0.168   3.765
 6109TIP3    H218271   3.566   0.306   3.759
 6110TIP3   OH218272   4.545   0.580   5.131
 6110TIP3    H118273   4.507   0.516   5.072
 6110TIP3    H218274   4.640   0.572   5.119
 6111TIP3   OH218275   5.899   5.716   2.038
 6111TIP3    H118276   5.908   5.673   2.123
 6111TIP3    H218277   5.833   5.664   1.993
 6112TIP3   OH218278   4.819   2.290   6.277
 6112TIP3    H118279   4.888   2.310   6.215
 6112TIP3    H218280   4.752   2.245   6.226
 6113TIP3   OH218281   3.916   0.084   2.914
 6113TIP3    H118282   3.827   0.091   2.880
 6113TIP3    H218283   3.947  -0.001   2.882
 6114TIP3   OH218284   0.656   0.952   0.964
 6114TIP3    H118285   0.709   0.885   0.922
 6114TIP3    H218286   0.639   1.016   0.895
 6115TIP3   OH218287   6.169   1.485   2.018
 6115TIP3    H118288   6.158   1.579   2.036
 6115TIP3    H218289   6.080   1.450   2.019
 6116TIP3   OH218290   6.429   0.562   2.380
 6116TIP3    H118291   6.416   0.549   2.474
 6116TIP3    H218292   6.351   0.608   2.351
 6117TIP3   OH218293   0.894   2.066   4.800
 6117TIP3    H118294   0.928   2.154   4.789
 6117TIP3    H218295   0.845   2.049   4.719
 6118TIP3   OH218296   1.567   0.922   4.465
 6118TIP3    H118297   1.574   1.014   4.492
 6118TIP3    H218298   1.563   0.925   4.370
 6119TIP3   OH218299   5.493   7.108   4.733
 6119TIP3    H118300   5.448   7.186   4.701
 6119TIP3    H218301   5.507   7.125   4.826
 6120TIP3   OH218302   3.400   4.914   2.347
 6120TIP3    H118303   3.396   4.969   2.425
 6120TIP3    H218304   3.308   4.903   2.321
 6121TIP3   OH218305   5.226   6.519   3.002
 6121TIP3    H118306   5.142   6.531   3.046
 6121TIP3    H218307   5.290   6.527   3.073
 6122TIP3   OH218308   2.131   0.936   1.334
 6122TIP3    H118309   2.036   0.927   1.342
 6122TIP3    H218310   2.148   1.028   1.353
 6123TIP3   OH218311   0.946   6.277   6.024
 6123TIP3    H118312   0.961   6.326   6.105
 6123TIP3    H218313   1.034   6.260   5.991
 6124TIP3   OH218314   3.659   5.934   2.205
 6124TIP3    H118315   3.606   5.940   2.125
 6124TIP3    H218316   3.598   5.951   2.276
 6125TIP3   OH218317   6.906   4.019   0.872
 6125TIP3    H118318   6.878   4.060   0.953
 6125TIP3    H218319   7.000   4.001   0.884
 6126TIP3   OH218320   2.454   2.118   4.755
 6126TIP3    H118321   2.504   2.074   4.824
 6126TIP3    H218322   2.513   2.184   4.720
 6127TIP3   OH218323   6.873   5.520   1.589
 6127TIP3    H118324   6.951   5.542   1.537
 6127TIP3    H218325   6.806   5.581   1.559
 6128TIP3   OH218326   1.727   4.088   2.370
 6128TIP3    H118327   1.752   3.999   2.392
 6128TIP3    H218328   1.795   4.119   2.310
 6129TIP3   OH218329   2.394   1.505   3.221
 6129TIP3    H118330   2.353   1.559   3.288
 6129TIP3    H218331   2.461   1.561   3.183
 6130TIP3   OH218332   3.112   3.098   1.223
 6130TIP3    H118333   3.152   3.107   1.136
 6130TIP3    H218334   3.025   3.138   1.213
 6131TIP3   OH218335   4.046   4.507   2.822
 6131TIP3    H118336   4.057   4.508   2.917
 6131TIP3    H218337   4.117   4.453   2.790
 6132TIP3   OH218338   0.712   4.003   4.511
 6132TIP3    H118339   0.626   3.965   4.499
 6132TIP3    H218340   0.696   4.098   4.515
 6133TIP3   OH218341   3.036   1.499   6.475
 6133TIP3    H118342   3.106   1.462   6.422
 6133TIP3    H218343   3.062   1.482   6.566
 6134TIP3   OH218344   6.556   0.429   5.212
 6134TIP3    H118345   6.508   0.347   5.225
 6134TIP3    H218346   6.513   0.471   5.138
 6135TIP3   OH218347   2.670   6.890   3.052
 6135TIP3    H118348   2.714   6.913   3.134
 6135TIP3    H218349   2.620   6.811   3.074
 6136TIP3   OH218350   3.499   2.765   3.627
 6136TIP3    H118351   3.507   2.670   3.629
 6136TIP3    H218352   3.413   2.781   3.589
 6137TIP3   OH218353   2.138   5.281   3.379
 6137TIP3    H118354   2.079   5.350   3.350
 6137TIP3    H218355   2.206   5.326   3.429
 6138TIP3   OH218356   5.400   5.907   1.732
 6138TIP3    H118357   5.420   5.973   1.666
 6138TIP3    H218358   5.450   5.830   1.705
 6139TIP3   OH218359   5.775   3.158   5.260
 6139TIP3    H118360   5.729   3.157   5.344
 6139TIP3    H218361   5.726   3.221   5.207
 6140TIP3   OH218362   6.917   7.800   4.615
 6140TIP3    H118363   6.866   7.757   4.546
 6140TIP3    H218364   6.875   7.885   4.625
 6141TIP3   OH218365   6.412   2.472   1.714
 6141TIP3    H118366   6.341   2.533   1.734
 6141TIP3    H218367   6.441   2.441   1.800
 6142TIP3   OH218368   5.889   5.237   4.165
 6142TIP3    H118369   5.859   5.174   4.100
 6142TIP3    H218370   5.902   5.318   4.116
 6143TIP3   OH218371   5.576   3.144   0.670
 6143TIP3    H118372   5.528   3.227   0.674
 6143TIP3    H218373   5.665   3.169   0.646
 6144TIP3   OH218374   1.479   7.160   0.861
 6144TIP3    H118375   1.535   7.186   0.934
 6144TIP3    H218376   1.398   7.210   0.873
 6145TIP3   OH218377   7.059   7.142   4.575
 6145TIP3    H118378   7.044   7.235   4.585
 6145TIP3    H218379   7.053   7.126   4.480
 6146TIP3   OH218380   2.412   5.408   3.403
 6146TIP3    H118381   2.438   5.499   3.390
 6146TIP3    H218382   2.426   5.367   3.317
 6147TIP3   OH218383   7.313   2.616   6.466
 6147TIP3    H118384   7.233   2.565   6.455
 6147TIP3    H218385   7.311   2.647   6.556
 6148TIP3   OH218386   4.269   2.360   3.967
 6148TIP3    H118387   4.185   2.381   4.007
 6148TIP3    H218388   4.312   2.444   3.953
 6149TIP3   OH218389   1.297   4.252   6.061
 6149TIP3    H118390   1.273   4.246   5.969
 6149TIP3    H218391   1.320   4.163   6.086
 6150TIP3   OH218392   4.595   3.074   6.012
 6150TIP3    H118393   4.560   3.012   6.076
 6150TIP3    H218394   4.520   3.128   5.989
 6151TIP3   OH218395   3.317   0.040   4.918
 6151TIP3    H118396   3.402   0.059   4.958
 6151TIP3    H218397   3.264   0.118   4.935
 6152TIP3   OH218398   0.700   3.586   5.248
 6152TIP3    H118399   0.613   3.575   5.209
 6152TIP3    H218400   0.686   3.647   5.320
 6153TIP3   OH218401   4.643   0.909   6.806
 6153TIP3    H118402   4.719   0.967   6.807
 6153TIP3    H218403   4.643   0.871   6.718
 6154TIP3   OH218404   3.853   1.458   6.104
 6154TIP3    H118405   3.940   1.442   6.140
 6154TIP3    H218406   3.844   1.553   6.103
 6155TIP3   OH218407   3.636   5.730   4.519
 6155TIP3    H118408   3.634   5.692   4.607
 6155TIP3    H218409   3.548   5.714   4.484
 6156TIP3   OH218410   1.601   1.771   5.835
 6156TIP3    H118411   1.542   1.726   5.895
 6156TIP3    H218412   1.544   1.803   5.765
 6157TIP3   OH218413   8.054   6.469   3.629
 6157TIP3    H118414   8.108   6.466   3.708
 6157TIP3    H218415   8.054   6.379   3.596
 6158TIP3   OH218416   5.452   2.811   0.762
 6158TIP3    H118417   5.499   2.778   0.686
 6158TIP3    H218418   5.519   2.824   0.829
 6159TIP3   OH218419   6.101   0.534   5.031
 6159TIP3    H118420   6.120   0.590   5.107
 6159TIP3    H218421   6.119   0.588   4.955
 6160TIP3   OH218422   0.146   4.730   5.568
 6160TIP3    H118423   0.122   4.688   5.651
 6160TIP3    H218424   0.062   4.760   5.532
 6161TIP3   OH218425   8.228   0.008   3.059
 6161TIP3    H118426   8.293   0.021   3.127
 6161TIP3    H218427   8.221   0.093   3.015
 6162TIP3   OH218428   3.273   7.079   6.089
 6162TIP3    H118429   3.353   7.083   6.140
 6162TIP3    H218430   3.297   7.029   6.011
 6163TIP3   OH218431   1.243   1.306   6.467
 6163TIP3    H118432   1.266   1.216   6.490
 6163TIP3    H218433   1.180   1.333   6.535
 6164TIP3   OH218434   6.290   7.018   3.571
 6164TIP3    H118435   6.295   6.987   3.480
 6164TIP3    H218436   6.215   6.971   3.608
 6165TIP3   OH218437   6.852   3.392   3.612
 6165TIP3    H118438   6.909   3.449   3.560
 6165TIP3    H218439   6.867   3.420   3.702
 6166TIP3   OH218440   2.766   7.155   6.159
 6166TIP3    H118441   2.717   7.074   6.171
 6166TIP3    H218442   2.833   7.153   6.227
 6167TIP3   OH218443   1.556   7.208   5.762
 6167TIP3    H118444   1.471   7.200   5.719
 6167TIP3    H218445   1.577   7.302   5.757
 6168TIP3   OH218446   3.665   6.488   3.359
 6168TIP3    H118447   3.642   6.427   3.429
 6168TIP3    H218448   3.584   6.501   3.310
 6169TIP3   OH218449   8.171   3.097   5.011
 6169TIP3    H118450   8.243   3.073   4.953
 6169TIP3    H218451   8.213   3.109   5.097
 6170TIP3   OH218452   3.912   6.631   5.652
 6170TIP3    H118453   3.845   6.604   5.589
 6170TIP3    H218454   3.879   6.601   5.737
 6171TIP3   OH218455   7.854   0.457   5.849
 6171TIP3    H118456   7.792   0.433   5.919
 6171TIP3    H218457   7.812   0.428   5.769
 6172TIP3   OH218458   0.257   1.323   1.359
 6172TIP3    H118459   0.227   1.240   1.321
 6172TIP3    H218460   0.211   1.328   1.443
 6173TIP3   OH218461   3.659   6.667   6.638
 6173TIP3    H118462   3.745   6.627   6.650
 6173TIP3    H218463   3.614   6.654   6.722
 6174TIP3   OH218464   4.841   3.178   3.909
 6174TIP3    H118465   4.893   3.258   3.918
 6174TIP3    H218466   4.750   3.208   3.911
 6175TIP3   OH218467   6.137   6.898   2.188
 6175TIP3    H118468   6.141   6.819   2.134
 6175TIP3    H218469   6.227   6.930   2.190
 6176TIP3   OH218470   5.798   6.745   4.778
 6176TIP3    H118471   5.775   6.653   4.768
 6176TIP3    H218472   5.875   6.757   4.723
 6177TIP3   OH218473   3.061   0.255   6.093
 6177TIP3    H118474   3.059   0.177   6.148
 6177TIP3    H218475   3.151   0.262   6.064
 6178TIP3   OH218476   8.016   3.449   0.373
 6178TIP3    H118477   7.927   3.444   0.338
 6178TIP3    H218478   8.050   3.533   0.341
 6179TIP3   OH218479   1.227   5.608   4.397
 6179TIP3    H118480   1.216   5.646   4.310
 6179TIP3    H218481   1.290   5.666   4.441
 6180TIP3   OH218482   5.486   4.935   3.353
 6180TIP3    H118483   5.468   4.962   3.263
 6180TIP3    H218484   5.492   4.840   3.349
 6181TIP3   OH218485   1.912   6.145   2.391
 6181TIP3    H118486   1.835   6.167   2.339
 6181TIP3    H218487   1.984   6.193   2.349
 6182TIP3   OH218488   6.958   7.347   3.179
 6182TIP3    H118489   6.889   7.281   3.188
 6182TIP3    H218490   7.019   7.310   3.116
 6183TIP3   OH218491   1.746   0.258   2.399
 6183TIP3    H118492   1.763   0.251   2.305
 6183TIP3    H218493   1.789   0.181   2.437
 6184TIP3   OH218494   1.523   3.361   3.896
 6184TIP3    H118495   1.558   3.361   3.985
 6184TIP3    H218496   1.489   3.272   3.884
 6185TIP3   OH218497   2.511   5.746   5.984
 6185TIP3    H118498   2.472   5.659   5.972
 6185TIP3    H218499   2.494   5.791   5.901
 6186TIP3   OH218500   4.716   2.477   3.682
 6186TIP3    H118501   4.681   2.554   3.729
 6186TIP3    H218502   4.643   2.449   3.626
 6187TIP3   OH218503   2.413   5.512   4.030
 6187TIP3    H118504   2.367   5.438   4.069
 6187TIP3    H218505   2.344   5.571   4.001
 6188TIP3   OH218506   0.293   1.305   6.521
 6188TIP3    H118507   0.256   1.235   6.574
 6188TIP3    H218508   0.220   1.365   6.507
 6189TIP3   OH218509   6.978   4.269   3.089
 6189TIP3    H118510   7.010   4.300   3.004
 6189TIP3    H218511   7.056   4.236   3.134
 6190TIP3   OH218512   0.270   0.818   6.591
 6190TIP3    H118513   0.194   0.801   6.536
 6190TIP3    H218514   0.345   0.793   6.537
 6191TIP3   OH218515   1.871   7.589   5.947
 6191TIP3    H118516   1.939   7.529   5.978
 6191TIP3    H218517   1.876   7.663   6.008
 6192TIP3   OH218518   2.513   6.937   5.072
 6192TIP3    H118519   2.568   6.899   5.140
 6192TIP3    H218520   2.455   6.997   5.119
 6193TIP3   OH218521   5.672   1.244   6.702
 6193TIP3    H118522   5.730   1.233   6.778
 6193TIP3    H218523   5.678   1.162   6.654
 6194TIP3   OH218524   1.682   6.133   4.684
 6194TIP3    H118525   1.760   6.121   4.739
 6194TIP3    H218526   1.610   6.096   4.736
 6195TIP3   OH218527   1.067   4.842   5.161
 6195TIP3    H118528   1.008   4.767   5.163
 6195TIP3    H218529   1.038   4.898   5.233
 6196TIP3   OH218530   5.108   1.202   1.092
 6196TIP3    H118531   5.185   1.170   1.139
 6196TIP3    H218532   5.138   1.216   1.003
 6197TIP3   OH218533   4.656   0.198   4.799
 6197TIP3    H118534   4.748   0.173   4.805
 6197TIP3    H218535   4.611   0.139   4.859
 6198TIP3   OH218536   3.276   2.441   2.091
 6198TIP3    H118537   3.362   2.402   2.079
 6198TIP3    H218538   3.219   2.392   2.032
 6199TIP3   OH218539   3.750   3.080   5.192
 6199TIP3    H118540   3.760   3.071   5.097
 6199TIP3    H218541   3.666   3.125   5.203
 6200TIP3   OH218542   5.941   0.209   1.592
 6200TIP3    H118543   6.027   0.249   1.603
 6200TIP3    H218544   5.947   0.162   1.508
 6201TIP3   OH218545   3.644   4.494   0.130
 6201TIP3    H118546   3.618   4.575   0.173
 6201TIP3    H218547   3.621   4.508   0.038
 6202TIP3   OH218548   5.918   4.313   0.947
 6202TIP3    H118549   5.838   4.297   0.899
 6202TIP3    H218550   5.969   4.232   0.937
 6203TIP3   OH218551   6.285   2.707   4.293
 6203TIP3    H118552   6.354   2.669   4.348
 6203TIP3    H218553   6.332   2.744   4.219
 6204TIP3   OH218554   0.622   0.127   5.960
 6204TIP3    H118555   0.647   0.200   6.017
 6204TIP3    H218556   0.699   0.112   5.905
 6205TIP3   OH218557   5.839   4.088   5.651
 6205TIP3    H118558   5.819   4.138   5.572
 6205TIP3    H218559   5.792   4.005   5.639
 6206TIP3   OH218560   4.926   2.917   0.572
 6206TIP3    H118561   4.836   2.946   0.581
 6206TIP3    H218562   4.966   2.939   0.657
 6207TIP3   OH218563   1.896   7.732   1.481
 6207TIP3    H118564   1.975   7.773   1.515
 6207TIP3    H218565   1.896   7.755   1.388
 6208TIP3   OH218566   8.107   4.946   0.081
 6208TIP3    H118567   8.145   4.942  -0.007
 6208TIP3    H218568   8.078   4.857   0.099
 6209TIP3   OH218569   5.100   6.864   3.938
 6209TIP3    H118570   5.135   6.784   3.977
 6209TIP3    H218571   5.014   6.875   3.979
 6210TIP3   OH218572   3.404   6.542   5.527
 6210TIP3    H118573   3.423   6.459   5.483
 6210TIP3    H218574   3.315   6.564   5.500
 6211TIP3   OH218575   4.862   6.405   3.630
 6211TIP3    H118576   4.826   6.338   3.572
 6211TIP3    H218577   4.797   6.475   3.629
 6212TIP3   OH218578   7.440   4.171   1.596
 6212TIP3    H118579   7.527   4.130   1.598
 6212TIP3    H218580   7.430   4.201   1.506
 6213TIP3   OH218581   6.537   3.148   0.434
 6213TIP3    H118582   6.572   3.210   0.498
 6213TIP3    H218583   6.612   3.094   0.409
 6214TIP3   OH218584   3.946   7.207   2.343
 6214TIP3    H118585   3.974   7.215   2.434
 6214TIP3    H218586   3.934   7.298   2.314
 6215TIP3   OH218587   8.038   4.712   0.431
 6215TIP3    H118588   8.055   4.689   0.340
 6215TIP3    H218589   8.063   4.804   0.437
 6216TIP3   OH218590   6.088   4.469   5.103
 6216TIP3    H118591   6.045   4.401   5.051
 6216TIP3    H218592   6.174   4.479   5.062
 6217TIP3   OH218593   6.818   5.216   6.546
 6217TIP3    H118594   6.726   5.241   6.553
 6217TIP3    H218595   6.837   5.218   6.452
 6218TIP3   OH218596   1.138   3.080   3.118
 6218TIP3    H118597   1.050   3.043   3.127
 6218TIP3    H218598   1.145   3.142   3.191
 6219TIP3   OH218599   7.099   1.377   0.092
 6219TIP3    H118600   7.019   1.356   0.043
 6219TIP3    H218601   7.162   1.403   0.024
 6220TIP3   OH218602   0.501   2.778   1.973
 6220TIP3    H118603   0.410   2.797   1.994
 6220TIP3    H218604   0.534   2.860   1.935
 6221TIP3   OH218605   5.813   3.046   2.785
 6221TIP3    H118606   5.788   3.138   2.797
 6221TIP3    H218607   5.858   3.023   2.865
 6222TIP3   OH218608   6.764   1.516   4.910
 6222TIP3    H118609   6.682   1.561   4.887
 6222TIP3    H218610   6.751   1.426   4.882
 6223TIP3   OH218611   1.586   4.249   0.809
 6223TIP3    H118612   1.562   4.310   0.878
 6223TIP3    H218613   1.532   4.171   0.825
 6224TIP3   OH218614   4.282   2.827   6.589
 6224TIP3    H118615   4.201   2.783   6.565
 6224TIP3    H218616   4.324   2.848   6.505
 6225TIP3   OH218617   2.031   4.712   5.593
 6225TIP3    H118618   1.995   4.784   5.645
 6225TIP3    H218619   1.998   4.632   5.635
 6226TIP3   OH218620   4.872   6.035   0.452
 6226TIP3    H118621   4.906   6.124   0.452
 6226TIP3    H218622   4.948   5.980   0.469
 6227TIP3   OH218623   6.537   0.387   3.087
 6227TIP3    H118624   6.526   0.479   3.064
 6227TIP3    H218625   6.632   0.376   3.097
 6228TIP3   OH218626   5.167   2.634   5.400
 6228TIP3    H118627   5.175   2.542   5.375
 6228TIP3    H218628   5.168   2.634   5.496
 6229TIP3   OH218629   0.832   1.398   0.169
 6229TIP3    H118630   0.767   1.452   0.215
 6229TIP3    H218631   0.916   1.439   0.189
 6230TIP3   OH218632   3.417   0.889   3.079
 6230TIP3    H118633   3.463   0.852   3.154
 6230TIP3    H218634   3.395   0.978   3.106
 6231TIP3   OH218635   7.572   0.653   2.807
 6231TIP3    H118636   7.624   0.715   2.858
 6231TIP3    H218637   7.581   0.682   2.717
 6232TIP3   OH218638   5.550   7.287   0.699
 6232TIP3    H118639   5.565   7.192   0.705
 6232TIP3    H218640   5.604   7.314   0.624
 6233TIP3   OH218641   7.602   2.168   5.513
 6233TIP3    H118642   7.696   2.183   5.523
 6233TIP3    H218643   7.571   2.148   5.602
 6234TIP3   OH218644   0.783   4.467   3.893
 6234TIP3    H118645   0.865   4.486   3.938
 6234TIP3    H218646   0.717   4.520   3.938
 6235TIP3   OH218647   6.759   7.532   4.660
 6235TIP3    H118648   6.705   7.506   4.735
 6235TIP3    H218649   6.781   7.624   4.678
 6236TIP3   OH218650   0.118   3.421   0.871
 6236TIP3    H118651   0.045   3.387   0.923
 6236TIP3    H218652   0.153   3.344   0.826
 6237TIP3   OH218653   0.309   2.956   3.924
 6237TIP3    H118654   0.214   2.949   3.922
 6237TIP3    H218655   0.326   3.051   3.923
 6238TIP3   OH218656   7.769   4.822   0.825
 6238TIP3    H118657   7.716   4.747   0.799
 6238TIP3    H218658   7.857   4.801   0.794
 6239TIP3   OH218659   5.980   1.184   1.762
 6239TIP3    H118660   5.888   1.192   1.734
 6239TIP3    H218661   6.009   1.274   1.776
 6240TIP3   OH218662  -0.013   2.340   2.380
 6240TIP3    H118663   0.030   2.291   2.450
 6240TIP3    H218664   0.057   2.362   2.319
 6241TIP3   OH218665   7.062   0.551   2.432
 6241TIP3    H118666   7.071   0.625   2.492
 6241TIP3    H218667   7.015   0.485   2.482
 6242TIP3   OH218668   7.854   6.229   0.537
 6242TIP3    H118669   7.777   6.234   0.594
 6242TIP3    H218670   7.867   6.136   0.523
 6243TIP3   OH218671   5.488   2.151   2.051
 6243TIP3    H118672   5.452   2.222   1.997
 6243TIP3    H218673   5.483   2.073   1.995
 6244TIP3   OH218674   6.409   7.783   3.405
 6244TIP3    H118675   6.335   7.743   3.451
 6244TIP3    H218676   6.393   7.764   3.312
 6245TIP3   OH218677   1.658   5.029   4.904
 6245TIP3    H118678   1.722   4.969   4.943
 6245TIP3    H218679   1.573   4.997   4.934
 6246TIP3   OH218680   8.293   4.607   1.331
 6246TIP3    H118681   8.375   4.620   1.378
 6246TIP3    H218682   8.277   4.690   1.286
 6247TIP3   OH218683   5.844   0.605   6.311
 6247TIP3    H118684   5.925   0.623   6.358
 6247TIP3    H218685   5.846   0.511   6.296
 6248TIP3   OH218686   5.940   2.997   6.152
 6248TIP3    H118687   5.901   3.084   6.164
 6248TIP3    H218688   5.903   2.965   6.070
 6249TIP3   OH218689   7.086   5.648   1.011
 6249TIP3    H118690   7.005   5.699   1.008
 6249TIP3    H218691   7.097   5.613   0.922
 6250TIP3   OH218692   5.700   1.761   1.399
 6250TIP3    H118693   5.793   1.771   1.421
 6250TIP3    H218694   5.668   1.851   1.388
 6251TIP3   OH218695   0.317   5.628   3.749
 6251TIP3    H118696   0.402   5.590   3.730
 6251TIP3    H218697   0.302   5.608   3.842
 6252TIP3   OH218698   2.443   3.746   0.903
 6252TIP3    H118699   2.477   3.703   0.982
 6252TIP3    H218700   2.368   3.796   0.933
 6253TIP3   OH218701   3.116   1.503   5.536
 6253TIP3    H118702   3.058   1.491   5.611
 6253TIP3    H218703   3.158   1.588   5.551
 6254TIP3   OH218704   4.896   6.768   2.912
 6254TIP3    H118705   4.874   6.861   2.916
 6254TIP3    H218706   4.882   6.736   3.002
 6255TIP3   OH218707   2.601   3.910   3.083
 6255TIP3    H118708   2.661   3.852   3.037
 6255TIP3    H218709   2.657   3.965   3.138
 6256TIP3   OH218710   7.687   3.184   3.795
 6256TIP3    H118711   7.776   3.151   3.779
 6256TIP3    H218712   7.675   3.175   3.890
 6257TIP3   OH218713   2.167   3.801   3.235
 6257TIP3    H118714   2.159   3.829   3.144
 6257TIP3    H218715   2.249   3.753   3.239
 6258TIP3   OH218716   5.665   6.329   5.208
 6258TIP3    H118717   5.643   6.392   5.140
 6258TIP3    H218718   5.756   6.348   5.230
 6259TIP3   OH218719   6.760   6.464   3.459
 6259TIP3    H118720   6.753   6.467   3.554
 6259TIP3    H218721   6.835   6.520   3.439
 6260TIP3   OH218722   4.206   1.121   0.104
 6260TIP3    H118723   4.116   1.145   0.122
 6260TIP3    H218724   4.257   1.164   0.173
 6261TIP3   OH218725   1.992   2.320   6.125
 6261TIP3    H118726   2.010   2.239   6.077
 6261TIP3    H218727   1.980   2.293   6.216
 6262TIP3   OH218728   0.283   1.187   2.191
 6262TIP3    H118729   0.210   1.161   2.247
 6262TIP3    H218730   0.300   1.111   2.136
 6263TIP3   OH218731   6.802   7.540   0.052
 6263TIP3    H118732   6.832   7.499   0.133
 6263TIP3    H218733   6.788   7.467  -0.008
 6264TIP3   OH218734   6.860   7.088   6.226
 6264TIP3    H118735   6.928   7.152   6.201
 6264TIP3    H218736   6.812   7.072   6.145
 6265TIP3   OH218737   0.064   7.624   0.311
 6265TIP3    H118738   0.062   7.561   0.384
 6265TIP3    H218739   0.028   7.704   0.348
 6266TIP3   OH218740   5.104   5.003   1.546
 6266TIP3    H118741   5.130   5.074   1.604
 6266TIP3    H218742   5.040   5.042   1.487
 6267TIP3   OH218743   3.221   4.284   0.587
 6267TIP3    H118744   3.277   4.235   0.647
 6267TIP3    H218745   3.242   4.376   0.604
 6268TIP3   OH218746   7.883   0.085   2.399
 6268TIP3    H118747   7.864   0.046   2.484
 6268TIP3    H218748   7.945   0.025   2.358
 6269TIP3   OH218749   2.530   4.423   3.653
 6269TIP3    H118750   2.516   4.436   3.559
 6269TIP3    H218751   2.485   4.496   3.694
 6270TIP3   OH218752   1.237   1.161   6.046
 6270TIP3    H118753   1.240   1.085   6.104
 6270TIP3    H218754   1.150   1.159   6.006
 6271TIP3   OH218755   6.932   4.504   4.346
 6271TIP3    H118756   7.021   4.468   4.336
 6271TIP3    H218757   6.934   4.587   4.299
 6272TIP3   OH218758   6.986   4.692   5.860
 6272TIP3    H118759   7.082   4.694   5.859
 6272TIP3    H218760   6.960   4.749   5.787
 6273TIP3   OH218761   1.244   7.145   4.117
 6273TIP3    H118762   1.334   7.170   4.096
 6273TIP3    H218763   1.250   7.107   4.204
 6274TIP3   OH218764   7.384   7.585   1.038
 6274TIP3    H118765   7.357   7.511   0.983
 6274TIP3    H218766   7.413   7.652   0.976
 6275TIP3   OH218767   1.504   2.848   1.551
 6275TIP3    H118768   1.418   2.810   1.567
 6275TIP3    H218769   1.555   2.827   1.629
 6276TIP3   OH218770   3.321   2.520   3.240
 6276TIP3    H118771   3.268   2.455   3.195
 6276TIP3    H218772   3.297   2.603   3.200
 6277TIP3   OH218773   7.127   1.185   0.810
 6277TIP3    H118774   7.209   1.155   0.771
 6277TIP3    H218775   7.091   1.246   0.746
 6278TIP3   OH218776   2.523   5.194   1.827
 6278TIP3    H118777   2.532   5.243   1.746
 6278TIP3    H218778   2.436   5.154   1.821
 6279TIP3   OH218779   2.388   5.065   1.356
 6279TIP3    H118780   2.304   5.024   1.376
 6279TIP3    H218781   2.414   5.026   1.273
 6280TIP3   OH218782   2.463   5.686   4.270
 6280TIP3    H118783   2.545   5.719   4.233
 6280TIP3    H218784   2.421   5.640   4.197
 6281TIP3   OH218785   5.935   2.709   1.718
 6281TIP3    H118786   6.001   2.712   1.648
 6281TIP3    H218787   5.915   2.616   1.728
 6282TIP3   OH218788   4.026   7.376   5.836
 6282TIP3    H118789   3.978   7.453   5.866
 6282TIP3    H218790   3.969   7.338   5.768
 6283TIP3   OH218791   3.164   0.917   1.580
 6283TIP3    H118792   3.193   0.876   1.498
 6283TIP3    H218793   3.236   0.977   1.602
 6284TIP3   OH218794   4.221   6.693   3.594
 6284TIP3    H118795   4.260   6.711   3.680
 6284TIP3    H218796   4.129   6.716   3.605
 6285TIP3   OH218797   4.233   2.654   5.732
 6285TIP3    H118798   4.176   2.615   5.666
 6285TIP3    H218799   4.307   2.689   5.683
 6286TIP3   OH218800   5.919   1.083   2.427
 6286TIP3    H118801   5.832   1.123   2.422
 6286TIP3    H218802   5.959   1.121   2.504
 6287TIP3   OH218803   1.038   6.525   0.831
 6287TIP3    H118804   1.032   6.431   0.816
 6287TIP3    H218805   1.098   6.556   0.764
 6288TIP3   OH218806   3.941   6.871   0.133
 6288TIP3    H118807   3.846   6.875   0.130
 6288TIP3    H218808   3.961   6.861   0.226
 6289TIP3   OH218809   6.351   1.303   0.823
 6289TIP3    H118810   6.335   1.223   0.873
 6289TIP3    H218811   6.442   1.326   0.844
 6290TIP3   OH218812   0.781   7.092   3.771
 6290TIP3    H118813   0.775   7.060   3.681
 6290TIP3    H218814   0.750   7.019   3.824
 6291TIP3   OH218815   5.611   0.091   4.554
 6291TIP3    H118816   5.594   0.162   4.492
 6291TIP3    H218817   5.681   0.040   4.513
 6292TIP3   OH218818   7.466   2.043   3.452
 6292TIP3    H118819   7.456   2.127   3.406
 6292TIP3    H218820   7.553   2.047   3.491
 6293TIP3   OH218821   1.727   2.379   5.537
 6293TIP3    H118822   1.814   2.356   5.504
 6293TIP3    H218823   1.695   2.445   5.477
 6294TIP3   OH218824   4.952   2.778   2.011
 6294TIP3    H118825   4.878   2.775   1.950
 6294TIP3    H218826   5.030   2.773   1.954
 6295TIP3   OH218827   0.313   2.239   6.788
 6295TIP3    H118828   0.316   2.184   6.709
 6295TIP3    H218829   0.232   2.214   6.831
 6296TIP3   OH218830   5.307   1.455   4.048
 6296TIP3    H118831   5.370   1.447   3.977
 6296TIP3    H218832   5.266   1.540   4.035
 6297TIP3   OH218833   7.157   5.896   4.705
 6297TIP3    H118834   7.082   5.855   4.747
 6297TIP3    H218835   7.227   5.831   4.712
 6298TIP3   OH218836   3.403   0.607   1.590
 6298TIP3    H118837   3.409   0.546   1.663
 6298TIP3    H218838   3.433   0.691   1.625
 6299TIP3   OH218839   4.182   0.761   4.670
 6299TIP3    H118840   4.128   0.809   4.733
 6299TIP3    H218841   4.252   0.721   4.723
 6300TIP3   OH218842   1.390   6.443   1.069
 6300TIP3    H118843   1.331   6.498   1.017
 6300TIP3    H218844   1.470   6.495   1.076
 6301TIP3   OH218845   3.856   7.005   0.442
 6301TIP3    H118846   3.806   7.009   0.523
 6301TIP3    H218847   3.945   7.032   0.467
 6302TIP3   OH218848   5.885   1.961   5.317
 6302TIP3    H118849   5.902   1.867   5.314
 6302TIP3    H218850   5.821   1.976   5.247
 6303TIP3   OH218851   1.898   0.477   4.098
 6303TIP3    H118852   1.831   0.426   4.142
 6303TIP3    H218853   1.957   0.506   4.167
 6304TIP3   OH218854   0.393   1.393   5.685
 6304TIP3    H118855   0.450   1.377   5.760
 6304TIP3    H218856   0.335   1.464   5.713
 6305TIP3   OH218857   3.888   5.281   1.606
 6305TIP3    H118858   3.802   5.319   1.622
 6305TIP3    H218859   3.876   5.188   1.625
 6306TIP3   OH218860   5.451   6.757   4.055
 6306TIP3    H118861   5.374   6.769   4.110
 6306TIP3    H218862   5.525   6.772   4.113
 6307TIP3   OH218863   5.307   0.043   0.253
 6307TIP3    H118864   5.382   0.102   0.241
 6307TIP3    H218865   5.305   0.026   0.347
 6308TIP3   OH218866   1.172   2.074   0.011
 6308TIP3    H118867   1.144   2.016  -0.059
 6308TIP3    H218868   1.104   2.067   0.077
 6309TIP3   OH218869   3.930   2.131   5.724
 6309TIP3    H118870   3.848   2.162   5.760
 6309TIP3    H218871   3.997   2.183   5.767
 6310TIP3   OH218872   4.837   6.581   6.160
 6310TIP3    H118873   4.781   6.620   6.227
 6310TIP3    H218874   4.816   6.488   6.162
 6311TIP3   OH218875   3.542   6.460   6.393
 6311TIP3    H118876   3.620   6.437   6.444
 6311TIP3    H218877   3.541   6.396   6.322
 6312TIP3   OH218878   0.879   5.000   2.521
 6312TIP3    H118879   0.914   4.990   2.432
 6312TIP3    H218880   0.946   4.961   2.578
 6313TIP3   OH218881   5.141   3.538   4.886
 6313TIP3    H118882   5.069   3.490   4.846
 6313TIP3    H218883   5.124   3.534   4.980
 6314TIP3   OH218884   8.290   3.582   4.742
 6314TIP3    H118885   8.214   3.633   4.772
 6314TIP3    H218886   8.321   3.629   4.665
 6315TIP3   OH218887   3.516   4.261   4.106
 6315TIP3    H118888   3.539   4.218   4.189
 6315TIP3    H218889   3.475   4.343   4.133
 6316TIP3   OH218890   5.553   3.043   2.202
 6316TIP3    H118891   5.590   2.961   2.233
 6316TIP3    H218892   5.498   3.019   2.128
 6317TIP3   OH218893   2.438   6.866   0.070
 6317TIP3    H118894   2.349   6.901   0.064
 6317TIP3    H218895   2.494   6.938   0.043
 6318TIP3   OH218896   0.115   6.766   0.783
 6318TIP3    H118897   0.061   6.725   0.716
 6318TIP3    H218898   0.205   6.743   0.759
 6319TIP3   OH218899   0.589   5.480   3.773
 6319TIP3    H118900   0.632   5.476   3.858
 6319TIP3    H218901   0.650   5.528   3.717
 6320TIP3   OH218902   6.056   5.605   4.511
 6320TIP3    H118903   6.034   5.698   4.516
 6320TIP3    H218904   6.151   5.604   4.495
 6321TIP3   OH218905   7.579   7.731   1.367
 6321TIP3    H118906   7.656   7.770   1.408
 6321TIP3    H218907   7.560   7.789   1.293
 6322TIP3   OH218908   6.439   5.801   6.584
 6322TIP3    H118909   6.423   5.810   6.678
 6322TIP3    H218910   6.477   5.714   6.574
 6323TIP3   OH218911   5.546   4.840   1.087
 6323TIP3    H118912   5.462   4.797   1.103
 6323TIP3    H218913   5.569   4.817   0.997
 6324TIP3   OH218914   3.557   4.179   3.416
 6324TIP3    H118915   3.519   4.114   3.357
 6324TIP3    H218916   3.649   4.153   3.424
 6325TIP3   OH218917   6.912   5.462   1.259
 6325TIP3    H118918   6.988   5.507   1.296
 6325TIP3    H218919   6.845   5.530   1.250
 6326TIP3   OH218920   8.197   5.428   4.598
 6326TIP3    H118921   8.220   5.491   4.667
 6326TIP3    H218922   8.102   5.419   4.605
 6327TIP3   OH218923   6.723   1.316   1.317
 6327TIP3    H118924   6.748   1.315   1.410
 6327TIP3    H218925   6.801   1.345   1.271
 6328TIP3   OH218926   3.058   2.793   1.469
 6328TIP3    H118927   3.088   2.800   1.560
 6328TIP3    H218928   3.055   2.699   1.452
 6329TIP3   OH218929   4.165   1.125   6.013
 6329TIP3    H118930   4.092   1.068   5.990
 6329TIP3    H218931   4.214   1.135   5.931
 6330TIP3   OH218932   2.949   4.245   4.461
 6330TIP3    H118933   2.944   4.338   4.485
 6330TIP3    H218934   2.861   4.223   4.432
 6331TIP3   OH218935   6.699   2.089   5.339
 6331TIP3    H118936   6.756   2.165   5.351
 6331TIP3    H218937   6.730   2.025   5.403
 6332TIP3   OH218938   1.156   6.222   2.048
 6332TIP3    H118939   1.129   6.145   2.097
 6332TIP3    H218940   1.216   6.188   1.981
 6333TIP3   OH218941   6.144   2.447   5.750
 6333TIP3    H118942   6.193   2.420   5.673
 6333TIP3    H218943   6.052   2.442   5.723
 6334TIP3   OH218944   2.246   1.851   2.074
 6334TIP3    H118945   2.200   1.794   2.011
 6334TIP3    H218946   2.175   1.890   2.125
 6335TIP3   OH218947   6.541   0.002   1.390
 6335TIP3    H118948   6.607   0.041   1.333
 6335TIP3    H218949   6.465  -0.013   1.334
 6336TIP3   OH218950   1.271   3.703   6.346
 6336TIP3    H118951   1.187   3.712   6.390
 6336TIP3    H218952   1.332   3.675   6.414
 6337TIP3   OH218953   1.929   4.457   4.584
 6337TIP3    H118954   1.954   4.419   4.500
 6337TIP3    H218955   1.866   4.525   4.561
 6338TIP3   OH218956   2.278   7.358   2.674
 6338TIP3    H118957   2.316   7.359   2.586
 6338TIP3    H218958   2.185   7.371   2.660
 6339TIP3   OH218959   5.251   3.474   5.589
 6339TIP3    H118960   5.285   3.416   5.657
 6339TIP3    H218961   5.326   3.489   5.532
 6340TIP3   OH218962   7.135   2.329   6.065
 6340TIP3    H118963   7.178   2.268   6.126
 6340TIP3    H218964   7.207   2.380   6.028
 6341TIP3   OH218965   2.588   1.374   6.315
 6341TIP3    H118966   2.576   1.397   6.407
 6341TIP3    H218967   2.559   1.452   6.268
 6342TIP3   OH218968   6.932   0.440   4.569
 6342TIP3    H118969   6.988   0.406   4.498
 6342TIP3    H218970   6.991   0.493   4.622
 6343TIP3   OH218971   1.210   3.765   1.640
 6343TIP3    H118972   1.233   3.672   1.633
 6343TIP3    H218973   1.153   3.781   1.566
 6344TIP3   OH218974   0.798   6.017   2.144
 6344TIP3    H118975   0.732   6.047   2.082
 6344TIP3    H218976   0.756   5.944   2.190
 6345TIP3   OH218977   4.976   6.131   4.809
 6345TIP3    H118978   5.005   6.222   4.813
 6345TIP3    H218979   5.031   6.086   4.874
 6346TIP3   OH218980   1.277   2.338   3.770
 6346TIP3    H118981   1.230   2.356   3.851
 6346TIP3    H218982   1.292   2.424   3.730
 6347TIP3   OH218983   6.821   5.014   2.023
 6347TIP3    H118984   6.796   4.922   2.025
 6347TIP3    H218985   6.754   5.056   1.970
 6348TIP3   OH218986   0.187   1.723   4.181
 6348TIP3    H118987   0.206   1.639   4.222
 6348TIP3    H218988   0.091   1.727   4.176
 6349TIP3   OH218989   3.453   2.167   0.228
 6349TIP3    H118990   3.471   2.148   0.320
 6349TIP3    H218991   3.429   2.260   0.228
 6350TIP3   OH218992   2.249   0.472   6.255
 6350TIP3    H118993   2.314   0.475   6.326
 6350TIP3    H218994   2.261   0.386   6.215
 6351TIP3   OH218995   2.656   0.022   0.032
 6351TIP3    H118996   2.577   0.044  -0.017
 6351TIP3    H218997   2.676   0.101   0.082
 6352TIP3   OH218998   7.527   6.242   3.839
 6352TIP3    H118999   7.522   6.147   3.832
 6352TIP3    H219000   7.436   6.271   3.848
 6353TIP3   OH219001   2.782   0.529   0.396
 6353TIP3    H119002   2.865   0.526   0.444
 6353TIP3    H219003   2.734   0.452   0.428
 6354TIP3   OH219004   3.068   2.335   6.113
 6354TIP3    H119005   3.137   2.380   6.161
 6354TIP3    H219006   3.113   2.296   6.038
 6355TIP3   OH219007   1.441   7.544   5.049
 6355TIP3    H119008   1.466   7.455   5.074
 6355TIP3    H219009   1.362   7.533   4.996
 6356TIP3   OH219010   4.169   1.793   3.074
 6356TIP3    H119011   4.097   1.772   3.133
 6356TIP3    H219012   4.127   1.809   2.989
 6357TIP3   OH219013   0.876   1.465   1.567
 6357TIP3    H119014   0.818   1.540   1.577
 6357TIP3    H219015   0.952   1.486   1.622
 6358TIP3   OH219016   7.920   0.666   2.388
 6358TIP3    H119017   7.926   0.740   2.327
 6358TIP3    H219018   7.990   0.607   2.362
 6359TIP3   OH219019   4.566   1.340   2.657
 6359TIP3    H119020   4.480   1.300   2.644
 6359TIP3    H219021   4.569   1.362   2.750
 6360TIP3   OH219022   6.388   2.336   6.394
 6360TIP3    H119023   6.392   2.303   6.483
 6360TIP3    H219024   6.393   2.431   6.402
 6361TIP3   OH219025   6.587   3.913   1.022
 6361TIP3    H119026   6.627   3.845   0.967
 6361TIP3    H219027   6.520   3.866   1.072
 6362TIP3   OH219028   5.172   3.667   3.427
 6362TIP3    H119029   5.104   3.655   3.361
 6362TIP3    H219030   5.125   3.673   3.510
 6363TIP3   OH219031   4.241   0.851   2.988
 6363TIP3    H119032   4.224   0.881   2.899
 6363TIP3    H219033   4.171   0.787   3.005
 6364TIP3   OH219034   4.697   0.678   4.590
 6364TIP3    H119035   4.630   0.730   4.635
 6364TIP3    H219036   4.739   0.629   4.661
 6365TIP3   OH219037   1.210   4.003   2.341
 6365TIP3    H119038   1.216   3.966   2.429
 6365TIP3    H219039   1.118   3.995   2.317
 6366TIP3   OH219040   2.249   4.175   5.311
 6366TIP3    H119041   2.296   4.200   5.231
 6366TIP3    H219042   2.171   4.229   5.312
 6367TIP3   OH219043   2.142   0.382   2.083
 6367TIP3    H119044   2.146   0.307   2.142
 6367TIP3    H219045   2.126   0.344   1.997
 6368TIP3   OH219046   4.498   1.119   4.741
 6368TIP3    H119047   4.426   1.151   4.688
 6368TIP3    H219048   4.487   1.161   4.826
 6369TIP3   OH219049   2.519   5.949   6.373
 6369TIP3    H119050   2.497   5.978   6.462
 6369TIP3    H219051   2.480   5.862   6.365
 6370TIP3   OH219052   4.323   5.857   3.906
 6370TIP3    H119053   4.347   5.909   3.830
 6370TIP3    H219054   4.346   5.767   3.882
 6371TIP3   OH219055   3.175   5.379   2.952
 6371TIP3    H119056   3.104   5.418   3.003
 6371TIP3    H219057   3.131   5.338   2.877
 6372TIP3   OH219058   7.835   0.535   3.191
 6372TIP3    H119059   7.811   0.626   3.171
 6372TIP3    H219060   7.786   0.483   3.127
 6373TIP3   OH219061   6.863   4.890   4.482
 6373TIP3    H119062   6.854   4.832   4.557
 6373TIP3    H219063   6.774   4.923   4.467
 6374TIP3   OH219064   7.355   1.184   4.679
 6374TIP3    H119065   7.278   1.141   4.717
 6374TIP3    H219066   7.398   1.115   4.629
 6375TIP3   OH219067   0.889   7.608   2.735
 6375TIP3    H119068   0.815   7.643   2.786
 6375TIP3    H219069   0.920   7.534   2.787
 6376TIP3   OH219070   0.579   6.781   2.892
 6376TIP3    H119071   0.620   6.765   2.807
 6376TIP3    H219072   0.605   6.707   2.946
 6377TIP3   OH219073   6.407   1.478   5.543
 6377TIP3    H119074   6.435   1.433   5.623
 6377TIP3    H219075   6.413   1.411   5.475
 6378TIP3   OH219076   7.395   0.840   3.566
 6378TIP3    H119077   7.414   0.863   3.474
 6378TIP3    H219078   7.333   0.768   3.560
 6379TIP3   OH219079   0.968   4.292   6.191
 6379TIP3    H119080   1.037   4.227   6.178
 6379TIP3    H219081   0.918   4.259   6.266
 6380TIP3   OH219082   4.879   4.742   4.981
 6380TIP3    H119083   4.816   4.811   5.004
 6380TIP3    H219084   4.860   4.671   5.043
 6381TIP3   OH219085   7.367   2.167   3.874
 6381TIP3    H119086   7.350   2.095   3.813
 6381TIP3    H219087   7.455   2.197   3.852
 6382TIP3   OH219088   4.645   2.013   4.614
 6382TIP3    H119089   4.570   1.960   4.588
 6382TIP3    H219090   4.658   2.074   4.541
 6383TIP3   OH219091   0.309   1.979   3.348
 6383TIP3    H119092   0.331   1.913   3.414
 6383TIP3    H219093   0.364   1.957   3.273
 6384TIP3   OH219094   0.756   2.667   0.508
 6384TIP3    H119095   0.709   2.639   0.430
 6384TIP3    H219096   0.839   2.619   0.505
 6385TIP3   OH219097   1.580   4.523   2.261
 6385TIP3    H119098   1.669   4.528   2.296
 6385TIP3    H219099   1.592   4.526   2.166
 6386TIP3   OH219100   7.094   1.514   3.038
 6386TIP3    H119101   7.160   1.542   3.102
 6386TIP3    H219102   7.128   1.544   2.954
 6387TIP3   OH219103   6.041   2.672   3.722
 6387TIP3    H119104   5.972   2.647   3.660
 6387TIP3    H219105   6.026   2.765   3.739
 6388TIP3   OH219106   7.237   7.192   4.877
 6388TIP3    H119107   7.241   7.188   4.781
 6388TIP3    H219108   7.289   7.270   4.899
 6389TIP3   OH219109   3.548   5.077   1.605
 6389TIP3    H119110   3.636   5.043   1.620
 6389TIP3    H219111   3.547   5.163   1.647
 6390TIP3   OH219112   1.582   2.756   3.741
 6390TIP3    H119113   1.634   2.691   3.694
 6390TIP3    H219114   1.546   2.708   3.815
 6391TIP3   OH219115   7.759   0.798   3.197
 6391TIP3    H119116   7.733   0.888   3.217
 6391TIP3    H219117   7.727   0.747   3.272
 6392TIP3   OH219118   1.731   3.518   1.491
 6392TIP3    H119119   1.784   3.591   1.523
 6392TIP3    H219120   1.724   3.457   1.565
 6393TIP3   OH219121   1.628   5.429   3.572
 6393TIP3    H119122   1.591   5.513   3.597
 6393TIP3    H219123   1.721   5.437   3.593
 6394TIP3   OH219124   1.594   1.297   3.075
 6394TIP3    H119125   1.653   1.233   3.037
 6394TIP3    H219126   1.635   1.322   3.158
 6395TIP3   OH219127   4.938   7.368   3.190
 6395TIP3    H119128   5.009   7.389   3.129
 6395TIP3    H219129   4.859   7.374   3.136
 6396TIP3   OH219130   6.690   2.735   6.720
 6396TIP3    H119131   6.649   2.666   6.773
 6396TIP3    H219132   6.784   2.724   6.736
 6397TIP3   OH219133   5.964   1.391   5.139
 6397TIP3    H119134   6.026   1.412   5.209
 6397TIP3    H219135   6.012   1.407   5.058
 6398TIP3   OH219136   3.177   7.207   1.537
 6398TIP3    H119137   3.196   7.115   1.518
 6398TIP3    H219138   3.210   7.220   1.626
 6399TIP3   OH219139   0.251   7.806   1.760
 6399TIP3    H119140   0.270   7.732   1.817
 6399TIP3    H219141   0.330   7.817   1.707
 6400TIP3   OH219142   7.210   3.316   0.673
 6400TIP3    H119143   7.153   3.239   0.673
 6400TIP3    H219144   7.151   3.390   0.684
 6401TIP3   OH219145   6.402   4.170   2.311
 6401TIP3    H119146   6.478   4.133   2.356
 6401TIP3    H219147   6.350   4.094   2.285
 6402TIP3   OH219148   0.922   6.163   2.445
 6402TIP3    H119149   0.988   6.213   2.395
 6402TIP3    H219150   0.967   6.081   2.468
 6403TIP3   OH219151   1.557   0.690   6.513
 6403TIP3    H119152   1.612   0.637   6.454
 6403TIP3    H219153   1.618   0.721   6.581
 6404TIP3   OH219154   5.303   1.427   4.820
 6404TIP3    H119155   5.233   1.362   4.825
 6404TIP3    H219156   5.334   1.421   4.729
 6405TIP3   OH219157   7.207   7.100   3.144
 6405TIP3    H119158   7.241   7.145   3.222
 6405TIP3    H219159   7.285   7.086   3.090
 6406TIP3   OH219160   6.195   5.012   2.920
 6406TIP3    H119161   6.202   5.046   2.831
 6406TIP3    H219162   6.263   4.944   2.925
 6407TIP3   OH219163   1.654   1.673   3.493
 6407TIP3    H119164   1.589   1.608   3.519
 6407TIP3    H219165   1.736   1.624   3.490
 6408TIP3   OH219166   5.811   5.819   4.657
 6408TIP3    H119167   5.753   5.886   4.693
 6408TIP3    H219168   5.836   5.851   4.570
 6409TIP3   OH219169   0.603   0.438   5.163
 6409TIP3    H119170   0.553   0.382   5.222
 6409TIP3    H219171   0.556   0.433   5.080
 6410TIP3   OH219172   0.639   7.734   0.407
 6410TIP3    H119173   0.637   7.749   0.312
 6410TIP3    H219174   0.733   7.733   0.429
 6411TIP3   OH219175   5.032   0.727   0.895
 6411TIP3    H119176   5.084   0.678   0.959
 6411TIP3    H219177   5.089   0.733   0.818
 6412TIP3   OH219178   7.731   1.349   3.872
 6412TIP3    H119179   7.662   1.325   3.934
 6412TIP3    H219180   7.773   1.267   3.849
 6413TIP3   OH219181   4.124   6.265   0.282
 6413TIP3    H119182   4.170   6.319   0.346
 6413TIP3    H219183   4.194   6.226   0.229
 6414TIP3   OH219184   3.991   7.430   5.134
 6414TIP3    H119185   4.005   7.471   5.048
 6414TIP3    H219186   3.932   7.357   5.116
 6415TIP3   OH219187   4.739   4.212   3.137
 6415TIP3    H119188   4.804   4.210   3.207
 6415TIP3    H219189   4.678   4.142   3.159
 6416TIP3   OH219190   0.363   5.165   0.105
 6416TIP3    H119191   0.343   5.165   0.199
 6416TIP3    H219192   0.454   5.192   0.100
 6417TIP3   OH219193   3.844   5.162   3.508
 6417TIP3    H119194   3.834   5.067   3.504
 6417TIP3    H219195   3.853   5.182   3.601
 6418TIP3   OH219196   3.166   7.436   1.387
 6418TIP3    H119197   3.172   7.502   1.457
 6418TIP3    H219198   3.178   7.352   1.433
 6419TIP3   OH219199   7.745   2.515   0.743
 6419TIP3    H119200   7.766   2.559   0.825
 6419TIP3    H219201   7.650   2.508   0.742
 6420TIP3   OH219202   2.438   0.505   2.922
 6420TIP3    H119203   2.439   0.594   2.886
 6420TIP3    H219204   2.417   0.449   2.847
 6421TIP3   OH219205   1.699   3.524   0.505
 6421TIP3    H119206   1.777   3.477   0.533
 6421TIP3    H219207   1.635   3.456   0.486
 6422TIP3   OH219208   4.212   4.361   1.478
 6422TIP3    H119209   4.169   4.366   1.392
 6422TIP3    H219210   4.144   4.384   1.541
 6423TIP3   OH219211   5.357   7.072   3.176
 6423TIP3    H119212   5.446   7.079   3.209
 6423TIP3    H219213   5.322   6.993   3.218
 6424TIP3   OH219214   3.627   2.069   1.820
 6424TIP3    H119215   3.617   2.015   1.898
 6424TIP3    H219216   3.551   2.047   1.766
 6425TIP3   OH219217   8.118   1.647   0.609
 6425TIP3    H119218   8.086   1.620   0.695
 6425TIP3    H219219   8.196   1.699   0.628
 6426TIP3   OH219220   7.603   5.575   2.634
 6426TIP3    H119221   7.556   5.560   2.553
 6426TIP3    H219222   7.588   5.496   2.686
 6427TIP3   OH219223   5.502   0.209   1.687
 6427TIP3    H119224   5.484   0.163   1.769
 6427TIP3    H219225   5.478   0.300   1.705
 6428TIP3   OH219226   1.669   0.608   5.483
 6428TIP3    H119227   1.677   0.660   5.562
 6428TIP3    H219228   1.685   0.670   5.411
 6429TIP3   OH219229   7.235   0.852   5.629
 6429TIP3    H119230   7.158   0.795   5.620
 6429TIP3    H219231   7.207   0.936   5.592
 6430TIP3   OH219232   1.852   3.969   4.145
 6430TIP3    H119233   1.928   3.956   4.202
 6430TIP3    H219234   1.885   3.949   4.057
 6431TIP3   OH219235   7.113   2.684   5.998
 6431TIP3    H119236   7.176   2.644   5.938
 6431TIP3    H219237   7.136   2.777   5.999
 6432TIP3   OH219238   3.184   1.660   5.057
 6432TIP3    H119239   3.259   1.696   5.009
 6432TIP3    H219240   3.161   1.581   5.010
 6433TIP3   OH219241   2.341   6.154   1.216
 6433TIP3    H119242   2.288   6.077   1.195
 6433TIP3    H219243   2.354   6.150   1.311
 6434TIP3   OH219244   4.795   1.015   3.341
 6434TIP3    H119245   4.786   1.076   3.268
 6434TIP3    H219246   4.813   1.071   3.417
 6435TIP3   OH219247   1.552   5.219   4.561
 6435TIP3    H119248   1.604   5.248   4.636
 6435TIP3    H219249   1.496   5.294   4.540
 6436TIP3   OH219250   5.499   5.384   3.844
 6436TIP3    H119251   5.572   5.419   3.793
 6436TIP3    H219252   5.423   5.434   3.813
 6437TIP3   OH219253   3.234   6.811   6.606
 6437TIP3    H119254   3.142   6.794   6.625
 6437TIP3    H219255   3.277   6.726   6.614
 6438TIP3   OH219256   6.189   6.483   3.758
 6438TIP3    H119257   6.211   6.558   3.703
 6438TIP3    H219258   6.095   6.490   3.772
 6439TIP3   OH219259   2.768   0.723   5.146
 6439TIP3    H119260   2.709   0.722   5.071
 6439TIP3    H219261   2.714   0.692   5.219
 6440TIP3   OH219262   5.939   1.678   1.171
 6440TIP3    H119263   5.987   1.655   1.091
 6440TIP3    H219264   5.856   1.712   1.140
 6441TIP3   OH219265   3.154   0.369   3.036
 6441TIP3    H119266   3.191   0.320   2.963
 6441TIP3    H219267   3.067   0.395   3.006
 6442TIP3   OH219268   5.608   1.547   0.470
 6442TIP3    H119269   5.632   1.462   0.507
 6442TIP3    H219270   5.558   1.590   0.539
 6443TIP3   OH219271   2.476   7.500   5.011
 6443TIP3    H119272   2.525   7.421   5.035
 6443TIP3    H219273   2.427   7.475   4.932
 6444TIP3   OH219274   7.765   2.060   4.649
 6444TIP3    H119275   7.695   2.122   4.671
 6444TIP3    H219276   7.791   2.023   4.734
 6445TIP3   OH219277   1.350   5.688   2.491
 6445TIP3    H119278   1.260   5.666   2.515
 6445TIP3    H219279   1.375   5.759   2.550
 6446TIP3   OH219280   2.042   2.591   5.657
 6446TIP3    H119281   2.024   2.538   5.579
 6446TIP3    H219282   2.045   2.528   5.729
 6447TIP3   OH219283   2.106   7.757   4.264
 6447TIP3    H119284   2.129   7.825   4.201
 6447TIP3    H219285   2.164   7.684   4.242
 6448TIP3   OH219286   2.582   2.654   0.185
 6448TIP3    H119287   2.530   2.575   0.199
 6448TIP3    H219288   2.643   2.655   0.258
 6449TIP3   OH219289   6.326   2.236   6.662
 6449TIP3    H119290   6.304   2.276   6.746
 6449TIP3    H219291   6.245   2.240   6.611
 6450TIP3   OH219292   0.935   5.153   1.943
 6450TIP3    H119293   1.025   5.142   1.912
 6450TIP3    H219294   0.881   5.131   1.867
 6451TIP3   OH219295   1.976   6.524   0.347
 6451TIP3    H119296   2.006   6.464   0.415
 6451TIP3    H219297   1.933   6.467   0.283
 6452TIP3   OH219298   0.064   2.563   1.261
 6452TIP3    H119299   0.072   2.586   1.168
 6452TIP3    H219300   0.003   2.489   1.262
 6453TIP3   OH219301   7.941   1.560   3.345
 6453TIP3    H119302   7.930   1.620   3.270
 6453TIP3    H219303   7.980   1.482   3.307
 6454TIP3   OH219304   7.860   3.869   2.393
 6454TIP3    H119305   7.885   3.818   2.470
 6454TIP3    H219306   7.883   3.813   2.319
 6455TIP3   OH219307   6.643   1.255   0.062
 6455TIP3    H119308   6.641   1.171   0.108
 6455TIP3    H219309   6.551   1.281   0.055
 6456TIP3   OH219310   3.355   5.773   1.442
 6456TIP3    H119311   3.387   5.830   1.371
 6456TIP3    H219312   3.397   5.808   1.521
 6457TIP3   OH219313   3.110   5.475   1.173
 6457TIP3    H119314   3.097   5.467   1.078
 6457TIP3    H219315   3.022   5.495   1.207
 6458TIP3   OH219316   2.025   0.569   4.303
 6458TIP3    H119317   1.953   0.620   4.340
 6458TIP3    H219318   2.104   0.609   4.339
 6459TIP3   OH219319   1.338   3.824   4.889
 6459TIP3    H119320   1.293   3.747   4.856
 6459TIP3    H219321   1.268   3.884   4.914
 6460TIP3   OH219322   3.353   0.643   4.543
 6460TIP3    H119323   3.335   0.694   4.464
 6460TIP3    H219324   3.430   0.685   4.582
 6461TIP3   OH219325   6.007   4.579   2.547
 6461TIP3    H119326   6.035   4.666   2.574
 6461TIP3    H219327   5.925   4.593   2.500
 6462TIP3   OH219328   4.444   5.748   0.796
 6462TIP3    H119329   4.487   5.830   0.819
 6462TIP3    H219330   4.351   5.770   0.786
 6463TIP3   OH219331   5.200   3.916   5.707
 6463TIP3    H119332   5.162   3.969   5.638
 6463TIP3    H219333   5.290   3.949   5.715
 6464TIP3   OH219334   5.931   6.688   0.805
 6464TIP3    H119335   5.883   6.650   0.878
 6464TIP3    H219336   5.934   6.782   0.824
 6465TIP3   OH219337   7.915   6.729   2.009
 6465TIP3    H119338   7.954   6.666   1.948
 6465TIP3    H219339   7.825   6.739   1.978
 6466TIP3   OH219340   7.589   7.492   3.329
 6466TIP3    H119341   7.497   7.488   3.354
 6466TIP3    H219342   7.601   7.415   3.272
 6467TIP3   OH219343   6.296   7.675   2.222
 6467TIP3    H119344   6.201   7.682   2.230
 6467TIP3    H219345   6.311   7.646   2.132
 6468TIP3   OH219346   7.899   5.746   0.469
 6468TIP3    H119347   7.845   5.668   0.483
 6468TIP3    H219348   7.979   5.728   0.519
 6469TIP3   OH219349   4.123   7.126   5.956
 6469TIP3    H119350   4.176   7.075   5.895
 6469TIP3    H219351   4.094   7.202   5.905
 6470TIP3   OH219352   7.454   0.159   6.735
 6470TIP3    H119353   7.468   0.191   6.824
 6470TIP3    H219354   7.506   0.216   6.680
 6471TIP3   OH219355   5.413   6.740   6.752
 6471TIP3    H119356   5.456   6.811   6.800
 6471TIP3    H219357   5.358   6.697   6.817
 6472TIP3   OH219358   4.373   0.701   1.679
 6472TIP3    H119359   4.430   0.633   1.641
 6472TIP3    H219360   4.408   0.783   1.644
 6473TIP3   OH219361   1.614   3.123   4.718
 6473TIP3    H119362   1.683   3.149   4.779
 6473TIP3    H219363   1.533   3.152   4.760
 6474TIP3   OH219364   5.379   4.345   2.313
 6474TIP3    H119365   5.398   4.388   2.397
 6474TIP3    H219366   5.413   4.405   2.247
 6475TIP3   OH219367   4.653   1.205   6.005
 6475TIP3    H119368   4.616   1.288   6.035
 6475TIP3    H219369   4.639   1.205   5.911
 6476TIP3   OH219370   2.488   0.926   6.770
 6476TIP3    H119371   2.466   0.857   6.708
 6476TIP3    H219372   2.430   0.999   6.746
 6477TIP3   OH219373   5.462   6.096   1.548
 6477TIP3    H119374   5.426   6.183   1.570
 6477TIP3    H219375   5.462   6.093   1.453
 6478TIP3   OH219376   2.526   0.524   5.129
 6478TIP3    H119377   2.501   0.560   5.044
 6478TIP3    H219378   2.467   0.449   5.141
 6479TIP3   OH219379   0.769   6.662   2.008
 6479TIP3    H119380   0.682   6.669   2.047
 6479TIP3    H219381   0.826   6.709   2.069
 6480TIP3   OH219382   6.477   6.101   0.263
 6480TIP3    H119383   6.421   6.144   0.199
 6480TIP3    H219384   6.549   6.162   0.276
 6481TIP3   OH219385   3.473   2.071   5.572
 6481TIP3    H119386   3.399   2.088   5.514
 6481TIP3    H219387   3.451   2.117   5.653
 6482TIP3   OH219388   3.408   0.390   4.840
 6482TIP3    H119389   3.317   0.403   4.814
 6482TIP3    H219390   3.443   0.327   4.778
 6483TIP3   OH219391   3.803   6.300   0.925
 6483TIP3    H119392   3.739   6.251   0.976
 6483TIP3    H219393   3.792   6.267   0.835
 6484TIP3   OH219394   1.609   0.411   1.069
 6484TIP3    H119395   1.574   0.328   1.101
 6484TIP3    H219396   1.654   0.449   1.145
 6485TIP3   OH219397   4.161   2.492   6.459
 6485TIP3    H119398   4.084   2.536   6.423
 6485TIP3    H219399   4.229   2.501   6.393
 6486TIP3   OH219400   3.637   1.294   5.401
 6486TIP3    H119401   3.726   1.276   5.429
 6486TIP3    H219402   3.588   1.304   5.483
 6487TIP3   OH219403   4.738   4.952   5.964
 6487TIP3    H119404   4.720   5.044   5.946
 6487TIP3    H219405   4.803   4.926   5.898
 6488TIP3   OH219406   0.502   5.407   5.972
 6488TIP3    H119407   0.575   5.389   5.912
 6488TIP3    H219408   0.442   5.334   5.961
 6489TIP3   OH219409   3.891   1.110   2.306
 6489TIP3    H119410   3.798   1.100   2.286
 6489TIP3    H219411   3.899   1.082   2.397
 6490TIP3   OH219412   8.138   2.375   6.211
 6490TIP3    H119413   8.176   2.300   6.163
 6490TIP3    H219414   8.180   2.451   6.172
 6491TIP3   OH219415   7.761   2.600   1.920
 6491TIP3    H119416   7.807   2.629   1.999
 6491TIP3    H219417   7.802   2.650   1.849
 6492TIP3   OH219418   0.471   6.528   6.678
 6492TIP3    H119419   0.437   6.502   6.592
 6492TIP3    H219420   0.490   6.446   6.722
 6493TIP3   OH219421   6.725   0.541   6.514
 6493TIP3    H119422   6.806   0.577   6.549
 6493TIP3    H219423   6.699   0.603   6.446
 6494TIP3   OH219424   3.563   4.295   0.422
 6494TIP3    H119425   3.550   4.390   0.430
 6494TIP3    H219426   3.591   4.267   0.509
 6495TIP3   OH219427   3.674   2.002   2.280
 6495TIP3    H119428   3.619   1.969   2.351
 6495TIP3    H219429   3.668   1.936   2.212
 6496TIP3   OH219430   6.317   0.153   2.383
 6496TIP3    H119431   6.352   0.154   2.472
 6496TIP3    H219432   6.347   0.069   2.346
 6497TIP3   OH219433   0.556   6.262   1.725
 6497TIP3    H119434   0.605   6.330   1.679
 6497TIP3    H219435   0.486   6.310   1.771
 6498TIP3   OH219436   2.615   2.116   0.458
 6498TIP3    H119437   2.694   2.062   0.458
 6498TIP3    H219438   2.647   2.205   0.468
 6499TIP3   OH219439   1.207   0.605   0.960
 6499TIP3    H119440   1.248   0.668   0.901
 6499TIP3    H219441   1.136   0.567   0.909
 6500TIP3   OH219442   8.105   6.798   5.832
 6500TIP3    H119443   8.183   6.850   5.851
 6500TIP3    H219444   8.081   6.823   5.742
 6501TIP3   OH219445   6.576   7.045   5.315
 6501TIP3    H119446   6.664   7.070   5.287
 6501TIP3    H219447   6.520   7.064   5.240
 6502TIP3   OH219448   5.018   2.340   1.390
 6502TIP3    H119449   4.933   2.298   1.404
 6502TIP3    H219450   5.066   2.279   1.334
 6503TIP3   OH219451   5.147   3.129   1.973
 6503TIP3    H119452   5.136   3.127   2.068
 6503TIP3    H219453   5.061   3.107   1.938
 6504TIP3   OH219454   5.332   2.892   5.041
 6504TIP3    H119455   5.424   2.916   5.032
 6504TIP3    H219456   5.330   2.834   5.117
 6505TIP3   OH219457   2.293   5.682   2.659
 6505TIP3    H119458   2.246   5.622   2.717
 6505TIP3    H219459   2.227   5.713   2.597
 6506TIP3   OH219460   5.502   3.729   5.739
 6506TIP3    H119461   5.481   3.707   5.648
 6506TIP3    H219462   5.542   3.650   5.774
 6507TIP3   OH219463   4.139   1.532   5.965
 6507TIP3    H119464   4.131   1.489   6.050
 6507TIP3    H219465   4.180   1.466   5.909
 6508TIP3   OH219466   1.142   1.234   2.736
 6508TIP3    H119467   1.182   1.321   2.730
 6508TIP3    H219468   1.213   1.177   2.765
 6509TIP3   OH219469   2.311   6.621   6.253
 6509TIP3    H119470   2.272   6.536   6.232
 6509TIP3    H219471   2.307   6.625   6.349
 6510TIP3   OH219472   3.367   5.222   6.038
 6510TIP3    H119473   3.404   5.137   6.064
 6510TIP3    H219474   3.309   5.245   6.110
 6511TIP3   OH219475   5.840   3.615   3.333
 6511TIP3    H119476   5.819   3.700   3.295
 6511TIP3    H219477   5.931   3.598   3.307
 6512TIP3   OH219478   4.408   6.214   4.188
 6512TIP3    H119479   4.362   6.260   4.117
 6512TIP3    H219480   4.343   6.210   4.259
 6513TIP3   OH219481   2.337   1.187   1.151
 6513TIP3    H119482   2.428   1.216   1.148
 6513TIP3    H219483   2.307   1.213   1.238
 6514TIP3   OH219484   1.707   5.570   5.769
 6514TIP3    H119485   1.614   5.590   5.763
 6514TIP3    H219486   1.713   5.476   5.751
 6515TIP3   OH219487   4.780   6.233   6.297
 6515TIP3    H119488   4.708   6.279   6.339
 6515TIP3    H219489   4.802   6.162   6.358
 6516TIP3   OH219490   7.808   5.402   6.406
 6516TIP3    H119491   7.875   5.375   6.469
 6516TIP3    H219492   7.749   5.458   6.457
 6517TIP3   OH219493   1.127   0.394   6.072
 6517TIP3    H119494   1.079   0.473   6.094
 6517TIP3    H219495   1.201   0.393   6.133
 6518TIP3   OH219496   5.694   1.186   6.242
 6518TIP3    H119497   5.622   1.233   6.200
 6518TIP3    H219498   5.769   1.200   6.183
 6519TIP3   OH219499   5.915   0.307   2.780
 6519TIP3    H119500   5.847   0.252   2.818
 6519TIP3    H219501   5.873   0.350   2.705
 6520TIP3   OH219502   2.499   6.193   5.933
 6520TIP3    H119503   2.507   6.252   5.858
 6520TIP3    H219504   2.414   6.150   5.921
 6521TIP3   OH219505   7.120   6.504   6.528
 6521TIP3    H119506   7.047   6.536   6.476
 6521TIP3    H219507   7.106   6.409   6.533
 6522TIP3   OH219508   2.133   4.257  -0.003
 6522TIP3    H119509   2.131   4.347  -0.034
 6522TIP3    H219510   2.144   4.264   0.092
 6523TIP3   OH219511   1.721   3.891   4.695
 6523TIP3    H119512   1.740   3.942   4.617
 6523TIP3    H219513   1.637   3.849   4.677
 6524TIP3   OH219514   7.178   6.464   4.679
 6524TIP3    H119515   7.142   6.468   4.591
 6524TIP3    H219516   7.173   6.372   4.703
 6525TIP3   OH219517   0.074   1.570   1.393
 6525TIP3    H119518   0.137   1.557   1.321
 6525TIP3    H219519   0.092   1.658   1.425
 6526TIP3   OH219520   4.583   1.277   3.295
 6526TIP3    H119521   4.628   1.227   3.228
 6526TIP3    H219522   4.624   1.364   3.292
 6527TIP3   OH219523   8.267   2.768   5.530
 6527TIP3    H119524   8.294   2.860   5.538
 6527TIP3    H219525   8.238   2.744   5.618
 6528TIP3   OH219526   7.216   7.221   0.187
 6528TIP3    H119527   7.151   7.263   0.131
 6528TIP3    H219528   7.167   7.152   0.233
 6529TIP3   OH219529   8.248   4.099   6.702
 6529TIP3    H119530   8.255   4.108   6.607
 6529TIP3    H219531   8.289   4.015   6.722
 6530TIP3   OH219532   1.284   5.663   6.469
 6530TIP3    H119533   1.235   5.742   6.493
 6530TIP3    H219534   1.229   5.621   6.403
 6531TIP3   OH219535   6.275   5.615   0.140
 6531TIP3    H119536   6.271   5.711   0.140
 6531TIP3    H219537   6.338   5.594   0.208
 6532TIP3   OH219538   8.110   3.708   2.843
 6532TIP3    H119539   8.186   3.766   2.840
 6532TIP3    H219540   8.140   3.631   2.891
 6533TIP3   OH219541   3.382   1.600   2.599
 6533TIP3    H119542   3.330   1.554   2.665
 6533TIP3    H219543   3.402   1.533   2.533
 6534TIP3   OH219544   3.550   6.479   4.918
 6534TIP3    H119545   3.527   6.571   4.926
 6534TIP3    H219546   3.631   6.479   4.867
 6535TIP3   OH219547   2.615   2.868   0.930
 6535TIP3    H119548   2.637   2.780   0.899
 6535TIP3    H219549   2.535   2.891   0.881
 6536TIP3   OH219550   1.252   5.861   1.583
 6536TIP3    H119551   1.178   5.801   1.582
 6536TIP3    H219552   1.229   5.928   1.519
 6537TIP3   OH219553   2.067   3.840   2.449
 6537TIP3    H119554   2.113   3.894   2.385
 6537TIP3    H219555   2.079   3.750   2.419
 6538TIP3   OH219556   2.609   1.370   2.933
 6538TIP3    H119557   2.598   1.429   3.007
 6538TIP3    H219558   2.670   1.415   2.875
 6539TIP3   OH219559   0.613   4.296   0.484
 6539TIP3    H119560   0.632   4.202   0.483
 6539TIP3    H219561   0.630   4.323   0.575
 6540TIP3   OH219562   0.657   6.488   1.633
 6540TIP3    H119563   0.650   6.583   1.638
 6540TIP3    H219564   0.701   6.463   1.714
 6541TIP3   OH219565   8.092   1.821   4.906
 6541TIP3    H119566   8.088   1.807   5.000
 6541TIP3    H219567   8.006   1.856   4.883
 6542TIP3   OH219568   2.877   4.932   0.234
 6542TIP3    H119569   2.793   4.890   0.254
 6542TIP3    H219570   2.931   4.916   0.311
 6543TIP3   OH219571   7.242   2.027   5.217
 6543TIP3    H119572   7.216   1.992   5.132
 6543TIP3    H219573   7.165   2.013   5.273
 6544TIP3   OH219574   0.326   4.170   3.115
 6544TIP3    H119575   0.306   4.217   3.196
 6544TIP3    H219576   0.241   4.135   3.086
 6545TIP3   OH219577   4.427   2.465   5.085
 6545TIP3    H119578   4.335   2.477   5.061
 6545TIP3    H219579   4.434   2.373   5.109
 6546TIP3   OH219580   1.738   4.576   4.056
 6546TIP3    H119581   1.644   4.562   4.068
 6546TIP3    H219582   1.744   4.624   3.974
 6547TIP3   OH219583   1.304   5.175   4.943
 6547TIP3    H119584   1.312   5.084   4.973
 6547TIP3    H219585   1.268   5.169   4.855
 6548TIP3   OH219586   4.102   2.701   1.374
 6548TIP3    H119587   4.043   2.637   1.336
 6548TIP3    H219588   4.108   2.677   1.466
 6549TIP3   OH219589   6.100   3.009   1.815
 6549TIP3    H119590   6.110   3.034   1.723
 6549TIP3    H219591   6.006   3.015   1.832
 6550TIP3   OH219592   6.960   1.590   4.121
 6550TIP3    H119593   6.954   1.522   4.054
 6550TIP3    H219594   7.001   1.548   4.196
 6551TIP3   OH219595   0.970   1.137   0.954
 6551TIP3    H119596   0.930   1.071   1.009
 6551TIP3    H219597   0.901   1.201   0.938
 6552TIP3   OH219598   1.230   0.915   0.487
 6552TIP3    H119599   1.231   0.963   0.570
 6552TIP3    H219600   1.157   0.855   0.496
 6553TIP3   OH219601   0.762   0.816   1.528
 6553TIP3    H119602   0.808   0.800   1.446
 6553TIP3    H219603   0.820   0.783   1.596
 6554TIP3   OH219604   6.867   1.630   2.849
 6554TIP3    H119605   6.799   1.641   2.916
 6554TIP3    H219606   6.949   1.636   2.898
 6555TIP3   OH219607   0.565   4.363   4.976
 6555TIP3    H119608   0.502   4.435   4.987
 6555TIP3    H219609   0.622   4.370   5.053
 6556TIP3   OH219610   6.126   4.884   0.874
 6556TIP3    H119611   6.093   4.840   0.953
 6556TIP3    H219612   6.192   4.946   0.907
 6557TIP3   OH219613   3.251   6.126   2.987
 6557TIP3    H119614   3.209   6.147   3.071
 6557TIP3    H219615   3.187   6.073   2.940
 6558TIP3   OH219616   5.093   2.344   4.066
 6558TIP3    H119617   5.033   2.393   4.010
 6558TIP3    H219618   5.172   2.334   4.013
 6559TIP3   OH219619   3.501   1.411   3.414
 6559TIP3    H119620   3.452   1.444   3.339
 6559TIP3    H219621   3.542   1.331   3.382
 6560TIP3   OH219622   4.452   3.381   4.532
 6560TIP3    H119623   4.449   3.424   4.618
 6560TIP3    H219624   4.361   3.357   4.514
 6561TIP3   OH219625   7.908   0.643   5.007
 6561TIP3    H119626   7.949   0.610   5.086
 6561TIP3    H219627   7.953   0.599   4.935
 6562TIP3   OH219628   4.753   0.973   1.376
 6562TIP3    H119629   4.756   1.029   1.453
 6562TIP3    H219630   4.844   0.967   1.346
 6563TIP3   OH219631   6.203   5.323   3.561
 6563TIP3    H119632   6.178   5.255   3.498
 6563TIP3    H219633   6.298   5.314   3.570
 6564TIP3   OH219634   2.076   3.707   4.715
 6564TIP3    H119635   2.101   3.799   4.714
 6564TIP3    H219636   2.140   3.664   4.659
 6565TIP3   OH219637   6.441   6.723   4.692
 6565TIP3    H119638   6.516   6.771   4.728
 6565TIP3    H219639   6.446   6.736   4.598
 6566TIP3   OH219640   7.883   6.436   3.831
 6566TIP3    H119641   7.922   6.470   3.750
 6566TIP3    H219642   7.934   6.477   3.901
 6567TIP3   OH219643   6.826   5.179   2.782
 6567TIP3    H119644   6.835   5.140   2.695
 6567TIP3    H219645   6.835   5.105   2.842
 6568TIP3   OH219646   1.875   4.201   1.750
 6568TIP3    H119647   1.843   4.224   1.837
 6568TIP3    H219648   1.848   4.274   1.694
 6569TIP3   OH219649   3.077   6.609   6.440
 6569TIP3    H119650   3.164   6.647   6.431
 6569TIP3    H219651   3.019   6.684   6.448
 6570TIP3   OH219652   7.636   0.353   1.240
 6570TIP3    H119653   7.692   0.418   1.283
 6570TIP3    H219654   7.592   0.401   1.170
 6571TIP3   OH219655   1.899   5.648   0.356
 6571TIP3    H119656   1.899   5.693   0.441
 6571TIP3    H219657   1.918   5.718   0.293
 6572TIP3   OH219658   4.403   0.547   4.518
 6572TIP3    H119659   4.375   0.468   4.472
 6572TIP3    H219660   4.460   0.592   4.456
 6573TIP3   OH219661   0.687   7.774   0.677
 6573TIP3    H119662   0.646   7.856   0.707
 6573TIP3    H219663   0.640   7.752   0.597
 6574TIP3   OH219664   2.066   5.827   3.774
 6574TIP3    H119665   1.979   5.816   3.814
 6574TIP3    H219666   2.050   5.817   3.680
 6575TIP3   OH219667   1.380   2.583   3.596
 6575TIP3    H119668   1.428   2.661   3.625
 6575TIP3    H219669   1.309   2.618   3.542
 6576TIP3   OH219670   0.340   5.385   6.675
 6576TIP3    H119671   0.270   5.363   6.735
 6576TIP3    H219672   0.370   5.301   6.640
 6577TIP3   OH219673   7.168   1.686   0.173
 6577TIP3    H119674   7.120   1.764   0.146
 6577TIP3    H219675   7.137   1.617   0.114
 6578TIP3   OH219676   5.014   7.412   4.194
 6578TIP3    H119677   5.031   7.351   4.266
 6578TIP3    H219678   5.033   7.498   4.230
 6579TIP3   OH219679   5.177   0.491   0.356
 6579TIP3    H119680   5.121   0.565   0.379
 6579TIP3    H219681   5.213   0.514   0.271
 6580TIP3   OH219682   3.366   3.793   3.890
 6580TIP3    H119683   3.318   3.875   3.883
 6580TIP3    H219684   3.335   3.754   3.972
 6581TIP3   OH219685   5.024   2.771   6.541
 6581TIP3    H119686   5.083   2.749   6.469
 6581TIP3    H219687   4.984   2.854   6.514
 6582TIP3   OH219688   7.346   5.740   3.250
 6582TIP3    H119689   7.312   5.706   3.167
 6582TIP3    H219690   7.439   5.754   3.235
 6583TIP3   OH219691   5.473   6.703   1.249
 6583TIP3    H119692   5.567   6.687   1.256
 6583TIP3    H219693   5.457   6.778   1.306
 6584TIP3   OH219694   8.168   5.448   4.918
 6584TIP3    H119695   8.253   5.408   4.900
 6584TIP3    H219696   8.113   5.422   4.844
 6585TIP3   OH219697   8.158   1.648   3.982
 6585TIP3    H119698   8.068   1.623   4.002
 6585TIP3    H219699   8.211   1.579   4.020
 6586TIP3   OH219700   1.866   1.538   0.273
 6586TIP3    H119701   1.917   1.602   0.323
 6586TIP3    H219702   1.887   1.558   0.181
 6587TIP3   OH219703   7.775   4.617   0.496
 6587TIP3    H119704   7.853   4.672   0.495
 6587TIP3    H219705   7.805   4.534   0.459
 6588TIP3   OH219706   3.990   4.647   5.138
 6588TIP3    H119707   3.947   4.641   5.223
 6588TIP3    H219708   3.919   4.637   5.074
 6589TIP3   OH219709   3.002   2.268   0.196
 6589TIP3    H119710   3.047   2.351   0.214
 6589TIP3    H219711   3.056   2.202   0.239
 6590TIP3   OH219712   8.103   7.752   6.061
 6590TIP3    H119713   8.009   7.767   6.046
 6590TIP3    H219714   8.147   7.817   6.006
 6591TIP3   OH219715   7.338   7.029   0.589
 6591TIP3    H119716   7.337   7.117   0.625
 6591TIP3    H219717   7.421   6.991   0.620
 6592TIP3   OH219718   5.277   5.949   1.986
 6592TIP3    H119719   5.297   5.930   1.894
 6592TIP3    H219720   5.304   6.040   1.999
 6593TIP3   OH219721   4.449   7.710   3.160
 6593TIP3    H119722   4.383   7.767   3.200
 6593TIP3    H219723   4.437   7.626   3.203
 6594TIP3   OH219724   7.226   1.281   0.307
 6594TIP3    H119725   7.319   1.268   0.291
 6594TIP3    H219726   7.189   1.303   0.221
 6595TIP3   OH219727   2.655   1.950   2.295
 6595TIP3    H119728   2.703   2.009   2.354
 6595TIP3    H219729   2.682   1.979   2.207
 6596TIP3   OH219730   1.824   5.399   1.005
 6596TIP3    H119731   1.814   5.310   0.972
 6596TIP3    H219732   1.909   5.400   1.049
 6597TIP3   OH219733   2.122   6.799   2.350
 6597TIP3    H119734   2.100   6.727   2.410
 6597TIP3    H219735   2.202   6.771   2.307
 6598TIP3   OH219736   1.221   7.804   3.665
 6598TIP3    H119737   1.299   7.829   3.615
 6598TIP3    H219738   1.172   7.746   3.606
 6599TIP3   OH219739   1.203   6.985   0.281
 6599TIP3    H119740   1.212   7.069   0.328
 6599TIP3    H219741   1.285   6.976   0.233
 6600TIP3   OH219742   2.443   0.519   3.385
 6600TIP3    H119743   2.473   0.604   3.417
 6600TIP3    H219744   2.404   0.538   3.300
 6601TIP3   OH219745   7.060   0.600   0.534
 6601TIP3    H119746   7.052   0.693   0.512
 6601TIP3    H219747   7.127   0.597   0.602
 6602TIP3   OH219748   4.276   5.468   3.422
 6602TIP3    H119749   4.277   5.515   3.339
 6602TIP3    H219750   4.183   5.465   3.446
 6603TIP3   OH219751   2.819   6.732   0.522
 6603TIP3    H119752   2.817   6.827   0.527
 6603TIP3    H219753   2.908   6.709   0.550
 6604TIP3   OH219754   5.049   2.648   5.666
 6604TIP3    H119755   4.987   2.718   5.685
 6604TIP3    H219756   5.012   2.571   5.709
 6605TIP3   OH219757   1.211   7.836   0.043
 6605TIP3    H119758   1.258   7.760   0.008
 6605TIP3    H219759   1.135   7.845  -0.014
 6606TIP3   OH219760   3.854   1.919   0.904
 6606TIP3    H119761   3.898   1.855   0.959
 6606TIP3    H219762   3.897   2.002   0.924
 6607TIP3   OH219763   5.851   3.327   2.829
 6607TIP3    H119764   5.860   3.367   2.915
 6607TIP3    H219765   5.757   3.326   2.812
 6608TIP3   OH219766   3.571   0.322   2.767
 6608TIP3    H119767   3.649   0.338   2.821
 6608TIP3    H219768   3.528   0.407   2.762
 6609TIP3   OH219769   6.420   6.420   5.829
 6609TIP3    H119770   6.512   6.445   5.841
 6609TIP3    H219771   6.413   6.401   5.736
 6610TIP3   OH219772   4.521   3.091   3.020
 6610TIP3    H119773   4.494   3.004   2.993
 6610TIP3    H219774   4.592   3.076   3.083
 6611TIP3   OH219775   3.835   7.067   0.982
 6611TIP3    H119776   3.762   7.099   0.930
 6611TIP3    H219777   3.850   7.135   1.047
 6612TIP3   OH219778   5.019   3.985   3.189
 6612TIP3    H119779   5.102   4.032   3.185
 6612TIP3    H219780   4.974   4.023   3.264
 6613TIP3   OH219781   6.071   0.922   2.917
 6613TIP3    H119782   5.986   0.928   2.962
 6613TIP3    H219783   6.132   0.969   2.974
 6614TIP3   OH219784   0.863   7.214   3.524
 6614TIP3    H119785   0.941   7.189   3.474
 6614TIP3    H219786   0.793   7.160   3.487
 6615TIP3   OH219787   2.094   5.499   2.518
 6615TIP3    H119788   2.180   5.505   2.477
 6615TIP3    H219789   2.047   5.576   2.486
 6616TIP3   OH219790   4.392   7.716   0.706
 6616TIP3    H119791   4.424   7.627   0.688
 6616TIP3    H219792   4.302   7.716   0.672
 6617TIP3   OH219793   0.487   1.882   3.186
 6617TIP3    H119794   0.452   1.795   3.171
 6617TIP3    H219795   0.582   1.870   3.184
 6618TIP3   OH219796   1.315   7.188   4.918
 6618TIP3    H119797   1.349   7.171   4.830
 6618TIP3    H219798   1.226   7.153   4.917
 6619TIP3   OH219799   2.100   6.958   1.283
 6619TIP3    H119800   2.134   6.875   1.251
 6619TIP3    H219801   2.052   6.995   1.209
 6620TIP3   OH219802   3.399   6.000   3.265
 6620TIP3    H119803   3.376   5.927   3.208
 6620TIP3    H219804   3.467   6.048   3.217
 6621TIP3   OH219805   1.307   4.792   0.955
 6621TIP3    H119806   1.235   4.752   1.003
 6621TIP3    H219807   1.301   4.754   0.867
 6622TIP3   OH219808   3.369   5.165   0.196
 6622TIP3    H119809   3.360   5.129   0.108
 6622TIP3    H219810   3.279   5.187   0.222
 6623TIP3   OH219811   3.839   1.233   5.967
 6623TIP3    H119812   3.815   1.174   6.038
 6623TIP3    H219813   3.875   1.310   6.011
 6624TIP3   OH219814   0.555   3.170   2.104
 6624TIP3    H119815   0.625   3.108   2.083
 6624TIP3    H219816   0.501   3.125   2.168
 6625TIP3   OH219817   0.513   1.163   5.899
 6625TIP3    H119818   0.459   1.175   5.977
 6625TIP3    H219819   0.571   1.239   5.897
 6626TIP3   OH219820   5.858   4.086   2.556
 6626TIP3    H119821   5.799   4.144   2.605
 6626TIP3    H219822   5.813   4.071   2.473
 6627TIP3   OH219823   2.091   7.185   6.688
 6627TIP3    H119824   2.000   7.205   6.663
 6627TIP3    H219825   2.096   7.089   6.683
 6628TIP3   OH219826   3.562   4.463   4.857
 6628TIP3    H119827   3.580   4.511   4.776
 6628TIP3    H219828   3.479   4.500   4.889
 6629TIP3   OH219829   3.467   3.287   1.272
 6629TIP3    H119830   3.544   3.283   1.328
 6629TIP3    H219831   3.393   3.284   1.332
 6630TIP3   OH219832   2.899   6.799   6.263
 6630TIP3    H119833   2.915   6.711   6.228
 6630TIP3    H219834   2.931   6.858   6.195
 6631TIP3   OH219835   0.968   3.027   0.222
 6631TIP3    H119836   0.992   2.936   0.202
 6631TIP3    H219837   0.932   3.024   0.310
 6632TIP3   OH219838   3.435   2.216   1.568
 6632TIP3    H119839   3.379   2.139   1.569
 6632TIP3    H219840   3.375   2.290   1.556
 6633TIP3   OH219841   5.999   7.689   0.854
 6633TIP3    H119842   5.971   7.725   0.939
 6633TIP3    H219843   5.986   7.595   0.863
 6634TIP3   OH219844   3.554   6.210   5.497
 6634TIP3    H119845   3.631   6.228   5.443
 6634TIP3    H219846   3.527   6.122   5.472
 6635TIP3   OH219847   1.750   6.570   4.320
 6635TIP3    H119848   1.733   6.493   4.374
 6635TIP3    H219849   1.764   6.535   4.232
 6636TIP3   OH219850   4.325   7.557   2.178
 6636TIP3    H119851   4.381   7.633   2.162
 6636TIP3    H219852   4.375   7.483   2.144
 6637TIP3   OH219853   2.338   0.813   1.210
 6637TIP3    H119854   2.403   0.882   1.201
 6637TIP3    H219855   2.265   0.855   1.256
 6638TIP3   OH219856   0.953   7.491   3.930
 6638TIP3    H119857   0.897   7.500   3.852
 6638TIP3    H219858   0.938   7.401   3.960
 6639TIP3   OH219859   1.288   3.574   5.441
 6639TIP3    H119860   1.354   3.581   5.372
 6639TIP3    H219861   1.235   3.653   5.432
 6640TIP3   OH219862   4.900   1.342   5.564
 6640TIP3    H119863   4.829   1.376   5.510
 6640TIP3    H219864   4.978   1.388   5.533
 6641TIP3   OH219865   0.248   6.369   0.476
 6641TIP3    H119866   0.228   6.277   0.493
 6641TIP3    H219867   0.343   6.376   0.489
 6642TIP3   OH219868   7.727   0.419   2.040
 6642TIP3    H119869   7.715   0.380   2.126
 6642TIP3    H219870   7.819   0.443   2.036
 6643TIP3   OH219871   5.327   0.582   3.252
 6643TIP3    H119872   5.423   0.586   3.247
 6643TIP3    H219873   5.308   0.490   3.274
 6644TIP3   OH219874   4.830   7.334   5.539
 6644TIP3    H119875   4.780   7.358   5.461
 6644TIP3    H219876   4.794   7.249   5.565
 6645TIP3   OH219877   0.622   5.352   6.354
 6645TIP3    H119878   0.564   5.289   6.311
 6645TIP3    H219879   0.697   5.361   6.295
 6646TIP3   OH219880   4.867   3.512   3.708
 6646TIP3    H119881   4.861   3.468   3.623
 6646TIP3    H219882   4.950   3.481   3.744
 6647TIP3   OH219883   7.021   0.635   1.493
 6647TIP3    H119884   7.063   0.559   1.533
 6647TIP3    H219885   6.944   0.600   1.449
 6648TIP3   OH219886   6.568   1.866   2.077
 6648TIP3    H119887   6.518   1.850   2.157
 6648TIP3    H219888   6.612   1.950   2.093
 6649TIP3   OH219889   3.426   3.851   2.597
 6649TIP3    H119890   3.341   3.851   2.639
 6649TIP3    H219891   3.450   3.759   2.591
 6650TIP3   OH219892   3.363   5.160   0.684
 6650TIP3    H119893   3.390   5.076   0.720
 6650TIP3    H219894   3.418   5.224   0.729
 6651TIP3   OH219895   1.047   1.542   0.270
 6651TIP3    H119896   1.077   1.630   0.292
 6651TIP3    H219897   1.115   1.485   0.306
 6652TIP3   OH219898   6.616   7.657   6.091
 6652TIP3    H119899   6.643   7.748   6.085
 6652TIP3    H219900   6.599   7.630   6.001
 6653TIP3   OH219901   2.127   6.140   5.428
 6653TIP3    H119902   2.220   6.141   5.449
 6653TIP3    H219903   2.106   6.231   5.407
 6654TIP3   OH219904   1.496   7.210   4.118
 6654TIP3    H119905   1.483   7.302   4.141
 6654TIP3    H219906   1.591   7.198   4.118
 6655TIP3   OH219907   6.633   1.582   5.200
 6655TIP3    H119908   6.652   1.492   5.173
 6655TIP3    H219909   6.635   1.632   5.118
 6656TIP3   OH219910   7.042   2.449   0.841
 6656TIP3    H119911   7.010   2.536   0.864
 6656TIP3    H219912   7.044   2.447   0.746
 6657TIP3   OH219913   4.300   3.701   5.992
 6657TIP3    H119914   4.361   3.771   6.015
 6657TIP3    H219915   4.231   3.708   6.057
 6658TIP3   OH219916   8.136   0.984   0.709
 6658TIP3    H119917   8.177   0.920   0.767
 6658TIP3    H219918   8.147   0.947   0.622
 6659TIP3   OH219919   1.196   5.808   3.413
 6659TIP3    H119920   1.230   5.737   3.359
 6659TIP3    H219921   1.101   5.796   3.411
 6660TIP3   OH219922   4.736   4.724   2.074
 6660TIP3    H119923   4.781   4.665   2.014
 6660TIP3    H219924   4.715   4.670   2.150
 6661TIP3   OH219925   4.933   2.016   5.401
 6661TIP3    H119926   4.845   2.031   5.436
 6661TIP3    H219927   4.918   1.960   5.324
 6662TIP3   OH219928   2.775   6.496   3.341
 6662TIP3    H119929   2.774   6.449   3.425
 6662TIP3    H219930   2.717   6.571   3.356
 6663TIP3   OH219931   8.157   2.684   3.207
 6663TIP3    H119932   8.098   2.723   3.272
 6663TIP3    H219933   8.170   2.752   3.142
 6664TIP3   OH219934   1.746   4.242   6.023
 6664TIP3    H119935   1.681   4.257   6.091
 6664TIP3    H219936   1.783   4.329   6.005
 6665TIP3   OH219937   7.053   5.184   1.122
 6665TIP3    H119938   7.081   5.167   1.032
 6665TIP3    H219939   6.975   5.129   1.133
 6666TIP3   OH219940   4.341   3.468   4.767
 6666TIP3    H119941   4.400   3.526   4.815
 6666TIP3    H219942   4.344   3.385   4.816
 6667TIP3   OH219943   7.739   4.158   2.998
 6667TIP3    H119944   7.692   4.233   3.033
 6667TIP3    H219945   7.680   4.119   2.934
 6668TIP3   OH219946   6.526   1.147   2.276
 6668TIP3    H119947   6.528   1.066   2.326
 6668TIP3    H219948   6.611   1.150   2.231
 6669TIP3   OH219949   2.800   7.713   6.110
 6669TIP3    H119950   2.742   7.766   6.165
 6669TIP3    H219951   2.879   7.700   6.162
 6670TIP3   OH219952   0.423   7.481   0.912
 6670TIP3    H119953   0.434   7.401   0.860
 6670TIP3    H219954   0.343   7.521   0.878
 6671TIP3   OH219955   0.947   6.279   1.048
 6671TIP3    H119956   0.958   6.327   1.131
 6671TIP3    H219957   0.856   6.294   1.024
 6672TIP3   OH219958   2.107   0.786   4.124
 6672TIP3    H119959   2.124   0.697   4.092
 6672TIP3    H219960   2.028   0.813   4.077
 6673TIP3   OH219961   2.110   7.392   1.118
 6673TIP3    H119962   2.188   7.345   1.090
 6673TIP3    H219963   2.136   7.435   1.200
 6674TIP3   OH219964   2.012   5.634   4.179
 6674TIP3    H119965   2.084   5.603   4.234
 6674TIP3    H219966   1.952   5.560   4.174
 6675TIP3   OH219967   3.357   4.436   0.290
 6675TIP3    H119968   3.334   4.419   0.198
 6675TIP3    H219969   3.403   4.357   0.318
 6676TIP3   OH219970   1.534   3.973   5.291
 6676TIP3    H119971   1.554   3.900   5.232
 6676TIP3    H219972   1.619   4.009   5.314
 6677TIP3   OH219973   0.717   6.158   6.091
 6677TIP3    H119974   0.807   6.188   6.076
 6677TIP3    H219975   0.662   6.233   6.067
 6678TIP3   OH219976   1.235   4.886   3.251
 6678TIP3    H119977   1.262   4.926   3.334
 6678TIP3    H219978   1.261   4.794   3.259
 6679TIP3   OH219979   4.479   0.399   6.111
 6679TIP3    H119980   4.537   0.473   6.092
 6679TIP3    H219981   4.394   0.427   6.077
 6680TIP3   OH219982   1.230   2.420   0.405
 6680TIP3    H119983   1.258   2.337   0.444
 6680TIP3    H219984   1.231   2.404   0.311
 6681TIP3   OH219985   6.054   3.106   2.496
 6681TIP3    H119986   6.065   3.031   2.554
 6681TIP3    H219987   5.960   3.109   2.477
 6682TIP3   OH219988   1.328   4.543   1.676
 6682TIP3    H119989   1.300   4.607   1.742
 6682TIP3    H219990   1.269   4.557   1.602
 6683TIP3   OH219991   0.793   0.206   0.028
 6683TIP3    H119992   0.880   0.167   0.021
 6683TIP3    H219993   0.734   0.132   0.034
 6684TIP3   OH219994   5.052   3.825   4.759
 6684TIP3    H119995   5.103   3.791   4.686
 6684TIP3    H219996   5.021   3.747   4.806
 6685TIP3   OH219997   1.844   5.839   5.026
 6685TIP3    H119998   1.825   5.804   4.938
 6685TIP3    H219999   1.880   5.764   5.074
 6686TIP3   OH220000   5.023   7.665   0.610
 6686TIP3    H120001   4.998   7.681   0.519
 6686TIP3    H220002   4.948   7.619   0.648
 6687TIP3   OH220003   3.595   5.867   0.500
 6687TIP3    H120004   3.637   5.945   0.463
 6687TIP3    H220005   3.515   5.856   0.449
 6688TIP3   OH220006   1.748   2.039   2.494
 6688TIP3    H120007   1.816   2.005   2.553
 6688TIP3    H220008   1.795   2.060   2.413
 6689TIP3   OH220009   5.968   0.717   3.966
 6689TIP3    H120010   6.017   0.698   3.886
 6689TIP3    H220011   6.027   0.691   4.037
 6690TIP3   OH220012   1.125   6.887   6.067
 6690TIP3    H120013   1.168   6.971   6.046
 6690TIP3    H220014   1.066   6.908   6.139
 6691TIP3   OH220015   7.347   2.933   1.116
 6691TIP3    H120016   7.319   2.980   1.195
 6691TIP3    H220017   7.266   2.895   1.081
 6692TIP3   OH220018   3.701   0.688   6.120
 6692TIP3    H120019   3.791   0.657   6.122
 6692TIP3    H220020   3.653   0.626   6.175
 6693TIP3   OH220021   0.509   7.485   5.080
 6693TIP3    H120022   0.441   7.418   5.085
 6693TIP3    H220023   0.461   7.568   5.078
 6694TIP3   OH220024   4.428   6.708   5.083
 6694TIP3    H120025   4.378   6.653   5.143
 6694TIP3    H220026   4.427   6.795   5.123
 6695TIP3   OH220027   6.358   1.341   6.422
 6695TIP3    H120028   6.336   1.254   6.456
 6695TIP3    H220029   6.277   1.371   6.381
 6696TIP3   OH220030   5.439   2.021   6.698
 6696TIP3    H120031   5.497   2.029   6.622
 6696TIP3    H220032   5.498   2.012   6.773
 6697TIP3   OH220033   3.352   2.213   2.238
 6697TIP3    H120034   3.337   2.307   2.247
 6697TIP3    H220035   3.265   2.174   2.242
 6698TIP3   OH220036   6.602   3.983   6.244
 6698TIP3    H120037   6.611   3.893   6.213
 6698TIP3    H220038   6.630   4.037   6.170
 6699TIP3   OH220039   5.300   6.859   6.297
 6699TIP3    H120040   5.219   6.818   6.268
 6699TIP3    H220041   5.278   6.898   6.381
 6700TIP3   OH220042   3.503   4.729   4.202
 6700TIP3    H120043   3.418   4.715   4.245
 6700TIP3    H220044   3.499   4.819   4.170
 6701TIP3   OH220045   1.309   2.094   6.658
 6701TIP3    H120046   1.266   2.163   6.709
 6701TIP3    H220047   1.387   2.136   6.623
 6702TIP3   OH220048   5.191   7.450   3.969
 6702TIP3    H120049   5.142   7.437   4.050
 6702TIP3    H220050   5.174   7.372   3.918
 6703TIP3   OH220051   1.310   7.251   6.387
 6703TIP3    H120052   1.248   7.205   6.330
 6703TIP3    H220053   1.383   7.275   6.330
 6704TIP3   OH220054   0.169   7.645   6.676
 6704TIP3    H120055   0.119   7.622   6.754
 6704TIP3    H220056   0.180   7.740   6.682
 6705TIP3   OH220057   0.356   3.644   6.514
 6705TIP3    H120058   0.386   3.708   6.578
 6705TIP3    H220059   0.434   3.592   6.493
 6706TIP3   OH220060   2.923   1.766   1.233
 6706TIP3    H120061   2.928   1.671   1.238
 6706TIP3    H220062   2.874   1.783   1.152
 6707TIP3   OH220063   6.971   3.100   2.459
 6707TIP3    H120064   6.964   3.033   2.527
 6707TIP3    H220065   6.959   3.052   2.377
 6708TIP3   OH220066   4.298   5.364   2.490
 6708TIP3    H120067   4.390   5.357   2.513
 6708TIP3    H220068   4.271   5.275   2.469
 6709TIP3   OH220069   6.862   5.695   4.501
 6709TIP3    H120070   6.808   5.773   4.515
 6709TIP3    H220071   6.952   5.728   4.506
 6710TIP3   OH220072   3.142   5.501   6.112
 6710TIP3    H120073   3.110   5.551   6.187
 6710TIP3    H220074   3.230   5.536   6.095
 6711TIP3   OH220075   7.864   3.978   3.740
 6711TIP3    H120076   7.785   4.025   3.765
 6711TIP3    H220077   7.892   4.019   3.658
 6712TIP3   OH220078   0.899   6.839   2.168
 6712TIP3    H120079   0.934   6.920   2.205
 6712TIP3    H220080   0.942   6.769   2.218
 6713TIP3   OH220081   7.149   2.111   4.731
 6713TIP3    H120082   7.176   2.173   4.798
 6713TIP3    H220083   7.074   2.064   4.769
 6714TIP3   OH220084   7.067   6.858   3.256
 6714TIP3    H120085   6.986   6.861   3.206
 6714TIP3    H220086   7.126   6.917   3.209
 6715TIP3   OH220087   4.374   2.443   6.657
 6715TIP3    H120088   4.321   2.475   6.583
 6715TIP3    H220089   4.313   2.444   6.731
 6716TIP3   OH220090   5.224   1.667   0.608
 6716TIP3    H120091   5.264   1.581   0.622
 6716TIP3    H220092   5.178   1.659   0.525
 6717TIP3   OH220093   6.011   7.559   3.659
 6717TIP3    H120094   5.948   7.533   3.726
 6717TIP3    H220095   6.005   7.490   3.593
 6718TIP3   OH220096   7.370   6.270   4.141
 6718TIP3    H120097   7.393   6.327   4.067
 6718TIP3    H220098   7.420   6.190   4.125
 6719TIP3   OH220099   2.132   4.213   4.875
 6719TIP3    H120100   2.143   4.146   4.808
 6719TIP3    H220101   2.218   4.221   4.915
 6720TIP3   OH220102   1.850   7.626   5.016
 6720TIP3    H120103   1.898   7.654   5.094
 6720TIP3    H220104   1.897   7.667   4.943
 6721TIP3   OH220105   1.994   7.592   0.853
 6721TIP3    H120106   2.064   7.624   0.796
 6721TIP3    H220107   1.945   7.670   0.878
 6722TIP3   OH220108   7.930   7.672   4.916
 6722TIP3    H120109   7.987   7.696   4.843
 6722TIP3    H220110   7.852   7.636   4.874
 6723TIP3   OH220111   4.178   6.330   1.234
 6723TIP3    H120112   4.142   6.361   1.317
 6723TIP3    H220113   4.174   6.234   1.240
 6724TIP3   OH220114   3.425   2.308   1.909
 6724TIP3    H120115   3.510   2.347   1.888
 6724TIP3    H220116   3.445   2.231   1.962
 6725TIP3   OH220117   7.265   1.615   3.246
 6725TIP3    H120118   7.286   1.534   3.294
 6725TIP3    H220119   7.317   1.682   3.290
 6726TIP3   OH220120   6.215   6.589   5.752
 6726TIP3    H120121   6.142   6.527   5.756
 6726TIP3    H220122   6.290   6.539   5.784
 6727TIP3   OH220123   8.089   1.480   0.206
 6727TIP3    H120124   8.048   1.492   0.292
 6727TIP3    H220125   8.099   1.385   0.197
 6728TIP3   OH220126   4.398   7.611   4.320
 6728TIP3    H120127   4.488   7.608   4.288
 6728TIP3    H220128   4.386   7.527   4.365
 6729TIP3   OH220129   4.799   6.917   0.964
 6729TIP3    H120130   4.860   6.844   0.968
 6729TIP3    H220131   4.722   6.887   1.011
 6730TIP3   OH220132   4.578   7.192   4.585
 6730TIP3    H120133   4.647   7.258   4.578
 6730TIP3    H220134   4.625   7.108   4.580
 6731TIP3   OH220135   6.131   2.745   0.871
 6731TIP3    H120136   6.151   2.707   0.957
 6731TIP3    H220137   6.211   2.733   0.821
 6732TIP3   OH220138   1.988   3.002   4.313
 6732TIP3    H120139   1.989   3.058   4.390
 6732TIP3    H220140   1.915   3.036   4.260
 6733TIP3   OH220141   3.517   7.183   3.584
 6733TIP3    H120142   3.554   7.222   3.505
 6733TIP3    H220143   3.433   7.147   3.555
 6734TIP3   OH220144   7.829   3.562   6.296
 6734TIP3    H120145   7.828   3.616   6.217
 6734TIP3    H220146   7.798   3.476   6.267
 6735TIP3   OH220147   6.214   6.728   5.509
 6735TIP3    H120148   6.213   6.685   5.595
 6735TIP3    H220149   6.306   6.754   5.497
 6736TIP3   OH220150   1.636   2.634   2.677
 6736TIP3    H120151   1.678   2.620   2.592
 6736TIP3    H220152   1.706   2.669   2.733
 6737TIP3   OH220153   1.860   6.459   0.665
 6737TIP3    H120154   1.810   6.381   0.691
 6737TIP3    H220155   1.944   6.425   0.636
 6738TIP3   OH220156   2.199   4.312   3.092
 6738TIP3    H120157   2.249   4.296   3.172
 6738TIP3    H220158   2.261   4.295   3.021
 6739TIP3   OH220159   0.543   6.338   0.570
 6739TIP3    H120160   0.594   6.337   0.489
 6739TIP3    H220161   0.591   6.281   0.629
 6740TIP3   OH220162   1.908   0.846   3.933
 6740TIP3    H120163   1.829   0.848   3.879
 6740TIP3    H220164   1.918   0.936   3.964
 6741TIP3   OH220165   3.971   7.141   4.656
 6741TIP3    H120166   3.884   7.133   4.616
 6741TIP3    H220167   3.981   7.061   4.708
 6742TIP3   OH220168   7.375   2.864   2.905
 6742TIP3    H120169   7.322   2.805   2.958
 6742TIP3    H220170   7.356   2.952   2.939
 6743TIP3   OH220171   4.397   3.456   6.494
 6743TIP3    H120172   4.478   3.416   6.463
 6743TIP3    H220173   4.394   3.542   6.452
 6744TIP3   OH220174   4.995   4.917   2.579
 6744TIP3    H120175   5.078   4.940   2.621
 6744TIP3    H220176   5.016   4.840   2.526
 6745TIP3   OH220177   3.880   6.378   5.903
 6745TIP3    H120178   3.889   6.284   5.918
 6745TIP3    H220179   3.795   6.387   5.861
 6746TIP3   OH220180   5.082   0.760   0.435
 6746TIP3    H120181   5.042   0.844   0.455
 6746TIP3    H220182   5.115   0.770   0.345
 6747TIP3   OH220183   1.478   2.762   5.608
 6747TIP3    H120184   1.529   2.806   5.677
 6747TIP3    H220185   1.390   2.797   5.619
 6748TIP3   OH220186   1.392   1.649   1.858
 6748TIP3    H120187   1.361   1.698   1.934
 6748TIP3    H220188   1.316   1.597   1.831
 6749TIP3   OH220189   4.257   7.038   6.643
 6749TIP3    H120190   4.313   6.983   6.589
 6749TIP3    H220191   4.265   7.126   6.606
 6750TIP3   OH220192   5.408   3.483   2.979
 6750TIP3    H120193   5.383   3.557   2.924
 6750TIP3    H220194   5.326   3.442   3.004
 6751TIP3   OH220195   6.216   4.225   2.054
 6751TIP3    H120196   6.277   4.300   2.050
 6751TIP3    H220197   6.169   4.238   2.137
 6752TIP3   OH220198   8.038   4.578   3.733
 6752TIP3    H120199   8.127   4.594   3.702
 6752TIP3    H220200   7.995   4.663   3.724
 6753TIP3   OH220201   7.613   3.094   2.447
 6753TIP3    H120202   7.608   3.000   2.463
 6753TIP3    H220203   7.703   3.109   2.418
 6754TIP3   OH220204   2.199   0.391   3.415
 6754TIP3    H120205   2.280   0.420   3.373
 6754TIP3    H220206   2.173   0.313   3.366
 6755TIP3   OH220207   1.802   0.957   5.004
 6755TIP3    H120208   1.723   0.959   4.949
 6755TIP3    H220209   1.777   0.903   5.079
 6756TIP3   OH220210   4.135   2.142   1.639
 6756TIP3    H120211   4.161   2.201   1.710
 6756TIP3    H220212   4.051   2.107   1.668
 6757TIP3   OH220213   6.359   5.540   5.358
 6757TIP3    H120214   6.443   5.546   5.404
 6757TIP3    H220215   6.342   5.446   5.352
 6758TIP3   OH220216   1.585   7.105   4.399
 6758TIP3    H120217   1.640   7.088   4.322
 6758TIP3    H220218   1.556   7.018   4.427
 6759TIP3   OH220219   5.210   6.602   2.322
 6759TIP3    H120220   5.189   6.685   2.280
 6759TIP3    H220221   5.279   6.564   2.268
 6760TIP3   OH220222   3.976   0.528   6.369
 6760TIP3    H120223   4.023   0.558   6.447
 6760TIP3    H220224   3.884   0.528   6.395
 6761TIP3   OH220225   1.676   3.822   1.066
 6761TIP3    H120226   1.650   3.742   1.019
 6761TIP3    H220227   1.596   3.874   1.071
 6762TIP3   OH220228   4.397   0.563   3.275
 6762TIP3    H120229   4.302   0.568   3.279
 6762TIP3    H220230   4.422   0.514   3.354
 6763TIP3   OH220231   3.552   0.351   2.461
 6763TIP3    H120232   3.551   0.284   2.392
 6763TIP3    H220233   3.639   0.389   2.456
 6764TIP3   OH220234   1.553   3.370   3.122
 6764TIP3    H120235   1.633   3.422   3.113
 6764TIP3    H220236   1.482   3.434   3.114
 6765TIP3   OH220237   6.869   1.891   3.527
 6765TIP3    H120238   6.852   1.976   3.567
 6765TIP3    H220239   6.965   1.884   3.526
 6766TIP3   OH220240   2.154   0.580   6.556
 6766TIP3    H120241   2.144   0.488   6.531
 6766TIP3    H220242   2.096   0.628   6.496
 6767TIP3   OH220243   0.789   1.011   5.153
 6767TIP3    H120244   0.834   0.953   5.092
 6767TIP3    H220245   0.697   0.984   5.148
 6768TIP3   OH220246   0.555   2.250   2.583
 6768TIP3    H120247   0.642   2.210   2.584
 6768TIP3    H220248   0.553   2.304   2.661
 6769TIP3   OH220249   5.090   7.033   0.493
 6769TIP3    H120250   5.179   7.064   0.505
 6769TIP3    H220251   5.042   7.066   0.569
 6770TIP3   OH220252   0.417   2.332   1.547
 6770TIP3    H120253   0.331   2.342   1.587
 6770TIP3    H220254   0.407   2.368   1.459
 6771TIP3   OH220255   3.615   4.532   1.164
 6771TIP3    H120256   3.651   4.529   1.252
 6771TIP3    H220257   3.684   4.574   1.111
 6772TIP3   OH220258   4.536   1.103   4.096
 6772TIP3    H120259   4.580   1.172   4.145
 6772TIP3    H220260   4.577   1.106   4.009
 6773TIP3   OH220261   0.040   4.483   0.503
 6773TIP3    H120262   0.029   4.576   0.521
 6773TIP3    H220263   0.044   4.441   0.589
 6774TIP3   OH220264   4.059   6.754   6.163
 6774TIP3    H120265   4.068   6.782   6.072
 6774TIP3    H220266   3.966   6.730   6.171
 6775TIP3   OH220267   3.917   4.198   2.409
 6775TIP3    H120268   3.832   4.176   2.372
 6775TIP3    H220269   3.908   4.180   2.502
 6776TIP3   OH220270   1.253   7.336   0.531
 6776TIP3    H120271   1.165   7.329   0.568
 6776TIP3    H220272   1.239   7.370   0.443
 6777TIP3   OH220273   4.910   5.749   4.486
 6777TIP3    H120274   5.004   5.732   4.479
 6777TIP3    H220275   4.903   5.816   4.554
 6778TIP3   OH220276   3.934   4.216   0.885
 6778TIP3    H120277   3.986   4.208   0.964
 6778TIP3    H220278   3.907   4.126   0.864
 6779TIP3   OH220279   7.695   5.904   6.227
 6779TIP3    H120280   7.730   5.965   6.292
 6779TIP3    H220281   7.605   5.888   6.256
 6780TIP3   OH220282   3.134   7.365   6.164
 6780TIP3    H120283   3.181   7.392   6.085
 6780TIP3    H220284   3.106   7.276   6.146
 6781TIP3   OH220285   0.844   6.105   1.245
 6781TIP3    H120286   0.900   6.086   1.170
 6781TIP3    H220287   0.876   6.189   1.278
 6782TIP3   OH220288   6.822   5.062   0.576
 6782TIP3    H120289   6.828   4.970   0.600
 6782TIP3    H220290   6.852   5.109   0.654
 6783TIP3   OH220291   5.872   5.089   1.033
 6783TIP3    H120292   5.850   5.060   0.945
 6783TIP3    H220293   5.789   5.094   1.079
 6784TIP3   OH220294   1.162   1.765   5.438
 6784TIP3    H120295   1.250   1.774   5.401
 6784TIP3    H220296   1.104   1.767   5.362
 6785TIP3   OH220297   3.931   2.061   2.553
 6785TIP3    H120298   3.891   2.116   2.485
 6785TIP3    H220299   3.860   2.043   2.614
 6786TIP3   OH220300   7.842   7.434   3.670
 6786TIP3    H120301   7.855   7.370   3.600
 6786TIP3    H220302   7.793   7.386   3.737
 6787TIP3   OH220303   1.430   0.461   5.369
 6787TIP3    H120304   1.455   0.368   5.376
 6787TIP3    H220305   1.466   0.501   5.448
 6788TIP3   OH220306   5.956   3.829   2.666
 6788TIP3    H120307   5.931   3.920   2.651
 6788TIP3    H220308   6.041   3.834   2.710
 6789TIP3   OH220309   6.382   1.050   3.371
 6789TIP3    H120310   6.370   1.144   3.359
 6789TIP3    H220311   6.453   1.043   3.435
 6790TIP3   OH220312   2.979   2.781   5.159
 6790TIP3    H120313   2.946   2.859   5.203
 6790TIP3    H220314   3.056   2.756   5.209
 6791TIP3   OH220315   5.111   0.882   4.675
 6791TIP3    H120316   5.070   0.800   4.650
 6791TIP3    H220317   5.148   0.916   4.594
 6792TIP3   OH220318   5.456   3.293   4.517
 6792TIP3    H120319   5.418   3.207   4.498
 6792TIP3    H220320   5.421   3.316   4.603
 6793TIP3   OH220321   2.331   6.673   5.955
 6793TIP3    H120322   2.308   6.670   6.047
 6793TIP3    H220323   2.398   6.605   5.945
 6794TIP3   OH220324   1.591   6.520   1.924
 6794TIP3    H120325   1.545   6.602   1.943
 6794TIP3    H220326   1.574   6.464   2.000
 6795TIP3   OH220327   2.980   7.526   1.188
 6795TIP3    H120328   3.050   7.515   1.252
 6795TIP3    H220329   2.945   7.438   1.175
 6796TIP3   OH220330   0.433   1.615   6.062
 6796TIP3    H120331   0.401   1.702   6.039
 6796TIP3    H220332   0.365   1.578   6.118
 6797TIP3   OH220333   1.922   1.871   3.415
 6797TIP3    H120334   1.917   1.811   3.341
 6797TIP3    H220335   1.831   1.883   3.444
 6798TIP3   OH220336   2.394   7.156   2.329
 6798TIP3    H120337   2.427   7.092   2.393
 6798TIP3    H220338   2.309   7.182   2.363
 6799TIP3   OH220339   6.114   7.753   1.291
 6799TIP3    H120340   6.161   7.701   1.226
 6799TIP3    H220341   6.179   7.815   1.323
 6800TIP3   OH220342   7.349   5.962   2.758
 6800TIP3    H120343   7.278   5.992   2.701
 6800TIP3    H220344   7.416   6.030   2.750
 6801TIP3   OH220345   6.810   0.382   1.389
 6801TIP3    H120346   6.778   0.295   1.365
 6801TIP3    H220347   6.829   0.375   1.483
 6802TIP3   OH220348   6.333   7.727   0.861
 6802TIP3    H120349   6.329   7.765   0.773
 6802TIP3    H220350   6.328   7.632   0.846
 6803TIP3   OH220351   6.777   4.474   0.668
 6803TIP3    H120352   6.765   4.379   0.671
 6803TIP3    H220353   6.870   4.487   0.686
 6804TIP3   OH220354   3.576   0.104   5.540
 6804TIP3    H120355   3.522   0.033   5.574
 6804TIP3    H220356   3.577   0.169   5.609
 6805TIP3   OH220357   4.949   3.377   4.311
 6805TIP3    H120358   4.976   3.387   4.403
 6805TIP3    H220359   4.925   3.285   4.302
 6806TIP3   OH220360   7.446   1.135   1.071
 6806TIP3    H120361   7.386   1.097   1.135
 6806TIP3    H220362   7.508   1.065   1.052
 6807TIP3   OH220363   7.983   0.751   5.851
 6807TIP3    H120364   7.948   0.663   5.845
 6807TIP3    H220365   7.926   0.796   5.914
 6808TIP3   OH220366   4.680   0.762   2.494
 6808TIP3    H120367   4.716   0.851   2.489
 6808TIP3    H220368   4.652   0.753   2.585
 6809TIP3   OH220369   8.285   6.609   1.056
 6809TIP3    H120370   8.265   6.702   1.044
 6809TIP3    H220371   8.202   6.564   1.041
 6810TIP3   OH220372   2.675   2.398   2.288
 6810TIP3    H120373   2.754   2.396   2.342
 6810TIP3    H220374   2.668   2.490   2.261
 6811TIP3   OH220375   4.822   6.240   5.596
 6811TIP3    H120376   4.799   6.221   5.505
 6811TIP3    H220377   4.840   6.154   5.634
 6812TIP3   OH220378   4.760   4.226   6.319
 6812TIP3    H120379   4.719   4.311   6.302
 6812TIP3    H220380   4.797   4.235   6.407
 6813TIP3   OH220381   5.621   6.547   4.015
 6813TIP3    H120382   5.645   6.584   3.929
 6813TIP3    H220383   5.541   6.594   4.039
 6814TIP3   OH220384   5.762   7.507   1.601
 6814TIP3    H120385   5.730   7.483   1.514
 6814TIP3    H220386   5.854   7.530   1.588
 6815TIP3   OH220387   7.318   6.499   1.833
 6815TIP3    H120388   7.348   6.580   1.793
 6815TIP3    H220389   7.396   6.463   1.876
 6816TIP3   OH220390   4.585   7.582   5.381
 6816TIP3    H120391   4.538   7.662   5.405
 6816TIP3    H220392   4.542   7.552   5.301
 6817TIP3   OH220393   1.065   6.860   0.806
 6817TIP3    H120394   1.152   6.899   0.818
 6817TIP3    H220395   1.061   6.841   0.712
 6818TIP3   OH220396   3.198   5.305   4.798
 6818TIP3    H120397   3.215   5.282   4.707
 6818TIP3    H220398   3.220   5.226   4.847
 6819TIP3   OH220399   3.784   1.796   5.655
 6819TIP3    H120400   3.794   1.876   5.603
 6819TIP3    H220401   3.718   1.745   5.609
 6820TIP3   OH220402   4.319   6.558   2.760
 6820TIP3    H120403   4.244   6.507   2.791
 6820TIP3    H220404   4.381   6.492   2.729
 6821TIP3   OH220405   6.634   3.723   4.031
 6821TIP3    H120406   6.591   3.792   4.082
 6821TIP3    H220407   6.709   3.698   4.085
 6822TIP3   OH220408   1.989   4.369   3.393
 6822TIP3    H120409   2.038   4.312   3.334
 6822TIP3    H220410   1.901   4.332   3.395
 6823TIP3   OH220411   4.966   4.078   5.873
 6823TIP3    H120412   4.888   4.133   5.860
 6823TIP3    H220413   5.004   4.110   5.955
 6824TIP3   OH220414   5.262   3.348   1.840
 6824TIP3    H120415   5.244   3.412   1.908
 6824TIP3    H220416   5.230   3.265   1.876
 6825TIP3   OH220417   7.952   6.366   0.300
 6825TIP3    H120418   7.907   6.320   0.229
 6825TIP3    H220419   7.905   6.340   0.379
 6826TIP3   OH220420   1.516   3.049   1.372
 6826TIP3    H120421   1.529   2.981   1.438
 6826TIP3    H220422   1.425   3.039   1.344
 6827TIP3   OH220423   1.284   6.656   3.074
 6827TIP3    H120424   1.345   6.721   3.040
 6827TIP3    H220425   1.338   6.598   3.127
 6828TIP3   OH220426   2.949   5.191   0.860
 6828TIP3    H120427   2.953   5.223   0.769
 6828TIP3    H220428   2.883   5.122   0.858
 6829TIP3   OH220429   3.883   3.641   1.021
 6829TIP3    H120430   3.866   3.706   1.089
 6829TIP3    H220431   3.876   3.557   1.066
 6830TIP3   OH220432   1.831   6.197   5.705
 6830TIP3    H120433   1.850   6.172   5.615
 6830TIP3    H220434   1.915   6.188   5.751
 6831TIP3   OH220435   0.644   3.616   1.580
 6831TIP3    H120436   0.561   3.569   1.572
 6831TIP3    H220437   0.664   3.611   1.673
 6832TIP3   OH220438   3.624   0.176   6.662
 6832TIP3    H120439   3.717   0.174   6.685
 6832TIP3    H220440   3.580   0.197   6.744
 6833TIP3   OH220441   4.833   3.301   4.569
 6833TIP3    H120442   4.777   3.224   4.572
 6833TIP3    H220443   4.886   3.295   4.649
 6834TIP3   OH220444   7.145   3.154   3.273
 6834TIP3    H120445   7.170   3.240   3.305
 6834TIP3    H220446   7.192   3.145   3.190
 6835TIP3   OH220447   6.388   7.191   0.461
 6835TIP3    H120448   6.439   7.261   0.502
 6835TIP3    H220449   6.440   7.112   0.477
 6836TIP3   OH220450   1.180   5.258   2.329
 6836TIP3    H120451   1.120   5.321   2.370
 6836TIP3    H220452   1.183   5.185   2.391
 6837TIP3   OH220453   3.229   1.735   6.088
 6837TIP3    H120454   3.319   1.707   6.068
 6837TIP3    H220455   3.238   1.825   6.119
 6838TIP3   OH220456   7.317   4.004   6.444
 6838TIP3    H120457   7.288   3.938   6.507
 6838TIP3    H220458   7.260   3.992   6.369
 6839TIP3   OH220459   2.888   1.976   2.680
 6839TIP3    H120460   2.957   1.909   2.670
 6839TIP3    H220461   2.926   2.040   2.740
 6840TIP3   OH220462   6.134   3.543   3.288
 6840TIP3    H120463   6.163   3.528   3.377
 6840TIP3    H220464   6.196   3.494   3.233
 6841TIP3   OH220465   2.385   0.754   6.550
 6841TIP3    H120466   2.473   0.718   6.551
 6841TIP3    H220467   2.329   0.678   6.530
 6842TIP3   OH220468   0.535   6.678   0.406
 6842TIP3    H120469   0.501   6.700   0.493
 6842TIP3    H220470   0.474   6.719   0.345
 6843TIP3   OH220471   1.579   6.305   0.490
 6843TIP3    H120472   1.661   6.263   0.514
 6843TIP3    H220473   1.604   6.392   0.460
 6844TIP3   OH220474   2.482   4.421   6.364
 6844TIP3    H120475   2.437   4.502   6.388
 6844TIP3    H220476   2.425   4.380   6.299
 6845TIP3   OH220477   2.430   7.381   1.416
 6845TIP3    H120478   2.498   7.399   1.350
 6845TIP3    H220479   2.395   7.296   1.391
 6846TIP3   OH220480   1.945   1.100   4.759
 6846TIP3    H120481   1.953   1.157   4.835
 6846TIP3    H220482   1.909   1.019   4.795
 6847TIP3   OH220483   3.057   1.504   4.569
 6847TIP3    H120484   3.092   1.533   4.485
 6847TIP3    H220485   3.034   1.412   4.555
 6848TIP3   OH220486   7.948   3.452   5.971
 6848TIP3    H120487   7.882   3.458   5.903
 6848TIP3    H220488   7.973   3.542   5.988
 6849TIP3   OH220489   1.152   0.045   1.767
 6849TIP3    H120490   1.109  -0.041   1.768
 6849TIP3    H220491   1.079   0.107   1.757
 6850TIP3   OH220492   5.118   1.957   1.027
 6850TIP3    H120493   5.206   1.925   1.047
 6850TIP3    H220494   5.119   1.970   0.932
 6851TIP3   OH220495   1.710   7.601   2.006
 6851TIP3    H120496   1.725   7.659   1.931
 6851TIP3    H220497   1.767   7.526   1.990
 6852TIP3   OH220498   8.280   5.221   0.482
 6852TIP3    H120499   8.190   5.205   0.512
 6852TIP3    H220500   8.335   5.188   0.553
 6853TIP3   OH220501   1.087   7.129   0.663
 6853TIP3    H120502   1.094   7.161   0.753
 6853TIP3    H220503   0.993   7.112   0.651
 6854TIP3   OH220504   4.329   2.563   2.860
 6854TIP3    H120505   4.299   2.630   2.799
 6854TIP3    H220506   4.248   2.526   2.896
 6855TIP3   OH220507   4.116   2.048   3.415
 6855TIP3    H120508   4.186   1.983   3.423
 6855TIP3    H220509   4.053   2.023   3.482
 6856TIP3   OH220510   6.775   4.149   1.488
 6856TIP3    H120511   6.857   4.105   1.511
 6856TIP3    H220512   6.803   4.228   1.442
 6857TIP3   OH220513   6.763   6.996   2.313
 6857TIP3    H120514   6.843   7.047   2.302
 6857TIP3    H220515   6.786   6.929   2.377
 6858TIP3   OH220516   8.267   6.516   6.015
 6858TIP3    H120517   8.310   6.581   5.959
 6858TIP3    H220518   8.317   6.436   6.001
 6859TIP3   OH220519   6.227   6.579   1.554
 6859TIP3    H120520   6.216   6.670   1.527
 6859TIP3    H220521   6.318   6.574   1.584
 6860TIP3   OH220522   3.363   4.222   1.073
 6860TIP3    H120523   3.347   4.307   1.115
 6860TIP3    H220524   3.410   4.171   1.140
 6861TIP3   OH220525   6.053   0.235   1.041
 6861TIP3    H120526   6.117   0.267   0.979
 6861TIP3    H220527   6.014   0.314   1.079
 6862TIP3   OH220528   2.601   0.081   4.112
 6862TIP3    H120529   2.571  -0.006   4.084
 6862TIP3    H220530   2.537   0.109   4.177
 6863TIP3   OH220531   2.612   4.174   2.052
 6863TIP3    H120532   2.653   4.169   1.966
 6863TIP3    H220533   2.520   4.192   2.033
 6864TIP3   OH220534   3.989   5.471   5.740
 6864TIP3    H120535   4.000   5.376   5.742
 6864TIP3    H220536   3.964   5.494   5.830
 6865TIP3   OH220537   4.884   6.239   1.998
 6865TIP3    H120538   4.896   6.219   1.905
 6865TIP3    H220539   4.931   6.169   2.044
 6866TIP3   OH220540   0.663   0.598   4.048
 6866TIP3    H120541   0.690   0.611   3.957
 6866TIP3    H220542   0.696   0.511   4.071
 6867TIP3   OH220543   7.827   5.674   0.767
 6867TIP3    H120544   7.900   5.699   0.824
 6867TIP3    H220545   7.749   5.703   0.814
 6868TIP3   OH220546   5.629   2.493   3.655
 6868TIP3    H120547   5.582   2.565   3.612
 6868TIP3    H220548   5.721   2.518   3.648
 6869TIP3   OH220549   0.637   0.168   6.387
 6869TIP3    H120550   0.644   0.205   6.475
 6869TIP3    H220551   0.581   0.229   6.339
 6870TIP3   OH220552   5.868   0.462   4.723
 6870TIP3    H120553   5.906   0.453   4.636
 6870TIP3    H220554   5.839   0.553   4.728
 6871TIP3   OH220555   1.182   0.203   0.522
 6871TIP3    H120556   1.252   0.152   0.480
 6871TIP3    H220557   1.106   0.189   0.466
 6872TIP3   OH220558   3.625   7.169   5.875
 6872TIP3    H120559   3.626   7.261   5.903
 6872TIP3    H220560   3.714   7.138   5.891
 6873TIP3   OH220561   3.091   1.804   2.682
 6873TIP3    H120562   3.096   1.709   2.680
 6873TIP3    H220563   3.173   1.832   2.723
 6874TIP3   OH220564   0.179   5.933   2.872
 6874TIP3    H120565   0.184   6.021   2.834
 6874TIP3    H220566   0.248   5.931   2.938
 6875TIP3   OH220567   3.962   6.816   1.078
 6875TIP3    H120568   3.884   6.766   1.102
 6875TIP3    H220569   3.943   6.849   0.990
 6876TIP3   OH220570   5.533   0.978   6.338
 6876TIP3    H120571   5.538   1.063   6.295
 6876TIP3    H220572   5.439   0.959   6.342
 6877TIP3   OH220573   3.720   6.771   0.395
 6877TIP3    H120574   3.759   6.856   0.409
 6877TIP3    H220575   3.626   6.789   0.385
 6878TIP3   OH220576   0.305   0.822   2.617
 6878TIP3    H120577   0.373   0.841   2.553
 6878TIP3    H220578   0.332   0.868   2.696
 6879TIP3   OH220579   7.137   7.087   1.014
 6879TIP3    H120580   7.110   6.995   1.009
 6879TIP3    H220581   7.074   7.128   1.073
 6880TIP3   OH220582   2.400   2.626   4.886
 6880TIP3    H120583   2.407   2.561   4.957
 6880TIP3    H220584   2.448   2.702   4.919
 6881TIP3   OH220585   4.298   4.844   5.974
 6881TIP3    H120586   4.324   4.873   6.061
 6881TIP3    H220587   4.377   4.852   5.921
 6882TIP3   OH220588   7.404   7.151   6.396
 6882TIP3    H120589   7.414   7.242   6.369
 6882TIP3    H220590   7.377   7.105   6.317
 6883TIP3   OH220591   2.402   0.206   0.066
 6883TIP3    H120592   2.465   0.271   0.095
 6883TIP3    H220593   2.329   0.213   0.127
 6884TIP3   OH220594   1.086   7.442   5.614
 6884TIP3    H120595   1.154   7.433   5.547
 6884TIP3    H220596   1.074   7.537   5.624
 6885TIP3   OH220597   7.172   4.775   0.386
 6885TIP3    H120598   7.137   4.755   0.299
 6885TIP3    H220599   7.221   4.856   0.375
 6886TIP3   OH220600   6.565   1.373   6.241
 6886TIP3    H120601   6.636   1.334   6.292
 6886TIP3    H220602   6.486   1.355   6.293
 6887TIP3   OH220603   5.649   4.422   4.788
 6887TIP3    H120604   5.737   4.447   4.758
 6887TIP3    H220605   5.629   4.342   4.740
 6888TIP3   OH220606   7.225   4.642   3.322
 6888TIP3    H120607   7.159   4.573   3.337
 6888TIP3    H220608   7.194   4.716   3.374
 6889TIP3   OH220609   4.533   2.996   1.709
 6889TIP3    H120610   4.441   2.996   1.736
 6889TIP3    H220611   4.531   3.000   1.614
 6890TIP3   OH220612   7.332   2.868   4.649
 6890TIP3    H120613   7.343   2.847   4.556
 6890TIP3    H220614   7.289   2.953   4.650
 6891TIP3   OH220615   7.129   4.228   6.170
 6891TIP3    H120616   7.155   4.318   6.150
 6891TIP3    H220617   7.097   4.193   6.087
 6892TIP3   OH220618   5.782   4.863   3.620
 6892TIP3    H120619   5.723   4.795   3.655
 6892TIP3    H220620   5.724   4.935   3.596
 6893TIP3   OH220621   0.242   5.293   4.076
 6893TIP3    H120622   0.265   5.225   4.012
 6893TIP3    H220623   0.301   5.277   4.150
 6894TIP3   OH220624   2.831   0.877   1.400
 6894TIP3    H120625   2.895   0.809   1.423
 6894TIP3    H220626   2.746   0.835   1.413
 6895TIP3   OH220627   4.080   1.303   2.555
 6895TIP3    H120628   4.042   1.375   2.605
 6895TIP3    H220629   4.058   1.323   2.464
 6896TIP3   OH220630   3.732   0.370   3.762
 6896TIP3    H120631   3.808   0.323   3.797
 6896TIP3    H220632   3.706   0.430   3.832
 6897TIP3   OH220633   1.728   4.829   1.958
 6897TIP3    H120634   1.693   4.742   1.940
 6897TIP3    H220635   1.654   4.889   1.946
 6898TIP3   OH220636   2.012   5.053   2.475
 6898TIP3    H120637   1.974   4.986   2.532
 6898TIP3    H220638   1.970   5.038   2.390
 6899TIP3   OH220639   1.290   0.589   3.916
 6899TIP3    H120640   1.209   0.640   3.928
 6899TIP3    H220641   1.269   0.527   3.846
 6900TIP3   OH220642   0.581   6.203   6.510
 6900TIP3    H120643   0.633   6.224   6.588
 6900TIP3    H220644   0.645   6.191   6.440
 6901TIP3   OH220645   7.604   3.219   1.848
 6901TIP3    H120646   7.647   3.148   1.895
 6901TIP3    H220647   7.637   3.213   1.759
 6902TIP3   OH220648   4.686   7.637   3.551
 6902TIP3    H120649   4.685   7.676   3.639
 6902TIP3    H220650   4.738   7.557   3.561
 6903TIP3   OH220651   5.797   0.629   2.348
 6903TIP3    H120652   5.820   0.709   2.301
 6903TIP3    H220653   5.794   0.655   2.440
 6904TIP3   OH220654   4.478   1.516   6.441
 6904TIP3    H120655   4.430   1.564   6.373
 6904TIP3    H220656   4.563   1.561   6.445
 6905TIP3   OH220657   3.299   2.763   3.158
 6905TIP3    H120658   3.286   2.853   3.189
 6905TIP3    H220659   3.317   2.772   3.065
 6906TIP3   OH220660   2.824   1.330   5.578
 6906TIP3    H120661   2.873   1.279   5.513
 6906TIP3    H220662   2.848   1.290   5.662
 6907TIP3   OH220663   5.330   2.347   1.908
 6907TIP3    H120664   5.256   2.407   1.900
 6907TIP3    H220665   5.327   2.295   1.827
 6908TIP3   OH220666   1.599   4.775   0.254
 6908TIP3    H120667   1.593   4.802   0.345
 6908TIP3    H220668   1.694   4.769   0.237
 6909TIP3   OH220669   7.668   1.453   0.990
 6909TIP3    H120670   7.711   1.417   1.067
 6909TIP3    H220671   7.576   1.427   1.000
 6910TIP3   OH220672   4.682   5.113   3.244
 6910TIP3    H120673   4.636   5.042   3.288
 6910TIP3    H220674   4.649   5.193   3.285
 6911TIP3   OH220675   2.216   5.943   4.827
 6911TIP3    H120676   2.238   5.937   4.734
 6911TIP3    H220677   2.261   5.869   4.868
 6912TIP3   OH220678   4.429   5.288   1.531
 6912TIP3    H120679   4.359   5.344   1.565
 6912TIP3    H220680   4.388   5.202   1.520
 6913TIP3   OH220681   2.840   3.643   3.064
 6913TIP3    H120682   2.910   3.677   3.008
 6913TIP3    H220683   2.761   3.654   3.012
 6914TIP3   OH220684   5.213   5.491   0.024
 6914TIP3    H120685   5.210   5.406   0.067
 6914TIP3    H220686   5.134   5.536   0.052
 6915TIP3   OH220687   6.398   6.069   2.167
 6915TIP3    H120688   6.347   6.099   2.242
 6915TIP3    H220689   6.409   6.147   2.112
 6916TIP3   OH220690   5.238   2.904   2.992
 6916TIP3    H120691   5.331   2.886   3.006
 6916TIP3    H220692   5.199   2.895   3.079
 6917TIP3   OH220693   5.511   4.416   1.687
 6917TIP3    H120694   5.596   4.417   1.731
 6917TIP3    H220695   5.523   4.475   1.612
 6918TIP3   OH220696   0.551   7.739   5.396
 6918TIP3    H120697   0.560   7.721   5.489
 6918TIP3    H220698   0.579   7.830   5.386
 6919TIP3   OH220699   4.080   3.437   2.336
 6919TIP3    H120700   4.065   3.531   2.342
 6919TIP3    H220701   4.063   3.404   2.425
 6920TIP3   OH220702   2.452   6.222   1.846
 6920TIP3    H120703   2.397   6.295   1.875
 6920TIP3    H220704   2.517   6.263   1.788
 6921TIP3   OH220705   0.962   1.357   6.309
 6921TIP3    H120706   1.058   1.353   6.303
 6921TIP3    H220707   0.945   1.389   6.398
 6922TIP3   OH220708   7.327   1.012   0.631
 6922TIP3    H120709   7.411   1.045   0.600
 6922TIP3    H220710   7.308   0.936   0.576
 6923TIP3   OH220711   4.854   3.212   0.415
 6923TIP3    H120712   4.939   3.194   0.455
 6923TIP3    H220713   4.863   3.298   0.375
 6924TIP3   OH220714   7.574   6.332   0.543
 6924TIP3    H120715   7.502   6.290   0.591
 6924TIP3    H220716   7.568   6.294   0.455
 6925TIP3   OH220717   6.793   0.101   4.122
 6925TIP3    H120718   6.705   0.138   4.132
 6925TIP3    H220719   6.809   0.054   4.204
 6926TIP3   OH220720   3.316   7.745   2.766
 6926TIP3    H120721   3.312   7.828   2.814
 6926TIP3    H220722   3.379   7.692   2.815
 6927TIP3   OH220723   2.969   7.297   4.201
 6927TIP3    H120724   2.996   7.305   4.293
 6927TIP3    H220725   2.968   7.387   4.169
 6928TIP3   OH220726   4.198   4.424   0.973
 6928TIP3    H120727   4.136   4.352   0.966
 6928TIP3    H220728   4.166   4.489   0.911
 6929TIP3   OH220729   6.951   1.884   2.498
 6929TIP3    H120730   6.879   1.923   2.449
 6929TIP3    H220731   6.914   1.803   2.534
 6930TIP3   OH220732   1.920   3.240   6.676
 6930TIP3    H120733   1.884   3.313   6.726
 6930TIP3    H220734   1.916   3.166   6.737
 6931TIP3   OH220735   3.658   6.637   4.094
 6931TIP3    H120736   3.600   6.567   4.124
 6931TIP3    H220737   3.746   6.602   4.109
 6932TIP3   OH220738   2.583   2.595   3.039
 6932TIP3    H120739   2.641   2.544   3.096
 6932TIP3    H220740   2.627   2.593   2.954
 6933TIP3   OH220741   2.078   6.654   0.014
 6933TIP3    H120742   2.047   6.734   0.056
 6933TIP3    H220743   2.003   6.595   0.015
 6934TIP3   OH220744   1.110   3.222   5.570
 6934TIP3    H120745   1.099   3.292   5.505
 6934TIP3    H220746   1.043   3.158   5.547
 6935TIP3   OH220747   0.451   3.666   0.940
 6935TIP3    H120748   0.500   3.733   0.893
 6935TIP3    H220749   0.376   3.647   0.884
 6936TIP3   OH220750   5.725   1.987   4.462
 6936TIP3    H120751   5.805   2.004   4.511
 6936TIP3    H220752   5.747   1.913   4.404
 6937TIP3   OH220753   7.449   0.950   3.313
 6937TIP3    H120754   7.435   0.913   3.226
 6937TIP3    H220755   7.368   0.997   3.333
 6938TIP3   OH220756   3.594   2.880   0.080
 6938TIP3    H120757   3.604   2.884  -0.015
 6938TIP3    H220758   3.684   2.881   0.113
 6939TIP3   OH220759   1.974   0.435   1.606
 6939TIP3    H120760   2.012   0.372   1.544
 6939TIP3    H220761   1.909   0.483   1.554
 6940TIP3   OH220762   5.449   2.710   5.962
 6940TIP3    H120763   5.393   2.703   5.884
 6940TIP3    H220764   5.516   2.644   5.950
 6941TIP3   OH220765   7.762   5.426   0.404
 6941TIP3    H120766   7.740   5.341   0.367
 6941TIP3    H220767   7.853   5.441   0.380
 6942TIP3   OH220768   7.614   1.231   4.297
 6942TIP3    H120769   7.610   1.261   4.388
 6942TIP3    H220770   7.707   1.228   4.276
 6943TIP3   OH220771   2.621   4.410   1.676
 6943TIP3    H120772   2.526   4.404   1.673
 6943TIP3    H220773   2.642   4.490   1.628
 6944TIP3   OH220774   4.259   0.892   0.938
 6944TIP3    H120775   4.163   0.893   0.944
 6944TIP3    H220776   4.276   0.876   0.845
 6945TIP3   OH220777   5.330   3.458   0.330
 6945TIP3    H120778   5.287   3.529   0.282
 6945TIP3    H220779   5.282   3.451   0.412
 6946TIP3   OH220780   4.701   5.557   4.501
 6946TIP3    H120781   4.669   5.603   4.423
 6946TIP3    H220782   4.775   5.611   4.531
 6947TIP3   OH220783   6.660   5.082   0.139
 6947TIP3    H120784   6.691   5.014   0.199
 6947TIP3    H220785   6.581   5.117   0.181
 6948TIP3   OH220786   7.807   4.687   3.256
 6948TIP3    H120787   7.770   4.694   3.344
 6948TIP3    H220788   7.902   4.685   3.270
 6949TIP3   OH220789   0.783   3.429   0.624
 6949TIP3    H120790   0.877   3.409   0.628
 6949TIP3    H220791   0.758   3.402   0.535
 6950TIP3   OH220792   4.068   4.353   6.542
 6950TIP3    H120793   4.093   4.441   6.572
 6950TIP3    H220794   4.096   4.295   6.613
 6951TIP3   OH220795   1.991   6.676   1.928
 6951TIP3    H120796   1.968   6.653   1.838
 6951TIP3    H220797   2.068   6.732   1.920
 6952TIP3   OH220798   2.989   2.183   2.826
 6952TIP3    H120799   2.921   2.250   2.813
 6952TIP3    H220800   3.059   2.229   2.873
 6953TIP3   OH220801   1.545   3.206   5.944
 6953TIP3    H120802   1.489   3.226   5.869
 6953TIP3    H220803   1.591   3.287   5.963
 6954TIP3   OH220804   0.520   4.291   2.916
 6954TIP3    H120805   0.434   4.327   2.892
 6954TIP3    H220806   0.503   4.238   2.993
 6955TIP3   OH220807   4.163   5.201   2.146
 6955TIP3    H120808   4.081   5.249   2.134
 6955TIP3    H220809   4.181   5.209   2.240
 6956TIP3   OH220810   1.290   3.799   3.698
 6956TIP3    H120811   1.293   3.890   3.669
 6956TIP3    H220812   1.358   3.755   3.648
 6957TIP3   OH220813   1.747   0.476   2.693
 6957TIP3    H120814   1.785   0.546   2.641
 6957TIP3    H220815   1.781   0.396   2.653
 6958TIP3   OH220816   6.165   3.391   4.847
 6958TIP3    H120817   6.071   3.397   4.830
 6958TIP3    H220818   6.175   3.316   4.904
 6959TIP3   OH220819   7.868   5.558   2.726
 6959TIP3    H120820   7.792   5.537   2.673
 6959TIP3    H220821   7.865   5.496   2.799
 6960TIP3   OH220822   0.219   4.418   2.405
 6960TIP3    H120823   0.193   4.481   2.472
 6960TIP3    H220824   0.314   4.429   2.397
 6961TIP3   OH220825   7.396   3.810   2.296
 6961TIP3    H120826   7.439   3.726   2.284
 6961TIP3    H220827   7.302   3.790   2.294
 6962TIP3   OH220828   4.333   4.277   1.947
 6962TIP3    H120829   4.361   4.295   1.857
 6962TIP3    H220830   4.270   4.347   1.966
 6963TIP3   OH220831   5.527   2.510   0.735
 6963TIP3    H120832   5.472   2.559   0.795
 6963TIP3    H220833   5.545   2.570   0.663
 6964TIP3   OH220834   6.600   6.102   0.785
 6964TIP3    H120835   6.556   6.017   0.779
 6964TIP3    H220836   6.545   6.154   0.844
 6965TIP3   OH220837   6.719   5.304   3.145
 6965TIP3    H120838   6.796   5.352   3.173
 6965TIP3    H220839   6.646   5.348   3.188
 6966TIP3   OH220840   1.654   4.923   6.460
 6966TIP3    H120841   1.678   4.971   6.381
 6966TIP3    H220842   1.571   4.882   6.439
 6967TIP3   OH220843   1.086   5.373   5.397
 6967TIP3    H120844   1.068   5.467   5.397
 6967TIP3    H220845   1.157   5.362   5.460
 6968TIP3   OH220846   5.211   0.822   6.670
 6968TIP3    H120847   5.207   0.756   6.602
 6968TIP3    H220848   5.274   0.886   6.638
 6969TIP3   OH220849   3.430   4.942   6.803
 6969TIP3    H120850   3.498   5.007   6.823
 6969TIP3    H220851   3.444   4.921   6.711
 6970TIP3   OH220852   6.785   6.584   1.017
 6970TIP3    H120853   6.760   6.596   1.109
 6970TIP3    H220854   6.870   6.628   1.009
 6971TIP3   OH220855   1.513  -0.008   4.871
 6971TIP3    H120856   1.494   0.084   4.855
 6971TIP3    H220857   1.475  -0.054   4.796
 6972TIP3   OH220858   3.809   3.754   6.158
 6972TIP3    H120859   3.837   3.704   6.081
 6972TIP3    H220860   3.716   3.770   6.144
 6973TIP3   OH220861   6.115   1.690   6.625
 6973TIP3    H120862   6.134   1.714   6.715
 6973TIP3    H220863   6.033   1.735   6.604
 6974TIP3   OH220864   4.746   1.847   0.658
 6974TIP3    H120865   4.751   1.840   0.563
 6974TIP3    H220866   4.837   1.850   0.687
 6975TIP3   OH220867   0.542   5.047   0.895
 6975TIP3    H120868   0.577   4.977   0.839
 6975TIP3    H220869   0.618   5.078   0.945
 6976TIP3   OH220870   1.394   1.104   5.213
 6976TIP3    H120871   1.448   1.091   5.135
 6976TIP3    H220872   1.420   1.034   5.272
 6977TIP3   OH220873   8.137   1.910   6.741
 6977TIP3    H120874   8.111   1.996   6.709
 6977TIP3    H220875   8.155   1.923   6.834
 6978TIP3   OH220876   2.041   6.151   6.447
 6978TIP3    H120877   1.968   6.121   6.393
 6978TIP3    H220878   2.063   6.075   6.502
 6979TIP3   OH220879   3.596   0.593   2.083
 6979TIP3    H120880   3.546   0.640   2.016
 6979TIP3    H220881   3.591   0.501   2.056
 6980TIP3   OH220882   4.091   5.970   6.267
 6980TIP3    H120883   4.027   5.986   6.197
 6980TIP3    H220884   4.051   5.900   6.320
 6981TIP3   OH220885   1.805   7.825   1.235
 6981TIP3    H120886   1.724   7.807   1.283
 6981TIP3    H220887   1.776   7.857   1.150
 6982TIP3   OH220888   2.164   7.321   0.528
 6982TIP3    H120889   2.241   7.375   0.511
 6982TIP3    H220890   2.152   7.326   0.623
 6983TIP3   OH220891   7.461   5.764   5.130
 6983TIP3    H120892   7.398   5.714   5.183
 6983TIP3    H220893   7.463   5.719   5.046
 6984TIP3   OH220894   2.214   7.122   4.187
 6984TIP3    H120895   2.143   7.161   4.238
 6984TIP3    H220896   2.185   7.131   4.096
 6985TIP3   OH220897   3.593   4.805   5.356
 6985TIP3    H120898   3.549   4.788   5.439
 6985TIP3    H220899   3.548   4.881   5.320
 6986TIP3   OH220900   0.712   2.286   5.028
 6986TIP3    H120901   0.795   2.320   4.996
 6986TIP3    H220902   0.718   2.191   5.015
 6987TIP3   OH220903   0.833   2.545   1.652
 6987TIP3    H120904   0.852   2.535   1.558
 6987TIP3    H220905   0.816   2.456   1.683
 6988TIP3   OH220906   7.389   3.556   3.134
 6988TIP3    H120907   7.386   3.652   3.141
 6988TIP3    H220908   7.473   3.538   3.090
 6989TIP3   OH220909   2.720   7.512   3.872
 6989TIP3    H120910   2.705   7.436   3.929
 6989TIP3    H220911   2.633   7.534   3.839
 6990TIP3   OH220912   2.070   6.224   5.836
 6990TIP3    H120913   2.097   6.306   5.794
 6990TIP3    H220914   2.150   6.171   5.838
 6991TIP3   OH220915   2.526   3.259   2.486
 6991TIP3    H120916   2.549   3.342   2.530
 6991TIP3    H220917   2.611   3.219   2.466
 6992TIP3   OH220918   6.694   5.690   5.687
 6992TIP3    H120919   6.769   5.656   5.736
 6992TIP3    H220920   6.680   5.778   5.722
 6993TIP3   OH220921   4.649   5.782   4.318
 6993TIP3    H120922   4.712   5.818   4.380
 6993TIP3    H220923   4.567   5.828   4.338
 6994TIP3   OH220924   5.775   0.243   1.814
 6994TIP3    H120925   5.805   0.333   1.825
 6994TIP3    H220926   5.841   0.203   1.756
 6995TIP3   OH220927   6.800   2.885   0.668
 6995TIP3    H120928   6.744   2.809   0.684
 6995TIP3    H220929   6.754   2.957   0.710
 6996TIP3   OH220930   4.956   0.822   4.438
 6996TIP3    H120931   4.899   0.756   4.477
 6996TIP3    H220932   4.896   0.887   4.403
 6997TIP3   OH220933   1.549   0.079   5.707
 6997TIP3    H120934   1.571   0.158   5.657
 6997TIP3    H220935   1.588   0.008   5.656
 6998TIP3   OH220936   3.033   7.079   2.400
 6998TIP3    H120937   2.962   7.091   2.463
 6998TIP3    H220938   3.087   7.010   2.439
 6999TIP3   OH220939   7.342   6.246   0.105
 6999TIP3    H120940   7.262   6.196   0.088
 6999TIP3    H220941   7.369   6.279   0.020
 7000TIP3   OH220942   0.236   2.419   2.257
 7000TIP3    H120943   0.315   2.433   2.205
 7000TIP3    H220944   0.207   2.507   2.281
 7001TIP3   OH220945   1.823   0.848   3.173
 7001TIP3    H120946   1.884   0.775   3.174
 7001TIP3    H220947   1.742   0.813   3.211
 7002TIP3   OH220948   7.711   5.445   0.681
 7002TIP3    H120949   7.734   5.531   0.716
 7002TIP3    H220950   7.757   5.439   0.598
 7003TIP3   OH220951   2.737   7.591   1.515
 7003TIP3    H120952   2.715   7.612   1.424
 7003TIP3    H220953   2.749   7.496   1.516
 7004TIP3   OH220954   3.963   0.869   6.093
 7004TIP3    H120955   3.982   0.880   6.000
 7004TIP3    H220956   3.874   0.833   6.096
 7005TIP3   OH220957   3.684   3.119   0.234
 7005TIP3    H120958   3.617   3.080   0.178
 7005TIP3    H220959   3.719   3.045   0.284
 7006TIP3   OH220960   5.271   4.778   5.405
 7006TIP3    H120961   5.329   4.788   5.481
 7006TIP3    H220962   5.314   4.713   5.350
 7007TIP3   OH220963   6.140   5.608   1.679
 7007TIP3    H120964   6.140   5.631   1.586
 7007TIP3    H220965   6.141   5.692   1.724
 7008TIP3   OH220966   5.890   0.339   6.499
 7008TIP3    H120967   5.813   0.356   6.553
 7008TIP3    H220968   5.960   0.390   6.540
 7009TIP3   OH220969   7.392   1.700   6.343
 7009TIP3    H120970   7.472   1.668   6.383
 7009TIP3    H220971   7.374   1.639   6.271
 7010TIP3   OH220972   3.324   1.906   0.826
 7010TIP3    H120973   3.307   1.812   0.837
 7010TIP3    H220974   3.417   1.916   0.846
 7011TIP3   OH220975   2.862   0.575   6.286
 7011TIP3    H120976   2.928   0.601   6.221
 7011TIP3    H220977   2.913   0.546   6.362
 7012TIP3   OH220978   5.448   6.146   0.790
 7012TIP3    H120979   5.355   6.150   0.814
 7012TIP3    H220980   5.462   6.054   0.766
 7013TIP3   OH220981   1.750   5.125   4.343
 7013TIP3    H120982   1.728   5.218   4.338
 7013TIP3    H220983   1.694   5.091   4.413
 7014TIP3   OH220984   3.970   5.280   4.823
 7014TIP3    H120985   3.970   5.190   4.854
 7014TIP3    H220986   4.056   5.292   4.783
 7015TIP3   OH220987   2.225   2.058   0.691
 7015TIP3    H120988   2.149   2.116   0.691
 7015TIP3    H220989   2.271   2.080   0.610
 7016TIP3   OH220990   4.506   5.587   5.590
 7016TIP3    H120991   4.464   5.578   5.675
 7016TIP3    H220992   4.457   5.656   5.546
 7017TIP3   OH220993   0.598   7.560   2.308
 7017TIP3    H120994   0.557   7.647   2.306
 7017TIP3    H220995   0.660   7.562   2.235
 7018TIP3   OH220996   6.446   6.267   5.245
 7018TIP3    H120997   6.385   6.194   5.235
 7018TIP3    H220998   6.531   6.230   5.219
 7019TIP3   OH220999   5.196   0.023   1.186
 7019TIP3    H121000   5.211   0.107   1.142
 7019TIP3    H221001   5.104   0.003   1.167
 7020TIP3   OH221002   6.779   6.686   6.523
 7020TIP3    H121003   6.698   6.710   6.478
 7020TIP3    H221004   6.848   6.733   6.476
 7021TIP3   OH221005   7.821   4.785   0.235
 7021TIP3    H121006   7.759   4.711   0.232
 7021TIP3    H221007   7.907   4.744   0.227
 7022TIP3   OH221008   7.317   4.428   5.098
 7022TIP3    H121009   7.352   4.502   5.147
 7022TIP3    H221010   7.226   4.422   5.127
 7023TIP3   OH221011   1.064   2.288   6.453
 7023TIP3    H121012   1.141   2.259   6.405
 7023TIP3    H221013   1.081   2.381   6.471
 7024TIP3   OH221014   3.615   2.134   6.431
 7024TIP3    H121015   3.679   2.063   6.430
 7024TIP3    H221016   3.549   2.105   6.495
 7025TIP3   OH221017   3.926   0.766   4.454
 7025TIP3    H121018   4.003   0.737   4.502
 7025TIP3    H221019   3.930   0.862   4.459
 7026TIP3   OH221020   6.419   4.305   4.746
 7026TIP3    H121021   6.503   4.269   4.718
 7026TIP3    H221022   6.412   4.388   4.698
 7027TIP3   OH221023   6.986   4.394   1.978
 7027TIP3    H121024   7.062   4.450   1.994
 7027TIP3    H221025   6.983   4.384   1.882
 7028TIP3   OH221026   5.262   4.103   3.177
 7028TIP3    H121027   5.279   4.189   3.218
 7028TIP3    H221028   5.337   4.089   3.120
 7029TIP3   OH221029   3.671   2.762   6.375
 7029TIP3    H121030   3.694   2.791   6.463
 7029TIP3    H221031   3.575   2.770   6.372
 7030TIP3   OH221032   3.842   3.381   0.869
 7030TIP3    H121033   3.922   3.385   0.922
 7030TIP3    H221034   3.809   3.292   0.884
 7031TIP3   OH221035   4.502   7.088   5.500
 7031TIP3    H121036   4.589   7.075   5.538
 7031TIP3    H221037   4.452   7.131   5.569
 7032TIP3   OH221038   7.588   5.299   3.798
 7032TIP3    H121039   7.553   5.228   3.745
 7032TIP3    H221040   7.637   5.353   3.737
 7033TIP3   OH221041   2.735   7.547   5.543
 7033TIP3    H121042   2.697   7.465   5.513
 7033TIP3    H221043   2.758   7.531   5.634
 7034TIP3   OH221044   2.331   3.681   6.074
 7034TIP3    H121045   2.242   3.700   6.045
 7034TIP3    H221046   2.321   3.610   6.137
 7035TIP3   OH221047   1.757   6.852   2.405
 7035TIP3    H121048   1.825   6.807   2.354
 7035TIP3    H221049   1.732   6.927   2.351
 7036TIP3   OH221050   6.367   6.404   2.844
 7036TIP3    H121051   6.297   6.470   2.840
 7036TIP3    H221052   6.426   6.427   2.772
 7037TIP3   OH221053   2.801   5.231   2.964
 7037TIP3    H121054   2.756   5.202   3.043
 7037TIP3    H221055   2.893   5.213   2.981
 7038TIP3   OH221056   7.244   1.929   4.203
 7038TIP3    H121057   7.326   1.958   4.163
 7038TIP3    H221058   7.270   1.879   4.280
 7039TIP3   OH221059   5.210   2.683   0.717
 7039TIP3    H121060   5.290   2.735   0.723
 7039TIP3    H221061   5.198   2.648   0.806
 7040TIP3   OH221062   3.757   4.398   6.638
 7040TIP3    H121063   3.759   4.408   6.543
 7040TIP3    H221064   3.809   4.319   6.655
 7041TIP3   OH221065   1.968   1.365   2.330
 7041TIP3    H121066   2.027   1.429   2.370
 7041TIP3    H221067   1.968   1.386   2.237
 7042TIP3   OH221068   2.163   4.354   0.850
 7042TIP3    H121069   2.199   4.281   0.800
 7042TIP3    H221070   2.239   4.409   0.870
 7043TIP3   OH221071   6.211   4.288   4.207
 7043TIP3    H121072   6.208   4.278   4.112
 7043TIP3    H221073   6.164   4.370   4.224
 7044TIP3   OH221074   2.678   4.273   4.470
 7044TIP3    H121075   2.678   4.300   4.562
 7044TIP3    H221076   2.665   4.178   4.473
 7045TIP3   OH221077   1.764   6.646   4.006
 7045TIP3    H121078   1.830   6.716   4.014
 7045TIP3    H221079   1.750   6.637   3.912
 7046TIP3   OH221080   4.336   2.953   4.923
 7046TIP3    H121081   4.314   2.904   4.844
 7046TIP3    H221082   4.369   2.886   4.984
 7047TIP3   OH221083   0.248   7.628   3.596
 7047TIP3    H121084   0.251   7.652   3.688
 7047TIP3    H221085   0.339   7.614   3.571
 7048TIP3   OH221086   5.190   0.381   4.014
 7048TIP3    H121087   5.244   0.459   4.024
 7048TIP3    H221088   5.222   0.320   4.081
 7049TIP3   OH221089   7.167   3.379   1.588
 7049TIP3    H121090   7.229   3.317   1.628
 7049TIP3    H221091   7.147   3.441   1.657
 7050TIP3   OH221092   6.871   1.498   5.308
 7050TIP3    H121093   6.947   1.545   5.274
 7050TIP3    H221094   6.795   1.543   5.270
 7051TIP3   OH221095   7.066   0.223   4.736
 7051TIP3    H121096   7.090   0.315   4.723
 7051TIP3    H221097   7.107   0.177   4.663
 7052TIP3   OH221098   2.079   6.328   3.505
 7052TIP3    H121099   2.121   6.348   3.588
 7052TIP3    H221100   2.121   6.248   3.475
 7053TIP3   OH221101   6.509   2.003   6.668
 7053TIP3    H121102   6.439   1.938   6.660
 7053TIP3    H221103   6.464   2.084   6.693
 7054TIP3   OH221104   8.251   2.072   1.188
 7054TIP3    H121105   8.165   2.047   1.221
 7054TIP3    H221106   8.293   1.989   1.164
 7055TIP3   OH221107   4.341   7.504   5.727
 7055TIP3    H121108   4.313   7.525   5.816
 7055TIP3    H221109   4.358   7.410   5.729
 7056TIP3   OH221110   0.401   4.752   4.234
 7056TIP3    H121111   0.411   4.698   4.312
 7056TIP3    H221112   0.312   4.787   4.240
 7057TIP3   OH221113   3.565   4.238   5.907
 7057TIP3    H121114   3.489   4.198   5.864
 7057TIP3    H221115   3.587   4.178   5.977
 7058TIP3   OH221116   2.827   5.219   0.352
 7058TIP3    H121117   2.733   5.221   0.331
 7058TIP3    H221118   2.859   5.140   0.309
 7059TIP3   OH221119   1.912   0.336   4.856
 7059TIP3    H121120   1.882   0.345   4.766
 7059TIP3    H221121   1.954   0.421   4.875
 7060TIP3   OH221122   3.910   5.826   0.283
 7060TIP3    H121123   3.839   5.763   0.274
 7060TIP3    H221124   3.868   5.908   0.309
 7061TIP3   OH221125   7.504   7.538   0.217
 7061TIP3    H121126   7.424   7.505   0.258
 7061TIP3    H221127   7.559   7.460   0.206
 7062TIP3   OH221128   3.668   2.942   6.595
 7062TIP3    H121129   3.573   2.946   6.597
 7062TIP3    H221130   3.694   2.921   6.685
 7063TIP3   OH221131   0.865   7.660   3.223
 7063TIP3    H121132   0.859   7.603   3.300
 7063TIP3    H221133   0.944   7.632   3.178
 7064TIP3   OH221134   2.456   0.577   4.271
 7064TIP3    H121135   2.431   0.514   4.203
 7064TIP3    H221136   2.491   0.652   4.223
 7065TIP3   OH221137   8.007   2.559   4.919
 7065TIP3    H121138   8.030   2.554   4.827
 7065TIP3    H221139   7.930   2.504   4.928
 7066TIP3   OH221140   2.556   5.383   3.811
 7066TIP3    H121141   2.523   5.435   3.885
 7066TIP3    H221142   2.487   5.319   3.795
 7067TIP3   OH221143   1.677   7.746   6.531
 7067TIP3    H121144   1.748   7.802   6.563
 7067TIP3    H221145   1.628   7.802   6.471
 7068TIP3   OH221146   7.836   0.245   6.249
 7068TIP3    H121147   7.803   0.325   6.289
 7068TIP3    H221148   7.805   0.248   6.159
 7069TIP3   OH221149   1.559   4.751   4.977
 7069TIP3    H121150   1.510   4.752   5.060
 7069TIP3    H221151   1.527   4.673   4.931
 7070TIP3   OH221152   6.126   4.789   4.799
 7070TIP3    H121153   6.137   4.855   4.730
 7070TIP3    H221154   6.159   4.708   4.760
 7071TIP3   OH221155   2.453   2.868   6.261
 7071TIP3    H121156   2.487   2.787   6.299
 7071TIP3    H221157   2.415   2.915   6.336
 7072TIP3   OH221158   2.071   7.835   4.899
 7072TIP3    H121159   2.105   7.792   4.977
 7072TIP3    H221160   2.147   7.848   4.843
 7073TIP3   OH221161   8.009   2.154   4.021
 7073TIP3    H121162   8.041   2.177   3.934
 7073TIP3    H221163   7.954   2.077   4.006
 7074TIP3   OH221164   8.350   0.247   6.548
 7074TIP3    H121165   8.382   0.292   6.626
 7074TIP3    H221166   8.259   0.227   6.567
 7075TIP3   OH221167   4.348   5.883   6.369
 7075TIP3    H121168   4.292   5.926   6.304
 7075TIP3    H221169   4.287   5.852   6.435
 7076TIP3   OH221170   0.071   5.071   1.167
 7076TIP3    H121171   0.135   5.007   1.138
 7076TIP3    H221172   0.098   5.153   1.124
 7077TIP3   OH221173   3.205   1.999   3.167
 7077TIP3    H121174   3.218   2.089   3.135
 7077TIP3    H221175   3.250   1.997   3.252
 7078TIP3   OH221176   6.358   6.939   2.631
 7078TIP3    H121177   6.321   6.901   2.551
 7078TIP3    H221178   6.451   6.949   2.612
 7079TIP3   OH221179   4.227   0.429   2.584
 7079TIP3    H121180   4.308   0.389   2.552
 7079TIP3    H221181   4.157   0.370   2.553
 7080TIP3   OH221182   0.605   2.178   1.090
 7080TIP3    H121183   0.677   2.230   1.054
 7080TIP3    H221184   0.627   2.166   1.182
 7081TIP3   OH221185   4.998   6.309   2.870
 7081TIP3    H121186   5.014   6.304   2.964
 7081TIP3    H221187   4.940   6.235   2.852
 7082TIP3   OH221188   6.391   6.883   2.965
 7082TIP3    H121189   6.407   6.903   2.872
 7082TIP3    H221190   6.475   6.899   3.008
 7083TIP3   OH221191   0.020   1.700   0.267
 7083TIP3    H121192   0.060   1.666   0.347
 7083TIP3    H221193  -0.011   1.623   0.220
 7084TIP3   OH221194   4.729   1.285   4.723
 7084TIP3    H121195   4.698   1.197   4.702
 7084TIP3    H221196   4.788   1.307   4.651
 7085TIP3   OH221197   7.559   4.647   5.938
 7085TIP3    H121198   7.585   4.721   5.883
 7085TIP3    H221199   7.606   4.661   6.021
 7086TIP3   OH221200   6.556   7.649   4.864
 7086TIP3    H121201   6.611   7.707   4.916
 7086TIP3    H221202   6.553   7.568   4.914
 7087TIP3   OH221203   1.770   7.203   3.977
 7087TIP3    H121204   1.810   7.124   3.941
 7087TIP3    H221205   1.799   7.273   3.918
 7088TIP3   OH221206   0.217   2.719   3.001
 7088TIP3    H121207   0.138   2.693   2.954
 7088TIP3    H221208   0.194   2.712   3.094
 7089TIP3   OH221209   7.761   1.539   4.685
 7089TIP3    H121210   7.715   1.622   4.700
 7089TIP3    H221211   7.724   1.479   4.749
 7090TIP3   OH221212   2.300   3.110   1.716
 7090TIP3    H121213   2.349   3.106   1.798
 7090TIP3    H221214   2.277   3.202   1.706
 7091TIP3   OH221215   6.613   4.745   5.884
 7091TIP3    H121216   6.577   4.681   5.945
 7091TIP3    H221217   6.664   4.804   5.939
 7092TIP3   OH221218   3.730   3.687   2.389
 7092TIP3    H121219   3.769   3.724   2.468
 7092TIP3    H221220   3.796   3.701   2.321
 7093TIP3   OH221221   7.324   1.924   5.563
 7093TIP3    H121222   7.388   1.877   5.509
 7093TIP3    H221223   7.339   2.016   5.542
 7094TIP3   OH221224   4.811   3.992   3.363
 7094TIP3    H121225   4.823   3.910   3.409
 7094TIP3    H221226   4.732   3.980   3.310
 7095TIP3   OH221227   8.150   1.705   1.881
 7095TIP3    H121228   8.212   1.777   1.895
 7095TIP3    H221229   8.077   1.745   1.834
 7096TIP3   OH221230   1.192   6.181   2.757
 7096TIP3    H121231   1.208   6.099   2.712
 7096TIP3    H221232   1.185   6.246   2.686
 7097TIP3   OH221233   6.800   1.449   0.405
 7097TIP3    H121234   6.776   1.392   0.332
 7097TIP3    H221235   6.893   1.470   0.390
 7098TIP3   OH221236   5.374   1.564   0.942
 7098TIP3    H121237   5.375   1.634   1.008
 7098TIP3    H221238   5.408   1.487   0.987
 7099TIP3   OH221239   5.163   7.040   0.920
 7099TIP3    H121240   5.223   7.111   0.898
 7099TIP3    H221241   5.121   7.068   1.001
 7100TIP3   OH221242   7.227   2.529   4.619
 7100TIP3    H121243   7.214   2.438   4.592
 7100TIP3    H221244   7.185   2.535   4.705
 7101TIP3   OH221245   3.945   1.934   4.768
 7101TIP3    H121246   3.982   1.858   4.814
 7101TIP3    H221247   3.880   1.896   4.709
 7102TIP3   OH221248   5.146   5.411   3.259
 7102TIP3    H121249   5.053   5.434   3.263
 7102TIP3    H221250   5.173   5.434   3.169
 7103TIP3   OH221251   1.142   1.945   3.965
 7103TIP3    H121252   1.127   1.852   3.949
 7103TIP3    H221253   1.057   1.987   3.951
 7104TIP3   OH221254   3.049   6.999   5.426
 7104TIP3    H121255   3.042   7.018   5.520
 7104TIP3    H221256   3.130   6.949   5.418
 7105TIP3   OH221257   4.526   0.791   6.534
 7105TIP3    H121258   4.544   0.707   6.492
 7105TIP3    H221259   4.555   0.856   6.470
 7106TIP3   OH221260   1.603   4.334   4.292
 7106TIP3    H121261   1.595   4.356   4.385
 7106TIP3    H221262   1.631   4.242   4.291
 7107TIP3   OH221263   6.321   2.416   4.345
 7107TIP3    H121264   6.318   2.330   4.302
 7107TIP3    H221265   6.406   2.452   4.321
 7108TIP3   OH221266   2.458   7.248   6.287
 7108TIP3    H121267   2.519   7.319   6.269
 7108TIP3    H221268   2.479   7.220   6.376
 7109TIP3   OH221269   2.484   4.326   6.008
 7109TIP3    H121270   2.437   4.353   5.929
 7109TIP3    H221271   2.555   4.271   5.976
 7110TIP3   OH221272   3.465   2.205   6.218
 7110TIP3    H121273   3.387   2.229   6.269
 7110TIP3    H221274   3.525   2.170   6.284
 7111TIP3   OH221275   3.565   4.718   3.140
 7111TIP3    H121276   3.518   4.786   3.091
 7111TIP3    H221277   3.551   4.639   3.089
 7112TIP3   OH221278   6.696   6.845   1.791
 7112TIP3    H121279   6.694   6.839   1.695
 7112TIP3    H221280   6.742   6.766   1.818
 7113TIP3   OH221281   3.079   0.624   6.096
 7113TIP3    H121282   3.166   0.651   6.125
 7113TIP3    H221283   3.092   0.541   6.052
 7114TIP3   OH221284   7.047   0.171   6.316
 7114TIP3    H121285   7.023   0.175   6.223
 7114TIP3    H221286   7.044   0.262   6.346
 7115TIP3   OH221287   3.395   1.922   2.532
 7115TIP3    H121288   3.355   1.885   2.454
 7115TIP3    H221289   3.323   1.935   2.593
 7116TIP3   OH221290   6.584   4.807   1.357
 7116TIP3    H121291   6.588   4.723   1.312
 7116TIP3    H221292   6.672   4.819   1.394
 7117TIP3   OH221293   1.580   2.586   6.618
 7117TIP3    H121294   1.633   2.634   6.554
 7117TIP3    H221295   1.490   2.611   6.599
 7118TIP3   OH221296   8.312   7.602   1.037
 7118TIP3    H121297   8.221   7.578   1.053
 7118TIP3    H221298   8.356   7.518   1.024
 7119TIP3   OH221299   2.929   6.663   6.782
 7119TIP3    H121300   2.850   6.628   6.741
 7119TIP3    H221301   2.911   6.756   6.794
 7120TIP3   OH221302   7.632   4.348   0.423
 7120TIP3    H121303   7.611   4.399   0.345
 7120TIP3    H221304   7.565   4.373   0.486
 7121TIP3   OH221305   7.131   2.749   1.924
 7121TIP3    H121306   7.041   2.749   1.955
 7121TIP3    H221307   7.152   2.657   1.911
 7122TIP3   OH221308   3.846   4.347   5.324
 7122TIP3    H121309   3.824   4.315   5.237
 7122TIP3    H221310   3.851   4.442   5.315
 7123TIP3   OH221311   0.527   0.060   4.249
 7123TIP3    H121312   0.453   0.113   4.278
 7123TIP3    H221313   0.565   0.109   4.176
 7124TIP3   OH221314   0.573   4.315   1.557
 7124TIP3    H121315   0.622   4.360   1.488
 7124TIP3    H221316   0.560   4.382   1.624
 7125TIP3   OH221317   3.161   1.223   5.801
 7125TIP3    H121318   3.166   1.282   5.726
 7125TIP3    H221319   3.217   1.149   5.778
 7126TIP3   OH221320   0.095   2.157   3.375
 7126TIP3    H121321   0.159   2.088   3.358
 7126TIP3    H221322   0.092   2.165   3.470
 7127TIP3   OH221323   5.065   4.283   3.774
 7127TIP3    H121324   5.133   4.255   3.834
 7127TIP3    H221325   5.028   4.202   3.739
 7128TIP3   OH221326   4.503   3.304   2.154
 7128TIP3    H121327   4.417   3.266   2.175
 7128TIP3    H221328   4.483   3.380   2.099
 7129TIP3   OH221329   7.347   7.548   1.398
 7129TIP3    H121330   7.429   7.594   1.382
 7129TIP3    H221331   7.366   7.490   1.471
 7130TIP3   OH221332   3.398   2.280   4.530
 7130TIP3    H121333   3.383   2.216   4.600
 7130TIP3    H221334   3.410   2.363   4.576
 7131TIP3   OH221335   2.806   3.359   2.417
 7131TIP3    H121336   2.888   3.314   2.396
 7131TIP3    H221337   2.795   3.422   2.345
 7132TIP3   OH221338   7.893   2.151   5.005
 7132TIP3    H121339   7.841   2.185   5.078
 7132TIP3    H221340   7.873   2.210   4.932
 7133TIP3   OH221341   2.102   2.370   0.367
 7133TIP3    H121342   2.169   2.345   0.304
 7133TIP3    H221343   2.042   2.427   0.318
 7134TIP3   OH221344   2.557   4.043   2.344
 7134TIP3    H121345   2.627   3.978   2.352
 7134TIP3    H221346   2.584   4.115   2.401
 7135TIP3   OH221347   2.736   4.182   0.425
 7135TIP3    H121348   2.748   4.129   0.346
 7135TIP3    H221349   2.769   4.269   0.401
 7136TIP3   OH221350   2.788   4.485   0.754
 7136TIP3    H121351   2.759   4.394   0.745
 7136TIP3    H221352   2.878   4.479   0.785
 7137TIP3   OH221353   1.804   4.902   3.976
 7137TIP3    H121354   1.896   4.890   3.953
 7137TIP3    H221355   1.775   4.978   3.925
 7138TIP3   OH221356   7.121   3.340   4.256
 7138TIP3    H121357   7.078   3.424   4.274
 7138TIP3    H221358   7.071   3.277   4.308
 7139TIP3   OH221359   0.414   7.737   2.627
 7139TIP3    H121360   0.343   7.785   2.671
 7139TIP3    H221361   0.485   7.800   2.620
 7140TIP3   OH221362   0.081   6.960   0.476
 7140TIP3    H121363   0.085   6.866   0.460
 7140TIP3    H221364   0.133   6.999   0.406
 7141TIP3   OH221365   4.098   0.036   3.122
 7141TIP3    H121366   4.187   0.004   3.104
 7141TIP3    H221367   4.062   0.056   3.036
 7142TIP3   OH221368   6.496   3.443   0.004
 7142TIP3    H121369   6.472   3.467   0.094
 7142TIP3    H221370   6.426   3.480  -0.050
 7143TIP3   OH221371   1.975   1.329   4.896
 7143TIP3    H121372   2.022   1.329   4.979
 7143TIP3    H221373   1.897   1.381   4.912
 7144TIP3   OH221374   7.369   6.977   2.036
 7144TIP3    H121375   7.341   6.891   2.068
 7144TIP3    H221376   7.412   6.959   1.952
 7145TIP3   OH221377   4.406   5.818   4.641
 7145TIP3    H121378   4.435   5.894   4.592
 7145TIP3    H221379   4.442   5.831   4.729
 7146TIP3   OH221380   5.756   6.249   4.116
 7146TIP3    H121381   5.797   6.203   4.042
 7146TIP3    H221382   5.723   6.180   4.172
 7147TIP3   OH221383   2.271   3.200   0.837
 7147TIP3    H121384   2.292   3.288   0.807
 7147TIP3    H221385   2.189   3.178   0.792
 7148TIP3   OH221386   7.709   3.906   2.085
 7148TIP3    H121387   7.696   3.962   2.162
 7148TIP3    H221388   7.788   3.856   2.104
 7149TIP3   OH221389   5.049   1.715   2.032
 7149TIP3    H121390   5.056   1.795   2.084
 7149TIP3    H221391   5.135   1.705   1.992
 7150TIP3   OH221392   8.112   7.605   4.272
 7150TIP3    H121393   8.184   7.556   4.311
 7150TIP3    H221394   8.082   7.550   4.199
 7151TIP3   OH221395   3.238   3.578   6.751
 7151TIP3    H121396   3.235   3.537   6.665
 7151TIP3    H221397   3.161   3.634   6.753
 7152TIP3   OH221398   5.231   3.325   6.625
 7152TIP3    H121399   5.293   3.252   6.622
 7152TIP3    H221400   5.160   3.294   6.681
 7153TIP3   OH221401   1.054   3.651   3.699
 7153TIP3    H121402   1.136   3.701   3.693
 7153TIP3    H221403   0.988   3.717   3.721
 7154TIP3   OH221404   6.800   5.297   3.561
 7154TIP3    H121405   6.875   5.295   3.501
 7154TIP3    H221406   6.832   5.345   3.638
 7155TIP3   OH221407   5.016   2.234   5.203
 7155TIP3    H121408   4.941   2.286   5.174
 7155TIP3    H221409   4.982   2.180   5.275
 7156TIP3   OH221410   6.831   3.930   1.296
 7156TIP3    H121411   6.826   3.982   1.216
 7156TIP3    H221412   6.821   3.993   1.367
 7157TIP3   OH221413   0.665   3.079   5.488
 7157TIP3    H121414   0.731   3.129   5.441
 7157TIP3    H221415   0.643   3.134   5.564
 7158TIP3   OH221416   2.707   7.006   0.549
 7158TIP3    H121417   2.656   7.017   0.469
 7158TIP3    H221418   2.647   6.960   0.609
 7159TIP3   OH221419   6.926   2.509   3.031
 7159TIP3    H121420   6.984   2.445   2.991
 7159TIP3    H221421   6.844   2.500   2.982
 7160TIP3   OH221422   8.111   6.831   4.629
 7160TIP3    H121423   8.207   6.837   4.621
 7160TIP3    H221424   8.084   6.920   4.652
 7161TIP3   OH221425   3.362   0.477   0.443
 7161TIP3    H121426   3.360   0.416   0.369
 7161TIP3    H221427   3.441   0.454   0.491
 7162TIP3   OH221428   3.608   2.187   1.310
 7162TIP3    H121429   3.524   2.168   1.351
 7162TIP3    H221430   3.671   2.181   1.382
 7163TIP3   OH221431   5.022   7.651   1.381
 7163TIP3    H121432   5.022   7.745   1.364
 7163TIP3    H221433   5.057   7.612   1.301
 7164TIP3   OH221434   0.449   5.595   0.653
 7164TIP3    H121435   0.528   5.584   0.598
 7164TIP3    H221436   0.477   5.566   0.740
 7165TIP3   OH221437   8.159   4.940   4.327
 7165TIP3    H121438   8.186   4.881   4.397
 7165TIP3    H221439   8.069   4.914   4.307
 7166TIP3   OH221440   3.095   7.188   3.974
 7166TIP3    H121441   3.048   7.212   4.054
 7166TIP3    H221442   3.090   7.093   3.971
 7167TIP3   OH221443   7.601   4.458   2.511
 7167TIP3    H121444   7.681   4.510   2.525
 7167TIP3    H221445   7.605   4.390   2.578
 7168TIP3   OH221446   2.140   7.204   1.888
 7168TIP3    H121447   2.215   7.147   1.871
 7168TIP3    H221448   2.064   7.152   1.861
 7169TIP3   OH221449   8.104   2.851   0.396
 7169TIP3    H121450   8.132   2.759   0.392
 7169TIP3    H221451   8.051   2.856   0.475
 7170TIP3   OH221452   2.902   0.273   1.509
 7170TIP3    H121453   2.873   0.211   1.577
 7170TIP3    H221454   2.977   0.318   1.548
 7171TIP3   OH221455   1.909   0.952   2.237
 7171TIP3    H121456   1.964   0.878   2.212
 7171TIP3    H221457   1.911   1.010   2.161
 7172TIP3   OH221458   6.606   2.739   0.780
 7172TIP3    H121459   6.608   2.645   0.762
 7172TIP3    H221460   6.539   2.773   0.720
 7173TIP3   OH221461   6.579   5.451   1.629
 7173TIP3    H121462   6.627   5.442   1.711
 7173TIP3    H221463   6.645   5.437   1.561
 7174TIP3   OH221464   3.022   4.175   0.179
 7174TIP3    H121465   3.086   4.241   0.151
 7174TIP3    H221466   3.020   4.182   0.274
 7175TIP3   OH221467   8.135   6.108   1.717
 7175TIP3    H121468   8.072   6.057   1.768
 7175TIP3    H221469   8.163   6.049   1.647
 7176TIP3   OH221470   5.219   1.342   2.501
 7176TIP3    H121471   5.230   1.397   2.424
 7176TIP3    H221472   5.298   1.287   2.502
 7177TIP3   OH221473   2.352   1.070   5.090
 7177TIP3    H121474   2.275   1.086   5.144
 7177TIP3    H221475   2.323   1.089   5.001
 7178TIP3   OH221476   5.259   3.064   0.342
 7178TIP3    H121477   5.267   2.986   0.396
 7178TIP3    H221478   5.348   3.098   0.336
 7179TIP3   OH221479   7.430   7.069   5.966
 7179TIP3    H121480   7.498   7.078   5.899
 7179TIP3    H221481   7.398   7.158   5.979
 7180TIP3   OH221482   1.174   1.184   1.237
 7180TIP3    H121483   1.113   1.112   1.255
 7180TIP3    H221484   1.151   1.251   1.301
 7181TIP3   OH221485   2.128   6.440   0.792
 7181TIP3    H121486   2.069   6.416   0.863
 7181TIP3    H221487   2.116   6.534   0.780
 7182TIP3   OH221488   4.145   0.029   6.585
 7182TIP3    H121489   4.156  -0.024   6.505
 7182TIP3    H221490   4.134   0.118   6.553
 7183TIP3   OH221491   4.194   7.412   4.013
 7183TIP3    H121492   4.128   7.402   4.081
 7183TIP3    H221493   4.238   7.495   4.034
 7184TIP3   OH221494   6.143   6.581   5.269
 7184TIP3    H121495   6.104   6.664   5.241
 7184TIP3    H221496   6.163   6.594   5.362
 7185TIP3   OH221497   1.964   0.048   1.954
 7185TIP3    H121498   2.035   0.005   2.002
 7185TIP3    H221499   1.988   0.037   1.862
 7186TIP3   OH221500   2.620   5.285   4.104
 7186TIP3    H121501   2.611   5.194   4.076
 7186TIP3    H221502   2.555   5.296   4.173
 7187TIP3   OH221503   2.910   1.392   1.826
 7187TIP3    H121504   2.933   1.319   1.883
 7187TIP3    H221505   2.826   1.422   1.859
 7188TIP3   OH221506   6.947   3.549   4.345
 7188TIP3    H121507   6.852   3.551   4.361
 7188TIP3    H221508   6.985   3.582   4.427
 7189TIP3   OH221509   4.890   1.851   4.680
 7189TIP3    H121510   4.808   1.899   4.664
 7189TIP3    H221511   4.902   1.854   4.775
 7190TIP3   OH221512   0.992   4.412   4.385
 7190TIP3    H121513   1.020   4.460   4.463
 7190TIP3    H221514   1.061   4.347   4.371
 7191TIP3   OH221515   4.670   3.678   2.885
 7191TIP3    H121516   4.702   3.588   2.890
 7191TIP3    H221517   4.667   3.708   2.976
 7192TIP3   OH221518   8.186   7.071   0.172
 7192TIP3    H121519   8.140   7.082   0.088
 7192TIP3    H221520   8.218   6.981   0.170
 7193TIP3   OH221521   3.199   5.598   2.162
 7193TIP3    H121522   3.105   5.604   2.145
 7193TIP3    H221523   3.206   5.546   2.242
 7194TIP3   OH221524   3.590   5.624   4.093
 7194TIP3    H121525   3.623   5.561   4.157
 7194TIP3    H221526   3.668   5.663   4.055
 7195TIP3   OH221527   0.986   0.762   4.464
 7195TIP3    H121528   1.034   0.760   4.381
 7195TIP3    H221529   1.031   0.697   4.519
 7196TIP3   OH221530   7.498   1.812   0.037
 7196TIP3    H121531   7.487   1.738  -0.023
 7196TIP3    H221532   7.478   1.776   0.123
 7197TIP3   OH221533   3.158   5.622   5.204
 7197TIP3    H121534   3.155   5.573   5.121
 7197TIP3    H221535   3.234   5.585   5.250
 7198TIP3   OH221536   4.575   6.966   1.933
 7198TIP3    H121537   4.628   7.043   1.916
 7198TIP3    H221538   4.492   7.001   1.966
 7199TIP3   OH221539   4.304   3.907   6.231
 7199TIP3    H121540   4.210   3.920   6.222
 7199TIP3    H221541   4.341   3.995   6.228
 7200TIP3   OH221542   0.066   6.834   6.051
 7200TIP3    H121543   0.158   6.852   6.071
 7200TIP3    H221544   0.068   6.790   5.966
 7201TIP3   OH221545   4.693   7.133   5.706
 7201TIP3    H121546   4.646   7.059   5.744
 7201TIP3    H221547   4.752   7.162   5.775
 7202TIP3   OH221548   4.626   4.022   0.838
 7202TIP3    H121549   4.569   4.099   0.831
 7202TIP3    H221550   4.580   3.954   0.789
 7203TIP3   OH221551   0.293   0.165   4.587
 7203TIP3    H121552   0.375   0.157   4.636
 7203TIP3    H221553   0.233   0.105   4.631
 7204TIP3   OH221554   1.247   2.649   2.879
 7204TIP3    H121555   1.225   2.628   2.788
 7204TIP3    H221556   1.246   2.565   2.924
 7205TIP3   OH221557   0.548   5.939   3.233
 7205TIP3    H121558   0.640   5.916   3.232
 7205TIP3    H221559   0.503   5.858   3.257
 7206TIP3   OH221560   5.953   7.203   5.257
 7206TIP3    H121561   5.868   7.186   5.217
 7206TIP3    H221562   6.012   7.219   5.183
 7207TIP3   OH221563   8.068   6.337   6.069
 7207TIP3    H121564   8.010   6.386   6.010
 7207TIP3    H221565   8.152   6.383   6.064
 7208TIP3   OH221566   5.982   5.848   1.734
 7208TIP3    H121567   5.893   5.835   1.702
 7208TIP3    H221568   5.971   5.869   1.827
 7209TIP3   OH221569   1.155   4.882   6.372
 7209TIP3    H121570   1.099   4.959   6.371
 7209TIP3    H221571   1.115   4.824   6.437
 7210TIP3   OH221572   4.049   3.185   4.251
 7210TIP3    H121573   4.063   3.170   4.158
 7210TIP3    H221574   4.111   3.126   4.294
 7211TIP3   OH221575   6.820   3.267   5.971
 7211TIP3    H121576   6.745   3.243   5.917
 7211TIP3    H221577   6.791   3.248   6.061
 7212TIP3   OH221578   7.036   7.799   2.325
 7212TIP3    H121579   7.117   7.749   2.314
 7212TIP3    H221580   7.038   7.830   2.415
 7213TIP3   OH221581   6.800   5.651   2.081
 7213TIP3    H121582   6.842   5.576   2.122
 7213TIP3    H221583   6.777   5.622   1.993
 7214TIP3   OH221584   7.067   2.041   6.697
 7214TIP3    H121585   7.033   2.130   6.708
 7214TIP3    H221586   7.142   2.051   6.638
 7215TIP3   OH221587   5.484   1.764   3.933
 7215TIP3    H121588   5.398   1.797   3.905
 7215TIP3    H221589   5.481   1.770   4.029
 7216TIP3   OH221590   5.750   1.018   1.441
 7216TIP3    H121591   5.821   0.972   1.485
 7216TIP3    H221592   5.676   1.011   1.501
 7217TIP3   OH221593   0.718   7.186   2.691
 7217TIP3    H121594   0.783   7.240   2.647
 7217TIP3    H221595   0.639   7.239   2.693
 7218TIP3   OH221596   2.553   6.935   4.381
 7218TIP3    H121597   2.544   7.021   4.340
 7218TIP3    H221598   2.647   6.916   4.376
 7219TIP3   OH221599   1.458   5.382   0.515
 7219TIP3    H121600   1.425   5.472   0.517
 7219TIP3    H221601   1.409   5.337   0.584
 7220TIP3   OH221602   3.651   0.384   5.310
 7220TIP3    H121603   3.601   0.411   5.387
 7220TIP3    H221604   3.593   0.402   5.236
 7221TIP3   OH221605   1.953   1.366   3.924
 7221TIP3    H121606   1.892   1.359   3.850
 7221TIP3    H221607   2.037   1.388   3.884
 7222TIP3   OH221608   2.287   3.076   0.038
 7222TIP3    H121609   2.291   2.993   0.085
 7222TIP3    H221610   2.196   3.103   0.045
 7223TIP3   OH221611   5.856   7.185   4.373
 7223TIP3    H121612   5.828   7.233   4.295
 7223TIP3    H221613   5.798   7.215   4.443
 7224TIP3   OH221614   6.140   5.088   3.398
 7224TIP3    H121615   6.114   4.997   3.386
 7224TIP3    H221616   6.193   5.109   3.321
 7225TIP3   OH221617   8.155   5.394   2.611
 7225TIP3    H121618   8.214   5.459   2.650
 7225TIP3    H221619   8.133   5.430   2.525
 7226TIP3   OH221620   0.977   3.989   3.988
 7226TIP3    H121621   0.911   3.976   4.056
 7226TIP3    H221622   0.959   3.920   3.924
 7227TIP3   OH221623   7.105   5.557   0.749
 7227TIP3    H121624   7.136   5.473   0.716
 7227TIP3    H221625   7.169   5.621   0.719
 7228TIP3   OH221626   1.757   4.760   2.915
 7228TIP3    H121627   1.694   4.716   2.972
 7228TIP3    H221628   1.722   4.849   2.905
 7229TIP3   OH221629   1.378   7.356   2.295
 7229TIP3    H121630   1.430   7.332   2.372
 7229TIP3    H221631   1.435   7.338   2.221
 7230TIP3   OH221632   6.039   2.256   4.171
 7230TIP3    H121633   6.133   2.244   4.187
 7230TIP3    H221634   6.005   2.289   4.254
 7231TIP3   OH221635   6.560   1.224   5.991
 7231TIP3    H121636   6.539   1.260   6.077
 7231TIP3    H221637   6.599   1.138   6.010
 7232TIP3   OH221638   2.505   6.802   2.082
 7232TIP3    H121639   2.500   6.888   2.124
 7232TIP3    H221640   2.553   6.818   2.001
 7233TIP3   OH221641   3.616   6.533   0.577
 7233TIP3    H121642   3.570   6.501   0.499
 7233TIP3    H221643   3.643   6.622   0.555
 7234TIP3   OH221644   4.069   2.776   0.607
 7234TIP3    H121645   4.106   2.845   0.552
 7234TIP3    H221646   4.081   2.807   0.696
 7235TIP3   OH221647   7.612   0.809   2.549
 7235TIP3    H121648   7.580   0.765   2.470
 7235TIP3    H221649   7.679   0.869   2.518
 7236TIP3   OH221650   3.931   5.338   6.649
 7236TIP3    H121651   4.015   5.300   6.624
 7236TIP3    H221652   3.866   5.274   6.618
 7237TIP3   OH221653   7.830   6.878   2.635
 7237TIP3    H121654   7.893   6.909   2.699
 7237TIP3    H221655   7.802   6.957   2.588
 7238TIP3   OH221656   7.070   1.243   4.440
 7238TIP3    H121657   6.987   1.206   4.467
 7238TIP3    H221658   7.129   1.168   4.432
 7239TIP3   OH221659   4.512   3.738   2.379
 7239TIP3    H121660   4.554   3.808   2.328
 7239TIP3    H221661   4.453   3.784   2.439
 7240TIP3   OH221662   2.839   6.412   3.862
 7240TIP3    H121663   2.848   6.325   3.901
 7240TIP3    H221664   2.761   6.406   3.807
 7241TIP3   OH221665   3.262   1.455   3.626
 7241TIP3    H121666   3.250   1.367   3.591
 7241TIP3    H221667   3.257   1.512   3.550
 7242TIP3   OH221668   1.075   3.972   1.137
 7242TIP3    H121669   1.034   3.897   1.178
 7242TIP3    H221670   1.053   4.046   1.194
 7243TIP3   OH221671   8.095   7.248   0.995
 7243TIP3    H121672   8.051   7.181   0.942
 7243TIP3    H221673   8.187   7.224   0.992
 7244TIP3   OH221674   6.050   7.135   1.737
 7244TIP3    H121675   5.966   7.132   1.784
 7244TIP3    H221676   6.112   7.092   1.795
 7245TIP3   OH221677   5.892   7.612   6.163
 7245TIP3    H121678   5.844   7.689   6.192
 7245TIP3    H221679   5.976   7.646   6.131
 7246TIP3   OH221680   0.680   5.964   4.012
 7246TIP3    H121681   0.722   6.007   4.087
 7246TIP3    H221682   0.634   6.035   3.967
 7247TIP3   OH221683   5.504   3.176   6.615
 7247TIP3    H121684   5.538   3.159   6.527
 7247TIP3    H221685   5.576   3.150   6.673
 7248TIP3   OH221686   0.318   2.070   6.556
 7248TIP3    H121687   0.335   1.994   6.500
 7248TIP3    H221688   0.236   2.106   6.521
 7249TIP3   OH221689   0.979   3.730   1.215
 7249TIP3    H121690   0.957   3.724   1.307
 7249TIP3    H221691   1.004   3.641   1.190
 7250TIP3   OH221692   5.599   3.466   6.381
 7250TIP3    H121693   5.548   3.393   6.345
 7250TIP3    H221694   5.687   3.430   6.393
 7251TIP3   OH221695   2.392   2.004   4.337
 7251TIP3    H121696   2.335   1.945   4.287
 7251TIP3    H221697   2.461   2.028   4.275
 7252TIP3   OH221698   6.658   1.506   4.029
 7252TIP3    H121699   6.732   1.550   3.987
 7252TIP3    H221700   6.698   1.454   4.099
 7253TIP3   OH221701   6.589   0.808   2.630
 7253TIP3    H121702   6.551   0.815   2.717
 7253TIP3    H221703   6.581   0.896   2.593
 7254TIP3   OH221704   5.370   0.678   4.629
 7254TIP3    H121705   5.370   0.769   4.601
 7254TIP3    H221706   5.380   0.682   4.724
 7255TIP3   OH221707   3.392   2.018   6.600
 7255TIP3    H121708   3.403   1.934   6.556
 7255TIP3    H221709   3.390   1.996   6.693
 7256TIP3   OH221710   6.461   5.033   1.172
 7256TIP3    H121711   6.480   4.943   1.200
 7256TIP3    H221712   6.515   5.087   1.230
 7257TIP3   OH221713   2.706   0.428   6.705
 7257TIP3    H121714   2.766   0.478   6.649
 7257TIP3    H221715   2.660   0.494   6.756
 7258TIP3   OH221716   6.504   3.118   2.197
 7258TIP3    H121717   6.562   3.043   2.215
 7258TIP3    H221718   6.489   3.114   2.103
 7259TIP3   OH221719   7.394   6.853   5.156
 7259TIP3    H121720   7.423   6.935   5.197
 7259TIP3    H221721   7.316   6.828   5.205
 7260TIP3   OH221722   4.266   2.276   3.716
 7260TIP3    H121723   4.271   2.299   3.809
 7260TIP3    H221724   4.182   2.309   3.687
 7261TIP3   OH221725   4.032   6.051   1.984
 7261TIP3    H121726   4.098   5.993   1.946
 7261TIP3    H221727   4.081   6.109   2.042
 7262TIP3   OH221728   3.129   3.033   6.272
 7262TIP3    H121729   3.036   3.010   6.274
 7262TIP3    H221730   3.147   3.054   6.181
 7263TIP3   OH221731   0.976   5.517   6.000
 7263TIP3    H121732   0.948   5.522   5.908
 7263TIP3    H221733   1.018   5.602   6.016
 7264TIP3   OH221734   4.638   1.722   4.006
 7264TIP3    H121735   4.583   1.734   4.083
 7264TIP3    H221736   4.716   1.678   4.039
 7265TIP3   OH221737   1.591   4.958   2.811
 7265TIP3    H121738   1.501   4.987   2.794
 7265TIP3    H221739   1.625   4.938   2.724
 7266TIP3   OH221740   4.825   2.152   1.405
 7266TIP3    H121741   4.746   2.116   1.446
 7266TIP3    H221742   4.852   2.085   1.342
 7267TIP3   OH221743   3.597   1.469   0.997
 7267TIP3    H121744   3.543   1.390   1.006
 7267TIP3    H221745   3.621   1.470   0.904
 7268TIP3   OH221746   0.886   2.420   2.398
 7268TIP3    H121747   0.942   2.378   2.463
 7268TIP3    H221748   0.841   2.348   2.355
 7269TIP3   OH221749   5.897   4.835   3.897
 7269TIP3    H121750   5.831   4.767   3.904
 7269TIP3    H221751   5.894   4.862   3.805
 7270TIP3   OH221752   1.338   5.672   0.261
 7270TIP3    H121753   1.374   5.593   0.221
 7270TIP3    H221754   1.396   5.690   0.335
 7271TIP3   OH221755   5.904   2.181   6.006
 7271TIP3    H121756   5.954   2.263   6.004
 7271TIP3    H221757   5.971   2.113   6.002
 7272TIP3   OH221758   1.591   1.478   4.861
 7272TIP3    H121759   1.672   1.486   4.911
 7272TIP3    H221760   1.618   1.442   4.776
 7273TIP3   OH221761   0.388   4.227   0.817
 7273TIP3    H121762   0.480   4.245   0.797
 7273TIP3    H221763   0.367   4.287   0.888
 7274TIP3   OH221764   2.588   2.700   4.543
 7274TIP3    H121765   2.588   2.721   4.449
 7274TIP3    H221766   2.674   2.661   4.559
 7275TIP3   OH221767   4.404   6.006   3.704
 7275TIP3    H121768   4.470   6.075   3.709
 7275TIP3    H221769   4.423   5.960   3.623
 7276TIP3   OH221770   0.179   7.058   2.188
 7276TIP3    H121771   0.194   7.096   2.102
 7276TIP3    H221772   0.134   7.126   2.237
 7277TIP3   OH221773   5.705   4.865   5.010
 7277TIP3    H121774   5.737   4.936   5.066
 7277TIP3    H221775   5.752   4.787   5.040
 7278TIP3   OH221776   2.246   4.222   4.288
 7278TIP3    H121777   2.202   4.188   4.211
 7278TIP3    H221778   2.267   4.313   4.265
 7279TIP3   OH221779   3.206   2.015   0.112
 7279TIP3    H121780   3.291   2.049   0.143
 7279TIP3    H221781   3.186   2.069   0.035
 7280TIP3   OH221782   2.747   2.158   2.497
 7280TIP3    H121783   2.806   2.231   2.477
 7280TIP3    H221784   2.804   2.092   2.536
 7281TIP3   OH221785   1.423   3.526   4.845
 7281TIP3    H121786   1.478   3.580   4.788
 7281TIP3    H221787   1.485   3.467   4.889
 7282TIP3   OH221788   5.478   7.548   6.783
 7282TIP3    H121789   5.464   7.457   6.756
 7282TIP3    H221790   5.392   7.590   6.772
 7283TIP3   OH221791   0.198   3.910   5.662
 7283TIP3    H121792   0.254   3.847   5.616
 7283TIP3    H221793   0.244   3.994   5.654
 7284TIP3   OH221794   5.435   4.296   5.246
 7284TIP3    H121795   5.499   4.260   5.307
 7284TIP3    H221796   5.353   4.252   5.268
 7285TIP3   OH221797   2.251   6.705   3.072
 7285TIP3    H121798   2.172   6.737   3.116
 7285TIP3    H221799   2.253   6.611   3.092
 7286TIP3   OH221800   4.499   6.680   3.236
 7286TIP3    H121801   4.460   6.673   3.149
 7286TIP3    H221802   4.505   6.774   3.252
 7287TIP3   OH221803   0.487   7.323   3.910
 7287TIP3    H121804   0.456   7.258   3.973
 7287TIP3    H221805   0.559   7.368   3.954
 7288TIP3   OH221806   6.122   0.885   0.452
 7288TIP3    H121807   6.093   0.914   0.539
 7288TIP3    H221808   6.045   0.842   0.414
 7289TIP3   OH221809   6.220   3.312   0.974
 7289TIP3    H121810   6.137   3.279   1.008
 7289TIP3    H221811   6.274   3.327   1.051
 7290TIP3   OH221812   3.297   4.073   5.879
 7290TIP3    H121813   3.267   4.127   5.805
 7290TIP3    H221814   3.303   3.985   5.843
 7291TIP3   OH221815   5.378   2.673   3.229
 7291TIP3    H121816   5.342   2.756   3.261
 7291TIP3    H221817   5.321   2.649   3.156
 7292TIP3   OH221818   1.392   4.360   5.159
 7292TIP3    H121819   1.392   4.281   5.104
 7292TIP3    H221820   1.317   4.348   5.217
 7293TIP3   OH221821   5.196   2.596   3.037
 7293TIP3    H121822   5.127   2.648   2.996
 7293TIP3    H221823   5.252   2.570   2.964
 7294TIP3   OH221824   4.993   6.728   1.243
 7294TIP3    H121825   5.000   6.795   1.174
 7294TIP3    H221826   4.913   6.751   1.289
 7295TIP3   OH221827   8.272   1.988   4.732
 7295TIP3    H121828   8.318   1.939   4.664
 7295TIP3    H221829   8.208   1.927   4.767
 7296TIP3   OH221830   6.259   2.228   1.693
 7296TIP3    H121831   6.314   2.299   1.659
 7296TIP3    H221832   6.177   2.236   1.643
 7297TIP3   OH221833   5.127   2.974   6.353
 7297TIP3    H121834   5.098   3.028   6.279
 7297TIP3    H221835   5.223   2.977   6.350
 7298TIP3   OH221836   2.160   7.207   6.251
 7298TIP3    H121837   2.248   7.225   6.284
 7298TIP3    H221838   2.168   7.122   6.208
 7299TIP3   OH221839   7.283   2.941   1.762
 7299TIP3    H121840   7.218   2.898   1.818
 7299TIP3    H221841   7.305   2.876   1.696
 7300TIP3   OH221842   7.746   4.813   2.270
 7300TIP3    H121843   7.699   4.765   2.202
 7300TIP3    H221844   7.700   4.896   2.277
 7301TIP3   OH221845   1.728   4.044   4.476
 7301TIP3    H121846   1.815   4.060   4.441
 7301TIP3    H221847   1.694   3.971   4.424
 7302TIP3   OH221848   1.754   7.186   2.699
 7302TIP3    H121849   1.683   7.230   2.652
 7302TIP3    H221850   1.834   7.213   2.653
 7303TIP3   OH221851   6.007   6.040   2.364
 7303TIP3    H121852   6.099   6.025   2.340
 7303TIP3    H221853   5.989   5.972   2.430
 7304TIP3   OH221854   7.467   4.012   1.930
 7304TIP3    H121855   7.492   4.104   1.933
 7304TIP3    H221856   7.538   3.966   1.976
 7305TIP3   OH221857   0.523   3.377   1.905
 7305TIP3    H121858   0.480   3.307   1.953
 7305TIP3    H221859   0.495   3.365   1.814
 7306TIP3   OH221860   4.460   5.162   5.048
 7306TIP3    H121861   4.390   5.102   5.022
 7306TIP3    H221862   4.439   5.244   5.004
 7307TIP3   OH221863   5.607   0.453   2.236
 7307TIP3    H121864   5.691   0.495   2.257
 7307TIP3    H221865   5.553   0.465   2.314
 7308TIP3   OH221866   4.212   0.724   2.594
 7308TIP3    H121867   4.211   0.628   2.597
 7308TIP3    H221868   4.295   0.746   2.552
 7309TIP3   OH221869   5.611   2.540   0.310
 7309TIP3    H121870   5.551   2.495   0.369
 7309TIP3    H221871   5.558   2.563   0.234
 7310TIP3   OH221872   5.098   2.663   3.542
 7310TIP3    H121873   5.164   2.601   3.510
 7310TIP3    H221874   5.020   2.645   3.489
 7311TIP3   OH221875   3.869   2.275   6.613
 7311TIP3    H121876   3.854   2.197   6.665
 7311TIP3    H221877   3.912   2.244   6.533
 7312TIP3   OH221878   4.928   4.853   1.731
 7312TIP3    H121879   5.005   4.891   1.689
 7312TIP3    H221880   4.944   4.759   1.731
 7313TIP3   OH221881   5.557   4.167   1.579
 7313TIP3    H121882   5.552   4.248   1.630
 7313TIP3    H221883   5.651   4.148   1.574
 7314TIP3   OH221884   7.661   0.383   4.140
 7314TIP3    H121885   7.686   0.471   4.169
 7314TIP3    H221886   7.675   0.384   4.045
 7315TIP3   OH221887   6.583   4.923   4.367
 7315TIP3    H121888   6.504   4.978   4.374
 7315TIP3    H221889   6.611   4.934   4.276
 7316TIP3   OH221890   4.758   3.317   4.961
 7316TIP3    H121891   4.760   3.331   5.055
 7316TIP3    H221892   4.715   3.232   4.951
 7317TIP3   OH221893   5.474   6.235   3.838
 7317TIP3    H121894   5.555   6.225   3.788
 7317TIP3    H221895   5.445   6.324   3.821
 7318TIP3   OH221896   4.308   7.242   6.465
 7318TIP3    H121897   4.261   7.289   6.396
 7318TIP3    H221898   4.392   7.287   6.472
 7319TIP3   OH221899   6.082   7.067   5.755
 7319TIP3    H121900   6.023   7.086   5.681
 7319TIP3    H221901   6.169   7.064   5.716
 7320TIP3   OH221902   0.936   7.706   0.768
 7320TIP3    H121903   0.950   7.616   0.798
 7320TIP3    H221904   0.847   7.727   0.797
 7321TIP3   OH221905   2.029   1.734   0.395
 7321TIP3    H121906   2.061   1.708   0.481
 7321TIP3    H221907   2.017   1.829   0.401
 7322TIP3   OH221908   2.336   6.858   4.216
 7322TIP3    H121909   2.294   6.942   4.196
 7322TIP3    H221910   2.415   6.882   4.264
 7323TIP3   OH221911   7.237   6.995   3.529
 7323TIP3    H121912   7.294   7.034   3.463
 7323TIP3    H221913   7.151   7.034   3.513
 7324TIP3   OH221914   7.722   2.991   0.466
 7324TIP3    H121915   7.695   2.904   0.496
 7324TIP3    H221916   7.776   3.025   0.538
 7325TIP3   OH221917   0.651   1.557   1.327
 7325TIP3    H121918   0.589   1.506   1.275
 7325TIP3    H221919   0.651   1.515   1.413
 7326TIP3   OH221920   3.266   4.486   2.572
 7326TIP3    H121921   3.199   4.424   2.545
 7326TIP3    H221922   3.246   4.504   2.664
 7327TIP3   OH221923   3.625   6.544   0.866
 7327TIP3    H121924   3.694   6.483   0.891
 7327TIP3    H221925   3.626   6.542   0.770
 7328TIP3   OH221926   5.950   3.359   3.562
 7328TIP3    H121927   5.988   3.446   3.577
 7328TIP3    H221928   5.886   3.349   3.633
 7329TIP3   OH221929   0.366   2.214   2.398
 7329TIP3    H121930   0.358   2.306   2.371
 7329TIP3    H221931   0.432   2.215   2.467
 7330TIP3   OH221932   3.218   1.019   6.645
 7330TIP3    H121933   3.159   1.064   6.584
 7330TIP3    H221934   3.174   1.025   6.730
 7331TIP3   OH221935   1.289   0.188   3.873
 7331TIP3    H121936   1.370   0.236   3.861
 7331TIP3    H221937   1.291   0.119   3.807
 7332TIP3   OH221938   5.533   1.731   2.091
 7332TIP3    H121939   5.513   1.738   2.184
 7332TIP3    H221940   5.629   1.739   2.086
 7333TIP3   OH221941   6.666   5.881   4.385
 7333TIP3    H121942   6.732   5.925   4.332
 7333TIP3    H221943   6.595   5.943   4.393
 7334TIP3   OH221944   0.500   1.325   2.894
 7334TIP3    H121945   0.555   1.392   2.854
 7334TIP3    H221946   0.537   1.312   2.981
 7335TIP3   OH221947   5.497   3.765   4.935
 7335TIP3    H121948   5.466   3.816   4.861
 7335TIP3    H221949   5.425   3.767   4.998
 7336TIP3   OH221950   7.731   5.832   1.771
 7336TIP3    H121951   7.679   5.905   1.807
 7336TIP3    H221952   7.753   5.779   1.848
 7337TIP3   OH221953   5.528   0.826   3.823
 7337TIP3    H121954   5.493   0.796   3.739
 7337TIP3    H221955   5.623   0.818   3.813
 7338TIP3   OH221956   0.878   5.566   5.744
 7338TIP3    H121957   0.852   5.579   5.653
 7338TIP3    H221958   0.863   5.650   5.786
 7339TIP3   OH221959   2.284   7.458   5.241
 7339TIP3    H121960   2.325   7.520   5.181
 7339TIP3    H221961   2.216   7.509   5.286
 7340TIP3   OH221962   6.670   1.366   4.308
 7340TIP3    H121963   6.621   1.300   4.358
 7340TIP3    H221964   6.746   1.386   4.363
 7341TIP3   OH221965   7.553   0.389   0.918
 7341TIP3    H121966   7.566   0.318   0.856
 7341TIP3    H221967   7.475   0.435   0.887
 7342TIP3   OH221968   1.665   5.871   2.098
 7342TIP3    H121969   1.615   5.867   2.179
 7342TIP3    H221970   1.627   5.802   2.043
 7343TIP3   OH221971   4.866   6.433   1.690
 7343TIP3    H121972   4.800   6.481   1.641
 7343TIP3    H221973   4.908   6.376   1.626
 7344TIP3   OH221974   0.395   7.603   5.875
 7344TIP3    H121975   0.308   7.590   5.837
 7344TIP3    H221976   0.413   7.521   5.922
 7345TIP3   OH221977   4.713   2.028   6.473
 7345TIP3    H121978   4.649   2.096   6.455
 7345TIP3    H221979   4.796   2.065   6.444
 7346TIP3   OH221980   6.696   4.227   4.600
 7346TIP3    H121981   6.779   4.184   4.620
 7346TIP3    H221982   6.717   4.321   4.596
 7347TIP3   OH221983   8.144   2.642   3.616
 7347TIP3    H121984   8.209   2.679   3.556
 7347TIP3    H221985   8.141   2.704   3.688
 7348TIP3   OH221986   5.350   0.668   2.990
 7348TIP3    H121987   5.363   0.671   3.085
 7348TIP3    H221988   5.255   0.663   2.979
 7349TIP3   OH221989   5.930   0.144   3.482
 7349TIP3    H121990   6.008   0.192   3.510
 7349TIP3    H221991   5.961   0.084   3.414
 7350TIP3   OH221992   3.157   3.860   2.666
 7350TIP3    H121993   3.134   3.949   2.638
 7350TIP3    H221994   3.116   3.803   2.602
 7351TIP3   OH221995   4.550   2.250   6.076
 7351TIP3    H121996   4.482   2.260   6.142
 7351TIP3    H221997   4.513   2.190   6.011
 7352TIP3   OH221998   5.728   1.755   2.685
 7352TIP3    H121999   5.818   1.723   2.690
 7352TIP3    H222000   5.674   1.676   2.681
 7353TIP3   OH222001   5.551   4.954   4.039
 7353TIP3    H122002   5.496   4.877   4.023
 7353TIP3    H222003   5.547   5.004   3.958
 7354TIP3   OH222004   2.585   3.936   5.800
 7354TIP3    H122005   2.490   3.942   5.814
 7354TIP3    H222006   2.620   3.906   5.884
 7355TIP3   OH222007   3.082   1.847   5.867
 7355TIP3    H122008   3.104   1.917   5.806
 7355TIP3    H222009   3.144   1.859   5.940
 7356TIP3   OH222010   3.241   0.113   3.903
 7356TIP3    H122011   3.306   0.182   3.917
 7356TIP3    H222012   3.273   0.039   3.954
 7357TIP3   OH222013   1.945   4.346   4.327
 7357TIP3    H122014   1.886   4.306   4.263
 7357TIP3    H222015   2.024   4.291   4.324
 7358TIP3   OH222016   8.266   0.128   1.675
 7358TIP3    H122017   8.326   0.079   1.731
 7358TIP3    H222018   8.321   0.163   1.605
 7359TIP3   OH222019   6.967   4.898   0.822
 7359TIP3    H122020   7.013   4.971   0.863
 7359TIP3    H222021   6.989   4.905   0.729
 7360TIP3   OH222022   1.239   6.371   5.913
 7360TIP3    H122023   1.182   6.382   5.837
 7360TIP3    H222024   1.281   6.457   5.924
 7361TIP3   OH222025   1.777   2.790   5.934
 7361TIP3    H122026   1.687   2.798   5.966
 7361TIP3    H222027   1.786   2.699   5.907
 7362TIP3   OH222028   3.459   7.807   6.431
 7362TIP3    H122029   3.399   7.874   6.399
 7362TIP3    H222030   3.485   7.759   6.352
 7363TIP3   OH222031   6.644   1.443   3.326
 7363TIP3    H122032   6.594   1.524   3.318
 7363TIP3    H222033   6.681   1.430   3.239
 7364TIP3   OH222034   3.178   5.698   2.830
 7364TIP3    H122035   3.194   5.650   2.911
 7364TIP3    H222036   3.153   5.630   2.767
 7365TIP3   OH222037   4.975   0.006   5.781
 7365TIP3    H122038   4.939  -0.007   5.868
 7365TIP3    H222039   5.036   0.079   5.790
 7366TIP3   OH222040   7.006   2.405   0.580
 7366TIP3    H122041   6.965   2.458   0.511
 7366TIP3    H222042   7.024   2.321   0.538
 7367TIP3   OH222043   2.956   4.731   2.283
 7367TIP3    H122044   3.022   4.798   2.299
 7367TIP3    H222045   2.874   4.771   2.311
 7368TIP3   OH222046   3.110   3.265   3.916
 7368TIP3    H122047   3.054   3.263   3.994
 7368TIP3    H222048   3.056   3.230   3.846
 7369TIP3   OH222049   5.817   7.520   4.277
 7369TIP3    H122050   5.903   7.550   4.248
 7369TIP3    H222051   5.817   7.536   4.372
 7370TIP3   OH222052   5.947   1.986   0.637
 7370TIP3    H122053   5.867   1.932   0.642
 7370TIP3    H222054   5.918   2.074   0.660
 7371TIP3   OH222055   7.457   5.056   0.546
 7371TIP3    H122056   7.493   4.971   0.522
 7371TIP3    H222057   7.376   5.063   0.496
 7372TIP3   OH222058   2.984   3.324   0.353
 7372TIP3    H122059   2.934   3.325   0.271
 7372TIP3    H222060   2.989   3.231   0.376
 7373TIP3   OH222061   4.064   0.120   1.322
 7373TIP3    H122062   4.033   0.049   1.267
 7373TIP3    H222063   4.091   0.188   1.261
 7374TIP3   OH222064   1.642   5.361   1.227
 7374TIP3    H122065   1.582   5.304   1.180
 7374TIP3    H222066   1.699   5.397   1.158
 7375TIP3   OH222067   3.961   5.848   1.539
 7375TIP3    H122068   3.930   5.763   1.506
 7375TIP3    H222069   3.946   5.843   1.634
 7376TIP3   OH222070   4.954   1.519   0.364
 7376TIP3    H122071   4.903   1.538   0.443
 7376TIP3    H222072   4.901   1.553   0.292
 7377TIP3   OH222073   5.180   1.433   2.187
 7377TIP3    H122074   5.261   1.385   2.204
 7377TIP3    H222075   5.209   1.521   2.163
 7378TIP3   OH222076   6.911   3.633   4.092
 7378TIP3    H122077   6.921   3.614   4.185
 7378TIP3    H222078   6.977   3.700   4.073
 7379TIP3   OH222079   0.120   4.793   4.300
 7379TIP3    H122080   0.047   4.740   4.268
 7379TIP3    H222081   0.115   4.874   4.250
 7380TIP3   OH222082   5.445   6.449   6.644
 7380TIP3    H122083   5.418   6.539   6.660
 7380TIP3    H222084   5.396   6.397   6.708
 7381TIP3   OH222085   5.822   1.970   5.630
 7381TIP3    H122086   5.900   1.949   5.680
 7381TIP3    H222087   5.850   1.969   5.538
 7382TIP3   OH222088   1.485   2.430   1.408
 7382TIP3    H122089   1.500   2.510   1.358
 7382TIP3    H222090   1.484   2.361   1.341
 7383TIP3   OH222091   0.452   6.823   4.822
 7383TIP3    H122092   0.430   6.799   4.911
 7383TIP3    H222093   0.500   6.748   4.787
 7384TIP3   OH222094   6.328   6.114   2.438
 7384TIP3    H122095   6.268   6.141   2.506
 7384TIP3    H222096   6.415   6.133   2.473
 7385TIP3   OH222097   6.733   2.510   4.504
 7385TIP3    H122098   6.756   2.530   4.595
 7385TIP3    H222099   6.790   2.436   4.481
 7386TIP3   OH222100   3.528   0.234   3.182
 7386TIP3    H122101   3.622   0.217   3.191
 7386TIP3    H222102   3.508   0.206   3.093
 7387TIP3   OH222103   5.914   5.120   6.440
 7387TIP3    H122104   6.006   5.095   6.427
 7387TIP3    H222105   5.884   5.147   6.354
 7388TIP3   OH222106   7.055   3.927   5.657
 7388TIP3    H122107   7.035   3.903   5.567
 7388TIP3    H222108   7.119   3.997   5.650
 7389TIP3   OH222109   3.218   7.809   5.675
 7389TIP3    H122110   3.144   7.783   5.621
 7389TIP3    H222111   3.210   7.757   5.754
 7390TIP3   OH222112   6.596   3.208   5.839
 7390TIP3    H122113   6.539   3.160   5.779
 7390TIP3    H222114   6.649   3.264   5.783
 7391TIP3   OH222115   4.643   4.624   6.504
 7391TIP3    H122116   4.704   4.666   6.564
 7391TIP3    H222117   4.693   4.614   6.422
 7392TIP3   OH222118   5.474   6.190   5.327
 7392TIP3    H122119   5.544   6.131   5.355
 7392TIP3    H222120   5.519   6.271   5.303
 7393TIP3   OH222121   5.992   0.980   6.306
 7393TIP3    H122122   6.017   0.913   6.242
 7393TIP3    H222123   5.944   1.045   6.255
 7394TIP3   OH222124   8.173   2.800   6.695
 7394TIP3    H122125   8.249   2.774   6.747
 7394TIP3    H222126   8.097   2.771   6.745
 7395TIP3   OH222127   7.668   0.591   3.662
 7395TIP3    H122128   7.605   0.615   3.730
 7395TIP3    H222129   7.635   0.509   3.626
 7396TIP3   OH222130   3.792   6.901   1.380
 7396TIP3    H122131   3.828   6.859   1.458
 7396TIP3    H222132   3.798   6.995   1.398
 7397TIP3   OH222133   5.187   3.075   1.330
 7397TIP3    H122134   5.160   3.090   1.420
 7397TIP3    H222135   5.148   2.990   1.308
 7398TIP3   OH222136   4.344   4.781   3.210
 7398TIP3    H122137   4.361   4.756   3.119
 7398TIP3    H222138   4.367   4.874   3.214
 7399TIP3   OH222139   6.390   7.581   6.227
 7399TIP3    H122140   6.380   7.659   6.282
 7399TIP3    H222141   6.472   7.596   6.179
 7400TIP3   OH222142   2.524   7.452   2.732
 7400TIP3    H122143   2.546   7.512   2.661
 7400TIP3    H222144   2.438   7.418   2.710
 7401TIP3   OH222145   2.723   1.586   1.494
 7401TIP3    H122146   2.684   1.547   1.572
 7401TIP3    H222147   2.757   1.671   1.524
 7402TIP3   OH222148   4.447   1.730   1.520
 7402TIP3    H122149   4.403   1.733   1.605
 7402TIP3    H222150   4.531   1.689   1.537
 7403TIP3   OH222151   3.677   1.597   3.202
 7403TIP3    H122152   3.770   1.620   3.197
 7403TIP3    H222153   3.654   1.612   3.294
 7404TIP3   OH222154   6.875   3.038   3.082
 7404TIP3    H122155   6.913   3.029   3.169
 7404TIP3    H222156   6.822   2.960   3.070
 7405TIP3   OH222157   1.809   2.290   0.221
 7405TIP3    H122158   1.867   2.357   0.185
 7405TIP3    H222159   1.854   2.208   0.202
 7406TIP3   OH222160   6.187   0.674   2.988
 7406TIP3    H122161   6.263   0.687   3.046
 7406TIP3    H222162   6.173   0.761   2.950
 7407TIP3   OH222163   4.114   6.315   0.908
 7407TIP3    H122164   4.054   6.344   0.976
 7407TIP3    H222165   4.099   6.375   0.835
 7408TIP3   OH222166   4.627   0.999   0.065
 7408TIP3    H122167   4.715   0.980   0.098
 7408TIP3    H222168   4.573   1.010   0.143
 7409TIP3   OH222169   2.710   6.046   1.568
 7409TIP3    H122170   2.774   6.071   1.500
 7409TIP3    H222171   2.687   6.129   1.610
 7410TIP3   OH222172   6.172   4.506   4.786
 7410TIP3    H122173   6.215   4.450   4.851
 7410TIP3    H222174   6.235   4.511   4.714
 7411TIP3   OH222175   3.186   7.385   5.709
 7411TIP3    H122176   3.110   7.328   5.722
 7411TIP3    H222177   3.152   7.459   5.658
 7412TIP3   OH222178   7.118   7.225   0.762
 7412TIP3    H122179   7.210   7.223   0.737
 7412TIP3    H222180   7.118   7.199   0.854
 7413TIP3   OH222181   3.882   4.319   6.059
 7413TIP3    H122182   3.963   4.278   6.029
 7413TIP3    H222183   3.822   4.311   5.985
 7414TIP3   OH222184   1.190   4.208   3.988
 7414TIP3    H122185   1.135   4.135   4.014
 7414TIP3    H222186   1.150   4.284   4.029
 7415TIP3   OH222187   0.677   7.410   3.057
 7415TIP3    H122188   0.711   7.463   2.985
 7415TIP3    H222189   0.738   7.336   3.063
 7416TIP3   OH222190   0.728   3.687   5.526
 7416TIP3    H122191   0.719   3.737   5.606
 7416TIP3    H222192   0.820   3.694   5.503
 7417TIP3   OH222193   5.809   3.345   1.300
 7417TIP3    H122194   5.815   3.280   1.370
 7417TIP3    H222195   5.876   3.410   1.322
 7418TIP3   OH222196   3.846   2.196   1.472
 7418TIP3    H122197   3.891   2.179   1.555
 7418TIP3    H222198   3.881   2.131   1.412
 7419TIP3   OH222199   6.313   1.298   3.323
 7419TIP3    H122200   6.334   1.388   3.296
 7419TIP3    H222201   6.244   1.309   3.389
 7420TIP3   OH222202   3.502   0.657   5.789
 7420TIP3    H122203   3.407   0.647   5.786
 7420TIP3    H222204   3.531   0.638   5.700
 7421TIP3   OH222205   0.100   4.450   6.623
 7421TIP3    H122206   0.032   4.388   6.648
 7421TIP3    H222207   0.052   4.530   6.602
 7422TIP3   OH222208   0.977   2.038   3.475
 7422TIP3    H122209   0.915   2.073   3.538
 7422TIP3    H222210   1.011   1.958   3.517
 7423TIP3   OH222211   0.534   0.359   3.735
 7423TIP3    H122212   0.471   0.300   3.693
 7423TIP3    H222213   0.619   0.319   3.717
 7424TIP3   OH222214   7.412   2.311   6.519
 7424TIP3    H122215   7.419   2.376   6.449
 7424TIP3    H222216   7.491   2.325   6.572
 7425TIP3   OH222217   7.993   3.746   6.053
 7425TIP3    H122218   7.965   3.806   5.984
 7425TIP3    H222219   7.951   3.781   6.132
 7426TIP3   OH222220   7.906   7.153   4.375
 7426TIP3    H122221   7.844   7.225   4.386
 7426TIP3    H222222   7.882   7.090   4.444
 7427TIP3   OH222223   2.558   3.676   1.131
 7427TIP3    H122224   2.647   3.688   1.163
 7427TIP3    H222225   2.503   3.687   1.209
 7428TIP3   OH222226   1.286   4.366   1.330
 7428TIP3    H122227   1.251   4.315   1.403
 7428TIP3    H222228   1.319   4.301   1.269
 7429TIP3   OH222229   6.794   0.507   6.233
 7429TIP3    H122230   6.726   0.567   6.202
 7429TIP3    H222231   6.775   0.424   6.188
 7430TIP3   OH222232   7.443   2.574   3.779
 7430TIP3    H122233   7.363   2.616   3.748
 7430TIP3    H222234   7.470   2.626   3.854
 7431TIP3   OH222235   3.985   1.362   5.696
 7431TIP3    H122236   3.988   1.454   5.723
 7431TIP3    H222237   3.965   1.315   5.777
 7432TIP3   OH222238   6.501   1.320   2.557
 7432TIP3    H122239   6.578   1.373   2.578
 7432TIP3    H222240   6.535   1.232   2.542
 7433TIP3   OH222241   4.434   6.652   4.786
 7433TIP3    H122242   4.373   6.579   4.794
 7433TIP3    H222243   4.468   6.665   4.875
 7434TIP3   OH222244   0.661   1.630   3.789
 7434TIP3    H122245   0.704   1.699   3.739
 7434TIP3    H222246   0.664   1.661   3.880
 7435TIP3   OH222247   8.231   0.803   2.642
 7435TIP3    H122248   8.285   0.808   2.563
 7435TIP3    H222249   8.212   0.710   2.652
 7436TIP3   OH222250   5.805   7.049   4.844
 7436TIP3    H122251   5.870   6.979   4.844
 7436TIP3    H222252   5.829   7.104   4.770
 7437TIP3   OH222253   3.504   0.211   4.658
 7437TIP3    H122254   3.504   0.128   4.705
 7437TIP3    H222255   3.576   0.204   4.595
 7438TIP3   OH222256   5.992   4.532   5.804
 7438TIP3    H122257   6.021   4.525   5.895
 7438TIP3    H222258   6.013   4.448   5.765
 7439TIP3   OH222259   5.980   5.848   2.610
 7439TIP3    H122260   5.967   5.756   2.590
 7439TIP3    H222261   6.044   5.849   2.681
 7440TIP3   OH222262   0.176   3.250   5.436
 7440TIP3    H122263   0.197   3.219   5.525
 7440TIP3    H222264   0.247   3.215   5.382
 7441TIP3   OH222265   4.226   0.356   1.191
 7441TIP3    H122266   4.236   0.304   1.111
 7441TIP3    H222267   4.314   0.357   1.229
 7442TIP3   OH222268   6.795   1.716   3.275
 7442TIP3    H122269   6.708   1.714   3.315
 7442TIP3    H222270   6.848   1.768   3.337
 7443TIP3   OH222271   4.152   7.429   0.729
 7443TIP3    H122272   4.206   7.456   0.655
 7443TIP3    H222273   4.074   7.484   0.723
 7444TIP3   OH222274   6.469   0.877   4.166
 7444TIP3    H122275   6.535   0.879   4.236
 7444TIP3    H222276   6.455   0.784   4.150
 7445TIP3   OH222277   6.637   5.603   6.071
 7445TIP3    H122278   6.661   5.577   5.982
 7445TIP3    H222279   6.549   5.566   6.084
 7446TIP3   OH222280   5.119   2.206   1.151
 7446TIP3    H122281   5.112   2.125   1.102
 7446TIP3    H222282   5.134   2.274   1.085
 7447TIP3   OH222283   0.242   3.594   4.344
 7447TIP3    H122284   0.281   3.510   4.367
 7447TIP3    H222285   0.273   3.610   4.255
 7448TIP3   OH222286   4.801   6.684   3.181
 7448TIP3    H122287   4.793   6.593   3.209
 7448TIP3    H222288   4.724   6.728   3.218
 7449TIP3   OH222289   3.988   6.366   1.916
 7449TIP3    H122290   4.062   6.386   1.973
 7449TIP3    H222291   4.025   6.309   1.848
 7450TIP3   OH222292   7.390   6.413   6.371
 7450TIP3    H122293   7.305   6.374   6.393
 7450TIP3    H222294   7.414   6.464   6.448
 7451TIP3   OH222295   0.282   6.640   5.485
 7451TIP3    H122296   0.264   6.581   5.558
 7451TIP3    H222297   0.284   6.727   5.525
 7452TIP3   OH222298   0.529   2.980   3.752
 7452TIP3    H122299   0.457   2.965   3.813
 7452TIP3    H222300   0.597   3.020   3.806
 7453TIP3   OH222301   1.467   6.324   2.117
 7453TIP3    H122302   1.470   6.232   2.142
 7453TIP3    H222303   1.373   6.344   2.108
 7454TIP3   OH222304   1.836   7.324   0.864
 7454TIP3    H122305   1.804   7.348   0.777
 7454TIP3    H222306   1.779   7.252   0.891
 7455TIP3   OH222307   5.049   5.971   5.739
 7455TIP3    H122308   5.136   5.932   5.726
 7455TIP3    H222309   5.067   6.061   5.764
 7456TIP3   OH222310   5.900   7.475   5.359
 7456TIP3    H122311   5.806   7.479   5.339
 7456TIP3    H222312   5.932   7.399   5.310
 7457TIP3   OH222313   1.116   1.959   6.485
 7457TIP3    H122314   1.049   1.938   6.550
 7457TIP3    H222315   1.196   1.967   6.535
 7458TIP3   OH222316   2.558   4.933   5.579
 7458TIP3    H122317   2.560   4.907   5.487
 7458TIP3    H222318   2.621   4.876   5.622
 7459TIP3   OH222319   6.579   6.513   1.260
 7459TIP3    H122320   6.512   6.498   1.194
 7459TIP3    H222321   6.586   6.430   1.307
 7460TIP3   OH222322   1.010   7.572   5.231
 7460TIP3    H122323   1.052   7.632   5.170
 7460TIP3    H222324   0.918   7.571   5.204
 7461TIP3   OH222325   5.605   3.702   6.543
 7461TIP3    H122326   5.632   3.617   6.508
 7461TIP3    H222327   5.586   3.685   6.635
 7462TIP3   OH222328   0.454   1.915   5.109
 7462TIP3    H122329   0.407   1.832   5.097
 7462TIP3    H222330   0.479   1.941   5.020
 7463TIP3   OH222331   2.042   3.386   4.271
 7463TIP3    H122332   2.039   3.366   4.365
 7463TIP3    H222333   1.986   3.463   4.261
 7464TIP3   OH222334   1.715   1.921   1.539
 7464TIP3    H122335   1.703   2.007   1.579
 7464TIP3    H222336   1.648   1.916   1.471
 7465TIP3   OH222337   5.168   2.499   5.087
 7465TIP3    H122338   5.244   2.454   5.123
 7465TIP3    H222339   5.093   2.464   5.135
 7466TIP3   OH222340   7.106   2.746   4.468
 7466TIP3    H122341   7.076   2.798   4.543
 7466TIP3    H222342   7.165   2.681   4.505
 7467TIP3   OH222343   0.592   3.510   3.529
 7467TIP3    H122344   0.614   3.421   3.501
 7467TIP3    H222345   0.567   3.501   3.621
 7468TIP3   OH222346   8.041   7.009   4.846
 7468TIP3    H122347   7.993   7.091   4.832
 7468TIP3    H222348   8.133   7.036   4.849
 7469TIP3   OH222349   2.425   1.136   2.522
 7469TIP3    H122350   2.511   1.176   2.521
 7469TIP3    H222351   2.384   1.168   2.602
 7470TIP3   OH222352   2.017   1.656   1.402
 7470TIP3    H122353   2.060   1.579   1.365
 7470TIP3    H222354   2.022   1.722   1.333
 7471TIP3   OH222355   3.973   2.429   1.436
 7471TIP3    H122356   3.930   2.344   1.430
 7471TIP3    H222357   4.056   2.416   1.389
 7472TIP3   OH222358   2.700   6.226   0.317
 7472TIP3    H122359   2.768   6.248   0.381
 7472TIP3    H222360   2.635   6.177   0.367
 7473TIP3   OH222361   0.743   1.292   4.569
 7473TIP3    H122362   0.650   1.280   4.551
 7473TIP3    H222363   0.747   1.374   4.619
 7474TIP3   OH222364   4.599   3.232   3.968
 7474TIP3    H122365   4.581   3.284   3.890
 7474TIP3    H222366   4.597   3.295   4.040
 7475TIP3   OH222367   5.473   5.079   4.691
 7475TIP3    H122368   5.511   4.997   4.659
 7475TIP3    H222369   5.501   5.085   4.782
 7476TIP3   OH222370   3.149   4.719   1.140
 7476TIP3    H122371   3.218   4.654   1.155
 7476TIP3    H222372   3.172   4.760   1.057
 7477TIP3   OH222373   2.133   5.421   3.845
 7477TIP3    H122374   2.170   5.470   3.918
 7477TIP3    H222375   2.162   5.468   3.767
 7478TIP3   OH222376   4.056   0.979   0.543
 7478TIP3    H122377   4.042   1.051   0.604
 7478TIP3    H222378   3.979   0.923   0.554
 7479TIP3   OH222379   7.967   6.251   1.556
 7479TIP3    H122380   8.039   6.210   1.604
 7479TIP3    H222381   8.010   6.291   1.479
 7480TIP3   OH222382   3.896   4.099   4.229
 7480TIP3    H122383   3.896   4.062   4.141
 7480TIP3    H222384   3.954   4.042   4.280
 7481TIP3   OH222385   4.156   6.304   2.391
 7481TIP3    H122386   4.136   6.397   2.388
 7481TIP3    H222387   4.091   6.267   2.450
 7482TIP3   OH222388   5.796   5.631   4.891
 7482TIP3    H122389   5.721   5.689   4.874
 7482TIP3    H222390   5.857   5.686   4.941
 7483TIP3   OH222391   5.765   0.257   5.233
 7483TIP3    H122392   5.791   0.261   5.325
 7483TIP3    H222393   5.848   0.259   5.185
 7484TIP3   OH222394   3.643   6.984   2.746
 7484TIP3    H122395   3.730   6.981   2.706
 7484TIP3    H222396   3.585   7.011   2.675
 7485TIP3   OH222397   7.606   0.332   2.677
 7485TIP3    H122398   7.673   0.309   2.741
 7485TIP3    H222399   7.549   0.394   2.723
 7486TIP3   OH222400   2.394   6.381   2.140
 7486TIP3    H122401   2.362   6.432   2.215
 7486TIP3    H222402   2.464   6.327   2.177
 7487TIP3   OH222403   1.440   3.857   5.924
 7487TIP3    H122404   1.451   3.762   5.927
 7487TIP3    H222405   1.483   3.884   5.844
 7488TIP3   OH222406   7.127   5.944   4.117
 7488TIP3    H122407   7.106   6.010   4.183
 7488TIP3    H222408   7.090   5.863   4.153
 7489TIP3   OH222409   6.140   2.020   6.024
 7489TIP3    H122410   6.198   2.094   6.005
 7489TIP3    H222411   6.127   1.978   5.939
 7490TIP3   OH222412   2.918   3.630   3.323
 7490TIP3    H122413   2.845   3.676   3.363
 7490TIP3    H222414   2.892   3.618   3.232
 7491TIP3   OH222415   1.905   4.625   3.366
 7491TIP3    H122416   1.946   4.538   3.363
 7491TIP3    H222417   1.922   4.663   3.280
 7492TIP3   OH222418   4.212   2.291   0.751
 7492TIP3    H122419   4.183   2.380   0.773
 7492TIP3    H222420   4.302   2.286   0.781
 7493TIP3   OH222421   5.438   3.127   1.248
 7493TIP3    H122422   5.348   3.103   1.272
 7493TIP3    H222423   5.492   3.094   1.319
 7494TIP3   OH222424   0.189   3.671   0.812
 7494TIP3    H122425   0.160   3.580   0.801
 7494TIP3    H222426   0.121   3.723   0.771
 7495TIP3   OH222427   1.639   2.173   2.828
 7495TIP3    H122428   1.616   2.214   2.912
 7495TIP3    H222429   1.558   2.175   2.778
 7496TIP3   OH222430   3.091   2.448   5.715
 7496TIP3    H122431   3.004   2.487   5.706
 7496TIP3    H222432   3.144   2.490   5.648
 7497TIP3   OH222433   6.554   4.127   2.954
 7497TIP3    H122434   6.494   4.173   2.895
 7497TIP3    H222435   6.641   4.146   2.919
 7498TIP3   OH222436   0.786   5.318   6.132
 7498TIP3    H122437   0.867   5.319   6.081
 7498TIP3    H222438   0.717   5.336   6.068
 7499TIP3   OH222439   2.541   5.864   2.219
 7499TIP3    H122440   2.629   5.830   2.229
 7499TIP3    H222441   2.550   5.940   2.162
 7500TIP3   OH222442   4.411   0.698   1.043
 7500TIP3    H122443   4.339   0.759   1.031
 7500TIP3    H222444   4.410   0.643   0.965
 7501TIP3   OH222445   7.998   6.284   5.750
 7501TIP3    H122446   7.989   6.359   5.808
 7501TIP3    H222447   7.919   6.232   5.765
 7502TIP3   OH222448   0.136   0.634   2.132
 7502TIP3    H122449   0.150   0.556   2.080
 7502TIP3    H222450   0.102   0.699   2.070
 7503TIP3   OH222451   6.907   7.019   3.997
 7503TIP3    H122452   6.830   7.071   3.975
 7503TIP3    H222453   6.903   6.944   3.938
 7504TIP3   OH222454   2.727   6.568   2.792
 7504TIP3    H122455   2.737   6.529   2.705
 7504TIP3    H222456   2.651   6.626   2.784
 7505TIP3   OH222457   7.549   3.648   4.069
 7505TIP3    H122458   7.476   3.664   4.129
 7505TIP3    H222459   7.627   3.667   4.120
 7506TIP3   OH222460   2.500   6.435   3.590
 7506TIP3    H122461   2.539   6.349   3.605
 7506TIP3    H222462   2.412   6.428   3.627
 7507TIP3   OH222463   2.872   0.483   3.831
 7507TIP3    H122464   2.957   0.452   3.862
 7507TIP3    H222465   2.809   0.428   3.877
 7508TIP3   OH222466   4.342   1.173   5.314
 7508TIP3    H122467   4.425   1.136   5.344
 7508TIP3    H222468   4.338   1.259   5.356
 7509TIP3   OH222469   6.233   0.876   6.145
 7509TIP3    H122470   6.278   0.791   6.137
 7509TIP3    H222471   6.162   0.870   6.082
 7510TIP3   OH222472   7.673   6.557   5.826
 7510TIP3    H122473   7.612   6.631   5.824
 7510TIP3    H222474   7.618   6.479   5.816
 7511TIP3   OH222475   5.633   0.778   4.489
 7511TIP3    H122476   5.636   0.773   4.393
 7511TIP3    H222477   5.542   0.761   4.511
 7512TIP3   OH222478   4.666   0.400   3.225
 7512TIP3    H122479   4.629   0.460   3.160
 7512TIP3    H222480   4.683   0.455   3.301
 7513TIP3   OH222481   2.909   3.675   1.560
 7513TIP3    H122482   2.826   3.710   1.528
 7513TIP3    H222483   2.934   3.734   1.631
 7514TIP3   OH222484   2.477   4.732   1.375
 7514TIP3    H122485   2.454   4.790   1.303
 7514TIP3    H222486   2.421   4.655   1.362
 7515TIP3   OH222487   1.217   4.867   1.624
 7515TIP3    H122488   1.220   4.805   1.551
 7515TIP3    H222489   1.123   4.880   1.640
 7516TIP3   OH222490   8.084   3.906   5.328
 7516TIP3    H122491   8.035   3.830   5.297
 7516TIP3    H222492   8.105   3.886   5.419
 7517TIP3   OH222493   2.439   4.604   2.034
 7517TIP3    H122494   2.385   4.590   2.112
 7517TIP3    H222495   2.394   4.556   1.965
 7518TIP3   OH222496   0.404   0.170   1.088
 7518TIP3    H122497   0.497   0.161   1.070
 7518TIP3    H222498   0.365   0.088   1.058
 7519TIP3   OH222499   2.099   2.619   2.632
 7519TIP3    H122500   2.180   2.577   2.605
 7519TIP3    H222501   2.104   2.707   2.596
 7520TIP3   OH222502   7.459   5.764   4.863
 7520TIP3    H122503   7.510   5.844   4.855
 7520TIP3    H222504   7.422   5.749   4.776
 7521TIP3   OH222505   7.236   5.616   3.632
 7521TIP3    H122506   7.318   5.666   3.640
 7521TIP3    H222507   7.172   5.669   3.679
 7522TIP3   OH222508   3.642   6.291   5.759
 7522TIP3    H122509   3.595   6.274   5.678
 7522TIP3    H222510   3.574   6.316   5.822
 7523TIP3   OH222511   1.914   5.976   2.136
 7523TIP3    H122512   1.831   5.929   2.138
 7523TIP3    H222513   1.891   6.065   2.109
 7524TIP3   OH222514   4.502   1.454   4.102
 7524TIP3    H122515   4.527   1.390   4.169
 7524TIP3    H222516   4.544   1.535   4.130
 7525TIP3   OH222517   8.215   2.013   1.562
 7525TIP3    H122518   8.222   2.022   1.657
 7525TIP3    H222519   8.121   2.021   1.544
 7526TIP3   OH222520   2.381   3.972   2.921
 7526TIP3    H122521   2.442   3.939   2.988
 7526TIP3    H222522   2.429   3.964   2.839
 7527TIP3   OH222523   2.378   1.897   1.796
 7527TIP3    H122524   2.346   1.900   1.706
 7527TIP3    H222525   2.305   1.861   1.846
 7528TIP3   OH222526   0.111   4.624   3.410
 7528TIP3    H122527   0.050   4.571   3.358
 7528TIP3    H222528   0.192   4.623   3.360
 7529TIP3   OH222529   7.311   1.034   4.951
 7529TIP3    H122530   7.341   0.950   4.916
 7529TIP3    H222531   7.385   1.065   5.003
 7530TIP3   OH222532   2.114   0.611   3.563
 7530TIP3    H122533   2.132   0.525   3.524
 7530TIP3    H222534   2.179   0.620   3.632
 7531TIP3   OH222535   5.656   7.764   6.694
 7531TIP3    H122536   5.701   7.745   6.612
 7531TIP3    H222537   5.614   7.681   6.718
 7532TIP3   OH222538   7.207   4.142   3.174
 7532TIP3    H122539   7.185   4.105   3.259
 7532TIP3    H222540   7.277   4.205   3.193
 7533TIP3   OH222541   6.989   7.690   5.893
 7533TIP3    H122542   7.050   7.762   5.879
 7533TIP3    H222543   6.903   7.730   5.887
 7534TIP3   OH222544   1.016   5.434   6.546
 7534TIP3    H122545   0.933   5.419   6.591
 7534TIP3    H222546   1.052   5.513   6.586
 7535TIP3   OH222547   5.636   1.013   5.967
 7535TIP3    H122548   5.552   1.059   5.975
 7535TIP3    H222549   5.653   0.978   6.054
 7536TIP3   OH222550   6.193   1.813   2.916
 7536TIP3    H122551   6.168   1.903   2.895
 7536TIP3    H222552   6.142   1.791   2.994
 7537TIP3   OH222553   0.351   4.915   5.560
 7537TIP3    H122554   0.412   4.894   5.630
 7537TIP3    H222555   0.286   4.845   5.562
 7538TIP3   OH222556   3.694   0.087   1.374
 7538TIP3    H122557   3.736   0.029   1.310
 7538TIP3    H222558   3.684   0.032   1.452
 7539TIP3   OH222559   1.556   5.075   5.988
 7539TIP3    H122560   1.559   5.169   6.006
 7539TIP3    H222561   1.550   5.068   5.893
 7540TIP3   OH222562   4.889   4.923   4.368
 7540TIP3    H122563   4.873   4.843   4.418
 7540TIP3    H222564   4.945   4.975   4.425
 7541TIP3   OH222565   5.863   3.662   0.876
 7541TIP3    H122566   5.801   3.658   0.949
 7541TIP3    H222567   5.921   3.735   0.899
 7542TIP3   OH222568   6.115   5.644   6.734
 7542TIP3    H122569   6.181   5.589   6.777
 7542TIP3    H222570   6.036   5.591   6.735
 7543TIP3   OH222571   7.940   0.304   2.764
 7543TIP3    H122572   7.915   0.257   2.685
 7543TIP3    H222573   7.929   0.397   2.742
 7544TIP3   OH222574   7.142   6.912   4.158
 7544TIP3    H122575   7.097   6.925   4.242
 7544TIP3    H222576   7.192   6.993   4.145
 7545TIP3   OH222577   6.128   1.490   3.430
 7545TIP3    H122578   6.077   1.564   3.398
 7545TIP3    H222579   6.207   1.529   3.466
 7546TIP3   OH222580   1.424   0.508   1.819
 7546TIP3    H122581   1.447   0.576   1.754
 7546TIP3    H222582   1.503   0.454   1.826
 7547TIP3   OH222583   6.527   6.960   0.474
 7547TIP3    H122584   6.471   6.887   0.448
 7547TIP3    H222585   6.583   6.924   0.542
 7548TIP3   OH222586   2.927   4.529   1.519
 7548TIP3    H122587   2.854   4.577   1.557
 7548TIP3    H222588   3.000   4.591   1.520
 7549TIP3   OH222589   4.559   7.113   5.015
 7549TIP3    H122590   4.474   7.099   4.973
 7549TIP3    H222591   4.538   7.146   5.102
 7550TIP3   OH222592   0.037   6.855   5.027
 7550TIP3    H122593   0.067   6.894   5.110
 7550TIP3    H222594   0.009   6.930   4.975
 7551TIP3   OH222595   4.881   6.894   4.129
 7551TIP3    H122596   4.934   6.873   4.205
 7551TIP3    H222597   4.790   6.885   4.159
 7552TIP3   OH222598   7.536   2.486   6.341
 7552TIP3    H122599   7.461   2.539   6.367
 7552TIP3    H222600   7.611   2.545   6.351
 7553TIP3   OH222601   2.884   5.470   5.255
 7553TIP3    H122602   2.937   5.490   5.178
 7553TIP3    H222603   2.947   5.438   5.320
 7554TIP3   OH222604   3.830   1.977   2.989
 7554TIP3    H122605   3.850   1.998   3.080
 7554TIP3    H222606   3.904   2.011   2.939
 7555TIP3   OH222607   2.532   3.656   0.578
 7555TIP3    H122608   2.595   3.686   0.644
 7555TIP3    H222609   2.577   3.670   0.495
 7556TIP3   OH222610   4.386   6.760   6.263
 7556TIP3    H122611   4.326   6.689   6.287
 7556TIP3    H222612   4.345   6.800   6.187
 7557TIP3   OH222613   4.985   4.548   6.108
 7557TIP3    H122614   4.971   4.563   6.202
 7557TIP3    H222615   4.897   4.543   6.071
 7558TIP3   OH222616   7.502   6.803   5.978
 7558TIP3    H122617   7.469   6.892   5.967
 7558TIP3    H222618   7.470   6.776   6.064
 7559TIP3   OH222619   6.464   3.609   2.996
 7559TIP3    H122620   6.449   3.703   3.012
 7559TIP3    H222621   6.461   3.601   2.901
 7560TIP3   OH222622   1.109   1.872   3.149
 7560TIP3    H122623   1.033   1.918   3.184
 7560TIP3    H222624   1.179   1.888   3.212
 7561TIP3   OH222625   7.963   2.614   6.192
 7561TIP3    H122626   7.977   2.520   6.200
 7561TIP3    H222627   7.972   2.631   6.098
 7562TIP3   OH222628   4.280   4.045   2.087
 7562TIP3    H122629   4.208   4.107   2.081
 7562TIP3    H222630   4.318   4.044   1.999
 7563TIP3   OH222631   1.498   5.669   3.626
 7563TIP3    H122632   1.534   5.738   3.681
 7563TIP3    H222633   1.404   5.688   3.623
 7564TIP3   OH222634   1.147   5.801   5.048
 7564TIP3    H122635   1.182   5.748   5.119
 7564TIP3    H222636   1.094   5.868   5.091
 7565TIP3   OH222637   6.521   5.301   4.180
 7565TIP3    H122638   6.446   5.326   4.233
 7565TIP3    H222639   6.508   5.208   4.162
 7566TIP3   OH222640   7.304   6.184   5.775
 7566TIP3    H122641   7.349   6.257   5.732
 7566TIP3    H222642   7.226   6.169   5.722
 7567TIP3   OH222643   6.334   3.141   0.145
 7567TIP3    H122644   6.301   3.182   0.065
 7567TIP3    H222645   6.386   3.067   0.113
 7568TIP3   OH222646   0.820   7.520   6.363
 7568TIP3    H122647   0.760   7.450   6.336
 7568TIP3    H222648   0.772   7.601   6.347
 7569TIP3   OH222649   2.415   6.903   3.669
 7569TIP3    H122650   2.358   6.967   3.712
 7569TIP3    H222651   2.462   6.953   3.603
 7570TIP3   OH222652   4.188   7.607   4.612
 7570TIP3    H122653   4.197   7.532   4.554
 7570TIP3    H222654   4.111   7.654   4.580
 7571TIP3   OH222655   2.432   0.965   4.551
 7571TIP3    H122656   2.363   0.982   4.488
 7571TIP3    H222657   2.513   0.987   4.505
 7572TIP3   OH222658   4.002   2.737   4.803
 7572TIP3    H122659   3.942   2.761   4.873
 7572TIP3    H222660   4.076   2.696   4.847
 7573TIP3   OH222661   3.738   7.196   0.260
 7573TIP3    H122662   3.753   7.108   0.293
 7573TIP3    H222663   3.728   7.186   0.166
 7574TIP3   OH222664   6.624   7.267   6.183
 7574TIP3    H122665   6.570   7.340   6.215
 7574TIP3    H222666   6.692   7.258   6.250
 7575TIP3   OH222667   6.408   5.693   6.309
 7575TIP3    H122668   6.396   5.704   6.403
 7575TIP3    H222669   6.498   5.722   6.292
 7576TIP3   OH222670   7.344   3.642   6.143
 7576TIP3    H122671   7.329   3.732   6.114
 7576TIP3    H222672   7.381   3.598   6.066
 7577TIP3   OH222673   4.692   2.853   4.814
 7577TIP3    H122674   4.661   2.764   4.830
 7577TIP3    H222675   4.718   2.885   4.900
 7578TIP3   OH222676   4.591   4.602   1.350
 7578TIP3    H122677   4.498   4.612   1.332
 7578TIP3    H222678   4.603   4.645   1.435
 7579TIP3   OH222679   1.134   6.048   1.436
 7579TIP3    H122680   1.111   6.081   1.523
 7579TIP3    H222681   1.050   6.030   1.394
 7580TIP3   OH222682   5.487   4.812   5.684
 7580TIP3    H122683   5.516   4.727   5.718
 7580TIP3    H222684   5.566   4.864   5.679
 7581TIP3   OH222685   3.385   6.593   6.690
 7581TIP3    H122686   3.443   6.591   6.614
 7581TIP3    H222687   3.443   6.579   6.765
 7582TIP3   OH222688   5.869   2.434   6.707
 7582TIP3    H122689   5.833   2.469   6.626
 7582TIP3    H222690   5.841   2.342   6.708
 7583TIP3   OH222691   0.810   0.588   1.980
 7583TIP3    H122692   0.815   0.503   1.938
 7583TIP3    H222693   0.859   0.577   2.062
 7584TIP3   OH222694   7.302   7.402   0.363
 7584TIP3    H122695   7.220   7.450   0.349
 7584TIP3    H222696   7.289   7.319   0.316
 7585TIP3   OH222697   5.433   0.966   6.615
 7585TIP3    H122698   5.479   0.894   6.658
 7585TIP3    H222699   5.481   0.980   6.533
 7586TIP3   OH222700   5.860   7.525   1.890
 7586TIP3    H122701   5.907   7.505   1.809
 7586TIP3    H222702   5.892   7.459   1.952
 7587TIP3   OH222703   6.022   6.520   0.324
 7587TIP3    H122704   6.057   6.569   0.249
 7587TIP3    H222705   6.010   6.586   0.392
 7588TIP3   OH222706   4.062   0.272   0.131
 7588TIP3    H122707   4.058   0.203   0.064
 7588TIP3    H222708   4.150   0.263   0.168
 7589TIP3   OH222709   0.063   2.812   5.093
 7589TIP3    H122710   0.082   2.777   5.006
 7589TIP3    H222711  -0.012   2.761   5.123
 7590TIP3   OH222712   4.903   0.418   0.982
 7590TIP3    H122713   4.944   0.503   0.963
 7590TIP3    H222714   4.850   0.435   1.060
 7591TIP3   OH222715   1.067   0.698   6.132
 7591TIP3    H122716   0.984   0.701   6.084
 7591TIP3    H222717   1.041   0.696   6.224
 7592TIP3   OH222718   5.106   5.651   1.680
 7592TIP3    H122719   5.048   5.661   1.604
 7592TIP3    H222720   5.189   5.621   1.642
 7593TIP3   OH222721   1.647   5.402   4.362
 7593TIP3    H122722   1.698   5.439   4.290
 7593TIP3    H222723   1.632   5.476   4.422
 7594TIP3   OH222724   6.111   5.255   1.521
 7594TIP3    H122725   6.151   5.331   1.562
 7594TIP3    H222726   6.183   5.214   1.472
 7595TIP3   OH222727   3.946   6.563   3.081
 7595TIP3    H122728   3.965   6.582   3.173
 7595TIP3    H222729   3.901   6.479   3.083
 7596TIP3   OH222730   0.379   6.039   6.424
 7596TIP3    H122731   0.293   6.070   6.453
 7596TIP3    H222732   0.442   6.098   6.466
 7597TIP3   OH222733   0.816   2.186   3.633
 7597TIP3    H122734   0.734   2.158   3.593
 7597TIP3    H222735   0.790   2.255   3.694
 7598TIP3   OH222736   2.874   7.686   0.874
 7598TIP3    H122737   2.941   7.737   0.829
 7598TIP3    H222738   2.878   7.716   0.965
 7599TIP3   OH222739   2.671   0.128   5.902
 7599TIP3    H122740   2.714   0.200   5.948
 7599TIP3    H222741   2.724   0.117   5.822
 7600TIP3   OH222742   5.195   2.417   3.231
 7600TIP3    H122743   5.105   2.402   3.258
 7600TIP3    H222744   5.192   2.500   3.182
 7601TIP3   OH222745   3.440   0.050   1.610
 7601TIP3    H122746   3.533   0.043   1.631
 7601TIP3    H222747   3.432   0.015   1.522
 7602TIP3   OH222748   5.066   2.874   1.528
 7602TIP3    H122749   4.986   2.831   1.557
 7602TIP3    H222750   5.110   2.900   1.609
 7603TIP3   OH222751   7.497   7.757   6.665
 7603TIP3    H122752   7.489   7.684   6.604
 7603TIP3    H222753   7.510   7.833   6.608
 7604TIP3   OH222754   4.623   7.395   2.193
 7604TIP3    H122755   4.621   7.482   2.234
 7604TIP3    H222756   4.704   7.394   2.143
 7605TIP3   OH222757   0.470   0.965   2.790
 7605TIP3    H122758   0.409   1.028   2.752
 7605TIP3    H222759   0.426   0.931   2.868
 7606TIP3   OH222760   5.782   7.609   4.763
 7606TIP3    H122761   5.874   7.619   4.790
 7606TIP3    H222762   5.757   7.697   4.733
 7607TIP3   OH222763   3.424   4.289   6.534
 7607TIP3    H122764   3.465   4.233   6.600
 7607TIP3    H222765   3.413   4.374   6.578
 7608TIP3   OH222766   3.857   3.060   3.714
 7608TIP3    H122767   3.874   3.151   3.689
 7608TIP3    H222768   3.940   3.015   3.698
 7609TIP3   OH222769   6.139   0.389   0.634
 7609TIP3    H122770   6.206   0.416   0.697
 7609TIP3    H222771   6.175   0.415   0.549
 7610TIP3   OH222772   6.467   2.170   4.946
 7610TIP3    H122773   6.389   2.170   5.002
 7610TIP3    H222774   6.530   2.224   4.993
 7611TIP3   OH222775   1.486   2.197   6.134
 7611TIP3    H122776   1.534   2.190   6.051
 7611TIP3    H222777   1.444   2.112   6.145
 7612TIP3   OH222778   3.130   0.582   3.254
 7612TIP3    H122779   3.148   0.672   3.228
 7612TIP3    H222780   3.060   0.589   3.320
 7613TIP3   OH222781   3.606   7.078   6.494
 7613TIP3    H122782   3.671   7.142   6.525
 7613TIP3    H222783   3.550   7.064   6.570
 7614TIP3   OH222784   6.812   4.722   2.579
 7614TIP3    H122785   6.736   4.664   2.577
 7614TIP3    H222786   6.847   4.719   2.489
 7615TIP3   OH222787   7.062   6.795   5.101
 7615TIP3    H122788   6.974   6.772   5.129
 7615TIP3    H222789   7.085   6.731   5.034
 7616TIP3   OH222790   1.549   4.642   5.419
 7616TIP3    H122791   1.634   4.634   5.376
 7616TIP3    H222792   1.569   4.686   5.502
 7617TIP3   OH222793   6.516   3.864   4.851
 7617TIP3    H122794   6.446   3.836   4.792
 7617TIP3    H222795   6.470   3.894   4.930
 7618TIP3   OH222796   6.046   3.855   4.363
 7618TIP3    H122797   6.005   3.769   4.355
 7618TIP3    H222798   6.046   3.891   4.275
 7619TIP3   OH222799   0.900   2.721   6.376
 7619TIP3    H122800   0.867   2.810   6.368
 7619TIP3    H222801   0.961   2.711   6.303
 7620TIP3   OH222802   6.380   4.533   0.515
 7620TIP3    H122803   6.302   4.531   0.460
 7620TIP3    H222804   6.349   4.561   0.601
 7621TIP3   OH222805   1.480   0.382   5.736
 7621TIP3    H122806   1.431   0.463   5.719
 7621TIP3    H222807   1.454   0.357   5.824
 7622TIP3   OH222808   6.271   2.866   3.948
 7622TIP3    H122809   6.295   2.774   3.935
 7622TIP3    H222810   6.296   2.910   3.867
 7623TIP3   OH222811   5.474   1.917   4.178
 7623TIP3    H122812   5.388   1.931   4.219
 7623TIP3    H222813   5.485   1.990   4.118
 7624TIP3   OH222814   3.966   3.368   5.258
 7624TIP3    H122815   3.956   3.273   5.263
 7624TIP3    H222816   3.879   3.400   5.232
 7625TIP3   OH222817   8.177   7.070   4.358
 7625TIP3    H122818   8.098   7.112   4.392
 7625TIP3    H222819   8.248   7.109   4.410
 7626TIP3   OH222820   4.623   3.880   4.006
 7626TIP3    H122821   4.683   3.922   4.068
 7626TIP3    H222822   4.547   3.939   4.003
 7627TIP3   OH222823   6.312   3.688   4.721
 7627TIP3    H122824   6.230   3.727   4.689
 7627TIP3    H222825   6.285   3.632   4.793
 7628TIP3   OH222826   6.874   6.726   6.179
 7628TIP3    H122827   6.914   6.781   6.246
 7628TIP3    H222828   6.926   6.743   6.100
 7629TIP3   OH222829   8.288   0.468   0.416
 7629TIP3    H122830   8.346   0.541   0.396
 7629TIP3    H222831   8.203   0.493   0.379
 7630TIP3   OH222832   1.410   2.454   5.932
 7630TIP3    H122833   1.454   2.385   5.981
 7630TIP3    H222834   1.474   2.483   5.868
 7631TIP3   OH222835   3.611   1.846   6.307
 7631TIP3    H122836   3.526   1.806   6.321
 7631TIP3    H222837   3.612   1.868   6.214
 7632TIP3   OH222838   1.815   6.955   0.710
 7632TIP3    H122839   1.772   7.026   0.663
 7632TIP3    H222840   1.754   6.881   0.704
 7633TIP3   OH222841   3.601   4.475   1.655
 7633TIP3    H122842   3.507   4.468   1.670
 7633TIP3    H222843   3.637   4.501   1.740
 7634TIP3   OH222844   2.786   7.415   0.895
 7634TIP3    H122845   2.820   7.503   0.882
 7634TIP3    H222846   2.706   7.428   0.946
 7635TIP3   OH222847   2.149   1.403   3.742
 7635TIP3    H122848   2.195   1.383   3.660
 7635TIP3    H222849   2.214   1.448   3.796
 7636TIP3   OH222850   1.256   2.382   3.025
 7636TIP3    H122851   1.224   2.300   2.988
 7636TIP3    H222852   1.182   2.416   3.074
 7637TIP3   OH222853   4.550   4.861   4.069
 7637TIP3    H122854   4.636   4.901   4.063
 7637TIP3    H222855   4.525   4.846   3.977
 7638TIP3   OH222856   5.724   7.754   0.574
 7638TIP3    H122857   5.791   7.820   0.592
 7638TIP3    H222858   5.641   7.798   0.593
 7639TIP3   OH222859   4.633   3.471   4.085
 7639TIP3    H122860   4.728   3.478   4.098
 7639TIP3    H222861   4.599   3.452   4.173
 7640TIP3   OH222862   4.681   2.734   3.750
 7640TIP3    H122863   4.617   2.788   3.798
 7640TIP3    H222864   4.762   2.743   3.801
 7641TIP3   OH222865   6.623   1.351   1.007
 7641TIP3    H122866   6.544   1.363   1.060
 7641TIP3    H222867   6.690   1.325   1.070
 7642TIP3   OH222868   1.992   6.078   1.073
 7642TIP3    H122869   1.994   6.059   0.979
 7642TIP3    H222870   2.007   6.172   1.079
 7643TIP3   OH222871   5.910   3.663   6.192
 7643TIP3    H122872   5.837   3.718   6.222
 7643TIP3    H222873   5.987   3.719   6.201
 7644TIP3   OH222874   2.082   6.333   0.512
 7644TIP3    H122875   2.152   6.327   0.577
 7644TIP3    H222876   2.067   6.243   0.483
 7645TIP3   OH222877   2.296   4.741   6.678
 7645TIP3    H122878   2.344   4.785   6.748
 7645TIP3    H222879   2.253   4.668   6.722
 7646TIP3   OH222880   6.051   6.172   3.058
 7646TIP3    H122881   5.989   6.240   3.082
 7646TIP3    H222882   6.000   6.109   3.007
 7647TIP3   OH222883   7.164   5.673   6.045
 7647TIP3    H122884   7.138   5.643   6.132
 7647TIP3    H222885   7.240   5.730   6.060
 7648TIP3   OH222886   6.986   7.680   3.122
 7648TIP3    H122887   6.892   7.694   3.130
 7648TIP3    H222888   6.997   7.585   3.128
 7649TIP3   OH222889   3.579   1.121   3.378
 7649TIP3    H122890   3.622   1.146   3.459
 7649TIP3    H222891   3.580   1.026   3.378
 7650TIP3   OH222892   4.969   1.352   3.698
 7650TIP3    H122893   5.016   1.403   3.632
 7650TIP3    H222894   5.013   1.267   3.699
 7651TIP3   OH222895   6.191   3.086   0.608
 7651TIP3    H122896   6.127   3.146   0.646
 7651TIP3    H222897   6.141   3.006   0.589
 7652TIP3   OH222898   4.085   7.670   2.187
 7652TIP3    H122899   4.170   7.637   2.217
 7652TIP3    H222900   4.098   7.689   2.094
 7653TIP3   OH222901   1.492   6.380   4.809
 7653TIP3    H122902   1.495   6.287   4.827
 7653TIP3    H222903   1.553   6.420   4.871
 7654TIP3   OH222904   2.311   4.451   5.828
 7654TIP3    H122905   2.314   4.360   5.800
 7654TIP3    H222906   2.275   4.499   5.754
 7655TIP3   OH222907   0.352   0.990   4.653
 7655TIP3    H122908   0.375   1.022   4.740
 7655TIP3    H222909   0.330   0.898   4.666
 7656TIP3   OH222910   2.373   7.514   0.539
 7656TIP3    H122911   2.382   7.471   0.623
 7656TIP3    H222912   2.461   7.515   0.502
 7657TIP3   OH222913   7.704   1.568   6.165
 7657TIP3    H122914   7.668   1.556   6.253
 7657TIP3    H222915   7.646   1.519   6.108
 7658TIP3   OH222916   0.966   1.116   3.787
 7658TIP3    H122917   0.958   1.207   3.758
 7658TIP3    H222918   1.052   1.088   3.755
 7659TIP3   OH222919   4.809   6.010   0.064
 7659TIP3    H122920   4.763   6.030  -0.018
 7659TIP3    H222921   4.821   5.915   0.061
 7660TIP3   OH222922   5.668   5.416   5.391
 7660TIP3    H122923   5.681   5.465   5.310
 7660TIP3    H222924   5.611   5.343   5.366
 7661TIP3   OH222925   7.829   2.933   0.892
 7661TIP3    H122926   7.738   2.946   0.917
 7661TIP3    H222927   7.843   2.993   0.818
 7662TIP3   OH222928   5.101   7.714   5.610
 7662TIP3    H122929   5.073   7.627   5.580
 7662TIP3    H222930   5.022   7.753   5.647
 7663TIP3   OH222931   1.527   5.733   1.601
 7663TIP3    H122932   1.604   5.782   1.574
 7663TIP3    H222933   1.453   5.789   1.577
 7664TIP3   OH222934   6.655   5.718   0.449
 7664TIP3    H122935   6.738   5.759   0.473
 7664TIP3    H222936   6.593   5.790   0.441
 7665TIP3   OH222937   0.930   3.762   0.817
 7665TIP3    H122938   0.910   3.801   0.902
 7665TIP3    H222939   0.949   3.670   0.836
 7666TIP3   OH222940   7.168   5.717   5.772
 7666TIP3    H122941   7.165   5.700   5.866
 7666TIP3    H222942   7.245   5.773   5.761
 7667TIP3   OH222943   1.150   7.473   1.343
 7667TIP3    H122944   1.227   7.426   1.374
 7667TIP3    H222945   1.092   7.477   1.420
 7668TIP3   OH222946   7.390   0.214   1.932
 7668TIP3    H122947   7.412   0.305   1.915
 7668TIP3    H222948   7.462   0.181   1.986
 7669TIP3   OH222949   3.349   6.860   3.139
 7669TIP3    H122950   3.409   6.887   3.208
 7669TIP3    H222951   3.372   6.915   3.064
 7670TIP3   OH222952   1.617   2.512   5.757
 7670TIP3    H122953   1.702   2.522   5.801
 7670TIP3    H222954   1.639   2.473   5.672
 7671TIP3   OH222955   2.950   1.961   3.047
 7671TIP3    H122956   3.019   1.964   3.113
 7671TIP3    H222957   2.982   2.019   2.977
 7672TIP3   OH222958   1.436   3.380   2.334
 7672TIP3    H122959   1.515   3.338   2.300
 7672TIP3    H222960   1.468   3.446   2.395
 7673TIP3   OH222961   5.853   6.343   0.459
 7673TIP3    H122962   5.916   6.400   0.415
 7673TIP3    H222963   5.847   6.266   0.402
 7674TIP3   OH222964   2.261   5.968   4.560
 7674TIP3    H122965   2.339   5.912   4.560
 7674TIP3    H222966   2.276   6.029   4.487
 7675TIP3   OH222967   0.340   4.455   4.685
 7675TIP3    H122968   0.396   4.489   4.755
 7675TIP3    H222969   0.379   4.489   4.605
 7676TIP3   OH222970   5.964   3.211   6.710
 7676TIP3    H122971   5.945   3.135   6.657
 7676TIP3    H222972   6.040   3.185   6.763
 7677TIP3   OH222973   0.208   0.538   6.040
 7677TIP3    H122974   0.205   0.502   6.128
 7677TIP3    H222975   0.214   0.461   5.983
 7678TIP3   OH222976   2.285   3.858   4.617
 7678TIP3    H122977   2.360   3.893   4.665
 7678TIP3    H222978   2.246   3.935   4.574
 7679TIP3   OH222979   3.187   2.946   6.538
 7679TIP3    H122980   3.170   2.953   6.444
 7679TIP3    H222981   3.100   2.946   6.579
 7680TIP3   OH222982   1.656   7.162   1.880
 7680TIP3    H122983   1.611   7.082   1.851
 7680TIP3    H222984   1.591   7.208   1.933
 7681TIP3   OH222985   3.436   7.364   2.211
 7681TIP3    H122986   3.344   7.388   2.203
 7681TIP3    H222987   3.468   7.412   2.287
 7682TIP3   OH222988   8.103   4.478   4.543
 7682TIP3    H122989   8.115   4.434   4.627
 7682TIP3    H222990   8.179   4.453   4.491
 7683TIP3   OH222991   0.665   7.296   1.242
 7683TIP3    H122992   0.575   7.306   1.214
 7683TIP3    H222993   0.661   7.304   1.338
 7684TIP3   OH222994   4.182   6.179   5.155
 7684TIP3    H122995   4.197   6.100   5.206
 7684TIP3    H222996   4.217   6.159   5.068
 7685TIP3   OH222997   5.676   3.822   4.581
 7685TIP3    H122998   5.672   3.726   4.588
 7685TIP3    H222999   5.662   3.853   4.671
 7686TIP3   OH223000   0.648   1.900   6.471
 7686TIP3    H123001   0.714   1.969   6.479
 7686TIP3    H223002   0.670   1.838   6.541
 7687TIP3   OH223003   3.358   4.527   6.645
 7687TIP3    H123004   3.378   4.571   6.727
 7687TIP3    H223005   3.294   4.584   6.602
 7688TIP3   OH223006   3.771   4.596   2.897
 7688TIP3    H123007   3.823   4.676   2.901
 7688TIP3    H223008   3.826   4.530   2.941
 7689TIP3   OH223009   7.533   1.610   2.351
 7689TIP3    H123010   7.619   1.635   2.383
 7689TIP3    H223011   7.510   1.678   2.287
 7690TIP3   OH223012   7.717   6.796   3.301
 7690TIP3    H123013   7.726   6.861   3.371
 7690TIP3    H223014   7.728   6.712   3.344
 7691TIP3   OH223015   5.852   3.432   4.340
 7691TIP3    H123016   5.812   3.395   4.419
 7691TIP3    H223017   5.941   3.397   4.340
 7692TIP3   OH223018   7.939   6.539   5.918
 7692TIP3    H123019   7.981   6.624   5.904
 7692TIP3    H223020   7.855   6.546   5.874
 7693TIP3   OH223021   5.689   2.252   2.579
 7693TIP3    H123022   5.768   2.306   2.570
 7693TIP3    H223023   5.620   2.304   2.537
 7694TIP3   OH223024   7.215   7.753   6.661
 7694TIP3    H123025   7.185   7.830   6.613
 7694TIP3    H223026   7.307   7.745   6.637
 7695TIP3   OH223027   5.861   6.889   3.586
 7695TIP3    H123028   5.846   6.980   3.561
 7695TIP3    H223029   5.774   6.855   3.605
 7696TIP3   OH223030   7.388   3.498   0.391
 7696TIP3    H123031   7.298   3.484   0.360
 7696TIP3    H223032   7.442   3.482   0.313
 7697TIP3   OH223033   5.827   4.819   6.392
 7697TIP3    H123034   5.738   4.839   6.362
 7697TIP3    H223035   5.845   4.884   6.460
 7698TIP3   OH223036   2.819   4.713   4.760
 7698TIP3    H123037   2.745   4.747   4.811
 7698TIP3    H223038   2.793   4.726   4.669
 7699TIP3   OH223039   4.724   6.602   5.725
 7699TIP3    H123040   4.764   6.665   5.784
 7699TIP3    H223041   4.657   6.558   5.778
 7700TIP3   OH223042   0.420   5.013   4.133
 7700TIP3    H123043   0.398   4.924   4.105
 7700TIP3    H223044   0.417   5.009   4.229
 7701TIP3   OH223045   2.034   4.555   2.035
 7701TIP3    H123046   2.121   4.586   2.011
 7701TIP3    H223047   1.975   4.602   1.976
 7702TIP3   OH223048   0.415   5.877   4.318
 7702TIP3    H123049   0.403   5.956   4.371
 7702TIP3    H223050   0.504   5.885   4.283
 7703TIP3   OH223051   6.535   1.229   0.425
 7703TIP3    H123052   6.623   1.263   0.442
 7703TIP3    H223053   6.550   1.150   0.374
 7704TIP3   OH223054   8.244   0.643   6.091
 7704TIP3    H123055   8.263   0.718   6.147
 7704TIP3    H223056   8.296   0.658   6.012
 7705TIP3   OH223057   7.327   4.980   3.915
 7705TIP3    H123058   7.241   5.023   3.920
 7705TIP3    H223059   7.356   4.994   3.825
 7706TIP3   OH223060   0.227   3.548   3.330
 7706TIP3    H123061   0.303   3.599   3.305
 7706TIP3    H223062   0.153   3.607   3.316
 7707TIP3   OH223063   7.025   0.691   6.220
 7707TIP3    H123064   7.099   0.661   6.273
 7707TIP3    H223065   6.958   0.624   6.232
 7708TIP3   OH223066   2.697   7.296   4.103
 7708TIP3    H123067   2.663   7.208   4.085
 7708TIP3    H223068   2.792   7.283   4.113
 7709TIP3   OH223069   3.207   4.130   5.109
 7709TIP3    H123070   3.186   4.039   5.088
 7709TIP3    H223071   3.135   4.181   5.072
 7710TIP3   OH223072   5.746   4.559   0.073
 7710TIP3    H123073   5.655   4.556   0.046
 7710TIP3    H223074   5.790   4.494   0.018
 7711TIP3   OH223075   0.072   7.603   2.202
 7711TIP3    H123076   0.124   7.604   2.283
 7711TIP3    H223077   0.023   7.521   2.206
 7712TIP3   OH223078   5.338   7.481   4.383
 7712TIP3    H123079   5.335   7.416   4.313
 7712TIP3    H223080   5.299   7.436   4.459
 7713TIP3   OH223081   5.614   5.470   2.749
 7713TIP3    H123082   5.544   5.408   2.770
 7713TIP3    H223083   5.603   5.489   2.656
 7714TIP3   OH223084   5.350   5.560   1.578
 7714TIP3    H123085   5.341   5.524   1.490
 7714TIP3    H223086   5.438   5.534   1.606
 7715TIP3   OH223087   0.149   7.355   6.151
 7715TIP3    H123088   0.141   7.415   6.077
 7715TIP3    H223089   0.239   7.324   6.148
 7716TIP3   OH223090   2.392   6.125   5.509
 7716TIP3    H123091   2.448   6.201   5.493
 7716TIP3    H223092   2.432   6.054   5.459
 7717TIP3   OH223093   3.449   4.899   0.776
 7717TIP3    H123094   3.498   4.856   0.845
 7717TIP3    H223095   3.501   4.885   0.697
 7718TIP3   OH223096   8.289   4.600   1.636
 7718TIP3    H123097   8.208   4.566   1.673
 7718TIP3    H223098   8.262   4.670   1.576
 7719TIP3   OH223099   3.192   6.451   3.375
 7719TIP3    H123100   3.269   6.450   3.433
 7719TIP3    H223101   3.130   6.508   3.419
 7720TIP3   OH223102   2.047   4.539   0.167
 7720TIP3    H123103   2.100   4.580   0.236
 7720TIP3    H223104   2.058   4.445   0.182
 7721TIP3   OH223105   4.509   5.024   2.380
 7721TIP3    H123106   4.556   4.995   2.458
 7721TIP3    H223107   4.563   5.093   2.343
 7722TIP3   OH223108   1.165   0.950   0.130
 7722TIP3    H123109   1.244   0.896   0.118
 7722TIP3    H223110   1.106   0.895   0.180
 7723TIP3   OH223111   0.041   1.036   3.179
 7723TIP3    H123112   0.043   1.093   3.102
 7723TIP3    H223113   0.020   1.094   3.252
 7724TIP3   OH223114   2.656   3.939   4.233
 7724TIP3    H123115   2.739   3.947   4.282
 7724TIP3    H223116   2.669   3.863   4.176
 7725TIP3   OH223117   8.055   3.046   4.444
 7725TIP3    H123118   8.037   2.958   4.410
 7725TIP3    H223119   7.968   3.085   4.453
 7726TIP3   OH223120   2.005   6.751   0.519
 7726TIP3    H123121   1.946   6.819   0.487
 7726TIP3    H223122   2.002   6.683   0.452
 7727TIP3   OH223123   5.792   3.221   2.453
 7727TIP3    H123124   5.820   3.306   2.487
 7727TIP3    H223125   5.699   3.216   2.475
 7728TIP3   OH223126   6.081   5.770   0.965
 7728TIP3    H123127   6.013   5.703   0.954
 7728TIP3    H223128   6.158   5.721   0.993
 7729TIP3   OH223129   0.922   5.919   1.024
 7729TIP3    H123130   0.837   5.880   1.007
 7729TIP3    H223131   0.947   5.887   1.111
 7730TIP3   OH223132   6.789   2.180   1.213
 7730TIP3    H123133   6.724   2.145   1.275
 7730TIP3    H223134   6.761   2.146   1.128
 7731TIP3   OH223135   0.079   3.690   2.030
 7731TIP3    H123136   0.139   3.733   2.091
 7731TIP3    H223137   0.016   3.645   2.086
 7732TIP3   OH223138   1.142   2.313   4.316
 7732TIP3    H123139   1.092   2.363   4.251
 7732TIP3    H223140   1.166   2.377   4.383
 7733TIP3   OH223141   1.970   2.819   4.558
 7733TIP3    H123142   1.933   2.754   4.499
 7733TIP3    H223143   1.999   2.890   4.502
 7734TIP3   OH223144   7.482   4.978   3.258
 7734TIP3    H123145   7.410   4.969   3.321
 7734TIP3    H223146   7.441   5.018   3.182
 7735TIP3   OH223147   7.017   4.396   4.866
 7735TIP3    H123148   7.077   4.323   4.847
 7735TIP3    H223149   7.035   4.461   4.799
 7736TIP3   OH223150   7.270   0.349   3.303
 7736TIP3    H123151   7.294   0.310   3.387
 7736TIP3    H223152   7.346   0.399   3.276
 7737TIP3   OH223153   6.974   3.828   4.463
 7737TIP3    H123154   7.057   3.781   4.456
 7737TIP3    H223155   6.972   3.859   4.554
 7738TIP3   OH223156   7.939   7.429   4.065
 7738TIP3    H123157   7.992   7.349   4.067
 7738TIP3    H223158   7.851   7.401   4.091
 7739TIP3   OH223159   7.238   6.572   6.059
 7739TIP3    H123160   7.329   6.595   6.082
 7739TIP3    H223161   7.212   6.508   6.124
 7740TIP3   OH223162   0.856   3.857   2.615
 7740TIP3    H123163   0.865   3.940   2.568
 7740TIP3    H223164   0.823   3.881   2.701
 7741TIP3   OH223165   7.727   2.345   2.102
 7741TIP3    H123166   7.797   2.381   2.156
 7741TIP3    H223167   7.767   2.332   2.016
 7742TIP3   OH223168   8.181   0.974   2.330
 7742TIP3    H123169   8.230   1.022   2.263
 7742TIP3    H223170   8.238   0.901   2.354
 7743TIP3   OH223171   4.999   1.899   6.571
 7743TIP3    H123172   4.989   1.835   6.500
 7743TIP3    H223173   4.984   1.984   6.528
 7744TIP3   OH223174   1.537   5.939   0.996
 7744TIP3    H123175   1.502   6.015   1.042
 7744TIP3    H223176   1.488   5.937   0.914
 7745TIP3   OH223177   1.450   6.545   3.276
 7745TIP3    H123178   1.526   6.591   3.309
 7745TIP3    H223179   1.411   6.503   3.353
 7746TIP3   OH223180   0.011   6.390   0.876
 7746TIP3    H123181  -0.066   6.446   0.887
 7746TIP3    H223182   0.059   6.429   0.803
 7747TIP3   OH223183   0.379   6.413   1.869
 7747TIP3    H123184   0.290   6.436   1.841
 7747TIP3    H223185   0.425   6.497   1.874
 7748TIP3   OH223186   3.981   2.420   6.205
 7748TIP3    H123187   4.026   2.443   6.124
 7748TIP3    H223188   3.908   2.481   6.211
 7749TIP3   OH223189   4.845   0.147   4.107
 7749TIP3    H123190   4.865   0.235   4.075
 7749TIP3    H223191   4.805   0.162   4.193
 7750TIP3   OH223192   2.137   6.811   5.796
 7750TIP3    H123193   2.187   6.798   5.715
 7750TIP3    H223194   2.200   6.792   5.866
 7751TIP3   OH223195   7.475   1.703   2.816
 7751TIP3    H123196   7.437   1.623   2.851
 7751TIP3    H223197   7.430   1.773   2.864
 7752TIP3   OH223198   2.011   0.944   5.792
 7752TIP3    H123199   2.070   0.877   5.827
 7752TIP3    H223200   2.068   1.019   5.775
 7753TIP3   OH223201   6.021   3.679   3.781
 7753TIP3    H123202   6.088   3.670   3.850
 7753TIP3    H223203   5.983   3.765   3.796
 7754TIP3   OH223204   3.318   3.501   3.621
 7754TIP3    H123205   3.340   3.408   3.624
 7754TIP3    H223206   3.366   3.540   3.694
 7755TIP3   OH223207   6.296   4.502   3.507
 7755TIP3    H123208   6.282   4.430   3.568
 7755TIP3    H223209   6.245   4.575   3.544
 7756TIP3   OH223210   6.671   6.277   2.996
 7756TIP3    H123211   6.712   6.294   3.080
 7756TIP3    H223212   6.667   6.362   2.953
 7757TIP3   OH223213   6.274   2.310   5.126
 7757TIP3    H123214   6.323   2.261   5.193
 7757TIP3    H223215   6.183   2.306   5.156
 7758TIP3   OH223216   7.955   7.506   6.713
 7758TIP3    H123217   8.039   7.461   6.704
 7758TIP3    H223218   7.940   7.509   6.808
 7759TIP3   OH223219   0.989   5.500   0.354
 7759TIP3    H123220   0.914   5.483   0.297
 7759TIP3    H223221   1.054   5.435   0.329
 7760TIP3   OH223222   4.302   5.631   3.192
 7760TIP3    H123223   4.276   5.584   3.113
 7760TIP3    H223224   4.251   5.712   3.189
 7761TIP3   OH223225   2.211   2.550   1.820
 7761TIP3    H123226   2.299   2.512   1.822
 7761TIP3    H223227   2.209   2.609   1.895
 7762TIP3   OH223228   3.639   7.402   5.997
 7762TIP3    H123229   3.651   7.409   6.092
 7762TIP3    H223230   3.664   7.487   5.963
 7763TIP3   OH223231   4.524   1.321   6.634
 7763TIP3    H123232   4.482   1.393   6.587
 7763TIP3    H223233   4.590   1.363   6.689
 7764TIP3   OH223234   1.842   0.491   4.594
 7764TIP3    H123235   1.843   0.401   4.563
 7764TIP3    H223236   1.765   0.530   4.553
 7765TIP3   OH223237   3.776   1.117   5.747
 7765TIP3    H123238   3.787   1.173   5.824
 7765TIP3    H223239   3.787   1.176   5.672
 7766TIP3   OH223240   7.172   4.193   0.553
 7766TIP3    H123241   7.263   4.190   0.582
 7766TIP3    H223242   7.153   4.105   0.523
 7767TIP3   OH223243   5.430   4.516   0.748
 7767TIP3    H123244   5.345   4.514   0.792
 7767TIP3    H223245   5.411   4.496   0.657
 7768TIP3   OH223246   5.605   1.439   2.690
 7768TIP3    H123247   5.633   1.421   2.600
 7768TIP3    H223248   5.634   1.362   2.739
 7769TIP3   OH223249   1.797   5.221   2.522
 7769TIP3    H123250   1.843   5.149   2.566
 7769TIP3    H223251   1.798   5.197   2.429
 7770TIP3   OH223252   3.632   5.662   1.521
 7770TIP3    H123253   3.697   5.603   1.483
 7770TIP3    H223254   3.611   5.723   1.449
 7771TIP3   OH223255   2.842   7.605   4.384
 7771TIP3    H123256   2.841   7.566   4.296
 7771TIP3    H223257   2.933   7.597   4.412
 7772TIP3   OH223258   1.771   6.714   3.706
 7772TIP3    H123259   1.850   6.695   3.654
 7772TIP3    H223260   1.698   6.694   3.648
 7773TIP3   OH223261   7.604   2.989   4.591
 7773TIP3    H123262   7.530   2.958   4.539
 7773TIP3    H223263   7.662   3.030   4.528
 7774TIP3   OH223264   3.888   7.128   2.863
 7774TIP3    H123265   3.908   7.141   2.956
 7774TIP3    H223266   3.866   7.035   2.856
 7775TIP3   OH223267   4.688   1.851   3.459
 7775TIP3    H123268   4.702   1.914   3.531
 7775TIP3    H223269   4.697   1.903   3.380
 7776TIP3   OH223270   1.465   5.751   5.740
 7776TIP3    H123271   1.435   5.842   5.733
 7776TIP3    H223272   1.388   5.704   5.773
 7777TIP3   OH223273   1.788   0.014   6.265
 7777TIP3    H123274   1.869   0.050   6.301
 7777TIP3    H223275   1.719   0.045   6.324
 7778TIP3   OH223276   4.584   1.596   3.490
 7778TIP3    H123277   4.651   1.568   3.428
 7778TIP3    H223278   4.596   1.691   3.496
 7779TIP3   OH223279   5.499   1.774   2.354
 7779TIP3    H123280   5.559   1.835   2.397
 7779TIP3    H223281   5.436   1.829   2.308
 7780TIP3   OH223282   1.026   3.281   4.311
 7780TIP3    H123283   1.032   3.341   4.237
 7780TIP3    H223284   1.115   3.275   4.345
 7781TIP3   OH223285   0.505   5.276   4.968
 7781TIP3    H123286   0.450   5.339   4.922
 7781TIP3    H223287   0.595   5.308   4.956
 7782TIP3   OH223288   0.572   6.786   0.889
 7782TIP3    H123289   0.536   6.756   0.972
 7782TIP3    H223290   0.630   6.715   0.861
 7783TIP3   OH223291   8.236   1.842   2.877
 7783TIP3    H123292   8.281   1.905   2.821
 7783TIP3    H223293   8.155   1.821   2.830
 7784TIP3   OH223294   2.323   4.303   1.519
 7784TIP3    H123295   2.299   4.212   1.499
 7784TIP3    H223296   2.262   4.329   1.588
 7785TIP3   OH223297   7.649   4.704   1.076
 7785TIP3    H123298   7.639   4.769   1.007
 7785TIP3    H223299   7.743   4.689   1.082
 7786TIP3   OH223300   4.054   3.467   3.142
 7786TIP3    H123301   4.122   3.534   3.149
 7786TIP3    H223302   4.058   3.420   3.226
 7787TIP3   OH223303   7.110   1.010   2.404
 7787TIP3    H123304   7.136   1.014   2.312
 7787TIP3    H223305   7.186   0.974   2.449
 7788TIP3   OH223306   4.383   3.108   0.812
 7788TIP3    H123307   4.314   3.041   0.806
 7788TIP3    H223308   4.417   3.114   0.723
 7789TIP3   OH223309   0.902   1.949   1.352
 7789TIP3    H123310   0.853   1.901   1.285
 7789TIP3    H223311   0.885   1.900   1.433
 7790TIP3   OH223312   0.582   7.466   2.743
 7790TIP3    H123313   0.536   7.503   2.667
 7790TIP3    H223314   0.639   7.536   2.773
 7791TIP3   OH223315   1.431   4.194   2.385
 7791TIP3    H123316   1.502   4.184   2.321
 7791TIP3    H223317   1.379   4.114   2.376
 7792TIP3   OH223318   3.598   5.601   2.062
 7792TIP3    H123319   3.693   5.611   2.048
 7792TIP3    H223320   3.576   5.520   2.017
 7793TIP3   OH223321   0.627   7.669   0.949
 7793TIP3    H123322   0.619   7.747   0.893
 7793TIP3    H223323   0.557   7.611   0.918
 7794TIP3   OH223324   5.053   2.488   6.654
 7794TIP3    H123325   5.031   2.540   6.577
 7794TIP3    H223326   4.979   2.428   6.665
 7795TIP3   OH223327   1.311   2.936   4.950
 7795TIP3    H123328   1.376   2.870   4.976
 7795TIP3    H223329   1.234   2.885   4.925
 7796TIP3   OH223330   0.059   5.315   6.101
 7796TIP3    H123331   0.141   5.334   6.148
 7796TIP3    H223332   0.043   5.393   6.049
 7797TIP3   OH223333   7.079   2.838   1.055
 7797TIP3    H123334   7.027   2.772   1.009
 7797TIP3    H223335   7.047   2.921   1.021
 7798TIP3   OH223336   2.106   7.339   0.836
 7798TIP3    H123337   2.078   7.257   0.797
 7798TIP3    H223338   2.201   7.342   0.819
 7799TIP3   OH223339   5.080   6.388   4.856
 7799TIP3    H123340   5.037   6.380   4.941
 7799TIP3    H223341   5.102   6.481   4.848
 7800TIP3   OH223342   5.644   2.017   6.501
 7800TIP3    H123343   5.620   2.108   6.481
 7800TIP3    H223344   5.644   1.973   6.417
 7801TIP3   OH223345   7.836   1.866   3.734
 7801TIP3    H123346   7.805   1.949   3.698
 7801TIP3    H223347   7.817   1.802   3.666
 7802TIP3   OH223348   3.298   4.283   4.585
 7802TIP3    H123349   3.392   4.273   4.575
 7802TIP3    H223350   3.261   4.240   4.508
 7803TIP3   OH223351   4.038   0.295   2.435
 7803TIP3    H123352   4.039   0.302   2.340
 7803TIP3    H223353   4.016   0.203   2.452
 7804TIP3   OH223354   7.899   1.212   4.328
 7804TIP3    H123355   7.933   1.136   4.282
 7804TIP3    H223356   7.942   1.211   4.413
 7805TIP3   OH223357   0.010   1.025   0.115
 7805TIP3    H123358  -0.029   0.961   0.055
 7805TIP3    H223359   0.093   1.049   0.074
 7806TIP3   OH223360   0.608   4.298   0.202
 7806TIP3    H123361   0.651   4.309   0.287
 7806TIP3    H223362   0.557   4.218   0.212
 7807TIP3   OH223363   4.250   4.864   2.899
 7807TIP3    H123364   4.312   4.904   2.838
 7807TIP3    H223365   4.296   4.788   2.934
 7808TIP3   OH223366   3.137   5.444   1.884
 7808TIP3    H123367   3.045   5.447   1.911
 7808TIP3    H223368   3.177   5.520   1.926
 7809TIP3   OH223369   6.221   5.920   3.877
 7809TIP3    H123370   6.217   6.015   3.884
 7809TIP3    H223371   6.275   5.892   3.951
 7810TIP3   OH223372   0.841   6.132   5.813
 7810TIP3    H123373   0.866   6.177   5.893
 7810TIP3    H223374   0.780   6.192   5.770
 7811TIP3   OH223375   6.498   3.269   4.663
 7811TIP3    H123376   6.521   3.340   4.603
 7811TIP3    H223377   6.459   3.202   4.606
 7812TIP3   OH223378   5.673   6.759   0.561
 7812TIP3    H123379   5.644   6.767   0.470
 7812TIP3    H223380   5.629   6.680   0.593
 7813TIP3   OH223381   3.219   7.324   2.926
 7813TIP3    H123382   3.194   7.402   2.976
 7813TIP3    H223383   3.136   7.281   2.907
 7814TIP3   OH223384   8.182   2.583   5.124
 7814TIP3    H123385   8.159   2.628   5.204
 7814TIP3    H223386   8.106   2.592   5.067
 7815TIP3   OH223387   3.636   0.705   5.109
 7815TIP3    H123388   3.683   0.661   5.038
 7815TIP3    H223389   3.547   0.718   5.074
 7816TIP3   OH223390   0.730   5.010   1.802
 7816TIP3    H123391   0.670   5.072   1.843
 7816TIP3    H223392   0.736   5.040   1.711
 7817TIP3   OH223393   6.113   0.122   3.264
 7817TIP3    H123394   6.140   0.031   3.252
 7817TIP3    H223395   6.194   0.172   3.262
 7818TIP3   OH223396   6.001   0.703   5.661
 7818TIP3    H123397   6.093   0.730   5.667
 7818TIP3    H223398   5.954   0.782   5.634
 7819TIP3   OH223399   1.655   1.222   0.101
 7819TIP3    H123400   1.621   1.133   0.110
 7819TIP3    H223401   1.640   1.262   0.187
 7820TIP3   OH223402   1.338   1.654   4.446
 7820TIP3    H123403   1.318   1.744   4.470
 7820TIP3    H223404   1.334   1.653   4.350
 7821TIP3   OH223405   4.821   0.109   2.856
 7821TIP3    H123406   4.885   0.057   2.806
 7821TIP3    H223407   4.747   0.120   2.795
 7822TIP3   OH223408   5.360   4.832   3.628
 7822TIP3    H123409   5.355   4.827   3.532
 7822TIP3    H223410   5.292   4.896   3.652
 7823TIP3   OH223411   4.023   6.583   1.717
 7823TIP3    H123412   4.020   6.508   1.658
 7823TIP3    H223413   4.010   6.545   1.804
 7824TIP3   OH223414   1.622   1.702   5.120
 7824TIP3    H123415   1.608   1.797   5.128
 7824TIP3    H223416   1.539   1.663   5.145
 7825TIP3   OH223417   2.388   2.099   2.676
 7825TIP3    H123418   2.380   2.005   2.694
 7825TIP3    H223419   2.412   2.138   2.759
 7826TIP3   OH223420   7.986   4.123   6.758
 7826TIP3    H123421   7.989   4.099   6.851
 7826TIP3    H223422   8.074   4.108   6.726
 7827TIP3   OH223423   6.619   3.364   0.591
 7827TIP3    H123424   6.671   3.350   0.670
 7827TIP3    H223425   6.635   3.455   0.568
 7828TIP3   OH223426   7.407   5.441   0.907
 7828TIP3    H123427   7.446   5.525   0.884
 7828TIP3    H223428   7.418   5.387   0.829
 7829TIP3   OH223429   5.834   5.980   1.047
 7829TIP3    H123430   5.754   5.947   1.006
 7829TIP3    H223431   5.854   6.060   0.998
 7830TIP3   OH223432   5.750   3.763   0.260
 7830TIP3    H123433   5.753   3.669   0.241
 7830TIP3    H223434   5.824   3.777   0.319
 7831TIP3   OH223435   1.191   0.953   6.212
 7831TIP3    H123436   1.201   0.862   6.183
 7831TIP3    H223437   1.153   0.946   6.300
 7832TIP3   OH223438   8.166   5.385   3.743
 7832TIP3    H123439   8.083   5.421   3.773
 7832TIP3    H223440   8.225   5.460   3.736
 7833TIP3   OH223441   4.594   6.548   3.612
 7833TIP3    H123442   4.523   6.506   3.562
 7833TIP3    H223443   4.585   6.641   3.594
 7834TIP3   OH223444   1.100   7.338   2.151
 7834TIP3    H123445   1.182   7.311   2.191
 7834TIP3    H223446   1.126   7.399   2.082
 7835TIP3   OH223447   4.743   6.401   0.283
 7835TIP3    H123448   4.692   6.320   0.287
 7835TIP3    H223449   4.815   6.388   0.345
 7836TIP3   OH223450   7.485   2.066   1.850
 7836TIP3    H123451   7.472   2.104   1.763
 7836TIP3    H223452   7.405   2.015   1.866
 7837TIP3   OH223453   2.400   7.313   4.514
 7837TIP3    H123454   2.398   7.233   4.462
 7837TIP3    H223455   2.333   7.300   4.581
 7838TIP3   OH223456   1.882   3.071   3.641
 7838TIP3    H123457   1.974   3.048   3.633
 7838TIP3    H223458   1.882   3.166   3.658
 7839TIP3   OH223459   2.898   4.019   3.013
 7839TIP3    H123460   2.885   3.950   2.948
 7839TIP3    H223461   2.832   4.085   2.992
 7840TIP3   OH223462   4.333   5.778   1.714
 7840TIP3    H123463   4.291   5.756   1.631
 7840TIP3    H223464   4.358   5.870   1.704
 7841TIP3   OH223465   4.533   2.544   5.322
 7841TIP3    H123466   4.501   2.518   5.236
 7841TIP3    H223467   4.465   2.603   5.355
 7842TIP3   OH223468   7.609   6.812   2.924
 7842TIP3    H123469   7.691   6.763   2.930
 7842TIP3    H223470   7.541   6.745   2.921
 7843TIP3   OH223471   7.384   4.236   4.109
 7843TIP3    H123472   7.397   4.218   4.015
 7843TIP3    H223473   7.366   4.150   4.147
 7844TIP3   OH223474   1.566   0.232   3.255
 7844TIP3    H123475   1.578   0.202   3.165
 7844TIP3    H223476   1.653   0.261   3.283
 7845TIP3   OH223477   2.959   0.118   0.681
 7845TIP3    H123478   2.972   0.209   0.707
 7845TIP3    H223479   3.030   0.100   0.619
 7846TIP3   OH223480   4.572   4.902   3.412
 7846TIP3    H123481   4.643   4.877   3.471
 7846TIP3    H223482   4.530   4.820   3.387
 7847TIP3   OH223483   7.083   1.768   6.506
 7847TIP3    H123484   7.073   1.803   6.595
 7847TIP3    H223485   7.127   1.684   6.519
 7848TIP3   OH223486   8.113   2.187   6.665
 7848TIP3    H123487   8.025   2.193   6.702
 7848TIP3    H223488   8.132   2.276   6.635
 7849TIP3   OH223489   3.209   0.988   1.914
 7849TIP3    H123490   3.117   0.974   1.891
 7849TIP3    H223491   3.207   1.014   2.006
 7850TIP3   OH223492   4.605   2.948   4.016
 7850TIP3    H123493   4.576   3.039   4.008
 7850TIP3    H223494   4.701   2.955   4.020
 7851TIP3   OH223495   6.725   2.202   6.656
 7851TIP3    H123496   6.747   2.204   6.749
 7851TIP3    H223497   6.711   2.293   6.632
 7852TIP3   OH223498   3.748   6.000   3.786
 7852TIP3    H123499   3.701   5.946   3.849
 7852TIP3    H223500   3.839   5.998   3.816
 7853TIP3   OH223501   4.859   6.096   0.908
 7853TIP3    H123502   4.823   6.062   0.990
 7853TIP3    H223503   4.865   6.190   0.922
 7854TIP3   OH223504   7.801   4.687   4.065
 7854TIP3    H123505   7.732   4.712   4.004
 7854TIP3    H223506   7.754   4.648   4.139
 7855TIP3   OH223507   4.122   7.659   0.249
 7855TIP3    H123508   4.049   7.599   0.232
 7855TIP3    H223509   4.096   7.741   0.207
 7856TIP3   OH223510   4.825   4.855   6.418
 7856TIP3    H123511   4.811   4.887   6.329
 7856TIP3    H223512   4.921   4.848   6.426
 7857TIP3   OH223513   1.437   4.515   4.744
 7857TIP3    H123514   1.504   4.476   4.800
 7857TIP3    H223515   1.367   4.539   4.805
 7858TIP3   OH223516   7.655   3.826   1.542
 7858TIP3    H123517   7.722   3.765   1.509
 7858TIP3    H223518   7.663   3.820   1.637
 7859TIP3   OH223519   8.132   6.802   1.794
 7859TIP3    H123520   8.178   6.863   1.736
 7859TIP3    H223521   8.058   6.771   1.742
 7860TIP3   OH223522   5.544   2.718   5.592
 7860TIP3    H123523   5.507   2.654   5.531
 7860TIP3    H223524   5.467   2.764   5.628
 7861TIP3   OH223525   3.708   2.571   0.984
 7861TIP3    H123526   3.750   2.541   0.903
 7861TIP3    H223527   3.669   2.492   1.021
 7862TIP3   OH223528   5.566   4.545   6.501
 7862TIP3    H123529   5.554   4.588   6.416
 7862TIP3    H223530   5.523   4.603   6.563
 7863TIP3   OH223531   6.612   1.076   3.926
 7863TIP3    H123532   6.654   1.074   4.013
 7863TIP3    H223533   6.528   1.118   3.941
 7864TIP3   OH223534   5.465   3.236   6.342
 7864TIP3    H123535   5.446   3.144   6.358
 7864TIP3    H223536   5.385   3.272   6.305
 7865TIP3   OH223537   4.700   2.370   1.065
 7865TIP3    H123538   4.762   2.437   1.095
 7865TIP3    H223539   4.712   2.367   0.970
 7866TIP3   OH223540   6.309   5.327   4.927
 7866TIP3    H123541   6.259   5.310   4.847
 7866TIP3    H223542   6.341   5.241   4.953
 7867TIP3   OH223543   2.976   1.107   1.309
 7867TIP3    H123544   2.920   1.032   1.328
 7867TIP3    H223545   2.979   1.157   1.391
 7868TIP3   OH223546   1.463   7.043   6.613
 7868TIP3    H123547   1.413   7.015   6.536
 7868TIP3    H223548   1.448   6.973   6.677
 7869TIP3   OH223549   0.064   0.356   4.569
 7869TIP3    H123550  -0.019   0.321   4.602
 7869TIP3    H223551   0.124   0.281   4.568
 7870TIP3   OH223552   4.301   0.343   1.900
 7870TIP3    H123553   4.383   0.363   1.856
 7870TIP3    H223554   4.241   0.413   1.872
 7871TIP3   OH223555   3.720   6.399   1.838
 7871TIP3    H123556   3.759   6.335   1.897
 7871TIP3    H223557   3.770   6.391   1.756
 7872TIP3   OH223558   7.989   2.568   0.062
 7872TIP3    H123559   7.919   2.528   0.114
 7872TIP3    H223560   8.002   2.655   0.102
 7873TIP3   OH223561   0.789   6.826   5.085
 7873TIP3    H123562   0.777   6.868   5.000
 7873TIP3    H223563   0.882   6.836   5.104
 7874TIP3   OH223564   2.340   3.788   5.616
 7874TIP3    H123565   2.364   3.718   5.677
 7874TIP3    H223566   2.307   3.858   5.671
 7875TIP3   OH223567   2.378   1.820   2.630
 7875TIP3    H123568   2.393   1.753   2.697
 7875TIP3    H223569   2.447   1.806   2.566
 7876TIP3   OH223570   1.862   2.497   0.636
 7876TIP3    H123571   1.795   2.516   0.570
 7876TIP3    H223572   1.927   2.567   0.624
 7877TIP3   OH223573   4.779   7.345   2.962
 7877TIP3    H123574   4.836   7.309   2.895
 7877TIP3    H223575   4.734   7.418   2.919
 7878TIP3   OH223576   0.664   6.744   3.344
 7878TIP3    H123577   0.758   6.757   3.362
 7878TIP3    H223578   0.637   6.677   3.406
 7879TIP3   OH223579   2.458   4.249   1.118
 7879TIP3    H123580   2.401   4.287   1.052
 7879TIP3    H223581   2.539   4.300   1.113
 7880TIP3   OH223582   4.472   1.015   2.511
 7880TIP3    H123583   4.425   1.098   2.518
 7880TIP3    H223584   4.556   1.038   2.472
 7881TIP3   OH223585   4.616   1.832   4.930
 7881TIP3    H123586   4.650   1.903   4.875
 7881TIP3    H223587   4.694   1.797   4.974
 7882TIP3   OH223588   1.266   4.054   1.715
 7882TIP3    H123589   1.277   3.965   1.683
 7882TIP3    H223590   1.193   4.049   1.776
 7883TIP3   OH223591   5.113   3.425   3.033
 7883TIP3    H123592   5.131   3.331   3.037
 7883TIP3    H223593   5.077   3.439   2.946
 7884TIP3   OH223594   0.391   3.509   2.188
 7884TIP3    H123595   0.370   3.600   2.166
 7884TIP3    H223596   0.448   3.479   2.117
 7885TIP3   OH223597   6.021   3.071   1.255
 7885TIP3    H123598   6.063   3.021   1.185
 7885TIP3    H223599   5.969   3.137   1.209
 7886TIP3   OH223600   5.488   4.102   2.996
 7886TIP3    H123601   5.491   4.017   2.951
 7886TIP3    H223602   5.538   4.089   3.076
 7887TIP3   OH223603   4.934   5.876   1.712
 7887TIP3    H123604   4.987   5.797   1.725
 7887TIP3    H223605   4.875   5.853   1.640
 7888TIP3   OH223606   2.719   4.475   1.928
 7888TIP3    H123607   2.630   4.485   1.963
 7888TIP3    H223608   2.707   4.443   1.839
 7889TIP3   OH223609   1.441   4.669   2.746
 7889TIP3    H123610   1.483   4.588   2.775
 7889TIP3    H223611   1.368   4.681   2.807
 7890TIP3   OH223612   7.363   4.498   4.197
 7890TIP3    H123613   7.441   4.541   4.232
 7890TIP3    H223614   7.387   4.405   4.191
 7891TIP3   OH223615   5.238   4.818   4.294
 7891TIP3    H123616   5.266   4.800   4.204
 7891TIP3    H223617   5.220   4.912   4.295
 7892TIP3   OH223618   3.649   3.804   2.920
 7892TIP3    H123619   3.584   3.745   2.882
 7892TIP3    H223620   3.684   3.755   2.995
 7893TIP3   OH223621   5.206   4.742   2.348
 7893TIP3    H123622   5.293   4.712   2.320
 7893TIP3    H223623   5.192   4.699   2.432
 7894TIP3   OH223624   2.995   1.614   0.941
 7894TIP3    H123625   2.956   1.687   0.990
 7894TIP3    H223626   2.934   1.542   0.953
 7895TIP3   OH223627   6.447   1.139   4.246
 7895TIP3    H123628   6.365   1.163   4.289
 7895TIP3    H223629   6.446   1.043   4.244
 7896TIP3   OH223630   5.557   5.783   4.207
 7896TIP3    H123631   5.631   5.791   4.267
 7896TIP3    H223632   5.483   5.818   4.256
 7897TIP3   OH223633   3.257   2.219   1.282
 7897TIP3    H123634   3.226   2.131   1.265
 7897TIP3    H223635   3.212   2.245   1.363
 7898TIP3   OH223636   2.476   5.156   6.272
 7898TIP3    H123637   2.383   5.163   6.291
 7898TIP3    H223638   2.486   5.193   6.185
 7899TIP3   OH223639   7.594   0.771   1.250
 7899TIP3    H123640   7.599   0.864   1.272
 7899TIP3    H223641   7.520   0.739   1.302
 7900TIP3   OH223642   0.639   5.270   0.136
 7900TIP3    H123643   0.708   5.211   0.166
 7900TIP3    H223644   0.587   5.289   0.214
 7901TIP3   OH223645   0.946   7.326   4.747
 7901TIP3    H123646   1.003   7.396   4.714
 7901TIP3    H223647   0.969   7.318   4.839
 7902TIP3   OH223648   4.488   4.687   6.720
 7902TIP3    H123649   4.526   4.610   6.762
 7902TIP3    H223650   4.517   4.682   6.629
 7903TIP3   OH223651   0.099   1.104   5.696
 7903TIP3    H123652   0.031   1.062   5.747
 7903TIP3    H223653   0.098   1.195   5.725
 7904TIP3   OH223654   2.405   0.824   1.620
 7904TIP3    H123655   2.446   0.795   1.702
 7904TIP3    H223656   2.338   0.758   1.603
 7905TIP3   OH223657   5.200   6.798   0.801
 7905TIP3    H123658   5.220   6.731   0.866
 7905TIP3    H223659   5.166   6.872   0.852
 7906TIP3   OH223660   1.959   3.900   5.418
 7906TIP3    H123661   1.887   3.954   5.387
 7906TIP3    H223662   1.957   3.823   5.360
 7907TIP3   OH223663   4.794   2.250   2.305
 7907TIP3    H123664   4.883   2.254   2.340
 7907TIP3    H223665   4.768   2.159   2.317
 7908TIP3   OH223666   2.466   5.530   5.185
 7908TIP3    H123667   2.535   5.592   5.162
 7908TIP3    H223668   2.505   5.475   5.254
 7909TIP3   OH223669   2.288   0.969   4.813
 7909TIP3    H123670   2.219   0.903   4.807
 7909TIP3    H223671   2.261   1.037   4.751
 7910TIP3   OH223672   1.959   4.725   3.116
 7910TIP3    H123673   1.927   4.779   3.043
 7910TIP3    H223674   2.042   4.765   3.141
 7911TIP3   OH223675   7.663   7.692   4.306
 7911TIP3    H123676   7.627   7.780   4.304
 7911TIP3    H223677   7.625   7.648   4.231
 7912TIP3   OH223678   2.126   3.969   3.022
 7912TIP3    H123679   2.090   4.043   2.973
 7912TIP3    H223680   2.213   3.956   2.985
 7913TIP3   OH223681   2.030   1.856   3.017
 7913TIP3    H123682   2.008   1.949   3.020
 7913TIP3    H223683   2.083   1.846   2.938
 7914TIP3   OH223684   4.907   2.212   3.652
 7914TIP3    H123685   4.846   2.258   3.710
 7914TIP3    H223686   4.907   2.122   3.683
 7915TIP3   OH223687   2.411   3.454   0.717
 7915TIP3    H123688   2.483   3.397   0.742
 7915TIP3    H223689   2.447   3.510   0.648
 7916TIP3   OH223690   2.174   7.576   5.015
 7916TIP3    H123691   2.146   7.485   5.019
 7916TIP3    H223692   2.168   7.599   4.922
 7917TIP3   OH223693   6.492   2.231   3.608
 7917TIP3    H123694   6.410   2.274   3.633
 7917TIP3    H223695   6.560   2.277   3.657
 7918TIP3   OH223696   0.763   7.713   2.473
 7918TIP3    H123697   0.848   7.702   2.516
 7918TIP3    H223698   0.728   7.625   2.467
 7919TIP3   OH223699   3.897   6.280   0.437
 7919TIP3    H123700   3.891   6.375   0.430
 7919TIP3    H223701   3.975   6.258   0.386
 7920TIP3   OH223702   2.140   4.055   1.520
 7920TIP3    H123703   2.093   4.101   1.450
 7920TIP3    H223704   2.095   3.971   1.527
 7921TIP3   OH223705   2.044   6.900   4.618
 7921TIP3    H123706   1.963   6.855   4.595
 7921TIP3    H223707   2.105   6.829   4.640
 7922TIP3   OH223708   1.431   1.220   4.710
 7922TIP3    H123709   1.396   1.259   4.630
 7922TIP3    H223710   1.516   1.261   4.722
 7923TIP3   OH223711   0.615   3.949   2.290
 7923TIP3    H123712   0.648   4.027   2.332
 7923TIP3    H223713   0.623   3.880   2.356
 7924TIP3   OH223714   3.165   6.460   5.194
 7924TIP3    H123715   3.150   6.536   5.250
 7924TIP3    H223716   3.099   6.397   5.221
 7925TIP3   OH223717   4.050   1.376   3.850
 7925TIP3    H123718   4.016   1.294   3.815
 7925TIP3    H223719   4.142   1.358   3.868
 7926TIP3   OH223720   8.232   3.083   4.223
 7926TIP3    H123721   8.325   3.095   4.238
 7926TIP3    H223722   8.192   3.094   4.309
 7927TIP3   OH223723   3.800   6.705   6.238
 7927TIP3    H123724   3.716   6.742   6.264
 7927TIP3    H223725   3.814   6.632   6.298
 7928TIP3   OH223726   7.796   3.050   2.995
 7928TIP3    H123727   7.722   3.032   3.053
 7928TIP3    H223728   7.870   3.064   3.054
 7929TIP3   OH223729   4.175   3.079   5.438
 7929TIP3    H123730   4.087   3.047   5.415
 7929TIP3    H223731   4.191   3.150   5.376
 7930TIP3   OH223732   7.767   5.532   3.262
 7930TIP3    H123733   7.706   5.461   3.244
 7930TIP3    H223734   7.841   5.490   3.306
 7931TIP3   OH223735   1.050   5.777   4.609
 7931TIP3    H123736   1.112   5.759   4.678
 7931TIP3    H223737   0.972   5.809   4.654
 7932TIP3   OH223738   5.755   2.129   4.004
 7932TIP3    H123739   5.701   2.183   4.062
 7932TIP3    H223740   5.822   2.188   3.972
 7933TIP3   OH223741   7.246   3.508   6.799
 7933TIP3    H123742   7.201   3.536   6.719
 7933TIP3    H223743   7.284   3.588   6.834
 7934TIP3   OH223744   1.461   2.161   5.017
 7934TIP3    H123745   1.426   2.181   4.930
 7934TIP3    H223746   1.421   2.227   5.074
 7935TIP3   OH223747   4.546   2.289   1.455
 7935TIP3    H123748   4.625   2.327   1.494
 7935TIP3    H223749   4.498   2.253   1.530
 7936TIP3   OH223750   1.655   5.571   6.648
 7936TIP3    H123751   1.689   5.484   6.625
 7936TIP3    H223752   1.560   5.559   6.651
 7937TIP3   OH223753   7.857   5.579   6.161
 7937TIP3    H123754   7.915   5.547   6.092
 7937TIP3    H223755   7.896   5.546   6.242
 7938TIP3   OH223756   1.467   4.966   1.967
 7938TIP3    H123757   1.472   4.966   2.063
 7938TIP3    H223758   1.439   4.877   1.945
 7939TIP3   OH223759   4.579   5.597   5.183
 7939TIP3    H123760   4.603   5.522   5.237
 7939TIP3    H223761   4.507   5.565   5.129
 7940TIP3   OH223762   6.279   3.890   6.504
 7940TIP3    H123763   6.259   3.824   6.437
 7940TIP3    H223764   6.298   3.970   6.455
 7941TIP3   OH223765   5.417   5.451   5.093
 7941TIP3    H123766   5.449   5.390   5.026
 7941TIP3    H223767   5.496   5.478   5.139
 7942TIP3   OH223768   6.308   7.356   3.815
 7942TIP3    H123769   6.344   7.294   3.879
 7942TIP3    H223770   6.214   7.357   3.833
 7943TIP3   OH223771   2.541   2.951   0.359
 7943TIP3    H123772   2.602   3.023   0.343
 7943TIP3    H223773   2.597   2.873   0.364
 7944TIP3   OH223774   6.926   0.247   2.359
 7944TIP3    H123775   6.856   0.203   2.407
 7944TIP3    H223776   6.880   0.307   2.300
 7945TIP3   OH223777   3.978   3.156   1.200
 7945TIP3    H123778   3.954   3.083   1.257
 7945TIP3    H223779   4.068   3.178   1.224
 7946TIP3   OH223780   6.152   2.930   3.245
 7946TIP3    H123781   6.179   3.021   3.228
 7946TIP3    H223782   6.181   2.882   3.168
 7947TIP3   OH223783   4.189   2.505   5.294
 7947TIP3    H123784   4.125   2.560   5.249
 7947TIP3    H223785   4.192   2.538   5.383
 7948TIP3   OH223786   6.769   0.571   5.040
 7948TIP3    H123787   6.810   0.629   5.104
 7948TIP3    H223788   6.732   0.500   5.093
 7949TIP3   OH223789   7.115   3.117   4.971
 7949TIP3    H123790   7.034   3.165   4.953
 7949TIP3    H223791   7.178   3.152   4.908
 7950TIP3   OH223792   4.405   2.799   4.681
 7950TIP3    H123793   4.334   2.748   4.643
 7950TIP3    H223794   4.461   2.734   4.723
 7951TIP3   OH223795   7.821   5.121   2.094
 7951TIP3    H123796   7.793   5.051   2.035
 7951TIP3    H223797   7.743   5.141   2.146
 7952TIP3   OH223798   1.199   0.288   3.476
 7952TIP3    H123799   1.274   0.242   3.438
 7952TIP3    H223800   1.123   0.236   3.449
 7953TIP3   OH223801   2.521   4.844   1.924
 7953TIP3    H123802   2.536   4.900   2.000
 7953TIP3    H223803   2.489   4.762   1.962
 7954TIP3   OH223804   2.053   6.669   2.812
 7954TIP3    H123805   2.131   6.616   2.797
 7954TIP3    H223806   2.036   6.661   2.906
 7955TIP3   OH223807   6.685   3.472   6.351
 7955TIP3    H123808   6.704   3.401   6.289
 7955TIP3    H223809   6.728   3.548   6.313
 7956TIP3   OH223810   2.181   2.164   4.388
 7956TIP3    H123811   2.147   2.079   4.413
 7956TIP3    H223812   2.276   2.155   4.392
 7957TIP3   OH223813   6.256   3.299   4.116
 7957TIP3    H123814   6.285   3.210   4.137
 7957TIP3    H223815   6.211   3.290   4.032
 7958TIP3   OH223816   1.913   0.805   4.381
 7958TIP3    H123817   1.836   0.806   4.323
 7958TIP3    H223818   1.984   0.837   4.326
 7959TIP3   OH223819   1.862   1.355   0.775
 7959TIP3    H123820   1.872   1.347   0.870
 7959TIP3    H223821   1.939   1.406   0.748
 7960TIP3   OH223822   0.648   6.764   1.653
 7960TIP3    H123823   0.743   6.776   1.653
 7960TIP3    H223824   0.612   6.853   1.644
 7961TIP3   OH223825   1.378   6.380   1.776
 7961TIP3    H123826   1.446   6.433   1.818
 7961TIP3    H223827   1.351   6.430   1.700
 7962TIP3   OH223828   2.534   6.613   4.342
 7962TIP3    H123829   2.451   6.621   4.295
 7962TIP3    H223830   2.522   6.538   4.400
 7963TIP3   OH223831   1.745   1.177   5.168
 7963TIP3    H123832   1.751   1.109   5.101
 7963TIP3    H223833   1.753   1.260   5.120
 7964TIP3   OH223834   0.871   3.221   2.328
 7964TIP3    H123835   0.941   3.284   2.347
 7964TIP3    H223836   0.790   3.270   2.343
 7965TIP3   OH223837   4.289   3.381   6.739
 7965TIP3    H123838   4.193   3.374   6.733
 7965TIP3    H223839   4.314   3.425   6.657
 7966TIP3   OH223840   5.321   6.055   4.001
 7966TIP3    H123841   5.399   6.099   3.969
 7966TIP3    H223842   5.325   6.064   4.097
 7967TIP3   OH223843   2.906   0.655   2.576
 7967TIP3    H123844   2.914   0.561   2.556
 7967TIP3    H223845   2.986   0.676   2.623
 7968TIP3   OH223846   1.031   0.038   0.106
 7968TIP3    H123847   1.011  -0.043   0.059
 7968TIP3    H223848   1.127   0.039   0.112
 7969TIP3   OH223849   3.899   1.626   0.589
 7969TIP3    H123850   3.884   1.581   0.672
 7969TIP3    H223851   3.830   1.594   0.531
 7970TIP3   OH223852   0.233   6.278   1.292
 7970TIP3    H123853   0.139   6.297   1.285
 7970TIP3    H223854   0.271   6.359   1.327
 7971TIP3   OH223855   6.462   5.346   2.677
 7971TIP3    H123856   6.417   5.429   2.691
 7971TIP3    H223857   6.507   5.329   2.760
 7972TIP3   OH223858   1.626   4.864   3.300
 7972TIP3    H123859   1.605   4.908   3.218
 7972TIP3    H223860   1.545   4.863   3.349
 7973TIP3   OH223861   5.183   5.042   3.232
 7973TIP3    H123862   5.228   5.066   3.313
 7973TIP3    H223863   5.090   5.049   3.253
 7974TIP3   OH223864   0.136   0.953   5.466
 7974TIP3    H123865   0.043   0.952   5.446
 7974TIP3    H223866   0.140   0.970   5.560
 7975TIP3   OH223867   1.295   5.645   5.255
 7975TIP3    H123868   1.275   5.553   5.239
 7975TIP3    H223869   1.301   5.652   5.350
 7976TIP3   OH223870   3.387   5.722   3.172
 7976TIP3    H123871   3.465   5.686   3.129
 7976TIP3    H223872   3.319   5.656   3.159
 7977TIP3   OH223873   6.051   7.273   1.264
 7977TIP3    H123874   6.077   7.354   1.220
 7977TIP3    H223875   6.107   7.269   1.342
 7978TIP3   OH223876   0.999   5.275   4.332
 7978TIP3    H123877   0.912   5.287   4.370
 7978TIP3    H223878   0.996   5.324   4.250
 7979TIP3   OH223879   3.815   7.430   4.610
 7979TIP3    H123880   3.791   7.346   4.572
 7979TIP3    H223881   3.881   7.409   4.676
 7980TIP3   OH223882   0.118   1.955   0.268
 7980TIP3    H123883   0.109   1.861   0.258
 7980TIP3    H223884   0.035   1.984   0.306
 7981TIP3   OH223885   6.412   5.546   1.389
 7981TIP3    H123886   6.330   5.504   1.362
 7981TIP3    H223887   6.434   5.505   1.473
 7982TIP3   OH223888   8.253   3.576   1.830
 7982TIP3    H123889   8.235   3.645   1.766
 7982TIP3    H223890   8.310   3.618   1.895
 7983TIP3   OH223891   0.211   2.197   4.331
 7983TIP3    H123892   0.217   2.279   4.281
 7983TIP3    H223893   0.211   2.225   4.423
 7984TIP3   OH223894   1.389   5.493   6.672
 7984TIP3    H123895   1.317   5.521   6.615
 7984TIP3    H223896   1.371   5.401   6.689
 7985TIP3   OH223897   0.902   3.668   1.464
 7985TIP3    H123898   0.811   3.656   1.492
 7985TIP3    H223899   0.949   3.594   1.503
 7986TIP3   OH223900   1.208   0.954   4.319
 7986TIP3    H123901   1.156   0.916   4.248
 7986TIP3    H223902   1.243   1.035   4.283
 7987TIP3   OH223903   1.456   6.126   6.249
 7987TIP3    H123904   1.441   6.116   6.154
 7987TIP3    H223905   1.516   6.055   6.271
 7988TIP3   OH223906   0.183   3.940   1.087
 7988TIP3    H123907   0.233   3.934   1.005
 7988TIP3    H223908   0.249   3.961   1.153
 7989TIP3   OH223909   3.735   1.866   3.885
 7989TIP3    H123910   3.826   1.857   3.912
 7989TIP3    H223911   3.696   1.923   3.952
 7990TIP3   OH223912   4.868   1.538   5.194
 7990TIP3    H123913   4.920   1.588   5.257
 7990TIP3    H223914   4.821   1.474   5.247
 7991TIP3   OH223915   0.492   3.172   2.952
 7991TIP3    H123916   0.424   3.183   2.885
 7991TIP3    H223917   0.486   3.080   2.978
 7992TIP3   OH223918   1.120   3.607   3.268
 7992TIP3    H123919   1.032   3.610   3.229
 7992TIP3    H223920   1.118   3.530   3.324
 7993TIP3   OH223921   3.828   6.708   2.458
 7993TIP3    H123922   3.852   6.645   2.526
 7993TIP3    H223923   3.899   6.772   2.458
 7994TIP3   OH223924   1.464   3.699   1.775
 7994TIP3    H123925   1.459   3.605   1.756
 7994TIP3    H223926   1.419   3.741   1.702
 7995TIP3   OH223927   1.137   2.759   0.678
 7995TIP3    H123928   1.168   2.731   0.592
 7995TIP3    H223929   1.117   2.677   0.724
 7996TIP3   OH223930   0.303   3.505   2.637
 7996TIP3    H123931   0.299   3.528   2.730
 7996TIP3    H223932   0.234   3.557   2.597
 7997TIP3   OH223933   0.567   1.420   6.595
 7997TIP3    H123934   0.522   1.501   6.622
 7997TIP3    H223935   0.498   1.367   6.555
 7998TIP3   OH223936   6.546   2.491   0.146
 7998TIP3    H123937   6.472   2.434   0.165
 7998TIP3    H223938   6.566   2.533   0.230
 7999TIP3   OH223939   1.703   4.942   3.688
 7999TIP3    H123940   1.728   4.902   3.605
 7999TIP3    H223941   1.774   5.005   3.706
 8000TIP3   OH223942   3.381   1.415   4.452
 8000TIP3    H123943   3.332   1.491   4.419
 8000TIP3    H223944   3.355   1.409   4.544
 8001TIP3   OH223945   1.240   1.096   3.957
 8001TIP3    H123946   1.185   1.174   3.956
 8001TIP3    H223947   1.325   1.125   3.924
 8002TIP3   OH223948   7.551   3.929   3.924
 8002TIP3    H123949   7.581   3.928   4.015
 8002TIP3    H223950   7.592   3.853   3.884
 8003TIP3   OH223951   0.916   1.744   2.792
 8003TIP3    H123952   0.953   1.731   2.880
 8003TIP3    H223953   0.841   1.801   2.805
 8004TIP3   OH223954   4.888   6.152   1.736
 8004TIP3    H123955   4.909   6.059   1.745
 8004TIP3    H223956   4.793   6.157   1.747
 8005TIP3   OH223957   1.793   7.300   2.263
 8005TIP3    H123958   1.854   7.297   2.189
 8005TIP3    H223959   1.744   7.218   2.258
 8006TIP3   OH223960   3.732   5.520   5.685
 8006TIP3    H123961   3.823   5.510   5.716
 8006TIP3    H223962   3.722   5.452   5.618
 8007TIP3   OH223963   1.163   4.561   2.469
 8007TIP3    H123964   1.219   4.522   2.401
 8007TIP3    H223965   1.192   4.652   2.475
 8008TIP3   OH223966   1.564   5.659   3.365
 8008TIP3    H123967   1.552   5.678   3.458
 8008TIP3    H223968   1.578   5.745   3.325
 8009TIP3   OH223969   1.315   4.811   0.243
 8009TIP3    H123970   1.268   4.731   0.265
 8009TIP3    H223971   1.408   4.790   0.255
 8010TIP3   OH223972   7.614   5.151   2.267
 8010TIP3    H123973   7.541   5.131   2.208
 8010TIP3    H223974   7.573   5.195   2.342
 8011TIP3   OH223975   2.118   2.089   5.662
 8011TIP3    H123976   2.042   2.034   5.641
 8011TIP3    H223977   2.184   2.064   5.598
 8012TIP3   OH223978   5.600   2.402   6.171
 8012TIP3    H123979   5.695   2.390   6.176
 8012TIP3    H223980   5.585   2.489   6.208
 8013TIP3   OH223981   7.954   0.969   0.086
 8013TIP3    H123982   8.023   1.000   0.027
 8013TIP3    H223983   7.993   0.974   0.174
 8014TIP3   OH223984   1.718   2.766   2.064
 8014TIP3    H123985   1.657   2.710   2.112
 8014TIP3    H223986   1.714   2.850   2.110
 8015TIP3   OH223987   2.518   2.871   4.783
 8015TIP3    H123988   2.426   2.846   4.774
 8015TIP3    H223989   2.563   2.825   4.711
 8016TIP3   OH223990   4.850   4.194   1.407
 8016TIP3    H123991   4.771   4.231   1.446
 8016TIP3    H223992   4.875   4.123   1.466
 8017TIP3   OH223993   2.859   2.426   2.499
 8017TIP3    H123994   2.805   2.487   2.549
 8017TIP3    H223995   2.949   2.449   2.522
 8018TIP3   OH223996   7.515   6.749   3.869
 8018TIP3    H123997   7.424   6.745   3.838
 8018TIP3    H223998   7.549   6.661   3.857
 8019TIP3   OH223999   0.051   5.001   3.685
 8019TIP3    H124000  -0.026   5.020   3.738
 8019TIP3    H224001   0.120   5.055   3.724
 8020TIP3   OH224002   2.157   3.930   5.162
 8020TIP3    H124003   2.159   3.866   5.233
 8020TIP3    H224004   2.250   3.945   5.141
 8021TIP3   OH224005   5.366   3.445   3.912
 8021TIP3    H124006   5.434   3.432   3.846
 8021TIP3    H224007   5.376   3.372   3.972
 8022TIP3   OH224008   7.197   6.760   5.334
 8022TIP3    H124009   7.127   6.780   5.272
 8022TIP3    H224010   7.170   6.801   5.416
 8023TIP3   OH224011   2.832   7.751   5.855
 8023TIP3    H124012   2.807   7.729   5.945
 8023TIP3    H224013   2.768   7.818   5.829
 8024TIP3   OH224014   7.164   6.090   6.232
 8024TIP3    H124015   7.107   6.040   6.290
 8024TIP3    H224016   7.252   6.074   6.265
 8025TIP3   OH224017   4.528   4.509   0.746
 8025TIP3    H124018   4.621   4.489   0.732
 8025TIP3    H224019   4.490   4.425   0.772
 8026TIP3   OH224020   2.399   2.912   2.977
 8026TIP3    H124021   2.377   2.831   2.932
 8026TIP3    H224022   2.449   2.963   2.912
 8027TIP3   OH224023   5.686   1.215   0.997
 8027TIP3    H124024   5.706   1.308   0.987
 8027TIP3    H224025   5.737   1.187   1.073
 8028TIP3   OH224026   1.973   3.626   4.137
 8028TIP3    H124027   2.007   3.714   4.126
 8028TIP3    H224028   1.878   3.636   4.136
 8029TIP3   OH224029   7.240   1.737   2.096
 8029TIP3    H124030   7.330   1.749   2.124
 8029TIP3    H224031   7.218   1.647   2.121
 8030TIP3   OH224032   5.429   2.351   5.960
 8030TIP3    H124033   5.497   2.385   6.019
 8030TIP3    H224034   5.426   2.257   5.978
 8031TIP3   OH224035   7.097   4.955   1.974
 8031TIP3    H124036   7.024   4.991   1.924
 8031TIP3    H224037   7.173   5.005   1.945
 8032TIP3   OH224038   7.430   7.101   4.066
 8032TIP3    H124039   7.373   7.126   3.993
 8032TIP3    H224040   7.452   7.010   4.049
 8033TIP3   OH224041   8.139   6.985   4.106
 8033TIP3    H124042   8.168   7.028   4.186
 8033TIP3    H224043   8.127   7.057   4.043
 8034TIP3   OH224044   0.593   0.018   0.425
 8034TIP3    H124045   0.507   0.059   0.424
 8034TIP3    H224046   0.577  -0.073   0.401
 8035TIP3   OH224047   7.773   3.314   6.179
 8035TIP3    H124048   7.736   3.333   6.093
 8035TIP3    H224049   7.858   3.273   6.160
 8036TIP3   OH224050   6.533   5.569   2.094
 8036TIP3    H124051   6.564   5.584   2.183
 8036TIP3    H224052   6.551   5.651   2.048
 8037TIP3   OH224053   0.791   7.690   1.159
 8037TIP3    H124054   0.716   7.695   1.099
 8037TIP3    H224055   0.856   7.749   1.121
 8038TIP3   OH224056   5.983   6.063   5.971
 8038TIP3    H124057   5.981   6.064   5.875
 8038TIP3    H224058   5.893   6.081   5.997
 8039TIP3   OH224059   1.545   4.451   0.226
 8039TIP3    H124060   1.627   4.486   0.190
 8039TIP3    H224061   1.479   4.475   0.161
 8040TIP3   OH224062   0.803   1.100   4.038
 8040TIP3    H124063   0.852   1.111   3.957
 8040TIP3    H224064   0.717   1.139   4.020
 8041TIP3   OH224065   6.972   7.825   4.079
 8041TIP3    H124066   6.888   7.786   4.100
 8041TIP3    H224067   6.996   7.787   3.994
 8042TIP3   OH224068   1.253   0.145   2.470
 8042TIP3    H124069   1.176   0.199   2.454
 8042TIP3    H224070   1.328   0.200   2.445
 8043TIP3   OH224071   1.583   5.850   3.117
 8043TIP3    H124072   1.674   5.821   3.109
 8043TIP3    H224073   1.590   5.942   3.144
 8044TIP3   OH224074   1.228   2.886   6.217
 8044TIP3    H124075   1.252   2.796   6.193
 8044TIP3    H224076   1.273   2.941   6.153
 8045TIP3   OH224077   5.254   7.427   1.375
 8045TIP3    H124078   5.314   7.413   1.448
 8045TIP3    H224079   5.174   7.461   1.415
 8046TIP3   OH224080   7.713   6.190   5.801
 8046TIP3    H124081   7.653   6.198   5.727
 8046TIP3    H224082   7.659   6.156   5.872
 8047TIP3   OH224083   2.342   0.151   3.972
 8047TIP3    H124084   2.359   0.064   4.009
 8047TIP3    H224085   2.357   0.140   3.878
 8048TIP3   OH224086   4.318   6.518   1.089
 8048TIP3    H124087   4.374   6.538   1.164
 8048TIP3    H224088   4.265   6.444   1.119
 8049TIP3   OH224089   2.387   0.953   2.048
 8049TIP3    H124090   2.452   1.022   2.061
 8049TIP3    H224091   2.381   0.909   2.133
 8050TIP3   OH224092   6.163   3.004   6.499
 8050TIP3    H124093   6.115   2.925   6.523
 8050TIP3    H224094   6.254   2.983   6.517
 8051TIP3   OH224095   6.433   0.420   6.596
 8051TIP3    H124096   6.502   0.412   6.530
 8051TIP3    H224097   6.478   0.409   6.680
 8052TIP3   OH224098   7.062   6.528   4.440
 8052TIP3    H124099   7.113   6.591   4.390
 8052TIP3    H224100   6.974   6.566   4.444
 8053TIP3   OH224101   1.660   4.215   1.199
 8053TIP3    H124102   1.741   4.230   1.248
 8053TIP3    H224103   1.591   4.251   1.255
 8054TIP3   OH224104   7.296   0.433   2.334
 8054TIP3    H124105   7.219   0.479   2.367
 8054TIP3    H224106   7.285   0.435   2.239
 8055TIP3   OH224107   6.212   1.120   5.564
 8055TIP3    H124108   6.147   1.135   5.495
 8055TIP3    H224109   6.294   1.151   5.527
 8056TIP3   OH224110   7.112   2.631   2.394
 8056TIP3    H124111   7.039   2.625   2.456
 8056TIP3    H224112   7.185   2.665   2.447
 8057TIP3   OH224113   4.421   5.474   4.333
 8057TIP3    H124114   4.506   5.432   4.315
 8057TIP3    H224115   4.365   5.402   4.362
 8058TIP3   OH224116   6.608   3.943   2.661
 8058TIP3    H124117   6.670   3.872   2.680
 8058TIP3    H224118   6.565   3.959   2.745
 8059TIP3   OH224119   4.173   1.101   2.240
 8059TIP3    H124120   4.083   1.124   2.263
 8059TIP3    H224121   4.190   1.020   2.289
 8060TIP3   OH224122   6.421   3.922   5.112
 8060TIP3    H124123   6.361   3.866   5.161
 8060TIP3    H224124   6.395   4.012   5.134
 8061TIP3   OH224125   2.005   7.530   1.667
 8061TIP3    H124126   2.026   7.616   1.704
 8061TIP3    H224127   1.983   7.548   1.576
 8062TIP3   OH224128   4.948   4.232   1.778
 8062TIP3    H124129   5.038   4.237   1.747
 8062TIP3    H224130   4.955   4.208   1.871
 8063TIP3   OH224131   1.930   7.679   4.455
 8063TIP3    H124132   1.972   7.697   4.371
 8063TIP3    H224133   1.836   7.689   4.438
 8064TIP3   OH224134   2.991   6.571   2.762
 8064TIP3    H124135   2.903   6.603   2.782
 8064TIP3    H224136   3.009   6.603   2.673
 8065TIP3   OH224137   7.833   4.824   4.800
 8065TIP3    H124138   7.767   4.808   4.733
 8065TIP3    H224139   7.783   4.853   4.877
 8066TIP3   OH224140   3.431   6.242   4.331
 8066TIP3    H124141   3.523   6.220   4.312
 8066TIP3    H224142   3.436   6.322   4.382
 8067TIP3   OH224143   3.604   5.671   0.935
 8067TIP3    H124144   3.523   5.624   0.917
 8067TIP3    H224145   3.586   5.762   0.909
 8068TIP3   OH224146   6.197   6.726   3.579
 8068TIP3    H124147   6.274   6.738   3.633
 8068TIP3    H224148   6.228   6.739   3.490
 8069TIP3   OH224149   4.072   1.107   3.770
 8069TIP3    H124150   4.042   1.075   3.855
 8069TIP3    H224151   4.027   1.051   3.706
 8070TIP3   OH224152   0.463   6.223   3.225
 8070TIP3    H124153   0.420   6.163   3.165
 8070TIP3    H224154   0.478   6.172   3.304
 8071TIP3   OH224155   7.869   3.077   5.855
 8071TIP3    H124156   7.805   3.147   5.870
 8071TIP3    H224157   7.854   3.051   5.764
 8072TIP3   OH224158   6.822   3.230   6.247
 8072TIP3    H124159   6.906   3.226   6.293
 8072TIP3    H224160   6.761   3.185   6.305
 8073TIP3   OH224161   0.146   3.060   2.136
 8073TIP3    H124162   0.122   3.042   2.226
 8073TIP3    H224163   0.161   2.973   2.097
 8074TIP3   OH224164   7.313   4.949   6.075
 8074TIP3    H124165   7.325   4.967   5.982
 8074TIP3    H224166   7.360   5.020   6.119
 8075TIP3   OH224167   6.726   6.081   1.894
 8075TIP3    H124168   6.670   6.115   1.824
 8075TIP3    H224169   6.799   6.144   1.899
 8076TIP3   OH224170   3.179   3.586   0.034
 8076TIP3    H124171   3.193   3.497   0.066
 8076TIP3    H224172   3.114   3.577  -0.035
 8077TIP3   OH224173   0.121   7.325   5.427
 8077TIP3    H124174   0.148   7.266   5.357
 8077TIP3    H224175   0.169   7.406   5.410
 8078TIP3   OH224176   2.153   4.290   2.691
 8078TIP3    H124177   2.237   4.311   2.651
 8078TIP3    H224178   2.097   4.265   2.618
 8079TIP3   OH224179   7.722   2.348   1.396
 8079TIP3    H124180   7.653   2.346   1.330
 8079TIP3    H224181   7.794   2.298   1.358
 8080TIP3   OH224182   4.335   4.453   0.335
 8080TIP3    H124183   4.358   4.364   0.309
 8080TIP3    H224184   4.407   4.507   0.302
 8081TIP3   OH224185   6.364   1.050   1.983
 8081TIP3    H124186   6.320   1.127   1.947
 8081TIP3    H224187   6.457   1.072   1.981
 8082TIP3   OH224188   3.532   7.212   1.455
 8082TIP3    H124189   3.524   7.273   1.529
 8082TIP3    H224190   3.468   7.143   1.475
 8083TIP3   OH224191   4.836   5.640   5.115
 8083TIP3    H124192   4.904   5.665   5.178
 8083TIP3    H224193   4.761   5.615   5.169
 8084TIP3   OH224194   0.174   1.450   2.725
 8084TIP3    H124195   0.087   1.473   2.693
 8084TIP3    H224196   0.201   1.527   2.775
 8085TIP3   OH224197   5.357   4.522   0.480
 8085TIP3    H124198   5.291   4.543   0.414
 8085TIP3    H224199   5.370   4.604   0.528
 8086TIP3   OH224200   7.636   4.804   4.594
 8086TIP3    H124201   7.633   4.867   4.523
 8086TIP3    H224202   7.599   4.724   4.557
 8087TIP3   OH224203   6.867   5.440   5.449
 8087TIP3    H124204   6.903   5.529   5.451
 8087TIP3    H224205   6.882   5.410   5.359
 8088TIP3   OH224206   6.224   0.451   0.900
 8088TIP3    H124207   6.167   0.527   0.910
 8088TIP3    H224208   6.313   0.486   0.908
 8089TIP3   OH224209   6.820   7.061   5.846
 8089TIP3    H124210   6.784   6.980   5.883
 8089TIP3    H224211   6.847   7.035   5.758
 8090TIP3   OH224212   2.588   2.507   5.694
 8090TIP3    H124213   2.604   2.511   5.788
 8090TIP3    H224214   2.493   2.517   5.685
 8091TIP3   OH224215   0.061   5.457   2.328
 8091TIP3    H124216   0.095   5.367   2.328
 8091TIP3    H224217   0.066   5.484   2.236
 8092TIP3   OH224218   0.884   5.890   1.853
 8092TIP3    H124219   0.869   5.972   1.901
 8092TIP3    H224220   0.948   5.843   1.906
 8093TIP3   OH224221   1.427   4.696   4.003
 8093TIP3    H124222   1.498   4.706   4.067
 8093TIP3    H224223   1.407   4.603   4.003
 8094TIP3   OH224224   5.183   2.198   0.312
 8094TIP3    H124225   5.189   2.265   0.380
 8094TIP3    H224226   5.274   2.178   0.290
 8095TIP3   OH224227   4.106   6.033   3.922
 8095TIP3    H124228   4.066   5.994   3.845
 8095TIP3    H224229   4.190   5.990   3.931
 8096TIP3   OH224230   5.611   5.617   4.654
 8096TIP3    H124231   5.650   5.691   4.607
 8096TIP3    H224232   5.680   5.551   4.657
 8097TIP3   OH224233   2.087   3.623   5.704
 8097TIP3    H124234   2.133   3.541   5.725
 8097TIP3    H224235   2.150   3.673   5.652
 8098TIP3   OH224236   0.746   1.070   1.852
 8098TIP3    H124237   0.812   1.088   1.785
 8098TIP3    H224238   0.698   1.152   1.861
 8099TIP3   OH224239   2.002   3.360   2.221
 8099TIP3    H124240   1.926   3.359   2.162
 8099TIP3    H224241   2.053   3.284   2.195
 8100TIP3   OH224242   5.775   1.788   2.205
 8100TIP3    H124243   5.761   1.702   2.244
 8100TIP3    H224244   5.760   1.850   2.277
 8101TIP3   OH224245   3.711   6.084   6.010
 8101TIP3    H124246   3.678   6.002   6.046
 8101TIP3    H224247   3.710   6.071   5.915
 8102TIP3   OH224248   1.047   3.202   4.872
 8102TIP3    H124249   0.952   3.190   4.867
 8102TIP3    H224250   1.071   3.237   4.786
 8103TIP3   OH224251   8.104   4.588   5.976
 8103TIP3    H124252   8.079   4.667   5.928
 8103TIP3    H224253   8.048   4.519   5.940
 8104TIP3   OH224254   6.616   4.013   3.181
 8104TIP3    H124255   6.639   3.928   3.143
 8104TIP3    H224256   6.613   4.072   3.106
 8105TIP3   OH224257   2.716   6.092   5.539
 8105TIP3    H124258   2.655   6.110   5.610
 8105TIP3    H224259   2.666   6.039   5.477
 8106TIP3   OH224260   1.992   5.242   5.740
 8106TIP3    H124261   2.040   5.239   5.823
 8106TIP3    H224262   2.052   5.201   5.676
 8107TIP3   OH224263   6.807   2.066   3.765
 8107TIP3    H124264   6.898   2.044   3.785
 8107TIP3    H224265   6.802   2.161   3.778
 8108TIP3   OH224266   7.167   0.059   3.722
 8108TIP3    H124267   7.096   0.075   3.784
 8108TIP3    H224268   7.159  -0.033   3.700
 8109TIP3   OH224269   5.945   7.118   5.508
 8109TIP3    H124270   5.945   7.157   5.421
 8109TIP3    H224271   5.947   7.024   5.492
 8110TIP3   OH224272   3.997   3.129   6.173
 8110TIP3    H124273   4.055   3.198   6.140
 8110TIP3    H224274   3.929   3.121   6.106
 8111TIP3   OH224275   5.423   4.475   3.828
 8111TIP3    H124276   5.413   4.380   3.831
 8111TIP3    H224277   5.345   4.509   3.873
 8112TIP3   OH224278   6.804   5.034   4.136
 8112TIP3    H124279   6.863   5.110   4.140
 8112TIP3    H224280   6.769   5.036   4.047
 8113TIP3   OH224281   5.832   0.991   5.768
 8113TIP3    H124282   5.894   0.949   5.828
 8113TIP3    H224283   5.760   1.019   5.823
 8114TIP3   OH224284   5.703   1.215   1.730
 8114TIP3    H124285   5.676   1.281   1.667
 8114TIP3    H224286   5.667   1.132   1.696
 8115TIP3   OH224287   1.049   2.799   4.164
 8115TIP3    H124288   1.007   2.885   4.155
 8115TIP3    H224289   1.114   2.798   4.093
 8116TIP3   OH224290   1.418   0.701   2.503
 8116TIP3    H124291   1.407   0.646   2.581
 8116TIP3    H224292   1.485   0.656   2.451
 8117TIP3   OH224293   0.588   7.360   0.663
 8117TIP3    H124294   0.659   7.409   0.705
 8117TIP3    H224295   0.570   7.287   0.723
 8118TIP3   OH224296   1.519   2.194   0.743
 8118TIP3    H124297   1.545   2.103   0.757
 8118TIP3    H224298   1.427   2.188   0.715
 8119TIP3   OH224299   6.134   1.358   1.072
 8119TIP3    H124300   6.040   1.357   1.058
 8119TIP3    H224301   6.158   1.451   1.071
 8120TIP3   OH224302   2.162   2.839   3.663
 8120TIP3    H124303   2.123   2.773   3.606
 8120TIP3    H224304   2.234   2.876   3.611
 8121TIP3   OH224305   3.257   3.315   4.449
 8121TIP3    H124306   3.192   3.365   4.498
 8121TIP3    H224307   3.338   3.327   4.498
 8122TIP3   OH224308   5.652   2.567   5.793
 8122TIP3    H124309   5.660   2.485   5.744
 8122TIP3    H224310   5.618   2.630   5.729
 8123TIP3   OH224311   6.014   4.446   3.372
 8123TIP3    H124312   5.951   4.516   3.386
 8123TIP3    H224313   6.066   4.444   3.452
 8124TIP3   OH224314   4.150   5.827   6.545
 8124TIP3    H124315   4.125   5.735   6.544
 8124TIP3    H224316   4.082   5.870   6.596
 8125TIP3   OH224317   7.598   0.858   1.651
 8125TIP3    H124318   7.680   0.882   1.609
 8125TIP3    H224319   7.551   0.942   1.660
 8126TIP3   OH224320   2.497   2.139   1.886
 8126TIP3    H124321   2.432   2.076   1.856
 8126TIP3    H224322   2.487   2.140   1.981
 8127TIP3   OH224323   2.366   6.197   0.117
 8127TIP3    H124324   2.457   6.213   0.143
 8127TIP3    H224325   2.322   6.281   0.131
 8128TIP3   OH224326   1.104   0.881   2.804
 8128TIP3    H124327   1.041   0.929   2.750
 8128TIP3    H224328   1.185   0.932   2.795
 8129TIP3   OH224329   6.691   4.569   6.528
 8129TIP3    H124330   6.752   4.640   6.509
 8129TIP3    H224331   6.746   4.494   6.551
 8130TIP3   OH224332   8.194   7.129   2.552
 8130TIP3    H124333   8.156   7.184   2.620
 8130TIP3    H224334   8.194   7.041   2.590
 8131TIP3   OH224335   3.902   1.792   2.427
 8131TIP3    H124336   3.808   1.786   2.443
 8131TIP3    H224337   3.932   1.862   2.486
 8132TIP3   OH224338   3.320   2.657   1.078
 8132TIP3    H124339   3.348   2.591   1.141
 8132TIP3    H224340   3.229   2.676   1.102
 8133TIP3   OH224341   4.720   4.365   4.935
 8133TIP3    H124342   4.630   4.335   4.933
 8133TIP3    H224343   4.757   4.324   5.014
 8134TIP3   OH224344   0.071   6.936   0.986
 8134TIP3    H124345  -0.022   6.925   0.966
 8134TIP3    H224346   0.116   6.880   0.922
 8135TIP3   OH224347   2.747   4.193   2.686
 8135TIP3    H124348   2.719   4.269   2.634
 8135TIP3    H224349   2.739   4.221   2.777
 8136TIP3   OH224350   7.254   4.849   6.608
 8136TIP3    H124351   7.291   4.833   6.695
 8136TIP3    H224352   7.160   4.857   6.623
 8137TIP3   OH224353   0.257   2.415   4.163
 8137TIP3    H124354   0.347   2.427   4.134
 8137TIP3    H224355   0.205   2.417   4.083
 8138TIP3   OH224356   5.307   2.136   1.371
 8138TIP3    H124357   5.391   2.181   1.359
 8138TIP3    H224358   5.254   2.166   1.297
 8139TIP3   OH224359   0.923   6.907   4.705
 8139TIP3    H124360   0.959   6.820   4.725
 8139TIP3    H224361   0.831   6.901   4.731
 8140TIP3   OH224362   5.157   0.813   0.149
 8140TIP3    H124363   5.151   0.797   0.055
 8140TIP3    H224364   5.248   0.793   0.171
 8141TIP3   OH224365   5.617   0.275   0.820
 8141TIP3    H124366   5.549   0.209   0.835
 8141TIP3    H224367   5.618   0.285   0.724
 8142TIP3   OH224368   2.791   7.623   0.236
 8142TIP3    H124369   2.838   7.670   0.305
 8142TIP3    H224370   2.702   7.659   0.239
 8143TIP3   OH224371   7.804   6.236   4.026
 8143TIP3    H124372   7.848   6.287   3.958
 8143TIP3    H224373   7.780   6.301   4.092
 8144TIP3   OH224374   1.170   2.470   1.901
 8144TIP3    H124375   1.130   2.493   1.818
 8144TIP3    H224376   1.106   2.497   1.967
 8145TIP3   OH224377   0.093   6.699   5.828
 8145TIP3    H124378   0.159   6.763   5.801
 8145TIP3    H224379   0.106   6.625   5.770
 8146TIP3   OH224380   4.875   0.623   5.802
 8146TIP3    H124381   4.791   0.579   5.811
 8146TIP3    H224382   4.904   0.601   5.713
 8147TIP3   OH224383   7.083   4.619   1.719
 8147TIP3    H124384   7.093   4.536   1.672
 8147TIP3    H224385   7.033   4.674   1.659
 8148TIP3   OH224386   3.694   4.813   0.656
 8148TIP3    H124387   3.705   4.870   0.732
 8148TIP3    H224388   3.710   4.725   0.688
 8149TIP3   OH224389   7.600   4.598   0.733
 8149TIP3    H124390   7.641   4.608   0.648
 8149TIP3    H224391   7.642   4.521   0.772
 8150TIP3   OH224392   2.870   2.644   0.666
 8150TIP3    H124393   2.940   2.644   0.731
 8150TIP3    H224394   2.798   2.597   0.709
 8151TIP3   OH224395   2.318   7.367   4.807
 8151TIP3    H124396   2.358   7.280   4.802
 8151TIP3    H224397   2.244   7.356   4.868
 8152TIP3   OH224398   6.627   5.461   3.439
 8152TIP3    H124399   6.582   5.487   3.519
 8152TIP3    H224400   6.702   5.409   3.468
 8153TIP3   OH224401   5.651   3.238   0.978
 8153TIP3    H124402   5.599   3.313   1.008
 8153TIP3    H224403   5.651   3.245   0.883
 8154TIP3   OH224404   0.473   7.584   6.156
 8154TIP3    H124405   0.433   7.640   6.090
 8154TIP3    H224406   0.518   7.645   6.216
 8155TIP3   OH224407   2.933   3.250   5.767
 8155TIP3    H124408   2.988   3.316   5.725
 8155TIP3    H224409   2.950   3.260   5.860
 8156TIP3   OH224410   4.080   0.577   0.100
 8156TIP3    H124411   4.014   0.609   0.162
 8156TIP3    H224412   4.076   0.482   0.108
 8157TIP3   OH224413   0.193   7.388   4.484
 8157TIP3    H124414   0.148   7.472   4.493
 8157TIP3    H224415   0.279   7.403   4.523
 8158TIP3   OH224416   5.891   5.388   1.046
 8158TIP3    H124417   5.885   5.366   1.139
 8158TIP3    H224418   5.985   5.395   1.030
 8159TIP3   OH224419   7.725   2.760   5.994
 8159TIP3    H124420   7.695   2.815   6.067
 8159TIP3    H224421   7.821   2.766   5.998
 8160TIP3   OH224422   1.189   7.689   5.407
 8160TIP3    H124423   1.135   7.633   5.352
 8160TIP3    H224424   1.207   7.766   5.352
 8161TIP3   OH224425   2.233   0.794   5.876
 8161TIP3    H124426   2.265   0.716   5.830
 8161TIP3    H224427   2.258   0.781   5.967
 8162TIP3   OH224428   0.918   1.945   6.690
 8162TIP3    H124429   0.843   1.888   6.702
 8162TIP3    H224430   0.915   2.004   6.766
 8163TIP3   OH224431   1.206   1.328   5.251
 8163TIP3    H124432   1.248   1.242   5.244
 8163TIP3    H224433   1.225   1.370   5.167
 8164TIP3   OH224434   4.922   0.027   1.530
 8164TIP3    H124435   4.975  -0.051   1.547
 8164TIP3    H224436   4.957   0.094   1.590
 8165TIP3   OH224437   2.786   0.449   1.736
 8165TIP3    H124438   2.775   0.357   1.761
 8165TIP3    H224439   2.825   0.490   1.813
 8166TIP3   OH224440   1.973   3.361   5.346
 8166TIP3    H124441   1.912   3.361   5.420
 8166TIP3    H224442   2.060   3.362   5.387
 8167TIP3   OH224443   2.000   2.396   6.654
 8167TIP3    H124444   2.093   2.407   6.674
 8167TIP3    H224445   1.970   2.485   6.633
 8168TIP3   OH224446   5.111   3.820   6.200
 8168TIP3    H124447   5.152   3.888   6.253
 8168TIP3    H224448   5.167   3.812   6.123
 8169TIP3   OH224449   1.413   2.827   2.591
 8169TIP3    H124450   1.469   2.779   2.651
 8169TIP3    H224451   1.392   2.908   2.637
 8170TIP3   OH224452   0.742   2.128   5.621
 8170TIP3    H124453   0.695   2.198   5.575
 8170TIP3    H224454   0.685   2.052   5.613
 8171TIP3   OH224455   3.472   2.904   3.842
 8171TIP3    H124456   3.523   2.983   3.827
 8171TIP3    H224457   3.483   2.853   3.762
 8172TIP3   OH224458   2.140   7.061   5.993
 8172TIP3    H124459   2.100   7.093   5.912
 8172TIP3    H224460   2.228   7.101   5.994
 8173TIP3   OH224461   0.501   6.354   6.188
 8173TIP3    H124462   0.438   6.302   6.139
 8173TIP3    H224463   0.452   6.385   6.265
 8174TIP3   OH224464   1.708   6.687   0.776
 8174TIP3    H124465   1.637   6.624   0.763
 8174TIP3    H224466   1.787   6.639   0.753
 8175TIP3   OH224467   6.079   2.190   5.365
 8175TIP3    H124468   6.048   2.271   5.325
 8175TIP3    H224469   6.002   2.132   5.364
 8176TIP3   OH224470   4.496   6.907   1.650
 8176TIP3    H124471   4.590   6.928   1.649
 8176TIP3    H224472   4.456   6.973   1.705
 8177TIP3   OH224473   4.016   3.985   6.218
 8177TIP3    H124474   3.999   4.006   6.310
 8177TIP3    H224475   3.942   3.930   6.193
 8178TIP3   OH224476   0.074   1.839   5.994
 8178TIP3    H124477   0.050   1.887   6.073
 8178TIP3    H224478   0.164   1.867   5.976
 8179TIP3   OH224479   0.753   7.493   5.785
 8179TIP3    H124480   0.818   7.452   5.728
 8179TIP3    H224481   0.797   7.504   5.869
 8180TIP3   OH224482   1.148   3.811   4.649
 8180TIP3    H124483   1.115   3.737   4.701
 8180TIP3    H224484   1.084   3.880   4.662
 8181TIP3   OH224485   2.967   7.216   2.909
 8181TIP3    H124486   2.903   7.249   2.846
 8181TIP3    H224487   2.960   7.121   2.904
 8182TIP3   OH224488   1.131   4.149   2.672
 8182TIP3    H124489   1.155   4.067   2.629
 8182TIP3    H224490   1.186   4.215   2.630
 8183TIP3   OH224491   7.712   3.571   3.825
 8183TIP3    H124492   7.692   3.519   3.902
 8183TIP3    H224493   7.781   3.631   3.855
 8184TIP3   OH224494   5.494   7.291   2.637
 8184TIP3    H124495   5.409   7.272   2.597
 8184TIP3    H224496   5.533   7.357   2.581
 8185TIP3   OH224497   6.846   4.023   5.194
 8185TIP3    H124498   6.774   4.086   5.188
 8185TIP3    H224499   6.886   4.023   5.107
 8186TIP3   OH224500   0.008   5.483   3.166
 8186TIP3    H124501   0.067   5.558   3.175
 8186TIP3    H224502   0.050   5.427   3.101
 8187TIP3   OH224503   6.255   1.601   2.768
 8187TIP3    H124504   6.218   1.672   2.820
 8187TIP3    H224505   6.337   1.579   2.812
 8188TIP3   OH224506   1.434   2.226   1.199
 8188TIP3    H124507   1.379   2.186   1.132
 8188TIP3    H224508   1.520   2.237   1.157
 8189TIP3   OH224509   5.703   4.348   2.310
 8189TIP3    H124510   5.712   4.427   2.365
 8189TIP3    H224511   5.648   4.376   2.237
 8190TIP3   OH224512   5.887   6.019   3.756
 8190TIP3    H124513   5.908   5.956   3.824
 8190TIP3    H224514   5.972   6.059   3.734
 8191TIP3   OH224515   1.665   3.391   4.929
 8191TIP3    H124516   1.727   3.321   4.911
 8191TIP3    H224517   1.650   3.386   5.024
 8192TIP3   OH224518   4.562   2.061   0.559
 8192TIP3    H124519   4.488   2.064   0.497
 8192TIP3    H224520   4.602   2.147   0.551
 8193TIP3   OH224521   5.674   1.402   0.096
 8193TIP3    H124522   5.601   1.449   0.137
 8193TIP3    H224523   5.725   1.368   0.170
 8194TIP3   OH224524   2.690   1.723   0.599
 8194TIP3    H124525   2.767   1.727   0.657
 8194TIP3    H224526   2.685   1.631   0.573
 8195TIP3   OH224527   5.645   4.253   3.537
 8195TIP3    H124528   5.681   4.168   3.513
 8195TIP3    H224529   5.657   4.258   3.632
 8196TIP3   OH224530   1.228   0.158   1.534
 8196TIP3    H124531   1.259   0.094   1.598
 8196TIP3    H224532   1.272   0.239   1.558
 8197TIP3   OH224533   3.889   5.629   2.079
 8197TIP3    H124534   3.937   5.624   1.997
 8197TIP3    H224535   3.931   5.565   2.136
 8198TIP3   OH224536   2.243   6.012   3.661
 8198TIP3    H124537   2.200   5.945   3.714
 8198TIP3    H224538   2.302   6.057   3.721
 8199TIP3   OH224539   6.142   1.529   0.465
 8199TIP3    H124540   6.087   1.477   0.408
 8199TIP3    H224541   6.211   1.470   0.494
 8200TIP3   OH224542   3.677   5.891   3.556
 8200TIP3    H124543   3.688   5.922   3.646
 8200TIP3    H224544   3.643   5.967   3.509
 8201TIP3   OH224545   1.324   6.941   2.320
 8201TIP3    H124546   1.353   6.982   2.401
 8201TIP3    H224547   1.392   6.876   2.300
 8202TIP3   OH224548   7.453   3.353   5.692
 8202TIP3    H124549   7.478   3.268   5.727
 8202TIP3    H224550   7.364   3.340   5.659
 8203TIP3   OH224551   2.111   5.773   2.452
 8203TIP3    H124552   2.111   5.797   2.359
 8203TIP3    H224553   2.080   5.851   2.497
 8204TIP3   OH224554   6.459   2.074   5.586
 8204TIP3    H124555   6.378   2.035   5.553
 8204TIP3    H224556   6.461   2.050   5.679
 8205TIP3   OH224557   1.213   0.880   2.264
 8205TIP3    H124558   1.176   0.961   2.299
 8205TIP3    H224559   1.238   0.902   2.174
 8206TIP3   OH224560   6.398   5.833   2.417
 8206TIP3    H124561   6.331   5.785   2.369
 8206TIP3    H224562   6.374   5.925   2.407
 8207TIP3   OH224563   5.630   4.377   2.018
 8207TIP3    H124564   5.597   4.446   1.961
 8207TIP3    H224565   5.619   4.296   1.967
 8208TIP3   OH224566   4.129   4.088   4.542
 8208TIP3    H124567   4.107   4.016   4.482
 8208TIP3    H224568   4.057   4.089   4.606
 8209TIP3   OH224569   5.166   5.238   0.106
 8209TIP3    H124570   5.179   5.175   0.035
 8209TIP3    H224571   5.245   5.229   0.160
 8210TIP3   OH224572   5.333   3.074   4.425
 8210TIP3    H124573   5.301   3.065   4.335
 8210TIP3    H224574   5.254   3.068   4.479
 8211TIP3   OH224575   3.814   2.956   2.686
 8211TIP3    H124576   3.741   3.017   2.695
 8211TIP3    H224577   3.876   2.982   2.755
 8212TIP3   OH224578   2.847   5.787   2.926
 8212TIP3    H124579   2.786   5.755   2.993
 8212TIP3    H224580   2.884   5.866   2.964
 8213TIP3   OH224581   2.552   7.364   2.120
 8213TIP3    H124582   2.465   7.376   2.082
 8213TIP3    H224583   2.605   7.332   2.047
 8214TIP3   OH224584   3.081   4.038   3.619
 8214TIP3    H124585   3.039   4.002   3.697
 8214TIP3    H224586   3.110   3.961   3.570
 8215TIP3   OH224587   7.792   0.996   2.479
 8215TIP3    H124588   7.748   1.081   2.484
 8215TIP3    H224589   7.885   1.017   2.472
 8216TIP3   OH224590   1.093   2.069   2.932
 8216TIP3    H124591   1.001   2.090   2.915
 8216TIP3    H224592   1.090   2.015   3.012
 8217TIP3   OH224593   7.239   4.500   2.330
 8217TIP3    H124594   7.247   4.585   2.287
 8217TIP3    H224595   7.155   4.465   2.299
 8218TIP3   OH224596   2.159   1.042   3.696
 8218TIP3    H124597   2.135   0.955   3.731
 8218TIP3    H224598   2.164   1.098   3.773
 8219TIP3   OH224599   4.074   1.701   6.433
 8219TIP3    H124600   4.074   1.606   6.423
 8219TIP3    H224601   4.041   1.717   6.521
 8220TIP3   OH224602   3.465   5.597   5.700
 8220TIP3    H124603   3.496   5.674   5.748
 8220TIP3    H224604   3.543   5.543   5.688
 8221TIP3   OH224605   6.997   1.934   1.753
 8221TIP3    H124606   7.007   2.022   1.789
 8221TIP3    H224607   6.930   1.893   1.808
 8222TIP3   OH224608   0.530   2.471   3.232
 8222TIP3    H124609   0.620   2.497   3.253
 8222TIP3    H224610   0.483   2.477   3.315
 8223TIP3   OH224611   0.675   6.970   5.754
 8223TIP3    H124612   0.666   7.052   5.705
 8223TIP3    H224613   0.726   6.994   5.832
 8224TIP3   OH224614   7.503   2.220   2.872
 8224TIP3    H124615   7.505   2.300   2.924
 8224TIP3    H224616   7.565   2.161   2.915
 8225TIP3   OH224617   3.752   6.674   2.157
 8225TIP3    H124618   3.784   6.585   2.139
 8225TIP3    H224619   3.801   6.702   2.234
 8226TIP3   OH224620   2.211   5.462   6.565
 8226TIP3    H124621   2.264   5.438   6.641
 8226TIP3    H224622   2.273   5.463   6.492
 8227TIP3   OH224623   2.718   3.134   1.995
 8227TIP3    H124624   2.801   3.088   1.983
 8227TIP3    H224625   2.733   3.220   1.955
 8228TIP3   OH224626   5.064   5.257   5.079
 8228TIP3    H124627   4.970   5.261   5.099
 8228TIP3    H224628   5.072   5.184   5.018
 8229TIP3   OH224629   2.571   0.746   0.328
 8229TIP3    H124630   2.665   0.752   0.342
 8229TIP3    H224631   2.543   0.837   0.316
 8230TIP3   OH224632   3.888   4.111   2.131
 8230TIP3    H124633   3.933   4.089   2.212
 8230TIP3    H224634   3.798   4.080   2.145
 8231TIP3   OH224635   5.855   3.693   1.315
 8231TIP3    H124636   5.950   3.683   1.305
 8231TIP3    H224637   5.832   3.636   1.388
 8232TIP3   OH224638   3.208   3.831   5.721
 8232TIP3    H124639   3.122   3.863   5.696
 8232TIP3    H224640   3.267   3.865   5.653
 8233TIP3   OH224641   7.649   1.112   1.829
 8233TIP3    H124642   7.687   1.161   1.756
 8233TIP3    H224643   7.588   1.172   1.870
 8234TIP3   OH224644   2.092   3.922   4.300
 8234TIP3    H124645   2.131   3.981   4.364
 8234TIP3    H224646   2.162   3.904   4.238
 8235TIP3   OH224647   5.281   4.213   1.831
 8235TIP3    H124648   5.305   4.137   1.883
 8235TIP3    H224649   5.344   4.213   1.759
 8236TIP3   OH224650   4.156   2.973   4.684
 8236TIP3    H124651   4.162   2.949   4.591
 8236TIP3    H224652   4.124   2.893   4.727
 8237TIP3   OH224653   6.981   5.274   4.201
 8237TIP3    H124654   6.940   5.342   4.148
 8237TIP3    H224655   6.981   5.309   4.290
 8238TIP3   OH224656   6.787   5.393   5.713
 8238TIP3    H124657   6.826   5.450   5.779
 8238TIP3    H224658   6.839   5.407   5.634
 8239TIP3   OH224659   4.094   1.724   4.927
 8239TIP3    H124660   4.093   1.675   4.845
 8239TIP3    H224661   4.141   1.668   4.988
 8240TIP3   OH224662   2.365   6.069   2.080
 8240TIP3    H124663   2.394   6.104   2.164
 8240TIP3    H224664   2.420   6.114   2.016
 8241TIP3   OH224665   1.172   3.043   0.049
 8241TIP3    H124666   1.262   3.055   0.080
 8241TIP3    H224667   1.118   3.055   0.127
 8242TIP3   OH224668   3.025   7.236   1.203
 8242TIP3    H124669   3.034   7.145   1.233
 8242TIP3    H224670   3.102   7.281   1.238
 8243TIP3   OH224671   6.363   6.476   5.038
 8243TIP3    H124672   6.276   6.446   5.064
 8243TIP3    H224673   6.423   6.429   5.097
 8244TIP3   OH224674   6.187   3.488   4.531
 8244TIP3    H124675   6.118   3.530   4.583
 8244TIP3    H224676   6.257   3.471   4.593
 8245TIP3   OH224677   4.091   1.404   4.841
 8245TIP3    H124678   4.074   1.459   4.764
 8245TIP3    H224679   4.070   1.315   4.813
 8246TIP3   OH224680   4.589   2.136   1.220
 8246TIP3    H124681   4.609   2.164   1.309
 8246TIP3    H224682   4.642   2.193   1.164
 8247TIP3   OH224683   2.137   2.482   0.830
 8247TIP3    H124684   2.225   2.512   0.811
 8247TIP3    H224685   2.093   2.560   0.866
 8248TIP3   OH224686   1.035   5.135   5.089
 8248TIP3    H124687   1.082   5.093   5.161
 8248TIP3    H224688   1.061   5.084   5.012
 8249TIP3   OH224689   3.424   6.454   4.525
 8249TIP3    H124690   3.346   6.473   4.576
 8249TIP3    H224691   3.493   6.441   4.590
 8250TIP3   OH224692   0.197   6.954   1.227
 8250TIP3    H124693   0.223   6.865   1.251
 8250TIP3    H224694   0.151   6.943   1.144
 8251TIP3   OH224695   5.282   2.150   2.523
 8251TIP3    H124696   5.245   2.064   2.503
 8251TIP3    H224697   5.372   2.131   2.551
 8252TIP3   OH224698   4.235   6.470   4.297
 8252TIP3    H124699   4.156   6.420   4.279
 8252TIP3    H224700   4.276   6.425   4.371
 8253TIP3   OH224701   0.682   2.867   5.251
 8253TIP3    H124702   0.648   2.777   5.248
 8253TIP3    H224703   0.715   2.876   5.341
 8254TIP3   OH224704   6.989   4.846   5.637
 8254TIP3    H124705   6.895   4.858   5.648
 8254TIP3    H224706   7.002   4.845   5.542
 8255TIP3   OH224707   5.035   5.770   6.550
 8255TIP3    H124708   5.107   5.794   6.607
 8255TIP3    H224709   5.075   5.714   6.483
 8256TIP3   OH224710   1.229   5.636   5.816
 8256TIP3    H124711   1.269   5.554   5.847
 8256TIP3    H224712   1.177   5.610   5.740
 8257TIP3   OH224713   0.298   4.072   3.602
 8257TIP3    H124714   0.266   4.069   3.692
 8257TIP3    H224715   0.393   4.083   3.611
 8258TIP3   OH224716   7.403   7.504   4.646
 8258TIP3    H124717   7.400   7.474   4.555
 8258TIP3    H224718   7.372   7.594   4.643
 8259TIP3   OH224719   3.501   1.360   6.650
 8259TIP3    H124720   3.449   1.326   6.724
 8259TIP3    H224721   3.570   1.295   6.637
 8260TIP3   OH224722   0.385   7.748   5.198
 8260TIP3    H124723   0.323   7.797   5.252
 8260TIP3    H224724   0.460   7.732   5.255
 8261TIP3   OH224725   7.034   5.833   3.540
 8261TIP3    H124726   6.984   5.863   3.616
 8261TIP3    H224727   6.976   5.770   3.497
 8262TIP3   OH224728   6.362   1.996   1.775
 8262TIP3    H124729   6.320   1.978   1.859
 8262TIP3    H224730   6.326   2.080   1.748
 8263TIP3   OH224731   2.183   6.414   0.141
 8263TIP3    H124732   2.104   6.428   0.192
 8263TIP3    H224733   2.191   6.492   0.086
 8264TIP3   OH224734   6.591   0.055   6.595
 8264TIP3    H124735   6.579   0.130   6.537
 8264TIP3    H224736   6.656   0.000   6.550
 8265TIP3   OH224737   0.812   5.419   2.532
 8265TIP3    H124738   0.755   5.346   2.510
 8265TIP3    H224739   0.767   5.496   2.495
 8266TIP3   OH224740   5.859   1.511   5.758
 8266TIP3    H124741   5.764   1.521   5.770
 8266TIP3    H224742   5.872   1.523   5.664
 8267TIP3   OH224743   1.394   7.372   1.476
 8267TIP3    H124744   1.371   7.457   1.514
 8267TIP3    H224745   1.444   7.328   1.544
 8268TIP3   OH224746   1.584   7.285   6.510
 8268TIP3    H124747   1.526   7.209   6.523
 8268TIP3    H224748   1.540   7.357   6.555
 8269TIP3   OH224749   5.821   7.733   6.484
 8269TIP3    H124750   5.750   7.764   6.427
 8269TIP3    H224751   5.900   7.739   6.430
 8270TIP3   OH224752   1.105   2.601   0.041
 8270TIP3    H124753   1.040   2.533   0.060
 8270TIP3    H224754   1.172   2.556  -0.010
 8271TIP3   OH224755   5.689   3.649   1.100
 8271TIP3    H124756   5.642   3.731   1.115
 8271TIP3    H224757   5.767   3.656   1.154
 8272TIP3   OH224758   4.096   1.366   6.200
 8272TIP3    H124759   4.148   1.356   6.280
 8272TIP3    H224760   4.091   1.278   6.163
 8273TIP3   OH224761   0.231   5.714   1.121
 8273TIP3    H124762   0.256   5.796   1.164
 8273TIP3    H224763   0.224   5.651   1.193
 8274TIP3   OH224764   6.720   1.400   2.834
 8274TIP3    H124765   6.764   1.339   2.774
 8274TIP3    H224766   6.763   1.484   2.819
 8275TIP3   OH224767   2.244   2.107   3.305
 8275TIP3    H124768   2.200   2.178   3.351
 8275TIP3    H224769   2.250   2.136   3.214
 8276TIP3   OH224770   3.980   6.206   5.555
 8276TIP3    H124771   3.895   6.219   5.513
 8276TIP3    H224772   3.980   6.113   5.578
 8277TIP3   OH224773   6.366   0.230   0.351
 8277TIP3    H124774   6.451   0.239   0.307
 8277TIP3    H224775   6.349   0.317   0.387
 8278TIP3   OH224776   3.544   6.383   4.080
 8278TIP3    H124777   3.576   6.388   3.990
 8278TIP3    H224778   3.491   6.303   4.082
 8279TIP3   OH224779   4.126   6.418   5.747
 8279TIP3    H124780   4.131   6.379   5.660
 8279TIP3    H224781   4.041   6.392   5.781
 8280TIP3   OH224782   7.637   2.207   3.139
 8280TIP3    H124783   7.571   2.174   3.200
 8280TIP3    H224784   7.700   2.252   3.194
 8281TIP3   OH224785   1.290   4.768   1.860
 8281TIP3    H124786   1.276   4.803   1.772
 8281TIP3    H224787   1.207   4.784   1.905
 8282TIP3   OH224788   6.837   7.068   0.232
 8282TIP3    H124789   6.903   7.039   0.295
 8282TIP3    H224790   6.858   7.019   0.152
 8283TIP3   OH224791   2.150   5.240   2.606
 8283TIP3    H124792   2.106   5.172   2.556
 8283TIP3    H224793   2.120   5.322   2.568
 8284TIP3   OH224794   7.025   6.861   2.029
 8284TIP3    H124795   7.037   6.771   2.000
 8284TIP3    H224796   7.111   6.887   2.062
 8285TIP3   OH224797   4.529   0.475   2.932
 8285TIP3    H124798   4.438   0.453   2.912
 8285TIP3    H224799   4.524   0.565   2.965
 8286TIP3   OH224800   3.056   4.308   2.436
 8286TIP3    H124801   3.020   4.371   2.373
 8286TIP3    H224802   3.107   4.248   2.383
 8287TIP3   OH224803   6.851   6.294   5.615
 8287TIP3    H124804   6.777   6.352   5.598
 8287TIP3    H224805   6.892   6.329   5.694
 8288TIP3   OH224806   0.498   1.864   1.933
 8288TIP3    H124807   0.417   1.838   1.979
 8288TIP3    H224808   0.470   1.879   1.843
 8289TIP3   OH224809   3.066   4.044   1.090
 8289TIP3    H124810   3.158   4.028   1.112
 8289TIP3    H224811   3.017   3.997   1.157
 8290TIP3   OH224812   7.708   2.889   3.918
 8290TIP3    H124813   7.663   2.971   3.899
 8290TIP3    H224814   7.742   2.860   3.833
 8291TIP3   OH224815   1.083   7.113   2.531
 8291TIP3    H124816   1.078   7.090   2.624
 8291TIP3    H224817   1.085   7.208   2.530
 8292TIP3   OH224818   1.961   0.025   3.399
 8292TIP3    H124819   2.024  -0.009   3.335
 8292TIP3    H224820   2.013   0.047   3.476
 8293TIP3   OH224821   2.463   5.073   4.841
 8293TIP3    H124822   2.479   5.163   4.871
 8293TIP3    H224823   2.399   5.038   4.903
 8294TIP3   OH224824   0.460   4.524   2.383
 8294TIP3    H124825   0.497   4.598   2.336
 8294TIP3    H224826   0.493   4.447   2.337
 8295TIP3   OH224827   0.276   5.908   1.823
 8295TIP3    H124828   0.341   5.923   1.754
 8295TIP3    H224829   0.214   5.981   1.814
 8296TIP3   OH224830   7.484   1.553   4.181
 8296TIP3    H124831   7.391   1.574   4.188
 8296TIP3    H224832   7.506   1.514   4.266
 8297TIP3   OH224833   0.680   7.250   4.833
 8297TIP3    H124834   0.664   7.324   4.892
 8297TIP3    H224835   0.746   7.282   4.772
 8298TIP3   OH224836   3.500   3.279   4.155
 8298TIP3    H124837   3.413   3.251   4.184
 8298TIP3    H224838   3.487   3.309   4.065
 8299TIP3   OH224839   7.088   7.205   4.293
 8299TIP3    H124840   7.041   7.288   4.306
 8299TIP3    H224841   7.113   7.206   4.201
 8300TIP3   OH224842   5.891   0.947   1.001
 8300TIP3    H124843   5.892   1.020   1.063
 8300TIP3    H224844   5.851   0.875   1.049
 8301TIP3   OH224845   2.614   4.160   6.198
 8301TIP3    H124846   2.677   4.147   6.128
 8301TIP3    H224847   2.609   4.255   6.209
 8302TIP3   OH224848   7.070   4.359   4.101
 8302TIP3    H124849   6.981   4.328   4.119
 8302TIP3    H224850   7.121   4.332   4.177
 8303TIP3   OH224851   3.000   0.256   1.264
 8303TIP3    H124852   3.042   0.342   1.260
 8303TIP3    H224853   2.977   0.244   1.357
 8304TIP3   OH224854   6.879   5.932   3.968
 8304TIP3    H124855   6.837   5.987   4.034
 8304TIP3    H224856   6.973   5.946   3.981
 8305TIP3   OH224857   3.854   7.252   5.672
 8305TIP3    H124858   3.862   7.205   5.589
 8305TIP3    H224859   3.773   7.218   5.711
 8306TIP3   OH224860   2.937   3.854   0.607
 8306TIP3    H124861   2.881   3.792   0.655
 8306TIP3    H224862   2.963   3.918   0.673
 8307TIP3   OH224863   1.182   5.254   1.298
 8307TIP3    H124864   1.152   5.345   1.299
 8307TIP3    H224865   1.224   5.241   1.383
 8308TIP3   OH224866   6.053   3.482   1.200
 8308TIP3    H124867   6.133   3.495   1.251
 8308TIP3    H224868   6.049   3.559   1.143
 8309TIP3   OH224869   8.198   7.379   6.647
 8309TIP3    H124870   8.287   7.350   6.627
 8309TIP3    H224871   8.141   7.313   6.606
 8310TIP3   OH224872   0.025   0.146   6.069
 8310TIP3    H124873  -0.022   0.226   6.091
 8310TIP3    H224874  -0.022   0.111   5.993
 8311TIP3   OH224875   1.815   3.803   2.360
 8311TIP3    H124876   1.760   3.749   2.417
 8311TIP3    H224877   1.892   3.822   2.413
 8312TIP3   OH224878   2.430   5.955   1.659
 8312TIP3    H124879   2.514   5.914   1.679
 8312TIP3    H224880   2.371   5.922   1.726
 8313TIP3   OH224881   7.618   6.819   5.458
 8313TIP3    H124882   7.709   6.799   5.482
 8313TIP3    H224883   7.622   6.839   5.365
 8314TIP3   OH224884   2.201   6.443   2.816
 8314TIP3    H124885   2.292   6.422   2.792
 8314TIP3    H224886   2.169   6.364   2.858
 8315TIP3   OH224887   4.676   6.405   2.122
 8315TIP3    H124888   4.753   6.371   2.077
 8315TIP3    H224889   4.693   6.498   2.132
 8316TIP3   OH224890   4.654   2.369   4.278
 8316TIP3    H124891   4.659   2.450   4.329
 8316TIP3    H224892   4.692   2.303   4.335
 8317TIP3   OH224893   3.542   7.112   6.229
 8317TIP3    H124894   3.567   7.105   6.321
 8317TIP3    H224895   3.625   7.129   6.183
 8318TIP3   OH224896   4.300   2.918   3.384
 8318TIP3    H124897   4.311   2.836   3.337
 8318TIP3    H224898   4.308   2.986   3.317
 8319TIP3   OH224899   7.026   5.947   1.241
 8319TIP3    H124900   6.936   5.916   1.249
 8319TIP3    H224901   7.018   6.042   1.228
 8320TIP3   OH224902   6.802   0.071   2.557
 8320TIP3    H124903   6.784  -0.019   2.585
 8320TIP3    H224904   6.876   0.099   2.612
 8321TIP3   OH224905   5.241   4.389   1.397
 8321TIP3    H124906   5.203   4.319   1.451
 8321TIP3    H224907   5.317   4.348   1.354
 8322TIP3   OH224908   0.651   4.283   0.767
 8322TIP3    H124909   0.680   4.374   0.766
 8322TIP3    H224910   0.731   4.233   0.782
 8323TIP3   OH224911   1.722   4.230   3.087
 8323TIP3    H124912   1.758   4.319   3.087
 8323TIP3    H224913   1.659   4.230   3.016
 8324TIP3   OH224914   1.461   6.974   0.140
 8324TIP3    H124915   1.432   6.968   0.049
 8324TIP3    H224916   1.470   7.068   0.156
 8325TIP3   OH224917   1.873   6.965   5.990
 8325TIP3    H124918   1.909   6.957   5.902
 8325TIP3    H224919   1.948   6.951   6.048
 8326TIP3   OH224920   6.575   5.617   4.462
 8326TIP3    H124921   6.616   5.702   4.445
 8326TIP3    H224922   6.642   5.553   4.440
 8327TIP3   OH224923   5.439   5.344   4.604
 8327TIP3    H124924   5.498   5.350   4.529
 8327TIP3    H224925   5.473   5.270   4.655
 8328TIP3   OH224926   4.363   7.294   2.265
 8328TIP3    H124927   4.457   7.307   2.259
 8328TIP3    H224928   4.328   7.381   2.287
 8329TIP3   OH224929   8.224   4.224   3.331
 8329TIP3    H124930   8.132   4.203   3.313
 8329TIP3    H224931   8.258   4.145   3.374
 8330TIP3   OH224932   6.328   0.592   6.400
 8330TIP3    H124933   6.257   0.561   6.343
 8330TIP3    H224934   6.357   0.513   6.446
 8331TIP3   OH224935   1.806   0.060   1.567
 8331TIP3    H124936   1.765   0.084   1.483
 8331TIP3    H224937   1.733   0.029   1.621
 8332TIP3   OH224938   8.247   4.050   1.894
 8332TIP3    H124939   8.206   4.012   1.972
 8332TIP3    H224940   8.323   4.096   1.929
 8333TIP3   OH224941   7.780   4.824   6.587
 8333TIP3    H124942   7.795   4.887   6.657
 8333TIP3    H224943   7.692   4.790   6.604
 8334TIP3   OH224944   4.313   3.574   3.816
 8334TIP3    H124945   4.342   3.583   3.726
 8334TIP3    H224946   4.389   3.601   3.868
 8335TIP3   OH224947   5.326   5.097   4.413
 8335TIP3    H124948   5.234   5.115   4.433
 8335TIP3    H224949   5.361   5.058   4.493
 8336TIP3   OH224950   7.650   4.071   4.941
 8336TIP3    H124951   7.672   4.050   5.031
 8336TIP3    H224952   7.555   4.080   4.941
 8337TIP3   OH224953   0.484   5.950   0.455
 8337TIP3    H124954   0.560   5.920   0.404
 8337TIP3    H224955   0.434   6.005   0.394
 8338TIP3   OH224956   6.247   5.536   0.961
 8338TIP3    H124957   6.336   5.503   0.947
 8338TIP3    H224958   6.207   5.536   0.874
 8339TIP3   OH224959   3.035   5.449   5.510
 8339TIP3    H124960   2.983   5.391   5.565
 8339TIP3    H224961   3.122   5.449   5.549
 8340TIP3   OH224962   4.840   7.191   1.130
 8340TIP3    H124963   4.770   7.256   1.132
 8340TIP3    H224964   4.810   7.125   1.068
 8341TIP3   OH224965   0.584   0.256   1.885
 8341TIP3    H124966   0.576   0.189   1.818
 8341TIP3    H224967   0.571   0.338   1.839
 8342TIP3   OH224968   2.891   6.718   5.347
 8342TIP3    H124969   2.957   6.648   5.340
 8342TIP3    H224970   2.911   6.762   5.429
 8343TIP3   OH224971   3.319   3.354   6.074
 8343TIP3    H124972   3.245   3.347   6.135
 8343TIP3    H224973   3.279   3.362   5.988
 8344TIP3   OH224974   6.143   1.561   5.337
 8344TIP3    H124975   6.230   1.525   5.320
 8344TIP3    H224976   6.154   1.616   5.414
 8345TIP3   OH224977   0.649   0.247   0.688
 8345TIP3    H124978   0.698   0.265   0.607
 8345TIP3    H224979   0.613   0.332   0.714
 8346TIP3   OH224980   7.534   2.494   1.786
 8346TIP3    H124981   7.568   2.406   1.803
 8346TIP3    H224982   7.585   2.551   1.842
 8347TIP3   OH224983   5.682   6.091   4.746
 8347TIP3    H124984   5.730   6.172   4.731
 8347TIP3    H224985   5.662   6.092   4.840
 8348TIP3   OH224986   7.396   4.962   5.810
 8348TIP3    H124987   7.425   4.909   5.736
 8348TIP3    H224988   7.464   5.029   5.819
 8349TIP3   OH224989   8.320   6.628   3.483
 8349TIP3    H124990   8.235   6.646   3.442
 8349TIP3    H224991   8.316   6.535   3.507
 8350TIP3   OH224992   3.994   6.436   0.698
 8350TIP3    H124993   3.985   6.517   0.647
 8350TIP3    H224994   3.904   6.417   0.727
 8351TIP3   OH224995   4.525   6.182   5.801
 8351TIP3    H124996   4.589   6.112   5.808
 8351TIP3    H224997   4.558   6.251   5.859
 8352TIP3   OH224998   5.614   5.876   0.923
 8352TIP3    H124999   5.560   5.880   1.002
 8352TIP3    H225000   5.553   5.898   0.852
 8353TIP3   OH225001   8.177   4.775   6.500
 8353TIP3    H125002   8.238   4.750   6.569
 8353TIP3    H225003   8.150   4.864   6.522
 8354TIP3   OH225004   4.343   2.013   1.200
 8354TIP3    H125005   4.423   2.064   1.189
 8354TIP3    H225006   4.324   2.018   1.294
 8355TIP3   OH225007   7.187   4.575   3.985
 8355TIP3    H125008   7.148   4.498   4.025
 8355TIP3    H225009   7.260   4.598   4.042
 8356TIP3   OH225010   1.332   6.709   3.898
 8356TIP3    H125011   1.377   6.755   3.970
 8356TIP3    H225012   1.311   6.623   3.934
 8357TIP3   OH225013   2.806   3.453   6.562
 8357TIP3    H125014   2.804   3.412   6.475
 8357TIP3    H225015   2.808   3.380   6.623
 8358TIP3   OH225016   5.156   4.451   5.069
 8358TIP3    H125017   5.178   4.392   4.997
 8358TIP3    H225018   5.113   4.395   5.133
 8359TIP3   OH225019   7.838   1.391   1.223
 8359TIP3    H125020   7.922   1.393   1.178
 8359TIP3    H225021   7.857   1.354   1.309
 8360TIP3   OH225022   6.955   3.718   6.771
 8360TIP3    H125023   7.015   3.669   6.714
 8360TIP3    H225024   6.900   3.651   6.811
 8361TIP3   OH225025   2.459   4.507   5.022
 8361TIP3    H125026   2.511   4.574   5.067
 8361TIP3    H225027   2.439   4.545   4.937
 8362TIP3   OH225028   8.168   6.057   4.363
 8362TIP3    H125029   8.100   6.123   4.345
 8362TIP3    H225030   8.121   5.974   4.362
 8363TIP3   OH225031   0.910   5.426   3.061
 8363TIP3    H125032   0.960   5.353   3.097
 8363TIP3    H225033   0.943   5.437   2.972
 8364TIP3   OH225034   1.353   1.015   0.822
 8364TIP3    H125035   1.288   1.076   0.788
 8364TIP3    H225036   1.336   1.013   0.917
 8365TIP3   OH225037   7.045   3.117   4.044
 8365TIP3    H125038   7.075   3.177   4.113
 8365TIP3    H225039   7.094   3.144   3.966
 8366TIP3   OH225040   6.147   2.906   5.094
 8366TIP3    H125041   6.197   2.972   5.046
 8366TIP3    H225042   6.211   2.862   5.149
 8367TIP3   OH225043   3.592   5.389   3.816
 8367TIP3    H125044   3.619   5.444   3.742
 8367TIP3    H225045   3.511   5.429   3.847
 8368TIP3   OH225046   7.570   2.603   1.158
 8368TIP3    H125047   7.540   2.694   1.155
 8368TIP3    H225048   7.657   2.605   1.117
 8369TIP3   OH225049   2.662   1.805   0.131
 8369TIP3    H125050   2.609   1.815   0.211
 8369TIP3    H225051   2.733   1.869   0.142
 8370TIP3   OH225052   1.463   4.089   4.090
 8370TIP3    H125053   1.496   4.177   4.072
 8370TIP3    H225054   1.368   4.098   4.085
 8371TIP3   OH225055   6.665   2.779   4.952
 8371TIP3    H125056   6.605   2.846   4.920
 8371TIP3    H225057   6.623   2.742   5.029
 8372TIP3   OH225058   6.487   6.377   4.689
 8372TIP3    H125059   6.497   6.470   4.709
 8372TIP3    H225060   6.516   6.331   4.768
 8373TIP3   OH225061   3.634   2.886   5.592
 8373TIP3    H125062   3.593   2.863   5.509
 8373TIP3    H225063   3.682   2.967   5.574
 8374TIP3   OH225064   7.435   0.768   4.102
 8374TIP3    H125065   7.451   0.861   4.120
 8374TIP3    H225066   7.357   0.747   4.154
 8375TIP3   OH225067   4.558   2.426   3.045
 8375TIP3    H125068   4.497   2.491   3.008
 8375TIP3    H225069   4.502   2.368   3.097
 8376TIP3   OH225070   5.504   3.440   1.059
 8376TIP3    H125071   5.576   3.502   1.072
 8376TIP3    H225072   5.428   3.496   1.043
 8377TIP3   OH225073   7.020   0.489   5.526
 8377TIP3    H125074   6.994   0.578   5.545
 8377TIP3    H225075   6.962   0.461   5.455
 8378TIP3   OH225076   0.879   0.641   2.285
 8378TIP3    H125077   0.967   0.643   2.322
 8378TIP3    H225078   0.823   0.675   2.355
 8379TIP3   OH225079   4.898   0.003   1.242
 8379TIP3    H125080   4.811   0.042   1.243
 8379TIP3    H225081   4.933   0.021   1.329
 8380TIP3   OH225082   4.145   7.594   5.563
 8380TIP3    H125083   4.161   7.688   5.566
 8380TIP3    H225084   4.218   7.556   5.611
 8381TIP3   OH225085   2.111   4.066   5.567
 8381TIP3    H125086   2.044   4.008   5.530
 8381TIP3    H225087   2.158   4.100   5.491
 8382TIP3   OH225088   7.847   1.805   4.260
 8382TIP3    H125089   7.899   1.839   4.332
 8382TIP3    H225090   7.843   1.710   4.276
 8383TIP3   OH225091   4.477   7.475   0.646
 8383TIP3    H125092   4.536   7.401   0.657
 8383TIP3    H225093   4.473   7.489   0.551
 8384TIP3   OH225094   6.611   1.711   4.652
 8384TIP3    H125095   6.685   1.691   4.595
 8384TIP3    H225096   6.599   1.806   4.644
 8385TIP3   OH225097   5.773   3.990   1.679
 8385TIP3    H125098   5.850   4.043   1.661
 8385TIP3    H225099   5.753   3.947   1.595
 8386TIP3   OH225100   4.289   2.351   4.569
 8386TIP3    H125101   4.347   2.304   4.630
 8386TIP3    H225102   4.316   2.320   4.482
 8387TIP3   OH225103   2.864   7.154   2.624
 8387TIP3    H125104   2.847   7.060   2.617
 8387TIP3    H225105   2.799   7.186   2.687
 8388TIP3   OH225106   1.852   1.706   4.608
 8388TIP3    H125107   1.791   1.738   4.675
 8388TIP3    H225108   1.939   1.722   4.644
 8389TIP3   OH225109   3.256   2.054   4.953
 8389TIP3    H125110   3.315   1.979   4.957
 8389TIP3    H225111   3.309   2.128   4.983
 8390TIP3   OH225112   6.012   4.727   1.081
 8390TIP3    H125113   5.920   4.706   1.102
 8390TIP3    H225114   6.060   4.646   1.100
 8391TIP3   OH225115   4.379   5.805   2.356
 8391TIP3    H125116   4.432   5.884   2.372
 8391TIP3    H225117   4.433   5.751   2.299
 8392TIP3   OH225118   3.795   3.061   2.205
 8392TIP3    H125119   3.813   3.155   2.211
 8392TIP3    H225120   3.761   3.048   2.116
 8393TIP3   OH225121   4.965   4.384   4.011
 8393TIP3    H125122   4.879   4.347   4.031
 8393TIP3    H225123   4.996   4.335   3.935
 8394TIP3   OH225124   5.304   3.740   2.170
 8394TIP3    H125125   5.215   3.719   2.199
 8394TIP3    H225126   5.349   3.772   2.248
 8395TIP3   OH225127   2.759   7.244   2.243
 8395TIP3    H125128   2.688   7.308   2.230
 8395TIP3    H225129   2.751   7.217   2.334
 8396TIP3   OH225130   5.718   7.191   0.005
 8396TIP3    H125131   5.752   7.243   0.079
 8396TIP3    H225132   5.760   7.106   0.015
 8397TIP3   OH225133   7.635   5.059   6.664
 8397TIP3    H125134   7.545   5.037   6.690
 8397TIP3    H225135   7.634   5.052   6.568
 8398TIP3   OH225136   2.134   0.192   4.168
 8398TIP3    H125137   2.070   0.208   4.098
 8398TIP3    H225138   2.217   0.179   4.121
 8399TIP3   OH225139   2.147   5.060   2.926
 8399TIP3    H125140   2.078   5.076   2.991
 8399TIP3    H225141   2.182   4.974   2.950
 8400TIP3   OH225142   1.046   5.680   2.024
 8400TIP3    H125143   1.040   5.585   2.022
 8400TIP3    H225144   1.101   5.702   1.949
 8401TIP3   OH225145   0.053   0.965   3.737
 8401TIP3    H125146   0.012   0.878   3.742
 8401TIP3    H225147  -0.010   1.023   3.778
 8402TIP3   OH225148   2.141   0.163   2.262
 8402TIP3    H125149   2.076   0.111   2.308
 8402TIP3    H225150   2.181   0.217   2.330
 8403TIP3   OH225151   5.834   0.962   0.515
 8403TIP3    H125152   5.898   0.949   0.584
 8403TIP3    H225153   5.796   1.048   0.532
 8404TIP3   OH225154   5.399   1.457   3.291
 8404TIP3    H125155   5.372   1.437   3.381
 8404TIP3    H225156   5.438   1.543   3.297
 8405TIP3   OH225157   6.990   5.107   5.530
 8405TIP3    H125158   6.896   5.126   5.537
 8405TIP3    H225159   7.021   5.110   5.621
 8406TIP3   OH225160   3.502   4.515   5.866
 8406TIP3    H125161   3.484   4.428   5.903
 8406TIP3    H225162   3.475   4.508   5.775
 8407TIP3   OH225163   3.235   5.819   0.702
 8407TIP3    H125164   3.198   5.838   0.616
 8407TIP3    H225165   3.191   5.880   0.762
 8408TIP3   OH225166   6.475   0.610   4.066
 8408TIP3    H125167   6.532   0.562   4.005
 8408TIP3    H225168   6.495   0.572   4.152
 8409TIP3   OH225169   4.522   0.633   3.704
 8409TIP3    H125170   4.589   0.645   3.772
 8409TIP3    H225171   4.439   0.644   3.751
 8410TIP3   OH225172   7.002   0.302   3.332
 8410TIP3    H125173   7.089   0.337   3.312
 8410TIP3    H225174   6.959   0.372   3.382
 8411TIP3   OH225175   3.258   6.870   5.692
 8411TIP3    H125176   3.189   6.933   5.710
 8411TIP3    H225177   3.312   6.912   5.626
 8412TIP3   OH225178   7.963   4.356   5.924
 8412TIP3    H125179   7.891   4.388   5.979
 8412TIP3    H225180   7.920   4.320   5.847
 8413TIP3   OH225181   0.477   2.541   4.539
 8413TIP3    H125182   0.534   2.614   4.517
 8413TIP3    H225183   0.423   2.574   4.611
 8414TIP3   OH225184   2.622   7.666   1.236
 8414TIP3    H125185   2.706   7.693   1.200
 8414TIP3    H225186   2.570   7.747   1.239
 8415TIP3   OH225187   2.268   0.802   5.112
 8415TIP3    H125188   2.192   0.810   5.055
 8415TIP3    H225189   2.301   0.892   5.121
 8416TIP3   OH225190   0.284   6.589   2.460
 8416TIP3    H125191   0.224   6.522   2.492
 8416TIP3    H225192   0.280   6.581   2.364
 8417TIP3   OH225193   7.263   6.338   5.308
 8417TIP3    H125194   7.333   6.288   5.350
 8417TIP3    H225195   7.309   6.402   5.253
 8418TIP3   OH225196   6.156   7.642   4.341
 8418TIP3    H125197   6.178   7.589   4.264
 8418TIP3    H225198   6.126   7.725   4.305
 8419TIP3   OH225199   8.135   4.673   2.621
 8419TIP3    H125200   8.070   4.744   2.630
 8419TIP3    H225201   8.182   4.673   2.704
 8420TIP3   OH225202   6.554   7.002   6.269
 8420TIP3    H125203   6.602   7.084   6.274
 8420TIP3    H225204   6.468   7.025   6.234
 8421TIP3   OH225205   5.816   2.761   1.216
 8421TIP3    H125206   5.888   2.801   1.264
 8421TIP3    H225207   5.760   2.835   1.192
 8422TIP3   OH225208   6.799   0.965   1.704
 8422TIP3    H125209   6.769   0.894   1.648
 8422TIP3    H225210   6.892   0.975   1.684
 8423TIP3   OH225211   6.315   5.094   0.950
 8423TIP3    H125212   6.370   5.155   0.901
 8423TIP3    H225213   6.370   5.064   1.023
 8424TIP3   OH225214   4.786   3.443   5.220
 8424TIP3    H125215   4.770   3.537   5.225
 8424TIP3    H225216   4.874   3.431   5.254
 8425TIP3   OH225217   7.243   2.766   0.079
 8425TIP3    H125218   7.293   2.774   0.159
 8425TIP3    H225219   7.224   2.673   0.071
 8426TIP3   OH225220   2.166   6.237   1.453
 8426TIP3    H125221   2.255   6.247   1.485
 8426TIP3    H225222   2.122   6.183   1.519
 8427TIP3   OH225223   0.799   1.516   6.502
 8427TIP3    H125224   0.722   1.473   6.539
 8427TIP3    H225225   0.771   1.545   6.416
 8428TIP3   OH225226   7.139   4.045   6.778
 8428TIP3    H125227   7.231   4.064   6.797
 8428TIP3    H225228   7.111   4.116   6.720
 8429TIP3   OH225229   0.572   3.098   4.678
 8429TIP3    H125230   0.624   3.179   4.680
 8429TIP3    H225231   0.513   3.110   4.603
 8430TIP3   OH225232   1.665   6.258   1.388
 8430TIP3    H125233   1.726   6.188   1.410
 8430TIP3    H225234   1.581   6.229   1.423
 8431TIP3   OH225235   8.179   2.828   3.832
 8431TIP3    H125236   8.240   2.776   3.884
 8431TIP3    H225237   8.169   2.910   3.880
 8432TIP3   OH225238   7.283   3.755   0.297
 8432TIP3    H125239   7.243   3.735   0.382
 8432TIP3    H225240   7.364   3.704   0.296
 8433TIP3   OH225241   1.735   5.080   6.232
 8433TIP3    H125242   1.669   5.043   6.172
 8433TIP3    H225243   1.793   5.130   6.175
 8434TIP3   OH225244   5.396   0.975   5.649
 8434TIP3    H125245   5.394   0.881   5.666
 8434TIP3    H225246   5.370   0.984   5.557
 8435TIP3   OH225247   4.974   5.893   2.866
 8435TIP3    H125248   4.913   5.885   2.939
 8435TIP3    H225249   5.057   5.859   2.900
 8436TIP3   OH225250   2.199   4.369   1.173
 8436TIP3    H125251   2.182   4.385   1.080
 8436TIP3    H225252   2.272   4.428   1.194
 8437TIP3   OH225253   2.882   6.954   0.030
 8437TIP3    H125254   2.955   7.014   0.048
 8437TIP3    H225255   2.912   6.869   0.061
 8438TIP3   OH225256   7.150   7.497   1.668
 8438TIP3    H125257   7.091   7.570   1.687
 8438TIP3    H225258   7.225   7.512   1.726
 8439TIP3   OH225259   2.051   2.045   1.875
 8439TIP3    H125260   2.089   2.071   1.791
 8439TIP3    H225261   2.070   2.118   1.934
 8440TIP3   OH225262   5.987   4.932   3.072
 8440TIP3    H125263   5.923   4.922   3.001
 8440TIP3    H225264   6.059   4.982   3.032
 8441TIP3   OH225265   1.328   4.309   5.770
 8441TIP3    H125266   1.322   4.397   5.732
 8441TIP3    H225267   1.421   4.287   5.763
 8442TIP3   OH225268   7.276   3.215   0.062
 8442TIP3    H125269   7.312   3.231  -0.025
 8442TIP3    H225270   7.192   3.261   0.061
 8443TIP3   OH225271   2.061   5.430   0.728
 8443TIP3    H125272   2.062   5.474   0.813
 8443TIP3    H225273   1.975   5.448   0.692
 8444TIP3   OH225274   4.482   2.968   1.042
 8444TIP3    H125275   4.541   3.033   1.079
 8444TIP3    H225276   4.456   3.003   0.957
 8445TIP3   OH225277   7.052   1.408   6.756
 8445TIP3    H125278   7.027   1.330   6.706
 8445TIP3    H225279   7.099   1.463   6.694
 8446TIP3   OH225280   5.690   6.318   6.282
 8446TIP3    H125281   5.698   6.300   6.376
 8446TIP3    H225282   5.597   6.311   6.264
 8447TIP3   OH225283   0.047   5.597   3.744
 8447TIP3    H125284  -0.019   5.664   3.725
 8447TIP3    H225285   0.131   5.644   3.739
 8448TIP3   OH225286   4.588   7.814   0.541
 8448TIP3    H125287   4.606   7.747   0.475
 8448TIP3    H225288   4.501   7.793   0.574
 8449TIP3   OH225289   3.212   6.008   0.909
 8449TIP3    H125290   3.273   6.079   0.889
 8449TIP3    H225291   3.208   6.006   1.005
 8450TIP3   OH225292   8.146   4.412   2.328
 8450TIP3    H125293   8.180   4.374   2.247
 8450TIP3    H225294   8.127   4.503   2.305
 8451TIP3   OH225295   4.006   7.235   2.613
 8451TIP3    H125296   3.965   7.170   2.670
 8451TIP3    H225297   4.087   7.259   2.658
 8452TIP3   OH225298   4.481   4.801   4.595
 8452TIP3    H125299   4.402   4.746   4.593
 8452TIP3    H225300   4.492   4.830   4.505
 8453TIP3   OH225301   3.311   6.796   0.998
 8453TIP3    H125302   3.295   6.766   1.088
 8453TIP3    H225303   3.403   6.773   0.981
 8454TIP3   OH225304   7.127   6.219   6.564
 8454TIP3    H125305   7.198   6.156   6.577
 8454TIP3    H225306   7.047   6.169   6.577
 8455TIP3   OH225307   4.477   4.795   0.589
 8455TIP3    H125308   4.537   4.764   0.657
 8455TIP3    H225309   4.414   4.724   0.579
 8456TIP3   OH225310   4.244   4.599   6.632
 8456TIP3    H125311   4.325   4.610   6.683
 8456TIP3    H225312   4.272   4.549   6.555
 8457TIP3   OH225313   1.701   0.850   1.997
 8457TIP3    H125314   1.789   0.886   2.012
 8457TIP3    H225315   1.660   0.851   2.084
 8458TIP3   OH225316   0.112   6.140   2.173
 8458TIP3    H125317   0.203   6.135   2.144
 8458TIP3    H225318   0.112   6.096   2.258
 8459TIP3   OH225319   1.409   6.380   0.270
 8459TIP3    H125320   1.378   6.415   0.353
 8459TIP3    H225321   1.491   6.335   0.292
 8460TIP3   OH225322   1.906   6.426   2.740
 8460TIP3    H125323   1.903   6.449   2.833
 8460TIP3    H225324   1.998   6.403   2.724
 8461TIP3   OH225325   5.667   2.869   2.614
 8461TIP3    H125326   5.696   2.778   2.615
 8461TIP3    H225327   5.731   2.915   2.669
 8462TIP3   OH225328   4.122   3.665   6.175
 8462TIP3    H125329   4.032   3.692   6.196
 8462TIP3    H225330   4.114   3.573   6.152
 8463TIP3   OH225331   2.003   2.064   3.595
 8463TIP3    H125332   1.937   2.133   3.583
 8463TIP3    H225333   1.970   1.990   3.544
 8464TIP3   OH225334   1.103   5.533   0.966
 8464TIP3    H125335   1.025   5.577   0.930
 8464TIP3    H225336   1.139   5.595   1.029
 8465TIP3   OH225337   7.873   1.342   5.392
 8465TIP3    H125338   7.916   1.334   5.477
 8465TIP3    H225339   7.780   1.352   5.413
 8466TIP3   OH225340   8.035   0.467   5.190
 8466TIP3    H125341   7.977   0.500   5.259
 8466TIP3    H225342   8.006   0.376   5.176
 8467TIP3   OH225343   0.980   6.323   3.876
 8467TIP3    H125344   0.915   6.300   3.810
 8467TIP3    H225345   0.943   6.398   3.922
 8468TIP3   OH225346   4.661   5.598   0.780
 8468TIP3    H125347   4.589   5.661   0.780
 8468TIP3    H225348   4.640   5.538   0.852
 8469TIP3   OH225349   6.513   2.596   1.503
 8469TIP3    H125350   6.485   2.528   1.565
 8469TIP3    H225351   6.498   2.556   1.417
 8470TIP3   OH225352   1.796   0.006   3.661
 8470TIP3    H125353   1.808   0.101   3.664
 8470TIP3    H225354   1.804  -0.016   3.568
 8471TIP3   OH225355   1.423   7.105   3.421
 8471TIP3    H125356   1.395   7.064   3.503
 8471TIP3    H225357   1.355   7.081   3.358
 8472TIP3   OH225358   7.140   5.037   5.779
 8472TIP3    H125359   7.112   4.955   5.738
 8472TIP3    H225360   7.234   5.024   5.796
 8473TIP3   OH225361   3.557   1.265   3.760
 8473TIP3    H125362   3.579   1.339   3.703
 8473TIP3    H225363   3.618   1.196   3.733
 8474TIP3   OH225364   1.205   4.936   0.011
 8474TIP3    H125365   1.271   4.889   0.063
 8474TIP3    H225366   1.225   5.028   0.025
 8475TIP3   OH225367   4.459   4.606   3.389
 8475TIP3    H125368   4.417   4.669   3.331
 8475TIP3    H225369   4.498   4.541   3.329
 8476TIP3   OH225370   8.071   7.320   6.037
 8476TIP3    H125371   8.134   7.249   6.026
 8476TIP3    H225372   8.031   7.304   6.123
 8477TIP3   OH225373   0.071   2.000   2.677
 8477TIP3    H125374   0.093   2.091   2.658
 8477TIP3    H225375   0.154   1.953   2.672
 8478TIP3   OH225376   8.043   6.648   3.415
 8478TIP3    H125377   7.959   6.688   3.435
 8478TIP3    H225378   8.065   6.597   3.492
 8479TIP3   OH225379   7.498   7.223   0.137
 8479TIP3    H125380   7.479   7.227   0.043
 8479TIP3    H225381   7.419   7.186   0.176
 8480TIP3   OH225382   3.504   7.600   4.263
 8480TIP3    H125383   3.587   7.585   4.216
 8480TIP3    H225384   3.449   7.525   4.239
 8481TIP3   OH225385   4.477   6.794   2.230
 8481TIP3    H125386   4.421   6.846   2.172
 8481TIP3    H225387   4.500   6.855   2.301
 8482TIP3   OH225388   3.260   7.485   4.169
 8482TIP3    H125389   3.235   7.496   4.078
 8482TIP3    H225390   3.290   7.394   4.174
 8483TIP3   OH225391   7.792   6.595   4.526
 8483TIP3    H125392   7.766   6.505   4.548
 8483TIP3    H225393   7.730   6.650   4.573
 8484TIP3   OH225394   5.595   5.790   3.454
 8484TIP3    H125395   5.572   5.857   3.390
 8484TIP3    H225396   5.550   5.711   3.424
 8485TIP3   OH225397   0.385   3.560   1.481
 8485TIP3    H125398   0.411   3.561   1.389
 8485TIP3    H225399   0.300   3.604   1.483
 8486TIP3   OH225400   2.117   1.203   5.569
 8486TIP3    H125401   2.155   1.116   5.582
 8486TIP3    H225402   2.046   1.188   5.506
 8487TIP3   OH225403   4.746   2.464   0.040
 8487TIP3    H125404   4.815   2.414   0.082
 8487TIP3    H225405   4.711   2.520   0.109
 8488TIP3   OH225406   7.721   6.100   1.638
 8488TIP3    H125407   7.808   6.123   1.606
 8488TIP3    H225408   7.690   6.033   1.577
 8489TIP3   OH225409   3.663   7.691   3.869
 8489TIP3    H125410   3.605   7.744   3.925
 8489TIP3    H225411   3.611   7.615   3.845
 8490TIP3   OH225412   3.198   0.177   1.678
 8490TIP3    H125413   3.287   0.153   1.652
 8490TIP3    H225414   3.178   0.256   1.628
 8491TIP3   OH225415   0.449   1.440   1.184
 8491TIP3    H125416   0.385   1.405   1.246
 8491TIP3    H225417   0.449   1.376   1.112
 8492TIP3   OH225418   4.005   5.950   5.502
 8492TIP3    H125419   4.076   5.992   5.454
 8492TIP3    H225420   4.044   5.869   5.536
 8493TIP3   OH225421   7.478   5.449   5.609
 8493TIP3    H125422   7.406   5.510   5.593
 8493TIP3    H225423   7.541   5.468   5.540
 8494TIP3   OH225424   6.592   1.520   1.723
 8494TIP3    H125425   6.557   1.455   1.661
 8494TIP3    H225426   6.676   1.546   1.685
 8495TIP3   OH225427   0.291   7.682   2.944
 8495TIP3    H125428   0.288   7.627   3.023
 8495TIP3    H225429   0.288   7.619   2.872
 8496TIP3   OH225430   4.472   1.430   1.836
 8496TIP3    H125431   4.389   1.391   1.863
 8496TIP3    H225432   4.462   1.446   1.742
 8497TIP3   OH225433   7.655   2.872   4.212
 8497TIP3    H125434   7.696   2.823   4.284
 8497TIP3    H225435   7.702   2.842   4.134
 8498TIP3   OH225436   2.906   3.112   3.801
 8498TIP3    H125437   2.882   3.062   3.723
 8498TIP3    H225438   2.922   3.045   3.868
 8499TIP3   OH225439   3.270   6.048   4.635
 8499TIP3    H125440   3.292   6.044   4.542
 8499TIP3    H225441   3.320   6.122   4.669
 8500TIP3   OH225442   0.401   3.084   3.525
 8500TIP3    H125443   0.384   3.000   3.482
 8500TIP3    H225444   0.444   3.060   3.608
 8501TIP3   OH225445   4.503   2.194   2.186
 8501TIP3    H125446   4.418   2.164   2.155
 8501TIP3    H225447   4.509   2.162   2.276
 8502TIP3   OH225448   1.733   0.771   4.181
 8502TIP3    H125449   1.682   0.852   4.178
 8502TIP3    H225450   1.735   0.741   4.091
 8503TIP3   OH225451   0.528   7.342   3.625
 8503TIP3    H125452   0.506   7.249   3.619
 8503TIP3    H225453   0.488   7.371   3.707
 8504TIP3   OH225454   1.516   0.851   1.232
 8504TIP3    H125455   1.598   0.837   1.184
 8504TIP3    H225456   1.464   0.772   1.215
 8505TIP3   OH225457   7.132   1.911   3.415
 8505TIP3    H125458   7.080   1.889   3.338
 8505TIP3    H225459   7.223   1.900   3.386
 8506TIP3   OH225460   6.585   7.247   4.210
 8506TIP3    H125461   6.611   7.231   4.300
 8506TIP3    H225462   6.500   7.205   4.202
 8507TIP3   OH225463   3.823   0.481   2.333
 8507TIP3    H125464   3.866   0.468   2.248
 8507TIP3    H225465   3.765   0.556   2.319
 8508TIP3   OH225466   4.810   5.379   6.118
 8508TIP3    H125467   4.808   5.468   6.084
 8508TIP3    H225468   4.900   5.368   6.149
 8509TIP3   OH225469   4.489   6.562   2.469
 8509TIP3    H125470   4.398   6.587   2.480
 8509TIP3    H225471   4.497   6.538   2.376
 8510TIP3   OH225472   2.412   7.176   6.015
 8510TIP3    H125473   2.433   7.190   6.107
 8510TIP3    H225474   2.458   7.095   5.992
 8511TIP3   OH225475   1.415   0.370   2.354
 8511TIP3    H125476   1.507   0.367   2.328
 8511TIP3    H225477   1.368   0.400   2.276
 8512TIP3   OH225478   4.834   6.641   0.873
 8512TIP3    H125479   4.857   6.663   0.783
 8512TIP3    H225480   4.740   6.625   0.870
 8513TIP3   OH225481   0.849   1.051   6.481
 8513TIP3    H125482   0.823   1.079   6.393
 8513TIP3    H225483   0.817   1.121   6.538
 8514TIP3   OH225484   2.007   0.654   2.992
 8514TIP3    H125485   2.031   0.678   2.902
 8514TIP3    H225486   2.063   0.710   3.047
 8515TIP3   OH225487   1.652   5.591   0.211
 8515TIP3    H125488   1.607   5.526   0.265
 8515TIP3    H225489   1.595   5.602   0.135
 8516TIP3   OH225490   7.776   5.045   0.626
 8516TIP3    H125491   7.782   4.981   0.698
 8516TIP3    H225492   7.692   5.025   0.584
 8517TIP3   OH225493   5.746   1.538   1.781
 8517TIP3    H125494   5.684   1.533   1.708
 8517TIP3    H225495   5.691   1.552   1.858
 8518TIP3   OH225496   0.028   2.975   4.585
 8518TIP3    H125497   0.039   2.946   4.494
 8518TIP3    H225498   0.035   3.071   4.580
 8519TIP3   OH225499   2.437   5.512   2.115
 8519TIP3    H125500   2.488   5.534   2.193
 8519TIP3    H225501   2.473   5.567   2.046
 8520TIP3   OH225502   0.316   5.411   4.575
 8520TIP3    H125503   0.306   5.441   4.666
 8520TIP3    H225504   0.384   5.344   4.580
 8521TIP3   OH225505   4.967   3.930   0.749
 8521TIP3    H125506   4.889   3.982   0.732
 8521TIP3    H225507   5.038   3.977   0.706
 8522TIP3   OH225508   5.494   1.509   3.876
 8522TIP3    H125509   5.482   1.604   3.880
 8522TIP3    H225510   5.533   1.493   3.790
 8523TIP3   OH225511   1.219   4.390   0.465
 8523TIP3    H125512   1.299   4.405   0.515
 8523TIP3    H225513   1.224   4.299   0.437
 8524TIP3   OH225514   3.714   0.682   1.229
 8524TIP3    H125515   3.724   0.689   1.324
 8524TIP3    H225516   3.698   0.588   1.214
 8525TIP3   OH225517   3.012   1.827   4.787
 8525TIP3    H125518   3.103   1.827   4.758
 8525TIP3    H225519   2.961   1.841   4.706
 8526TIP3   OH225520   1.931   6.605   5.635
 8526TIP3    H125521   1.982   6.528   5.660
 8526TIP3    H225522   1.849   6.596   5.684
 8527TIP3   OH225523   8.213   6.131   0.910
 8527TIP3    H125524   8.126   6.098   0.887
 8527TIP3    H225525   8.208   6.225   0.895
 8528TIP3   OH225526   4.045   5.694   1.813
 8528TIP3    H125527   4.110   5.761   1.834
 8528TIP3    H225528   4.091   5.611   1.826
 8529TIP3   OH225529   6.549   1.249   4.523
 8529TIP3    H125530   6.482   1.182   4.535
 8529TIP3    H225531   6.617   1.226   4.586
 8530TIP3   OH225532   1.307   4.347   2.604
 8530TIP3    H125533   1.402   4.359   2.596
 8530TIP3    H225534   1.269   4.414   2.548
 8531TIP3   OH225535   5.056   0.279   0.769
 8531TIP3    H125536   5.037   0.186   0.785
 8531TIP3    H225537   4.979   0.325   0.801
 8532TIP3   OH225538   2.356   5.651   6.222
 8532TIP3    H125539   2.357   5.558   6.245
 8532TIP3    H225540   2.333   5.696   6.304
 8533TIP3   OH225541   2.232   6.055   3.383
 8533TIP3    H125542   2.232   5.969   3.341
 8533TIP3    H225543   2.240   6.037   3.476
 8534TIP3   OH225544   0.588   7.592   1.673
 8534TIP3    H125545   0.559   7.621   1.759
 8534TIP3    H225546   0.647   7.661   1.643
 8535TIP3   OH225547   2.650   5.315   2.035
 8535TIP3    H125548   2.590   5.389   2.046
 8535TIP3    H225549   2.599   5.247   1.993
 8536TIP3   OH225550   0.969   6.196   4.866
 8536TIP3    H125551   0.988   6.276   4.817
 8536TIP3    H225552   1.037   6.134   4.839
 8537TIP3   OH225553   4.272   5.174   1.128
 8537TIP3    H125554   4.303   5.247   1.074
 8537TIP3    H225555   4.260   5.212   1.215
 8538TIP3   OH225556   2.388   0.056   1.697
 8538TIP3    H125557   2.299   0.056   1.733
 8538TIP3    H225558   2.444   0.038   1.773
 8539TIP3   OH225559   0.579   7.739   4.117
 8539TIP3    H125560   0.609   7.650   4.097
 8539TIP3    H225561   0.658   7.784   4.147
 8540TIP3   OH225562   2.619   3.849   4.749
 8540TIP3    H125563   2.706   3.810   4.743
 8540TIP3    H225564   2.571   3.793   4.810
 8541TIP3   OH225565   4.707   7.299   4.875
 8541TIP3    H125566   4.677   7.238   4.943
 8541TIP3    H225567   4.627   7.323   4.828
 8542TIP3   OH225568   6.888   2.896   3.946
 8542TIP3    H125569   6.951   2.965   3.969
 8542TIP3    H225570   6.803   2.937   3.961
 8543TIP3   OH225571   3.793   6.431   3.725
 8543TIP3    H125572   3.846   6.473   3.793
 8543TIP3    H225573   3.735   6.372   3.773
 8544TIP3   OH225574   6.799   1.647   3.837
 8544TIP3    H125575   6.869   1.698   3.878
 8544TIP3    H225576   6.843   1.597   3.768
 8545TIP3   OH225577   2.661   2.401   3.656
 8545TIP3    H125578   2.575   2.385   3.617
 8545TIP3    H225579   2.720   2.343   3.610
 8546TIP3   OH225580   1.476   0.535   2.730
 8546TIP3    H125581   1.566   0.504   2.731
 8546TIP3    H225582   1.460   0.569   2.818
 8547TIP3   OH225583   1.998   4.560   3.730
 8547TIP3    H125584   2.016   4.639   3.679
 8547TIP3    H225585   2.064   4.560   3.799
 8548TIP3   OH225586   4.629   6.889   4.310
 8548TIP3    H125587   4.592   6.958   4.255
 8548TIP3    H225588   4.570   6.814   4.298
 8549TIP3   OH225589   5.923   2.876   4.215
 8549TIP3    H125590   5.987   2.838   4.155
 8549TIP3    H225591   5.858   2.918   4.159
 8550TIP3   OH225592   6.534   5.503   0.327
 8550TIP3    H125593   6.563   5.546   0.407
 8550TIP3    H225594   6.609   5.451   0.298
 8551TIP3   OH225595   2.092   0.378   2.770
 8551TIP3    H125596   2.131   0.371   2.857
 8551TIP3    H225597   2.070   0.471   2.761
 8552TIP3   OH225598   8.161   3.043   2.183
 8552TIP3    H125599   8.182   3.026   2.091
 8552TIP3    H225600   8.089   2.982   2.202
 8553TIP3   OH225601   4.610   3.384   2.707
 8553TIP3    H125602   4.677   3.416   2.767
 8553TIP3    H225603   4.646   3.400   2.620
 8554TIP3   OH225604   1.233   2.960   5.946
 8554TIP3    H125605   1.237   2.865   5.944
 8554TIP3    H225606   1.237   2.987   5.854
 8555TIP3   OH225607   4.563   0.127   3.247
 8555TIP3    H125608   4.531   0.215   3.263
 8555TIP3    H225609   4.623   0.136   3.174
 8556TIP3   OH225610   6.323   6.476   1.927
 8556TIP3    H125611   6.254   6.419   1.893
 8556TIP3    H225612   6.402   6.450   1.879
 8557TIP3   OH225613   4.811   3.975   4.690
 8557TIP3    H125614   4.900   3.974   4.725
 8557TIP3    H225615   4.817   4.032   4.613
 8558TIP3   OH225616   0.408   2.703   3.956
 8558TIP3    H125617   0.355   2.653   3.894
 8558TIP3    H225618   0.360   2.785   3.967
 8559TIP3   OH225619   6.685   6.579   1.516
 8559TIP3    H125620   6.711   6.670   1.509
 8559TIP3    H225621   6.639   6.561   1.434
 8560TIP3   OH225622   0.106   4.114   2.361
 8560TIP3    H125623   0.051   4.190   2.380
 8560TIP3    H225624   0.178   4.119   2.424
 8561TIP3   OH225625   5.128   7.152   5.935
 8561TIP3    H125626   5.110   7.161   5.842
 8561TIP3    H225627   5.182   7.073   5.941
 8562TIP3   OH225628   0.830   7.263   2.240
 8562TIP3    H125629   0.925   7.260   2.230
 8562TIP3    H225630   0.801   7.328   2.176
 8563TIP3   OH225631   7.694   4.996   3.588
 8563TIP3    H125632   7.634   5.068   3.567
 8563TIP3    H225633   7.759   4.998   3.518
 8564TIP3   OH225634   8.199   6.465   4.362
 8564TIP3    H125635   8.153   6.541   4.399
 8564TIP3    H225636   8.135   6.394   4.365
 8565TIP3   OH225637   4.611   7.343   1.482
 8565TIP3    H125638   4.567   7.374   1.562
 8565TIP3    H225639   4.662   7.418   1.452
 8566TIP3   OH225640   3.756   5.291   0.092
 8566TIP3    H125641   3.713   5.349   0.155
 8566TIP3    H225642   3.849   5.305   0.106
 8567TIP3   OH225643   7.519   5.714   3.710
 8567TIP3    H125644   7.573   5.692   3.786
 8567TIP3    H225645   7.547   5.651   3.643
 8568TIP3   OH225646   1.248   1.271   4.234
 8568TIP3    H125647   1.337   1.257   4.201
 8568TIP3    H225648   1.201   1.309   4.160
 8569TIP3   OH225649   3.943   7.305   3.791
 8569TIP3    H125650   3.908   7.299   3.702
 8569TIP3    H225651   3.965   7.397   3.802
 8570TIP3   OH225652   2.953   0.630   4.259
 8570TIP3    H125653   3.042   0.609   4.288
 8570TIP3    H225654   2.896   0.583   4.320
 8571TIP3   OH225655   1.797   6.932   1.463
 8571TIP3    H125656   1.809   6.891   1.377
 8571TIP3    H225657   1.886   6.952   1.493
 8572TIP3   OH225658   1.907   1.039   0.312
 8572TIP3    H125659   1.843   1.009   0.377
 8572TIP3    H225660   1.928   1.128   0.339
 8573TIP3   OH225661   0.922   2.293   6.681
 8573TIP3    H125662   1.002   2.315   6.727
 8573TIP3    H225663   0.946   2.295   6.588
 8574TIP3   OH225664   2.449   2.838   3.837
 8574TIP3    H125665   2.372   2.785   3.855
 8574TIP3    H225666   2.503   2.784   3.779
 8575TIP3   OH225667   7.253   4.478   0.867
 8575TIP3    H125668   7.201   4.530   0.929
 8575TIP3    H225669   7.274   4.398   0.915
 8576TIP3   OH225670   4.120   5.869   3.192
 8576TIP3    H125671   4.111   5.861   3.097
 8576TIP3    H225672   4.191   5.933   3.204
 8577TIP3   OH225673   3.314   7.357   3.446
 8577TIP3    H125674   3.271   7.353   3.532
 8577TIP3    H225675   3.396   7.403   3.463
 8578TIP3   OH225676   6.473   6.795   3.705
 8578TIP3    H125677   6.474   6.828   3.795
 8578TIP3    H225678   6.516   6.864   3.655
 8579TIP3   OH225679   5.211   4.999   2.158
 8579TIP3    H125680   5.188   5.050   2.236
 8579TIP3    H225681   5.127   4.968   2.123
 8580TIP3   OH225682   6.349   3.438   0.584
 8580TIP3    H125683   6.436   3.409   0.609
 8580TIP3    H225684   6.329   3.390   0.503
 8581TIP3   OH225685   5.463   7.773   3.684
 8581TIP3    H125686   5.528   7.772   3.754
 8581TIP3    H225687   5.398   7.837   3.712
 8582TIP3   OH225688   7.640   4.344   4.126
 8582TIP3    H125689   7.647   4.389   4.210
 8582TIP3    H225690   7.555   4.301   4.128
 8583TIP3   OH225691   6.902   4.652   6.684
 8583TIP3    H125692   6.890   4.589   6.756
 8583TIP3    H225693   6.965   4.609   6.626
 8584TIP3   OH225694   2.763   3.586   2.213
 8584TIP3    H125695   2.762   3.637   2.132
 8584TIP3    H225696   2.854   3.588   2.242
 8585TIP3   OH225697   2.132   2.643   4.749
 8585TIP3    H125698   2.212   2.656   4.800
 8585TIP3    H225699   2.118   2.726   4.704
 8586TIP3   OH225700   7.736   6.313   4.575
 8586TIP3    H125701   7.703   6.240   4.523
 8586TIP3    H225702   7.785   6.272   4.646
 8587TIP3   OH225703   0.560   0.556   3.428
 8587TIP3    H125704   0.637   0.612   3.416
 8587TIP3    H225705   0.596   0.468   3.433
 8588TIP3   OH225706   0.979   6.857   3.694
 8588TIP3    H125707   0.883   6.849   3.694
 8588TIP3    H225708   1.001   6.886   3.782
 8589TIP3   OH225709   4.874   3.836   1.306
 8589TIP3    H125710   4.850   3.886   1.228
 8589TIP3    H225711   4.846   3.891   1.379
 8590TIP3   OH225712   0.700   6.007   1.467
 8590TIP3    H125713   0.652   5.999   1.550
 8590TIP3    H225714   0.729   6.099   1.465
 8591TIP3   OH225715   1.116   6.929   1.517
 8591TIP3    H125716   1.162   7.004   1.481
 8591TIP3    H225717   1.146   6.923   1.607
 8592TIP3   OH225718   0.202   4.759   1.461
 8592TIP3    H125719   0.125   4.801   1.498
 8592TIP3    H225720   0.233   4.700   1.529
 8593TIP3   OH225721   3.964   2.396   1.101
 8593TIP3    H125722   3.889   2.339   1.085
 8593TIP3    H225723   3.975   2.444   1.019
 8594TIP3   OH225724   0.824   3.085   2.941
 8594TIP3    H125725   0.789   2.998   2.921
 8594TIP3    H225726   0.893   3.069   3.004
 8595TIP3   OH225727   3.254   4.168   6.361
 8595TIP3    H125728   3.315   4.199   6.428
 8595TIP3    H225729   3.174   4.219   6.375
 8596TIP3   OH225730   5.943   5.633   6.286
 8596TIP3    H125731   5.905   5.667   6.366
 8596TIP3    H225732   5.952   5.710   6.229
 8597TIP3   OH225733   6.040   0.970   0.723
 8597TIP3    H125734   6.129   0.959   0.755
 8597TIP3    H225735   5.987   0.985   0.802
 8598TIP3   OH225736   1.260   3.727   1.065
 8598TIP3    H125737   1.259   3.822   1.059
 8598TIP3    H225738   1.187   3.698   1.011
 8599TIP3   OH225739   6.805   1.673   2.597
 8599TIP3    H125740   6.836   1.674   2.687
 8599TIP3    H225741   6.733   1.736   2.596
 8600TIP3   OH225742   1.799   7.470   3.887
 8600TIP3    H125743   1.814   7.466   3.793
 8600TIP3    H225744   1.715   7.516   3.896
 8601TIP3   OH225745   1.833   5.807   3.932
 8601TIP3    H125746   1.817   5.721   3.971
 8601TIP3    H225747   1.762   5.818   3.868
 8602TIP3   OH225748   4.171   0.869   2.363
 8602TIP3    H125749   4.160   0.827   2.448
 8602TIP3    H225750   4.121   0.814   2.303
 8603TIP3   OH225751   1.612   1.376   2.369
 8603TIP3    H125752   1.564   1.296   2.346
 8603TIP3    H225753   1.543   1.441   2.386
 8604TIP3   OH225754   1.894   2.622   4.903
 8604TIP3    H125755   1.858   2.708   4.881
 8604TIP3    H225756   1.976   2.618   4.855
 8605TIP3   OH225757   6.914   2.648   3.284
 8605TIP3    H125758   6.911   2.591   3.207
 8605TIP3    H225759   6.867   2.727   3.256
 8606TIP3   OH225760   1.070   1.315   5.711
 8606TIP3    H125761   1.090   1.392   5.765
 8606TIP3    H225762   1.063   1.350   5.622
 8607TIP3   OH225763   4.138   1.521   1.275
 8607TIP3    H125764   4.162   1.505   1.366
 8607TIP3    H225765   4.213   1.568   1.238
 8608TIP3   OH225766   4.638   1.169   5.728
 8608TIP3    H125767   4.640   1.260   5.698
 8608TIP3    H225768   4.670   1.118   5.654
 8609TIP3   OH225769   3.048   0.816   4.464
 8609TIP3    H125770   2.985   0.744   4.464
 8609TIP3    H225771   3.059   0.839   4.556
 8610TIP3   OH225772   4.528   0.698   6.082
 8610TIP3    H125773   4.569   0.782   6.059
 8610TIP3    H225774   4.435   0.712   6.066
 8611TIP3   OH225775   3.805   2.685   5.327
 8611TIP3    H125776   3.826   2.597   5.296
 8611TIP3    H225777   3.710   2.686   5.334
 8612TIP3   OH225778   0.779   5.253   2.800
 8612TIP3    H125779   0.794   5.300   2.718
 8612TIP3    H225780   0.867   5.244   2.838
 8613TIP3   OH225781   7.455   0.695   1.799
 8613TIP3    H125782   7.527   0.718   1.740
 8613TIP3    H225783   7.487   0.720   1.886
 8614TIP3   OH225784   1.248   4.073   2.077
 8614TIP3    H125785   1.214   3.996   2.032
 8614TIP3    H225786   1.229   4.058   2.169
 8615TIP3   OH225787   4.801   7.534   1.479
 8615TIP3    H125788   4.881   7.563   1.435
 8615TIP3    H225789   4.792   7.592   1.554
 8616TIP3   OH225790   7.562   6.835   4.567
 8616TIP3    H125791   7.640   6.889   4.549
 8616TIP3    H225792   7.530   6.866   4.651
 8617TIP3   OH225793   5.365   6.075   4.300
 8617TIP3    H125794   5.298   6.047   4.362
 8617TIP3    H225795   5.448   6.065   4.347
 8618TIP3   OH225796   5.952   6.069   1.925
 8618TIP3    H125797   5.931   6.131   1.856
 8618TIP3    H225798   5.867   6.043   1.961
 8619TIP3   OH225799   1.470   5.215   2.379
 8619TIP3    H125800   1.478   5.310   2.387
 8619TIP3    H225801   1.376   5.200   2.371
 8620TIP3   OH225802   4.126   6.913   1.515
 8620TIP3    H125803   4.057   6.851   1.537
 8620TIP3    H225804   4.157   6.885   1.429
 8621TIP3   OH225805   5.791   0.721   1.115
 8621TIP3    H125806   5.728   0.649   1.122
 8621TIP3    H225807   5.804   0.750   1.205
 8622TIP3   OH225808   1.844   1.126   4.288
 8622TIP3    H125809   1.849   1.043   4.336
 8622TIP3    H225810   1.910   1.182   4.328
 8623TIP3   OH225811   3.949   6.911   3.368
 8623TIP3    H125812   3.913   6.950   3.448
 8623TIP3    H225813   3.932   6.817   3.378
 8624TIP3   OH225814   1.672   3.354   4.224
 8624TIP3    H125815   1.649   3.447   4.236
 8624TIP3    H225816   1.621   3.308   4.291
 8625TIP3   OH225817   0.157   4.234   1.159
 8625TIP3    H125818   0.097   4.164   1.132
 8625TIP3    H225819   0.162   4.225   1.254
 8626TIP3   OH225820   3.240   1.524   1.151
 8626TIP3    H125821   3.145   1.535   1.153
 8626TIP3    H225822   3.273   1.595   1.206
 8627TIP3   OH225823   6.587   3.551   3.221
 8627TIP3    H125824   6.672   3.510   3.205
 8627TIP3    H225825   6.545   3.552   3.134
 8628TIP3   OH225826   7.134   3.192   1.387
 8628TIP3    H125827   7.222   3.155   1.386
 8628TIP3    H225828   7.141   3.271   1.441
 8629TIP3   OH225829   8.236   0.844   4.792
 8629TIP3    H125830   8.225   0.933   4.825
 8629TIP3    H225831   8.156   0.828   4.740
 8630TIP3   OH225832   0.319   3.496   5.423
 8630TIP3    H125833   0.260   3.422   5.440
 8630TIP3    H225834   0.279   3.541   5.348
 8631TIP3   OH225835   2.675   7.419   6.185
 8631TIP3    H125836   2.690   7.326   6.169
 8631TIP3    H225837   2.648   7.453   6.099
 8632TIP3   OH225838   2.711   6.638   5.080
 8632TIP3    H125839   2.630   6.646   5.028
 8632TIP3    H225840   2.754   6.722   5.069
 8633TIP3   OH225841   6.737   0.305   3.752
 8633TIP3    H125842   6.796   0.235   3.779
 8633TIP3    H225843   6.772   0.335   3.668
 8634TIP3   OH225844   3.392   0.102   2.606
 8634TIP3    H125845   3.404   0.035   2.539
 8634TIP3    H225846   3.468   0.159   2.597
 8635TIP3   OH225847   2.368   4.855   1.646
 8635TIP3    H125848   2.424   4.839   1.722
 8635TIP3    H225849   2.430   4.863   1.573
 8636TIP3   OH225850   1.676   1.117   5.597
 8636TIP3    H125851   1.586   1.116   5.564
 8636TIP3    H225852   1.684   1.202   5.641
 8637TIP3   OH225853   7.131   3.779   2.311
 8637TIP3    H125854   7.108   3.687   2.296
 8637TIP3    H225855   7.099   3.798   2.400
 8638TIP3   OH225856   2.362   2.052   3.561
 8638TIP3    H125857   2.384   2.136   3.600
 8638TIP3    H225858   2.319   2.074   3.478
 8639TIP3   OH225859   0.466   3.162   2.481
 8639TIP3    H125860   0.418   3.115   2.413
 8639TIP3    H225861   0.506   3.236   2.435
 8640TIP3   OH225862   3.751   5.198   6.089
 8640TIP3    H125863   3.679   5.135   6.076
 8640TIP3    H225864   3.827   5.144   6.107
 8641TIP3   OH225865   7.584   0.131   0.790
 8641TIP3    H125866   7.497   0.094   0.802
 8641TIP3    H225867   7.640   0.081   0.848
 8642TIP3   OH225868   3.096   5.291   5.185
 8642TIP3    H125869   3.136   5.243   5.257
 8642TIP3    H225870   3.160   5.283   5.113
 8643TIP3   OH225871   6.883   1.004   4.978
 8643TIP3    H125872   6.880   1.099   4.965
 8643TIP3    H225873   6.792   0.979   4.992
 8644TIP3   OH225874   6.437   3.030   5.698
 8644TIP3    H125875   6.411   3.025   5.606
 8644TIP3    H225876   6.444   2.939   5.726
 8645TIP3   OH225877  -0.005   0.005   6.393
 8645TIP3    H125878  -0.044   0.056   6.322
 8645TIP3    H225879   0.026   0.070   6.456
 8646TIP3   OH225880   7.777   4.993   1.352
 8646TIP3    H125881   7.801   5.035   1.270
 8646TIP3    H225882   7.707   5.048   1.388
 8647TIP3   OH225883   5.096   5.700   1.165
 8647TIP3    H125884   5.091   5.605   1.180
 8647TIP3    H225885   5.021   5.720   1.109
 8648TIP3   OH225886   5.367   3.465   6.050
 8648TIP3    H125887   5.371   3.550   6.094
 8648TIP3    H225888   5.309   3.412   6.104
 8649TIP3   OH225889   3.988   2.052   5.476
 8649TIP3    H125890   3.914   2.053   5.415
 8649TIP3    H225891   3.951   2.079   5.560
 8650TIP3   OH225892   2.820   3.226   1.135
 8650TIP3    H125893   2.785   3.146   1.095
 8650TIP3    H225894   2.743   3.281   1.150
 8651TIP3   OH225895   3.653   6.930   0.151
 8651TIP3    H125896   3.640   6.835   0.160
 8651TIP3    H225897   3.585   6.957   0.089
 8652TIP3   OH225898   7.668   6.601   4.784
 8652TIP3    H125899   7.646   6.535   4.851
 8652TIP3    H225900   7.590   6.608   4.730
 8653TIP3   OH225901   3.984   7.089   3.117
 8653TIP3    H125902   3.995   7.012   3.172
 8653TIP3    H225903   4.067   7.097   3.070
 8654TIP3   OH225904   6.785   0.142   4.824
 8654TIP3    H125905   6.871   0.181   4.816
 8654TIP3    H225906   6.792   0.083   4.899
 8655TIP3   OH225907   2.004   2.054   0.971
 8655TIP3    H125908   2.087   2.101   0.977
 8655TIP3    H225909   1.942   2.119   0.937
 8656TIP3   OH225910   5.369   0.085   1.921
 8656TIP3    H125911   5.316   0.162   1.940
 8656TIP3    H225912   5.350   0.025   1.993
 8657TIP3   OH225913   4.606   7.522   2.835
 8657TIP3    H125914   4.530   7.489   2.884
 8657TIP3    H225915   4.572   7.596   2.786
 8658TIP3   OH225916   1.457   3.298   0.327
 8658TIP3    H125917   1.379   3.348   0.350
 8658TIP3    H225918   1.497   3.275   0.411
 8659TIP3   OH225919   3.342   0.743   4.296
 8659TIP3    H125920   3.436   0.725   4.303
 8659TIP3    H225921   3.306   0.665   4.254
 8660TIP3   OH225922   4.829   6.727   5.944
 8660TIP3    H125923   4.814   6.664   6.015
 8660TIP3    H225924   4.849   6.809   5.990
 8661TIP3   OH225925   3.129   6.160   6.184
 8661TIP3    H125926   3.167   6.204   6.108
 8661TIP3    H225927   3.071   6.094   6.146
 8662TIP3   OH225928   5.780   5.818   4.364
 8662TIP3    H125929   5.860   5.858   4.328
 8662TIP3    H225930   5.807   5.729   4.388
 8663TIP3   OH225931   1.346   5.232   6.731
 8663TIP3    H125932   1.259   5.209   6.763
 8663TIP3    H225933   1.388   5.148   6.712
 8664TIP3   OH225934   6.970   5.891   0.902
 8664TIP3    H125935   6.908   5.925   0.966
 8664TIP3    H225936   7.052   5.937   0.921
 8665TIP3   OH225937   4.116   6.175   1.742
 8665TIP3    H125938   4.149   6.226   1.668
 8665TIP3    H225939   4.195   6.148   1.789
 8666TIP3   OH225940   0.678   7.747   6.263
 8666TIP3    H125941   0.696   7.814   6.197
 8666TIP3    H225942   0.676   7.796   6.346
 8667TIP3   OH225943   5.313   5.863   1.451
 8667TIP3    H125944   5.235   5.817   1.421
 8667TIP3    H225945   5.298   5.878   1.544
 8668TIP3   OH225946   0.507   2.023   4.836
 8668TIP3    H125947   0.505   2.115   4.861
 8668TIP3    H225948   0.422   2.008   4.793
 8669TIP3   OH225949   6.225   5.592   3.414
 8669TIP3    H125950   6.274   5.661   3.459
 8669TIP3    H225951   6.196   5.533   3.484
 8670TIP3   OH225952   3.443   4.018   1.281
 8670TIP3    H125953   3.465   3.925   1.287
 8670TIP3    H225954   3.350   4.023   1.305
 8671TIP3   OH225955   5.894   2.412   2.451
 8671TIP3    H125956   5.922   2.411   2.360
 8671TIP3    H225957   5.965   2.457   2.497
 8672TIP3   OH225958   1.826   3.016   3.924
 8672TIP3    H125959   1.830   3.102   3.966
 8672TIP3    H225960   1.828   3.034   3.830
 8673TIP3   OH225961   4.098   6.652   5.452
 8673TIP3    H125962   4.083   6.557   5.459
 8673TIP3    H225963   4.052   6.689   5.528
 8674TIP3   OH225964   4.654   5.560   3.456
 8674TIP3    H125965   4.658   5.561   3.360
 8674TIP3    H225966   4.653   5.468   3.479
 8675TIP3   OH225967   2.325   7.638   1.513
 8675TIP3    H125968   2.404   7.692   1.519
 8675TIP3    H225969   2.355   7.549   1.534
 8676TIP3   OH225970   5.334   4.775   4.652
 8676TIP3    H125971   5.376   4.726   4.723
 8676TIP3    H225972   5.391   4.760   4.576
 8677TIP3   OH225973   7.554   1.711   4.702
 8677TIP3    H125974   7.530   1.771   4.772
 8677TIP3    H225975   7.501   1.739   4.627
 8678TIP3   OH225976   3.944   0.106   4.515
 8678TIP3    H125977   4.012   0.161   4.553
 8678TIP3    H225978   3.980   0.076   4.432
 8679TIP3   OH225979   3.066   0.428   0.455
 8679TIP3    H125980   3.017   0.366   0.400
 8679TIP3    H225981   3.156   0.421   0.425
 8680TIP3   OH225982   6.752   7.565   6.312
 8680TIP3    H125983   6.767   7.654   6.345
 8680TIP3    H225984   6.689   7.577   6.241
 8681TIP3   OH225985   8.101   5.776   6.093
 8681TIP3    H125986   8.166   5.755   6.160
 8681TIP3    H225987   8.032   5.823   6.140
 8682TIP3   OH225988   4.554   4.450   3.167
 8682TIP3    H125989   4.589   4.474   3.081
 8682TIP3    H225990   4.620   4.392   3.205
 8683TIP3   OH225991   1.175   0.544   5.173
 8683TIP3    H125992   1.250   0.529   5.115
 8683TIP3    H225993   1.213   0.585   5.251
 8684TIP3   OH225994   1.423   5.324   4.198
 8684TIP3    H125995   1.492   5.353   4.257
 8684TIP3    H225996   1.433   5.229   4.194
 8685TIP3   OH225997   1.033   5.032   1.243
 8685TIP3    H125998   1.040   5.123   1.273
 8685TIP3    H225999   0.948   5.002   1.274
 8686TIP3   OH226000   0.767   3.112   4.914
 8686TIP3    H126001   0.694   3.053   4.933
 8686TIP3    H226002   0.739   3.159   4.835
 8687TIP3   OH226003   6.663   2.251   2.430
 8687TIP3    H126004   6.722   2.315   2.470
 8687TIP3    H226005   6.645   2.188   2.500
 8688TIP3   OH226006   3.550   7.219   0.457
 8688TIP3    H126007   3.567   7.295   0.511
 8688TIP3    H226008   3.600   7.235   0.376
 8689TIP3   OH226009   2.127   5.095   4.690
 8689TIP3    H126010   2.109   5.130   4.778
 8689TIP3    H226011   2.119   5.000   4.700
 8690TIP3   OH226012   2.308   0.601   3.152
 8690TIP3    H126013   2.280   0.691   3.136
 8690TIP3    H226014   2.376   0.585   3.087
 8691TIP3   OH226015   1.706   2.141   2.045
 8691TIP3    H126016   1.732   2.214   1.988
 8691TIP3    H226017   1.685   2.183   2.129
 8692TIP3   OH226018   8.207   1.245   1.491
 8692TIP3    H126019   8.271   1.288   1.548
 8692TIP3    H226020   8.186   1.311   1.425
 8693TIP3   OH226021   2.427   3.966   6.149
 8693TIP3    H126022   2.373   3.946   6.226
 8693TIP3    H226023   2.497   4.022   6.183
 8694TIP3   OH226024   6.904   0.426   1.142
 8694TIP3    H126025   6.883   0.418   1.235
 8694TIP3    H226026   6.948   0.510   1.135
 8695TIP3   OH226027   1.782   2.463   6.810
 8695TIP3    H126028   1.742   2.526   6.750
 8695TIP3    H226029   1.858   2.430   6.763
 8696TIP3   OH226030   1.475   5.703   0.019
 8696TIP3    H126031   1.490   5.796  -0.003
 8696TIP3    H226032   1.410   5.705   0.089
 8697TIP3   OH226033   1.991   4.266   3.766
 8697TIP3    H126034   1.981   4.361   3.760
 8697TIP3    H226035   1.950   4.233   3.685
 8698TIP3   OH226036   1.901   2.143   6.619
 8698TIP3    H126037   1.895   2.238   6.616
 8698TIP3    H226038   1.832   2.113   6.561
 8699TIP3   OH226039   5.085   6.239   6.419
 8699TIP3    H126040   5.143   6.313   6.402
 8699TIP3    H226041   5.040   6.262   6.501
 8700TIP3   OH226042   5.414   0.277   2.530
 8700TIP3    H126043   5.468   0.239   2.461
 8700TIP3    H226044   5.439   0.369   2.533
 8701TIP3   OH226045   4.081   7.592   1.166
 8701TIP3    H126046   4.165   7.624   1.132
 8701TIP3    H226047   4.016   7.626   1.104
 8702TIP3   OH226048   2.253   2.202   1.660
 8702TIP3    H126049   2.343   2.208   1.628
 8702TIP3    H226050   2.226   2.113   1.636
 8703TIP3   OH226051   6.983   2.741   1.510
 8703TIP3    H126052   6.929   2.684   1.454
 8703TIP3    H226053   6.919   2.797   1.555
 8704TIP3   OH226054   6.306   3.560   4.241
 8704TIP3    H126055   6.292   3.480   4.189
 8704TIP3    H226056   6.278   3.537   4.329
 8705TIP3   OH226057   4.545   0.410   1.807
 8705TIP3    H126058   4.627   0.359   1.812
 8705TIP3    H226059   4.552   0.459   1.725
 8706TIP3   OH226060   2.735   3.137   0.390
 8706TIP3    H126061   2.794   3.206   0.419
 8706TIP3    H226062   2.726   3.080   0.466
 8707TIP3   OH226063   2.775   1.716   5.835
 8707TIP3    H126064   2.767   1.783   5.903
 8707TIP3    H226065   2.797   1.765   5.755
 8708TIP3   OH226066   2.326   1.776   2.321
 8708TIP3    H126067   2.325   1.783   2.226
 8708TIP3    H226068   2.259   1.838   2.351
 8709TIP3   OH226069   6.484   0.072   4.136
 8709TIP3    H126070   6.497   0.115   4.051
 8709TIP3    H226071   6.397   0.033   4.130
 8710TIP3   OH226072   6.915   4.066   2.108
 8710TIP3    H126073   6.986   4.105   2.057
 8710TIP3    H226074   6.835   4.093   2.062
 8711TIP3   OH226075   5.900   6.130   2.727
 8711TIP3    H126076   5.860   6.212   2.702
 8711TIP3    H226077   5.993   6.142   2.708
 8712TIP3   OH226078   6.354   2.627   3.182
 8712TIP3    H126079   6.329   2.669   3.265
 8712TIP3    H226080   6.314   2.682   3.115
 8713TIP3   OH226081   1.395   2.837   5.227
 8713TIP3    H126082   1.490   2.831   5.213
 8713TIP3    H226083   1.386   2.899   5.299
 8714TIP3   OH226084   6.594   7.406   2.018
 8714TIP3    H126085   6.633   7.368   1.939
 8714TIP3    H226086   6.628   7.351   2.089
 8715TIP3   OH226087   3.343   7.095   2.420
 8715TIP3    H126088   3.352   7.175   2.473
 8715TIP3    H226089   3.411   7.037   2.452
 8716TIP3   OH226090   6.735   7.759   2.899
 8716TIP3    H126091   6.719   7.721   2.986
 8716TIP3    H226092   6.805   7.705   2.862
 8717TIP3   OH226093   2.983   5.194   3.837
 8717TIP3    H126094   3.031   5.245   3.772
 8717TIP3    H226095   3.006   5.233   3.921
 8718TIP3   OH226096   2.900   2.926   0.977
 8718TIP3    H126097   2.941   2.987   0.915
 8718TIP3    H226098   2.807   2.932   0.959
 8719TIP3   OH226099   7.189   6.456   0.249
 8719TIP3    H126100   7.241   6.510   0.189
 8719TIP3    H226101   7.222   6.367   0.235
 8720TIP3   OH226102   2.815   2.175   4.799
 8720TIP3    H126103   2.732   2.139   4.830
 8720TIP3    H226104   2.801   2.189   4.705
 8721TIP3   OH226105   1.788   5.137   3.373
 8721TIP3    H126106   1.721   5.206   3.374
 8721TIP3    H226107   1.738   5.056   3.373
 8722TIP3   OH226108   0.694   3.309   0.378
 8722TIP3    H126109   0.703   3.287   0.285
 8722TIP3    H226110   0.658   3.398   0.378
 8723TIP3   OH226111   6.507   0.517   5.667
 8723TIP3    H126112   6.567   0.510   5.593
 8723TIP3    H226113   6.444   0.446   5.655
 8724TIP3   OH226114   1.906   4.449   6.339
 8724TIP3    H126115   1.877   4.371   6.386
 8724TIP3    H226116   1.984   4.478   6.387
 8725TIP3   OH226117   1.479   0.900   5.384
 8725TIP3    H126118   1.401   0.850   5.362
 8725TIP3    H226119   1.482   0.899   5.479
 8726TIP3   OH226120   4.968   4.986   6.207
 8726TIP3    H126121   4.950   5.034   6.126
 8726TIP3    H226122   5.061   4.968   6.204
 8727TIP3   OH226123   0.658   6.474   2.283
 8727TIP3    H126124   0.718   6.501   2.351
 8727TIP3    H226125   0.710   6.419   2.225
 8728TIP3   OH226126   8.030   0.579   2.980
 8728TIP3    H126127   8.052   0.499   2.933
 8728TIP3    H226128   7.979   0.549   3.056
 8729TIP3   OH226129   0.898   1.593   3.465
 8729TIP3    H126130   0.961   1.563   3.400
 8729TIP3    H226131   0.812   1.575   3.426
 8730TIP3   OH226132   2.288   5.011   1.878
 8730TIP3    H126133   2.368   4.964   1.904
 8730TIP3    H226134   2.245   4.951   1.816
 8731TIP3   OH226135   6.365   6.376   3.493
 8731TIP3    H126136   6.383   6.292   3.452
 8731TIP3    H226137   6.435   6.387   3.558
 8732TIP3   OH226138   6.477   6.411   3.745
 8732TIP3    H126139   6.415   6.483   3.756
 8732TIP3    H226140   6.554   6.438   3.795
 8733TIP3   OH226141   7.407   1.436   0.674
 8733TIP3    H126142   7.433   1.444   0.765
 8733TIP3    H226143   7.345   1.507   0.660
 8734TIP3   OH226144   7.235   1.538   1.437
 8734TIP3    H126145   7.227   1.442   1.433
 8734TIP3    H226146   7.257   1.564   1.348
 8735TIP3   OH226147   2.696   1.468   5.228
 8735TIP3    H126148   2.652   1.409   5.167
 8735TIP3    H226149   2.787   1.437   5.230
 8736TIP3   OH226150   3.068   3.270   2.329
 8736TIP3    H126151   3.163   3.282   2.334
 8736TIP3    H226152   3.056   3.205   2.259
 8737TIP3   OH226153   7.820   7.814   1.438
 8737TIP3    H126154   7.859   7.902   1.441
 8737TIP3    H226155   7.894   7.755   1.449
 8738TIP3   OH226156   4.233   2.712   2.024
 8738TIP3    H126157   4.322   2.680   2.009
 8738TIP3    H226158   4.180   2.632   2.028
 8739TIP3   OH226159   8.241   3.321   3.553
 8739TIP3    H126160   8.178   3.379   3.596
 8739TIP3    H226161   8.266   3.367   3.473
 8740TIP3   OH226162   2.788   6.112   0.694
 8740TIP3    H126163   2.839   6.068   0.761
 8740TIP3    H226164   2.852   6.164   0.645
 8741TIP3   OH226165   7.960   1.226   2.837
 8741TIP3    H126166   7.984   1.167   2.908
 8741TIP3    H226167   7.886   1.182   2.794
 8742TIP3   OH226168   3.750   3.604   3.950
 8742TIP3    H126169   3.779   3.535   4.009
 8742TIP3    H226170   3.735   3.680   4.007
 8743TIP3   OH226171   3.808   7.045   3.562
 8743TIP3    H126172   3.714   7.032   3.572
 8743TIP3    H226173   3.846   7.013   3.645
 8744TIP3   OH226174   3.424   0.844   6.466
 8744TIP3    H126175   3.382   0.846   6.552
 8744TIP3    H226176   3.515   0.818   6.485
 8745TIP3   OH226177   2.727   0.549   5.801
 8745TIP3    H126178   2.812   0.507   5.788
 8745TIP3    H226179   2.710   0.596   5.719
 8746TIP3   OH226180   0.621   5.863   1.219
 8746TIP3    H126181   0.654   5.917   1.291
 8746TIP3    H226182   0.537   5.830   1.251
 8747TIP3   OH226183   2.682   6.342   2.951
 8747TIP3    H126184   2.763   6.299   2.926
 8747TIP3    H226185   2.683   6.425   2.903
 8748TIP3   OH226186   6.564   6.783   6.407
 8748TIP3    H126187   6.570   6.870   6.367
 8748TIP3    H226188   6.531   6.799   6.495
 8749TIP3   OH226189   3.425   3.301   2.003
 8749TIP3    H126190   3.414   3.213   2.039
 8749TIP3    H226191   3.473   3.349   2.070
 8750TIP3   OH226192   6.243   1.395   2.555
 8750TIP3    H126193   6.258   1.428   2.644
 8750TIP3    H226194   6.323   1.346   2.534
 8751TIP3   OH226195   1.222   0.020   4.389
 8751TIP3    H126196   1.235  -0.049   4.325
 8751TIP3    H226197   1.251   0.100   4.344
 8752TIP3   OH226198   0.878   4.214   2.744
 8752TIP3    H126199   0.970   4.197   2.724
 8752TIP3    H226200   0.868   4.309   2.733
 8753TIP3   OH226201   3.544   6.982   4.697
 8753TIP3    H126202   3.595   6.926   4.755
 8753TIP3    H226203   3.453   6.954   4.710
 8754TIP3   OH226204   1.034   1.791   1.914
 8754TIP3    H126205   1.068   1.712   1.871
 8754TIP3    H226206   0.940   1.776   1.920
 8755TIP3   OH226207   7.671   0.613   2.307
 8755TIP3    H126208   7.749   0.652   2.347
 8755TIP3    H226209   7.700   0.528   2.275
 8756TIP3   OH226210   2.846   5.354   2.223
 8756TIP3    H126211   2.870   5.447   2.227
 8756TIP3    H226212   2.772   5.351   2.163
 8757TIP3   OH226213   3.464   3.990   3.214
 8757TIP3    H126214   3.407   3.913   3.212
 8757TIP3    H226215   3.551   3.954   3.236
 8758TIP3   OH226216   3.913   7.269   3.411
 8758TIP3    H126217   3.893   7.352   3.455
 8758TIP3    H226218   3.853   7.206   3.452
 8759TIP3   OH226219   2.333   5.221   3.760
 8759TIP3    H126220   2.310   5.204   3.669
 8759TIP3    H226221   2.263   5.280   3.791
 8760TIP3   OH226222   8.181   2.840   6.151
 8760TIP3    H126223   8.214   2.841   6.240
 8760TIP3    H226224   8.086   2.846   6.160
 8761TIP3   OH226225   6.584   1.034   0.231
 8761TIP3    H126226   6.650   0.989   0.284
 8761TIP3    H226227   6.551   0.967   0.171
 8762TIP3   OH226228   5.672   0.088   4.282
 8762TIP3    H126229   5.689   0.100   4.189
 8762TIP3    H226230   5.603   0.021   4.285
 8763TIP3   OH226231   6.421   1.625   3.248
 8763TIP3    H126232   6.438   1.714   3.217
 8763TIP3    H226233   6.376   1.637   3.331
 8764TIP3   OH226234   8.226   6.477   2.606
 8764TIP3    H126235   8.246   6.493   2.698
 8764TIP3    H226236   8.291   6.413   2.578
 8765TIP3   OH226237   5.255   7.627   0.173
 8765TIP3    H126238   5.225   7.563   0.107
 8765TIP3    H226239   5.227   7.590   0.257
 8766TIP3   OH226240   1.827   4.590   1.805
 8766TIP3    H126241   1.842   4.507   1.761
 8766TIP3    H226242   1.803   4.650   1.735
 8767TIP3   OH226243   3.823   6.159   4.677
 8767TIP3    H126244   3.902   6.107   4.661
 8767TIP3    H226245   3.778   6.112   4.747
 8768TIP3   OH226246   6.568   0.176   5.486
 8768TIP3    H126247   6.518   0.106   5.443
 8768TIP3    H226248   6.513   0.203   5.559
 8769TIP3   OH226249   6.158   4.553   6.415
 8769TIP3    H126250   6.154   4.608   6.337
 8769TIP3    H226251   6.252   4.546   6.435
 8770TIP3   OH226252   4.655   0.826   5.704
 8770TIP3    H126253   4.723   0.887   5.674
 8770TIP3    H226254   4.698   0.771   5.769
 8771TIP3   OH226255   4.928   5.116   1.384
 8771TIP3    H126256   4.846   5.145   1.422
 8771TIP3    H226257   4.907   5.092   1.294
 8772TIP3   OH226258   3.870   4.310   0.583
 8772TIP3    H126259   3.800   4.252   0.614
 8772TIP3    H226260   3.926   4.325   0.659
 8773TIP3   OH226261   0.596   1.429   5.898
 8773TIP3    H126262   0.542   1.473   5.963
 8773TIP3    H226263   0.648   1.498   5.858
 8774TIP3   OH226264   2.909   5.410   0.133
 8774TIP3    H126265   2.982   5.353   0.108
 8774TIP3    H226266   2.872   5.370   0.211
 8775TIP3   OH226267   6.160   4.105   0.075
 8775TIP3    H126268   6.146   4.025   0.025
 8775TIP3    H226269   6.094   4.103   0.144
 8776TIP3   OH226270   6.162   6.869   5.239
 8776TIP3    H126271   6.215   6.885   5.317
 8776TIP3    H226272   6.200   6.925   5.172
 8777TIP3   OH226273   2.746   0.630   3.635
 8777TIP3    H126274   2.664   0.601   3.674
 8777TIP3    H226275   2.812   0.571   3.672
 8778TIP3   OH226276   6.085   4.210   4.432
 8778TIP3    H126277   6.024   4.161   4.376
 8778TIP3    H226278   6.144   4.254   4.370
 8779TIP3   OH226279   0.537   0.629   2.019
 8779TIP3    H126280   0.550   0.715   1.979
 8779TIP3    H226281   0.626   0.592   2.024
 8780TIP3   OH226282   1.399   5.160   2.745
 8780TIP3    H126283   1.393   5.165   2.649
 8780TIP3    H226284   1.449   5.238   2.770
 8781TIP3   OH226285   0.542   4.623   1.351
 8781TIP3    H126286   0.509   4.684   1.284
 8781TIP3    H226287   0.483   4.636   1.426
 8782TIP3   OH226288   4.157   2.547   0.853
 8782TIP3    H126289   4.080   2.506   0.814
 8782TIP3    H226290   4.122   2.606   0.920
 8783TIP3   OH226291   8.134   6.034   6.363
 8783TIP3    H126292   8.129   5.938   6.364
 8783TIP3    H226293   8.068   6.061   6.300
 8784TIP3   OH226294   6.827   2.292   4.339
 8784TIP3    H126295   6.783   2.211   4.365
 8784TIP3    H226296   6.835   2.285   4.244
 8785TIP3   OH226297   0.396   2.897   2.917
 8785TIP3    H126298   0.306   2.864   2.924
 8785TIP3    H226299   0.410   2.908   2.822
 8786TIP3   OH226300   6.779   6.335   4.625
 8786TIP3    H126301   6.851   6.364   4.681
 8786TIP3    H226302   6.700   6.346   4.680
 8787TIP3   OH226303   0.149   7.263   5.695
 8787TIP3    H126304   0.222   7.200   5.698
 8787TIP3    H226305   0.134   7.276   5.602
 8788TIP3   OH226306   0.862   0.304   1.992
 8788TIP3    H126307   0.900   0.323   2.078
 8788TIP3    H226308   0.797   0.236   2.009
 8789TIP3   OH226309   3.747   2.657   0.625
 8789TIP3    H126310   3.777   2.673   0.714
 8789TIP3    H226311   3.665   2.609   0.636
 8790TIP3   OH226312   8.184   4.493   3.302
 8790TIP3    H126313   8.167   4.485   3.208
 8790TIP3    H226314   8.195   4.403   3.332
 8791TIP3   OH226315   6.610   6.216   3.619
 8791TIP3    H126316   6.546   6.207   3.548
 8791TIP3    H226317   6.584   6.296   3.664
 8792TIP3   OH226318   0.636   6.403   5.087
 8792TIP3    H126319   0.731   6.416   5.078
 8792TIP3    H226320   0.605   6.483   5.129
 8793TIP3   OH226321   7.771   0.920   1.988
 8793TIP3    H126322   7.705   0.853   2.007
 8793TIP3    H226323   7.732   0.973   1.919
 8794TIP3   OH226324   3.450   5.730   6.483
 8794TIP3    H126325   3.375   5.682   6.518
 8794TIP3    H226326   3.462   5.803   6.543
 8795TIP3   OH226327   3.999   1.773   1.478
 8795TIP3    H126328   3.926   1.742   1.531
 8795TIP3    H226329   4.068   1.708   1.493
 8796TIP3   OH226330   4.762   4.576   4.758
 8796TIP3    H126331   4.817   4.625   4.819
 8796TIP3    H226332   4.720   4.510   4.813
 8797TIP3   OH226333   0.081   0.368   2.644
 8797TIP3    H126334   0.145   0.436   2.662
 8797TIP3    H226335   0.076   0.364   2.548
 8798TIP3   OH226336   2.407   5.790   1.933
 8798TIP3    H126337   2.495   5.752   1.930
 8798TIP3    H226338   2.402   5.832   2.019
 8799TIP3   OH226339   1.922   5.108   3.673
 8799TIP3    H126340   1.953   5.113   3.583
 8799TIP3    H226341   2.003   5.112   3.725
 8800TIP3   OH226342   1.995   7.405   6.436
 8800TIP3    H126343   1.922   7.447   6.392
 8800TIP3    H226344   2.010   7.324   6.386
 8801TIP3   OH226345   0.329   6.279   6.741
 8801TIP3    H126346   0.372   6.197   6.766
 8801TIP3    H226347   0.349   6.340   6.812
 8802TIP3   OH226348   0.815   1.594   5.023
 8802TIP3    H126349   0.799   1.645   4.943
 8802TIP3    H226350   0.730   1.590   5.066
 8803TIP3   OH226351   0.143   2.246   1.542
 8803TIP3    H126352   0.067   2.305   1.538
 8803TIP3    H226353   0.141   2.198   1.459
 8804TIP3   OH226354   5.171   5.315   4.589
 8804TIP3    H126355   5.201   5.323   4.679
 8804TIP3    H226356   5.246   5.342   4.536
 8805TIP3   OH226357   2.926   4.902   5.689
 8805TIP3    H126358   2.834   4.899   5.715
 8805TIP3    H226359   2.975   4.908   5.771
 8806TIP3   OH226360   1.459   4.423   4.056
 8806TIP3    H126361   1.378   4.423   4.107
 8806TIP3    H226362   1.524   4.384   4.115
 8807TIP3   OH226363   5.124   3.496   3.819
 8807TIP3    H126364   5.149   3.583   3.789
 8807TIP3    H226365   5.206   3.455   3.848
 8808TIP3   OH226366   3.406   2.790   6.502
 8808TIP3    H126367   3.394   2.697   6.482
 8808TIP3    H226368   3.317   2.823   6.512
 8809TIP3   OH226369   1.327   0.786   6.678
 8809TIP3    H126370   1.325   0.735   6.759
 8809TIP3    H226371   1.391   0.741   6.623
 8810TIP3   OH226372   2.152   6.432   5.672
 8810TIP3    H126373   2.213   6.507   5.673
 8810TIP3    H226374   2.195   6.368   5.616
 8811TIP3   OH226375   4.749   1.062   1.698
 8811TIP3    H126376   4.657   1.068   1.726
 8811TIP3    H226377   4.796   1.038   1.778
 8812TIP3   OH226378   4.762   2.104   4.355
 8812TIP3    H126379   4.840   2.048   4.349
 8812TIP3    H226380   4.709   2.079   4.280
 8813TIP3   OH226381   5.502   0.559   2.481
 8813TIP3    H126382   5.570   0.606   2.529
 8813TIP3    H226383   5.430   0.621   2.473
 8814TIP3   OH226384   0.103   5.101   4.214
 8814TIP3    H126385   0.105   5.179   4.158
 8814TIP3    H226386   0.014   5.067   4.203
 8815TIP3   OH226387   3.959   4.474   2.250
 8815TIP3    H126388   3.936   4.564   2.226
 8815TIP3    H226389   3.909   4.457   2.330
 8816TIP3   OH226390   5.575   3.836   2.147
 8816TIP3    H126391   5.508   3.793   2.095
 8816TIP3    H226392   5.527   3.886   2.213
 8817TIP3   OH226393   0.636   1.256   3.127
 8817TIP3    H126394   0.681   1.339   3.110
 8817TIP3    H226395   0.701   1.201   3.168
 8818TIP3   OH226396   4.428   0.746   2.412
 8818TIP3    H126397   4.415   0.837   2.385
 8818TIP3    H226398   4.521   0.741   2.437
 8819TIP3   OH226399   5.177   3.736   0.834
 8819TIP3    H126400   5.257   3.756   0.785
 8819TIP3    H226401   5.198   3.655   0.881
 8820TIP3   OH226402   7.175   4.559   1.952
 8820TIP3    H126403   7.142   4.628   2.010
 8820TIP3    H226404   7.139   4.581   1.866
 8821TIP3   OH226405   7.264   1.808   4.455
 8821TIP3    H126406   7.343   1.854   4.481
 8821TIP3    H226407   7.193   1.855   4.498
 8822TIP3   OH226408   7.184   5.945   0.435
 8822TIP3    H126409   7.121   5.887   0.478
 8822TIP3    H226410   7.240   5.886   0.384
 8823TIP3   OH226411   1.711   2.178   3.116
 8823TIP3    H126412   1.664   2.256   3.085
 8823TIP3    H226413   1.642   2.122   3.153
 8824TIP3   OH226414   3.459   2.906   6.181
 8824TIP3    H126415   3.384   2.929   6.126
 8824TIP3    H226416   3.503   2.990   6.196
 8825TIP3   OH226417   8.105   0.375   3.249
 8825TIP3    H126418   8.139   0.311   3.311
 8825TIP3    H226419   8.046   0.430   3.300
 8826TIP3   OH226420   0.599   5.247   1.421
 8826TIP3    H126421   0.682   5.293   1.434
 8826TIP3    H226422   0.603   5.172   1.479
 8827TIP3   OH226423   3.085   6.623   2.406
 8827TIP3    H126424   3.180   6.617   2.394
 8827TIP3    H226425   3.049   6.563   2.340
 8828TIP3   OH226426   5.017   0.442   6.720
 8828TIP3    H126427   5.002   0.536   6.705
 8828TIP3    H226428   4.930   0.402   6.711
 8829TIP3   OH226429   4.685   2.220   3.863
 8829TIP3    H126430   4.636   2.234   3.944
 8829TIP3    H226431   4.659   2.293   3.806
 8830TIP3   OH226432   1.814   0.130   4.239
 8830TIP3    H126433   1.749   0.077   4.194
 8830TIP3    H226434   1.866   0.169   4.169
 8831TIP3   OH226435   5.271   5.130   1.159
 8831TIP3    H126436   5.294   5.098   1.247
 8831TIP3    H226437   5.261   5.050   1.107
 8832TIP3   OH226438   1.468   7.494   3.248
 8832TIP3    H126439   1.481   7.571   3.304
 8832TIP3    H226440   1.557   7.462   3.231
 8833TIP3   OH226441   0.114   4.651   1.903
 8833TIP3    H126442   0.031   4.613   1.875
 8833TIP3    H226443   0.160   4.671   1.822
 8834TIP3   OH226444   3.857   7.450   1.274
 8834TIP3    H126445   3.945   7.479   1.247
 8834TIP3    H226446   3.844   7.491   1.359
 8835TIP3   OH226447   3.510   5.310   5.824
 8835TIP3    H126448   3.449   5.303   5.897
 8835TIP3    H226449   3.583   5.360   5.859
 8836TIP3   OH226450   5.163   7.483   0.380
 8836TIP3    H126451   5.181   7.406   0.434
 8836TIP3    H226452   5.068   7.481   0.366
 8837TIP3   OH226453   3.085   2.618   4.462
 8837TIP3    H126454   3.068   2.525   4.480
 8837TIP3    H226455   2.998   2.656   4.451
 8838TIP3   OH226456   2.834   7.547   1.958
 8838TIP3    H126457   2.891   7.472   1.940
 8838TIP3    H226458   2.811   7.538   2.050
 8839TIP3   OH226459   5.733   3.190   5.552
 8839TIP3    H126460   5.799   3.260   5.548
 8839TIP3    H226461   5.785   3.109   5.558
 8840TIP3   OH226462   8.002   2.908   2.782
 8840TIP3    H126463   8.046   2.981   2.738
 8840TIP3    H226464   7.922   2.947   2.818
 8841TIP3   OH226465   1.302   5.285   0.728
 8841TIP3    H126466   1.322   5.220   0.796
 8841TIP3    H226467   1.215   5.317   0.752
 8842TIP3   OH226468   2.782   0.416   3.355
 8842TIP3    H126469   2.771   0.382   3.444
 8842TIP3    H226470   2.786   0.511   3.366
 8843TIP3   OH226471   2.148   1.213   1.389
 8843TIP3    H126472   2.146   1.246   1.479
 8843TIP3    H226473   2.057   1.210   1.362
 8844TIP3   OH226474   0.735   4.244   6.761
 8844TIP3    H126475   0.682   4.285   6.693
 8844TIP3    H226476   0.705   4.283   6.842
 8845TIP3   OH226477   2.595   6.603   0.383
 8845TIP3    H126478   2.668   6.644   0.428
 8845TIP3    H226479   2.525   6.600   0.448
 8846TIP3   OH226480   3.024   3.415   3.074
 8846TIP3    H126481   3.007   3.384   2.985
 8846TIP3    H226482   2.972   3.495   3.082
 8847TIP3   OH226483   6.410   4.242   1.639
 8847TIP3    H126484   6.428   4.317   1.696
 8847TIP3    H226485   6.476   4.177   1.663
 8848TIP3   OH226486   3.797   5.534   5.253
 8848TIP3    H126487   3.815   5.522   5.160
 8848TIP3    H226488   3.880   5.514   5.296
 8849TIP3   OH226489   6.267   6.702   4.910
 8849TIP3    H126490   6.301   6.680   4.823
 8849TIP3    H226491   6.306   6.638   4.968
 8850TIP3   OH226492   2.395   4.217   0.442
 8850TIP3    H126493   2.431   4.144   0.392
 8850TIP3    H226494   2.468   4.277   0.454
 8851TIP3   OH226495   2.997   1.717   0.683
 8851TIP3    H126496   3.073   1.666   0.656
 8851TIP3    H226497   2.982   1.693   0.774
 8852TIP3   OH226498   2.301   3.559   1.245
 8852TIP3    H126499   2.326   3.543   1.154
 8852TIP3    H226500   2.233   3.494   1.263
 8853TIP3   OH226501   3.278   5.946   4.376
 8853TIP3    H126502   3.227   5.870   4.348
 8853TIP3    H226503   3.360   5.938   4.327
 8854TIP3   OH226504   5.010   0.564   2.528
 8854TIP3    H126505   5.014   0.611   2.445
 8854TIP3    H226506   5.071   0.610   2.585
 8855TIP3   OH226507   2.230   4.120   4.546
 8855TIP3    H126508   2.261   4.179   4.614
 8855TIP3    H226509   2.237   4.171   4.465
 8856TIP3   OH226510   2.931   4.867   0.691
 8856TIP3    H126511   2.996   4.936   0.675
 8856TIP3    H226512   2.981   4.786   0.685
 8857TIP3   OH226513   0.097   1.828   1.186
 8857TIP3    H126514   0.128   1.831   1.276
 8857TIP3    H226515   0.113   1.738   1.158
 8858TIP3   OH226516   7.737   5.102   4.519
 8858TIP3    H126517   7.825   5.076   4.547
 8858TIP3    H226518   7.740   5.101   4.424
 8859TIP3   OH226519   6.288   4.534   4.004
 8859TIP3    H126520   6.212   4.547   4.062
 8859TIP3    H226521   6.291   4.613   3.951
 8860TIP3   OH226522   5.509   2.301   1.295
 8860TIP3    H126523   5.491   2.388   1.261
 8860TIP3    H226524   5.605   2.296   1.301
 8861TIP3   OH226525   6.880   5.005   5.261
 8861TIP3    H126526   6.909   5.080   5.313
 8861TIP3    H226527   6.862   5.041   5.174
 8862TIP3   OH226528   2.757   5.380   3.516
 8862TIP3    H126529   2.692   5.361   3.584
 8862TIP3    H226530   2.794   5.464   3.541
 8863TIP3   OH226531   2.181   0.362   3.016
 8863TIP3    H126532   2.203   0.446   3.056
 8863TIP3    H226533   2.184   0.299   3.087
 8864TIP3   OH226534   8.158   5.935   5.875
 8864TIP3    H126535   8.099   5.941   5.800
 8864TIP3    H226536   8.121   5.865   5.929
 8865TIP3   OH226537   2.173   1.393   0.167
 8865TIP3    H126538   2.116   1.350   0.104
 8865TIP3    H226539   2.218   1.461   0.117
 8866TIP3   OH226540   7.166   2.184   1.588
 8866TIP3    H126541   7.172   2.279   1.579
 8866TIP3    H226542   7.143   2.170   1.680
 8867TIP3   OH226543   4.065   7.438   6.637
 8867TIP3    H126544   4.011   7.359   6.641
 8867TIP3    H226545   4.058   7.476   6.724
 8868TIP3   OH226546   7.299   0.385   6.201
 8868TIP3    H126547   7.348   0.348   6.275
 8868TIP3    H226548   7.236   0.444   6.242
 8869TIP3   OH226549   3.129   6.335   4.033
 8869TIP3    H126550   3.156   6.243   4.032
 8869TIP3    H226551   3.180   6.376   3.964
 8870TIP3   OH226552   1.242   4.761   4.755
 8870TIP3    H126553   1.338   4.766   4.755
 8870TIP3    H226554   1.214   4.851   4.772
 8871TIP3   OH226555   6.440   0.598   5.019
 8871TIP3    H126556   6.482   0.668   5.070
 8871TIP3    H226557   6.433   0.634   4.930
 8872TIP3   OH226558   7.407   0.979   0.239
 8872TIP3    H126559   7.462   0.933   0.176
 8872TIP3    H226560   7.448   1.065   0.249
 8873TIP3   OH226561   5.207   5.421   3.649
 8873TIP3    H126562   5.231   5.382   3.566
 8873TIP3    H226563   5.222   5.515   3.638
 8874TIP3   OH226564   5.909   3.897   1.021
 8874TIP3    H126565   5.916   3.977   1.074
 8874TIP3    H226566   5.843   3.918   0.955
 8875TIP3   OH226567   8.308   2.382   3.241
 8875TIP3    H126568   8.342   2.297   3.270
 8875TIP3    H226569   8.234   2.399   3.299
 8876TIP3   OH226570   8.041   1.050   2.553
 8876TIP3    H126571   8.025   0.973   2.607
 8876TIP3    H226572   8.084   1.016   2.475
 8877TIP3   OH226573   6.787   2.585   0.473
 8877TIP3    H126574   6.692   2.592   0.470
 8877TIP3    H226575   6.807   2.566   0.565
 8878TIP3   OH226576   4.563   4.211   0.418
 8878TIP3    H126577   4.606   4.291   0.448
 8878TIP3    H226578   4.559   4.221   0.322
 8879TIP3   OH226579   0.291   1.821   2.621
 8879TIP3    H126580   0.378   1.791   2.648
 8879TIP3    H226581   0.230   1.765   2.669
 8880TIP3   OH226582   3.739   7.285   5.055
 8880TIP3    H126583   3.711   7.360   5.002
 8880TIP3    H226584   3.674   7.217   5.038
 8881TIP3   OH226585   3.663   5.205   4.323
 8881TIP3    H126586   3.570   5.181   4.330
 8881TIP3    H226587   3.697   5.147   4.255
 8882TIP3   OH226588   3.267   0.696   6.684
 8882TIP3    H126589   3.177   0.704   6.655
 8882TIP3    H226590   3.261   0.651   6.769
 8883TIP3   OH226591   3.126   6.469   4.300
 8883TIP3    H126592   3.119   6.390   4.246
 8883TIP3    H226593   3.220   6.482   4.311
 8884TIP3   OH226594   4.841   2.609   4.722
 8884TIP3    H126595   4.869   2.570   4.639
 8884TIP3    H226596   4.873   2.699   4.717
 8885TIP3   OH226597   7.328   6.163   1.733
 8885TIP3    H126598   7.318   6.105   1.657
 8885TIP3    H226599   7.269   6.126   1.799
 8886TIP3   OH226600   5.141   2.474   4.666
 8886TIP3    H126601   5.226   2.490   4.626
 8886TIP3    H226602   5.079   2.477   4.593
 8887TIP3   OH226603   5.257   6.441   1.446
 8887TIP3    H126604   5.263   6.488   1.363
 8887TIP3    H226605   5.230   6.353   1.422
 8888TIP3   OH226606   0.630   5.824   0.244
 8888TIP3    H126607   0.628   5.744   0.190
 8888TIP3    H226608   0.627   5.896   0.181
 8889TIP3   OH226609   7.307   4.110   5.758
 8889TIP3    H126610   7.360   4.032   5.742
 8889TIP3    H226611   7.328   4.168   5.685
 8890TIP3   OH226612   7.990   4.687   4.996
 8890TIP3    H126613   8.061   4.633   4.961
 8890TIP3    H226614   7.942   4.715   4.918
 8891TIP3   OH226615   4.903   3.737   0.992
 8891TIP3    H126616   4.830   3.683   0.961
 8891TIP3    H226617   4.931   3.695   1.073
 8892TIP3   OH226618   0.957   1.655   3.063
 8892TIP3    H126619   1.010   1.588   3.021
 8892TIP3    H226620   1.021   1.715   3.102
 8893TIP3   OH226621   4.074   3.524   4.853
 8893TIP3    H126622   4.032   3.587   4.795
 8893TIP3    H226623   4.150   3.493   4.804
 8894TIP3   OH226624   4.517   0.704   0.219
 8894TIP3    H126625   4.591   0.673   0.270
 8894TIP3    H226626   4.509   0.796   0.242
 8895TIP3   OH226627   3.490   4.564   2.890
 8895TIP3    H126628   3.506   4.532   2.801
 8895TIP3    H226629   3.568   4.614   2.912
 8896TIP3   OH226630   6.277   4.930   2.483
 8896TIP3    H126631   6.216   4.999   2.510
 8896TIP3    H226632   6.263   4.921   2.389
 8897TIP3   OH226633   3.012   4.851   3.609
 8897TIP3    H126634   3.096   4.896   3.608
 8897TIP3    H226635   2.950   4.917   3.640
 8898TIP3   OH226636   0.949   5.877   0.427
 8898TIP3    H126637   0.948   5.972   0.415
 8898TIP3    H226638   0.999   5.845   0.351
 8899TIP3   OH226639   0.442   5.905   3.647
 8899TIP3    H126640   0.372   5.971   3.643
 8899TIP3    H226641   0.445   5.879   3.739
 8900TIP3   OH226642   7.687   7.091   2.469
 8900TIP3    H126643   7.621   7.025   2.490
 8900TIP3    H226644   7.651   7.138   2.393
 8901TIP3   OH226645   7.427   3.786   4.963
 8901TIP3    H126646   7.461   3.729   5.033
 8901TIP3    H226647   7.474   3.758   4.885
 8902TIP3   OH226648   0.119   4.053   4.325
 8902TIP3    H126649   0.156   3.965   4.335
 8902TIP3    H226650   0.068   4.049   4.245
 8903TIP3   OH226651   3.854   0.622   0.267
 8903TIP3    H126652   3.828   0.551   0.325
 8903TIP3    H226653   3.774   0.673   0.253
 8904TIP3   OH226654   2.754   4.141   1.821
 8904TIP3    H126655   2.725   4.201   1.752
 8904TIP3    H226656   2.848   4.157   1.829
 8905TIP3   OH226657   0.010   1.459   4.105
 8905TIP3    H126658   0.081   1.460   4.169
 8905TIP3    H226659  -0.034   1.375   4.119
 8906TIP3   OH226660   6.026   7.612   5.107
 8906TIP3    H126661   6.106   7.660   5.087
 8906TIP3    H226662   6.057   7.530   5.147
 8907TIP3   OH226663   6.747   1.358   2.186
 8907TIP3    H126664   6.742   1.280   2.241
 8907TIP3    H226665   6.764   1.430   2.247
 8908TIP3   OH226666   6.058   5.725   4.833
 8908TIP3    H126667   6.135   5.777   4.812
 8908TIP3    H226668   6.002   5.733   4.755
 8909TIP3   OH226669   5.603   4.422   4.107
 8909TIP3    H126670   5.644   4.348   4.152
 8909TIP3    H226671   5.514   4.425   4.142
 8910TIP3   OH226672   0.180   7.576   6.422
 8910TIP3    H126673   0.158   7.616   6.506
 8910TIP3    H226674   0.096   7.569   6.376
 8911TIP3   OH226675   2.113   3.357   1.292
 8911TIP3    H126676   2.084   3.321   1.376
 8911TIP3    H226677   2.156   3.284   1.249
 8912TIP3   OH226678   6.719   5.886   5.972
 8912TIP3    H126679   6.782   5.868   5.902
 8912TIP3    H226680   6.703   5.801   6.013
 8913TIP3   OH226681   1.089   3.351   2.388
 8913TIP3    H126682   1.146   3.429   2.387
 8913TIP3    H226683   1.136   3.288   2.443
 8914TIP3   OH226684   1.458   0.662   4.793
 8914TIP3    H126685   1.505   0.746   4.789
 8914TIP3    H226686   1.468   0.625   4.706
 8915TIP3   OH226687   7.104   2.757   3.003
 8915TIP3    H126688   7.011   2.759   2.981
 8915TIP3    H226689   7.112   2.688   3.068
 8916TIP3   OH226690   6.945   2.072   5.098
 8916TIP3    H126691   6.960   2.054   5.191
 8916TIP3    H226692   6.868   2.019   5.076
 8917TIP3   OH226693   2.137   0.428   5.482
 8917TIP3    H126694   2.152   0.520   5.462
 8917TIP3    H226695   2.045   0.423   5.508
 8918TIP3   OH226696   7.331   2.278   3.291
 8918TIP3    H126697   7.316   2.371   3.312
 8918TIP3    H226698   7.263   2.256   3.228
 8919TIP3   OH226699   1.824   5.693   4.368
 8919TIP3    H126700   1.854   5.709   4.279
 8919TIP3    H226701   1.899   5.716   4.423
 8920TIP3   OH226702   5.550   5.229   5.643
 8920TIP3    H126703   5.584   5.306   5.596
 8920TIP3    H226704   5.572   5.245   5.734
 8921TIP3   OH226705   4.043   3.298   3.376
 8921TIP3    H126706   4.116   3.306   3.438
 8921TIP3    H226707   3.965   3.307   3.430
 8922TIP3   OH226708   6.695   7.653   3.148
 8922TIP3    H126709   6.607   7.616   3.142
 8922TIP3    H226710   6.688   7.720   3.215
 8923TIP3   OH226711   1.313   3.334   4.291
 8923TIP3    H126712   1.374   3.354   4.362
 8923TIP3    H226713   1.334   3.244   4.266
 8924TIP3   OH226714   7.258   5.791   1.185
 8924TIP3    H126715   7.226   5.717   1.133
 8924TIP3    H226716   7.181   5.845   1.200
 8925TIP3   OH226717   2.251   4.535   5.222
 8925TIP3    H126718   2.258   4.630   5.229
 8925TIP3    H226719   2.341   4.506   5.206
 8926TIP3   OH226720   0.579   7.004   0.247
 8926TIP3    H126721   0.649   7.059   0.211
 8926TIP3    H226722   0.533   7.062   0.309
 8927TIP3   OH226723   6.431   7.615   1.964
 8927TIP3    H126724   6.489   7.541   1.986
 8927TIP3    H226725   6.472   7.654   1.887
 8928TIP3   OH226726   1.466   0.015   2.614
 8928TIP3    H126727   1.373   0.017   2.591
 8928TIP3    H226728   1.489   0.107   2.628
 8929TIP3   OH226729   7.999   7.549   5.563
 8929TIP3    H126730   7.982   7.635   5.601
 8929TIP3    H226731   8.091   7.552   5.536
 8930TIP3   OH226732   5.390   5.139   4.139
 8930TIP3    H126733   5.431   5.063   4.097
 8930TIP3    H226734   5.388   5.116   4.232
 8931TIP3   OH226735   1.029   5.907   4.319
 8931TIP3    H126736   1.045   5.894   4.413
 8931TIP3    H226737   1.113   5.938   4.285
 8932TIP3   OH226738   5.454   2.681   1.620
 8932TIP3    H126739   5.419   2.593   1.634
 8932TIP3    H226740   5.541   2.666   1.584
 8933TIP3   OH226741   3.106   6.514   4.894
 8933TIP3    H126742   3.047   6.441   4.875
 8933TIP3    H226743   3.161   6.481   4.966
 8934TIP3   OH226744   1.580   1.813   2.528
 8934TIP3    H126745   1.572   1.791   2.621
 8934TIP3    H226746   1.650   1.877   2.524
 8935TIP3   OH226747   4.983   4.876   2.022
 8935TIP3    H126748   4.907   4.887   2.080
 8935TIP3    H226749   4.949   4.896   1.935
 8936TIP3   OH226750   7.612   0.502   0.617
 8936TIP3    H126751   7.620   0.591   0.651
 8936TIP3    H226752   7.519   0.481   0.627
 8937TIP3   OH226753   2.342   4.679   3.370
 8937TIP3    H126754   2.307   4.627   3.442
 8937TIP3    H226755   2.419   4.630   3.340
 8938TIP3   OH226756   1.807   2.373   1.932
 8938TIP3    H126757   1.787   2.464   1.955
 8938TIP3    H226758   1.888   2.379   1.881
 8939TIP3   OH226759   7.536   5.563   0.299
 8939TIP3    H126760   7.529   5.499   0.228
 8939TIP3    H226761   7.615   5.538   0.346
 8940TIP3   OH226762   6.459   0.785   1.891
 8940TIP3    H126763   6.501   0.865   1.921
 8940TIP3    H226764   6.495   0.716   1.947
 8941TIP3   OH226765   1.582   6.291   3.218
 8941TIP3    H126766   1.534   6.369   3.245
 8941TIP3    H226767   1.515   6.222   3.213
 8942TIP3   OH226768   4.815   6.051   5.071
 8942TIP3    H126769   4.903   6.015   5.073
 8942TIP3    H226770   4.806   6.089   4.984
 8943TIP3   OH226771   2.675   5.052   1.121
 8943TIP3    H126772   2.710   4.997   1.191
 8943TIP3    H226773   2.728   5.029   1.044
 8944TIP3   OH226774   6.239   3.604   1.905
 8944TIP3    H126775   6.266   3.590   1.814
 8944TIP3    H226776   6.303   3.666   1.940
 8945TIP3   OH226777   2.716   0.156   6.729
 8945TIP3    H126778   2.745   0.225   6.669
 8945TIP3    H226779   2.689   0.204   6.808
 8946TIP3   OH226780   7.436   6.579   4.597
 8946TIP3    H126781   7.369   6.513   4.613
 8946TIP3    H226782   7.446   6.580   4.502
 8947TIP3   OH226783   1.302   3.942   3.090
 8947TIP3    H126784   1.288   3.859   3.044
 8947TIP3    H226785   1.255   4.007   3.037
 8948TIP3   OH226786   3.500   5.564   4.746
 8948TIP3    H126787   3.500   5.501   4.818
 8948TIP3    H226788   3.466   5.516   4.671
 8949TIP3   OH226789   4.666   5.659   6.005
 8949TIP3    H126790   4.708   5.698   6.082
 8949TIP3    H226791   4.602   5.598   6.041
 8950TIP3   OH226792   3.080   3.871   0.380
 8950TIP3    H126793   3.068   3.801   0.317
 8950TIP3    H226794   3.011   3.858   0.445
 8951TIP3   OH226795   7.993   2.274   5.321
 8951TIP3    H126796   8.008   2.219   5.399
 8951TIP3    H226797   8.051   2.349   5.334
 8952TIP3   OH226798   8.007   5.161   5.098
 8952TIP3    H126799   7.979   5.213   5.022
 8952TIP3    H226800   7.974   5.209   5.174
 8953TIP3   OH226801   2.721   5.824   1.358
 8953TIP3    H126802   2.754   5.764   1.425
 8953TIP3    H226803   2.693   5.902   1.407
 8954TIP3   OH226804   2.474   7.175   4.259
 8954TIP3    H126805   2.393   7.147   4.216
 8954TIP3    H226806   2.508   7.245   4.203
 8955TIP3   OH226807   3.097   3.102   0.471
 8955TIP3    H126808   3.174   3.111   0.526
 8955TIP3    H226809   3.042   3.039   0.517
 8956TIP3   OH226810   6.255   3.583   5.020
 8956TIP3    H126811   6.231   3.499   4.981
 8956TIP3    H226812   6.351   3.585   5.014
 8957TIP3   OH226813   0.429   1.661   6.604
 8957TIP3    H126814   0.370   1.736   6.596
 8957TIP3    H226815   0.430   1.622   6.516
 8958TIP3   OH226816   3.773   2.046   6.747
 8958TIP3    H126817   3.740   1.985   6.682
 8958TIP3    H226818   3.769   1.998   6.830
 8959TIP3   OH226819   3.569   3.820   5.049
 8959TIP3    H126820   3.618   3.738   5.056
 8959TIP3    H226821   3.513   3.808   4.972
 8960TIP3   OH226822   3.178   0.724   0.855
 8960TIP3    H126823   3.201   0.699   0.766
 8960TIP3    H226824   3.134   0.809   0.846
 8961TIP3   OH226825   5.656   5.996   5.405
 8961TIP3    H126826   5.745   5.977   5.376
 8961TIP3    H226827   5.618   5.910   5.422
 8962TIP3   OH226828   6.980   6.540   0.424
 8962TIP3    H126829   7.055   6.523   0.367
 8962TIP3    H226830   6.911   6.482   0.391
 8963TIP3   OH226831   5.542   0.843   2.875
 8963TIP3    H126832   5.604   0.770   2.869
 8963TIP3    H226833   5.467   0.807   2.922
 8964TIP3   OH226834   7.544   5.571   4.402
 8964TIP3    H126835   7.589   5.490   4.380
 8964TIP3    H226836   7.587   5.638   4.348
 8965TIP3   OH226837   1.424   5.571   4.025
 8965TIP3    H126838   1.507   5.552   3.979
 8965TIP3    H226839   1.406   5.491   4.075
 8966TIP3   OH226840   3.114   3.396   5.621
 8966TIP3    H126841   3.137   3.458   5.690
 8966TIP3    H226842   3.194   3.390   5.567
 8967TIP3   OH226843   5.753   7.613   0.192
 8967TIP3    H126844   5.769   7.663   0.112
 8967TIP3    H226845   5.670   7.649   0.225
 8968TIP3   OH226846   6.499   2.704   1.105
 8968TIP3    H126847   6.492   2.773   1.170
 8968TIP3    H226848   6.561   2.641   1.145
 8969TIP3   OH226849   5.442   6.106   4.596
 8969TIP3    H126850   5.531   6.114   4.631
 8969TIP3    H226851   5.439   6.017   4.560
 8970TIP3   OH226852   7.129   7.494   6.751
 8970TIP3    H126853   7.186   7.570   6.744
 8970TIP3    H226854   7.053   7.516   6.697
 8971TIP3   OH226855   3.620   2.675   2.602
 8971TIP3    H126856   3.681   2.690   2.530
 8971TIP3    H226857   3.563   2.605   2.571
 8972TIP3   OH226858   6.254   5.916   1.790
 8972TIP3    H126859   6.163   5.902   1.763
 8972TIP3    H226860   6.253   5.904   1.885
 8973TIP3   OH226861   4.044   5.950   4.329
 8973TIP3    H126862   4.105   5.876   4.327
 8973TIP3    H226863   3.976   5.927   4.266
 8974TIP3   OH226864   1.683   1.970   5.036
 8974TIP3    H126865   1.604   2.023   5.048
 8974TIP3    H226866   1.755   2.031   5.052
 8975TIP3   OH226867   5.388   1.713   3.589
 8975TIP3    H126868   5.357   1.622   3.588
 8975TIP3    H226869   5.432   1.724   3.505
 8976TIP3   OH226870   4.358   6.404   4.542
 8976TIP3    H126871   4.301   6.345   4.591
 8976TIP3    H226872   4.446   6.368   4.553
 8977TIP3   OH226873   3.833   0.724   5.330
 8977TIP3    H126874   3.804   0.707   5.240
 8977TIP3    H226875   3.886   0.803   5.324
 8978TIP3   OH226876   1.344   0.290   4.274
 8978TIP3    H126877   1.313   0.363   4.221
 8978TIP3    H226878   1.431   0.270   4.239
 8979TIP3   OH226879   3.944   3.434   6.105
 8979TIP3    H126880   3.904   3.439   6.018
 8979TIP3    H226881   3.870   3.421   6.164
 8980TIP3   OH226882   2.493   2.995   5.470
 8980TIP3    H126883   2.440   2.990   5.550
 8980TIP3    H226884   2.544   2.914   5.470
 8981TIP3   OH226885   3.017   1.769   4.266
 8981TIP3    H126886   2.959   1.836   4.230
 8981TIP3    H226887   2.997   1.690   4.215
 8982TIP3   OH226888   5.104   6.500   0.249
 8982TIP3    H126889   5.164   6.486   0.322
 8982TIP3    H226890   5.030   6.547   0.287
 8983TIP3   OH226891   3.495   3.631   1.970
 8983TIP3    H126892   3.542   3.572   1.911
 8983TIP3    H226893   3.437   3.681   1.913
 8984TIP3   OH226894   1.225   6.269   0.123
 8984TIP3    H126895   1.283   6.315   0.185
 8984TIP3    H226896   1.248   6.177   0.133
 8985TIP3   OH226897   4.270   7.479   0.955
 8985TIP3    H126898   4.217   7.488   0.876
 8985TIP3    H226899   4.248   7.392   0.989
 8986TIP3   OH226900   2.985   1.465   1.281
 8986TIP3    H126901   3.020   1.421   1.359
 8986TIP3    H226902   2.892   1.442   1.280
 8987TIP3   OH226903   8.096   0.988   0.333
 8987TIP3    H126904   8.154   0.913   0.347
 8987TIP3    H226905   8.154   1.062   0.321
 8988TIP3   OH226906   5.771   3.138   4.213
 8988TIP3    H126907   5.819   3.087   4.278
 8988TIP3    H226908   5.691   3.164   4.257
 8989TIP3   OH226909   7.883   3.970   5.921
 8989TIP3    H126910   7.878   4.034   5.992
 8989TIP3    H226911   7.810   3.991   5.864
 8990TIP3   OH226912   2.242   5.008   6.557
 8990TIP3    H126913   2.222   4.993   6.465
 8990TIP3    H226914   2.244   4.920   6.596
 8991TIP3   OH226915   1.634   1.660   1.673
 8991TIP3    H126916   1.648   1.693   1.584
 8991TIP3    H226917   1.562   1.713   1.707
 8992TIP3   OH226918   7.147   2.342   2.900
 8992TIP3    H126919   7.140   2.269   2.838
 8992TIP3    H226920   7.186   2.413   2.849
 8993TIP3   OH226921   0.585   2.389   0.487
 8993TIP3    H126922   0.638   2.335   0.546
 8993TIP3    H226923   0.499   2.392   0.528
 8994TIP3   OH226924   2.133   1.517   4.740
 8994TIP3    H126925   2.110   1.580   4.809
 8994TIP3    H226926   2.085   1.438   4.764
 8995TIP3   OH226927   7.835   2.997   6.440
 8995TIP3    H126928   7.756   2.961   6.481
 8995TIP3    H226929   7.849   3.080   6.485
 8996TIP3   OH226930   7.074   4.151   5.909
 8996TIP3    H126931   7.142   4.105   5.861
 8996TIP3    H226932   7.034   4.210   5.845
 8997TIP3   OH226933   3.218   5.867   1.826
 8997TIP3    H126934   3.279   5.829   1.889
 8997TIP3    H226935   3.238   5.961   1.828
 8998TIP3   OH226936   5.773   1.720   4.656
 8998TIP3    H126937   5.759   1.789   4.722
 8998TIP3    H226938   5.823   1.763   4.587
 8999TIP3   OH226939   5.217   3.815   4.297
 8999TIP3    H126940   5.215   3.774   4.211
 8999TIP3    H226941   5.162   3.759   4.352
 9000TIP3   OH226942   7.183   5.697   2.380
 9000TIP3    H126943   7.101   5.741   2.402
 9000TIP3    H226944   7.201   5.722   2.290
 9001TIP3   OH226945   3.250   2.093   4.677
 9001TIP3    H126946   3.208   2.037   4.613
 9001TIP3    H226947   3.258   2.039   4.756
 9002TIP3   OH226948   5.563   4.811   6.290
 9002TIP3    H126949   5.548   4.852   6.204
 9002TIP3    H226950   5.476   4.785   6.319
 9003TIP3   OH226951   7.716   7.073   1.639
 9003TIP3    H126952   7.770   7.150   1.657
 9003TIP3    H226953   7.672   7.093   1.557
 9004TIP3   OH226954   0.685   6.654   4.452
 9004TIP3    H126955   0.614   6.650   4.515
 9004TIP3    H226956   0.674   6.739   4.409
 9005TIP3   OH226957   7.559   6.382   1.997
 9005TIP3    H126958   7.638   6.353   1.952
 9005TIP3    H226959   7.591   6.440   2.066
 9006TIP3   OH226960   4.364   5.375   0.981
 9006TIP3    H126961   4.459   5.373   0.965
 9006TIP3    H226962   4.325   5.376   0.894
 9007TIP3   OH226963   0.519   5.015   5.834
 9007TIP3    H126964   0.444   4.976   5.879
 9007TIP3    H226965   0.587   5.019   5.902
 9008TIP3   OH226966   1.981   5.894   4.533
 9008TIP3    H126967   2.076   5.902   4.542
 9008TIP3    H226968   1.963   5.929   4.445
 9009TIP3   OH226969   7.231   0.807   4.665
 9009TIP3    H126970   7.304   0.795   4.726
 9009TIP3    H226971   7.153   0.787   4.716
 9010TIP3   OH226972   6.274   1.794   3.735
 9010TIP3    H126973   6.326   1.747   3.799
 9010TIP3    H226974   6.185   1.794   3.771
 9011TIP3   OH226975   4.649   3.942   2.275
 9011TIP3    H126976   4.589   3.997   2.324
 9011TIP3    H226977   4.719   4.002   2.248
 9012TIP3   OH226978   7.668   4.857   5.779
 9012TIP3    H126979   7.696   4.933   5.830
 9012TIP3    H226980   7.740   4.842   5.717
 9013TIP3   OH226981   5.980   6.831   5.474
 9013TIP3    H126982   6.060   6.793   5.511
 9013TIP3    H226983   6.008   6.873   5.393
 9014TIP3   OH226984   5.146   4.586   3.915
 9014TIP3    H126985   5.102   4.501   3.918
 9014TIP3    H226986   5.077   4.648   3.892
 9015TIP3   OH226987   2.817   6.655   2.497
 9015TIP3    H126988   2.788   6.566   2.477
 9015TIP3    H226989   2.900   6.665   2.450
 9016TIP3   OH226990   3.081   2.357   0.894
 9016TIP3    H126991   3.080   2.264   0.871
 9016TIP3    H226992   3.002   2.369   0.946
 9017TIP3   OH226993   1.233   5.996   3.609
 9017TIP3    H126994   1.286   6.069   3.575
 9017TIP3    H226995   1.225   5.936   3.535
 9018TIP3   OH226996   5.907   5.340   0.751
 9018TIP3    H126997   5.858   5.348   0.833
 9018TIP3    H226998   5.948   5.254   0.756
 9019TIP3   OH226999   1.489   0.736   5.955
 9019TIP3    H127000   1.395   0.749   5.940
 9019TIP3    H227001   1.525   0.825   5.959
 9020TIP3   OH227002   3.970   1.972   3.635
 9020TIP3    H127003   4.046   1.990   3.689
 9020TIP3    H227004   3.895   1.980   3.694
 9021TIP3   OH227005   5.908   0.081   4.430
 9021TIP3    H127006   5.931   0.020   4.359
 9021TIP3    H227007   5.843   0.139   4.390
 9022TIP3   OH227008   2.863   6.102   2.190
 9022TIP3    H127009   2.943   6.134   2.149
 9022TIP3    H227010   2.818   6.053   2.121
 9023TIP3   OH227011   0.671   3.682   0.593
 9023TIP3    H127012   0.700   3.696   0.503
 9023TIP3    H227013   0.706   3.596   0.618
 9024TIP3   OH227014   1.214   0.403   2.691
 9024TIP3    H127015   1.233   0.310   2.684
 9024TIP3    H227016   1.299   0.445   2.704
 9025TIP3   OH227017   3.516   6.396   5.971
 9025TIP3    H127018   3.537   6.353   6.054
 9025TIP3    H227019   3.539   6.488   5.985
 9026TIP3   OH227020   5.074   6.134   3.380
 9026TIP3    H127021   5.153   6.081   3.369
 9026TIP3    H227022   5.013   6.079   3.428
 9027TIP3   OH227023   4.593   5.148   0.395
 9027TIP3    H127024   4.554   5.210   0.333
 9027TIP3    H227025   4.644   5.204   0.454
 9028TIP3   OH227026   0.262   5.131   3.837
 9028TIP3    H127027   0.226   5.212   3.800
 9028TIP3    H227028   0.354   5.132   3.813
 9029TIP3   OH227029   6.307   6.648   2.497
 9029TIP3    H127030   6.282   6.637   2.589
 9029TIP3    H227031   6.234   6.697   2.458
 9030TIP3   OH227032   1.257   2.063   1.060
 9030TIP3    H127033   1.164   2.076   1.078
 9030TIP3    H227034   1.264   1.972   1.035
 9031TIP3   OH227035   1.628   6.435   2.639
 9031TIP3    H127036   1.705   6.488   2.662
 9031TIP3    H227037   1.631   6.360   2.699
 9032TIP3   OH227038   3.070   1.084   3.081
 9032TIP3    H127039   3.083   1.098   2.987
 9032TIP3    H227040   3.086   1.170   3.120
 9033TIP3   OH227041   5.357   1.988   2.273
 9033TIP3    H127042   5.413   2.056   2.234
 9033TIP3    H227043   5.269   2.008   2.240
 9034TIP3   OH227044   3.822   4.553   2.612
 9034TIP3    H127045   3.762   4.489   2.572
 9034TIP3    H227046   3.812   4.539   2.706
 9035TIP3   OH227047   4.991   3.905   1.990
 9035TIP3    H127048   4.916   3.938   1.941
 9035TIP3    H227049   5.030   3.839   1.932
 9036TIP3   OH227050   5.722   6.091   2.363
 9036TIP3    H127051   5.727   6.008   2.316
 9036TIP3    H227052   5.809   6.103   2.401
 9037TIP3   OH227053   5.472   7.244   4.991
 9037TIP3    H127054   5.414   7.215   5.061
 9037TIP3    H227055   5.429   7.321   4.954
 9038TIP3   OH227056   0.991   6.248   0.746
 9038TIP3    H127057   1.041   6.170   0.768
 9038TIP3    H227058   0.920   6.249   0.811
 9039TIP3   OH227059   5.375   5.448   1.329
 9039TIP3    H127060   5.378   5.474   1.238
 9039TIP3    H227061   5.452   5.392   1.340
 9040TIP3   OH227062   1.411   0.397   1.462
 9040TIP3    H127063   1.367   0.432   1.384
 9040TIP3    H227064   1.480   0.340   1.427
 9041TIP3   OH227065   4.210   5.875   0.734
 9041TIP3    H127066   4.172   5.940   0.793
 9041TIP3    H227067   4.238   5.925   0.657
 9042TIP3   OH227068   5.978   4.751   0.673
 9042TIP3    H127069   6.022   4.810   0.734
 9042TIP3    H227070   5.977   4.666   0.718
 9043TIP3   OH227071   5.309   1.282   0.161
 9043TIP3    H127072   5.238   1.271   0.099
 9043TIP3    H227073   5.358   1.199   0.156
 9044TIP3   OH227074   5.047   0.486   6.263
 9044TIP3    H127075   5.083   0.431   6.332
 9044TIP3    H227076   4.952   0.482   6.277
 9045TIP3   OH227077   4.501   0.300   3.636
 9045TIP3    H127078   4.543   0.386   3.636
 9045TIP3    H227079   4.466   0.290   3.548
 9046TIP3   OH227080   0.680   6.200   2.556
 9046TIP3    H127081   0.762   6.178   2.513
 9046TIP3    H227082   0.622   6.125   2.538
 9047TIP3   OH227083   1.624   1.648   1.410
 9047TIP3    H127084   1.652   1.583   1.345
 9047TIP3    H227085   1.528   1.645   1.406
 9048TIP3   OH227086   0.764   6.152   3.105
 9048TIP3    H127087   0.772   6.162   3.200
 9048TIP3    H227088   0.715   6.071   3.093
 9049TIP3   OH227089   5.675   4.694   3.173
 9049TIP3    H127090   5.678   4.650   3.087
 9049TIP3    H227091   5.586   4.678   3.204
 9050TIP3   OH227092   3.984   4.458   0.327
 9050TIP3    H127093   3.956   4.434   0.415
 9050TIP3    H227094   3.946   4.392   0.270
 9051TIP3   OH227095   5.483   1.709   0.720
 9051TIP3    H127096   5.408   1.733   0.666
 9051TIP3    H227097   5.445   1.672   0.799
 9052TIP3   OH227098   0.111   2.237   6.222
 9052TIP3    H127099   0.130   2.193   6.304
 9052TIP3    H227100   0.194   2.240   6.175
 9053TIP3   OH227101   0.457   2.041   5.578
 9053TIP3    H127102   0.499   2.043   5.492
 9053TIP3    H227103   0.374   2.089   5.565
 9054TIP3   OH227104   1.314   7.034   1.698
 9054TIP3    H127105   1.366   7.098   1.648
 9054TIP3    H227106   1.371   7.009   1.771
 9055TIP3   OH227107   4.442   6.918   4.700
 9055TIP3    H127108   4.413   6.828   4.713
 9055TIP3    H227109   4.524   6.911   4.653
 9056TIP3   OH227110   4.289   0.861   0.653
 9056TIP3    H127111   4.285   0.766   0.642
 9056TIP3    H227112   4.230   0.896   0.587
 9057TIP3   OH227113   5.289   7.737   1.932
 9057TIP3    H127114   5.232   7.698   1.999
 9057TIP3    H227115   5.363   7.677   1.926
 9058TIP3   OH227116   2.222   4.651   6.027
 9058TIP3    H127117   2.260   4.592   5.961
 9058TIP3    H227118   2.292   4.714   6.046
 9059TIP3   OH227119   2.561   7.044   2.575
 9059TIP3    H127120   2.615   7.091   2.638
 9059TIP3    H227121   2.472   7.051   2.609
 9060TIP3   OH227122   3.490   4.404   3.143
 9060TIP3    H127123   3.419   4.340   3.142
 9060TIP3    H227124   3.500   4.430   3.052
 9061TIP3   OH227125   4.290   1.198   0.372
 9061TIP3    H127126   4.338   1.280   0.385
 9061TIP3    H227127   4.240   1.187   0.453
 9062TIP3   OH227128   3.141   7.524   4.424
 9062TIP3    H127129   3.206   7.542   4.356
 9062TIP3    H227130   3.149   7.431   4.443
 9063TIP3   OH227131   6.132   1.618   0.986
 9063TIP3    H127132   6.131   1.632   0.891
 9063TIP3    H227133   6.214   1.658   1.015
 9064TIP3   OH227134   0.884   4.432   2.465
 9064TIP3    H127135   0.975   4.444   2.437
 9064TIP3    H227136   0.844   4.518   2.452
 9065TIP3   OH227137   6.123   5.036   3.957
 9065TIP3    H127138   6.080   4.962   3.999
 9065TIP3    H227139   6.086   5.038   3.869
 9066TIP3   OH227140   6.224   6.375   1.361
 9066TIP3    H127141   6.137   6.365   1.324
 9066TIP3    H227142   6.212   6.434   1.436
 9067TIP3   OH227143   7.326   3.691   4.230
 9067TIP3    H127144   7.287   3.720   4.312
 9067TIP3    H227145   7.263   3.717   4.163
 9068TIP3   OH227146   0.275   3.203   1.941
 9068TIP3    H127147   0.258   3.127   1.996
 9068TIP3    H227148   0.217   3.271   1.976
 9069TIP3   OH227149   4.400   4.433   6.444
 9069TIP3    H127150   4.484   4.467   6.475
 9069TIP3    H227151   4.408   4.431   6.349
 9070TIP3   OH227152   0.967   4.630   2.219
 9070TIP3    H127153   0.909   4.675   2.279
 9070TIP3    H227154   0.917   4.554   2.189
 9071TIP3   OH227155   1.754   7.431   3.615
 9071TIP3    H127156   1.773   7.507   3.561
 9071TIP3    H227157   1.673   7.395   3.579
 9072TIP3   OH227158   0.401   2.470   2.048
 9072TIP3    H127159   0.459   2.545   2.062
 9072TIP3    H227160   0.455   2.406   2.000
 9073TIP3   OH227161   6.495   2.239   3.316
 9073TIP3    H127162   6.405   2.225   3.288
 9073TIP3    H227163   6.502   2.193   3.399
 9074TIP3   OH227164   1.783   1.037   2.965
 9074TIP3    H127165   1.807   0.970   2.900
 9074TIP3    H227166   1.804   0.998   3.049
 9075TIP3   OH227167   5.598   2.959   6.028
 9075TIP3    H127168   5.687   2.930   6.005
 9075TIP3    H227169   5.545   2.880   6.023
 9076TIP3   OH227170   2.495   1.946   6.648
 9076TIP3    H127171   2.538   1.867   6.617
 9076TIP3    H227172   2.499   1.940   6.744
 9077TIP3   OH227173   4.941   4.962   0.936
 9077TIP3    H127174   4.923   4.895   0.870
 9077TIP3    H227175   5.034   4.951   0.957
 9078TIP3   OH227176   4.340   0.326   3.124
 9078TIP3    H127177   4.383   0.411   3.127
 9078TIP3    H227178   4.302   0.321   3.036
 9079TIP3   OH227179   7.570   4.012   6.347
 9079TIP3    H127180   7.478   4.018   6.373
 9079TIP3    H227181   7.609   3.953   6.411
 9080TIP3   OH227182   6.136   7.713   6.084
 9080TIP3    H127183   6.118   7.800   6.049
 9080TIP3    H227184   6.217   7.686   6.039
 9081TIP3   OH227185   5.986   1.761   3.831
 9081TIP3    H127186   5.921   1.800   3.890
 9081TIP3    H227187   5.970   1.667   3.837
 9082TIP3   OH227188   3.563   1.719   1.432
 9082TIP3    H127189   3.484   1.689   1.385
 9082TIP3    H227190   3.635   1.696   1.374
 9083TIP3   OH227191   2.207   2.311   2.425
 9083TIP3    H127192   2.225   2.402   2.405
 9083TIP3    H227193   2.292   2.275   2.449
 9084TIP3   OH227194   4.948   6.623   3.989
 9084TIP3    H127195   4.928   6.540   4.033
 9084TIP3    H227196   4.880   6.683   4.020
 9085TIP3   OH227197   0.159   6.006   0.881
 9085TIP3    H127198   0.207   6.057   0.815
 9085TIP3    H227199   0.076   6.054   0.891
 9086TIP3   OH227200   7.104   6.811   2.928
 9086TIP3    H127201   7.134   6.735   2.976
 9086TIP3    H227202   7.025   6.840   2.974
 9087TIP3   OH227203   7.482   5.310   0.666
 9087TIP3    H127204   7.480   5.223   0.626
 9087TIP3    H227205   7.573   5.337   0.660
 9088TIP3   OH227206   5.598   2.152   5.439
 9088TIP3    H127207   5.544   2.123   5.512
 9088TIP3    H227208   5.662   2.211   5.478
 9089TIP3   OH227209   1.018   0.519   3.435
 9089TIP3    H127210   0.956   0.446   3.437
 9089TIP3    H227211   1.098   0.485   3.475
 9090TIP3   OH227212   2.399   1.634   5.563
 9090TIP3    H127213   2.376   1.713   5.612
 9090TIP3    H227214   2.373   1.562   5.621
 9091TIP3   OH227215   5.826   5.228   5.798
 9091TIP3    H127216   5.905   5.208   5.748
 9091TIP3    H227217   5.797   5.142   5.831
 9092TIP3   OH227218   8.067   3.245   6.094
 9092TIP3    H127219   8.115   3.197   6.027
 9092TIP3    H227220   8.021   3.314   6.046
 9093TIP3   OH227221   8.156   4.437   3.038
 9093TIP3    H127222   8.145   4.498   2.965
 9093TIP3    H227223   8.199   4.360   3.000
 9094TIP3   OH227224   2.501   3.798   6.635
 9094TIP3    H127225   2.564   3.793   6.563
 9094TIP3    H227226   2.493   3.708   6.666
 9095TIP3   OH227227   4.146   4.510   0.113
 9095TIP3    H127228   4.104   4.475   0.192
 9095TIP3    H227229   4.237   4.526   0.139
 9096TIP3   OH227230   5.293   0.069   6.626
 9096TIP3    H127231   5.354   0.118   6.571
 9096TIP3    H227232   5.274   0.127   6.699
 9097TIP3   OH227233   7.484   1.319   1.279
 9097TIP3    H127234   7.488   1.287   1.189
 9097TIP3    H227235   7.519   1.408   1.274
 9098TIP3   OH227236   0.649   6.798   3.969
 9098TIP3    H127237   0.689   6.882   3.991
 9098TIP3    H227238   0.676   6.740   4.040
 9099TIP3   OH227239   1.016   0.058   4.099
 9099TIP3    H127240   1.024   0.152   4.083
 9099TIP3    H227241   0.988   0.051   4.191
 9100TIP3   OH227242   4.885   0.770   2.215
 9100TIP3    H127243   4.974   0.803   2.232
 9100TIP3    H227244   4.898   0.690   2.165
 9101TIP3   OH227245   2.563   6.039   4.879
 9101TIP3    H127246   2.638   6.071   4.829
 9101TIP3    H227247   2.488   6.087   4.844
 9102TIP3   OH227248   5.429   7.241   2.266
 9102TIP3    H127249   5.387   7.300   2.328
 9102TIP3    H227250   5.364   7.174   2.248
 9103TIP3   OH227251   3.732   3.156   4.215
 9103TIP3    H127252   3.715   3.063   4.203
 9103TIP3    H227253   3.647   3.198   4.204
 9104TIP3   OH227254   1.394   6.762   6.349
 9104TIP3    H127255   1.482   6.730   6.367
 9104TIP3    H227256   1.408   6.846   6.306
 9105TIP3   OH227257   4.637   4.674   1.606
 9105TIP3    H127258   4.697   4.604   1.634
 9105TIP3    H227259   4.573   4.680   1.676
 9106TIP3   OH227260   3.071   7.458   6.456
 9106TIP3    H127261   3.073   7.512   6.535
 9106TIP3    H227262   2.982   7.468   6.422
 9107TIP3   OH227263   3.312   3.838   0.621
 9107TIP3    H127264   3.244   3.833   0.553
 9107TIP3    H227265   3.312   3.752   0.662
 9108TIP3   OH227266   5.283   2.452   5.749
 9108TIP3    H127267   5.343   2.418   5.816
 9108TIP3    H227268   5.207   2.483   5.797
 9109TIP3   OH227269   2.222   4.490   5.557
 9109TIP3    H127270   2.156   4.558   5.547
 9109TIP3    H227271   2.175   4.408   5.542
 9110TIP3   OH227272   4.857   3.675   0.092
 9110TIP3    H127273   4.949   3.699   0.084
 9110TIP3    H227274   4.811   3.736   0.034
 9111TIP3   OH227275   0.088   1.090   4.110
 9111TIP3    H127276   0.053   1.059   4.194
 9111TIP3    H227277   0.018   1.073   4.047
 9112TIP3   OH227278   2.718   1.543   1.957
 9112TIP3    H127279   2.656   1.470   1.959
 9112TIP3    H227280   2.707   1.586   2.042
 9113TIP3   OH227281   2.174   3.509   6.642
 9113TIP3    H127282   2.150   3.572   6.710
 9113TIP3    H227283   2.213   3.436   6.691
 9114TIP3   OH227284   4.730   6.959   0.088
 9114TIP3    H127285   4.714   6.901   0.163
 9114TIP3    H227286   4.792   6.911   0.034
 9115TIP3   OH227287   4.638   0.190   4.409
 9115TIP3    H127288   4.731   0.212   4.409
 9115TIP3    H227289   4.637   0.094   4.419
 9116TIP3   OH227290   3.948   4.735   0.253
 9116TIP3    H127291   4.027   4.779   0.286
 9116TIP3    H227292   3.967   4.641   0.264
 9117TIP3   OH227293   8.270   4.847   2.423
 9117TIP3    H127294   8.240   4.920   2.477
 9117TIP3    H227295   8.237   4.769   2.468
 9118TIP3   OH227296   8.253   3.697   3.643
 9118TIP3    H127297   8.261   3.690   3.547
 9118TIP3    H227298   8.220   3.786   3.657
 9119TIP3   OH227299   5.746   3.978   3.603
 9119TIP3    H127300   5.751   3.992   3.698
 9119TIP3    H227301   5.821   3.922   3.583
 9120TIP3   OH227302   7.112   4.393   1.581
 9120TIP3    H127303   7.157   4.318   1.620
 9120TIP3    H227304   7.111   4.374   1.487
 9121TIP3   OH227305   3.119   4.688   6.303
 9121TIP3    H127306   3.089   4.627   6.370
 9121TIP3    H227307   3.144   4.766   6.352
 9122TIP3   OH227308   6.930   6.766   3.664
 9122TIP3    H127309   6.978   6.785   3.745
 9122TIP3    H227310   6.874   6.842   3.651
 9123TIP3   OH227311   4.519   1.012   1.830
 9123TIP3    H127312   4.515   0.921   1.860
 9123TIP3    H227313   4.465   1.061   1.892
 9124TIP3   OH227314   3.036   5.161   3.066
 9124TIP3    H127315   2.998   5.101   3.130
 9124TIP3    H227316   3.123   5.125   3.048
 9125TIP3   OH227317   7.336   6.146   0.564
 9125TIP3    H127318   7.276   6.079   0.532
 9125TIP3    H227319   7.411   6.097   0.598
 9126TIP3   OH227320   3.817   6.190   2.942
 9126TIP3    H127321   3.838   6.237   3.023
 9126TIP3    H227322   3.722   6.201   2.933
 9127TIP3   OH227323   8.135   1.292   6.529
 9127TIP3    H127324   8.170   1.327   6.611
 9127TIP3    H227325   8.040   1.297   6.539
 9128TIP3   OH227326   0.328   2.926   5.394
 9128TIP3    H127327   0.326   2.923   5.489
 9128TIP3    H227328   0.263   2.993   5.371
 9129TIP3   OH227329   6.577   5.898   4.723
 9129TIP3    H127330   6.561   5.841   4.799
 9129TIP3    H227331   6.490   5.917   4.690
 9130TIP3   OH227332   1.679   7.191   3.466
 9130TIP3    H127333   1.720   7.221   3.385
 9130TIP3    H227334   1.588   7.175   3.442
 9131TIP3   OH227335   1.273  -0.006   6.369
 9131TIP3    H127336   1.221   0.055   6.422
 9131TIP3    H227337   1.352   0.044   6.347
 9132TIP3   OH227338   4.626   1.583   2.006
 9132TIP3    H127339   4.677   1.636   1.944
 9132TIP3    H227340   4.585   1.516   1.951
 9133TIP3   OH227341   5.892   6.778   1.083
 9133TIP3    H127342   5.916   6.858   1.036
 9133TIP3    H227343   5.976   6.743   1.114
 9134TIP3   OH227344   1.972   2.416   4.083
 9134TIP3    H127345   1.950   2.508   4.093
 9134TIP3    H227346   1.903   2.381   4.025
 9135TIP3   OH227347   3.379   1.182   4.253
 9135TIP3    H127348   3.371   1.267   4.296
 9135TIP3    H227349   3.364   1.118   4.323
 9136TIP3   OH227350   0.889   3.374   4.524
 9136TIP3    H127351   0.920   3.350   4.437
 9136TIP3    H227352   0.969   3.391   4.574
 9137TIP3   OH227353   1.739   5.323   5.681
 9137TIP3    H127354   1.832   5.304   5.688
 9137TIP3    H227355   1.696   5.239   5.693
 9138TIP3   OH227356   7.177   3.938   0.823
 9138TIP3    H127357   7.266   3.934   0.858
 9138TIP3    H227358   7.188   3.960   0.731
 9139TIP3   OH227359   6.742   5.546   4.736
 9139TIP3    H127360   6.832   5.545   4.769
 9139TIP3    H227361   6.743   5.610   4.665
 9140TIP3   OH227362   5.207   1.450   1.378
 9140TIP3    H127363   5.209   1.499   1.295
 9140TIP3    H227364   5.185   1.515   1.444
 9141TIP3   OH227365   0.231   1.853   6.748
 9141TIP3    H127366   0.244   1.939   6.708
 9141TIP3    H227367   0.248   1.867   6.842
 9142TIP3   OH227368   4.254   1.247   4.271
 9142TIP3    H127369   4.207   1.326   4.242
 9142TIP3    H227370   4.263   1.194   4.192
 9143TIP3   OH227371   2.315   0.618   0.993
 9143TIP3    H127372   2.383   0.555   0.972
 9143TIP3    H227373   2.354   0.675   1.059
 9144TIP3   OH227374   8.059   2.481   3.394
 9144TIP3    H127375   8.060   2.557   3.337
 9144TIP3    H227376   8.053   2.517   3.483
 9145TIP3   OH227377   1.912   0.627   0.227
 9145TIP3    H127378   1.846   0.577   0.178
 9145TIP3    H227379   1.866   0.657   0.305
 9146TIP3   OH227380   4.079   2.062   1.122
 9146TIP3    H127381   4.159   2.038   1.170
 9146TIP3    H227382   4.020   2.095   1.189
 9147TIP3   OH227383   7.516   6.093   3.473
 9147TIP3    H127384   7.565   6.052   3.403
 9147TIP3    H227385   7.446   6.031   3.494
 9148TIP3   OH227386   3.588   1.651   5.558
 9148TIP3    H127387   3.526   1.640   5.631
 9148TIP3    H227388   3.536   1.635   5.480
 9149TIP3   OH227389   7.336   6.176   4.515
 9149TIP3    H127390   7.269   6.144   4.575
 9149TIP3    H227391   7.389   6.099   4.495
 9150TIP3   OH227392   0.408   3.319   4.823
 9150TIP3    H127393   0.404   3.251   4.890
 9150TIP3    H227394   0.482   3.294   4.768
 9151TIP3   OH227395   3.326   4.264   5.628
 9151TIP3    H127396   3.337   4.359   5.627
 9151TIP3    H227397   3.276   4.245   5.548
 9152TIP3   OH227398   2.528   2.728   4.269
 9152TIP3    H127399   2.521   2.808   4.217
 9152TIP3    H227400   2.464   2.669   4.229
 9153TIP3   OH227401   1.733   5.891   1.529
 9153TIP3    H127402   1.777   5.915   1.447
 9153TIP3    H227403   1.721   5.974   1.575
 9154TIP3   OH227404   3.150   5.979   5.544
 9154TIP3    H127405   3.241   5.949   5.540
 9154TIP3    H227406   3.153   6.069   5.513
 9155TIP3   OH227407   4.791   5.049   1.152
 9155TIP3    H127408   4.836   5.041   1.067
 9155TIP3    H227409   4.736   4.971   1.157
 9156TIP3   OH227410   5.240   4.933   6.136
 9156TIP3    H127411   5.205   4.850   6.104
 9156TIP3    H227412   5.222   4.995   6.065
 9157TIP3   OH227413   2.674   2.797   5.449
 9157TIP3    H127414   2.726   2.875   5.431
 9157TIP3    H227415   2.722   2.725   5.409
 9158TIP3   OH227416   7.930   6.511   1.861
 9158TIP3    H127417   7.926   6.513   1.766
 9158TIP3    H227418   7.844   6.481   1.889
 9159TIP3   OH227419   1.355   1.998   2.560
 9159TIP3    H127420   1.450   1.988   2.569
 9159TIP3    H227421   1.322   1.908   2.556
 9160TIP3   OH227422   0.342   3.620   1.221
 9160TIP3    H127423   0.262   3.654   1.182
 9160TIP3    H227424   0.399   3.600   1.147
 9161TIP3   OH227425   8.125   0.236   4.703
 9161TIP3    H127426   8.142   0.187   4.783
 9161TIP3    H227427   8.063   0.182   4.654
 9162TIP3   OH227428   3.175   0.279   3.348
 9162TIP3    H127429   3.243   0.247   3.407
 9162TIP3    H227430   3.111   0.207   3.344
 9163TIP3   OH227431   1.229   0.807   5.860
 9163TIP3    H127432   1.170   0.770   5.926
 9163TIP3    H227433   1.173   0.864   5.807
 9164TIP3   OH227434   0.792   4.601   6.516
 9164TIP3    H127435   0.720   4.605   6.579
 9164TIP3    H227436   0.760   4.648   6.440
 9165TIP3   OH227437   6.078   3.467   2.123
 9165TIP3    H127438   6.154   3.524   2.122
 9165TIP3    H227439   6.102   3.395   2.180
 9166TIP3   OH227440   6.506   0.202   3.876
 9166TIP3    H127441   6.570   0.230   3.812
 9166TIP3    H227442   6.427   0.183   3.825
 9167TIP3   OH227443   7.652   7.129   5.819
 9167TIP3    H127444   7.734   7.108   5.863
 9167TIP3    H227445   7.667   7.215   5.780
 9168TIP3   OH227446   3.913   2.059   6.147
 9168TIP3    H127447   3.938   2.017   6.065
 9168TIP3    H227448   3.846   2.122   6.122
 9169TIP3   OH227449   5.343   6.693   3.172
 9169TIP3    H127450   5.350   6.625   3.240
 9169TIP3    H227451   5.269   6.747   3.199
 9170TIP3   OH227452   1.235   1.778   5.718
 9170TIP3    H127453   1.168   1.786   5.649
 9170TIP3    H227454   1.304   1.838   5.691
 9171TIP3   OH227455   3.870   4.140   6.602
 9171TIP3    H127456   3.790   4.091   6.581
 9171TIP3    H227457   3.941   4.077   6.586
 9172TIP3   OH227458   0.217   0.434   4.811
 9172TIP3    H127459   0.217   0.393   4.725
 9172TIP3    H227460   0.187   0.524   4.795
 9173TIP3   OH227461   7.725   2.584   5.091
 9173TIP3    H127462   7.802   2.635   5.063
 9173TIP3    H227463   7.651   2.643   5.075
 9174TIP3   OH227464   6.575   5.508   5.497
 9174TIP3    H127465   6.585   5.584   5.555
 9174TIP3    H227466   6.656   5.458   5.510
 9175TIP3   OH227467   2.109   0.666   5.269
 9175TIP3    H127468   2.188   0.700   5.229
 9175TIP3    H227469   2.069   0.742   5.312
 9176TIP3   OH227470   5.298   4.016   3.612
 9176TIP3    H127471   5.217   4.048   3.572
 9176TIP3    H227472   5.356   4.000   3.538
 9177TIP3   OH227473   6.014   2.862   0.555
 9177TIP3    H127474   5.934   2.895   0.595
 9177TIP3    H227475   6.013   2.768   0.572
 9178TIP3   OH227476   2.545   6.813   5.529
 9178TIP3    H127477   2.630   6.779   5.555
 9178TIP3    H227478   2.546   6.809   5.433
 9179TIP3   OH227479   6.146   3.471   0.762
 9179TIP3    H127480   6.212   3.453   0.694
 9179TIP3    H227481   6.172   3.415   0.835
 9180TIP3   OH227482   2.822   1.296   6.766
 9180TIP3    H127483   2.883   1.370   6.767
 9180TIP3    H227484   2.794   1.290   6.675
 9181TIP3   OH227485   5.958   2.674   2.615
 9181TIP3    H127486   5.974   2.604   2.679
 9181TIP3    H227487   5.867   2.663   2.589
 9182TIP3   OH227488   5.142   5.254   4.128
 9182TIP3    H127489   5.229   5.216   4.120
 9182TIP3    H227490   5.126   5.296   4.044
 9183TIP3   OH227491   2.265   2.144   6.229
 9183TIP3    H127492   2.342   2.137   6.285
 9183TIP3    H227493   2.217   2.220   6.263
 9184TIP3   OH227494   0.749   5.371   6.628
 9184TIP3    H127495   0.689   5.415   6.688
 9184TIP3    H227496   0.709   5.383   6.542
 9185TIP3   OH227497   2.941   6.016   0.906
 9185TIP3    H127498   2.951   5.951   0.976
 9185TIP3    H227499   3.031   6.031   0.876
 9186TIP3   OH227500   2.113   1.280   2.036
 9186TIP3    H127501   2.179   1.246   1.976
 9186TIP3    H227502   2.163   1.319   2.108
 9187TIP3   OH227503   2.257   0.919   2.815
 9187TIP3    H127504   2.287   1.010   2.815
 9187TIP3    H227505   2.337   0.867   2.826
 9188TIP3   OH227506   1.277   2.486   1.591
 9188TIP3    H127507   1.306   2.540   1.665
 9188TIP3    H227508   1.355   2.477   1.536
 9189TIP3   OH227509   7.770   2.244   0.714
 9189TIP3    H127510   7.710   2.196   0.771
 9189TIP3    H227511   7.760   2.336   0.740
 9190TIP3   OH227512   7.923   2.243   6.370
 9190TIP3    H127513   7.996   2.270   6.314
 9190TIP3    H227514   7.931   2.298   6.448
 9191TIP3   OH227515   1.374   5.579   5.519
 9191TIP3    H127516   1.397   5.620   5.602
 9191TIP3    H227517   1.454   5.537   5.489
 9192TIP3   OH227518   7.980   5.340   3.390
 9192TIP3    H127519   8.025   5.255   3.387
 9192TIP3    H227520   7.934   5.339   3.473
 9193TIP3   OH227521   6.386   2.521   4.991
 9193TIP3    H127522   6.351   2.444   5.035
 9193TIP3    H227523   6.454   2.486   4.933
 9194TIP3   OH227524   2.224   6.938   0.549
 9194TIP3    H127525   2.254   6.972   0.465
 9194TIP3    H227526   2.142   6.892   0.529
 9195TIP3   OH227527   0.732   6.406   1.895
 9195TIP3    H127528   0.763   6.367   1.976
 9195TIP3    H227529   0.726   6.500   1.914
 9196TIP3   OH227530   4.664   0.435   0.763
 9196TIP3    H127531   4.650   0.385   0.683
 9196TIP3    H227532   4.741   0.396   0.804
 9197TIP3   OH227533   1.178   2.244   0.744
 9197TIP3    H127534   1.214   2.294   0.818
 9197TIP3    H227535   1.083   2.243   0.760
 9198TIP3   OH227536   1.559   3.789   5.070
 9198TIP3    H127537   1.498   3.779   4.996
 9198TIP3    H227538   1.645   3.795   5.030
 9199TIP3   OH227539   0.620   3.231   5.710
 9199TIP3    H127540   0.580   3.314   5.684
 9199TIP3    H227541   0.690   3.256   5.770
 9200TIP3   OH227542   6.579   7.424   3.835
 9200TIP3    H127543   6.521   7.358   3.798
 9200TIP3    H227544   6.628   7.458   3.760
 9201TIP3   OH227545   0.263   0.475   5.124
 9201TIP3    H127546   0.291   0.560   5.089
 9201TIP3    H227547   0.257   0.489   5.218
 9202TIP3   OH227548   3.415   5.418   2.484
 9202TIP3    H127549   3.511   5.415   2.476
 9202TIP3    H227550   3.399   5.407   2.577
 9203TIP3   OH227551   7.388   0.720   6.111
 9203TIP3    H127552   7.420   0.751   6.196
 9203TIP3    H227553   7.372   0.799   6.061
 9204TIP3   OH227554   1.453   5.253   3.418
 9204TIP3    H127555   1.500   5.278   3.338
 9204TIP3    H227556   1.496   5.302   3.488
 9205TIP3   OH227557   7.807   1.739   1.775
 9205TIP3    H127558   7.784   1.743   1.682
 9205TIP3    H227559   7.776   1.821   1.811
 9206TIP3   OH227560   1.632   0.216   0.786
 9206TIP3    H127561   1.594   0.303   0.800
 9206TIP3    H227562   1.557   0.159   0.773
 9207TIP3   OH227563   7.378   0.610   6.575
 9207TIP3    H127564   7.423   0.530   6.549
 9207TIP3    H227565   7.364   0.599   6.670
 9208TIP3   OH227566   3.356   6.153   1.805
 9208TIP3    H127567   3.350   6.178   1.712
 9208TIP3    H227568   3.354   6.235   1.852
 9209TIP3   OH227569   1.871   4.905   4.247
 9209TIP3    H127570   1.831   4.911   4.160
 9209TIP3    H227571   1.820   4.967   4.300
 9210TIP3   OH227572   6.121   0.568   1.666
 9210TIP3    H127573   6.084   0.588   1.752
 9210TIP3    H227574   6.204   0.525   1.686
 9211TIP3   OH227575   3.953   7.725   3.956
 9211TIP3    H127576   3.859   7.729   3.944
 9211TIP3    H227577   3.971   7.786   4.027
 9212TIP3   OH227578   6.594   1.316   3.579
 9212TIP3    H127579   6.498   1.315   3.582
 9212TIP3    H227580   6.616   1.366   3.501
 9213TIP3   OH227581   4.838   4.272   2.844
 9213TIP3    H127582   4.826   4.238   2.932
 9213TIP3    H227583   4.802   4.204   2.787
 9214TIP3   OH227584   5.274   6.968   2.576
 9214TIP3    H127585   5.351   6.930   2.620
 9214TIP3    H227586   5.202   6.908   2.597
 9215TIP3   OH227587   4.886   4.406   2.586
 9215TIP3    H127588   4.914   4.360   2.664
 9215TIP3    H227589   4.791   4.394   2.584
 9216TIP3   OH227590   5.784   5.329   3.804
 9216TIP3    H127591   5.783   5.312   3.710
 9216TIP3    H227592   5.867   5.375   3.820
 9217TIP3   OH227593   0.694   5.338   5.807
 9217TIP3    H127594   0.668   5.287   5.730
 9217TIP3    H227595   0.727   5.420   5.771
 9218TIP3   OH227596   4.261   1.626   5.567
 9218TIP3    H127597   4.222   1.699   5.519
 9218TIP3    H227598   4.194   1.601   5.631
 9219TIP3   OH227599   5.320   7.112   5.165
 9219TIP3    H127600   5.394   7.053   5.151
 9219TIP3    H227601   5.266   7.067   5.230
 9220TIP3   OH227602   5.945   2.516   1.144
 9220TIP3    H127603   5.887   2.592   1.156
 9220TIP3    H227604   6.021   2.550   1.097
 9221TIP3   OH227605   7.091   1.671   5.220
 9221TIP3    H127606   7.104   1.681   5.314
 9221TIP3    H227607   7.141   1.742   5.181
 9222TIP3   OH227608   3.564   4.694   2.361
 9222TIP3    H127609   3.562   4.653   2.448
 9222TIP3    H227610   3.514   4.774   2.371
 9223TIP3   OH227611   7.351   2.985   2.624
 9223TIP3    H127612   7.346   2.988   2.719
 9223TIP3    H227613   7.379   3.073   2.598
 9224TIP3   OH227614   0.890   1.795   4.639
 9224TIP3    H127615   0.818   1.781   4.701
 9224TIP3    H227616   0.961   1.740   4.672
 9225TIP3   OH227617   2.163   3.618   0.632
 9225TIP3    H127618   2.236   3.559   0.652
 9225TIP3    H227619   2.205   3.695   0.593
 9226TIP3   OH227620   1.844   3.627   6.568
 9226TIP3    H127621   1.795   3.665   6.495
 9226TIP3    H227622   1.916   3.580   6.527
 9227TIP3   OH227623   4.402   0.368   2.167
 9227TIP3    H127624   4.397   0.461   2.141
 9227TIP3    H227625   4.373   0.320   2.089
 9228TIP3   OH227626   3.351   3.267   1.529
 9228TIP3    H127627   3.347   3.176   1.555
 9228TIP3    H227628   3.265   3.285   1.490
 9229TIP3   OH227629   5.055   5.433   6.715
 9229TIP3    H127630   5.047   5.513   6.766
 9229TIP3    H227631   5.125   5.384   6.757
 9230TIP3   OH227632   3.351   4.499   1.144
 9230TIP3    H127633   3.446   4.500   1.134
 9230TIP3    H227634   3.336   4.462   1.231
 9231TIP3   OH227635   2.110   5.404   4.635
 9231TIP3    H127636   2.205   5.410   4.628
 9231TIP3    H227637   2.091   5.311   4.619
 9232TIP3   OH227638   8.217   7.765   2.870
 9232TIP3    H127639   8.291   7.811   2.909
 9232TIP3    H227640   8.225   7.675   2.903
 9233TIP3   OH227641   0.208   1.482   4.299
 9233TIP3    H127642   0.225   1.388   4.310
 9233TIP3    H227643   0.221   1.519   4.386
 9234TIP3   OH227644   8.236   1.811   0.958
 9234TIP3    H127645   8.270   1.753   0.889
 9234TIP3    H227646   8.304   1.810   1.025
 9235TIP3   OH227647   5.478   6.319   3.205
 9235TIP3    H127648   5.542   6.290   3.141
 9235TIP3    H227649   5.398   6.270   3.184
 9236TIP3   OH227650   0.410   2.740   0.131
 9236TIP3    H127651   0.325   2.725   0.091
 9236TIP3    H227652   0.473   2.702   0.070
 9237TIP3   OH227653   7.429   6.044   6.339
 9237TIP3    H127654   7.412   6.050   6.433
 9237TIP3    H227655   7.462   6.130   6.315
 9238TIP3   OH227656   6.423   3.833   4.184
 9238TIP3    H127657   6.398   3.749   4.222
 9238TIP3    H227658   6.398   3.897   4.251
 9239TIP3   OH227659   5.276   7.575   0.636
 9239TIP3    H127660   5.195   7.618   0.609
 9239TIP3    H227661   5.280   7.495   0.583
 9240TIP3   OH227662   5.791   5.096   4.876
 9240TIP3    H127663   5.833   5.135   4.799
 9240TIP3    H227664   5.791   5.166   4.941
 9241TIP3   OH227665   2.112   3.997   0.244
 9241TIP3    H127666   2.063   3.929   0.290
 9241TIP3    H227667   2.087   4.079   0.287
 9242TIP3   OH227668   7.455   1.078   1.620
 9242TIP3    H127669   7.384   1.142   1.620
 9242TIP3    H227670   7.514   1.108   1.689
 9243TIP3   OH227671   1.647   3.867   2.150
 9243TIP3    H127672   1.718   3.868   2.215
 9243TIP3    H227673   1.575   3.823   2.194
 9244TIP3   OH227674   3.840   2.409   5.317
 9244TIP3    H127675   3.843   2.329   5.265
 9244TIP3    H227676   3.800   2.384   5.400
 9245TIP3   OH227677   0.776   4.514   0.760
 9245TIP3    H127678   0.758   4.588   0.702
 9245TIP3    H227679   0.868   4.494   0.745
 9246TIP3   OH227680   4.968   6.441   1.210
 9246TIP3    H127681   4.974   6.528   1.250
 9246TIP3    H227682   4.940   6.383   1.281
 9247TIP3   OH227683   4.864   5.205   3.085
 9247TIP3    H127684   4.832   5.216   2.996
 9247TIP3    H227685   4.793   5.162   3.132
 9248TIP3   OH227686   3.540   3.641   3.733
 9248TIP3    H127687   3.629   3.645   3.767
 9248TIP3    H227688   3.488   3.695   3.793
 9249TIP3   OH227689   0.703   0.223   4.919
 9249TIP3    H127690   0.720   0.298   4.976
 9249TIP3    H227691   0.789   0.199   4.885
 9250TIP3   OH227692   4.122   0.806   0.321
 9250TIP3    H127693   4.094   0.820   0.231
 9250TIP3    H227694   4.091   0.884   0.367
 9251TIP3   OH227695   0.061   6.255   5.540
 9251TIP3    H127696   0.033   6.239   5.630
 9251TIP3    H227697   0.007   6.329   5.511
 9252TIP3   OH227698   7.806   6.863   4.808
 9252TIP3    H127699   7.795   6.772   4.781
 9252TIP3    H227700   7.896   6.869   4.839
 9253TIP3   OH227701   2.009   7.142   2.831
 9253TIP3    H127702   1.961   7.067   2.797
 9253TIP3    H227703   1.964   7.165   2.912
 9254TIP3   OH227704   6.733   6.410   2.256
 9254TIP3    H127705   6.773   6.444   2.336
 9254TIP3    H227706   6.640   6.427   2.267
 9255TIP3   OH227707   5.817   0.110   2.117
 9255TIP3    H127708   5.815   0.043   2.185
 9255TIP3    H227709   5.909   0.136   2.111
 9256TIP3   OH227710   1.129   3.487   3.906
 9256TIP3    H127711   1.160   3.413   3.853
 9256TIP3    H227712   1.109   3.556   3.842
 9257TIP3   OH227713   3.702   5.604   1.784
 9257TIP3    H127714   3.794   5.597   1.758
 9257TIP3    H227715   3.659   5.647   1.710
 9258TIP3   OH227716   5.455   0.321   4.953
 9258TIP3    H127717   5.525   0.329   4.888
 9258TIP3    H227718   5.500   0.319   5.037
 9259TIP3   OH227719   5.415   7.627   4.005
 9259TIP3    H127720   5.434   7.658   4.094
 9259TIP3    H227721   5.333   7.579   4.014
 9260TIP3   OH227722   2.203   2.452   4.394
 9260TIP3    H127723   2.219   2.444   4.488
 9260TIP3    H227724   2.126   2.398   4.378
 9261TIP3   OH227725   2.365   3.044   5.700
 9261TIP3    H127726   2.348   3.076   5.789
 9261TIP3    H227727   2.278   3.024   5.666
 9262TIP3   OH227728   4.078   2.057   4.103
 9262TIP3    H127729   4.079   2.150   4.127
 9262TIP3    H227730   4.059   2.011   4.185
 9263TIP3   OH227731   6.993   5.361   2.388
 9263TIP3    H127732   6.926   5.316   2.337
 9263TIP3    H227733   7.033   5.423   2.326
 9264TIP3   OH227734   0.914   0.350   3.159
 9264TIP3    H127735   0.838   0.406   3.150
 9264TIP3    H227736   0.983   0.394   3.110
 9265TIP3   OH227737   4.095   0.066   3.395
 9265TIP3    H127738   4.096   0.075   3.300
 9265TIP3    H227739   4.068   0.152   3.427
 9266TIP3   OH227740   5.406   5.212   2.746
 9266TIP3    H127741   5.319   5.212   2.707
 9266TIP3    H227742   5.390   5.222   2.840
 9267TIP3   OH227743   6.948   5.835   2.498
 9267TIP3    H127744   6.867   5.875   2.466
 9267TIP3    H227745   6.926   5.743   2.508
 9268TIP3   OH227746   0.842   5.705   1.257
 9268TIP3    H127747   0.856   5.640   1.189
 9268TIP3    H227748   0.760   5.749   1.232
 9269TIP3   OH227749   0.928   5.526   2.801
 9269TIP3    H127750   0.901   5.494   2.714
 9269TIP3    H227751   0.969   5.611   2.784
 9270TIP3   OH227752   6.966   3.658   4.956
 9270TIP3    H127753   6.989   3.749   4.976
 9270TIP3    H227754   7.041   3.625   4.905
 9271TIP3   OH227755   5.217   2.893   2.317
 9271TIP3    H127756   5.173   2.850   2.391
 9271TIP3    H227757   5.285   2.831   2.290
 9272TIP3   OH227758   1.622   1.498   1.982
 9272TIP3    H127759   1.546   1.539   1.941
 9272TIP3    H227760   1.632   1.414   1.938
 9273TIP3   OH227761   5.815   1.567   2.354
 9273TIP3    H127762   5.880   1.521   2.407
 9273TIP3    H227763   5.737   1.512   2.359
 9274TIP3   OH227764   6.330   1.348   1.813
 9274TIP3    H127765   6.402   1.349   1.750
 9274TIP3    H227766   6.265   1.408   1.775
 9275TIP3   OH227767   0.706   2.303   3.900
 9275TIP3    H127768   0.653   2.228   3.872
 9275TIP3    H227769   0.646   2.378   3.894
 9276TIP3   OH227770   0.646   5.041   5.386
 9276TIP3    H127771   0.657   4.955   5.426
 9276TIP3    H227772   0.722   5.092   5.415
 9277TIP3   OH227773   5.712   1.933   0.384
 9277TIP3    H127774   5.799   1.916   0.346
 9277TIP3    H227775   5.704   2.028   0.385
 9278TIP3   OH227776   6.334   7.371   6.699
 9278TIP3    H127777   6.339   7.388   6.605
 9278TIP3    H227778   6.322   7.457   6.739
 9279TIP3   OH227779   7.547   3.627   6.635
 9279TIP3    H127780   7.641   3.624   6.647
 9279TIP3    H227781   7.531   3.710   6.590
 9280TIP3   OH227782   3.259   2.923   2.493
 9280TIP3    H127783   3.248   3.017   2.506
 9280TIP3    H227784   3.323   2.896   2.559
 9281TIP3   OH227785   3.254   5.154   5.352
 9281TIP3    H127786   3.248   5.074   5.300
 9281TIP3    H227787   3.222   5.129   5.438
 9282TIP3   OH227788   6.019   0.869   0.157
 9282TIP3    H127789   6.094   0.816   0.185
 9282TIP3    H227790   5.955   0.804   0.128
 9283TIP3   OH227791   6.099   5.507   5.018
 9283TIP3    H127792   6.180   5.472   4.980
 9283TIP3    H227793   6.042   5.523   4.943
 9284TIP3   OH227794   3.169   0.542   2.071
 9284TIP3    H127795   3.226   0.519   1.997
 9284TIP3    H227796   3.208   0.497   2.146
 9285TIP3   OH227797   4.897   0.260   2.129
 9285TIP3    H127798   4.920   0.259   2.221
 9285TIP3    H227799   4.915   0.171   2.098
 9286TIP3   OH227800   7.428   7.593   5.083
 9286TIP3    H127801   7.495   7.655   5.110
 9286TIP3    H227802   7.345   7.635   5.106
 9287TIP3   OH227803   0.742   4.030   1.803
 9287TIP3    H127804   0.702   3.954   1.847
 9287TIP3    H227805   0.782   3.994   1.724
 9288TIP3   OH227806   8.091   1.661   6.186
 9288TIP3    H127807   8.170   1.690   6.232
 9288TIP3    H227808   8.124   1.624   6.104
 9289TIP3   OH227809   4.116   3.005   6.771
 9289TIP3    H127810   4.027   3.039   6.765
 9289TIP3    H227811   4.146   2.999   6.681
 9290TIP3   OH227812   0.365   5.608   4.309
 9290TIP3    H127813   0.301   5.584   4.376
 9290TIP3    H227814   0.389   5.698   4.330
 9291TIP3   OH227815   0.277   5.056   0.353
 9291TIP3    H127816   0.188   5.079   0.323
 9291TIP3    H227817   0.284   5.097   0.439
 9292TIP3   OH227818   0.337   1.887   0.933
 9292TIP3    H127819   0.346   1.896   1.028
 9292TIP3    H227820   0.247   1.913   0.915
 9293TIP3   OH227821   1.562   1.792   6.648
 9293TIP3    H127822   1.472   1.772   6.674
 9293TIP3    H227823   1.614   1.777   6.727
 9294TIP3   OH227824   2.961   6.957   1.183
 9294TIP3    H127825   2.902   6.892   1.144
 9294TIP3    H227826   2.984   6.920   1.268
 9295TIP3   OH227827   4.497   4.167   5.164
 9295TIP3    H127828   4.474   4.219   5.087
 9295TIP3    H227829   4.428   4.186   5.227
 9296TIP3   OH227830   5.030   7.493   5.414
 9296TIP3    H127831   4.958   7.438   5.445
 9296TIP3    H227832   5.098   7.432   5.388
 9297TIP3   OH227833   3.875   1.394   2.327
 9297TIP3    H127834   3.872   1.299   2.331
 9297TIP3    H227835   3.861   1.415   2.234
 9298TIP3   OH227836   7.313   5.906   3.457
 9298TIP3    H127837   7.226   5.881   3.488
 9298TIP3    H227838   7.328   5.850   3.381
 9299TIP3   OH227839   3.346   6.684   1.791
 9299TIP3    H127840   3.420   6.665   1.733
 9299TIP3    H227841   3.382   6.677   1.880
 9300TIP3   OH227842   3.025   3.051   4.278
 9300TIP3    H127843   3.038   3.034   4.371
 9300TIP3    H227844   3.005   2.966   4.240
 9301TIP3   OH227845   2.915   1.829   4.519
 9301TIP3    H127846   2.826   1.831   4.484
 9301TIP3    H227847   2.957   1.756   4.474
 9302TIP3   OH227848   7.104   6.926   2.399
 9302TIP3    H127849   7.035   6.871   2.435
 9302TIP3    H227850   7.058   6.999   2.358
 9303TIP3   OH227851   3.108   2.701   2.197
 9303TIP3    H127852   3.166   2.639   2.241
 9303TIP3    H227853   3.161   2.738   2.127
 9304TIP3   OH227854   1.177   1.511   2.722
 9304TIP3    H127855   1.193   1.564   2.799
 9304TIP3    H227856   1.102   1.553   2.679
 9305TIP3   OH227857   8.059   3.911   4.305
 9305TIP3    H127858   8.127   3.904   4.237
 9305TIP3    H227859   8.046   4.005   4.315
 9306TIP3   OH227860   7.553   2.912   0.938
 9306TIP3    H127861   7.485   2.884   0.999
 9306TIP3    H227862   7.533   2.866   0.856
 9307TIP3   OH227863   7.880   6.822   3.565
 9307TIP3    H127864   7.799   6.872   3.560
 9307TIP3    H227865   7.888   6.798   3.658
 9308TIP3   OH227866   2.210   3.824   2.076
 9308TIP3    H127867   2.262   3.755   2.118
 9308TIP3    H227868   2.193   3.790   1.988
 9309TIP3   OH227869   2.792   3.003   5.729
 9309TIP3    H127870   2.802   3.095   5.753
 9309TIP3    H227871   2.698   2.990   5.719
 9310TIP3   OH227872   3.937   1.168   6.488
 9310TIP3    H127873   3.921   1.141   6.398
 9310TIP3    H227874   3.988   1.248   6.480
 9311TIP3   OH227875   1.032   3.456   3.485
 9311TIP3    H127876   1.012   3.531   3.541
 9311TIP3    H227877   0.950   3.406   3.482
 9312TIP3   OH227878   2.547   5.223   0.412
 9312TIP3    H127879   2.570   5.196   0.501
 9312TIP3    H227880   2.548   5.319   0.416
 9313TIP3   OH227881   6.556   7.497   4.118
 9313TIP3    H127882   6.553   7.475   4.025
 9313TIP3    H227883   6.569   7.413   4.163
 9314TIP3   OH227884   7.292   6.317   1.451
 9314TIP3    H127885   7.269   6.225   1.464
 9314TIP3    H227886   7.380   6.326   1.488
 9315TIP3   OH227887   1.295   3.510   6.159
 9315TIP3    H127888   1.245   3.447   6.210
 9315TIP3    H227889   1.298   3.588   6.214
 9316TIP3   OH227890   4.733   3.290   1.534
 9316TIP3    H127891   4.732   3.318   1.626
 9316TIP3    H227892   4.804   3.226   1.529
 9317TIP3   OH227893   4.533   6.522   5.891
 9317TIP3    H127894   4.445   6.526   5.928
 9317TIP3    H227895   4.587   6.487   5.961
 9318TIP3   OH227896   2.931   3.207   4.798
 9318TIP3    H127897   2.906   3.204   4.890
 9318TIP3    H227898   3.018   3.248   4.798
 9319TIP3   OH227899   0.558   6.907   4.372
 9319TIP3    H127900   0.556   6.972   4.442
 9319TIP3    H227901   0.472   6.864   4.377
 9320TIP3   OH227902   2.408   7.655   1.901
 9320TIP3    H127903   2.364   7.592   1.845
 9320TIP3    H227904   2.492   7.671   1.858
 9321TIP3   OH227905   8.256   0.096   1.977
 9321TIP3    H127906   8.179   0.043   1.995
 9321TIP3    H227907   8.242   0.129   1.888
 9322TIP3   OH227908   0.373   7.015   2.442
 9322TIP3    H127909   0.449   7.046   2.391
 9322TIP3    H227910   0.306   6.997   2.376
 9323TIP3   OH227911   0.736   5.194   0.476
 9323TIP3    H127912   0.681   5.123   0.442
 9323TIP3    H227913   0.748   5.172   0.569
 9324TIP3   OH227914   7.063   2.304   2.482
 9324TIP3    H127915   7.068   2.318   2.388
 9324TIP3    H227916   7.140   2.250   2.503
 9325TIP3   OH227917   3.722   1.037   4.949
 9325TIP3    H127918   3.713   1.051   5.043
 9325TIP3    H227919   3.649   1.085   4.910
 9326TIP3   OH227920   6.714   2.934   0.322
 9326TIP3    H127921   6.761   3.013   0.295
 9326TIP3    H227922   6.779   2.881   0.367
 9327TIP3   OH227923   0.011   1.752   2.204
 9327TIP3    H127924  -0.002   1.759   2.109
 9327TIP3    H227925   0.095   1.795   2.220
 9328TIP3   OH227926   1.009   3.106   6.158
 9328TIP3    H127927   1.086   3.048   6.158
 9328TIP3    H227928   0.940   3.054   6.117
 9329TIP3   OH227929   5.687   2.413   5.493
 9329TIP3    H127930   5.726   2.481   5.438
 9329TIP3    H227931   5.599   2.401   5.458
 9330TIP3   OH227932   3.064   7.639   6.183
 9330TIP3    H127933   3.079   7.546   6.198
 9330TIP3    H227934   3.070   7.679   6.269
 9331TIP3   OH227935   7.658   6.610   3.499
 9331TIP3    H127936   7.581   6.616   3.556
 9331TIP3    H227937   7.657   6.521   3.466
 9332TIP3   OH227938   5.483   5.527   5.594
 9332TIP3    H127939   5.531   5.473   5.530
 9332TIP3    H227940   5.391   5.506   5.579
 9333TIP3   OH227941   2.417   4.445   0.915
 9333TIP3    H127942   2.409   4.540   0.925
 9333TIP3    H227943   2.495   4.433   0.860
 9334TIP3   OH227944   3.977   1.670   3.214
 9334TIP3    H127945   3.951   1.717   3.293
 9334TIP3    H227946   4.063   1.634   3.235
 9335TIP3   OH227947   7.955   3.326   5.143
 9335TIP3    H127948   7.947   3.289   5.055
 9335TIP3    H227949   8.041   3.298   5.172
 9336TIP3   OH227950   0.575   4.785   1.099
 9336TIP3    H127951   0.648   4.834   1.063
 9336TIP3    H227952   0.549   4.725   1.029
 9337TIP3   OH227953   2.349   5.497   2.412
 9337TIP3    H127954   2.385   5.428   2.468
 9337TIP3    H227955   2.425   5.548   2.386
 9338TIP3   OH227956   3.117   7.025   3.201
 9338TIP3    H127957   3.139   6.976   3.121
 9338TIP3    H227958   3.197   7.074   3.221
 9339TIP3   OH227959   4.391   3.535   0.606
 9339TIP3    H127960   4.438   3.455   0.629
 9339TIP3    H227961   4.382   3.532   0.511
 9340TIP3   OH227962   5.502   0.976   2.394
 9340TIP3    H127963   5.581   0.987   2.446
 9340TIP3    H227964   5.522   1.015   2.309
 9341TIP3   OH227965   5.924   2.209   0.864
 9341TIP3    H127966   5.996   2.272   0.865
 9341TIP3    H227967   5.960   2.131   0.906
 9342TIP3   OH227968   8.048   2.737   5.337
 9342TIP3    H127969   8.079   2.771   5.421
 9342TIP3    H227970   7.953   2.730   5.348
 9343TIP3   OH227971   4.854   6.110   6.655
 9343TIP3    H127972   4.781   6.059   6.688
 9343TIP3    H227973   4.875   6.072   6.570
 9344TIP3   OH227974   5.588   1.281   4.779
 9344TIP3    H127975   5.511   1.257   4.830
 9344TIP3    H227976   5.660   1.281   4.843
 9345TIP3   OH227977   5.277   4.679   5.147
 9345TIP3    H127978   5.205   4.616   5.148
 9345TIP3    H227979   5.352   4.628   5.116
 9346TIP3   OH227980   5.920   6.654   6.376
 9346TIP3    H127981   6.013   6.658   6.399
 9346TIP3    H227982   5.907   6.729   6.317
 9347TIP3   OH227983   1.349   1.558   2.526
 9347TIP3    H127984   1.301   1.509   2.460
 9347TIP3    H227985   1.300   1.545   2.607
 9348TIP3   OH227986   6.367   6.395   1.096
 9348TIP3    H127987   6.310   6.393   1.172
 9348TIP3    H227988   6.309   6.380   1.022
 9349TIP3   OH227989   0.280   5.582   4.049
 9349TIP3    H127990   0.256   5.490   4.045
 9349TIP3    H227991   0.310   5.595   4.139
 9350TIP3   OH227992   3.875   2.666   4.176
 9350TIP3    H127993   3.821   2.691   4.101
 9350TIP3    H227994   3.814   2.627   4.238
 9351TIP3   OH227995   7.746   3.111   4.370
 9351TIP3    H127996   7.728   3.200   4.339
 9351TIP3    H227997   7.690   3.055   4.316
 9352TIP3   OH227998   3.300   6.770   2.803
 9352TIP3    H127999   3.289   6.783   2.709
 9352TIP3    H228000   3.351   6.845   2.833
 9353TIP3   OH228001   3.016   5.315   2.737
 9353TIP3    H128002   2.956   5.389   2.731
 9353TIP3    H228003   2.959   5.238   2.741
 9354TIP3   OH228004   5.183   6.603   5.051
 9354TIP3    H128005   5.263   6.643   5.085
 9354TIP3    H228006   5.149   6.550   5.123
 9355TIP3   OH228007   6.695   3.500   1.614
 9355TIP3    H128008   6.781   3.539   1.599
 9355TIP3    H228009   6.702   3.461   1.701
 9356TIP3   OH228010   5.092   0.619   6.029
 9356TIP3    H128011   5.066   0.566   6.105
 9356TIP3    H228012   5.034   0.590   5.959
 9357TIP3   OH228013   2.426   6.161   1.484
 9357TIP3    H128014   2.445   6.100   1.555
 9357TIP3    H228015   2.482   6.237   1.500
 9358TIP3   OH228016   1.206   7.736   1.151
 9358TIP3    H128017   1.160   7.764   1.072
 9358TIP3    H228018   1.200   7.640   1.149
 9359TIP3   OH228019   4.640   6.333   4.554
 9359TIP3    H128020   4.690   6.292   4.483
 9359TIP3    H228021   4.659   6.280   4.631
 9360TIP3   OH228022   1.318   0.444   4.523
 9360TIP3    H128023   1.322   0.537   4.501
 9360TIP3    H228024   1.309   0.400   4.439
 9361TIP3   OH228025   8.142   2.580   0.367
 9361TIP3    H128026   8.047   2.583   0.350
 9361TIP3    H228027   8.169   2.494   0.334
 9362TIP3   OH228028   7.335   6.450   5.052
 9362TIP3    H128029   7.354   6.380   4.989
 9362TIP3    H228030   7.421   6.481   5.080
 9363TIP3   OH228031   5.641   3.673   1.516
 9363TIP3    H128032   5.597   3.590   1.496
 9363TIP3    H228033   5.587   3.740   1.475
 9364TIP3   OH228034   4.219   5.040   3.453
 9364TIP3    H128035   4.300   5.012   3.412
 9364TIP3    H228036   4.189   5.113   3.399
 9365TIP3   OH228037   3.419   7.418   1.939
 9365TIP3    H128038   3.475   7.480   1.892
 9365TIP3    H228039   3.464   7.404   2.023
 9366TIP3   OH228040   3.050   2.730   4.905
 9366TIP3    H128041   3.079   2.638   4.907
 9366TIP3    H228042   3.011   2.744   4.991
 9367TIP3   OH228043   2.073   7.771   6.150
 9367TIP3    H128044   2.090   7.782   6.244
 9367TIP3    H228045   2.141   7.711   6.120
 9368TIP3   OH228046   2.057   4.086   6.085
 9368TIP3    H128047   2.055   4.180   6.105
 9368TIP3    H228048   2.066   4.082   5.990
 9369TIP3   OH228049   0.136   4.562   2.626
 9369TIP3    H128050   0.162   4.654   2.613
 9369TIP3    H228051   0.178   4.537   2.708
 9370TIP3   OH228052   7.399   4.315   1.376
 9370TIP3    H128053   7.306   4.331   1.356
 9370TIP3    H228054   7.446   4.356   1.304
 9371TIP3   OH228055   1.316   2.825   1.039
 9371TIP3    H128056   1.254   2.893   1.010
 9371TIP3    H228057   1.379   2.819   0.968
 9372TIP3   OH228058   2.719   5.759   4.116
 9372TIP3    H128059   2.740   5.677   4.071
 9372TIP3    H228060   2.800   5.785   4.158
 9373TIP3   OH228061   5.827   5.357   6.534
 9373TIP3    H128062   5.760   5.372   6.466
 9373TIP3    H228063   5.857   5.268   6.519
 9374TIP3   OH228064   2.042   0.310   0.987
 9374TIP3    H128065   2.091   0.235   1.021
 9374TIP3    H228066   1.977   0.272   0.928
 9375TIP3   OH228067   3.141   6.442   1.076
 9375TIP3    H128068   3.233   6.425   1.055
 9375TIP3    H228069   3.098   6.452   0.991
 9376TIP3   OH228070   7.316   3.087   3.513
 9376TIP3    H128071   7.331   3.173   3.552
 9376TIP3    H228072   7.275   3.107   3.428
 9377TIP3   OH228073   5.033   0.434   5.187
 9377TIP3    H128074   5.102   0.468   5.130
 9377TIP3    H228075   5.062   0.347   5.211
 9378TIP3   OH228076   1.089   7.193   3.778
 9378TIP3    H128077   1.003   7.153   3.769
 9378TIP3    H228078   1.089   7.231   3.866
 9379TIP3   OH228079   5.103   3.848   0.091
 9379TIP3    H128080   5.075   3.940   0.097
 9379TIP3    H228081   5.146   3.842   0.006
 9380TIP3   OH228082   7.135   2.972   6.223
 9380TIP3    H128083   7.149   2.992   6.131
 9380TIP3    H228084   7.223   2.970   6.261
 9381TIP3   OH228085   4.785   5.986   4.681
 9381TIP3    H128086   4.842   6.040   4.736
 9381TIP3    H228087   4.775   5.904   4.729
 9382TIP3   OH228088   1.227   6.698   3.643
 9382TIP3    H128089   1.160   6.765   3.626
 9382TIP3    H228090   1.271   6.727   3.723
 9383TIP3   OH228091   0.853   2.947   0.470
 9383TIP3    H128092   0.863   2.860   0.510
 9383TIP3    H228093   0.763   2.973   0.491
 9384TIP3   OH228094   2.311   1.513   0.920
 9384TIP3    H128095   2.327   1.597   0.964
 9384TIP3    H228096   2.219   1.519   0.892
 9385TIP3   OH228097   0.097   7.515   4.769
 9385TIP3    H128098   0.156   7.440   4.779
 9385TIP3    H228099   0.140   7.571   4.704
 9386TIP3   OH228100   5.888   7.793   1.885
 9386TIP3    H128101   5.854   7.840   1.809
 9386TIP3    H228102   5.857   7.703   1.873
 9387TIP3   OH228103   4.522   4.849   4.890
 9387TIP3    H128104   4.518   4.764   4.934
 9387TIP3    H228105   4.513   4.913   4.960
 9388TIP3   OH228106   4.065   4.086   0.336
 9388TIP3    H128107   4.154   4.077   0.371
 9388TIP3    H228108   4.010   4.095   0.414
 9389TIP3   OH228109   3.384   3.820   5.250
 9389TIP3    H128110   3.295   3.849   5.233
 9389TIP3    H228111   3.438   3.867   5.186
 9390TIP3   OH228112   6.946   2.706   6.657
 9390TIP3    H128113   7.006   2.747   6.720
 9390TIP3    H228114   6.973   2.743   6.572
 9391TIP3   OH228115   2.650   2.034   0.992
 9391TIP3    H128116   2.607   1.987   0.920
 9391TIP3    H228117   2.593   2.110   1.007
 9392TIP3   OH228118   5.358   0.622   5.942
 9392TIP3    H128119   5.346   0.649   5.852
 9392TIP3    H228120   5.272   0.633   5.983
 9393TIP3   OH228121   4.097   4.115   1.850
 9393TIP3    H128122   4.046   4.164   1.914
 9393TIP3    H228123   4.188   4.141   1.866
 9394TIP3   OH228124   6.323   6.789   3.349
 9394TIP3    H128125   6.398   6.797   3.290
 9394TIP3    H228126   6.268   6.722   3.307
 9395TIP3   OH228127   3.889   2.531   2.593
 9395TIP3    H128128   3.834   2.457   2.569
 9395TIP3    H228129   3.894   2.526   2.689
 9396TIP3   OH228130   5.907   0.038   0.922
 9396TIP3    H128131   5.942  -0.050   0.932
 9396TIP3    H228132   5.949   0.089   0.991
 9397TIP3   OH228133   3.169   6.764   0.113
 9397TIP3    H128134   3.091   6.791   0.161
 9397TIP3    H228135   3.147   6.781   0.021
 9398TIP3   OH228136   0.913   5.882   2.951
 9398TIP3    H128137   0.963   5.842   2.880
 9398TIP3    H228138   0.959   5.964   2.970
 9399TIP3   OH228139   1.739   1.459   1.200
 9399TIP3    H128140   1.740   1.538   1.145
 9399TIP3    H228141   1.793   1.396   1.153
 9400TIP3   OH228142   3.374   0.850   2.202
 9400TIP3    H128143   3.299   0.854   2.261
 9400TIP3    H228144   3.366   0.766   2.157
 9401TIP3   OH228145   5.214   2.216   6.296
 9401TIP3    H128146   5.132   2.175   6.322
 9401TIP3    H228147   5.200   2.242   6.205
 9402TIP3   OH228148   6.676   0.113   5.811
 9402TIP3    H128149   6.727   0.189   5.783
 9402TIP3    H228150   6.688   0.110   5.906
 9403TIP3   OH228151   4.594   4.916   4.363
 9403TIP3    H128152   4.579   4.898   4.270
 9403TIP3    H228153   4.689   4.918   4.373
 9404TIP3   OH228154   1.226   4.367   4.914
 9404TIP3    H128155   1.146   4.420   4.903
 9404TIP3    H228156   1.267   4.401   4.994
 9405TIP3   OH228157   3.857   0.400   1.616
 9405TIP3    H128158   3.784   0.350   1.579
 9405TIP3    H228159   3.932   0.341   1.610
 9406TIP3   OH228160   6.327   6.987   0.069
 9406TIP3    H128161   6.319   7.002   0.163
 9406TIP3    H228162   6.378   6.907   0.061
 9407TIP3   OH228163   0.870   5.449   0.062
 9407TIP3    H128164   0.846   5.404  -0.019
 9407TIP3    H228165   0.961   5.424   0.078
 9408TIP3   OH228166   4.555   1.933   2.667
 9408TIP3    H128167   4.503   1.908   2.744
 9408TIP3    H228168   4.640   1.958   2.703
 9409TIP3   OH228169   5.556   6.521   2.681
 9409TIP3    H128170   5.547   6.540   2.774
 9409TIP3    H228171   5.529   6.602   2.637
 9410TIP3   OH228172   0.010   0.615   4.943
 9410TIP3    H128173   0.057   0.673   5.002
 9410TIP3    H228174  -0.034   0.673   4.881
 9411TIP3   OH228175   3.251   2.801   3.936
 9411TIP3    H128176   3.273   2.763   4.021
 9411TIP3    H228177   3.330   2.848   3.910
 9412TIP3   OH228178   7.881   5.389   6.732
 9412TIP3    H128179   7.814   5.450   6.702
 9412TIP3    H228180   7.953   5.444   6.762
 9413TIP3   OH228181   3.452   7.204   1.756
 9413TIP3    H128182   3.525   7.145   1.775
 9413TIP3    H228183   3.445   7.260   1.833
 9414TIP3   OH228184   3.290   1.679   6.692
 9414TIP3    H128185   3.385   1.666   6.691
 9414TIP3    H228186   3.263   1.660   6.782
 9415TIP3   OH228187   7.850   2.327   4.167
 9415TIP3    H128188   7.789   2.365   4.103
 9415TIP3    H228189   7.916   2.282   4.114
 9416TIP3   OH228190   3.089   6.596   2.019
 9416TIP3    H128191   3.045   6.537   2.080
 9416TIP3    H228192   3.147   6.648   2.074
 9417TIP3   OH228193   1.474   6.133   4.868
 9417TIP3    H128194   1.509   6.044   4.874
 9417TIP3    H228195   1.379   6.122   4.880
 9418TIP3   OH228196   2.419   1.902   1.317
 9418TIP3    H128197   2.334   1.944   1.300
 9418TIP3    H228198   2.398   1.833   1.380
 9419TIP3   OH228199   4.069   1.252   1.265
 9419TIP3    H128200   4.093   1.342   1.245
 9419TIP3    H228201   4.010   1.258   1.340
 9420TIP3   OH228202   3.102   3.964   1.628
 9420TIP3    H128203   3.026   3.948   1.684
 9420TIP3    H228204   3.165   4.010   1.684
 9421TIP3   OH228205   7.058   0.273   0.997
 9421TIP3    H128206   7.000   0.333   1.043
 9421TIP3    H228207   7.066   0.198   1.056
 9422TIP3   OH228208   6.475   1.721   5.438
 9422TIP3    H128209   6.551   1.707   5.382
 9422TIP3    H228210   6.433   1.635   5.445
 9423TIP3   OH228211   2.542   4.183   0.820
 9423TIP3    H128212   2.626   4.202   0.778
 9423TIP3    H228213   2.560   4.186   0.914
 9424TIP3   OH228214   4.024   1.046   2.812
 9424TIP3    H128215   3.998   0.985   2.880
 9424TIP3    H228216   4.001   1.132   2.847
 9425TIP3   OH228217   6.496   4.756   3.358
 9425TIP3    H128218   6.564   4.695   3.387
 9425TIP3    H228219   6.431   4.755   3.428
 9426TIP3   OH228220   7.201   1.187   1.948
 9426TIP3    H128221   7.191   1.207   1.855
 9426TIP3    H228222   7.118   1.211   1.987
 9427TIP3   OH228223   0.907   7.798   0.481
 9427TIP3    H128224   0.890   7.785   0.575
 9427TIP3    H228225   0.950   7.884   0.477
 9428TIP3   OH228226   5.287   0.555   0.108
 9428TIP3    H128227   5.209   0.524   0.062
 9428TIP3    H228228   5.358   0.501   0.075
 9429TIP3   OH228229   6.428   6.856   1.713
 9429TIP3    H128230   6.379   6.839   1.793
 9429TIP3    H228231   6.518   6.829   1.734
 9430TIP3   OH228232   8.277   6.243   6.261
 9430TIP3    H128233   8.210   6.195   6.310
 9430TIP3    H228234   8.280   6.201   6.175
 9431TIP3   OH228235   1.136   3.274   5.943
 9431TIP3    H128236   1.221   3.300   5.909
 9431TIP3    H228237   1.155   3.218   6.018
 9432TIP3   OH228238   3.147   4.952   2.309
 9432TIP3    H128239   3.097   5.013   2.255
 9432TIP3    H228240   3.103   4.954   2.394
 9433TIP3   OH228241   1.280   3.503   1.664
 9433TIP3    H128242   1.263   3.435   1.729
 9433TIP3    H228243   1.298   3.455   1.583
 9434TIP3   OH228244   5.078   0.516   1.902
 9434TIP3    H128245   5.046   0.465   1.829
 9434TIP3    H228246   5.007   0.515   1.966
 9435TIP3   OH228247   7.143   0.699   5.116
 9435TIP3    H128248   7.176   0.609   5.113
 9435TIP3    H228249   7.204   0.745   5.174
 9436TIP3   OH228250   3.730   6.737   3.859
 9436TIP3    H128251   3.693   6.703   3.940
 9436TIP3    H228252   3.749   6.829   3.877
 9437TIP3   OH228253   1.011   5.367   0.684
 9437TIP3    H128254   1.038   5.377   0.593
 9437TIP3    H228255   0.987   5.455   0.713
 9438TIP3   OH228256   3.683   6.133   1.254
 9438TIP3    H128257   3.740   6.101   1.184
 9438TIP3    H228258   3.703   6.077   1.329
 9439TIP3   OH228259   1.688   0.089   0.114
 9439TIP3    H128260   1.762   0.039   0.080
 9439TIP3    H228261   1.612   0.058   0.065
 9440TIP3   OH228262   7.798   2.402   5.980
 9440TIP3    H128263   7.719   2.457   5.978
 9440TIP3    H228264   7.870   2.463   5.961
 9441TIP3   OH228265   6.627   0.316   0.248
 9441TIP3    H128266   6.603   0.358   0.331
 9441TIP3    H228267   6.669   0.385   0.197
 9442TIP3   OH228268   6.268   7.379   5.971
 9442TIP3    H128269   6.284   7.473   5.962
 9442TIP3    H228270   6.334   7.339   5.915
 9443TIP3   OH228271   3.536   7.117   0.886
 9443TIP3    H128272   3.470   7.172   0.928
 9443TIP3    H228273   3.555   7.049   0.950
 9444TIP3   OH228274   2.381   3.805   1.443
 9444TIP3    H128275   2.378   3.889   1.398
 9444TIP3    H228276   2.291   3.790   1.472
 9445TIP3   OH228277   0.387   0.980   4.935
 9445TIP3    H128278   0.318   1.002   4.998
 9445TIP3    H228279   0.465   1.024   4.969
 9446TIP3   OH228280   5.715   6.241   6.564
 9446TIP3    H128281   5.681   6.152   6.554
 9446TIP3    H228282   5.643   6.290   6.603
 9447TIP3   OH228283   0.196   1.899   5.322
 9447TIP3    H128284   0.209   1.896   5.227
 9447TIP3    H228285   0.146   1.980   5.336
 9448TIP3   OH228286   7.045   6.868   4.711
 9448TIP3    H128287   7.132   6.831   4.725
 9448TIP3    H228288   7.061   6.961   4.697
 9449TIP3   OH228289   5.076   0.469   3.118
 9449TIP3    H128290   5.010   0.401   3.103
 9449TIP3    H228291   5.065   0.529   3.045
 9450TIP3   OH228292   4.757   1.697   5.521
 9450TIP3    H128293   4.805   1.739   5.592
 9450TIP3    H228294   4.732   1.769   5.463
 9451TIP3   OH228295   5.808   5.023   0.059
 9451TIP3    H128296   5.736   5.084   0.042
 9451TIP3    H228297   5.769   4.955   0.115
 9452TIP3   OH228298   7.741   4.242   6.653
 9452TIP3    H128299   7.832   4.213   6.661
 9452TIP3    H228300   7.691   4.160   6.643
 9453TIP3   OH228301   4.434   2.696   6.360
 9453TIP3    H128302   4.514   2.652   6.332
 9453TIP3    H228303   4.438   2.781   6.317
 9454TIP3   OH228304   7.467   2.348   3.625
 9454TIP3    H128305   7.396   2.352   3.560
 9454TIP3    H228306   7.469   2.435   3.663
 9455TIP3   OH228307   7.488   0.625   3.867
 9455TIP3    H128308   7.457   0.667   3.947
 9455TIP3    H228309   7.454   0.535   3.872
 9456TIP3   OH228310   2.431   0.345   2.702
 9456TIP3    H128311   2.402   0.366   2.613
 9456TIP3    H228312   2.525   0.332   2.694
 9457TIP3   OH228313   0.933   7.221   0.391
 9457TIP3    H128314   0.929   7.314   0.414
 9457TIP3    H228315   0.876   7.178   0.454
 9458TIP3   OH228316   3.558   3.439   1.784
 9458TIP3    H128317   3.474   3.403   1.813
 9458TIP3    H228318   3.623   3.376   1.815
 9459TIP3   OH228319   2.833   1.606   2.438
 9459TIP3    H128320   2.888   1.612   2.360
 9459TIP3    H228321   2.894   1.591   2.510
 9460TIP3   OH228322   2.979   3.164   0.837
 9460TIP3    H128323   3.046   3.232   0.839
 9460TIP3    H228324   2.897   3.212   0.827
 9461TIP3   OH228325   2.129   5.734   1.237
 9461TIP3    H128326   2.171   5.777   1.311
 9461TIP3    H228327   2.077   5.664   1.275
 9462TIP3   OH228328   6.093   2.831   1.491
 9462TIP3    H128329   6.156   2.821   1.420
 9462TIP3    H228330   6.064   2.922   1.485
 9463TIP3   OH228331   7.639   4.100   4.577
 9463TIP3    H128332   7.733   4.104   4.557
 9463TIP3    H228333   7.618   4.007   4.573
 9464TIP3   OH228334   6.102   6.661   1.206
 9464TIP3    H128335   6.103   6.638   1.299
 9464TIP3    H228336   6.190   6.692   1.188
 9465TIP3   OH228337   2.189   1.573   4.320
 9465TIP3    H128338   2.279   1.577   4.354
 9465TIP3    H228339   2.134   1.575   4.398
 9466TIP3   OH228340   4.326   7.549   6.572
 9466TIP3    H128341   4.240   7.511   6.592
 9466TIP3    H228342   4.342   7.526   6.481
 9467TIP3   OH228343   8.053   3.588   4.586
 9467TIP3    H128344   8.066   3.631   4.670
 9467TIP3    H228345   8.077   3.497   4.601
 9468TIP3   OH228346   3.548   1.515   2.975
 9468TIP3    H128347   3.610   1.554   3.037
 9468TIP3    H228348   3.540   1.579   2.905
 9469TIP3   OH228349   3.372   1.726   6.374
 9469TIP3    H128350   3.362   1.657   6.308
 9469TIP3    H228351   3.304   1.707   6.439
 9470TIP3   OH228352   1.848   3.161   6.023
 9470TIP3    H128353   1.903   3.239   6.033
 9470TIP3    H228354   1.807   3.172   5.937
 9471TIP3   OH228355   6.326   4.260   0.790
 9471TIP3    H128356   6.400   4.210   0.755
 9471TIP3    H228357   6.259   4.254   0.722
 9472TIP3   OH228358   5.042   1.699   5.389
 9472TIP3    H128359   5.094   1.626   5.423
 9472TIP3    H228360   5.059   1.771   5.449
 9473TIP3   OH228361   3.945   2.965   5.336
 9473TIP3    H128362   3.893   2.932   5.409
 9473TIP3    H228363   3.883   3.012   5.281
 9474TIP3   OH228364   5.747   7.183   5.076
 9474TIP3    H128365   5.653   7.199   5.077
 9474TIP3    H228366   5.766   7.159   4.985
 9475TIP3   OH228367   7.345   3.822   5.750
 9475TIP3    H128368   7.420   3.819   5.692
 9475TIP3    H228369   7.306   3.735   5.744
 9476TIP3   OH228370   6.629   6.932   6.665
 9476TIP3    H128371   6.706   6.973   6.626
 9476TIP3    H228372   6.665   6.863   6.721
 9477TIP3   OH228373   6.571   3.028   6.063
 9477TIP3    H128374   6.588   3.086   5.990
 9477TIP3    H228375   6.479   3.002   6.053
 9478TIP3   OH228376   2.509   2.229   1.602
 9478TIP3    H128377   2.571   2.232   1.674
 9478TIP3    H228378   2.564   2.228   1.523
 9479TIP3   OH228379   2.846   7.821   1.940
 9479TIP3    H128380   2.766   7.828   1.889
 9479TIP3    H228381   2.853   7.728   1.962
 9480TIP3   OH228382   1.497   5.134   5.194
 9480TIP3    H128383   1.419   5.080   5.175
 9480TIP3    H228384   1.534   5.151   5.107
 9481TIP3   OH228385   2.149   2.639   6.383
 9481TIP3    H128386   2.094   2.651   6.460
 9481TIP3    H228387   2.176   2.728   6.358
 9482TIP3   OH228388   0.102   0.982   2.083
 9482TIP3    H128389   0.181   0.928   2.087
 9482TIP3    H228390   0.042   0.933   2.028
 9483TIP3   OH228391   5.299   2.765   5.740
 9483TIP3    H128392   5.283   2.855   5.712
 9483TIP3    H228393   5.226   2.715   5.703
 9484TIP3   OH228394   6.427   5.764   3.552
 9484TIP3    H128395   6.352   5.822   3.545
 9484TIP3    H228396   6.495   5.817   3.595
 9485TIP3   OH228397   1.218   0.150   5.437
 9485TIP3    H128398   1.303   0.143   5.395
 9485TIP3    H228399   1.157   0.165   5.364
 9486TIP3   OH228400   3.462   6.949   2.023
 9486TIP3    H128401   3.407   7.012   2.069
 9486TIP3    H228402   3.503   7.001   1.953
 9487TIP3   OH228403   3.662   3.880   2.223
 9487TIP3    H128404   3.638   3.821   2.295
 9487TIP3    H228405   3.634   3.966   2.253
 9488TIP3   OH228406   4.624   2.444   6.594
 9488TIP3    H128407   4.616   2.355   6.561
 9488TIP3    H228408   4.535   2.468   6.622
 9489TIP3   OH228409   2.939   5.886   1.925
 9489TIP3    H128410   3.030   5.869   1.900
 9489TIP3    H228411   2.930   5.847   2.011
 9490TIP3   OH228412   7.011   5.240   5.171
 9490TIP3    H128413   7.058   5.315   5.207
 9490TIP3    H228414   7.052   5.225   5.085
 9491TIP3   OH228415   0.818   5.028   6.236
 9491TIP3    H128416   0.875   5.074   6.298
 9491TIP3    H228417   0.768   5.098   6.193
 9492TIP3   OH228418   6.233   6.064   6.086
 9492TIP3    H128419   6.157   6.083   6.031
 9492TIP3    H228420   6.203   6.082   6.175
 9493TIP3   OH228421   5.158   7.316   5.076
 9493TIP3    H128422   5.068   7.291   5.056
 9493TIP3    H228423   5.190   7.247   5.133
 9494TIP3   OH228424   4.067   4.705   1.240
 9494TIP3    H128425   3.991   4.739   1.288
 9494TIP3    H228426   4.095   4.779   1.186
 9495TIP3   OH228427   0.028   0.107   2.361
 9495TIP3    H128428   0.098   0.044   2.378
 9495TIP3    H228429   0.065   0.192   2.385
 9496TIP3   OH228430   3.634   1.988   4.700
 9496TIP3    H128431   3.580   1.951   4.630
 9496TIP3    H228432   3.687   2.055   4.657
 9497TIP3   OH228433   1.942   6.457   0.993
 9497TIP3    H128434   1.979   6.439   1.080
 9497TIP3    H228435   1.971   6.546   0.972
 9498TIP3   OH228436   6.270   5.308   0.595
 9498TIP3    H128437   6.364   5.323   0.602
 9498TIP3    H228438   6.231   5.367   0.660
 9499TIP3   OH228439   6.340   2.059   0.034
 9499TIP3    H128440   6.279   2.032  -0.034
 9499TIP3    H228441   6.392   2.129  -0.006
 9500TIP3   OH228442   0.161   2.463   5.163
 9500TIP3    H128443   0.105   2.504   5.097
 9500TIP3    H228444   0.167   2.528   5.233
 9501TIP3   OH228445   1.688   7.724   4.361
 9501TIP3    H128446   1.665   7.758   4.274
 9501TIP3    H228447   1.605   7.715   4.406
 9502TIP3   OH228448   7.644   4.798   3.778
 9502TIP3    H128449   7.573   4.749   3.738
 9502TIP3    H228450   7.656   4.874   3.720
 9503TIP3   OH228451   0.719   6.644   6.716
 9503TIP3    H128452   0.641   6.600   6.683
 9503TIP3    H228453   0.709   6.736   6.689
 9504TIP3   OH228454   5.188   0.888   4.937
 9504TIP3    H128455   5.279   0.914   4.947
 9504TIP3    H228456   5.174   0.882   4.843
 9505TIP3   OH228457   7.032   7.356   2.818
 9505TIP3    H128458   7.035   7.326   2.728
 9505TIP3    H228459   7.017   7.277   2.870
 9506TIP3   OH228460   8.050   0.291   1.785
 9506TIP3    H128461   8.117   0.238   1.741
 9506TIP3    H228462   8.005   0.335   1.714
 9507TIP3   OH228463   5.788   2.306   1.197
 9507TIP3    H128464   5.769   2.301   1.104
 9507TIP3    H228465   5.845   2.383   1.206
 9508TIP3   OH228466   3.622   0.999   2.218
 9508TIP3    H128467   3.616   1.093   2.198
 9508TIP3    H228468   3.542   0.962   2.180
 9509TIP3   OH228469   2.667   0.392   2.457
 9509TIP3    H128470   2.582   0.435   2.452
 9509TIP3    H228471   2.649   0.310   2.505
 9510TIP3   OH228472   5.639   1.132   0.748
 9510TIP3    H128473   5.659   1.148   0.840
 9510TIP3    H228474   5.645   1.037   0.738
 9511TIP3   OH228475   0.735   1.737   6.682
 9511TIP3    H128476   0.729   1.700   6.769
 9511TIP3    H228477   0.790   1.675   6.633
 9512TIP3   OH228478   5.884   7.371   5.609
 9512TIP3    H128479   5.896   7.281   5.580
 9512TIP3    H228480   5.896   7.424   5.530
 9513TIP3   OH228481   3.609   3.137   3.817
 9513TIP3    H128482   3.686   3.103   3.771
 9513TIP3    H228483   3.639   3.147   3.908
 9514TIP3   OH228484   6.888   0.945   1.244
 9514TIP3    H128485   6.793   0.956   1.240
 9514TIP3    H228486   6.917   0.952   1.153
 9515TIP3   OH228487   8.032   7.443   0.729
 9515TIP3    H128488   8.095   7.433   0.801
 9515TIP3    H228489   8.062   7.381   0.663
 9516TIP3   OH228490   7.379   4.585   0.374
 9516TIP3    H128491   7.359   4.528   0.449
 9516TIP3    H228492   7.298   4.636   0.361
 9517TIP3   OH228493   5.677   5.428   6.297
 9517TIP3    H128494   5.677   5.517   6.334
 9517TIP3    H228495   5.595   5.389   6.330
 9518TIP3   OH228496   0.680   5.355   5.281
 9518TIP3    H128497   0.591   5.321   5.290
 9518TIP3    H228498   0.690   5.373   5.187
 9519TIP3   OH228499   0.095   0.745   4.382
 9519TIP3    H128500   0.062   0.835   4.386
 9519TIP3    H228501   0.135   0.738   4.296
 9520TIP3   OH228502   2.883   5.584   4.967
 9520TIP3    H128503   2.862   5.546   4.881
 9520TIP3    H228504   2.976   5.608   4.960
 9521TIP3   OH228505   5.164   6.274   4.594
 9521TIP3    H128506   5.237   6.334   4.581
 9521TIP3    H228507   5.129   6.297   4.680
 9522TIP3   OH228508   6.950   1.284   6.126
 9522TIP3    H128509   6.913   1.336   6.198
 9522TIP3    H228510   7.032   1.249   6.161
 9523TIP3   OH228511   5.095   6.919   5.569
 9523TIP3    H128512   5.166   6.873   5.614
 9523TIP3    H228513   5.029   6.852   5.553
 9524TIP3   OH228514   3.432   3.166   5.658
 9524TIP3    H128515   3.448   3.135   5.747
 9524TIP3    H228516   3.480   3.249   5.652
 9525TIP3   OH228517   1.711   6.334   3.782
 9525TIP3    H128518   1.739   6.399   3.718
 9525TIP3    H228519   1.789   6.282   3.800
 9526TIP3   OH228520   7.348   4.976   4.485
 9526TIP3    H128521   7.422   4.965   4.426
 9526TIP3    H228522   7.287   5.032   4.437
 9527TIP3   OH228523   7.979   2.200   1.445
 9527TIP3    H128524   7.901   2.198   1.500
 9527TIP3    H228525   7.978   2.117   1.398
 9528TIP3   OH228526   4.267   5.851   2.063
 9528TIP3    H128527   4.271   5.851   2.159
 9528TIP3    H228528   4.254   5.760   2.039
 9529TIP3   OH228529   5.303   4.023   1.197
 9529TIP3    H128530   5.302   3.967   1.274
 9529TIP3    H228531   5.310   4.112   1.233
 9530TIP3   OH228532   1.076   5.777   2.745
 9530TIP3    H128533   1.102   5.830   2.669
 9530TIP3    H228534   1.134   5.701   2.742
 9531TIP3   OH228535   6.316   7.643   3.794
 9531TIP3    H128536   6.233   7.663   3.751
 9531TIP3    H228537   6.318   7.548   3.798
 9532TIP3   OH228538   4.651   6.288   1.311
 9532TIP3    H128539   4.609   6.222   1.366
 9532TIP3    H228540   4.744   6.278   1.329
 9533TIP3   OH228541   3.818   7.759   1.670
 9533TIP3    H128542   3.792   7.804   1.590
 9533TIP3    H228543   3.913   7.752   1.665
 9534TIP3   OH228544   2.125   6.461   4.930
 9534TIP3    H128545   2.188   6.447   5.000
 9534TIP3    H228546   2.068   6.531   4.962
 9535TIP3   OH228547   5.940   5.756   2.932
 9535TIP3    H128548   5.936   5.675   2.881
 9535TIP3    H228549   6.022   5.797   2.905
 9536TIP3   OH228550   7.055   7.752   0.824
 9536TIP3    H128551   7.139   7.729   0.783
 9536TIP3    H228552   6.989   7.726   0.759
 9537TIP3   OH228553   3.961   2.208   4.863
 9537TIP3    H128554   3.909   2.137   4.825
 9537TIP3    H228555   4.051   2.187   4.839
 9538TIP3   OH228556   0.912   4.140   5.094
 9538TIP3    H128557   0.849   4.087   5.144
 9538TIP3    H228558   0.874   4.145   5.006
 9539TIP3   OH228559   1.192   3.278   1.120
 9539TIP3    H128560   1.165   3.347   1.181
 9539TIP3    H228561   1.228   3.324   1.045
 9540TIP3   OH228562   8.150   4.841   1.236
 9540TIP3    H128563   8.125   4.927   1.200
 9540TIP3    H228564   8.092   4.829   1.311
 9541TIP3   OH228565   5.378   0.169   0.895
 9541TIP3    H128566   5.309   0.205   0.951
 9541TIP3    H228567   5.334   0.104   0.841
 9542TIP3   OH228568   4.545   1.619   0.405
 9542TIP3    H128569   4.560   1.555   0.334
 9542TIP3    H228570   4.504   1.568   0.475
 9543TIP3   OH228571   5.688   7.381   0.961
 9543TIP3    H128572   5.688   7.464   1.009
 9543TIP3    H228573   5.653   7.403   0.874
 9544TIP3   OH228574   7.494   5.687   1.119
 9544TIP3    H128575   7.418   5.737   1.148
 9544TIP3    H228576   7.564   5.714   1.178
 9545TIP3   OH228577   5.422   2.586   2.869
 9545TIP3    H128578   5.453   2.498   2.845
 9545TIP3    H228579   5.502   2.636   2.883
 9546TIP3   OH228580   6.718   3.355   6.599
 9546TIP3    H128581   6.660   3.279   6.598
 9546TIP3    H228582   6.713   3.390   6.510
 9547TIP3   OH228583   3.916   2.654   0.418
 9547TIP3    H128584   3.985   2.706   0.460
 9547TIP3    H228585   3.852   2.639   0.488
 9548TIP3   OH228586   7.388   3.512   2.806
 9548TIP3    H128587   7.392   3.565   2.727
 9548TIP3    H228588   7.474   3.523   2.847
 9549TIP3   OH228589   3.927   1.470   5.036
 9549TIP3    H128590   3.992   1.439   4.973
 9549TIP3    H228591   3.845   1.470   4.988
 9550TIP3   OH228592   5.797   1.001   6.504
 9550TIP3    H128593   5.859   1.034   6.439
 9550TIP3    H228594   5.723   0.969   6.452
 9551TIP3   OH228595   8.263   0.945   6.636
 9551TIP3    H128596   8.334   0.946   6.701
 9551TIP3    H228597   8.183   0.937   6.688
 9552TIP3   OH228598   8.121   6.969   3.502
 9552TIP3    H128599   8.141   7.016   3.422
 9552TIP3    H228600   8.041   6.920   3.483
 9553TIP3   OH228601   1.279   0.138   0.782
 9553TIP3    H128602   1.309   0.058   0.826
 9553TIP3    H228603   1.261   0.110   0.692
 9554TIP3   OH228604   2.888   6.257   4.388
 9554TIP3    H128605   2.981   6.237   4.374
 9554TIP3    H228606   2.886   6.304   4.471
 9555TIP3   OH228607   4.673   5.842   0.531
 9555TIP3    H128608   4.666   5.885   0.616
 9555TIP3    H228609   4.754   5.877   0.493
 9556TIP3   OH228610   2.413   7.286   3.962
 9556TIP3    H128611   2.336   7.229   3.954
 9556TIP3    H228612   2.475   7.252   3.897
 9557TIP3   OH228613   1.283   5.117   2.992
 9557TIP3    H128614   1.330   5.146   2.914
 9557TIP3    H228615   1.260   5.198   3.038
 9558TIP3   OH228616   3.687   1.266   3.028
 9558TIP3    H128617   3.656   1.354   3.009
 9558TIP3    H228618   3.614   1.225   3.076
 9559TIP3   OH228619   2.876   0.723   2.917
 9559TIP3    H128620   2.857   0.650   2.976
 9559TIP3    H228621   2.959   0.699   2.875
 9560TIP3   OH228622   4.737   0.364   2.460
 9560TIP3    H128623   4.803   0.408   2.513
 9560TIP3    H228624   4.702   0.433   2.403
 9561TIP3   OH228625   6.984   3.477   1.392
 9561TIP3    H128626   7.052   3.435   1.446
 9561TIP3    H228627   6.988   3.569   1.416
 9562TIP3   OH228628   3.309   6.229   0.796
 9562TIP3    H128629   3.376   6.212   0.728
 9562TIP3    H228630   3.243   6.281   0.751
 9563TIP3   OH228631   2.784   4.111   5.196
 9563TIP3    H128632   2.715   4.172   5.221
 9563TIP3    H228633   2.846   4.112   5.269
 9564TIP3   OH228634   5.351   5.289   1.932
 9564TIP3    H128635   5.297   5.283   2.011
 9564TIP3    H228636   5.436   5.252   1.958
 9565TIP3   OH228637   8.120   1.680   5.180
 9565TIP3    H128638   8.181   1.645   5.245
 9565TIP3    H228639   8.035   1.645   5.204
 9566TIP3   OH228640   2.878   6.318   6.183
 9566TIP3    H128641   2.866   6.356   6.270
 9566TIP3    H228642   2.966   6.280   6.185
 9567TIP3   OH228643   2.957   7.398   4.740
 9567TIP3    H128644   3.013   7.346   4.683
 9567TIP3    H228645   2.881   7.342   4.757
 9568TIP3   OH228646   5.167   4.998   2.945
 9568TIP3    H128647   5.184   4.986   3.038
 9568TIP3    H228648   5.222   4.933   2.901
 9569TIP3   OH228649   5.217   2.512   6.094
 9569TIP3    H128650   5.169   2.437   6.059
 9569TIP3    H228651   5.306   2.501   6.060
 9570TIP3   OH228652   1.224   7.086   4.634
 9570TIP3    H128653   1.228   6.992   4.614
 9570TIP3    H228654   1.132   7.102   4.654
 9571TIP3   OH228655   4.979   0.309   4.854
 9571TIP3    H128656   5.032   0.239   4.816
 9571TIP3    H228657   5.037   0.355   4.914
 9572TIP3   OH228658   3.913   1.917   0.145
 9572TIP3    H128659   3.898   1.986   0.080
 9572TIP3    H228660   3.851   1.936   0.215
 9573TIP3   OH228661   2.282   7.410   2.398
 9573TIP3    H128662   2.343   7.386   2.329
 9573TIP3    H228663   2.240   7.490   2.366
 9574TIP3   OH228664   1.670   4.987   5.375
 9574TIP3    H128665   1.634   4.902   5.352
 9574TIP3    H228666   1.666   5.038   5.294
 9575TIP3   OH228667   1.331   1.641   6.613
 9575TIP3    H128668   1.292   1.653   6.526
 9575TIP3    H228669   1.257   1.650   6.673
 9576TIP3   OH228670   6.148   0.683   5.265
 9576TIP3    H128671   6.136   0.753   5.201
 9576TIP3    H228672   6.211   0.718   5.328
 9577TIP3   OH228673   2.628   0.921   0.672
 9577TIP3    H128674   2.577   0.840   0.675
 9577TIP3    H228675   2.566   0.987   0.639
 9578TIP3   OH228676   6.699   2.770   1.643
 9578TIP3    H128677   6.637   2.843   1.650
 9578TIP3    H228678   6.651   2.701   1.598
 9579TIP3   OH228679   2.266   1.371   2.249
 9579TIP3    H128680   2.286   1.432   2.321
 9579TIP3    H228681   2.330   1.301   2.258
 9580TIP3   OH228682   2.286   2.415   6.612
 9580TIP3    H128683   2.341   2.493   6.604
 9580TIP3    H228684   2.346   2.342   6.602
 9581TIP3   OH228685   7.571   5.987   0.213
 9581TIP3    H128686   7.561   6.081   0.231
 9581TIP3    H228687   7.663   5.969   0.231
 9582TIP3   OH228688   4.809   3.184   6.210
 9582TIP3    H128689   4.762   3.267   6.218
 9582TIP3    H228690   4.844   3.168   6.298
 9583TIP3   OH228691   4.007   5.136   5.260
 9583TIP3    H128692   3.913   5.145   5.278
 9583TIP3    H228693   4.016   5.051   5.218
 9584TIP3   OH228694   0.617   5.606   2.449
 9584TIP3    H128695   0.580   5.593   2.362
 9584TIP3    H228696   0.542   5.607   2.508
 9585TIP3   OH228697   6.601   1.692   3.523
 9585TIP3    H128698   6.668   1.647   3.575
 9585TIP3    H228699   6.613   1.785   3.543
 9586TIP3   OH228700   3.684   3.424   5.174
 9586TIP3    H128701   3.645   3.342   5.204
 9586TIP3    H228702   3.655   3.489   5.238
 9587TIP3   OH228703   0.081   4.988   6.247
 9587TIP3    H128704   0.075   5.038   6.328
 9587TIP3    H228705   0.121   5.048   6.184
 9588TIP3   OH228706   7.771   3.324   4.713
 9588TIP3    H128707   7.786   3.412   4.679
 9588TIP3    H228708   7.851   3.302   4.761
 9589TIP3   OH228709   0.740   0.509   0.575
 9589TIP3    H128710   0.707   0.459   0.501
 9589TIP3    H228711   0.699   0.595   0.567
 9590TIP3   OH228712   7.518   2.442   0.890
 9590TIP3    H128713   7.559   2.465   0.973
 9590TIP3    H228714   7.427   2.422   0.913
 9591TIP3   OH228715   6.636   4.092   2.415
 9591TIP3    H128716   6.679   4.164   2.460
 9591TIP3    H228717   6.623   4.026   2.484
 9592TIP3   OH228718   4.714   1.425   1.357
 9592TIP3    H128719   4.805   1.399   1.344
 9592TIP3    H228720   4.695   1.484   1.285
 9593TIP3   OH228721   3.141   1.329   3.174
 9593TIP3    H128722   3.125   1.314   3.267
 9593TIP3    H228723   3.211   1.395   3.172
 9594TIP3   OH228724   1.938   2.360   3.265
 9594TIP3    H128725   1.943   2.317   3.180
 9594TIP3    H228726   1.922   2.452   3.243
 9595TIP3   OH228727   6.044   1.179   0.352
 9595TIP3    H128728   5.984   1.107   0.371
 9595TIP3    H228729   6.131   1.144   0.372
 9596TIP3   OH228730   0.372   3.063   0.865
 9596TIP3    H128731   0.453   3.053   0.815
 9596TIP3    H228732   0.313   3.110   0.805
 9597TIP3   OH228733   5.554   3.320   0.390
 9597TIP3    H128734   5.490   3.371   0.340
 9597TIP3    H228735   5.539   3.346   0.481
 9598TIP3   OH228736   7.065   1.193   4.784
 9598TIP3    H128737   7.077   1.110   4.830
 9598TIP3    H228738   7.016   1.169   4.705
 9599TIP3   OH228739   1.203   6.482   2.630
 9599TIP3    H128740   1.118   6.513   2.662
 9599TIP3    H228741   1.266   6.547   2.663
 9600TIP3   OH228742   2.972   2.661   6.406
 9600TIP3    H128743   2.934   2.744   6.434
 9600TIP3    H228744   3.016   2.627   6.484
 9601TIP3   OH228745   6.699   5.853   2.264
 9601TIP3    H128746   6.683   5.760   2.250
 9601TIP3    H228747   6.621   5.884   2.310
 9602TIP3   OH228748   0.086   4.755   6.691
 9602TIP3    H128749   0.096   4.849   6.708
 9602TIP3    H228750   0.169   4.717   6.719
 9603TIP3   OH228751   3.895   1.135   0.704
 9603TIP3    H128752   3.910   1.189   0.782
 9603TIP3    H228753   3.804   1.107   0.711
 9604TIP3   OH228754   5.971   7.336   4.843
 9604TIP3    H128755   6.022   7.280   4.901
 9604TIP3    H228756   5.880   7.314   4.860
 9605TIP3   OH228757   2.595   3.022   2.263
 9605TIP3    H128758   2.680   2.980   2.254
 9605TIP3    H228759   2.589   3.081   2.188
 9606TIP3   OH228760   2.003   2.505   5.386
 9606TIP3    H128761   1.935   2.533   5.325
 9606TIP3    H228762   2.041   2.427   5.344
 9607TIP3   OH228763   7.591   3.558   5.592
 9607TIP3    H128764   7.533   3.482   5.591
 9607TIP3    H228765   7.658   3.537   5.656
 9608TIP3   OH228766   7.226   4.084   2.232
 9608TIP3    H128767   7.204   4.044   2.148
 9608TIP3    H228768   7.292   4.025   2.270
 9609TIP3   OH228769   7.035   5.667   5.520
 9609TIP3    H128770   7.069   5.623   5.597
 9609TIP3    H228771   7.076   5.754   5.522
 9610TIP3   OH228772   3.086   6.881   4.251
 9610TIP3    H128773   3.040   6.806   4.213
 9610TIP3    H228774   3.141   6.913   4.179
 9611TIP3   OH228775   2.221   4.007   1.783
 9611TIP3    H128776   2.204   3.914   1.797
 9611TIP3    H228777   2.185   4.025   1.696
 9612TIP3   OH228778   2.162   0.557   0.545
 9612TIP3    H128779   2.160   0.537   0.638
 9612TIP3    H228780   2.129   0.647   0.539
 9613TIP3   OH228781   2.849   5.079   6.079
 9613TIP3    H128782   2.844   5.174   6.079
 9613TIP3    H228783   2.814   5.053   6.164
 9614TIP3   OH228784   7.646   5.331   5.387
 9614TIP3    H128785   7.647   5.272   5.463
 9614TIP3    H228786   7.575   5.298   5.332
 9615TIP3   OH228787   1.718   5.557   0.799
 9615TIP3    H128788   1.739   5.644   0.833
 9615TIP3    H228789   1.755   5.497   0.863
 9616TIP3   OH228790   4.085   2.309   3.291
 9616TIP3    H128791   4.005   2.288   3.244
 9616TIP3    H228792   4.100   2.234   3.348
 9617TIP3   OH228793   7.648   3.118   4.833
 9617TIP3    H128794   7.653   3.059   4.759
 9617TIP3    H228795   7.678   3.202   4.800
 9618TIP3   OH228796   7.954   4.669   1.126
 9618TIP3    H128797   8.016   4.738   1.150
 9618TIP3    H228798   7.985   4.638   1.040
 9619TIP3   OH228799   3.340   1.775   2.298
 9619TIP3    H128800   3.288   1.699   2.274
 9619TIP3    H228801   3.419   1.769   2.243
 9620TIP3   OH228802   5.503   4.310   0.930
 9620TIP3    H128803   5.468   4.383   0.879
 9620TIP3    H228804   5.564   4.266   0.871
 9621TIP3   OH228805   7.790   7.558   0.798
 9621TIP3    H128806   7.813   7.592   0.884
 9621TIP3    H228807   7.872   7.525   0.761
 9622TIP3   OH228808   1.258   3.920   2.599
 9622TIP3    H128809   1.203   3.850   2.635
 9622TIP3    H228810   1.347   3.885   2.603
 9623TIP3   OH228811   5.354   1.220   1.466
 9623TIP3    H128812   5.294   1.159   1.510
 9623TIP3    H228813   5.296   1.285   1.425
 9624TIP3   OH228814   0.708   6.845   2.466
 9624TIP3    H128815   0.626   6.802   2.488
 9624TIP3    H228816   0.776   6.785   2.499
 9625TIP3   OH228817   4.206   4.026   5.695
 9625TIP3    H128818   4.127   4.077   5.714
 9625TIP3    H228819   4.278   4.087   5.710
 9626TIP3   OH228820   7.716   3.754   4.247
 9626TIP3    H128821   7.722   3.834   4.195
 9626TIP3    H228822   7.806   3.735   4.272
 9627TIP3   OH228823   2.734   7.811   2.429
 9627TIP3    H128824   2.766   7.739   2.374
 9627TIP3    H228825   2.699   7.875   2.367
 9628TIP3   OH228826   1.765   2.240   3.428
 9628TIP3    H128827   1.672   2.262   3.421
 9628TIP3    H228828   1.806   2.281   3.352
 9629TIP3   OH228829   0.520   2.069   2.152
 9629TIP3    H128830   0.426   2.061   2.171
 9629TIP3    H228831   0.541   1.989   2.103
 9630TIP3   OH228832   7.371   3.123   2.994
 9630TIP3    H128833   7.392   3.158   2.908
 9630TIP3    H228834   7.428   3.173   3.054
 9631TIP3   OH228835   5.681   6.954   2.214
 9631TIP3    H128836   5.692   6.993   2.301
 9631TIP3    H228837   5.638   7.022   2.162
 9632TIP3   OH228838   1.669   1.982   3.415
 9632TIP3    H128839   1.700   2.072   3.423
 9632TIP3    H228840   1.672   1.947   3.504
 9633TIP3   OH228841   6.206   3.967   6.035
 9633TIP3    H128842   6.223   4.060   6.050
 9633TIP3    H228843   6.140   3.966   5.966
 9634TIP3   OH228844   3.198   2.434   4.887
 9634TIP3    H128845   3.148   2.352   4.881
 9634TIP3    H228846   3.229   2.437   4.977
 9635TIP3   OH228847   7.646   0.474   3.016
 9635TIP3    H128848   7.656   0.388   2.976
 9635TIP3    H228849   7.606   0.527   2.947
 9636TIP3   OH228850   0.704   4.787   3.289
 9636TIP3    H128851   0.713   4.782   3.194
 9636TIP3    H228852   0.735   4.702   3.321
 9637TIP3   OH228853   4.925   4.363   6.545
 9637TIP3    H128854   4.992   4.297   6.564
 9637TIP3    H228855   4.885   4.381   6.631
 9638TIP3   OH228856   1.560   0.569   6.204
 9638TIP3    H128857   1.516   0.614   6.132
 9638TIP3    H228858   1.589   0.486   6.167
 9639TIP3   OH228859   0.311   0.253   4.325
 9639TIP3    H128860   0.292   0.346   4.312
 9639TIP3    H228861   0.306   0.241   4.420
 9640TIP3   OH228862   3.814   2.475   5.017
 9640TIP3    H128863   3.742   2.533   4.993
 9640TIP3    H228864   3.883   2.534   5.047
 9641TIP3   OH228865   3.824   7.261   6.444
 9641TIP3    H128866   3.832   7.246   6.538
 9641TIP3    H228867   3.872   7.189   6.404
 9642TIP3   OH228868   6.108   7.419   1.745
 9642TIP3    H128869   6.113   7.331   1.710
 9642TIP3    H228870   6.092   7.475   1.669
 9643TIP3   OH228871   4.326   6.290   1.562
 9643TIP3    H128872   4.311   6.366   1.506
 9643TIP3    H228873   4.369   6.226   1.505
 9644TIP3   OH228874   7.166   3.476   4.561
 9644TIP3    H128875   7.223   3.438   4.494
 9644TIP3    H228876   7.181   3.570   4.555
 9645TIP3   OH228877   0.811   3.670   3.425
 9645TIP3    H128878   0.834   3.620   3.347
 9645TIP3    H228879   0.722   3.645   3.446
 9646TIP3   OH228880   6.955   5.028   2.508
 9646TIP3    H128881   6.880   4.969   2.506
 9646TIP3    H228882   6.937   5.092   2.438
 9647TIP3   OH228883   3.616   3.579   4.288
 9647TIP3    H128884   3.687   3.520   4.263
 9647TIP3    H228885   3.658   3.665   4.293
 9648TIP3   OH228886   2.505   3.511   6.719
 9648TIP3    H128887   2.499   3.456   6.641
 9648TIP3    H228888   2.565   3.464   6.777
 9649TIP3   OH228889   7.351   5.897   4.279
 9649TIP3    H128890   7.422   5.930   4.223
 9649TIP3    H228891   7.274   5.946   4.249
 9650TIP3   OH228892   1.741   2.510   5.110
 9650TIP3    H128893   1.774   2.545   5.027
 9650TIP3    H228894   1.650   2.538   5.114
 9651TIP3   OH228895   4.542   6.689   0.459
 9651TIP3    H128896   4.474   6.633   0.422
 9651TIP3    H228897   4.494   6.752   0.512
 9652TIP3   OH228898   1.287   7.123   1.379
 9652TIP3    H128899   1.273   7.133   1.285
 9652TIP3    H228900   1.332   7.203   1.406
 9653TIP3   OH228901   3.051   7.236   4.541
 9653TIP3    H128902   3.145   7.223   4.532
 9653TIP3    H228903   3.013   7.148   4.531
 9654TIP3   OH228904   4.770   3.821   2.664
 9654TIP3    H128905   4.762   3.781   2.751
 9654TIP3    H228906   4.737   3.755   2.604
 9655TIP3   OH228907   6.868   7.551   2.235
 9655TIP3    H128908   6.857   7.645   2.218
 9655TIP3    H228909   6.883   7.513   2.148
 9656TIP3   OH228910   7.433   7.452   5.789
 9656TIP3    H128911   7.520   7.474   5.756
 9656TIP3    H228912   7.375   7.466   5.714
 9657TIP3   OH228913   5.715   7.440   6.641
 9657TIP3    H128914   5.668   7.503   6.587
 9657TIP3    H228915   5.757   7.381   6.579
 9658TIP3   OH228916   1.058   0.243   1.044
 9658TIP3    H128917   1.044   0.227   0.950
 9658TIP3    H228918   0.975   0.278   1.075
 9659TIP3   OH228919   1.791   7.618   5.687
 9659TIP3    H128920   1.768   7.704   5.650
 9659TIP3    H228921   1.842   7.639   5.766
 9660TIP3   OH228922   4.616   2.480   1.780
 9660TIP3    H128923   4.604   2.390   1.810
 9660TIP3    H228924   4.688   2.476   1.717
 9661TIP3   OH228925   8.238   0.205   0.299
 9661TIP3    H128926   8.146   0.230   0.301
 9661TIP3    H228927   8.278   0.266   0.236
 9662TIP3   OH228928   2.973   4.346   3.873
 9662TIP3    H128929   2.948   4.413   3.937
 9662TIP3    H228930   3.038   4.292   3.919
 9663TIP3   OH228931   2.249   6.475   4.525
 9663TIP3    H128932   2.269   6.493   4.433
 9663TIP3    H228933   2.211   6.556   4.558
 9664TIP3   OH228934   0.479   0.774   6.380
 9664TIP3    H128935   0.537   0.742   6.448
 9664TIP3    H228936   0.531   0.771   6.300
 9665TIP3   OH228937   7.316   2.746   3.385
 9665TIP3    H128938   7.378   2.812   3.354
 9665TIP3    H228939   7.270   2.788   3.457
 9666TIP3   OH228940   6.786   3.794   3.720
 9666TIP3    H128941   6.760   3.812   3.630
 9666TIP3    H228942   6.704   3.776   3.766
 9667TIP3   OH228943   4.404   7.590   2.632
 9667TIP3    H128944   4.431   7.638   2.554
 9667TIP3    H228945   4.331   7.641   2.668
 9668TIP3   OH228946   6.427   1.479   2.976
 9668TIP3    H128947   6.522   1.490   2.969
 9668TIP3    H228948   6.405   1.521   3.059
 9669TIP3   OH228949   2.470   4.049   1.328
 9669TIP3    H128950   2.472   4.107   1.251
 9669TIP3    H228951   2.539   4.082   1.385
 9670TIP3   OH228952   4.350   2.244   3.152
 9670TIP3    H128953   4.267   2.212   3.187
 9670TIP3    H228954   4.354   2.210   3.063
 9671TIP3   OH228955   6.105   1.170   5.320
 9671TIP3    H128956   6.146   1.172   5.234
 9671TIP3    H228957   6.012   1.157   5.302
 9672TIP3   OH228958   5.624   6.434   4.846
 9672TIP3    H128959   5.639   6.462   4.937
 9672TIP3    H228960   5.529   6.440   4.835
 9673TIP3   OH228961   3.201   0.677   5.193
 9673TIP3    H128962   3.178   0.659   5.102
 9673TIP3    H228963   3.244   0.762   5.191
 9674TIP3   OH228964   1.526   6.871   4.135
 9674TIP3    H128965   1.593   6.804   4.125
 9674TIP3    H228966   1.575   6.951   4.152
 9675TIP3   OH228967   1.145   2.113   5.010
 9675TIP3    H128968   1.061   2.112   4.965
 9675TIP3    H228969   1.205   2.157   4.949
 9676TIP3   OH228970   7.617   4.588   4.320
 9676TIP3    H128971   7.704   4.559   4.347
 9676TIP3    H228972   7.563   4.574   4.398
 9677TIP3   OH228973   1.337   0.652   5.655
 9677TIP3    H128974   1.289   0.668   5.735
 9677TIP3    H228975   1.272   0.617   5.593
 9678TIP3   OH228976   0.791   3.949   0.227
 9678TIP3    H128977   0.735   3.873   0.244
 9678TIP3    H228978   0.811   3.943   0.134
 9679TIP3   OH228979   4.881   5.464   3.230
 9679TIP3    H128980   4.865   5.389   3.172
 9679TIP3    H228981   4.913   5.532   3.171
 9680TIP3   OH228982   8.043   0.611   0.368
 9680TIP3    H128983   7.960   0.657   0.360
 9680TIP3    H228984   8.070   0.626   0.459
 9681TIP3   OH228985   0.277   0.191   6.441
 9681TIP3    H128986   0.205   0.240   6.481
 9681TIP3    H228987   0.320   0.255   6.383
 9682TIP3   OH228988   3.783   5.225   2.670
 9682TIP3    H128989   3.771   5.260   2.758
 9682TIP3    H228990   3.710   5.164   2.658
 9683TIP3   OH228991   7.925   5.025   1.821
 9683TIP3    H128992   7.933   4.958   1.753
 9683TIP3    H228993   7.847   4.999   1.870
 9684TIP3   OH228994   2.639   0.352   0.584
 9684TIP3    H128995   2.547   0.377   0.586
 9684TIP3    H228996   2.641   0.261   0.614
 9685TIP3   OH228997   5.552   0.821   5.118
 9685TIP3    H128998   5.488   0.805   5.187
 9685TIP3    H228999   5.637   0.810   5.162
 9686TIP3   OH229000   3.771   3.070   6.378
 9686TIP3    H129001   3.838   3.036   6.318
 9686TIP3    H229002   3.769   3.007   6.450
 9687TIP3   OH229003   2.524   5.946   3.111
 9687TIP3    H129004   2.484   6.033   3.112
 9687TIP3    H229005   2.482   5.900   3.038
 9688TIP3   OH229006   5.633   6.522   3.611
 9688TIP3    H129007   5.550   6.479   3.591
 9688TIP3    H229008   5.688   6.454   3.648
 9689TIP3   OH229009   3.180   6.794   2.174
 9689TIP3    H129010   3.212   6.884   2.179
 9689TIP3    H229011   3.085   6.802   2.173
 9690TIP3   OH229012   6.183   5.622   3.977
 9690TIP3    H129013   6.171   5.635   3.883
 9690TIP3    H229014   6.277   5.637   3.992
 9691TIP3   OH229015   7.937   3.657   6.535
 9691TIP3    H129016   7.990   3.729   6.499
 9691TIP3    H229017   7.889   3.623   6.460
 9692TIP3   OH229018   8.254   5.576   5.956
 9692TIP3    H129019   8.325   5.621   6.002
 9692TIP3    H229020   8.175   5.623   5.981
 9693TIP3   OH229021   2.153   5.429   5.048
 9693TIP3    H129022   2.188   5.517   5.038
 9693TIP3    H229023   2.156   5.412   5.142
 9694TIP3   OH229024   1.146   3.468   1.315
 9694TIP3    H129025   1.184   3.554   1.333
 9694TIP3    H229026   1.110   3.439   1.399
 9695TIP3   OH229027   4.455   2.307   0.882
 9695TIP3    H129028   4.449   2.387   0.934
 9695TIP3    H229029   4.549   2.292   0.872
 9696TIP3   OH229030   2.381   2.691   2.770
 9696TIP3    H129031   2.387   2.766   2.710
 9696TIP3    H229032   2.397   2.614   2.714
 9697TIP3   OH229033   4.371   3.405   5.456
 9697TIP3    H129034   4.289   3.444   5.484
 9697TIP3    H229035   4.374   3.420   5.361
 9698TIP3   OH229036   0.768   6.061   3.374
 9698TIP3    H129037   0.841   6.086   3.431
 9698TIP3    H229038   0.786   5.970   3.350
 9699TIP3   OH229039   1.092   2.540   6.520
 9699TIP3    H129040   1.124   2.586   6.597
 9699TIP3    H229041   1.007   2.579   6.502
 9700TIP3   OH229042   1.749   0.413   6.488
 9700TIP3    H129043   1.790   0.407   6.401
 9700TIP3    H229044   1.689   0.339   6.491
 9701TIP3   OH229045   1.295   5.026   0.807
 9701TIP3    H129046   1.385   5.017   0.775
 9701TIP3    H229047   1.278   4.944   0.853
 9702TIP3   OH229048   5.859   2.714   6.731
 9702TIP3    H129049   5.861   2.619   6.743
 9702TIP3    H229050   5.769   2.738   6.749
 9703TIP3   OH229051   0.663   2.816   3.594
 9703TIP3    H129052   0.732   2.859   3.645
 9703TIP3    H229053   0.591   2.879   3.594
 9704TIP3   OH229054   8.212   2.526   2.605
 9704TIP3    H129055   8.240   2.470   2.532
 9704TIP3    H229056   8.206   2.467   2.679
 9705TIP3   OH229057   3.196   4.343   0.061
 9705TIP3    H129058   3.173   4.435   0.049
 9705TIP3    H229059   3.200   4.307  -0.028
 9706TIP3   OH229060   4.285   4.581   0.565
 9706TIP3    H129061   4.346   4.534   0.621
 9706TIP3    H229062   4.278   4.526   0.486
 9707TIP3   OH229063   0.887   0.641   6.334
 9707TIP3    H129064   0.811   0.641   6.392
 9707TIP3    H229065   0.957   0.600   6.385
 9708TIP3   OH229066   0.472   3.745   5.821
 9708TIP3    H129067   0.391   3.711   5.857
 9708TIP3    H229068   0.535   3.674   5.829
 9709TIP3   OH229069   5.735   5.185   2.495
 9709TIP3    H129070   5.665   5.204   2.434
 9709TIP3    H229071   5.794   5.260   2.488
 9710TIP3   OH229072   4.441   6.039   4.491
 9710TIP3    H129073   4.526   6.035   4.446
 9710TIP3    H229074   4.390   6.100   4.438
 9711TIP3   OH229075   4.910   2.529   2.406
 9711TIP3    H129076   4.880   2.438   2.402
 9711TIP3    H229077   4.989   2.526   2.459
 9712TIP3   OH229078   4.049   3.204   1.984
 9712TIP3    H129079   4.107   3.229   1.913
 9712TIP3    H229080   4.093   3.132   2.028
 9713TIP3   OH229081   5.030   5.327   5.842
 9713TIP3    H129082   5.062   5.414   5.866
 9713TIP3    H229083   4.935   5.337   5.840
 9714TIP3   OH229084   3.076   1.970   5.617
 9714TIP3    H129085   3.050   2.060   5.596
 9714TIP3    H229086   3.003   1.916   5.588
 9715TIP3   OH229087   3.879   6.044   1.748
 9715TIP3    H129088   3.957   6.063   1.695
 9715TIP3    H229089   3.904   6.069   1.837
 9716TIP3   OH229090   8.036   4.795   0.741
 9716TIP3    H129091   8.089   4.813   0.663
 9716TIP3    H229092   8.053   4.702   0.760
 9717TIP3   OH229093   1.714   0.665   0.713
 9717TIP3    H129094   1.655   0.596   0.744
 9717TIP3    H229095   1.668   0.746   0.734
 9718TIP3   OH229096   1.914   0.462   5.177
 9718TIP3    H129097   1.948   0.547   5.206
 9718TIP3    H229098   1.991   0.406   5.172
 9719TIP3   OH229099   3.364   6.581   3.582
 9719TIP3    H129100   3.453   6.616   3.588
 9719TIP3    H229101   3.326   6.624   3.506
 9720TIP3   OH229102   2.606   1.295   2.278
 9720TIP3    H129103   2.636   1.266   2.364
 9720TIP3    H229104   2.625   1.389   2.276
 9721TIP3   OH229105   2.597   2.279   5.539
 9721TIP3    H129106   2.551   2.232   5.609
 9721TIP3    H229107   2.615   2.365   5.576
 9722TIP3   OH229108   3.971   3.060   2.887
 9722TIP3    H129109   4.049   3.058   2.832
 9722TIP3    H229110   4.002   3.034   2.974
 9723TIP3   OH229111   6.337   5.863   1.156
 9723TIP3    H129112   6.311   5.948   1.122
 9723TIP3    H229113   6.301   5.860   1.245
 9724TIP3   OH229114   0.836   3.988   6.138
 9724TIP3    H129115   0.812   3.895   6.135
 9724TIP3    H229116   0.925   3.988   6.171
 9725TIP3   OH229117   4.198   6.646   4.537
 9725TIP3    H129118   4.153   6.607   4.462
 9725TIP3    H229119   4.265   6.582   4.561
 9726TIP3   OH229120   3.879   2.008   1.713
 9726TIP3    H129121   3.808   2.041   1.768
 9726TIP3    H229122   3.843   1.931   1.671
 9727TIP3   OH229123   2.705   5.505   5.887
 9727TIP3    H129124   2.620   5.530   5.851
 9727TIP3    H229125   2.761   5.581   5.872
 9728TIP3   OH229126   1.003   2.696   3.006
 9728TIP3    H129127   1.088   2.704   2.963
 9728TIP3    H229128   0.989   2.602   3.015
 9729TIP3   OH229129   5.136   5.346   1.067
 9729TIP3    H129130   5.089   5.299   0.998
 9729TIP3    H229131   5.172   5.276   1.122
 9730TIP3   OH229132   4.193   0.446   6.630
 9730TIP3    H129133   4.118   0.487   6.674
 9730TIP3    H229134   4.239   0.400   6.700
 9731TIP3   OH229135   1.069   3.521   0.884
 9731TIP3    H129136   1.022   3.481   0.957
 9731TIP3    H229137   1.130   3.454   0.854
 9732TIP3   OH229138   1.090   4.467   2.815
 9732TIP3    H129139   1.040   4.534   2.769
 9732TIP3    H229140   1.162   4.445   2.755
 9733TIP3   OH229141   3.010   3.777   5.333
 9733TIP3    H129142   2.973   3.845   5.390
 9733TIP3    H229143   2.938   3.717   5.318
 9734TIP3   OH229144   5.865   4.893   4.525
 9734TIP3    H129145   5.796   4.883   4.590
 9734TIP3    H229146   5.819   4.901   4.441
 9735TIP3   OH229147   4.831   6.386   0.712
 9735TIP3    H129148   4.811   6.385   0.806
 9735TIP3    H229149   4.748   6.407   0.670
 9736TIP3   OH229150   2.168   1.696   0.129
 9736TIP3    H129151   2.200   1.662   0.213
 9736TIP3    H229152   2.089   1.645   0.112
 9737TIP3   OH229153   5.108   6.446   0.742
 9737TIP3    H129154   5.014   6.454   0.757
 9737TIP3    H229155   5.143   6.421   0.828
 9738TIP3   OH229156   0.822   4.326   6.430
 9738TIP3    H129157   0.796   4.410   6.469
 9738TIP3    H229158   0.750   4.267   6.453
 9739TIP3   OH229159   4.057   2.966   3.147
 9739TIP3    H129160   4.034   2.874   3.164
 9739TIP3    H229161   4.149   2.973   3.172
 9740TIP3   OH229162   1.304   0.763   0.746
 9740TIP3    H129163   1.323   0.848   0.787
 9740TIP3    H229164   1.289   0.783   0.654
 9741TIP3   OH229165   2.495   1.463   0.129
 9741TIP3    H129166   2.547   1.486   0.052
 9741TIP3    H229167   2.557   1.463   0.201
 9742TIP3   OH229168   6.229   1.964   2.006
 9742TIP3    H129169   6.294   1.977   2.076
 9742TIP3    H229170   6.172   1.895   2.038
 9743TIP3   OH229171   2.711   4.201   2.962
 9743TIP3    H129172   2.723   4.285   3.006
 9743TIP3    H229173   2.616   4.189   2.958
 9744TIP3   OH229174   3.894   5.926   2.952
 9744TIP3    H129175   3.892   6.021   2.936
 9744TIP3    H229176   3.928   5.918   3.042
 9745TIP3   OH229177   0.263   7.139   2.674
 9745TIP3    H129178   0.204   7.197   2.626
 9745TIP3    H229179   0.303   7.084   2.606
 9746TIP3   OH229180   7.393   2.802   0.734
 9746TIP3    H129181   7.341   2.729   0.701
 9746TIP3    H229182   7.333   2.876   0.736
 9747TIP3   OH229183   5.560   5.708   3.931
 9747TIP3    H129184   5.570   5.731   4.023
 9747TIP3    H229185   5.593   5.783   3.883
 9748TIP3   OH229186   0.765   4.571   1.813
 9748TIP3    H129187   0.739   4.588   1.722
 9748TIP3    H229188   0.850   4.527   1.806
 9749TIP3   OH229189   2.198   5.108   5.591
 9749TIP3    H129190   2.239   5.192   5.571
 9749TIP3    H229191   2.141   5.091   5.517
 9750TIP3   OH229192   1.442   3.335   6.555
 9750TIP3    H129193   1.516   3.373   6.603
 9750TIP3    H229194   1.376   3.319   6.622
 9751TIP3   OH229195   4.814   1.018   4.720
 9751TIP3    H129196   4.851   1.013   4.632
 9751TIP3    H229197   4.889   1.003   4.778
 9752TIP3   OH229198   7.058   3.219   6.388
 9752TIP3    H129199   7.117   3.284   6.350
 9752TIP3    H229200   7.095   3.135   6.361
 9753TIP3   OH229201   0.087   4.388   5.775
 9753TIP3    H129202   0.103   4.413   5.866
 9753TIP3    H229203   0.163   4.336   5.751
 9754TIP3   OH229204   5.729   4.533   4.399
 9754TIP3    H129205   5.724   4.445   4.363
 9754TIP3    H229206   5.707   4.590   4.325
 9755TIP3   OH229207   8.075   0.727   2.050
 9755TIP3    H129208   8.018   0.783   2.104
 9755TIP3    H229209   8.022   0.649   2.032
 9756TIP3   OH229210   8.302   2.422   6.621
 9756TIP3    H129211   8.271   2.488   6.560
 9756TIP3    H229212   8.272   2.451   6.707
 9757TIP3   OH229213   5.974   1.198   2.667
 9757TIP3    H129214   6.066   1.182   2.689
 9757TIP3    H229215   5.940   1.248   2.741
 9758TIP3   OH229216   7.957   7.429   2.401
 9758TIP3    H129217   8.017   7.477   2.457
 9758TIP3    H229218   7.907   7.373   2.461
 9759TIP3   OH229219   2.255   2.230   0.113
 9759TIP3    H129220   2.278   2.143   0.144
 9759TIP3    H229221   2.193   2.215   0.042
 9760TIP3   OH229222   4.226   2.998   2.037
 9760TIP3    H129223   4.236   2.908   2.066
 9760TIP3    H229224   4.281   3.049   2.097
 9761TIP3   OH229225   5.516   6.476   1.596
 9761TIP3    H129226   5.500   6.528   1.675
 9761TIP3    H229227   5.431   6.474   1.552
 9762TIP3   OH229228   5.158   2.415   0.967
 9762TIP3    H129229   5.111   2.378   0.893
 9762TIP3    H229230   5.106   2.490   0.994
 9763TIP3   OH229231   1.572   3.291   2.620
 9763TIP3    H129232   1.641   3.339   2.575
 9763TIP3    H229233   1.510   3.359   2.647
 9764TIP3   OH229234   0.833   5.088   0.245
 9764TIP3    H129235   0.900   5.027   0.275
 9764TIP3    H229236   0.810   5.139   0.323
 9765TIP3   OH229237   1.882   6.905   0.973
 9765TIP3    H129238   1.876   6.937   0.883
 9765TIP3    H229239   1.973   6.920   0.999
 9766TIP3   OH229240   1.818   1.128   6.475
 9766TIP3    H129241   1.891   1.156   6.419
 9766TIP3    H229242   1.746   1.185   6.450
 9767TIP3   OH229243   1.259   7.470   0.304
 9767TIP3    H129244   1.238   7.477   0.211
 9767TIP3    H229245   1.231   7.554   0.341
 9768TIP3   OH229246   6.400   6.121   6.637
 9768TIP3    H129247   6.363   6.035   6.659
 9768TIP3    H229248   6.334   6.163   6.583
 9769TIP3   OH229249   7.785   0.077   1.321
 9769TIP3    H129250   7.805   0.114   1.236
 9769TIP3    H229251   7.813   0.144   1.384
 9770TIP3   OH229252   3.400   2.859   0.456
 9770TIP3    H129253   3.364   2.947   0.454
 9770TIP3    H229254   3.329   2.804   0.489
 9771TIP3   OH229255   4.483   3.083   3.533
 9771TIP3    H129256   4.449   3.145   3.599
 9771TIP3    H229257   4.408   3.029   3.509
 9772TIP3   OH229258   1.644   2.565   2.259
 9772TIP3    H129259   1.628   2.471   2.250
 9772TIP3    H229260   1.556   2.604   2.260
 9773TIP3   OH229261   0.934   6.782   3.399
 9773TIP3    H129262   0.937   6.770   3.493
 9773TIP3    H229263   1.025   6.778   3.371
 9774TIP3   OH229264   7.133   2.565   5.599
 9774TIP3    H129265   7.077   2.627   5.552
 9774TIP3    H229266   7.212   2.615   5.619
 9775TIP3   OH229267   6.432   3.710   0.479
 9775TIP3    H129268   6.402   3.630   0.437
 9775TIP3    H229269   6.519   3.726   0.443
 9776TIP3   OH229270   4.209   7.427   1.404
 9776TIP3    H129271   4.274   7.495   1.422
 9776TIP3    H229272   4.150   7.466   1.340
 9777TIP3   OH229273   2.936   5.675   0.243
 9777TIP3    H129274   2.919   5.591   0.201
 9777TIP3    H229275   2.851   5.702   0.278
 9778TIP3   OH229276   4.513   1.357   1.136
 9778TIP3    H129277   4.543   1.448   1.132
 9778TIP3    H229278   4.533   1.329   1.225
 9779TIP3   OH229279   5.261   5.507   5.411
 9779TIP3    H129280   5.206   5.538   5.339
 9779TIP3    H229281   5.201   5.464   5.471
 9780TIP3   OH229282   6.283   4.658   1.655
 9780TIP3    H129283   6.349   4.715   1.616
 9780TIP3    H229284   6.224   4.637   1.582
 9781TIP3   OH229285   1.543   3.647   2.813
 9781TIP3    H129286   1.460   3.628   2.770
 9781TIP3    H229287   1.525   3.723   2.868
 9782TIP3   OH229288   7.525   6.326   6.095
 9782TIP3    H129289   7.461   6.381   6.141
 9782TIP3    H229290   7.610   6.357   6.125
 9783TIP3   OH229291   8.222   2.390   1.760
 9783TIP3    H129292   8.283   2.442   1.707
 9783TIP3    H229293   8.135   2.418   1.730
 9784TIP3   OH229294   3.763   1.153   4.059
 9784TIP3    H129295   3.680   1.107   4.045
 9784TIP3    H229296   3.830   1.085   4.056
 9785TIP3   OH229297   1.304   7.176   1.124
 9785TIP3    H129298   1.354   7.257   1.132
 9785TIP3    H229299   1.222   7.202   1.081
 9786TIP3   OH229300   6.711   6.206   6.054
 9786TIP3    H129301   6.686   6.294   6.025
 9786TIP3    H229302   6.805   6.211   6.068
 9787TIP3   OH229303   3.433   1.377   2.440
 9787TIP3    H129304   3.364   1.318   2.473
 9787TIP3    H229305   3.408   1.393   2.349
 9788TIP3   OH229306   4.340   6.783   0.158
 9788TIP3    H129307   4.307   6.699   0.125
 9788TIP3    H229308   4.331   6.843   0.085
 9789TIP3   OH229309   6.555   7.433   2.693
 9789TIP3    H129310   6.476   7.479   2.721
 9789TIP3    H229311   6.600   7.496   2.636
 9790TIP3   OH229312   7.331   3.063   4.199
 9790TIP3    H129313   7.243   3.069   4.235
 9790TIP3    H229314   7.319   3.045   4.106
 9791TIP3   OH229315   3.512   4.910   2.966
 9791TIP3    H129316   3.496   4.990   3.016
 9791TIP3    H229317   3.447   4.911   2.896
 9792TIP3   OH229318   5.404   1.269   2.210
 9792TIP3    H129319   5.468   1.286   2.141
 9792TIP3    H229320   5.456   1.262   2.290
 9793TIP3   OH229321   4.484   4.285   0.157
 9793TIP3    H129322   4.438   4.227   0.096
 9793TIP3    H229323   4.494   4.367   0.110
 9794TIP3   OH229324   3.750   3.070   4.912
 9794TIP3    H129325   3.804   3.149   4.918
 9794TIP3    H229326   3.665   3.102   4.881
 9795TIP3   OH229327   4.830   5.244   3.767
 9795TIP3    H129328   4.925   5.252   3.756
 9795TIP3    H229329   4.820   5.202   3.853
 9796TIP3   OH229330   2.751   4.015   3.805
 9796TIP3    H129331   2.742   4.080   3.876
 9796TIP3    H229332   2.736   4.065   3.725
 9797TIP3   OH229333   2.648   4.648   3.321
 9797TIP3    H129334   2.651   4.552   3.323
 9797TIP3    H229335   2.736   4.675   3.347
 9798TIP3   OH229336   4.589   3.676   0.195
 9798TIP3    H129337   4.518   3.612   0.183
 9798TIP3    H229338   4.663   3.638   0.149
 9799TIP3   OH229339   6.971   7.697   1.758
 9799TIP3    H129340   7.004   7.786   1.776
 9799TIP3    H229341   6.917   7.677   1.834
 9800TIP3   OH229342   7.495   3.524   2.267
 9800TIP3    H129343   7.429   3.493   2.204
 9800TIP3    H229344   7.444   3.563   2.337
 9801TIP3   OH229345   4.392   0.727   3.968
 9801TIP3    H129346   4.443   0.693   4.042
 9801TIP3    H229347   4.453   0.783   3.920
 9802TIP3   OH229348   5.399   3.675   5.447
 9802TIP3    H129349   5.309   3.680   5.478
 9802TIP3    H229350   5.433   3.764   5.455
 9803TIP3   OH229351   2.427   6.674   3.452
 9803TIP3    H129352   2.392   6.726   3.524
 9803TIP3    H229353   2.449   6.589   3.492
 9804TIP3   OH229354   4.580   6.781   1.112
 9804TIP3    H129355   4.501   6.819   1.073
 9804TIP3    H229356   4.565   6.687   1.108
 9805TIP3   OH229357   2.630   6.356   4.832
 9805TIP3    H129358   2.538   6.347   4.807
 9805TIP3    H229359   2.645   6.450   4.835
 9806TIP3   OH229360   4.736   2.253   5.749
 9806TIP3    H129361   4.653   2.288   5.716
 9806TIP3    H229362   4.760   2.185   5.687
 9807TIP3   OH229363   4.731   3.704   5.171
 9807TIP3    H129364   4.702   3.781   5.121
 9807TIP3    H229365   4.822   3.723   5.194
 9808TIP3   OH229366   7.782   1.534   4.334
 9808TIP3    H129367   7.851   1.478   4.370
 9808TIP3    H229368   7.709   1.525   4.396
 9809TIP3   OH229369   3.047   2.175   1.455
 9809TIP3    H129370   2.976   2.133   1.505
 9809TIP3    H229371   3.047   2.129   1.371
 9810TIP3   OH229372   5.749   6.682   3.806
 9810TIP3    H129373   5.733   6.772   3.837
 9810TIP3    H229374   5.698   6.676   3.725
 9811TIP3   OH229375   3.997   2.425   3.711
 9811TIP3    H129376   3.977   2.488   3.642
 9811TIP3    H229377   3.996   2.476   3.791
 9812TIP3   OH229378   2.593   7.435   3.218
 9812TIP3    H129379   2.514   7.392   3.186
 9812TIP3    H229380   2.606   7.398   3.305
 9813TIP3   OH229381   3.612   5.590   3.638
 9813TIP3    H129382   3.643   5.680   3.635
 9813TIP3    H229383   3.557   5.580   3.560
 9814TIP3   OH229384   6.622   0.279   2.816
 9814TIP3    H129385   6.565   0.320   2.880
 9814TIP3    H229386   6.565   0.259   2.742
 9815TIP3   OH229387   2.124   0.518   4.627
 9815TIP3    H129388   2.096   0.437   4.584
 9815TIP3    H229389   2.164   0.569   4.557
 9816TIP3   OH229390   7.690   4.930   6.144
 9816TIP3    H129391   7.778   4.897   6.128
 9816TIP3    H229392   7.703   5.019   6.176
 9817TIP3   OH229393   7.945   6.416   2.459
 9817TIP3    H129394   7.905   6.390   2.542
 9817TIP3    H229395   7.944   6.337   2.406
 9818TIP3   OH229396   3.476   2.509   5.888
 9818TIP3    H129397   3.415   2.553   5.829
 9818TIP3    H229398   3.442   2.420   5.894
 9819TIP3   OH229399   6.047   6.104   1.619
 9819TIP3    H129400   6.037   6.115   1.524
 9819TIP3    H229401   6.065   6.011   1.630
 9820TIP3   OH229402   3.781   1.493   6.488
 9820TIP3    H129403   3.834   1.566   6.522
 9820TIP3    H229404   3.694   1.507   6.524
 9821TIP3   OH229405   7.477   1.602   5.402
 9821TIP3    H129406   7.430   1.601   5.485
 9821TIP3    H229407   7.533   1.524   5.405
 9822TIP3   OH229408   2.862   3.214   5.050
 9822TIP3    H129409   2.787   3.188   5.104
 9822TIP3    H229410   2.936   3.167   5.088
 9823TIP3   OH229411   7.171   1.988   2.360
 9823TIP3    H129412   7.214   2.054   2.413
 9823TIP3    H229413   7.095   1.961   2.412
 9824TIP3   OH229414   4.863   7.503   0.299
 9824TIP3    H129415   4.859   7.414   0.333
 9824TIP3    H229416   4.851   7.494   0.204
 9825TIP3   OH229417   0.966   1.290   3.459
 9825TIP3    H129418   0.905   1.244   3.402
 9825TIP3    H229419   1.007   1.356   3.403
 9826TIP3   OH229420   2.776   3.231   3.437
 9826TIP3    H129421   2.788   3.144   3.475
 9826TIP3    H229422   2.863   3.271   3.441
 9827TIP3   OH229423   1.237   5.310   6.390
 9827TIP3    H129424   1.166   5.333   6.449
 9827TIP3    H229425   1.247   5.386   6.333
 9828TIP3   OH229426   6.720   7.331   6.433
 9828TIP3    H129427   6.745   7.423   6.426
 9828TIP3    H229428   6.624   7.332   6.423
 9829TIP3   OH229429   1.994   5.984   2.590
 9829TIP3    H129430   1.901   5.967   2.605
 9829TIP3    H229431   1.995   6.048   2.519
 9830TIP3   OH229432   2.763   6.825   3.492
 9830TIP3    H129433   2.811   6.807   3.412
 9830TIP3    H229434   2.778   6.749   3.547
 9831TIP3   OH229435   2.190   3.099   6.206
 9831TIP3    H129436   2.129   3.168   6.232
 9831TIP3    H229437   2.233   3.074   6.288
 9832TIP3   OH229438   2.994   7.761   0.421
 9832TIP3    H129439   3.079   7.718   0.419
 9832TIP3    H229440   2.983   7.789   0.512
 9833TIP3   OH229441   3.994   4.931   2.222
 9833TIP3    H129442   3.927   4.996   2.201
 9833TIP3    H229443   4.071   4.958   2.173
 9834TIP3   OH229444   1.221   4.584   5.652
 9834TIP3    H129445   1.187   4.640   5.723
 9834TIP3    H229446   1.211   4.638   5.573
 9835TIP3   OH229447   3.175   2.304   6.792
 9835TIP3    H129448   3.248   2.261   6.837
 9835TIP3    H229449   3.173   2.264   6.705
 9836TIP3   OH229450   6.610   7.705   0.393
 9836TIP3    H129451   6.659   7.772   0.346
 9836TIP3    H229452   6.658   7.693   0.475
 9837TIP3   OH229453   8.262   2.198   0.427
 9837TIP3    H129454   8.174   2.196   0.466
 9837TIP3    H229455   8.253   2.256   0.351
 9838TIP3   OH229456   1.765   4.143   3.358
 9838TIP3    H129457   1.723   4.168   3.276
 9838TIP3    H229458   1.846   4.099   3.332
 9839TIP3   OH229459   5.432   4.918   4.987
 9839TIP3    H129460   5.410   4.834   4.946
 9839TIP3    H229461   5.525   4.912   5.005
 9840TIP3   OH229462   2.846   4.411   5.423
 9840TIP3    H129463   2.887   4.496   5.438
 9840TIP3    H229464   2.807   4.418   5.336
 9841TIP3   OH229465   4.955   7.028   2.668
 9841TIP3    H129466   4.904   7.083   2.608
 9841TIP3    H229467   4.952   6.941   2.628
 9842TIP3   OH229468   7.155   5.824   6.604
 9842TIP3    H129469   7.223   5.762   6.579
 9842TIP3    H229470   7.075   5.772   6.608
 9843TIP3   OH229471   4.903   2.533   1.161
 9843TIP3    H129472   4.855   2.594   1.216
 9843TIP3    H229473   4.915   2.455   1.215
 9844TIP3   OH229474   3.767   4.083   2.630
 9844TIP3    H129475   3.682   4.040   2.633
 9844TIP3    H229476   3.828   4.013   2.604
 9845TIP3   OH229477   1.428   3.089   3.915
 9845TIP3    H129478   1.441   3.012   3.970
 9845TIP3    H229479   1.454   3.061   3.827
 9846TIP3   OH229480   5.269   1.860   3.782
 9846TIP3    H129481   5.301   1.951   3.785
 9846TIP3    H229482   5.322   1.819   3.714
 9847TIP3   OH229483   3.527   7.254   5.357
 9847TIP3    H129484   3.576   7.288   5.432
 9847TIP3    H229485   3.592   7.207   5.305
 9848TIP3   OH229486   0.404   5.750   1.371
 9848TIP3    H129487   0.441   5.667   1.402
 9848TIP3    H229488   0.322   5.759   1.419
 9849TIP3   OH229489   4.940   7.057   3.592
 9849TIP3    H129490   4.882   7.012   3.530
 9849TIP3    H229491   4.975   7.131   3.543
 9850TIP3   OH229492   4.453   4.310   4.906
 9850TIP3    H129493   4.403   4.391   4.891
 9850TIP3    H229494   4.424   4.251   4.836
 9851TIP3   OH229495   2.188   1.943   1.588
 9851TIP3    H129496   2.181   1.971   1.496
 9851TIP3    H229497   2.110   1.891   1.603
 9852TIP3   OH229498   1.324   4.431   6.440
 9852TIP3    H129499   1.259   4.383   6.490
 9852TIP3    H229500   1.281   4.451   6.357
 9853TIP3   OH229501   3.761   6.064   6.488
 9853TIP3    H129502   3.711   6.117   6.427
 9853TIP3    H229503   3.780   5.983   6.439
 9854TIP3   OH229504   5.108   1.156   6.730
 9854TIP3    H129505   5.160   1.154   6.650
 9854TIP3    H229506   5.173   1.157   6.801
 9855TIP3   OH229507   2.631   2.259   4.610
 9855TIP3    H129508   2.608   2.225   4.523
 9855TIP3    H229509   2.609   2.352   4.606
 9856TIP3   OH229510   5.711   3.972   4.808
 9856TIP3    H129511   5.698   4.038   4.740
 9856TIP3    H229512   5.714   4.021   4.890
 9857TIP3   OH229513   0.787   2.302   1.743
 9857TIP3    H129514   0.853   2.234   1.753
 9857TIP3    H229515   0.710   2.256   1.709
 9858TIP3   OH229516   0.312   6.535   5.233
 9858TIP3    H129517   0.259   6.457   5.247
 9858TIP3    H229518   0.309   6.581   5.317
 9859TIP3   OH229519   1.742   6.075   2.895
 9859TIP3    H129520   1.650   6.058   2.911
 9859TIP3    H229521   1.744   6.124   2.812
 9860TIP3   OH229522   5.523   6.376   5.581
 9860TIP3    H129523   5.557   6.303   5.634
 9860TIP3    H229524   5.436   6.346   5.554
 9861TIP3   OH229525   6.156   1.056   4.119
 9861TIP3    H129526   6.078   1.106   4.094
 9861TIP3    H229527   6.122   0.987   4.177
 9862TIP3   OH229528   7.124   0.065   5.799
 9862TIP3    H129529   7.100   0.141   5.746
 9862TIP3    H229530   7.160   0.002   5.737
 9863TIP3   OH229531   7.478   6.706   1.714
 9863TIP3    H129532   7.564   6.725   1.750
 9863TIP3    H229533   7.493   6.693   1.620
 9864TIP3   OH229534   1.245   2.502   4.492
 9864TIP3    H129535   1.311   2.454   4.542
 9864TIP3    H229536   1.189   2.542   4.558
 9865TIP3   OH229537   2.428   0.232   4.283
 9865TIP3    H129538   2.347   0.272   4.252
 9865TIP3    H229539   2.399   0.158   4.337
 9866TIP3   OH229540   4.615   6.230   4.831
 9866TIP3    H129541   4.606   6.324   4.815
 9866TIP3    H229542   4.526   6.200   4.852
 9867TIP3   OH229543   7.496   0.977   4.551
 9867TIP3    H129544   7.589   0.989   4.534
 9867TIP3    H229545   7.493   0.912   4.622
 9868TIP3   OH229546   7.111   0.865   6.022
 9868TIP3    H129547   7.111   0.788   6.079
 9868TIP3    H229548   7.105   0.939   6.082
 9869TIP3   OH229549   4.719   4.286   4.286
 9869TIP3    H129550   4.712   4.294   4.191
 9869TIP3    H229551   4.805   4.322   4.307
 9870TIP3   OH229552   5.220   4.749   0.751
 9870TIP3    H129553   5.261   4.770   0.668
 9870TIP3    H229554   5.126   4.753   0.733
 9871TIP3   OH229555   3.149   1.580   5.801
 9871TIP3    H129556   3.120   1.519   5.869
 9871TIP3    H229557   3.118   1.665   5.830
 9872TIP3   OH229558   4.669   0.126   5.344
 9872TIP3    H129559   4.693   0.171   5.263
 9872TIP3    H229560   4.741   0.065   5.360
 9873TIP3   OH229561   5.631   1.102   0.322
 9873TIP3    H129562   5.669   1.015   0.332
 9873TIP3    H229563   5.591   1.101   0.236
 9874TIP3   OH229564   7.778   3.428   1.464
 9874TIP3    H129565   7.800   3.416   1.556
 9874TIP3    H229566   7.684   3.441   1.462
 9875TIP3   OH229567   2.732   6.812   1.329
 9875TIP3    H129568   2.743   6.721   1.302
 9875TIP3    H229569   2.665   6.847   1.270
 9876TIP3   OH229570   7.924   7.795   4.370
 9876TIP3    H129571   7.834   7.768   4.353
 9876TIP3    H229572   7.977   7.727   4.329
 9877TIP3   OH229573   0.855   2.318   5.818
 9877TIP3    H129574   0.849   2.238   5.766
 9877TIP3    H229575   0.940   2.311   5.863
 9878TIP3   OH229576   5.468   1.871   0.276
 9878TIP3    H129577   5.475   1.779   0.252
 9878TIP3    H229578   5.554   1.894   0.312
 9879TIP3   OH229579   1.732   3.797   3.697
 9879TIP3    H129580   1.689   3.824   3.616
 9879TIP3    H229581   1.674   3.731   3.735
 9880TIP3   OH229582   5.034   6.285   4.338
 9880TIP3    H129583   5.004   6.195   4.343
 9880TIP3    H229584   5.090   6.296   4.414
 9881TIP3   OH229585   1.468   5.047   4.383
 9881TIP3    H129586   1.457   4.964   4.429
 9881TIP3    H229587   1.478   5.112   4.453
 9882TIP3   OH229588   3.657   6.212   3.520
 9882TIP3    H129589   3.744   6.182   3.493
 9882TIP3    H229590   3.658   6.207   3.615
 9883TIP3   OH229591   1.550   5.110   0.667
 9883TIP3    H129592   1.642   5.127   0.646
 9883TIP3    H229593   1.507   5.194   0.656
 9884TIP3   OH229594   7.134   0.318   4.429
 9884TIP3    H129595   7.157   0.231   4.460
 9884TIP3    H229596   7.125   0.308   4.334
 9885TIP3   OH229597   2.108   2.258   1.237
 9885TIP3    H129598   2.046   2.299   1.176
 9885TIP3    H229599   2.187   2.310   1.229
 9886TIP3   OH229600   2.458   7.303   1.672
 9886TIP3    H129601   2.410   7.359   1.733
 9886TIP3    H229602   2.430   7.332   1.585
 9887TIP3   OH229603   7.695   7.723   3.246
 9887TIP3    H129604   7.785   7.721   3.214
 9887TIP3    H229605   7.666   7.632   3.245
 9888TIP3   OH229606   7.003   0.358   5.067
 9888TIP3    H129607   7.016   0.280   5.013
 9888TIP3    H229608   6.947   0.414   5.014
 9889TIP3   OH229609   2.232   0.941   4.333
 9889TIP3    H129610   2.192   1.028   4.341
 9889TIP3    H229611   2.179   0.896   4.266
 9890TIP3   OH229612   0.575   7.009   3.259
 9890TIP3    H129613   0.620   6.925   3.270
 9890TIP3    H229614   0.541   7.007   3.170
 9891TIP3   OH229615   1.231   4.057   5.804
 9891TIP3    H129616   1.302   3.994   5.816
 9891TIP3    H229617   1.276   4.141   5.790
 9892TIP3   OH229618   4.678   2.887   5.133
 9892TIP3    H129619   4.610   2.821   5.120
 9892TIP3    H229620   4.744   2.842   5.187
 9893TIP3   OH229621   3.415   4.559   3.816
 9893TIP3    H129622   3.460   4.614   3.751
 9893TIP3    H229623   3.474   4.557   3.891
 9894TIP3   OH229624   5.010   4.607   1.696
 9894TIP3    H129625   4.940   4.550   1.663
 9894TIP3    H229626   5.083   4.592   1.636
 9895TIP3   OH229627   0.024   1.423   3.221
 9895TIP3    H129628   0.087   1.472   3.273
 9895TIP3    H229629   0.009   1.477   3.143
 9896TIP3   OH229630   5.098   0.253   5.798
 9896TIP3    H129631   5.166   0.299   5.750
 9896TIP3    H229632   5.122   0.266   5.890
 9897TIP3   OH229633   5.747   7.214   4.630
 9897TIP3    H129634   5.766   7.307   4.643
 9897TIP3    H229635   5.653   7.207   4.645
 9898TIP3   OH229636   5.075   6.209   5.853
 9898TIP3    H129637   5.024   6.282   5.816
 9898TIP3    H229638   5.083   6.231   5.946
 9899TIP3   OH229639   4.696   2.459   3.357
 9899TIP3    H129640   4.641   2.381   3.350
 9899TIP3    H229641   4.655   2.522   3.297
 9900TIP3   OH229642   2.572   4.991   3.097
 9900TIP3    H129643   2.494   5.013   3.148
 9900TIP3    H229644   2.549   5.017   3.007
 9901TIP3   OH229645   6.183   7.317   6.267
 9901TIP3    H129646   6.206   7.379   6.198
 9901TIP3    H229647   6.089   7.305   6.259
 9902TIP3   OH229648   2.731   4.844   1.315
 9902TIP3    H129649   2.816   4.811   1.345
 9902TIP3    H229650   2.687   4.872   1.396
 9903TIP3   OH229651   1.696   4.479   5.778
 9903TIP3    H129652   1.739   4.485   5.863
 9903TIP3    H229653   1.614   4.529   5.788
 9904TIP3   OH229654   1.081   6.824   0.521
 9904TIP3    H129655   1.150   6.883   0.490
 9904TIP3    H229656   1.005   6.845   0.466
 9905TIP3   OH229657   1.633   2.680   4.508
 9905TIP3    H129658   1.684   2.644   4.580
 9905TIP3    H229659   1.610   2.605   4.454
 9906TIP3   OH229660   5.231   3.318   6.226
 9906TIP3    H129661   5.186   3.244   6.185
 9906TIP3    H229662   5.165   3.355   6.286
 9907TIP3   OH229663   1.195   4.928   0.548
 9907TIP3    H129664   1.202   4.987   0.624
 9907TIP3    H229665   1.277   4.879   0.548
 9908TIP3   OH229666   1.181   5.252   0.988
 9908TIP3    H129667   1.164   5.221   1.077
 9908TIP3    H229668   1.127   5.331   0.979
 9909TIP3   OH229669   0.446   6.684   5.066
 9909TIP3    H129670   0.384   6.622   5.105
 9909TIP3    H229671   0.510   6.701   5.135
 9910TIP3   OH229672   0.451   3.887   4.521
 9910TIP3    H129673   0.370   3.854   4.481
 9910TIP3    H229674   0.427   3.972   4.556
 9911TIP3   OH229675   5.990   5.916   5.326
 9911TIP3    H129676   5.994   5.877   5.239
 9911TIP3    H229677   5.980   5.841   5.385
 9912TIP3   OH229678   1.365   1.624   1.264
 9912TIP3    H129679   1.296   1.690   1.265
 9912TIP3    H229680   1.354   1.579   1.180
 9913TIP3   OH229681   0.656   0.324   0.385
 9913TIP3    H129682   0.688   0.260   0.322
 9913TIP3    H229683   0.580   0.364   0.342
 9914TIP3   OH229684   4.306   6.241   5.995
 9914TIP3    H129685   4.218   6.216   5.967
 9914TIP3    H229686   4.357   6.244   5.914
 9915TIP3   OH229687   5.183   4.375   0.854
 9915TIP3    H129688   5.190   4.310   0.784
 9915TIP3    H229689   5.089   4.390   0.864
 9916TIP3   OH229690   1.518   7.790   0.189
 9916TIP3    H129691   1.542   7.867   0.138
 9916TIP3    H229692   1.479   7.730   0.125
 9917TIP3   OH229693   3.214   5.941   2.213
 9917TIP3    H129694   3.266   5.874   2.170
 9917TIP3    H229695   3.215   5.917   2.305
 9918TIP3   OH229696   2.604   3.047   1.144
 9918TIP3    H129697   2.627   3.013   1.230
 9918TIP3    H229698   2.587   2.969   1.091
 9919TIP3   OH229699   5.139   6.938   4.755
 9919TIP3    H129700   5.084   6.861   4.770
 9919TIP3    H229701   5.184   6.951   4.838
 9920TIP3   OH229702   7.369   6.608   0.123
 9920TIP3    H129703   7.446   6.630   0.071
 9920TIP3    H229704   7.307   6.678   0.103
 9921TIP3   OH229705   3.973   2.751   6.491
 9921TIP3    H129706   3.977   2.846   6.478
 9921TIP3    H229707   3.999   2.715   6.406
 9922TIP3   OH229708   0.965   0.018   2.283
 9922TIP3    H129709   0.898  -0.042   2.248
 9922TIP3    H229710   0.931   0.105   2.264
 9923TIP3   OH229711   3.533   6.513   2.641
 9923TIP3    H129712   3.543   6.431   2.593
 9923TIP3    H229713   3.447   6.546   2.616
 9924TIP3   OH229714   6.638   7.479   4.426
 9924TIP3    H129715   6.658   7.512   4.514
 9924TIP3    H229716   6.723   7.473   4.382
 9925TIP3   OH229717   0.809   6.151   6.355
 9925TIP3    H129718   0.895   6.111   6.363
 9925TIP3    H229719   0.789   6.146   6.261
 9926TIP3   OH229720   1.488   2.574   5.198
 9926TIP3    H129721   1.539   2.598   5.275
 9926TIP3    H229722   1.413   2.635   5.199
 9927TIP3   OH229723   2.574   1.293   5.047
 9927TIP3    H129724   2.483   1.318   5.061
 9927TIP3    H229725   2.597   1.329   4.961
 9928TIP3   OH229726   3.323   5.503   1.353
 9928TIP3    H129727   3.242   5.489   1.304
 9928TIP3    H229728   3.312   5.587   1.396
 9929TIP3   OH229729   3.883   1.818   3.421
 9929TIP3    H129730   3.792   1.803   3.446
 9929TIP3    H229731   3.922   1.862   3.497
 9930TIP3   OH229732   6.491   1.895   3.136
 9930TIP3    H129733   6.548   1.957   3.091
 9930TIP3    H229734   6.419   1.949   3.170
 9931TIP3   OH229735   0.787   4.712   2.406
 9931TIP3    H129736   0.750   4.740   2.491
 9931TIP3    H229737   0.713   4.718   2.346
 9932TIP3   OH229738   4.963   0.963   1.849
 9932TIP3    H129739   5.035   1.019   1.820
 9932TIP3    H229740   5.004   0.901   1.910
 9933TIP3   OH229741   0.377   6.127   5.460
 9933TIP3    H129742   0.419   6.210   5.438
 9933TIP3    H229743   0.283   6.146   5.456
 9934TIP3   OH229744   1.447   2.938   3.249
 9934TIP3    H129745   1.527   2.991   3.260
 9934TIP3    H229746   1.412   2.966   3.164
 9935TIP3   OH229747   5.181   0.110   2.606
 9935TIP3    H129748   5.161   0.157   2.687
 9935TIP3    H229749   5.263   0.149   2.576
 9936TIP3   OH229750   2.980   1.180   1.992
 9936TIP3    H129751   3.000   1.098   1.948
 9936TIP3    H229752   2.948   1.154   2.078
 9937TIP3   OH229753   3.805   1.349   4.760
 9937TIP3    H129754   3.858   1.296   4.701
 9937TIP3    H229755   3.764   1.286   4.820
 9938TIP3   OH229756   5.566   1.700   1.645
 9938TIP3    H129757   5.616   1.741   1.574
 9938TIP3    H229758   5.565   1.607   1.623
 9939TIP3   OH229759   0.227   0.042   4.023
 9939TIP3    H129760   0.295   0.005   4.080
 9939TIP3    H229761   0.155   0.062   4.083
 9940TIP3   OH229762   1.443   2.876   0.332
 9940TIP3    H129763   1.443   2.931   0.253
 9940TIP3    H229764   1.459   2.937   0.404
 9941TIP3   OH229765   3.432   3.439   6.293
 9941TIP3    H129766   3.392   3.435   6.206
 9941TIP3    H229767   3.384   3.374   6.344
 9942TIP3   OH229768   7.986   1.713   3.107
 9942TIP3    H129769   7.928   1.666   3.047
 9942TIP3    H229770   7.940   1.795   3.125
 9943TIP3   OH229771   4.111   7.108   0.468
 9943TIP3    H129772   4.136   7.129   0.558
 9943TIP3    H229773   4.192   7.078   0.427
 9944TIP3   OH229774   6.811   3.860   5.955
 9944TIP3    H129775   6.906   3.853   5.960
 9944TIP3    H229776   6.795   3.934   5.896
 9945TIP3   OH229777   0.462   0.647   1.271
 9945TIP3    H129778   0.507   0.589   1.332
 9945TIP3    H229779   0.461   0.599   1.188
 9946TIP3   OH229780   2.247   2.037   3.869
 9946TIP3    H129781   2.326   1.991   3.900
 9946TIP3    H229782   2.216   2.086   3.945
 9947TIP3   OH229783   7.475   4.824   5.593
 9947TIP3    H129784   7.556   4.805   5.640
 9947TIP3    H229785   7.459   4.744   5.542
 9948TIP3   OH229786   0.499   0.913   1.191
 9948TIP3    H129787   0.484   0.828   1.232
 9948TIP3    H229788   0.535   0.892   1.105
 9949TIP3   OH229789   3.090   4.741   4.782
 9949TIP3    H129790   3.106   4.766   4.691
 9949TIP3    H229791   2.996   4.723   4.786
 9950TIP3   OH229792   8.194   1.147   4.805
 9950TIP3    H129793   8.276   1.184   4.773
 9950TIP3    H229794   8.195   1.164   4.899
 9951TIP3   OH229795   1.150   0.902   3.716
 9951TIP3    H129796   1.241   0.873   3.716
 9951TIP3    H229797   1.142   0.957   3.638
 9952TIP3   OH229798   4.940   3.418   5.939
 9952TIP3    H129799   4.978   3.488   5.886
 9952TIP3    H229800   4.928   3.458   6.026
 9953TIP3   OH229801   6.277   4.770   1.301
 9953TIP3    H129802   6.295   4.824   1.378
 9953TIP3    H229803   6.344   4.701   1.305
 9954TIP3   OH229804   5.116   7.209   1.161
 9954TIP3    H129805   5.131   7.228   1.254
 9954TIP3    H229806   5.027   7.174   1.157
 9955TIP3   OH229807   3.472   7.670   6.660
 9955TIP3    H129808   3.455   7.705   6.573
 9955TIP3    H229809   3.549   7.614   6.649
 9956TIP3   OH229810   6.582   4.157   1.166
 9956TIP3    H129811   6.587   4.079   1.111
 9956TIP3    H229812   6.673   4.185   1.176
 9957TIP3   OH229813   4.452   4.468   5.453
 9957TIP3    H129814   4.511   4.467   5.528
 9957TIP3    H229815   4.378   4.522   5.481
 9958TIP3   OH229816   2.317   4.532   4.796
 9958TIP3    H129817   2.238   4.550   4.846
 9958TIP3    H229818   2.292   4.544   4.705
 9959TIP3   OH229819   8.077   5.970   2.557
 9959TIP3    H129820   8.013   5.916   2.510
 9959TIP3    H229821   8.093   5.922   2.639
 9960TIP3   OH229822   6.636   6.369   6.614
 9960TIP3    H129823   6.569   6.384   6.681
 9960TIP3    H229824   6.626   6.442   6.553
 9961TIP3   OH229825   0.710   6.998   4.164
 9961TIP3    H129826   0.663   6.954   4.235
 9961TIP3    H229827   0.797   7.016   4.200
 9962TIP3   OH229828   0.967   4.003   4.645
 9962TIP3    H129829   0.887   4.012   4.593
 9962TIP3    H229830   1.002   4.092   4.652
 9963TIP3   OH229831   5.589   5.655   6.679
 9963TIP3    H129832   5.514   5.657   6.739
 9963TIP3    H229833   5.666   5.664   6.736
 9964TIP3   OH229834   6.414   1.014   1.423
 9964TIP3    H129835   6.357   0.937   1.424
 9964TIP3    H229836   6.456   1.014   1.509
 9965TIP3   OH229837   0.357   1.834   5.941
 9965TIP3    H129838   0.334   1.908   5.885
 9965TIP3    H229839   0.406   1.775   5.884
 9966TIP3   OH229840   3.380   4.026   4.798
 9966TIP3    H129841   3.403   3.939   4.832
 9966TIP3    H229842   3.293   4.015   4.762
 9967TIP3   OH229843   5.710   5.480   5.106
 9967TIP3    H129844   5.761   5.400   5.118
 9967TIP3    H229845   5.726   5.506   5.016
 9968TIP3   OH229846   6.611   6.430   5.541
 9968TIP3    H129847   6.554   6.356   5.562
 9968TIP3    H229848   6.553   6.493   5.498
 9969TIP3   OH229849   5.950   2.294   4.429
 9969TIP3    H129850   5.923   2.214   4.474
 9969TIP3    H229851   6.025   2.326   4.479
 9970TIP3   OH229852   4.546   3.911   3.649
 9970TIP3    H129853   4.519   3.876   3.734
 9970TIP3    H229854   4.513   3.848   3.586
 9971TIP3   OH229855   0.753   4.698   0.583
 9971TIP3    H129856   0.680   4.661   0.532
 9971TIP3    H229857   0.808   4.740   0.517
 9972TIP3   OH229858   7.895   4.558   6.639
 9972TIP3    H129859   7.829   4.533   6.574
 9972TIP3    H229860   7.976   4.568   6.590
 9973TIP3   OH229861   6.046   5.035   3.687
 9973TIP3    H129862   5.962   5.024   3.641
 9973TIP3    H229863   6.112   5.023   3.620
 9974TIP3   OH229864   7.128   2.235   4.049
 9974TIP3    H129865   7.102   2.251   3.959
 9974TIP3    H229866   7.216   2.198   4.043
 9975TIP3   OH229867   3.549   6.141   2.017
 9975TIP3    H129868   3.555   6.072   1.952
 9975TIP3    H229869   3.490   6.206   1.977
 9976TIP3   OH229870   6.577   7.152   1.659
 9976TIP3    H129871   6.538   7.065   1.671
 9976TIP3    H229872   6.638   7.140   1.587
 9977TIP3   OH229873   8.212   0.300   6.270
 9977TIP3    H129874   8.158   0.362   6.221
 9977TIP3    H229875   8.167   0.291   6.354
 9978TIP3   OH229876   3.470   5.945   1.635
 9978TIP3    H129877   3.397   5.996   1.671
 9978TIP3    H229878   3.527   5.928   1.710
 9979TIP3   OH229879   1.532   6.126   2.546
 9979TIP3    H129880   1.554   6.089   2.461
 9979TIP3    H229881   1.616   6.134   2.591
 9980TIP3   OH229882   1.260   2.311   0.162
 9980TIP3    H129883   1.317   2.359   0.101
 9980TIP3    H229884   1.218   2.244   0.108
 9981TIP3   OH229885   0.735   3.216   0.868
 9981TIP3    H129886   0.714   3.144   0.809
 9981TIP3    H229887   0.698   3.191   0.952
 9982TIP3   OH229888   8.120   6.871   6.802
 9982TIP3    H129889   8.086   6.929   6.734
 9982TIP3    H229890   8.215   6.875   6.792
 9983TIP3   OH229891   0.763   0.189   4.444
 9983TIP3    H129892   0.849   0.161   4.413
 9983TIP3    H229893   0.708   0.111   4.433
 9984TIP3   OH229894   1.218   5.436   3.050
 9984TIP3    H129895   1.149   5.378   3.082
 9984TIP3    H229896   1.252   5.479   3.129
 9985TIP3   OH229897   7.725   2.652   1.487
 9985TIP3    H129898   7.750   2.610   1.405
 9985TIP3    H229899   7.638   2.618   1.507
 9986TIP3   OH229900   3.326   2.991   4.288
 9986TIP3    H129901   3.253   3.042   4.255
 9986TIP3    H229902   3.375   3.051   4.344
 9987TIP3   OH229903   3.378   7.744   0.113
 9987TIP3    H129904   3.320   7.818   0.132
 9987TIP3    H229905   3.405   7.757   0.022
 9988TIP3   OH229906   2.922   1.316   5.213
 9988TIP3    H129907   2.899   1.232   5.251
 9988TIP3    H229908   3.005   1.300   5.168
 9989TIP3   OH229909   0.291   3.691   0.336
 9989TIP3    H129910   0.219   3.654   0.386
 9989TIP3    H229911   0.318   3.769   0.385
 9990TIP3   OH229912   3.271   2.439   3.898
 9990TIP3    H129913   3.256   2.504   3.829
 9990TIP3    H229914   3.308   2.364   3.853
 9991TIP3   OH229915   4.667   1.971   3.700
 9991TIP3    H129916   4.690   2.046   3.754
 9991TIP3    H229917   4.616   1.914   3.758
 9992TIP3   OH229918   3.584   4.992   0.493
 9992TIP3    H129919   3.627   5.007   0.408
 9992TIP3    H229920   3.642   4.930   0.538
 9993TIP3   OH229921   5.002   0.613   4.865
 9993TIP3    H129922   4.972   0.531   4.825
 9993TIP3    H229923   5.074   0.587   4.922
 9994TIP3   OH229924   5.017   7.695   3.619
 9994TIP3    H129925   4.971   7.677   3.537
 9994TIP3    H229926   5.052   7.783   3.609
 9995TIP3   OH229927   3.614   6.268   6.199
 9995TIP3    H129928   3.671   6.230   6.132
 9995TIP3    H229929   3.555   6.197   6.224
 9996TIP3   OH229930   6.978   0.434   6.445
 9996TIP3    H129931   6.939   0.380   6.513
 9996TIP3    H229932   6.906   0.456   6.386
 9997TIP3   OH229933   6.133   1.932   4.422
 9997TIP3    H129934   6.209   1.897   4.467
 9997TIP3    H229935   6.155   1.927   4.329
 9998TIP3   OH229936   7.894   7.241   4.811
 9998TIP3    H129937   7.949   7.296   4.756
 9998TIP3    H229938   7.818   7.296   4.831
 9999TIP3   OH229939   6.938   6.178   4.449
 9999TIP3    H129940   6.915   6.265   4.481
 9999TIP3    H229941   7.006   6.193   4.384
10000TIP3   OH229942   0.396   7.798   3.292
10000TIP3    H129943   0.393   7.776   3.386
10000TIP3    H229944   0.478   7.759   3.261
10001TIP3   OH229945   5.752   1.954   2.870
10001TIP3    H129946   5.711   1.882   2.821
10001TIP3    H229947   5.686   2.024   2.870
10002TIP3   OH229948   2.731   2.210   5.999
10002TIP3    H129949   2.811   2.171   6.032
10002TIP3    H229950   2.669   2.137   5.993
10003TIP3   OH229951   6.531   2.649   4.393
10003TIP3    H129952   6.592   2.580   4.419
10003TIP3    H229953   6.573   2.730   4.422
10004TIP3   OH229954   6.210   0.084   5.029
10004TIP3    H129955   6.182   0.002   4.989
10004TIP3    H229956   6.129   0.127   5.057
10005TIP3   OH229957   4.222   3.313   3.557
10005TIP3    H129958   4.246   3.392   3.604
10005TIP3    H229959   4.244   3.241   3.617
10006TIP3   OH229960   5.137   0.266   1.059
10006TIP3    H129961   5.081   0.329   1.014
10006TIP3    H229962   5.146   0.301   1.148
10007TIP3   OH229963   3.750   7.470   6.256
10007TIP3    H129964   3.841   7.445   6.237
10007TIP3    H229965   3.723   7.410   6.325
10008TIP3   OH229966   6.553   5.104   4.710
10008TIP3    H129967   6.521   5.191   4.689
10008TIP3    H229968   6.620   5.085   4.645
10009TIP3   OH229969   3.243   6.228   5.618
10009TIP3    H129970   3.257   6.311   5.664
10009TIP3    H229971   3.289   6.163   5.672
10010TIP3   OH229972   1.710   3.046   1.622
10010TIP3    H129973   1.762   2.969   1.600
10010TIP3    H229974   1.632   3.012   1.665
10011TIP3   OH229975   5.910   1.508   3.840
10011TIP3    H129976   5.949   1.425   3.812
10011TIP3    H229977   5.864   1.486   3.921
10012TIP3   OH229978   5.064   0.692   2.932
10012TIP3    H129979   5.036   0.733   2.850
10012TIP3    H229980   5.009   0.732   3.000
10013TIP3   OH229981   6.403   7.365   0.133
10013TIP3    H129982   6.315   7.349   0.166
10013TIP3    H229983   6.452   7.286   0.157
10014TIP3   OH229984   5.470   4.628   4.834
10014TIP3    H129985   5.477   4.603   4.927
10014TIP3    H229986   5.523   4.563   4.788
10015TIP3   OH229987   7.782   6.265   5.378
10015TIP3    H129988   7.861   6.216   5.405
10015TIP3    H229989   7.814   6.352   5.356
10016TIP3   OH229990   0.899   0.696   1.732
10016TIP3    H129991   0.992   0.707   1.753
10016TIP3    H229992   0.856   0.683   1.816
10017TIP3   OH229993   7.332   3.323   3.670
10017TIP3    H129994   7.247   3.294   3.702
10017TIP3    H229995   7.336   3.416   3.693
10018TIP3   OH229996   1.922   6.661   3.379
10018TIP3    H129997   1.986   6.723   3.416
10018TIP3    H229998   1.970   6.614   3.312
10019TIP3   OH229999   2.078   5.420   1.099
10019TIP3    H130000   2.090   5.468   1.181
10019TIP3    H230001   2.145   5.351   1.102
10020TIP3   OH230002   6.252   4.436   6.686
10020TIP3    H130003   6.224   4.440   6.594
10020TIP3    H230004   6.341   4.401   6.682
10021TIP3   OH230005   0.422   3.220   0.201
10021TIP3    H130006   0.334   3.257   0.196
10021TIP3    H230007   0.480   3.294   0.180
10022TIP3   OH230008   0.100   2.761   2.592
10022TIP3    H130009   0.061   2.843   2.622
10022TIP3    H230010   0.041   2.693   2.626
10023TIP3   OH230011   8.127   3.816   6.392
10023TIP3    H130012   8.160   3.905   6.387
10023TIP3    H230013   8.206   3.761   6.394
10024TIP3   OH230014   0.303   4.615   0.688
10024TIP3    H130015   0.296   4.678   0.616
10024TIP3    H230016   0.392   4.626   0.722
10025TIP3   OH230017   0.976   4.151   1.336
10025TIP3    H130018   1.038   4.197   1.393
10025TIP3    H230019   0.936   4.085   1.392
10026TIP3   OH230020   6.519   7.174   3.597
10026TIP3    H130021   6.436   7.143   3.634
10026TIP3    H230022   6.564   7.095   3.570
10027TIP3   OH230023   2.679   1.842   3.813
10027TIP3    H130024   2.597   1.820   3.769
10027TIP3    H230025   2.704   1.761   3.858
10028TIP3   OH230026   0.032   6.810   4.262
10028TIP3    H130027  -0.002   6.857   4.338
10028TIP3    H230028   0.003   6.863   4.187
10029TIP3   OH230029   6.023   0.353   4.175
10029TIP3    H130030   6.021   0.384   4.266
10029TIP3    H230031   6.096   0.291   4.173
10030TIP3   OH230032   3.127   3.624   4.622
10030TIP3    H130033   3.108   3.637   4.529
10030TIP3    H230034   3.218   3.652   4.631
10031TIP3   OH230035   1.223   3.600   2.434
10031TIP3    H130036   1.212   3.644   2.350
10031TIP3    H230037   1.160   3.642   2.492
10032TIP3   OH230038   0.398   2.399   3.914
10032TIP3    H130039   0.325   2.405   3.852
10032TIP3    H230040   0.429   2.489   3.924
10033TIP3   OH230041   5.600   2.696   0.567
10033TIP3    H130042   5.618   2.654   0.483
10033TIP3    H230043   5.668   2.762   0.576
10034TIP3   OH230044   7.438   1.438   3.403
10034TIP3    H130045   7.376   1.413   3.471
10034TIP3    H230046   7.503   1.492   3.448
10035TIP3   OH230047   3.795   6.969   2.058
10035TIP3    H130048   3.744   6.889   2.064
10035TIP3    H230049   3.738   7.037   2.096
10036TIP3   OH230050   5.958   2.092   2.372
10036TIP3    H130051   5.965   2.081   2.277
10036TIP3    H230052   5.960   2.187   2.385
10037TIP3   OH230053   4.678   1.588   6.600
10037TIP3    H130054   4.727   1.668   6.618
10037TIP3    H230055   4.593   1.601   6.642
10038TIP3   OH230056   2.828   6.108   3.926
10038TIP3    H130057   2.834   6.080   3.835
10038TIP3    H230058   2.749   6.066   3.959
10039TIP3   OH230059   6.827   2.401   2.131
10039TIP3    H130060   6.794   2.451   2.056
10039TIP3    H230061   6.749   2.366   2.174
10040TIP3   OH230062   3.722   1.961   2.719
10040TIP3    H130063   3.709   1.920   2.805
10040TIP3    H230064   3.676   1.903   2.658
10041TIP3   OH230065   3.935   5.825   5.812
10041TIP3    H130066   3.864   5.883   5.782
10041TIP3    H230067   3.985   5.805   5.733
10042TIP3   OH230068   5.606   3.915   0.538
10042TIP3    H130069   5.549   3.885   0.467
10042TIP3    H230070   5.637   4.000   0.510
10043TIP3   OH230071   8.260   7.529   5.995
10043TIP3    H130072   8.219   7.607   6.032
10043TIP3    H230073   8.190   7.464   5.993
10044TIP3   OH230074   4.918   3.024   4.765
10044TIP3    H130075   4.827   3.004   4.745
10044TIP3    H230076   4.947   2.952   4.821
10045TIP3   OH230077   3.969   4.794   6.272
10045TIP3    H130078   3.993   4.781   6.180
10045TIP3    H230079   3.983   4.709   6.313
10046TIP3   OH230080   7.124   4.232   2.442
10046TIP3    H130081   7.090   4.316   2.409
10046TIP3    H230082   7.134   4.178   2.364
10047TIP3   OH230083   0.938   0.243   2.783
10047TIP3    H130084   1.028   0.275   2.777
10047TIP3    H230085   0.884   0.322   2.772
10048TIP3   OH230086   3.358   7.272   1.028
10048TIP3    H130087   3.305   7.196   1.051
10048TIP3    H230088   3.297   7.332   0.986
10049TIP3   OH230089   4.856   0.991   0.941
10049TIP3    H130090   4.927   1.044   0.906
10049TIP3    H230091   4.787   1.053   0.962
10050TIP3   OH230092   1.982   7.244   4.261
10050TIP3    H130093   1.914   7.176   4.259
10050TIP3    H230094   1.933   7.326   4.259
10051TIP3   OH230095   7.794   0.885   5.112
10051TIP3    H130096   7.835   0.805   5.079
10051TIP3    H230097   7.857   0.920   5.175
10052TIP3   OH230098   7.642   1.076   2.198
10052TIP3    H130099   7.592   0.995   2.212
10052TIP3    H230100   7.611   1.109   2.114
10053TIP3   OH230101   7.908   5.908   6.631
10053TIP3    H130102   7.994   5.946   6.649
10053TIP3    H230103   7.880   5.948   6.549
10054TIP3   OH230104   4.199   3.107   2.618
10054TIP3    H130105   4.275   3.057   2.648
10054TIP3    H230106   4.183   3.076   2.529
10055TIP3   OH230107   4.914   2.614   4.173
10055TIP3    H130108   4.906   2.518   4.169
10055TIP3    H230109   5.007   2.629   4.188
10056TIP3   OH230110   8.276   6.184   5.788
10056TIP3    H130111   8.268   6.110   5.848
10056TIP3    H230112   8.186   6.210   5.770
10057TIP3   OH230113   2.284   7.366   2.046
10057TIP3    H130114   2.227   7.297   2.012
10057TIP3    H230115   2.295   7.427   1.973
10058TIP3   OH230116   2.957   0.149   2.122
10058TIP3    H130117   2.935   0.235   2.158
10058TIP3    H230118   3.045   0.160   2.085
10059TIP3   OH230119   0.298   2.618   1.390
10059TIP3    H130120   0.378   2.569   1.373
10059TIP3    H230121   0.235   2.585   1.325
10060TIP3   OH230122   4.927   7.371   4.752
10060TIP3    H130123   4.959   7.449   4.796
10060TIP3    H230124   4.837   7.361   4.782
10061TIP3   OH230125   1.068   7.171   6.615
10061TIP3    H130126   1.025   7.218   6.687
10061TIP3    H230127   1.116   7.239   6.567
10062TIP3   OH230128   4.224   5.307   4.700
10062TIP3    H130129   4.207   5.285   4.608
10062TIP3    H230130   4.254   5.398   4.697
10063TIP3   OH230131   1.261   7.513   3.876
10063TIP3    H130132   1.278   7.449   3.806
10063TIP3    H230133   1.344   7.559   3.887
10064TIP3   OH230134   5.043   1.247   5.197
10064TIP3    H130135   5.065   1.208   5.112
10064TIP3    H230136   5.107   1.317   5.210
10065TIP3   OH230137   1.015   6.400   1.829
10065TIP3    H130138   0.921   6.385   1.837
10065TIP3    H230139   1.051   6.373   1.914
10066TIP3   OH230140   2.227   5.361   4.187
10066TIP3    H130141   2.256   5.344   4.277
10066TIP3    H230142   2.132   5.363   4.193
10067TIP3   OH230143   7.538   5.792   6.669
10067TIP3    H130144   7.535   5.770   6.762
10067TIP3    H230145   7.561   5.885   6.668
10068TIP3   OH230146   0.471   1.754   0.406
10068TIP3    H130147   0.494   1.822   0.468
10068TIP3    H230148   0.448   1.801   0.326
10069TIP3   OH230149   8.126   5.614   2.350
10069TIP3    H130150   8.203   5.667   2.368
10069TIP3    H230151   8.161   5.531   2.316
10070TIP3   OH230152   7.917   1.586   6.393
10070TIP3    H130153   7.982   1.628   6.336
10070TIP3    H230154   7.909   1.497   6.360
10071TIP3   OH230155   7.482   4.183   3.861
10071TIP3    H130156   7.539   4.217   3.792
10071TIP3    H230157   7.504   4.090   3.866
10072TIP3   OH230158   1.940   7.012   5.707
10072TIP3    H130159   1.981   7.097   5.688
10072TIP3    H230160   2.014   6.951   5.713
10073TIP3   OH230161   1.352   4.268   3.777
10073TIP3    H130162   1.405   4.334   3.822
10073TIP3    H230163   1.300   4.228   3.847
10074TIP3   OH230164   2.018   4.706   4.134
10074TIP3    H130165   1.967   4.769   4.186
10074TIP3    H230166   1.959   4.681   4.063
10075TIP3   OH230167   2.184   1.662   6.155
10075TIP3    H130168   2.102   1.649   6.107
10075TIP3    H230169   2.191   1.757   6.166
10076TIP3   OH230170   0.726   1.498   2.989
10076TIP3    H130171   0.752   1.485   2.898
10076TIP3    H230172   0.800   1.544   3.029
10077TIP3   OH230173   4.812   0.547   5.102
10077TIP3    H130174   4.825   0.634   5.064
10077TIP3    H230175   4.898   0.520   5.132
10078TIP3   OH230176   1.012   4.143   0.107
10078TIP3    H130177   0.988   4.115   0.196
10078TIP3    H230178   0.937   4.118   0.054
10079TIP3   OH230179   3.006   2.138   5.020
10079TIP3    H130180   3.092   2.106   4.993
10079TIP3    H230181   2.949   2.122   4.944
10080TIP3   OH230182   2.006   5.220   4.906
10080TIP3    H130183   1.912   5.227   4.924
10080TIP3    H230184   2.044   5.294   4.953
10081TIP3   OH230185   6.873   5.892   4.893
10081TIP3    H130186   6.861   5.936   4.809
10081TIP3    H230187   6.793   5.840   4.904
10082TIP3   OH230188   4.899   0.522   0.553
10082TIP3    H130189   4.947   0.439   0.556
10082TIP3    H230190   4.894   0.542   0.459
10083TIP3   OH230191   3.240   4.363   2.139
10083TIP3    H130192   3.245   4.408   2.223
10083TIP3    H230193   3.183   4.418   2.085
10084TIP3   OH230194   7.680   2.770   3.076
10084TIP3    H130195   7.623   2.750   3.002
10084TIP3    H230196   7.683   2.688   3.126
10085TIP3   OH230197   3.839   5.555   0.996
10085TIP3    H130198   3.905   5.612   0.956
10085TIP3    H230199   3.755   5.591   0.966
10086TIP3   OH230200   6.989   5.904   1.525
10086TIP3    H130201   6.907   5.907   1.475
10086TIP3    H230202   6.962   5.886   1.614
10087TIP3   OH230203   6.898   4.390   1.035
10087TIP3    H130204   6.896   4.478   1.074
10087TIP3    H230205   6.925   4.404   0.944
10088TIP3   OH230206   2.657   1.748   6.655
10088TIP3    H130207   2.613   1.675   6.699
10088TIP3    H230208   2.683   1.713   6.570
10089TIP3   OH230209   6.767   7.429   1.508
10089TIP3    H130210   6.839   7.371   1.532
10089TIP3    H230211   6.810   7.511   1.481
10090TIP3   OH230212   7.585   0.084   4.469
10090TIP3    H130213   7.543   0.148   4.411
10090TIP3    H230214   7.662   0.054   4.420
10091TIP3   OH230215   1.651   4.539   2.003
10091TIP3    H130216   1.721   4.540   1.938
10091TIP3    H230217   1.582   4.488   1.962
10092TIP3   OH230218   6.842   3.867   2.294
10092TIP3    H130219   6.862   3.944   2.240
10092TIP3    H230220   6.921   3.853   2.347
10093TIP3   OH230221   7.860   7.035   6.683
10093TIP3    H130222   7.889   7.051   6.773
10093TIP3    H230223   7.817   6.950   6.685
10094TIP3   OH230224   4.683   6.131   3.862
10094TIP3    H130225   4.668   6.068   3.933
10094TIP3    H230226   4.777   6.148   3.864
10095TIP3   OH230227   5.289   6.528   1.170
10095TIP3    H130228   5.238   6.582   1.110
10095TIP3    H230229   5.361   6.584   1.199
10096TIP3   OH230230   4.081   2.402   5.581
10096TIP3    H130231   4.121   2.344   5.645
10096TIP3    H230232   3.989   2.376   5.579
10097TIP3   OH230233   5.144   7.029   2.310
10097TIP3    H130234   5.190   7.005   2.390
10097TIP3    H230235   5.095   7.108   2.333
10098TIP3   OH230236   2.894   1.988   1.664
10098TIP3    H130237   2.840   1.958   1.591
10098TIP3    H230238   2.951   1.913   1.685
10099TIP3   OH230239   3.154   4.558   0.450
10099TIP3    H130240   3.246   4.573   0.431
10099TIP3    H230241   3.142   4.464   0.437
10100TIP3   OH230242   5.904   2.370   5.670
10100TIP3    H130243   5.854   2.303   5.716
10100TIP3    H230244   5.850   2.393   5.595
10101TIP3   OH230245   6.957   0.736   0.874
10101TIP3    H130246   7.017   0.791   0.924
10101TIP3    H230247   7.013   0.687   0.814
10102TIP3   OH230248   6.418   3.782   1.211
10102TIP3    H130249   6.430   3.831   1.292
10102TIP3    H230250   6.327   3.798   1.186
10103TIP3   OH230251   5.789   2.502   6.463
10103TIP3    H130252   5.789   2.462   6.376
10103TIP3    H230253   5.697   2.523   6.480
10104TIP3   OH230254   3.175   7.676   6.620
10104TIP3    H130255   3.132   7.662   6.705
10104TIP3    H230256   3.265   7.699   6.643
10105TIP3   OH230257   0.304   4.995   5.305
10105TIP3    H130258   0.321   4.967   5.395
10105TIP3    H230259   0.330   5.087   5.304
10106TIP3   OH230260   3.445   2.235   5.919
10106TIP3    H130261   3.444   2.214   6.012
10106TIP3    H230262   3.358   2.209   5.888
10107TIP3   OH230263   2.067   4.100   6.509
10107TIP3    H130264   2.070   4.140   6.595
10107TIP3    H230265   1.974   4.100   6.486
10108TIP3   OH230266   7.922   4.158   4.299
10108TIP3    H130267   7.923   4.254   4.298
10108TIP3    H230268   7.923   4.135   4.392
10109TIP3   OH230269   6.026   2.118   0.084
10109TIP3    H130270   6.019   2.061   0.007
10109TIP3    H230271   5.989   2.066   0.156
10110TIP3   OH230272   2.473   6.580   0.133
10110TIP3    H130273   2.520   6.580   0.217
10110TIP3    H230274   2.415   6.656   0.137
10111TIP3   OH230275   8.186   1.050   1.307
10111TIP3    H130276   8.204   1.126   1.363
10111TIP3    H230277   8.172   0.978   1.368
10112TIP3   OH230278   0.564   2.617   0.322
10112TIP3    H130279   0.526   2.561   0.389
10112TIP3    H230280   0.490   2.640   0.265
10113TIP3   OH230281   7.143   3.450   0.263
10113TIP3    H130282   7.121   3.396   0.186
10113TIP3    H230283   7.075   3.517   0.265
10114TIP3   OH230284   2.237   5.005   0.555
10114TIP3    H130285   2.143   5.023   0.552
10114TIP3    H230286   2.245   4.936   0.622
10115TIP3   OH230287   1.159   6.446   0.439
10115TIP3    H130288   1.172   6.371   0.497
10115TIP3    H230289   1.066   6.444   0.418
10116TIP3   OH230290   3.274   2.720   1.978
10116TIP3    H130291   3.362   2.758   1.968
10116TIP3    H230292   3.288   2.626   1.973
10117TIP3   OH230293   2.253   1.638   3.452
10117TIP3    H130294   2.258   1.705   3.384
10117TIP3    H230295   2.188   1.575   3.420
10118TIP3   OH230296   6.351   5.821   4.918
10118TIP3    H130297   6.334   5.778   5.002
10118TIP3    H230298   6.395   5.753   4.866
10119TIP3   OH230299   0.383   1.733   4.763
10119TIP3    H130300   0.357   1.694   4.847
10119TIP3    H230301   0.365   1.827   4.774
10120TIP3   OH230302   2.155   5.891   3.140
10120TIP3    H130303   2.100   5.964   3.110
10120TIP3    H230304   2.179   5.845   3.060
10121TIP3   OH230305   7.794   5.766   4.841
10121TIP3    H130306   7.882   5.803   4.846
10121TIP3    H230307   7.747   5.808   4.913
10122TIP3   OH230308   2.743   2.365   2.002
10122TIP3    H130309   2.749   2.455   1.972
10122TIP3    H230310   2.705   2.371   2.090
10123TIP3   OH230311   4.140   5.371   2.747
10123TIP3    H130312   4.122   5.282   2.776
10123TIP3    H230313   4.159   5.361   2.653
10124TIP3   OH230314   1.692   2.127   4.545
10124TIP3    H130315   1.770   2.171   4.510
10124TIP3    H230316   1.714   2.108   4.636
10125TIP3   OH230317   1.041   1.443   6.598
10125TIP3    H130318   1.064   1.429   6.690
10125TIP3    H230319   0.947   1.463   6.600
10126TIP3   OH230320   4.361   6.229   3.435
10126TIP3    H130321   4.432   6.248   3.497
10126TIP3    H230322   4.307   6.308   3.436
10127TIP3   OH230323   7.591   6.332   1.229
10127TIP3    H130324   7.566   6.360   1.140
10127TIP3    H230325   7.597   6.414   1.278
10128TIP3   OH230326   0.112   0.371   1.086
10128TIP3    H130327   0.031   0.320   1.089
10128TIP3    H230328   0.160   0.335   1.012
10129TIP3   OH230329   4.920   0.994   6.518
10129TIP3    H130330   4.841   1.049   6.516
10129TIP3    H230331   4.991   1.056   6.534
10130TIP3   OH230332   8.197   3.007   3.315
10130TIP3    H130333   8.256   3.051   3.253
10130TIP3    H230334   8.254   2.951   3.367
10131TIP3   OH230335   5.925   1.152   6.092
10131TIP3    H130336   5.863   1.185   6.027
10131TIP3    H230337   6.008   1.148   6.046
10132TIP3   OH230338   1.705   1.937   4.347
10132TIP3    H130339   1.633   1.962   4.289
10132TIP3    H230340   1.689   1.986   4.427
10133TIP3   OH230341   7.193   1.431   5.108
10133TIP3    H130342   7.196   1.514   5.156
10133TIP3    H230343   7.145   1.451   5.028
10134TIP3   OH230344   1.170   3.862   5.167
10134TIP3    H130345   1.098   3.802   5.150
10134TIP3    H230346   1.159   3.932   5.102
10135TIP3   OH230347   0.251   1.534   3.372
10135TIP3    H130348   0.336   1.567   3.342
10135TIP3    H230349   0.271   1.485   3.452
10136TIP3   OH230350   1.430   2.325   6.618
10136TIP3    H130351   1.391   2.329   6.705
10136TIP3    H230352   1.507   2.381   6.622
10137TIP3   OH230353   8.299   6.326   3.748
10137TIP3    H130354   8.291   6.238   3.784
10137TIP3    H230355   8.337   6.378   3.819
10138TIP3   OH230356   1.984   5.281   4.036
10138TIP3    H130357   2.038   5.213   4.075
10138TIP3    H230358   2.040   5.322   3.969
10139TIP3   OH230359   3.088   0.894   3.291
10139TIP3    H130360   3.098   0.928   3.202
10139TIP3    H230361   3.151   0.944   3.343
10140TIP3   OH230362   7.567   0.037   5.970
10140TIP3    H130363   7.493   0.091   5.998
10140TIP3    H230364   7.597  -0.007   6.049
10141TIP3   OH230365   6.078   5.404   3.789
10141TIP3    H130366   6.080   5.500   3.787
10141TIP3    H230367   6.123   5.377   3.709
10142TIP3   OH230368   0.028   4.117   5.545
10142TIP3    H130369  -0.046   4.178   5.549
10142TIP3    H230370   0.087   4.146   5.615
10143TIP3   OH230371   8.312   0.332   3.080
10143TIP3    H130372   8.231   0.354   3.125
10143TIP3    H230373   8.284   0.292   2.998
10144TIP3   OH230374   5.989   2.840   5.710
10144TIP3    H130375   5.933   2.810   5.639
10144TIP3    H230376   6.004   2.933   5.691
10145TIP3   OH230377   6.868   4.617   1.191
10145TIP3    H130378   6.906   4.662   1.267
10145TIP3    H230379   6.830   4.687   1.138
10146TIP3   OH230380   8.049   6.455   0.962
10146TIP3    H130381   8.065   6.413   1.046
10146TIP3    H230382   7.954   6.462   0.955
10147TIP3   OH230383   2.760   3.055   0.104
10147TIP3    H130384   2.820   3.089   0.171
10147TIP3    H230385   2.688   3.119   0.102
10148TIP3   OH230386   7.696   4.020   2.553
10148TIP3    H130387   7.627   4.039   2.489
10148TIP3    H230388   7.764   3.976   2.503
10149TIP3   OH230389   4.402   1.066   1.425
10149TIP3    H130390   4.482   1.110   1.455
10149TIP3    H230391   4.405   1.074   1.330
10150TIP3   OH230392   5.768   7.226   5.855
10150TIP3    H130393   5.858   7.221   5.887
10150TIP3    H230394   5.716   7.186   5.924
10151TIP3   OH230395   7.106   4.539   4.641
10151TIP3    H130396   7.142   4.614   4.593
10151TIP3    H230397   7.102   4.470   4.575
10152TIP3   OH230398   5.254   4.008   2.591
10152TIP3    H130399   5.311   3.934   2.568
10152TIP3    H230400   5.177   3.967   2.631
10153TIP3   OH230401   6.677   4.686   0.487
10153TIP3    H130402   6.721   4.621   0.542
10153TIP3    H230403   6.590   4.695   0.526
10154TIP3   OH230404   2.984   1.117   5.438
10154TIP3    H130405   2.932   1.070   5.374
10154TIP3    H230406   3.073   1.085   5.426
10155TIP3   OH230407   3.840   2.540   6.627
10155TIP3    H130408   3.869   2.449   6.635
10155TIP3    H230409   3.912   2.585   6.583
10156TIP3   OH230410   7.266   6.229   2.989
10156TIP3    H130411   7.197   6.247   3.053
10156TIP3    H230412   7.299   6.143   3.012
10157TIP3   OH230413   5.421   0.185   2.240
10157TIP3    H130414   5.477   0.185   2.163
10157TIP3    H230415   5.333   0.170   2.207
10158TIP3   OH230416   3.540   0.557   3.889
10158TIP3    H130417   3.450   0.589   3.884
10158TIP3    H230418   3.589   0.629   3.931
10159TIP3   OH230419   1.583   5.810   2.373
10159TIP3    H130420   1.622   5.725   2.393
10159TIP3    H230421   1.494   5.790   2.346
10160TIP3   OH230422   6.653   0.045   6.082
10160TIP3    H130423   6.726  -0.016   6.088
10160TIP3    H230424   6.586   0.008   6.140
10161TIP3   OH230425   3.553   6.570   2.942
10161TIP3    H130426   3.567   6.593   2.850
10161TIP3    H230427   3.475   6.514   2.942
10162TIP3   OH230428   7.284   5.592   2.981
10162TIP3    H130429   7.264   5.649   2.908
10162TIP3    H230430   7.379   5.577   2.975
10163TIP3   OH230431   5.232   7.600   0.899
10163TIP3    H130432   5.227   7.581   0.805
10163TIP3    H230433   5.279   7.525   0.936
10164TIP3   OH230434   7.209   0.336   1.300
10164TIP3    H130435   7.227   0.276   1.372
10164TIP3    H230436   7.227   0.423   1.335
10165TIP3   OH230437   3.471   7.647   1.786
10165TIP3    H130438   3.393   7.679   1.831
10165TIP3    H230439   3.484   7.710   1.714
10166TIP3   OH230440   0.403   3.007   2.266
10166TIP3    H130441   0.334   2.985   2.204
10166TIP3    H230442   0.452   2.925   2.278
10167TIP3   OH230443   4.086   5.711   5.596
10167TIP3    H130444   4.168   5.678   5.558
10167TIP3    H230445   4.043   5.634   5.632
10168TIP3   OH230446   1.692   1.526   6.694
10168TIP3    H130447   1.669   1.499   6.606
10168TIP3    H230448   1.669   1.451   6.749
10169TIP3   OH230449   5.806   4.593   5.134
10169TIP3    H130450   5.871   4.545   5.185
10169TIP3    H230451   5.836   4.587   5.044
10170TIP3   OH230452   4.274   3.397   2.751
10170TIP3    H130453   4.269   3.454   2.827
10170TIP3    H230454   4.364   3.365   2.751
10171TIP3   OH230455   3.937   1.684   2.929
10171TIP3    H130456   3.978   1.655   3.011
10171TIP3    H230457   3.878   1.754   2.957
10172TIP3   OH230458   0.241   7.110   5.284
10172TIP3    H130459   0.159   7.062   5.273
10172TIP3    H230460   0.309   7.042   5.284
10173TIP3   OH230461   4.458   7.421   1.703
10173TIP3    H130462   4.364   7.424   1.685
10173TIP3    H230463   4.475   7.500   1.754
10174TIP3   OH230464   5.379   6.247   2.795
10174TIP3    H130465   5.453   6.216   2.742
10174TIP3    H230466   5.362   6.336   2.763
10175TIP3   OH230467   5.831   5.012   6.665
10175TIP3    H130468   5.913   5.001   6.713
10175TIP3    H230469   5.854   5.067   6.591
10176TIP3   OH230470   2.942   2.039   6.058
10176TIP3    H130471   2.914   1.956   6.022
10176TIP3    H230472   2.976   2.018   6.145
10177TIP3   OH230473   5.025   1.099   4.937
10177TIP3    H130474   5.067   1.149   4.867
10177TIP3    H230475   5.075   1.017   4.942
10178TIP3   OH230476   8.261   5.774   1.086
10178TIP3    H130477   8.296   5.799   1.000
10178TIP3    H230478   8.337   5.740   1.134
10179TIP3   OH230479   7.858   4.559   2.487
10179TIP3    H130480   7.915   4.593   2.418
10179TIP3    H230481   7.918   4.527   2.554
10180TIP3   OH230482   5.644   6.945   3.859
10180TIP3    H130483   5.706   7.013   3.830
10180TIP3    H230484   5.559   6.990   3.863
10181TIP3   OH230485   0.507   1.382   0.812
10181TIP3    H130486   0.518   1.421   0.726
10181TIP3    H230487   0.416   1.401   0.836
10182TIP3   OH230488   5.479   5.910   0.672
10182TIP3    H130489   5.386   5.894   0.655
10182TIP3    H230490   5.523   5.836   0.632
10183TIP3   OH230491   7.412   1.844   0.477
10183TIP3    H130492   7.364   1.855   0.395
10183TIP3    H230493   7.501   1.874   0.457
10184TIP3   OH230494   4.194   0.846   3.253
10184TIP3    H130495   4.139   0.768   3.260
10184TIP3    H230496   4.237   0.838   3.168
10185TIP3   OH230497   4.913   0.392   4.053
10185TIP3    H130498   5.003   0.374   4.024
10185TIP3    H230499   4.893   0.478   4.015
10186TIP3   OH230500   6.759   4.201   0.714
10186TIP3    H130501   6.690   4.138   0.735
10186TIP3    H230502   6.833   4.174   0.769
10187TIP3   OH230503   1.462   6.214   3.738
10187TIP3    H130504   1.473   6.182   3.648
10187TIP3    H230505   1.549   6.243   3.765
10188TIP3   OH230506   1.743   6.111   0.597
10188TIP3    H130507   1.776   6.134   0.683
10188TIP3    H230508   1.820   6.112   0.540
10189TIP3   OH230509   0.832   2.849   2.289
10189TIP3    H130510   0.754   2.805   2.254
10189TIP3    H230511   0.798   2.928   2.331
10190TIP3   OH230512   1.046   2.518   3.637
10190TIP3    H130513   1.044   2.597   3.584
10190TIP3    H230514   1.089   2.452   3.582
10191TIP3   OH230515   8.003   4.156   1.411
10191TIP3    H130516   8.046   4.089   1.464
10191TIP3    H230517   8.055   4.235   1.425
10192TIP3   OH230518   2.052   6.763   3.998
10192TIP3    H130519   2.018   6.700   4.061
10192TIP3    H230520   2.133   6.796   4.037
10193TIP3   OH230521   0.933   6.164   6.667
10193TIP3    H130522   1.028   6.154   6.668
10193TIP3    H230523   0.918   6.235   6.605
10194TIP3   OH230524   5.383   2.222   3.167
10194TIP3    H130525   5.375   2.158   3.239
10194TIP3    H230526   5.323   2.292   3.191
10195TIP3   OH230527   5.830   4.677   3.402
10195TIP3    H130528   5.788   4.698   3.318
10195TIP3    H230529   5.802   4.748   3.461
10196TIP3   OH230530   0.146   4.353   1.551
10196TIP3    H130531   0.093   4.425   1.516
10196TIP3    H230532   0.106   4.331   1.635
10197TIP3   OH230533   6.123   5.654   6.051
10197TIP3    H130534   6.062   5.636   5.979
10197TIP3    H230535   6.082   5.724   6.101
10198TIP3   OH230536   2.418   1.544   3.647
10198TIP3    H130537   2.422   1.633   3.681
10198TIP3    H230538   2.381   1.553   3.559
10199TIP3   OH230539   3.757   6.256   0.673
10199TIP3    H130540   3.667   6.268   0.643
10199TIP3    H230541   3.807   6.244   0.592
10200TIP3   OH230542   5.155   7.594   2.482
10200TIP3    H130543   5.230   7.639   2.443
10200TIP3    H230544   5.154   7.624   2.573
10201TIP3   OH230545   2.025   1.274   6.306
10201TIP3    H130546   2.032   1.356   6.354
10201TIP3    H230547   2.114   1.256   6.275
10202TIP3   OH230548   0.469   1.319   6.302
10202TIP3    H130549   0.388   1.291   6.344
10202TIP3    H230550   0.458   1.413   6.290
10203TIP3   OH230551   2.107   6.649   4.700
10203TIP3    H130552   2.031   6.682   4.749
10203TIP3    H230553   2.116   6.558   4.727
10204TIP3   OH230554   6.271   3.535   3.571
10204TIP3    H130555   6.266   3.512   3.663
10204TIP3    H230556   6.348   3.592   3.564
10205TIP3   OH230557   6.701   5.942   2.674
10205TIP3    H130558   6.722   5.848   2.680
10205TIP3    H230559   6.784   5.986   2.693
10206TIP3   OH230560   3.413   0.868   0.694
10206TIP3    H130561   3.371   0.797   0.646
10206TIP3    H230562   3.341   0.909   0.743
10207TIP3   OH230563   3.964   2.509   2.331
10207TIP3    H130564   4.013   2.427   2.330
10207TIP3    H230565   3.962   2.535   2.423
10208TIP3   OH230566   6.667   2.492   0.715
10208TIP3    H130567   6.708   2.406   0.727
10208TIP3    H230568   6.583   2.472   0.673
10209TIP3   OH230569   6.461   3.294   3.674
10209TIP3    H130570   6.519   3.339   3.612
10209TIP3    H230571   6.514   3.287   3.754
10210TIP3   OH230572   6.922   1.405   3.466
10210TIP3    H130573   6.828   1.409   3.450
10210TIP3    H230574   6.962   1.432   3.383
10211TIP3   OH230575   1.474   1.179   3.832
10211TIP3    H130576   1.489   1.124   3.755
10211TIP3    H230577   1.476   1.268   3.798
10212TIP3   OH230578   3.813   3.314   0.431
10212TIP3    H130579   3.890   3.265   0.405
10212TIP3    H230580   3.740   3.254   0.415
10213TIP3   OH230581   5.928   6.267   4.741
10213TIP3    H130582   6.018   6.296   4.730
10213TIP3    H230583   5.911   6.277   4.834
10214TIP3   OH230584   4.665   3.799   0.439
10214TIP3    H130585   4.647   3.764   0.352
10214TIP3    H230586   4.682   3.722   0.493
10215TIP3   OH230587   6.555   3.912   4.500
10215TIP3    H130588   6.603   3.952   4.427
10215TIP3    H230589   6.468   3.950   4.494
10216TIP3   OH230590   0.092   3.038   0.311
10216TIP3    H130591   0.096   3.012   0.219
10216TIP3    H230592   0.184   3.050   0.336
10217TIP3   OH230593   4.465   5.631   0.130
10217TIP3    H130594   4.474   5.548   0.083
10217TIP3    H230595   4.484   5.609   0.221
10218TIP3   OH230596   5.293   1.311   4.406
10218TIP3    H130597   5.204   1.295   4.437
10218TIP3    H230598   5.300   1.407   4.403
10219TIP3   OH230599  -0.034   7.810   2.062
10219TIP3    H130600  -0.008   7.744   2.126
10219TIP3    H230601   0.044   7.865   2.051
10220TIP3   OH230602   7.129   7.704   5.123
10220TIP3    H130603   7.106   7.746   5.041
10220TIP3    H230604   7.104   7.612   5.111
10221TIP3   OH230605   5.047   5.167   4.399
10221TIP3    H130606   5.091   5.234   4.452
10221TIP3    H230607   5.060   5.197   4.309
10222TIP3   OH230608   2.288   0.965   6.414
10222TIP3    H130609   2.215   1.013   6.454
10222TIP3    H230610   2.297   0.886   6.467
10223TIP3   OH230611   5.927   2.788   0.120
10223TIP3    H130612   5.999   2.796   0.183
10223TIP3    H230613   5.965   2.745   0.044
10224TIP3   OH230614   6.257   3.236   0.407
10224TIP3    H130615   6.253   3.195   0.321
10224TIP3    H230616   6.267   3.163   0.468
10225TIP3   OH230617   5.067   2.888   4.970
10225TIP3    H130618   5.093   2.801   4.942
10225TIP3    H230619   5.149   2.935   4.983
10226TIP3   OH230620   2.284   6.921   4.766
10226TIP3    H130621   2.223   6.965   4.706
10226TIP3    H230622   2.238   6.920   4.850
10227TIP3   OH230623   6.902   6.321   4.057
10227TIP3    H130624   6.969   6.309   4.124
10227TIP3    H230625   6.836   6.376   4.099
10228TIP3   OH230626   4.240   2.540   3.386
10228TIP3    H130627   4.179   2.468   3.371
10228TIP3    H230628   4.260   2.535   3.480
10229TIP3   OH230629   7.322   0.512   4.554
10229TIP3    H130630   7.267   0.476   4.484
10229TIP3    H230631   7.303   0.606   4.553
10230TIP3   OH230632   5.226   1.991   3.087
10230TIP3    H130633   5.246   2.072   3.136
10230TIP3    H230634   5.212   2.020   2.997
10231TIP3   OH230635   1.534   3.908   6.568
10231TIP3    H130636   1.446   3.946   6.573
10231TIP3    H230637   1.592   3.979   6.595
10232TIP3   OH230638   2.696   0.885   3.570
10232TIP3    H130639   2.724   0.808   3.620
10232TIP3    H230640   2.617   0.857   3.524
10233TIP3   OH230641   1.418   4.800   6.408
10233TIP3    H130642   1.398   4.713   6.442
10233TIP3    H230643   1.332   4.839   6.391
10234TIP3   OH230644   2.116   1.094   6.573
10234TIP3    H130645   2.060   1.168   6.550
10234TIP3    H230646   2.079   1.060   6.654
10235TIP3   OH230647   2.511   5.508   0.418
10235TIP3    H130648   2.431   5.534   0.464
10235TIP3    H230649   2.497   5.536   0.328
10236TIP3   OH230650   1.881   1.984   2.214
10236TIP3    H130651   1.943   2.054   2.191
10236TIP3    H230652   1.799   2.010   2.171
10237TIP3   OH230653   5.567   3.300   2.850
10237TIP3    H130654   5.505   3.232   2.878
10237TIP3    H230655   5.536   3.380   2.893
10238TIP3   OH230656   5.773   4.566   6.274
10238TIP3    H130657   5.865   4.543   6.262
10238TIP3    H230658   5.774   4.640   6.335
10239TIP3   OH230659   2.047   7.336   4.909
10239TIP3    H130660   1.993   7.381   4.844
10239TIP3    H230661   1.994   7.262   4.937
10240TIP3   OH230662   6.587   4.234   5.644
10240TIP3    H130663   6.586   4.271   5.732
10240TIP3    H230664   6.623   4.304   5.589
10241TIP3   OH230665   2.736   3.893   2.100
10241TIP3    H130666   2.697   3.976   2.071
10241TIP3    H230667   2.710   3.886   2.192
10242TIP3   OH230668   0.787   5.621   2.103
10242TIP3    H130669   0.876   5.644   2.074
10242TIP3    H230670   0.779   5.528   2.082
10243TIP3   OH230671   3.262   7.716   0.437
10243TIP3    H130672   3.313   7.667   0.373
10243TIP3    H230673   3.297   7.805   0.434
10244TIP3   OH230674   8.068   7.169   6.568
10244TIP3    H130675   8.072   7.166   6.472
10244TIP3    H230676   7.986   7.126   6.590
10245TIP3   OH230677   2.064   6.034   0.814
10245TIP3    H130678   2.088   5.989   0.733
10245TIP3    H230679   2.148   6.064   0.850
10246TIP3   OH230680   4.340   6.427   4.022
10246TIP3    H130681   4.415   6.466   3.977
10246TIP3    H230682   4.314   6.494   4.086
10247TIP3   OH230683   2.754   1.427   3.253
10247TIP3    H130684   2.679   1.431   3.313
10247TIP3    H230685   2.790   1.339   3.265
10248TIP3   OH230686   4.572   6.498   0.936
10248TIP3    H130687   4.487   6.484   0.978
10248TIP3    H230688   4.553   6.497   0.842
10249TIP3   OH230689   7.374   7.562   4.177
10249TIP3    H130690   7.329   7.527   4.100
10249TIP3    H230691   7.446   7.614   4.140
10250TIP3   OH230692   6.007   0.001   2.495
10250TIP3    H130693   6.056  -0.014   2.576
10250TIP3    H230694   6.020   0.094   2.476
10251TIP3   OH230695   3.328   6.091   5.165
10251TIP3    H130696   3.327   5.999   5.139
10251TIP3    H230697   3.241   6.106   5.202
10252TIP3   OH230698   3.938   4.256   2.732
10252TIP3    H130699   3.856   4.219   2.699
10252TIP3    H230700   3.911   4.334   2.780
10253TIP3   OH230701   3.723   7.040   0.676
10253TIP3    H130702   3.723   7.131   0.705
10253TIP3    H230703   3.636   7.008   0.700
10254TIP3   OH230704   5.903   3.126   0.317
10254TIP3    H130705   5.966   3.055   0.326
10254TIP3    H230706   5.939   3.182   0.248
10255TIP3   OH230707   7.173   2.856   3.595
10255TIP3    H130708   7.081   2.856   3.621
10255TIP3    H230709   7.219   2.815   3.668
10256TIP3   OH230710   4.243   3.214   2.220
10256TIP3    H130711   4.210   3.298   2.252
10256TIP3    H230712   4.181   3.149   2.255
10257TIP3   OH230713   1.719   1.247   0.585
10257TIP3    H130714   1.760   1.293   0.658
10257TIP3    H230715   1.768   1.165   0.577
10258TIP3   OH230716   3.304   0.675   6.241
10258TIP3    H130717   3.391   0.637   6.251
10258TIP3    H230718   3.300   0.745   6.305
10259TIP3   OH230719   0.238   7.379   4.173
10259TIP3    H130720   0.169   7.446   4.182
10259TIP3    H230721   0.273   7.393   4.085
10260TIP3   OH230722   0.954   2.124   4.234
10260TIP3    H130723   1.019   2.192   4.250
10260TIP3    H230724   0.969   2.096   4.144
10261TIP3   OH230725   7.797   0.643   6.720
10261TIP3    H130726   7.826   0.683   6.638
10261TIP3    H230727   7.758   0.715   6.769
10262TIP3   OH230728   1.816   0.830   2.787
10262TIP3    H130729   1.865   0.761   2.743
10262TIP3    H230730   1.758   0.866   2.720
10263TIP3   OH230731   0.850   0.056   0.557
10263TIP3    H130732   0.763   0.054   0.517
10263TIP3    H230733   0.904   0.106   0.495
10264TIP3   OH230734   0.639   0.766   0.075
10264TIP3    H130735   0.733   0.752   0.059
10264TIP3    H230736   0.629   0.861   0.073
10265TIP3   OH230737   1.882   1.281   1.044
10265TIP3    H130738   1.970   1.245   1.029
10265TIP3    H230739   1.825   1.204   1.045
10266TIP3   OH230740   5.444   7.146   0.416
10266TIP3    H130741   5.520   7.165   0.471
10266TIP3    H230742   5.432   7.051   0.423
10267TIP3   OH230743   2.601   3.612   1.912
10267TIP3    H130744   2.638   3.695   1.942
10267TIP3    H230745   2.538   3.588   1.979
10268TIP3   OH230746   6.184   0.667   3.543
10268TIP3    H130747   6.267   0.706   3.518
10268TIP3    H230748   6.159   0.715   3.622
10269TIP3   OH230749   7.293   7.151   1.500
10269TIP3    H130750   7.365   7.211   1.518
10269TIP3    H230751   7.230   7.202   1.450
10270TIP3   OH230752   2.530   5.659   3.398
10270TIP3    H130753   2.442   5.689   3.380
10270TIP3    H230754   2.586   5.734   3.379
10271TIP3   OH230755   1.198   7.010   2.839
10271TIP3    H130756   1.224   7.101   2.855
10271TIP3    H230757   1.146   6.986   2.916
10272TIP3   OH230758   7.098   2.951   4.282
10272TIP3    H130759   7.061   2.895   4.214
10272TIP3    H230760   7.125   2.891   4.351
10273TIP3   OH230761   4.826   5.963   3.389
10273TIP3    H130762   4.863   5.895   3.444
10273TIP3    H230763   4.843   5.933   3.299
10274TIP3   OH230764   3.668   3.475   5.862
10274TIP3    H130765   3.719   3.394   5.860
10274TIP3    H230766   3.730   3.543   5.834
10275TIP3   OH230767   2.194   1.159   6.085
10275TIP3    H130768   2.277   1.123   6.118
10275TIP3    H230769   2.191   1.132   5.993
10276TIP3   OH230770   1.088   2.349   5.408
10276TIP3    H130771   1.017   2.370   5.348
10276TIP3    H230772   1.164   2.396   5.373
10277TIP3   OH230773   4.052   2.600   4.379
10277TIP3    H130774   4.054   2.520   4.327
10277TIP3    H230775   3.960   2.624   4.383
10278TIP3   OH230776   2.493   0.129   2.994
10278TIP3    H130777   2.541   0.061   2.947
10278TIP3    H230778   2.408   0.132   2.950
10279TIP3   OH230779   7.914   4.604   1.965
10279TIP3    H130780   7.879   4.637   1.883
10279TIP3    H230781   7.837   4.577   2.015
10280TIP3   OH230782   6.009   6.431   0.688
10280TIP3    H130783   5.972   6.515   0.714
10280TIP3    H230784   5.955   6.403   0.614
10281TIP3   OH230785   2.222   1.834   4.186
10281TIP3    H130786   2.182   1.756   4.223
10281TIP3    H230787   2.153   1.901   4.188
10282TIP3   OH230788   3.102   2.976   2.909
10282TIP3    H130789   3.070   2.992   2.998
10282TIP3    H230790   3.137   2.887   2.912
10283TIP3   OH230791   6.013   2.704   3.297
10283TIP3    H130792   6.086   2.696   3.359
10283TIP3    H230793   6.032   2.783   3.247
10284TIP3   OH230794   6.984   1.865   6.031
10284TIP3    H130795   6.990   1.774   6.060
10284TIP3    H230796   6.922   1.905   6.092
10285TIP3   OH230797   4.294   6.819   2.560
10285TIP3    H130798   4.379   6.848   2.528
10285TIP3    H230799   4.235   6.892   2.544
10286TIP3   OH230800   0.713   3.127   6.762
10286TIP3    H130801   0.646   3.060   6.777
10286TIP3    H230802   0.746   3.108   6.674
10287TIP3   OH230803   1.482   0.612   4.201
10287TIP3    H130804   1.569   0.651   4.213
10287TIP3    H230805   1.456   0.639   4.113
10288TIP3   OH230806   1.239   0.051   3.307
10288TIP3    H130807   1.166   0.083   3.253
10288TIP3    H230808   1.312   0.042   3.246
10289TIP3   OH230809   7.130   4.612   5.393
10289TIP3    H130810   7.123   4.705   5.371
10289TIP3    H230811   7.122   4.567   5.309
10290TIP3   OH230812   7.661   5.869   1.245
10290TIP3    H130813   7.716   5.897   1.172
10290TIP3    H230814   7.624   5.951   1.279
10291TIP3   OH230815   3.186   5.285   0.354
10291TIP3    H130816   3.112   5.256   0.301
10291TIP3    H230817   3.164   5.375   0.379
10292TIP3   OH230818   0.082   3.291   6.095
10292TIP3    H130819   0.106   3.357   6.161
10292TIP3    H230820  -0.013   3.291   6.094
10293TIP3   OH230821   5.962   6.649   3.448
10293TIP3    H130822   5.918   6.715   3.501
10293TIP3    H230823   6.050   6.643   3.485
10294TIP3   OH230824   7.636   5.279   2.608
10294TIP3    H130825   7.692   5.324   2.545
10294TIP3    H230826   7.610   5.198   2.564
10295TIP3   OH230827   6.148   3.565   2.836
10295TIP3    H130828   6.157   3.628   2.764
10295TIP3    H230829   6.067   3.591   2.880
10296TIP3   OH230830   3.036   5.025   5.913
10296TIP3    H130831   2.962   5.022   5.973
10296TIP3    H230832   3.052   5.118   5.899
10297TIP3   OH230833   8.186   0.545   2.691
10297TIP3    H130834   8.114   0.521   2.633
10297TIP3    H230835   8.254   0.480   2.673
10298TIP3   OH230836   5.409   0.517   2.778
10298TIP3    H130837   5.466   0.460   2.829
10298TIP3    H230838   5.343   0.547   2.840
10299TIP3   OH230839   6.894   0.704   2.208
10299TIP3    H130840   6.920   0.646   2.280
10299TIP3    H230841   6.941   0.672   2.132
10300TIP3   OH230842   1.973   3.852   4.932
10300TIP3    H130843   2.037   3.884   4.996
10300TIP3    H230844   2.018   3.779   4.888
10301TIP3   OH230845   6.916   5.391   6.774
10301TIP3    H130846   6.846   5.345   6.728
10301TIP3    H230847   6.991   5.385   6.714
10302TIP3   OH230848   7.152   3.440   3.000
10302TIP3    H130849   7.232   3.454   3.051
10302TIP3    H230850   7.170   3.481   2.916
10303TIP3   OH230851   2.496   5.520   0.152
10303TIP3    H130852   2.573   5.479   0.112
10303TIP3    H230853   2.449   5.560   0.079
10304TIP3   OH230854   0.036   6.157   4.176
10304TIP3    H130855   0.073   6.188   4.259
10304TIP3    H230856   0.079   6.072   4.161
10305TIP3   OH230857   7.032   4.829   0.153
10305TIP3    H130858   7.008   4.778   0.075
10305TIP3    H230859   7.094   4.895   0.120
10306TIP3   OH230860   2.476   7.786   2.142
10306TIP3    H130861   2.422   7.771   2.220
10306TIP3    H230862   2.462   7.709   2.087
10307TIP3   OH230863   5.709   1.983   2.395
10307TIP3    H130864   5.785   2.002   2.450
10307TIP3    H230865   5.667   2.068   2.383
10308TIP3   OH230866   6.898   6.199   2.572
10308TIP3    H130867   6.867   6.168   2.487
10308TIP3    H230868   6.867   6.290   2.577
10309TIP3   OH230869   0.958   1.153   6.076
10309TIP3    H130870   0.891   1.088   6.096
10309TIP3    H230871   0.940   1.226   6.135
10310TIP3   OH230872   0.297   3.438   4.571
10310TIP3    H130873   0.288   3.416   4.664
10310TIP3    H230874   0.357   3.512   4.570
10311TIP3   OH230875   7.452   3.604   1.683
10311TIP3    H130876   7.506   3.575   1.756
10311TIP3    H230877   7.433   3.524   1.633
10312TIP3   OH230878   6.690   3.327   1.837
10312TIP3    H130879   6.666   3.241   1.802
10312TIP3    H230880   6.738   3.308   1.917
10313TIP3   OH230881   5.914   5.184   4.653
10313TIP3    H130882   5.881   5.119   4.592
10313TIP3    H230883   5.894   5.268   4.611
10314TIP3   OH230884   3.382   1.146   0.829
10314TIP3    H130885   3.300   1.180   0.864
10314TIP3    H230886   3.386   1.180   0.740
10315TIP3   OH230887   2.710   3.337   2.951
10315TIP3    H130888   2.625   3.300   2.926
10315TIP3    H230889   2.742   3.280   3.021
10316TIP3   OH230890   8.238   7.815   3.763
10316TIP3    H130891   8.214   7.771   3.682
10316TIP3    H230892   8.179   7.779   3.829
10317TIP3   OH230893   2.162   4.837   3.231
10317TIP3    H130894   2.213   4.790   3.298
10317TIP3    H230895   2.102   4.891   3.281
10318TIP3   OH230896   4.717   0.423   1.189
10318TIP3    H130897   4.679   0.363   1.254
10318TIP3    H230898   4.676   0.508   1.208
10319TIP3   OH230899   7.581   7.006   6.256
10319TIP3    H130900   7.622   6.919   6.257
10319TIP3    H230901   7.525   7.007   6.335
10320TIP3   OH230902   6.120   6.309   1.801
10320TIP3    H130903   6.114   6.234   1.742
10320TIP3    H230904   6.077   6.380   1.752
10321TIP3   OH230905   6.436   2.636   2.125
10321TIP3    H130906   6.380   2.692   2.071
10321TIP3    H230907   6.425   2.670   2.214
10322TIP3   OH230908   6.451   3.989   3.751
10322TIP3    H130909   6.449   3.894   3.763
10322TIP3    H230910   6.521   4.019   3.810
10323TIP3   OH230911   0.646   0.531   5.795
10323TIP3    H130912   0.576   0.467   5.788
10323TIP3    H230913   0.644   0.577   5.710
10324TIP3   OH230914   5.644   7.468   4.044
10324TIP3    H130915   5.567   7.518   4.015
10324TIP3    H230916   5.673   7.512   4.123
10325TIP3   OH230917   3.862   2.174   3.811
10325TIP3    H130918   3.822   2.202   3.893
10325TIP3    H230919   3.904   2.252   3.777
10326TIP3   OH230920   3.221   2.329   0.536
10326TIP3    H130921   3.226   2.234   0.527
10326TIP3    H230922   3.294   2.351   0.594
10327TIP3   OH230923   5.599   6.107   5.664
10327TIP3    H130924   5.583   6.082   5.574
10327TIP3    H230925   5.655   6.037   5.699
10328TIP3   OH230926   3.202   1.153   2.438
10328TIP3    H130927   3.120   1.186   2.472
10328TIP3    H230928   3.203   1.060   2.462
10329TIP3   OH230929   7.405   7.368   4.383
10329TIP3    H130930   7.354   7.296   4.346
10329TIP3    H230931   7.402   7.436   4.315
10330TIP3   OH230932   0.247   2.054   5.845
10330TIP3    H130933   0.217   2.076   5.757
10330TIP3    H230934   0.286   2.135   5.878
10331TIP3   OH230935   0.073   7.623   1.637
10331TIP3    H130936   0.150   7.628   1.579
10331TIP3    H230937   0.076   7.704   1.688
10332TIP3   OH230938   1.574   1.193   2.695
10332TIP3    H130939   1.536   1.275   2.727
10332TIP3    H230940   1.668   1.207   2.700
10333TIP3   OH230941   2.276   5.879   1.022
10333TIP3    H130942   2.245   5.847   0.937
10333TIP3    H230943   2.246   5.814   1.085
10334TIP3   OH230944   2.382   5.382   4.666
10334TIP3    H130945   2.424   5.357   4.748
10334TIP3    H230946   2.428   5.461   4.638
10335TIP3   OH230947   2.100   6.312   2.281
10335TIP3    H130948   2.163   6.314   2.353
10335TIP3    H230949   2.061   6.399   2.281
10336TIP3   OH230950   3.941   3.531   2.841
10336TIP3    H130951   3.891   3.472   2.784
10336TIP3    H230952   3.978   3.473   2.908
10337TIP3   OH230953   1.715   4.161   2.832
10337TIP3    H130954   1.718   4.143   2.738
10337TIP3    H230955   1.806   4.149   2.861
10338TIP3   OH230956   3.317   0.948   4.742
10338TIP3    H130957   3.222   0.943   4.743
10338TIP3    H230958   3.342   0.922   4.654
10339TIP3   OH230959   4.534   7.398   6.543
10339TIP3    H130960   4.614   7.402   6.595
10339TIP3    H230961   4.477   7.465   6.580
10340TIP3   OH230962   4.838   3.502   6.560
10340TIP3    H130963   4.814   3.592   6.536
10340TIP3    H230964   4.878   3.510   6.646
10341TIP3   OH230965   0.310   7.734   0.263
10341TIP3    H130966   0.352   7.681   0.196
10341TIP3    H230967   0.218   7.706   0.264
10342TIP3   OH230968   2.328   2.623   3.333
10342TIP3    H130969   2.239   2.640   3.365
10342TIP3    H230970   2.381   2.616   3.412
10343TIP3   OH230971   3.329   4.873   3.757
10343TIP3    H130972   3.417   4.912   3.761
10343TIP3    H230973   3.287   4.903   3.838
10344TIP3   OH230974   7.502   1.578   0.247
10344TIP3    H130975   7.535   1.563   0.159
10344TIP3    H230976   7.408   1.561   0.240
10345TIP3   OH230977   3.107   0.875   4.178
10345TIP3    H130978   3.189   0.840   4.213
10345TIP3    H230979   3.040   0.844   4.240
10346TIP3   OH230980   4.897   2.474   5.194
10346TIP3    H130981   4.884   2.561   5.157
10346TIP3    H230982   4.859   2.480   5.282
10347TIP3   OH230983   6.776   0.893   3.831
10347TIP3    H130984   6.734   0.967   3.875
10347TIP3    H230985   6.703   0.840   3.799
10348TIP3   OH230986   6.870   3.749   1.600
10348TIP3    H130987   6.941   3.793   1.648
10348TIP3    H230988   6.910   3.719   1.519
10349TIP3   OH230989   1.816   5.203   0.616
10349TIP3    H130990   1.859   5.127   0.576
10349TIP3    H230991   1.835   5.276   0.557
10350TIP3   OH230992   8.185   5.691   4.720
10350TIP3    H130993   8.155   5.781   4.730
10350TIP3    H230994   8.177   5.673   4.627
10351TIP3   OH230995   0.147   2.548   1.995
10351TIP3    H130996   0.157   2.604   1.918
10351TIP3    H230997   0.236   2.514   2.010
10352TIP3   OH230998   2.644   5.307   0.019
10352TIP3    H130999   2.638   5.213   0.030
10352TIP3    H231000   2.738   5.326   0.016
10353TIP3   OH231001   6.479   3.741   3.806
10353TIP3    H131002   6.509   3.737   3.897
10353TIP3    H231003   6.443   3.654   3.789
10354TIP3   OH231004   6.670   6.376   6.347
10354TIP3    H131005   6.680   6.283   6.366
10354TIP3    H231006   6.583   6.383   6.308
10355TIP3   OH231007   6.451   0.819   5.192
10355TIP3    H131008   6.365   0.839   5.230
10355TIP3    H231009   6.502   0.786   5.266
10356TIP3   OH231010   1.562   5.802   4.207
10356TIP3    H131011   1.561   5.729   4.269
10356TIP3    H231012   1.609   5.871   4.254
10357TIP3   OH231013   2.515   1.033   5.683
10357TIP3    H131014   2.579   1.073   5.624
10357TIP3    H231015   2.569   0.990   5.750
10358TIP3   OH231016   3.918   5.540   3.288
10358TIP3    H131017   3.893   5.538   3.196
10358TIP3    H231018   3.875   5.619   3.323
10359TIP3   OH231019   2.100   0.297   1.833
10359TIP3    H131020   2.036   0.341   1.777
10359TIP3    H231021   2.113   0.212   1.791
10360TIP3   OH231022   0.265   7.025   0.712
10360TIP3    H131023   0.189   7.008   0.767
10360TIP3    H231024   0.234   7.012   0.623
10361TIP3   OH231025   5.759   1.845   3.957
10361TIP3    H131026   5.744   1.939   3.962
10361TIP3    H231027   5.681   1.811   3.912
10362TIP3   OH231028   6.194   6.355   5.540
10362TIP3    H131029   6.282   6.319   5.545
10362TIP3    H231030   6.166   6.335   5.450
10363TIP3   OH231031   1.442   3.536   4.149
10363TIP3    H131032   1.368   3.569   4.099
10363TIP3    H231033   1.405   3.468   4.206
10364TIP3   OH231034   5.657   6.305   1.445
10364TIP3    H131035   5.618   6.373   1.499
10364TIP3    H231036   5.641   6.333   1.355
10365TIP3   OH231037   7.762   6.706   0.428
10365TIP3    H131038   7.794   6.679   0.342
10365TIP3    H231039   7.700   6.777   0.409
10366TIP3   OH231040   4.549   0.892   3.518
10366TIP3    H131041   4.631   0.905   3.470
10366TIP3    H231042   4.554   0.801   3.549
10367TIP3   OH231043   3.489   3.588   2.509
10367TIP3    H131044   3.453   3.528   2.443
10367TIP3    H231045   3.582   3.591   2.490
10368TIP3   OH231046   7.767   4.236   2.323
10368TIP3    H131047   7.749   4.330   2.323
10368TIP3    H231048   7.690   4.196   2.363
10369TIP3   OH231049   2.254   7.342   3.719
10369TIP3    H131050   2.347   7.344   3.696
10369TIP3    H231051   2.226   7.433   3.711
10370TIP3   OH231052   0.683   4.146   5.593
10370TIP3    H131053   0.596   4.107   5.598
10370TIP3    H231054   0.691   4.196   5.674
10371TIP3   OH231055   7.820   2.170   0.208
10371TIP3    H131056   7.877   2.124   0.146
10371TIP3    H231057   7.731   2.153   0.176
10372TIP3   OH231058   5.313   0.074   3.654
10372TIP3    H131059   5.355   0.151   3.693
10372TIP3    H231060   5.225   0.104   3.632
10373TIP3   OH231061   0.555   2.155   1.705
10373TIP3    H131062   0.491   2.219   1.675
10373TIP3    H231063   0.517   2.070   1.682
10374TIP3   OH231064   1.372   6.538   1.519
10374TIP3    H131065   1.463   6.540   1.548
10374TIP3    H231066   1.356   6.625   1.482
10375TIP3   OH231067   5.991   5.882   6.175
10375TIP3    H131068   5.987   5.940   6.099
10375TIP3    H231069   6.037   5.933   6.242
10376TIP3   OH231070   4.945   2.397   1.994
10376TIP3    H131071   4.963   2.444   2.076
10376TIP3    H231072   4.850   2.396   1.988
10377TIP3   OH231073   5.249   6.926   6.014
10377TIP3    H131074   5.177   6.890   6.066
10377TIP3    H231075   5.328   6.900   6.062
10378TIP3   OH231076   1.212   1.672   3.754
10378TIP3    H131077   1.210   1.587   3.709
10378TIP3    H231078   1.188   1.652   3.844
10379TIP3   OH231079   3.967   4.666   5.637
10379TIP3    H131080   3.871   4.663   5.639
10379TIP3    H231081   3.992   4.675   5.729
10380TIP3   OH231082   4.907   4.999   2.844
10380TIP3    H131083   4.999   5.000   2.872
10380TIP3    H231084   4.912   4.991   2.749
10381TIP3   OH231085   8.261   7.183   1.954
10381TIP3    H131086   8.336   7.238   1.978
10381TIP3    H231087   8.218   7.230   1.882
10382TIP3   OH231088   5.538   4.830   6.005
10382TIP3    H131089   5.449   4.858   5.986
10382TIP3    H231090   5.537   4.736   5.987
10383TIP3   OH231091   5.024   6.277   2.573
10383TIP3    H131092   5.062   6.284   2.660
10383TIP3    H231093   5.069   6.203   2.533
10384TIP3   OH231094   5.252   5.806   6.726
10384TIP3    H131095   5.281   5.730   6.777
10384TIP3    H231096   5.297   5.880   6.768
10385TIP3   OH231097   2.346   7.537   4.374
10385TIP3    H131098   2.324   7.514   4.284
10385TIP3    H231099   2.383   7.457   4.411
10386TIP3   OH231100   5.801   7.169   3.095
10386TIP3    H131101   5.791   7.177   3.000
10386TIP3    H231102   5.817   7.076   3.109
10387TIP3   OH231103   0.337   0.533   3.629
10387TIP3    H131104   0.355   0.589   3.705
10387TIP3    H231105   0.398   0.564   3.562
10388TIP3   OH231106   5.198   6.715   4.200
10388TIP3    H131107   5.158   6.770   4.267
10388TIP3    H231108   5.220   6.634   4.245
10389TIP3   OH231109   6.307   0.904   3.952
10389TIP3    H131110   6.258   0.962   4.009
10389TIP3    H231111   6.377   0.869   4.007
10390TIP3   OH231112   2.441   7.680   3.797
10390TIP3    H131113   2.346   7.669   3.798
10390TIP3    H231114   2.456   7.764   3.754
10391TIP3   OH231115   5.676   0.196   2.868
10391TIP3    H131116   5.644   0.131   2.805
10391TIP3    H231117   5.606   0.261   2.873
10392TIP3   OH231118   0.727   2.232   2.281
10392TIP3    H131119   0.781   2.174   2.227
10392TIP3    H231120   0.642   2.188   2.285
10393TIP3   OH231121   7.376   6.702   2.796
10393TIP3    H131122   7.337   6.634   2.851
10393TIP3    H231123   7.346   6.681   2.707
10394TIP3   OH231124   0.775   5.553   5.492
10394TIP3    H131125   0.752   5.467   5.456
10394TIP3    H231126   0.784   5.610   5.415
10395TIP3   OH231127   1.893   3.859   2.897
10395TIP3    H131128   1.814   3.884   2.945
10395TIP3    H231129   1.965   3.898   2.947
10396TIP3   OH231130   6.033   3.954   5.809
10396TIP3    H131131   5.982   3.997   5.740
10396TIP3    H231132   5.992   3.868   5.820
10397TIP3   OH231133   1.552   7.805   1.355
10397TIP3    H131134   1.493   7.878   1.338
10397TIP3    H231135   1.534   7.780   1.445
10398TIP3   OH231136   5.964   2.287   3.912
10398TIP3    H131137   5.960   2.280   4.007
10398TIP3    H231138   6.034   2.350   3.895
10399TIP3   OH231139   2.854   1.981   4.208
10399TIP3    H131140   2.875   2.060   4.259
10399TIP3    H231141   2.765   1.958   4.237
10400TIP3   OH231142   3.160   1.633   0.316
10400TIP3    H131143   3.134   1.551   0.275
10400TIP3    H231144   3.165   1.614   0.409
10401TIP3   OH231145   4.122   4.507   3.097
10401TIP3    H131146   4.189   4.451   3.137
10401TIP3    H231147   4.123   4.586   3.150
10402TIP3   OH231148   1.364   2.101   2.858
10402TIP3    H131149   1.277   2.128   2.886
10402TIP3    H231150   1.395   2.043   2.927
10403TIP3   OH231151   0.384   6.928   3.920
10403TIP3    H131152   0.459   6.872   3.943
10403TIP3    H231153   0.396   7.007   3.971
10404TIP3   OH231154   3.271   7.071   2.162
10404TIP3    H131155   3.293   7.076   2.255
10404TIP3    H231156   3.194   7.128   2.152
10405TIP3   OH231157   6.691   3.903   3.485
10405TIP3    H131158   6.643   3.981   3.461
10405TIP3    H231159   6.783   3.926   3.471
10406TIP3   OH231160   7.715   1.798   1.527
10406TIP3    H131161   7.631   1.793   1.574
10406TIP3    H231162   7.699   1.753   1.444
10407TIP3   OH231163   5.390   6.835   1.498
10407TIP3    H131164   5.296   6.827   1.516
10407TIP3    H231165   5.426   6.876   1.576
10408TIP3   OH231166   1.234   5.688   1.160
10408TIP3    H131167   1.216   5.782   1.157
10408TIP3    H231168   1.311   5.677   1.105
10409TIP3   OH231169   6.810   6.019   4.647
10409TIP3    H131170   6.720   5.992   4.662
10409TIP3    H231171   6.808   6.067   4.564
10410TIP3   OH231172   6.183   6.162   4.187
10410TIP3    H131173   6.172   6.224   4.259
10410TIP3    H231174   6.140   6.203   4.112
10411TIP3   OH231175   1.642   1.362   0.341
10411TIP3    H131176   1.718   1.414   0.317
10411TIP3    H231177   1.665   1.323   0.425
10412TIP3   OH231178   5.158   1.668   4.215
10412TIP3    H131179   5.238   1.618   4.235
10412TIP3    H231180   5.179   1.758   4.240
10413TIP3   OH231181   6.418   3.032   4.574
10413TIP3    H131182   6.484   2.984   4.522
10413TIP3    H231183   6.334   3.004   4.538
10414TIP3   OH231184   1.782   5.340   3.047
10414TIP3    H131185   1.720   5.347   3.120
10414TIP3    H231186   1.839   5.416   3.056
10415TIP3   OH231187   5.379   2.736   5.242
10415TIP3    H131188   5.300   2.710   5.289
10415TIP3    H231189   5.428   2.654   5.230
10416TIP3   OH231190   4.683   2.368   2.070
10416TIP3    H131191   4.592   2.338   2.075
10416TIP3    H231192   4.730   2.314   2.133
10417TIP3   OH231193   3.704   5.405   0.343
10417TIP3    H131194   3.625   5.371   0.384
10417TIP3    H231195   3.752   5.447   0.414
10418TIP3   OH231196   6.426   4.378   1.043
10418TIP3    H131197   6.383   4.362   0.959
10418TIP3    H231198   6.473   4.297   1.062
10419TIP3   OH231199   6.647   0.426   3.378
10419TIP3    H131200   6.675   0.335   3.385
10419TIP3    H231201   6.697   0.472   3.445
10420TIP3   OH231202   4.707   7.690   3.066
10420TIP3    H131203   4.622   7.667   3.102
10420TIP3    H231204   4.734   7.768   3.114
10421TIP3   OH231205   0.995   0.213   0.770
10421TIP3    H131206   1.088   0.207   0.749
10421TIP3    H231207   0.956   0.134   0.732
10422TIP3   OH231208   4.582   0.560   1.565
10422TIP3    H131209   4.605   0.649   1.539
10422TIP3    H231210   4.654   0.505   1.533
10423TIP3   OH231211   8.129   2.827   4.695
10423TIP3    H131212   8.192   2.889   4.657
10423TIP3    H231213   8.156   2.742   4.662
10424TIP3   OH231214   4.086   6.408   6.119
10424TIP3    H131215   4.004   6.439   6.080
10424TIP3    H231216   4.065   6.323   6.157
10425TIP3   OH231217   4.842   7.196   5.927
10425TIP3    H131218   4.929   7.171   5.958
10425TIP3    H231219   4.800   7.236   6.003
10426TIP3   OH231220   1.881   2.447   1.403
10426TIP3    H131221   1.860   2.373   1.346
10426TIP3    H231222   1.881   2.523   1.345
10427TIP3   OH231223   7.052   1.825   3.971
10427TIP3    H131224   6.989   1.771   4.018
10427TIP3    H231225   7.101   1.872   4.040
10428TIP3   OH231226   3.732   5.737   3.343
10428TIP3    H131227   3.717   5.813   3.287
10428TIP3    H231228   3.729   5.771   3.432
10429TIP3   OH231229   8.220   1.305   2.309
10429TIP3    H131230   8.131   1.274   2.320
10429TIP3    H231231   8.212   1.400   2.304
10430TIP3   OH231232   0.724   4.690   0.296
10430TIP3    H131233   0.674   4.719   0.219
10430TIP3    H231234   0.664   4.633   0.344
10431TIP3   OH231235   2.701   6.632   2.239
10431TIP3    H131236   2.774   6.616   2.179
10431TIP3    H231237   2.648   6.698   2.194
10432TIP3   OH231238   5.080   1.968   2.168
10432TIP3    H131239   5.062   1.940   2.257
10432TIP3    H231240   4.995   1.998   2.135
10433TIP3   OH231241   0.743   1.576   0.399
10433TIP3    H131242   0.837   1.581   0.418
10433TIP3    H231243   0.726   1.650   0.341
10434TIP3   OH231244   5.867   6.796   6.749
10434TIP3    H131245   5.810   6.726   6.716
10434TIP3    H231246   5.832   6.816   6.836
10435TIP3   OH231247   0.534   2.272   6.479
10435TIP3    H131248   0.477   2.324   6.423
10435TIP3    H231249   0.478   2.203   6.515
10436TIP3   OH231250   3.911   2.173   0.007
10436TIP3    H131251   3.961   2.200   0.084
10436TIP3    H231252   3.879   2.255  -0.031
10437TIP3   OH231253   0.622   2.014   3.558
10437TIP3    H131254   0.594   1.979   3.474
10437TIP3    H231255   0.551   2.073   3.584
10438TIP3   OH231256   6.135   3.686   4.047
10438TIP3    H131257   6.217   3.673   4.094
10438TIP3    H231258   6.124   3.781   4.044
10439TIP3   OH231259   7.533   6.171   5.480
10439TIP3    H131260   7.573   6.090   5.511
10439TIP3    H231261   7.607   6.226   5.454
10440TIP3   OH231262   0.684   6.290   6.765
10440TIP3    H131263   0.682   6.217   6.826
10440TIP3    H231264   0.773   6.290   6.729
10441TIP3   OH231265   6.432  -0.037   0.244
10441TIP3    H131266   6.448   0.023   0.171
10441TIP3    H231267   6.349  -0.007   0.281
10442TIP3   OH231268   0.249   3.238   4.196
10442TIP3    H131269   0.243   3.148   4.227
10442TIP3    H231270   0.343   3.258   4.199
10443TIP3   OH231271   6.603   2.952   5.376
10443TIP3    H131272   6.531   2.915   5.427
10443TIP3    H231273   6.569   2.957   5.287
10444TIP3   OH231274   1.041   3.375   5.094
10444TIP3    H131275   0.967   3.317   5.112
10444TIP3    H231276   1.071   3.350   5.007
10445TIP3   OH231277   3.415   5.563   1.652
10445TIP3    H131278   3.478   5.615   1.603
10445TIP3    H231279   3.408   5.606   1.737
10446TIP3   OH231280   4.173   0.617   3.662
10446TIP3    H131281   4.119   0.694   3.680
10446TIP3    H231282   4.147   0.590   3.574
10447TIP3   OH231283   7.146   2.137   1.886
10447TIP3    H131284   7.095   2.119   1.965
10447TIP3    H231285   7.215   2.196   1.916
10448TIP3   OH231286   1.442   1.518   0.207
10448TIP3    H131287   1.516   1.479   0.254
10448TIP3    H231288   1.476   1.538   0.120
10449TIP3   OH231289   0.527   6.425   2.713
10449TIP3    H131290   0.556   6.349   2.662
10449TIP3    H231291   0.539   6.398   2.804
10450TIP3   OH231292   1.214   0.976   4.600
10450TIP3    H131293   1.197   0.974   4.506
10450TIP3    H231294   1.309   0.989   4.606
10451TIP3   OH231295   0.078   0.591   2.995
10451TIP3    H131296   0.121   0.571   2.912
10451TIP3    H231297   0.030   0.511   3.018
10452TIP3   OH231298   7.657   5.597   4.678
10452TIP3    H131299   7.610   5.627   4.599
10452TIP3    H231300   7.680   5.678   4.724
10453TIP3   OH231301   3.182   7.587   3.023
10453TIP3    H131302   3.115   7.649   2.994
10453TIP3    H231303   3.248   7.589   2.955
10454TIP3   OH231304   1.777   0.610   1.500
10454TIP3    H131305   1.812   0.694   1.472
10454TIP3    H231306   1.688   0.629   1.530
10455TIP3   OH231307   0.657   3.084   6.284
10455TIP3    H131308   0.623   3.166   6.247
10455TIP3    H231309   0.579   3.029   6.294
10456TIP3   OH231310   3.556   6.814   3.431
10456TIP3    H131311   3.593   6.736   3.473
10456TIP3    H231312   3.629   6.851   3.381
10457TIP3   OH231313   3.639   3.987   5.657
10457TIP3    H131314   3.672   4.038   5.583
10457TIP3    H231315   3.549   3.965   5.632
10458TIP3   OH231316   3.391   3.264   3.202
10458TIP3    H131317   3.339   3.335   3.239
10458TIP3    H231318   3.471   3.306   3.171
10459TIP3   OH231319   2.221   7.188   5.744
10459TIP3    H131320   2.166   7.211   5.669
10459TIP3    H231321   2.286   7.128   5.709
10460TIP3   OH231322   0.939   0.201   3.420
10460TIP3    H131323   0.921   0.204   3.326
10460TIP3    H231324   0.920   0.111   3.446
10461TIP3   OH231325   3.843   4.969   0.840
10461TIP3    H131326   3.914   4.953   0.778
10461TIP3    H231327   3.887   4.981   0.924
10462TIP3   OH231328   7.768   0.867   6.050
10462TIP3    H131329   7.718   0.928   6.104
10462TIP3    H231330   7.725   0.869   5.965
10463TIP3   OH231331   7.891   0.051   4.699
10463TIP3    H131332   7.822  -0.003   4.739
10463TIP3    H231333   7.843   0.114   4.645
10464TIP3   OH231334   4.039   6.448   1.453
10464TIP3    H131335   4.009   6.507   1.384
10464TIP3    H231336   4.127   6.480   1.475
10465TIP3   OH231337   0.373   1.776   3.528
10465TIP3    H131338   0.388   1.807   3.617
10465TIP3    H231339   0.315   1.700   3.538
10466TIP3   OH231340   4.896   3.739   3.135
10466TIP3    H131341   4.802   3.755   3.146
10466TIP3    H231342   4.939   3.817   3.169
10467TIP3   OH231343   7.878   1.424   0.571
10467TIP3    H131344   7.805   1.378   0.612
10467TIP3    H231345   7.955   1.375   0.597
10468TIP3   OH231346   5.815   3.968   0.763
10468TIP3    H131347   5.907   3.942   0.762
10468TIP3    H231348   5.794   3.988   0.671
10469TIP3   OH231349   5.827   5.122   6.152
10469TIP3    H131350   5.916   5.138   6.123
10469TIP3    H231351   5.789   5.066   6.084
10470TIP3   OH231352   4.699   4.856   0.754
10470TIP3    H131353   4.754   4.787   0.791
10470TIP3    H231354   4.628   4.867   0.818
10471TIP3   OH231355   4.691   4.858   2.541
10471TIP3    H131356   4.626   4.792   2.563
10471TIP3    H231357   4.774   4.810   2.538
10472TIP3   OH231358   0.521   5.168   1.904
10472TIP3    H131359   0.430   5.190   1.884
10472TIP3    H231360   0.517   5.124   1.989
10473TIP3   OH231361   2.231   2.745   5.327
10473TIP3    H131362   2.173   2.676   5.360
10473TIP3    H231363   2.318   2.721   5.359
10474TIP3   OH231364   6.561   4.361   5.911
10474TIP3    H131365   6.492   4.415   5.874
10474TIP3    H231366   6.638   4.418   5.913
10475TIP3   OH231367   3.997   0.171   1.580
10475TIP3    H131368   4.028   0.162   1.490
10475TIP3    H231369   3.936   0.099   1.592
10476TIP3   OH231370   1.911   6.714   6.349
10476TIP3    H131371   1.939   6.625   6.327
10476TIP3    H231372   1.975   6.744   6.413
10477TIP3   OH231373   4.519   3.394   0.902
10477TIP3    H131374   4.458   3.467   0.894
10477TIP3    H231375   4.508   3.344   0.821
10478TIP3   OH231376   5.426   2.707   2.288
10478TIP3    H131377   5.503   2.762   2.300
10478TIP3    H231378   5.444   2.657   2.208
10479TIP3   OH231379   0.903   4.244   3.397
10479TIP3    H131380   0.996   4.226   3.412
10479TIP3    H231381   0.870   4.271   3.482
10480TIP3   OH231382   3.045   4.111   2.175
10480TIP3    H131383   2.954   4.083   2.185
10480TIP3    H231384   3.041   4.179   2.108
10481TIP3   OH231385   0.904   5.914   6.169
10481TIP3    H131386   0.965   5.966   6.222
10481TIP3    H231387   0.842   5.879   6.233
10482TIP3   OH231388   3.015   7.014   5.727
10482TIP3    H131389   2.961   6.951   5.775
10482TIP3    H231390   3.003   7.097   5.775
10483TIP3   OH231391   7.801   1.833   6.404
10483TIP3    H131392   7.842   1.894   6.343
10483TIP3    H231393   7.834   1.747   6.379
10484TIP3   OH231394   4.509   4.818   6.300
10484TIP3    H131395   4.419   4.789   6.286
10484TIP3    H231396   4.520   4.821   6.395
10485TIP3   OH231397   6.573   7.153   2.168
10485TIP3    H131398   6.623   7.126   2.245
10485TIP3    H231399   6.614   7.108   2.095
10486TIP3   OH231400   0.123   5.859   6.547
10486TIP3    H131401   0.198   5.836   6.601
10486TIP3    H231402   0.049   5.860   6.608
10487TIP3   OH231403   0.238   4.707   0.993
10487TIP3    H131404   0.269   4.665   0.913
10487TIP3    H231405   0.210   4.634   1.048
10488TIP3   OH231406   6.316   6.208   3.874
10488TIP3    H131407   6.350   6.212   3.964
10488TIP3    H231408   6.366   6.275   3.827
10489TIP3   OH231409   3.926   6.782   4.443
10489TIP3    H131410   3.907   6.873   4.417
10489TIP3    H231411   3.842   6.747   4.471
10490TIP3   OH231412   3.163   5.184   1.799
10490TIP3    H131413   3.243   5.192   1.851
10490TIP3    H231414   3.120   5.269   1.809
10491TIP3   OH231415   0.971   2.148   0.259
10491TIP3    H131416   0.998   2.181   0.345
10491TIP3    H231417   0.901   2.086   0.278
10492TIP3   OH231418   3.346   2.327   1.061
10492TIP3    H131419   3.262   2.328   1.015
10492TIP3    H231420   3.324   2.303   1.151
10493TIP3   OH231421   5.702   6.950   1.264
10493TIP3    H131422   5.748   7.032   1.244
10493TIP3    H231423   5.731   6.889   1.196
10494TIP3   OH231424   6.060   7.552   2.704
10494TIP3    H131425   6.071   7.639   2.743
10494TIP3    H231426   6.129   7.548   2.638
10495TIP3   OH231427   7.461   5.156   5.221
10495TIP3    H131428   7.387   5.200   5.180
10495TIP3    H231429   7.485   5.087   5.160
10496TIP3   OH231430   6.394   1.050   4.616
10496TIP3    H131431   6.391   0.954   4.620
10496TIP3    H231432   6.307   1.075   4.586
10497TIP3   OH231433   7.571   5.015   4.758
10497TIP3    H131434   7.528   5.088   4.713
10497TIP3    H231435   7.599   4.956   4.688
10498TIP3   OH231436   6.363   7.630   5.193
10498TIP3    H131437   6.320   7.546   5.184
10498TIP3    H231438   6.429   7.616   5.261
10499TIP3   OH231439   2.562   6.184   2.293
10499TIP3    H131440   2.658   6.183   2.292
10499TIP3    H231441   2.539   6.135   2.373
10500TIP3   OH231442   7.522   6.691   2.434
10500TIP3    H131443   7.582   6.623   2.401
10500TIP3    H231444   7.559   6.715   2.519
10501TIP3   OH231445   5.818   2.576   3.125
10501TIP3    H131446   5.886   2.612   3.181
10501TIP3    H231447   5.810   2.638   3.053
10502TIP3   OH231448   1.918   3.897   0.988
10502TIP3    H131449   1.934   3.805   0.971
10502TIP3    H231450   1.827   3.901   1.016
10503TIP3   OH231451   4.714   5.756   3.685
10503TIP3    H131452   4.639   5.815   3.675
10503TIP3    H231453   4.717   5.707   3.602
10504TIP3   OH231454   3.875   2.444   3.128
10504TIP3    H131455   3.794   2.393   3.127
10504TIP3    H231456   3.881   2.479   3.217
10505TIP3   OH231457   5.872   6.593   2.913
10505TIP3    H131458   5.894   6.641   2.993
10505TIP3    H231459   5.783   6.622   2.892
10506TIP3   OH231460   6.868   5.613   3.429
10506TIP3    H131461   6.892   5.662   3.351
10506TIP3    H231462   6.809   5.545   3.396
10507TIP3   OH231463   4.229   2.304   1.831
10507TIP3    H131464   4.322   2.284   1.830
10507TIP3    H231465   4.204   2.302   1.924
10508TIP3   OH231466   3.917   7.499   2.307
10508TIP3    H131467   3.840   7.547   2.276
10508TIP3    H231468   3.991   7.543   2.266
10509TIP3   OH231469   7.977   4.931   2.676
10509TIP3    H131470   7.941   4.982   2.749
10509TIP3    H231471   7.927   4.962   2.600
10510TIP3   OH231472   0.275   0.484   5.413
10510TIP3    H131473   0.229   0.436   5.481
10510TIP3    H231474   0.359   0.508   5.453
10511TIP3   OH231475   3.080   5.853   0.482
10511TIP3    H131476   2.990   5.824   0.499
10511TIP3    H231477   3.071   5.941   0.447
10512TIP3   OH231478   3.323   7.769   3.814
10512TIP3    H131479   3.344   7.686   3.771
10512TIP3    H231480   3.235   7.791   3.783
10513TIP3   OH231481   3.242   4.127   5.381
10513TIP3    H131482   3.154   4.135   5.419
10513TIP3    H231483   3.231   4.148   5.289
10514TIP3   OH231484   2.460   5.212   2.905
10514TIP3    H131485   2.372   5.247   2.895
10514TIP3    H231486   2.513   5.263   2.843
10515TIP3   OH231487   8.281   0.332   4.958
10515TIP3    H131488   8.224   0.409   4.947
10515TIP3    H231489   8.221   0.262   4.984
10516TIP3   OH231490   2.768   4.421   5.170
10516TIP3    H131491   2.786   4.515   5.168
10516TIP3    H231492   2.730   4.402   5.084
10517TIP3   OH231493   0.699   1.069   4.379
10517TIP3    H131494   0.618   1.099   4.338
10517TIP3    H231495   0.705   0.976   4.356
10518TIP3   OH231496   0.128   5.372   2.953
10518TIP3    H131497   0.181   5.336   3.025
10518TIP3    H231498   0.095   5.296   2.907
10519TIP3   OH231499   3.562   1.767   4.388
10519TIP3    H131500   3.639   1.822   4.385
10519TIP3    H231501   3.584   1.691   4.333
10520TIP3   OH231502   0.892   2.892   0.957
10520TIP3    H131503   0.944   2.858   0.885
10520TIP3    H231504   0.904   2.987   0.953
10521TIP3   OH231505   8.140   5.562   3.427
10521TIP3    H131506   8.068   5.499   3.421
10521TIP3    H231507   8.204   5.530   3.363
10522TIP3   OH231508   4.748   4.438   0.363
10522TIP3    H131509   4.726   4.530   0.346
10522TIP3    H231510   4.830   4.424   0.315
10523TIP3   OH231511   2.407   0.058   3.269
10523TIP3    H131512   2.484   0.041   3.324
10523TIP3    H231513   2.444   0.083   3.184
10524TIP3   OH231514   1.846   5.277   5.350
10524TIP3    H131515   1.860   5.368   5.377
10524TIP3    H231516   1.803   5.236   5.426
10525TIP3   OH231517   5.943   3.198   3.997
10525TIP3    H131518   5.893   3.158   4.068
10525TIP3    H231519   5.981   3.276   4.036
10526TIP3   OH231520   0.311   7.046   4.699
10526TIP3    H131521   0.390   7.078   4.655
10526TIP3    H231522   0.339   6.966   4.744
10527TIP3   OH231523   2.435   3.608   5.809
10527TIP3    H131524   2.485   3.528   5.825
10527TIP3    H231525   2.417   3.644   5.896
10528TIP3   OH231526   4.868   1.739   2.823
10528TIP3    H131527   4.936   1.681   2.854
10528TIP3    H231528   4.833   1.781   2.902
10529TIP3   OH231529   6.942   1.076   0.953
10529TIP3    H131530   6.883   1.051   0.883
10529TIP3    H231531   7.023   1.102   0.908
10530TIP3   OH231532   2.288   6.644   3.736
10530TIP3    H131533   2.381   6.667   3.742
10530TIP3    H231534   2.243   6.728   3.731
10531TIP3   OH231535   0.453   0.484   0.710
10531TIP3    H131536   0.378   0.433   0.741
10531TIP3    H231537   0.428   0.513   0.623
10532TIP3   OH231538   4.061   4.570   0.749
10532TIP3    H131539   4.071   4.663   0.771
10532TIP3    H231540   4.117   4.558   0.673
10533TIP3   OH231541   0.848   1.273   0.693
10533TIP3    H131542   0.800   1.291   0.612
10533TIP3    H231543   0.934   1.313   0.680
10534TIP3   OH231544   8.060   4.249   5.527
10534TIP3    H131545   7.994   4.215   5.467
10534TIP3    H231546   8.051   4.196   5.606
10535TIP3   OH231547   6.402   7.461   0.948
10535TIP3    H131548   6.457   7.389   0.980
10535TIP3    H231549   6.422   7.534   1.006
10536TIP3   OH231550   0.424   4.118   1.658
10536TIP3    H131551   0.502   4.153   1.615
10536TIP3    H231552   0.429   4.023   1.642
10537TIP3   OH231553   1.020   0.500   0.714
10537TIP3    H131554   1.087   0.468   0.654
10537TIP3    H231555   0.987   0.422   0.757
10538TIP3   OH231556   4.322   3.822   2.578
10538TIP3    H131557   4.294   3.874   2.653
10538TIP3    H231558   4.385   3.759   2.615
10539TIP3   OH231559   2.882   7.803   6.617
10539TIP3    H131560   2.833   7.721   6.609
10539TIP3    H231561   2.932   7.809   6.535
10540TIP3   OH231562   5.414   7.267   3.943
10540TIP3    H131563   5.396   7.187   3.895
10540TIP3    H231564   5.407   7.336   3.877
10541TIP3   OH231565   6.830   6.907   4.295
10541TIP3    H131566   6.905   6.926   4.351
10541TIP3    H231567   6.849   6.952   4.213
10542TIP3   OH231568   5.919   5.661   3.192
10542TIP3    H131569   5.887   5.742   3.232
10542TIP3    H231570   5.943   5.686   3.103
10543TIP3   OH231571   1.695   2.012   5.374
10543TIP3    H131572   1.654   2.064   5.443
10543TIP3    H231573   1.660   2.048   5.293
10544TIP3   OH231574   0.038   4.526   5.030
10544TIP3    H131575  -0.034   4.492   5.081
10544TIP3    H231576   0.086   4.449   5.000
10545TIP3   OH231577   1.194   4.347   2.034
10545TIP3    H131578   1.213   4.392   2.116
10545TIP3    H231579   1.200   4.254   2.055
10546TIP3   OH231580   3.436   3.430   0.544
10546TIP3    H131581   3.426   3.459   0.453
10546TIP3    H231582   3.531   3.435   0.560
10547TIP3   OH231583   6.334   0.254   1.178
10547TIP3    H131584   6.348   0.253   1.083
10547TIP3    H231585   6.333   0.162   1.203
10548TIP3   OH231586   3.339   7.517   6.321
10548TIP3    H131587   3.257   7.566   6.332
10548TIP3    H231588   3.311   7.429   6.299
10549TIP3   OH231589   5.240   6.298   0.083
10549TIP3    H131590   5.305   6.307   0.153
10549TIP3    H231591   5.247   6.207   0.055
10550TIP3   OH231592   7.816   0.089   2.077
10550TIP3    H131593   7.788   0.023   2.013
10550TIP3    H231594   7.863   0.154   2.024
10551TIP3   OH231595   1.269   4.253   0.164
10551TIP3    H131596   1.192   4.204   0.135
10551TIP3    H231597   1.285   4.223   0.253
10552TIP3   OH231598   6.148   4.458   2.734
10552TIP3    H131599   6.094   4.498   2.665
10552TIP3    H231600   6.221   4.419   2.686
10553TIP3   OH231601   7.028   7.470   5.448
10553TIP3    H131602   6.972   7.495   5.374
10553TIP3    H231603   7.037   7.375   5.440
10554TIP3   OH231604   6.632   6.131   6.486
10554TIP3    H131605   6.556   6.100   6.537
10554TIP3    H231606   6.663   6.207   6.535
10555TIP3   OH231607   7.416   6.308   4.828
10555TIP3    H131608   7.345   6.249   4.802
10555TIP3    H231609   7.421   6.372   4.758
10556TIP3   OH231610   2.214   7.184   3.351
10556TIP3    H131611   2.287   7.177   3.290
10556TIP3    H231612   2.193   7.278   3.352
10557TIP3   OH231613   0.233   4.534   3.169
10557TIP3    H131614   0.198   4.451   3.202
10557TIP3    H231615   0.317   4.544   3.214
10558TIP3   OH231616   4.387   0.464   0.100
10558TIP3    H131617   4.422   0.546   0.134
10558TIP3    H231618   4.386   0.405   0.175
10559TIP3   OH231619   7.988   3.015   3.511
10559TIP3    H131620   7.922   3.065   3.464
10559TIP3    H231621   8.067   3.023   3.458
10560TIP3   OH231622   5.309   7.366   1.048
10560TIP3    H131623   5.259   7.313   1.110
10560TIP3    H231624   5.395   7.376   1.089
10561TIP3   OH231625   7.222   6.427   2.820
10561TIP3    H131626   7.306   6.427   2.773
10561TIP3    H231627   7.231   6.358   2.885
10562TIP3   OH231628   7.637   1.003   4.899
10562TIP3    H131629   7.647   1.082   4.952
10562TIP3    H231630   7.671   0.933   4.955
10563TIP3   OH231631   0.775   0.860   5.537
10563TIP3    H131632   0.750   0.855   5.630
10563TIP3    H231633   0.860   0.814   5.533
10564TIP3   OH231634   7.682   4.017   4.171
10564TIP3    H131635   7.672   3.991   4.263
10564TIP3    H231636   7.763   4.067   4.169
10565TIP3   OH231637   7.173   2.372   3.779
10565TIP3    H131638   7.263   2.360   3.808
10565TIP3    H231639   7.173   2.342   3.688
10566TIP3   OH231640   7.465   7.061   3.042
10566TIP3    H131641   7.479   7.134   2.982
10566TIP3    H231642   7.503   6.985   2.998
10567TIP3   OH231643   0.252   3.602   5.966
10567TIP3    H131644   0.262   3.518   5.922
10567TIP3    H231645   0.238   3.579   6.058
10568TIP3   OH231646   7.945   6.508   4.815
10568TIP3    H131647   7.869   6.551   4.776
10568TIP3    H231648   7.909   6.451   4.882
10569TIP3   OH231649   2.893   3.747   6.131
10569TIP3    H131650   2.871   3.814   6.197
10569TIP3    H231651   2.972   3.780   6.090
10570TIP3   OH231652   7.989   1.816   2.719
10570TIP3    H131653   7.895   1.814   2.702
10570TIP3    H231654   8.027   1.854   2.640
10571TIP3   OH231655   1.347   0.273   4.827
10571TIP3    H131656   1.286   0.282   4.753
10571TIP3    H231657   1.297   0.224   4.893
10572TIP3   OH231658   6.964   4.318   2.256
10572TIP3    H131659   6.970   4.353   2.167
10572TIP3    H231660   6.920   4.233   2.245
10573TIP3   OH231661   0.586   1.379   4.258
10573TIP3    H131662   0.580   1.445   4.327
10573TIP3    H231663   0.535   1.415   4.186
10574TIP3   OH231664   8.174   2.361   0.179
10574TIP3    H131665   8.215   2.308   0.111
10574TIP3    H231666   8.122   2.426   0.132
10575TIP3   OH231667   4.481   4.258   4.435
10575TIP3    H131668   4.559   4.274   4.381
10575TIP3    H231669   4.495   4.310   4.514
10576TIP3   OH231670   5.881   7.230   1.989
10576TIP3    H131671   5.890   7.135   1.980
10576TIP3    H231672   5.805   7.241   2.047
10577TIP3   OH231673   0.284   5.686   6.734
10577TIP3    H131674   0.361   5.740   6.716
10577TIP3    H231675   0.319   5.601   6.758
10578TIP3   OH231676   6.518   3.485   0.934
10578TIP3    H131677   6.470   3.435   0.868
10578TIP3    H231678   6.482   3.456   1.017
10579TIP3   OH231679   0.045   2.961   2.395
10579TIP3    H131680  -0.017   3.024   2.357
10579TIP3    H231681   0.000   2.929   2.474
10580TIP3   OH231682   4.934   3.101   4.296
10580TIP3    H131683   4.970   3.085   4.209
10580TIP3    H231684   4.875   3.027   4.312
10581TIP3   OH231685   3.253   0.975   3.913
10581TIP3    H131686   3.189   0.978   3.983
10581TIP3    H231687   3.337   0.995   3.956
10582TIP3   OH231688   7.365   0.705   2.399
10582TIP3    H131689   7.313   0.702   2.480
10582TIP3    H231690   7.382   0.613   2.379
10583TIP3   OH231691   7.843   1.494   2.934
10583TIP3    H131692   7.865   1.411   2.891
10583TIP3    H231693   7.814   1.551   2.862
10584TIP3   OH231694   0.300   6.777   4.368
10584TIP3    H131695   0.219   6.797   4.319
10584TIP3    H231696   0.270   6.754   4.455
10585TIP3   OH231697   6.025   4.507   0.786
10585TIP3    H131698   6.119   4.504   0.803
10585TIP3    H231699   5.986   4.461   0.860
10586TIP3   OH231700   3.842   7.307   3.098
10586TIP3    H131701   3.876   7.351   3.176
10586TIP3    H231702   3.884   7.222   3.098
10587TIP3   OH231703   2.311   7.344   0.192
10587TIP3    H131704   2.278   7.269   0.241
10587TIP3    H231705   2.396   7.363   0.230
10588TIP3   OH231706   0.740   3.337   6.080
10588TIP3    H131707   0.786   3.297   6.006
10588TIP3    H231708   0.790   3.309   6.157
10589TIP3   OH231709   1.206   4.800   2.619
10589TIP3    H131710   1.145   4.764   2.683
10589TIP3    H231711   1.293   4.782   2.656
10590TIP3   OH231712   7.248   4.014   3.796
10590TIP3    H131713   7.191   4.090   3.791
10590TIP3    H231714   7.335   4.050   3.816
10591TIP3   OH231715   1.595   7.616   1.134
10591TIP3    H131716   1.593   7.664   1.052
10591TIP3    H231717   1.589   7.683   1.202
10592TIP3   OH231718   1.766   5.821   0.876
10592TIP3    H131719   1.702   5.883   0.908
10592TIP3    H231720   1.826   5.808   0.949
10593TIP3   OH231721   0.034   0.206   3.592
10593TIP3    H131722   0.104   0.254   3.548
10593TIP3    H231723   0.055   0.212   3.685
10594TIP3   OH231724   3.716   1.045   5.254
10594TIP3    H131725   3.685   1.057   5.344
10594TIP3    H231726   3.800   0.999   5.263
10595TIP3   OH231727   3.509   7.610   2.893
10595TIP3    H131728   3.492   7.516   2.896
10595TIP3    H231729   3.585   7.623   2.950
10596TIP3   OH231730   4.490   6.314   6.697
10596TIP3    H131731   4.475   6.358   6.614
10596TIP3    H231732   4.523   6.383   6.755
10597TIP3   OH231733   0.799   4.454   2.084
10597TIP3    H131734   0.735   4.505   2.035
10597TIP3    H231735   0.769   4.363   2.074
10598TIP3   OH231736   3.629   0.709   4.371
10598TIP3    H131737   3.693   0.647   4.409
10598TIP3    H231738   3.679   0.756   4.305
10599TIP3   OH231739   2.975   2.883   3.933
10599TIP3    H131740   3.064   2.868   3.901
10599TIP3    H231741   2.979   2.862   4.027
10600TIP3   OH231742   4.929   2.076   1.948
10600TIP3    H131743   4.958   2.157   1.990
10600TIP3    H231744   5.004   2.047   1.896
10601TIP3   OH231745   3.915   5.046   1.102
10601TIP3    H131746   3.851   5.035   1.173
10601TIP3    H231747   3.898   5.133   1.068
10602TIP3   OH231748   3.811   0.135   6.330
10602TIP3    H131749   3.859   0.067   6.283
10602TIP3    H231750   3.853   0.138   6.416
10603TIP3   OH231751   3.017   2.787   4.204
10603TIP3    H131752   2.973   2.734   4.271
10603TIP3    H231753   3.109   2.760   4.209
10604TIP3   OH231754   6.187   5.197   4.723
10604TIP3    H131755   6.221   5.120   4.676
10604TIP3    H231756   6.094   5.200   4.701
10605TIP3   OH231757   8.094   5.708   5.714
10605TIP3    H131758   8.044   5.789   5.724
10605TIP3    H231759   8.180   5.728   5.753
10606TIP3   OH231760   2.914   4.541   4.064
10606TIP3    H131761   2.912   4.594   4.144
10606TIP3    H231762   3.001   4.557   4.027
10607TIP3   OH231763   1.083   0.809   6.498
10607TIP3    H131764   1.140   0.828   6.572
10607TIP3    H231765   1.004   0.861   6.515
10608TIP3   OH231766   2.861   5.648   5.554
10608TIP3    H131767   2.921   5.574   5.539
10608TIP3    H231768   2.827   5.669   5.467
10609TIP3   OH231769   1.067   7.170   0.919
10609TIP3    H131770   0.986   7.183   0.968
10609TIP3    H231771   1.092   7.079   0.935
10610TIP3   OH231772   0.585   4.627   2.629
10610TIP3    H131773   0.568   4.712   2.589
10610TIP3    H231774   0.538   4.565   2.573
10611TIP3   OH231775   7.077   2.299   5.614
10611TIP3    H131776   7.144   2.258   5.667
10611TIP3    H231777   7.102   2.392   5.611
10612TIP3   OH231778   0.675   7.490   4.016
10612TIP3    H131779   0.707   7.504   4.105
10612TIP3    H231780   0.754   7.486   3.962
10613TIP3   OH231781   4.582   4.448   6.203
10613TIP3    H131782   4.507   4.423   6.148
10613TIP3    H231783   4.633   4.508   6.147
10614TIP3   OH231784   5.135   6.059   5.019
10614TIP3    H131785   5.215   6.007   5.010
10614TIP3    H231786   5.126   6.072   5.114
10615TIP3   OH231787   5.102   7.631   4.312
10615TIP3    H131788   5.124   7.689   4.239
10615TIP3    H231789   5.186   7.594   4.339
10616TIP3   OH231790   3.482   7.563   0.870
10616TIP3    H131791   3.399   7.595   0.907
10616TIP3    H231792   3.546   7.577   0.940
10617TIP3   OH231793   0.749   7.498   4.274
10617TIP3    H131794   0.722   7.425   4.330
10617TIP3    H231795   0.774   7.567   4.335
10618TIP3   OH231796   1.742   3.788   0.377
10618TIP3    H131797   1.721   3.724   0.445
10618TIP3    H231798   1.830   3.819   0.400
10619TIP3   OH231799   7.670   1.250   2.507
10619TIP3    H131800   7.680   1.313   2.436
10619TIP3    H231801   7.633   1.300   2.579
10620TIP3   OH231802   1.631   6.393   4.040
10620TIP3    H131803   1.654   6.349   3.958
10620TIP3    H231804   1.688   6.470   4.042
10621TIP3   OH231805   1.145   2.276   3.466
10621TIP3    H131806   1.218   2.237   3.514
10621TIP3    H231807   1.084   2.204   3.450
10622TIP3   OH231808   6.895   7.026   5.571
10622TIP3    H131809   6.820   7.075   5.539
10622TIP3    H231810   6.931   6.984   5.494
10623TIP3   OH231811   4.961   6.832   2.458
10623TIP3    H131812   4.873   6.798   2.441
10623TIP3    H231813   5.007   6.760   2.500
10624TIP3   OH231814   5.696   7.258   2.201
10624TIP3    H131815   5.601   7.247   2.197
10624TIP3    H231816   5.719   7.237   2.291
10625TIP3   OH231817   0.705   7.362   4.514
10625TIP3    H131818   0.765   7.429   4.545
10625TIP3    H231819   0.622   7.380   4.558
10626TIP3   OH231820   5.417   7.726   4.273
10626TIP3    H131821   5.405   7.812   4.314
10626TIP3    H231822   5.401   7.664   4.344
10627TIP3   OH231823   2.226   4.489   3.500
10627TIP3    H131824   2.226   4.422   3.569
10627TIP3    H231825   2.134   4.514   3.491
10628TIP3   OH231826   5.262   5.707   3.942
10628TIP3    H131827   5.355   5.715   3.964
10628TIP3    H231828   5.228   5.795   3.949
10629TIP3   OH231829   8.068   6.719   4.137
10629TIP3    H131830   8.091   6.810   4.115
10629TIP3    H231831   8.089   6.711   4.230
10630TIP3   OH231832   4.451   2.316   0.440
10630TIP3    H131833   4.396   2.373   0.386
10630TIP3    H231834   4.402   2.234   0.446
10631TIP3   OH231835   7.264   6.983   2.804
10631TIP3    H131836   7.338   6.922   2.807
10631TIP3    H231837   7.189   6.932   2.836
10632TIP3   OH231838   1.660   5.561   2.848
10632TIP3    H131839   1.745   5.536   2.885
10632TIP3    H231840   1.648   5.501   2.775
10633TIP3   OH231841   2.922   4.296   6.172
10633TIP3    H131842   2.956   4.379   6.137
10633TIP3    H231843   2.861   4.322   6.241
10634TIP3   OH231844   2.048   4.406   5.343
10634TIP3    H131845   2.108   4.461   5.294
10634TIP3    H231846   1.994   4.363   5.277
10635TIP3   OH231847   6.011   6.610   4.324
10635TIP3    H131848   5.940   6.672   4.308
10635TIP3    H231849   6.068   6.654   4.387
10636TIP3   OH231850   6.266  -0.022   1.547
10636TIP3    H131851   6.228   0.060   1.578
10636TIP3    H231852   6.311   0.001   1.466
10637TIP3   OH231853   4.511   2.767   4.214
10637TIP3    H131854   4.470   2.686   4.183
10637TIP3    H231855   4.554   2.802   4.136
10638TIP3   OH231856   2.577   5.739   0.880
10638TIP3    H131857   2.544   5.807   0.820
10638TIP3    H231858   2.622   5.788   0.949
10639TIP3   OH231859   2.787   2.835   1.778
10639TIP3    H131860   2.776   2.879   1.694
10639TIP3    H231861   2.851   2.889   1.825
10640TIP3   OH231862   5.628   0.757   5.793
10640TIP3    H131863   5.639   0.686   5.855
10640TIP3    H231864   5.616   0.835   5.847
10641TIP3   OH231865   7.225   2.004   6.064
10641TIP3    H131866   7.137   1.969   6.051
10641TIP3    H231867   7.243   2.053   5.983
10642TIP3   OH231868   3.208   1.312   0.185
10642TIP3    H131869   3.248   1.225   0.191
10642TIP3    H231870   3.134   1.308   0.245
10643TIP3   OH231871   2.480   6.847   6.517
10643TIP3    H131872   2.445   6.779   6.575
10643TIP3    H231873   2.443   6.929   6.551
10644TIP3   OH231874   3.089   3.597   1.879
10644TIP3    H131875   3.069   3.632   1.792
10644TIP3    H231876   3.135   3.515   1.862
10645TIP3   OH231877   1.259   0.816   5.231
10645TIP3    H131878   1.212   0.778   5.305
10645TIP3    H231879   1.190   0.857   5.178
10646TIP3   OH231880   2.654   5.427   0.658
10646TIP3    H131881   2.568   5.450   0.623
10646TIP3    H231882   2.637   5.354   0.718
10647TIP3   OH231883   3.123   1.463   2.337
10647TIP3    H131884   3.205   1.443   2.290
10647TIP3    H231885   3.083   1.534   2.287
10648TIP3   OH231886   8.250   3.803   5.038
10648TIP3    H131887   8.243   3.712   5.065
10648TIP3    H231888   8.191   3.851   5.096
10649TIP3   OH231889   2.135   2.887   5.602
10649TIP3    H131890   2.169   2.899   5.513
10649TIP3    H231891   2.082   2.807   5.597
10650TIP3   OH231892   7.868   0.746   6.477
10650TIP3    H131893   7.877   0.715   6.387
10650TIP3    H231894   7.859   0.841   6.468
10651TIP3   OH231895   0.883   3.178   5.153
10651TIP3    H131896   0.848   3.139   5.073
10651TIP3    H231897   0.902   3.104   5.210
10652TIP3   OH231898   4.936   1.225   2.210
10652TIP3    H131899   4.990   1.219   2.288
10652TIP3    H231900   4.998   1.223   2.137
10653TIP3   OH231901   0.526   0.689   1.596
10653TIP3    H131902   0.608   0.718   1.557
10653TIP3    H231903   0.495   0.620   1.538
10654TIP3   OH231904   7.023   4.327   0.352
10654TIP3    H131905   6.964   4.294   0.420
10654TIP3    H231906   7.111   4.304   0.382
10655TIP3   OH231907   3.234   3.329   1.828
10655TIP3    H131908   3.192   3.243   1.828
10655TIP3    H231909   3.305   3.320   1.893
10656TIP3   OH231910   7.026   3.217   0.421
10656TIP3    H131911   6.985   3.204   0.336
10656TIP3    H231912   7.060   3.307   0.417
10657TIP3   OH231913   8.268   5.673   5.435
10657TIP3    H131914   8.324   5.653   5.510
10657TIP3    H231915   8.217   5.593   5.421
10658TIP3   OH231916   0.339   2.843   5.686
10658TIP3    H131917   0.265   2.835   5.746
10658TIP3    H231918   0.412   2.799   5.731
10659TIP3   OH231919   4.887   1.570   4.699
10659TIP3    H131920   4.896   1.665   4.687
10659TIP3    H231921   4.875   1.558   4.793
10660TIP3   OH231922   8.061   5.489   0.381
10660TIP3    H131923   8.058   5.398   0.353
10660TIP3    H231924   8.113   5.487   0.462
10661TIP3   OH231925   7.408   5.065   2.097
10661TIP3    H131926   7.371   5.064   2.008
10661TIP3    H231927   7.421   4.973   2.118
10662TIP3   OH231928   3.367   6.169   4.037
10662TIP3    H131929   3.358   6.153   4.131
10662TIP3    H231930   3.315   6.101   3.996
10663TIP3   OH231931   3.342   7.674   5.250
10663TIP3    H131932   3.292   7.755   5.239
10663TIP3    H231933   3.377   7.679   5.339
10664TIP3   OH231934   3.427   3.861   6.580
10664TIP3    H131935   3.410   3.785   6.526
10664TIP3    H231936   3.510   3.840   6.624
10665TIP3   OH231937   6.414   6.228   5.613
10665TIP3    H131938   6.385   6.173   5.686
10665TIP3    H231939   6.450   6.167   5.549
10666TIP3   OH231940   1.919   5.584   0.059
10666TIP3    H131941   1.870   5.627  -0.011
10666TIP3    H231942   1.999   5.553   0.017
10667TIP3   OH231943   5.129   5.631   6.315
10667TIP3    H131944   5.151   5.546   6.277
10667TIP3    H231945   5.210   5.682   6.309
10668TIP3   OH231946   3.566   6.779   0.996
10668TIP3    H131947   3.637   6.782   1.060
10668TIP3    H231948   3.581   6.698   0.947
10669TIP3   OH231949   6.985   0.595   4.294
10669TIP3    H131950   6.945   0.571   4.210
10669TIP3    H231951   6.919   0.650   4.337
10670TIP3   OH231952   6.285   5.719   5.173
10670TIP3    H131953   6.211   5.661   5.189
10670TIP3    H231954   6.351   5.692   5.236
10671TIP3   OH231955   0.063   0.652   1.679
10671TIP3    H131956   0.137   0.646   1.619
10671TIP3    H231957  -0.013   0.630   1.625
10672TIP3   OH231958   6.622   3.849   1.962
10672TIP3    H131959   6.570   3.810   1.892
10672TIP3    H231960   6.561   3.854   2.036
10673TIP3   OH231961   0.750   0.675   2.530
10673TIP3    H131962   0.676   0.735   2.523
10673TIP3    H231963   0.817   0.725   2.577
10674TIP3   OH231964   7.338   4.949   0.764
10674TIP3    H131965   7.385   4.999   0.697
10674TIP3    H231966   7.348   4.858   0.737
10675TIP3   OH231967   3.174   4.136   2.868
10675TIP3    H131968   3.081   4.124   2.845
10675TIP3    H231969   3.220   4.127   2.784
10676TIP3   OH231970   6.313   3.905   3.455
10676TIP3    H131971   6.344   3.815   3.461
10676TIP3    H231972   6.378   3.956   3.502
10677TIP3   OH231973   7.924   1.672   0.417
10677TIP3    H131974   7.999   1.689   0.474
10677TIP3    H231975   7.870   1.611   0.467
10678TIP3   OH231976   6.696   2.994   6.570
10678TIP3    H131977   6.686   2.903   6.600
10678TIP3    H231978   6.678   2.990   6.476
10679TIP3   OH231979   3.573   1.618   6.670
10679TIP3    H131980   3.533   1.534   6.648
10679TIP3    H231981   3.559   1.628   6.764
10680TIP3   OH231982   5.365   3.205   5.276
10680TIP3    H131983   5.396   3.114   5.278
10680TIP3    H231984   5.362   3.231   5.368
10681TIP3   OH231985   7.057   1.259   6.501
10681TIP3    H131986   7.115   1.302   6.438
10681TIP3    H231987   7.091   1.170   6.508
10682TIP3   OH231988   6.683   1.058   2.591
10682TIP3    H131989   6.741   1.076   2.517
10682TIP3    H231990   6.741   1.044   2.665
10683TIP3   OH231991   1.148   3.673   1.949
10683TIP3    H131992   1.216   3.675   1.882
10683TIP3    H231993   1.074   3.628   1.906
10684TIP3   OH231994   6.112   3.880   2.112
10684TIP3    H131995   6.033   3.893   2.060
10684TIP3    H231996   6.081   3.864   2.201
10685TIP3   OH231997   5.484   3.839   1.054
10685TIP3    H131998   5.435   3.904   1.105
10685TIP3    H231999   5.438   3.835   0.970
10686TIP3   OH232000   5.082   5.960   5.311
10686TIP3    H132001   5.073   6.051   5.283
10686TIP3    H232002   5.159   5.959   5.368
10687TIP3   OH232003   7.503   5.852   2.511
10687TIP3    H132004   7.550   5.880   2.433
10687TIP3    H232005   7.496   5.757   2.502
10688TIP3   OH232006   0.921   6.546   3.200
10688TIP3    H132007   0.959   6.588   3.277
10688TIP3    H232008   0.843   6.503   3.232
10689TIP3   OH232009   6.268   0.199   3.735
10689TIP3    H132010   6.188   0.146   3.741
10689TIP3    H232011   6.249   0.263   3.667
10690TIP3   OH232012   0.380   0.287   0.151
10690TIP3    H132013   0.394   0.242   0.068
10690TIP3    H232014   0.442   0.359   0.151
10691TIP3   OH232015   2.161   2.055   5.322
10691TIP3    H132016   2.127   1.965   5.323
10691TIP3    H232017   2.227   2.056   5.391
10692TIP3   OH232018   0.463   7.542   3.451
10692TIP3    H132019   0.516   7.562   3.374
10692TIP3    H232020   0.507   7.466   3.491
10693TIP3   OH232021   2.633   7.814   2.895
10693TIP3    H132022   2.656   7.725   2.919
10693TIP3    H232023   2.683   7.831   2.815
10694TIP3   OH232024   6.543   7.368   0.578
10694TIP3    H132025   6.518   7.460   0.586
10694TIP3    H232026   6.527   7.331   0.664
10695TIP3   OH232027   3.885   3.640   5.884
10695TIP3    H132028   3.967   3.645   5.835
10695TIP3    H232029   3.846   3.728   5.875
10696TIP3   OH232030   2.725   1.833   6.109
10696TIP3    H132031   2.779   1.757   6.129
10696TIP3    H232032   2.710   1.875   6.194
10697TIP3   OH232033   5.712   6.908   2.869
10697TIP3    H132034   5.694   7.001   2.855
10697TIP3    H232035   5.808   6.902   2.871
10698TIP3   OH232036   0.168   2.890   1.214
10698TIP3    H132037   0.232   2.855   1.276
10698TIP3    H232038   0.116   2.952   1.265
10699TIP3   OH232039   7.449   4.269   4.421
10699TIP3    H132040   7.424   4.184   4.458
10699TIP3    H232041   7.466   4.324   4.497
10700TIP3   OH232042   5.935   3.455   4.074
10700TIP3    H132043   5.912   3.461   4.166
10700TIP3    H232044   6.025   3.487   4.069
10701TIP3   OH232045   7.567   1.179   5.105
10701TIP3    H132046   7.477   1.191   5.138
10701TIP3    H232047   7.604   1.267   5.106
10702TIP3   OH232048   1.397   5.144   0.292
10702TIP3    H132049   1.435   5.106   0.213
10702TIP3    H232050   1.432   5.091   0.364
10703TIP3   OH232051   3.338   6.367   2.900
10703TIP3    H132052   3.302   6.279   2.914
10703TIP3    H232053   3.299   6.397   2.818
10704TIP3   OH232054   2.546   4.748   2.740
10704TIP3    H132055   2.461   4.735   2.698
10704TIP3    H232056   2.532   4.718   2.830
10705TIP3   OH232057  -0.045   6.032   3.526
10705TIP3    H132058  -0.070   5.949   3.566
10705TIP3    H232059   0.051   6.036   3.536
10706TIP3   OH232060   8.080   1.957   2.304
10706TIP3    H132061   8.168   1.973   2.269
10706TIP3    H232062   8.021   1.991   2.237
10707TIP3   OH232063   0.875   3.289   5.847
10707TIP3    H132064   0.893   3.360   5.785
10707TIP3    H232065   0.961   3.268   5.884
10708TIP3   OH232066   6.407   4.270   2.779
10708TIP3    H132067   6.401   4.303   2.689
10708TIP3    H232068   6.368   4.338   2.833
10709TIP3   OH232069   3.757   4.365   3.937
10709TIP3    H132070   3.691   4.331   3.998
10709TIP3    H232071   3.724   4.451   3.912
10710TIP3   OH232072   4.652   6.134   0.271
10710TIP3    H132073   4.666   6.060   0.213
10710TIP3    H232074   4.683   6.103   0.357
10711TIP3   OH232075   2.137   3.292   2.618
10711TIP3    H132076   2.132   3.233   2.693
10711TIP3    H232077   2.170   3.237   2.546
10712TIP3   OH232078   6.895   4.709   4.680
10712TIP3    H132079   6.979   4.667   4.699
10712TIP3    H232080   6.836   4.637   4.661
10713TIP3   OH232081   7.521   5.742   5.908
10713TIP3    H132082   7.609   5.776   5.924
10713TIP3    H232083   7.478   5.747   5.993
10714TIP3   OH232084   0.376   5.575   1.953
10714TIP3    H132085   0.415   5.607   2.034
10714TIP3    H232086   0.300   5.524   1.981
10715TIP3   OH232087   3.478   3.942   0.827
10715TIP3    H132088   3.458   3.883   0.754
10715TIP3    H232089   3.508   3.885   0.897
10716TIP3   OH232090   7.333   7.565   3.442
10716TIP3    H132091   7.345   7.632   3.374
10716TIP3    H232092   7.245   7.580   3.475
10717TIP3   OH232093   1.513   7.566   6.618
10717TIP3    H132094   1.590   7.619   6.600
10717TIP3    H232095   1.514   7.554   6.713
10718TIP3   OH232096   0.039   0.505   0.692
10718TIP3    H132097   0.067   0.449   0.765
10718TIP3    H232098   0.051   0.450   0.614
10719TIP3   OH232099   1.513   3.650   5.311
10719TIP3    H132100   1.581   3.687   5.367
10719TIP3    H232101   1.530   3.688   5.225
10720TIP3   OH232102   3.570   5.336   1.704
10720TIP3    H132103   3.527   5.422   1.705
10720TIP3    H232104   3.600   5.324   1.794
10721TIP3   OH232105   3.107   6.571   1.739
10721TIP3    H132106   3.193   6.613   1.747
10721TIP3    H232107   3.076   6.560   1.829
10722TIP3   OH232108   7.730   4.761   2.613
10722TIP3    H132109   7.783   4.836   2.641
10722TIP3    H232110   7.777   4.726   2.537
10723TIP3   OH232111   8.024   2.341   1.072
10723TIP3    H132112   7.993   2.431   1.063
10723TIP3    H232113   8.052   2.334   1.163
10724TIP3   OH232114   2.517   2.867   1.817
10724TIP3    H132115   2.613   2.858   1.813
10724TIP3    H232116   2.486   2.821   1.739
10725TIP3   OH232117   5.981   0.827   1.478
10725TIP3    H132118   6.071   0.839   1.447
10725TIP3    H232119   5.984   0.856   1.570
10726TIP3   OH232120   3.775   6.353   5.420
10726TIP3    H132121   3.776   6.423   5.355
10726TIP3    H232122   3.764   6.398   5.504
10727TIP3   OH232123   4.776   2.896   4.390
10727TIP3    H132124   4.705   2.953   4.421
10727TIP3    H232125   4.737   2.808   4.389
10728TIP3   OH232126   0.777   3.827   5.749
10728TIP3    H132127   0.826   3.903   5.782
10728TIP3    H232128   0.704   3.817   5.810
10729TIP3   OH232129   5.346   6.223   2.008
10729TIP3    H132130   5.305   6.305   1.982
10729TIP3    H232131   5.416   6.249   2.068
10730TIP3   OH232132   3.140   7.335   3.667
10730TIP3    H132133   3.103   7.249   3.646
10730TIP3    H232134   3.088   7.397   3.616
10731TIP3   OH232135   2.053   1.476   2.936
10731TIP3    H132136   2.066   1.397   2.988
10731TIP3    H232137   2.140   1.515   2.929
10732TIP3   OH232138   7.349   6.347   0.748
10732TIP3    H132139   7.327   6.263   0.710
10732TIP3    H232140   7.322   6.412   0.683
10733TIP3   OH232141   1.531   5.425   5.207
10733TIP3    H132142   1.574   5.451   5.288
10733TIP3    H232143   1.522   5.330   5.214
10734TIP3   OH232144   0.949   1.454   1.168
10734TIP3    H132145   0.916   1.451   1.078
10734TIP3    H232146   0.967   1.547   1.184
10735TIP3   OH232147   7.726   3.787   1.813
10735TIP3    H132148   7.705   3.858   1.874
10735TIP3    H232149   7.775   3.724   1.866
10736TIP3   OH232150   7.410   0.345   6.464
10736TIP3    H132151   7.345   0.310   6.525
10736TIP3    H232152   7.479   0.278   6.460
10737TIP3   OH232153   3.394   6.394   1.000
10737TIP3    H132154   3.381   6.322   0.939
10737TIP3    H232155   3.468   6.443   0.964
10738TIP3   OH232156   7.475   7.452   2.658
10738TIP3    H132157   7.393   7.499   2.671
10738TIP3    H232158   7.536   7.518   2.624
10739TIP3   OH232159   6.758   2.076   2.131
10739TIP3    H132160   6.720   2.131   2.062
10739TIP3    H232161   6.837   2.123   2.159
10740TIP3   OH232162   0.304   4.781   3.671
10740TIP3    H132163   0.398   4.801   3.668
10740TIP3    H232164   0.271   4.811   3.586
10741TIP3   OH232165   6.931   1.746   4.951
10741TIP3    H132166   6.878   1.670   4.927
10741TIP3    H232167   6.938   1.741   5.046
10742TIP3   OH232168   3.206   6.488   0.312
10742TIP3    H132169   3.129   6.467   0.259
10742TIP3    H232170   3.249   6.559   0.265
10743TIP3   OH232171   5.372   1.017   3.122
10743TIP3    H132172   5.385   0.953   3.192
10743TIP3    H232173   5.459   1.050   3.103
10744TIP3   OH232174   3.330   4.873   5.061
10744TIP3    H132175   3.313   4.801   5.121
10744TIP3    H232176   3.414   4.852   5.021
10745TIP3   OH232177   6.086   0.709   4.543
10745TIP3    H132178   6.020   0.777   4.531
10745TIP3    H232179   6.070   0.648   4.471
10746TIP3   OH232180   1.805   0.675   3.621
10746TIP3    H132181   1.761   0.708   3.543
10746TIP3    H232182   1.898   0.675   3.599
10747TIP3   OH232183   5.313   2.523   6.743
10747TIP3    H132184   5.231   2.496   6.703
10747TIP3    H232185   5.310   2.485   6.831
10748TIP3   OH232186   0.569   2.265   1.964
10748TIP3    H132187   0.561   2.188   2.020
10748TIP3    H232188   0.555   2.232   1.876
10749TIP3   OH232189   0.581   6.192   1.227
10749TIP3    H132190   0.653   6.140   1.264
10749TIP3    H232191   0.502   6.146   1.254
10750TIP3   OH232192   4.869   0.334   3.024
10750TIP3    H132193   4.871   0.247   2.985
10750TIP3    H232194   4.782   0.341   3.063
10751TIP3   OH232195   1.307   6.236   0.535
10751TIP3    H132196   1.402   6.241   0.523
10751TIP3    H232197   1.296   6.232   0.630
10752TIP3   OH232198   5.691   7.215   4.147
10752TIP3    H132199   5.679   7.301   4.106
10752TIP3    H232200   5.603   7.191   4.178
10753TIP3   OH232201   1.459   4.215   6.771
10753TIP3    H132202   1.532   4.153   6.775
10753TIP3    H232203   1.386   4.163   6.736
10754TIP3   OH232204   3.409   5.121   3.140
10754TIP3    H132205   3.450   5.193   3.189
10754TIP3    H232206   3.338   5.092   3.197
10755TIP3   OH232207   4.506   5.255   2.652
10755TIP3    H132208   4.528   5.347   2.637
10755TIP3    H232209   4.590   5.212   2.668
10756TIP3   OH232210   0.458   1.262   4.538
10756TIP3    H132211   0.402   1.253   4.462
10756TIP3    H232212   0.445   1.181   4.588
10757TIP3   OH232213   4.294   3.140   3.202
10757TIP3    H132214   4.350   3.151   3.125
10757TIP3    H232215   4.250   3.225   3.212
10758TIP3   OH232216   6.827   6.430   1.715
10758TIP3    H132217   6.916   6.410   1.685
10758TIP3    H232218   6.791   6.486   1.647
10759TIP3   OH232219   5.195   2.413   0.502
10759TIP3    H132220   5.165   2.481   0.443
10759TIP3    H232221   5.149   2.429   0.584
10760TIP3   OH232222   3.841   4.354   3.027
10760TIP3    H132223   3.896   4.279   3.001
10760TIP3    H232224   3.855   4.362   3.121
10761TIP3   OH232225   2.881   4.425   3.509
10761TIP3    H132226   2.967   4.407   3.546
10761TIP3    H232227   2.876   4.520   3.503
10762TIP3   OH232228   8.168   6.107   0.168
10762TIP3    H132229   8.199   6.024   0.206
10762TIP3    H232230   8.155   6.087   0.075
10763TIP3   OH232231   3.390   3.664   4.578
10763TIP3    H132232   3.428   3.586   4.537
10763TIP3    H232233   3.372   3.723   4.505
10764TIP3   OH232234   8.277   4.413   5.510
10764TIP3    H132235   8.292   4.425   5.604
10764TIP3    H232236   8.192   4.369   5.506
10765TIP3   OH232237   2.851   6.202   5.250
10765TIP3    H132238   2.828   6.269   5.185
10765TIP3    H232239   2.768   6.179   5.291
10766TIP3   OH232240   2.520   7.642   0.088
10766TIP3    H132241   2.495   7.716   0.144
10766TIP3    H232242   2.503   7.672  -0.001
10767TIP3   OH232243   0.098   3.404   4.929
10767TIP3    H132244   0.140   3.330   4.885
10767TIP3    H232245   0.058   3.454   4.858
10768TIP3   OH232246   1.726   3.127   0.182
10768TIP3    H132247   1.755   3.218   0.172
10768TIP3    H232248   1.670   3.111   0.106
10769TIP3   OH232249   8.068   5.079   3.405
10769TIP3    H132250   8.045   5.038   3.489
10769TIP3    H232251   8.125   5.016   3.362
10770TIP3   OH232252   7.269   2.303   6.765
10770TIP3    H132253   7.184   2.337   6.737
10770TIP3    H232254   7.318   2.294   6.684
10771TIP3   OH232255   1.535   0.247   6.771
10771TIP3    H132256   1.520   0.244   6.677
10771TIP3    H232257   1.455   0.287   6.806
10772TIP3   OH232258   3.925   5.129   0.382
10772TIP3    H132259   3.949   5.099   0.470
10772TIP3    H232260   3.943   5.223   0.382
10773TIP3   OH232261   1.431   3.974   0.257
10773TIP3    H132262   1.470   4.014   0.335
10773TIP3    H232263   1.491   3.998   0.186
10774TIP3   OH232264   1.066   1.423   5.472
10774TIP3    H132265   1.028   1.503   5.436
10774TIP3    H232266   1.105   1.379   5.397
10775TIP3   OH232267   0.253   3.838   2.217
10775TIP3    H132268   0.274   3.852   2.309
10775TIP3    H232269   0.274   3.922   2.175
10776TIP3   OH232270   1.943   2.759   0.666
10776TIP3    H132271   1.902   2.767   0.752
10776TIP3    H232272   2.035   2.784   0.680
10777TIP3   OH232273   1.051   6.560   6.717
10777TIP3    H132274   1.024   6.484   6.769
10777TIP3    H232275   1.129   6.593   6.763
10778TIP3   OH232276   0.136   3.197   1.691
10778TIP3    H132277   0.205   3.164   1.633
10778TIP3    H232278   0.168   3.180   1.779
10779TIP3   OH232279   1.158   4.250   1.546
10779TIP3    H132280   1.202   4.201   1.615
10779TIP3    H232281   1.082   4.289   1.589
10780TIP3   OH232282   5.827   3.260   1.633
10780TIP3    H132283   5.825   3.346   1.674
10780TIP3    H232284   5.738   3.246   1.601
10781TIP3   OH232285   2.745   3.965   5.545
10781TIP3    H132286   2.686   4.011   5.485
10781TIP3    H232287   2.699   3.965   5.629
10782TIP3   OH232288   5.300   2.219   1.660
10782TIP3    H132289   5.284   2.313   1.653
10782TIP3    H232290   5.281   2.184   1.572
10783TIP3   OH232291   2.487   4.166   3.516
10783TIP3    H132292   2.454   4.220   3.587
10783TIP3    H232293   2.582   4.181   3.515
10784TIP3   OH232294   4.163   6.337   3.806
10784TIP3    H132295   4.166   6.246   3.776
10784TIP3    H232296   4.220   6.339   3.883
10785TIP3   OH232297   5.709   6.559   4.316
10785TIP3    H132298   5.651   6.633   4.335
10785TIP3    H232299   5.712   6.509   4.397
10786TIP3   OH232300   3.098   2.546   6.617
10786TIP3    H132301   3.049   2.488   6.675
10786TIP3    H232302   3.179   2.499   6.598
10787TIP3   OH232303   2.943   2.939   2.009
10787TIP3    H132304   2.948   2.952   2.104
10787TIP3    H232305   2.942   2.844   1.997
10788TIP3   OH232306   1.575   5.000   2.225
10788TIP3    H132307   1.522   4.927   2.259
10788TIP3    H232308   1.561   5.070   2.289
10789TIP3   OH232309   6.627   7.608   3.511
10789TIP3    H132310   6.578   7.684   3.480
10789TIP3    H232311   6.585   7.533   3.469
10790TIP3   OH232312   3.717   2.315   2.245
10790TIP3    H132313   3.720   2.368   2.166
10790TIP3    H232314   3.742   2.227   2.215
10791TIP3   OH232315   5.962   6.715   0.520
10791TIP3    H132316   5.875   6.753   0.532
10791TIP3    H232317   6.005   6.726   0.605
10792TIP3   OH232318   0.447   4.858   1.763
10792TIP3    H132319   0.379   4.912   1.802
10792TIP3    H232320   0.495   4.821   1.837
10793TIP3   OH232321   1.917   6.560   1.436
10793TIP3    H132322   1.915   6.597   1.524
10793TIP3    H232323   1.826   6.540   1.416
10794TIP3   OH232324   6.514   4.420   5.256
10794TIP3    H132325   6.603   4.452   5.241
10794TIP3    H232326   6.493   4.451   5.344
10795TIP3   OH232327   0.598   4.800   3.689
10795TIP3    H132328   0.665   4.807   3.621
10795TIP3    H232329   0.647   4.772   3.767
10796TIP3   OH232330   3.517   4.893   5.643
10796TIP3    H132331   3.459   4.957   5.684
10796TIP3    H232332   3.466   4.812   5.642
10797TIP3   OH232333   5.192   1.951   4.286
10797TIP3    H132334   5.125   1.905   4.337
10797TIP3    H232335   5.146   2.024   4.246
10798TIP3   OH232336   6.787   4.885   0.278
10798TIP3    H132337   6.873   4.889   0.237
10798TIP3    H232338   6.796   4.817   0.345
10799TIP3   OH232339   4.058   7.709   1.573
10799TIP3    H132340   4.147   7.734   1.547
10799TIP3    H232341   4.062   7.614   1.582
10800TIP3   OH232342   1.431   7.347   3.742
10800TIP3    H132343   1.499   7.359   3.808
10800TIP3    H232344   1.427   7.252   3.728
10801TIP3   OH232345   0.882   0.440   3.750
10801TIP3    H132346   0.825   0.370   3.780
10801TIP3    H232347   0.968   0.399   3.738
10802TIP3   OH232348   6.378   6.632   4.176
10802TIP3    H132349   6.337   6.676   4.100
10802TIP3    H232350   6.365   6.539   4.159
10803TIP3   OH232351   2.322   2.604   5.711
10803TIP3    H132352   2.313   2.543   5.785
10803TIP3    H232353   2.237   2.601   5.667
10804TIP3   OH232354   8.232   4.146   5.300
10804TIP3    H132355   8.188   4.062   5.287
10804TIP3    H232356   8.263   4.142   5.391
10805TIP3   OH232357   5.771   7.046   1.754
10805TIP3    H132358   5.812   7.003   1.828
10805TIP3    H232359   5.803   7.000   1.677
10806TIP3   OH232360   2.891   6.367   1.967
10806TIP3    H132361   2.884   6.318   2.049
10806TIP3    H232362   2.814   6.424   1.966
10807TIP3   OH232363   0.780   4.957   6.659
10807TIP3    H132364   0.836   4.891   6.701
10807TIP3    H232365   0.801   5.038   6.705
10808TIP3   OH232366   6.746   4.218   0.448
10808TIP3    H132367   6.732   4.189   0.537
10808TIP3    H232368   6.691   4.296   0.439
10809TIP3   OH232369   7.060   5.893   4.439
10809TIP3    H132370   7.142   5.856   4.472
10809TIP3    H232371   7.032   5.954   4.507
10810TIP3   OH232372   2.725   1.924   6.384
10810TIP3    H132373   2.738   1.872   6.463
10810TIP3    H232374   2.786   1.997   6.394
10811TIP3   OH232375   6.350   0.110   6.723
10811TIP3    H132376   6.435   0.078   6.692
10811TIP3    H232377   6.286   0.050   6.683
10812TIP3   OH232378   6.768   4.415   5.503
10812TIP3    H132379   6.805   4.452   5.422
10812TIP3    H232380   6.844   4.386   5.552
10813TIP3   OH232381   4.379   3.545   1.428
10813TIP3    H132382   4.405   3.454   1.413
10813TIP3    H232383   4.461   3.592   1.443
10814TIP3   OH232384   0.263   0.646   0.844
10814TIP3    H132385   0.347   0.609   0.818
10814TIP3    H232386   0.237   0.700   0.769
10815TIP3   OH232387   3.561   2.144   4.339
10815TIP3    H132388   3.514   2.201   4.400
10815TIP3    H232389   3.650   2.178   4.336
10816TIP3   OH232390   0.005   7.465   3.751
10816TIP3    H132391   0.084   7.451   3.803
10816TIP3    H232392   0.028   7.435   3.663
10817TIP3   OH232393   7.320   1.210   5.229
10817TIP3    H132394   7.292   1.236   5.317
10817TIP3    H232395   7.240   1.214   5.176
10818TIP3   OH232396   5.800   4.918   2.874
10818TIP3    H132397   5.738   4.990   2.884
10818TIP3    H232398   5.819   4.914   2.780
10819TIP3   OH232399   5.856   5.137   3.453
10819TIP3    H132400   5.823   5.085   3.380
10819TIP3    H232401   5.951   5.124   3.452
10820TIP3   OH232402   0.262   2.463   3.498
10820TIP3    H132403   0.271   2.370   3.517
10820TIP3    H232404   0.192   2.492   3.557
10821TIP3   OH232405   7.762   1.671   3.518
10821TIP3    H132406   7.706   1.694   3.443
10821TIP3    H232407   7.835   1.623   3.479
10822TIP3   OH232408   1.052   2.956   2.175
10822TIP3    H132409   1.117   2.939   2.243
10822TIP3    H232410   0.969   2.926   2.212
10823TIP3   OH232411   1.934   0.861   5.388
10823TIP3    H132412   1.859   0.900   5.345
10823TIP3    H232413   1.912   0.863   5.481
10824TIP3   OH232414   8.025   5.068   1.143
10824TIP3    H132415   8.051   5.128   1.213
10824TIP3    H232416   7.932   5.088   1.127
10825TIP3   OH232417   0.798   1.384   2.512
10825TIP3    H132418   0.854   1.462   2.507
10825TIP3    H232419   0.743   1.389   2.434
10826TIP3   OH232420   6.339   3.100   1.947
10826TIP3    H132421   6.289   3.182   1.940
10826TIP3    H232422   6.280   3.033   1.911
10827TIP3   OH232423   5.454   2.611   4.888
10827TIP3    H132424   5.387   2.678   4.903
10827TIP3    H232425   5.484   2.586   4.975
10828TIP3   OH232426   5.315   3.149   2.819
10828TIP3    H132427   5.352   3.069   2.783
10828TIP3    H232428   5.266   3.121   2.896
10829TIP3   OH232429   8.233   2.334   2.805
10829TIP3    H132430   8.302   2.269   2.818
10829TIP3    H232431   8.231   2.383   2.887
10830TIP3   OH232432   8.025   4.124   1.724
10830TIP3    H132433   7.977   4.202   1.752
10830TIP3    H232434   8.111   4.133   1.763
10831TIP3   OH232435   5.849   2.605   3.502
10831TIP3    H132436   5.773   2.656   3.474
10831TIP3    H232437   5.910   2.610   3.429
10832TIP3   OH232438   4.003   5.310   0.747
10832TIP3    H132439   4.034   5.225   0.715
10832TIP3    H232440   3.954   5.290   0.826
10833TIP3   OH232441   4.669   4.340   5.602
10833TIP3    H132442   4.740   4.311   5.659
10833TIP3    H232443   4.660   4.270   5.538
10834TIP3   OH232444   1.247   0.463   1.206
10834TIP3    H132445   1.241   0.556   1.228
10834TIP3    H232446   1.220   0.458   1.115
10835TIP3   OH232447   0.379   4.469   6.079
10835TIP3    H132448   0.418   4.401   6.025
10835TIP3    H232449   0.284   4.457   6.068
10836TIP3   OH232450   6.829   3.693   2.053
10836TIP3    H132451   6.858   3.751   2.124
10836TIP3    H232452   6.765   3.746   2.004
10837TIP3   OH232453   8.208   5.013   5.313
10837TIP3    H132454   8.192   5.009   5.219
10837TIP3    H232455   8.139   5.068   5.348
10838TIP3   OH232456   0.684   4.546   2.978
10838TIP3    H132457   0.709   4.524   3.067
10838TIP3    H232458   0.633   4.471   2.948
10839TIP3   OH232459   1.324   3.681   0.518
10839TIP3    H132460   1.374   3.673   0.600
10839TIP3    H232461   1.388   3.711   0.454
10840TIP3   OH232462   4.421   0.095   0.640
10840TIP3    H132463   4.492   0.032   0.654
10840TIP3    H232464   4.447   0.173   0.690
10841TIP3   OH232465   4.322   0.327   3.406
10841TIP3    H132466   4.230   0.306   3.421
10841TIP3    H232467   4.337   0.304   3.314
10842TIP3   OH232468   1.131   1.797   1.553
10842TIP3    H132469   1.135   1.713   1.597
10842TIP3    H232470   1.037   1.815   1.545
10843TIP3   OH232471   6.507   4.350   6.314
10843TIP3    H132472   6.594   4.316   6.334
10843TIP3    H232473   6.506   4.359   6.219
10844TIP3   OH232474   0.012   2.371   5.901
10844TIP3    H132475   0.022   2.456   5.944
10844TIP3    H232476   0.057   2.381   5.817
10845TIP3   OH232477   3.490   5.912   0.760
10845TIP3    H132478   3.515   5.898   0.669
10845TIP3    H232479   3.403   5.872   0.768
10846TIP3   OH232480   8.039   6.263   5.481
10846TIP3    H132481   8.033   6.279   5.576
10846TIP3    H232482   8.078   6.343   5.445
10847TIP3   OH232483   5.695   5.544   1.973
10847TIP3    H132484   5.600   5.528   1.977
10847TIP3    H232485   5.730   5.498   2.048
10848TIP3   OH232486   2.825   2.552   3.216
10848TIP3    H132487   2.862   2.549   3.128
10848TIP3    H232488   2.808   2.461   3.238
10849TIP3   OH232489   1.368   0.857   4.006
10849TIP3    H132490   1.337   0.789   3.947
10849TIP3    H232491   1.306   0.929   3.993
10850TIP3   OH232492   0.838   4.689   5.093
10850TIP3    H132493   0.774   4.738   5.144
10850TIP3    H232494   0.825   4.719   5.003
10851TIP3   OH232495   7.047   6.010   5.299
10851TIP3    H132496   7.118   5.990   5.360
10851TIP3    H232497   7.071   5.964   5.219
10852TIP3   OH232498   5.500   1.997   0.768
10852TIP3    H132499   5.505   1.995   0.864
10852TIP3    H232500   5.491   1.905   0.743
10853TIP3   OH232501   4.130   3.387   1.778
10853TIP3    H132502   4.124   3.371   1.684
10853TIP3    H232503   4.045   3.425   1.801
10854TIP3   OH232504   1.347   5.235   1.538
10854TIP3    H132505   1.407   5.208   1.607
10854TIP3    H232506   1.362   5.329   1.529
10855TIP3   OH232507   0.612   6.100   1.966
10855TIP3    H132508   0.524   6.090   2.000
10855TIP3    H232509   0.601   6.154   1.887
10856TIP3   OH232510   7.249   0.128   0.792
10856TIP3    H132511   7.217   0.050   0.746
10856TIP3    H232512   7.186   0.142   0.863
10857TIP3   OH232513   3.068   3.825   4.100
10857TIP3    H132514   3.040   3.908   4.138
10857TIP3    H232515   3.046   3.832   4.007
10858TIP3   OH232516   1.325   1.519   5.587
10858TIP3    H132517   1.268   1.460   5.536
10858TIP3    H232518   1.299   1.607   5.560
10859TIP3   OH232519   4.524   6.953   2.447
10859TIP3    H132520   4.605   6.953   2.497
10859TIP3    H232521   4.499   7.045   2.440
10860TIP3   OH232522   6.025   1.447   4.104
10860TIP3    H132523   6.083   1.436   4.180
10860TIP3    H232524   6.035   1.539   4.079
10861TIP3   OH232525   7.618   5.255   3.355
10861TIP3    H132526   7.569   5.287   3.279
10861TIP3    H232527   7.636   5.163   3.335
10862TIP3   OH232528   4.957   6.691   2.107
10862TIP3    H132529   4.970   6.634   2.030
10862TIP3    H232530   4.906   6.637   2.168
10863TIP3   OH232531   6.049   2.438   6.000
10863TIP3    H132532   6.110   2.494   6.048
10863TIP3    H232533   6.076   2.445   5.909
10864TIP3   OH232534   2.845   6.476   6.450
10864TIP3    H132535   2.933   6.511   6.439
10864TIP3    H232536   2.810   6.521   6.527
10865TIP3   OH232537   6.731   2.511   2.543
10865TIP3    H132538   6.681   2.589   2.520
10865TIP3    H232539   6.818   2.543   2.563
10866TIP3   OH232540   1.472   0.449   3.134
10866TIP3    H132541   1.380   0.467   3.115
10866TIP3    H232542   1.471   0.365   3.180
10867TIP3   OH232543   5.984   7.202   4.088
10867TIP3    H132544   6.014   7.112   4.099
10867TIP3    H232545   5.889   7.196   4.085
10868TIP3   OH232546   2.056   6.456   6.361
10868TIP3    H132547   2.066   6.485   6.451
10868TIP3    H232548   2.059   6.360   6.367
10869TIP3   OH232549   4.972   1.344   1.281
10869TIP3    H132550   5.047   1.395   1.312
10869TIP3    H232551   5.011   1.265   1.244
10870TIP3   OH232552   7.120   3.563   1.142
10870TIP3    H132553   7.035   3.549   1.184
10870TIP3    H232554   7.099   3.577   1.049
10871TIP3   OH232555   2.820   6.385   5.065
10871TIP3    H132556   2.802   6.479   5.077
10871TIP3    H232557   2.761   6.358   4.995
10872TIP3   OH232558   3.052   0.894   5.981
10872TIP3    H132559   3.020   0.819   6.031
10872TIP3    H232560   2.974   0.949   5.968
10873TIP3   OH232561   2.115   4.164   4.029
10873TIP3    H132562   2.038   4.215   4.056
10873TIP3    H232563   2.118   4.174   3.934
10874TIP3   OH232564   6.926   5.893   5.764
10874TIP3    H132565   7.003   5.839   5.746
10874TIP3    H232566   6.942   5.975   5.718
10875TIP3   OH232567   6.490   2.944   3.004
10875TIP3    H132568   6.413   2.890   2.985
10875TIP3    H232569   6.488   3.013   2.937
10876TIP3   OH232570   5.217   6.769   5.767
10876TIP3    H132571   5.252   6.826   5.835
10876TIP3    H232572   5.164   6.705   5.814
10877TIP3   OH232573   3.269   3.335   0.095
10877TIP3    H132574   3.321   3.271   0.143
10877TIP3    H232575   3.189   3.289   0.070
10878TIP3   OH232576   7.257   4.396   3.583
10878TIP3    H132577   7.297   4.483   3.580
10878TIP3    H232578   7.200   4.398   3.660
10879TIP3   OH232579   4.488   7.431   4.774
10879TIP3    H132580   4.458   7.350   4.733
10879TIP3    H232581   4.410   7.467   4.815
10880TIP3   OH232582   6.229   1.217   2.907
10880TIP3    H132583   6.172   1.294   2.899
10880TIP3    H232584   6.317   1.251   2.895
10881TIP3   OH232585   7.882   2.863   3.724
10881TIP3    H132586   7.963   2.834   3.766
10881TIP3    H232587   7.910   2.927   3.659
10882TIP3   OH232588   3.587   0.854   3.387
10882TIP3    H132589   3.672   0.813   3.400
10882TIP3    H232590   3.525   0.797   3.431
10883TIP3   OH232591   0.793   6.881   0.417
10883TIP3    H132592   0.778   6.923   0.333
10883TIP3    H232593   0.714   6.828   0.432
10884TIP3   OH232594   7.606   6.497   3.914
10884TIP3    H132595   7.584   6.406   3.896
10884TIP3    H232596   7.698   6.505   3.890
10885TIP3   OH232597   7.500   1.819   4.947
10885TIP3    H132598   7.559   1.772   5.007
10885TIP3    H232599   7.504   1.910   4.976
10886TIP3   OH232600   1.456   4.709   4.457
10886TIP3    H132601   1.379   4.706   4.401
10886TIP3    H232602   1.430   4.663   4.536
10887TIP3   OH232603   4.219   2.575   4.917
10887TIP3    H132604   4.273   2.553   4.841
10887TIP3    H232605   4.151   2.508   4.919
10888TIP3   OH232606   3.734   3.577   4.958
10888TIP3    H132607   3.762   3.516   4.891
10888TIP3    H232608   3.706   3.522   5.031
10889TIP3   OH232609   0.834   7.752   4.356
10889TIP3    H132610   0.848   7.755   4.261
10889TIP3    H232611   0.871   7.834   4.388
10890TIP3   OH232612   6.322   6.066   3.111
10890TIP3    H132613   6.231   6.094   3.119
10890TIP3    H232614   6.320   5.973   3.133
10891TIP3   OH232615   1.480   1.970   4.161
10891TIP3    H132616   1.480   1.977   4.066
10891TIP3    H232617   1.427   2.044   4.191
10892TIP3   OH232618   0.605   3.139   1.421
10892TIP3    H132619   0.646   3.079   1.483
10892TIP3    H232620   0.515   3.110   1.415
10893TIP3   OH232621   1.026   5.735   6.692
10893TIP3    H132622   1.101   5.791   6.672
10893TIP3    H232623   0.992   5.769   6.775
10894TIP3   OH232624   0.917   0.217   1.652
10894TIP3    H132625   0.841   0.182   1.606
10894TIP3    H232626   0.978   0.243   1.583
10895TIP3   OH232627   3.626   6.084   0.970
10895TIP3    H132628   3.571   6.047   0.901
10895TIP3    H232629   3.715   6.056   0.948
10896TIP3   OH232630   4.899   7.325   1.658
10896TIP3    H132631   4.832   7.340   1.592
10896TIP3    H232632   4.962   7.396   1.645
10897TIP3   OH232633   6.842   2.612   4.085
10897TIP3    H132634   6.857   2.696   4.042
10897TIP3    H232635   6.918   2.559   4.062
10898TIP3   OH232636   6.513   6.578   2.299
10898TIP3    H132637   6.453   6.629   2.354
10898TIP3    H232638   6.536   6.638   2.228
10899TIP3   OH232639   3.592   7.482   0.024
10899TIP3    H132640   3.520   7.433  -0.015
10899TIP3    H232641   3.622   7.541  -0.046
10900TIP3   OH232642   1.815   6.562   4.748
10900TIP3    H132643   1.777   6.587   4.833
10900TIP3    H232644   1.856   6.478   4.765
10901TIP3   OH232645   2.745   2.196   1.753
10901TIP3    H132646   2.789   2.112   1.743
10901TIP3    H232647   2.701   2.190   1.838
10902TIP3   OH232648   2.053   6.697   0.790
10902TIP3    H132649   2.023   6.696   0.699
10902TIP3    H232650   2.102   6.779   0.799
10903TIP3   OH232651   4.139   2.581   1.652
10903TIP3    H132652   4.190   2.619   1.724
10903TIP3    H232653   4.188   2.503   1.626
10904TIP3   OH232654   0.828   1.096   2.432
10904TIP3    H132655   0.786   1.168   2.479
10904TIP3    H232656   0.910   1.134   2.400
10905TIP3   OH232657   6.255   7.624   2.505
10905TIP3    H132658   6.290   7.631   2.416
10905TIP3    H232659   6.266   7.711   2.542
10906TIP3   OH232660   2.921   7.557   4.097
10906TIP3    H132661   2.971   7.534   4.019
10906TIP3    H232662   2.842   7.600   4.064
10907TIP3   OH232663   1.738   5.551   1.404
10907TIP3    H132664   1.721   5.467   1.361
10907TIP3    H232665   1.704   5.617   1.344
10908TIP3   OH232666   0.901   2.527   3.873
10908TIP3    H132667   0.816   2.488   3.851
10908TIP3    H232668   0.948   2.531   3.790
10909TIP3   OH232669   1.107   2.649   6.764
10909TIP3    H132670   1.196   2.678   6.783
10909TIP3    H232671   1.064   2.727   6.728
10910TIP3   OH232672   2.978   5.516   3.113
10910TIP3    H132673   2.889   5.541   3.089
10910TIP3    H232674   3.023   5.599   3.130
10911TIP3   OH232675   7.324   7.751   3.226
10911TIP3    H132676   7.287   7.820   3.171
10911TIP3    H232677   7.371   7.797   3.295
10912TIP3   OH232678   4.266   1.494   5.053
10912TIP3    H132679   4.206   1.466   4.985
10912TIP3    H232680   4.210   1.515   5.128
10913TIP3   OH232681   6.356   3.903   2.983
10913TIP3    H132682   6.426   3.962   3.012
10913TIP3    H232683   6.299   3.894   3.060
10914TIP3   OH232684   4.828   4.919   4.107
10914TIP3    H132685   4.815   5.008   4.074
10914TIP3    H232686   4.840   4.930   4.201
10915TIP3   OH232687   7.660   7.316   4.330
10915TIP3    H132688   7.656   7.297   4.236
10915TIP3    H232689   7.568   7.317   4.358
10916TIP3   OH232690   6.248   4.077   1.180
10916TIP3    H132691   6.305   4.016   1.226
10916TIP3    H232692   6.284   4.164   1.201
10917TIP3   OH232693   7.185   4.124   5.285
10917TIP3    H132694   7.135   4.069   5.345
10917TIP3    H232695   7.243   4.063   5.239
10918TIP3   OH232696   4.624   2.752   6.014
10918TIP3    H132697   4.671   2.671   6.032
10918TIP3    H232698   4.537   2.724   5.985
10919TIP3   OH232699   3.579   5.372   2.944
10919TIP3    H132700   3.616   5.329   3.021
10919TIP3    H232701   3.560   5.461   2.973
10920TIP3   OH232702   1.648   5.401   3.290
10920TIP3    H132703   1.631   5.385   3.382
10920TIP3    H232704   1.652   5.496   3.282
10921TIP3   OH232705   7.565   4.009   6.751
10921TIP3    H132706   7.504   4.075   6.720
10921TIP3    H232707   7.550   4.005   6.846
10922TIP3   OH232708  -0.008   2.039   2.156
10922TIP3    H132709  -0.051   2.118   2.123
10922TIP3    H232710   0.084   2.064   2.167
10923TIP3   OH232711   1.766   3.829   0.105
10923TIP3    H132712   1.757   3.924   0.100
10923TIP3    H232713   1.783   3.811   0.198
10924TIP3   OH232714   5.416   4.442   4.480
10924TIP3    H132715   5.501   4.485   4.490
10924TIP3    H232716   5.353   4.513   4.474
10925TIP3   OH232717   3.323   5.816   5.102
10925TIP3    H132718   3.258   5.767   5.153
10925TIP3    H232719   3.404   5.767   5.113
10926TIP3   OH232720   2.653   6.332   4.270
10926TIP3    H132721   2.738   6.304   4.303
10926TIP3    H232722   2.596   6.332   4.347
10927TIP3   OH232723   2.381   5.935   0.144
10927TIP3    H132724   2.392   5.898   0.056
10927TIP3    H232725   2.335   6.018   0.129
10928TIP3   OH232726   7.215   3.423   6.286
10928TIP3    H132727   7.244   3.427   6.377
10928TIP3    H232728   7.254   3.500   6.245
10929TIP3   OH232729   1.777   7.688   0.598
10929TIP3    H132730   1.786   7.604   0.642
10929TIP3    H232731   1.702   7.676   0.540
10930TIP3   OH232732   1.641   4.448   3.341
10930TIP3    H132733   1.721   4.441   3.289
10930TIP3    H232734   1.671   4.469   3.429
10931TIP3   OH232735   5.173   3.527   5.217
10931TIP3    H132736   5.214   3.455   5.169
10931TIP3    H232737   5.101   3.486   5.265
10932TIP3   OH232738   2.325   1.828   5.757
10932TIP3    H132739   2.359   1.848   5.844
10932TIP3    H232740   2.238   1.790   5.773
10933TIP3   OH232741   5.648   0.339   0.553
10933TIP3    H132742   5.729   0.345   0.501
10933TIP3    H232743   5.625   0.430   0.572
10934TIP3   OH232744   4.111   7.705   6.047
10934TIP3    H132745   4.164   7.627   6.034
10934TIP3    H232746   4.172   7.778   6.037
10935TIP3   OH232747   2.250   1.230   3.508
10935TIP3    H132748   2.215   1.168   3.571
10935TIP3    H232749   2.342   1.205   3.498
10936TIP3   OH232750   5.001   3.524   3.250
10936TIP3    H132751   4.947   3.596   3.217
10936TIP3    H232752   5.048   3.492   3.173
10937TIP3   OH232753   7.532   6.827   4.128
10937TIP3    H132754   7.508   6.788   4.044
10937TIP3    H232755   7.628   6.830   4.127
10938TIP3   OH232756   1.727   4.643   1.249
10938TIP3    H132757   1.644   4.683   1.273
10938TIP3    H232758   1.716   4.617   1.157
10939TIP3   OH232759   4.755   6.333   2.586
10939TIP3    H132760   4.773   6.408   2.644
10939TIP3    H232761   4.839   6.288   2.579
10940TIP3   OH232762   4.397   3.440   5.192
10940TIP3    H132763   4.310   3.456   5.156
10940TIP3    H232764   4.423   3.524   5.229
10941TIP3   OH232765   5.151   5.078   0.441
10941TIP3    H132766   5.060   5.063   0.467
10941TIP3    H232767   5.158   5.037   0.355
10942TIP3   OH232768   4.801   7.474   5.086
10942TIP3    H132769   4.770   7.411   5.151
10942TIP3    H232770   4.804   7.425   5.004
10943TIP3   OH232771   4.981   2.177   6.460
10943TIP3    H132772   4.913   2.220   6.409
10943TIP3    H232773   4.976   2.218   6.546
10944TIP3   OH232774   4.492   2.658   2.009
10944TIP3    H132775   4.517   2.604   1.933
10944TIP3    H232776   4.571   2.661   2.063
10945TIP3   OH232777   6.655   2.759   2.437
10945TIP3    H132778   6.668   2.805   2.354
10945TIP3    H232779   6.671   2.825   2.504
10946TIP3   OH232780   1.445   0.313   5.995
10946TIP3    H132781   1.488   0.227   5.990
10946TIP3    H232782   1.423   0.323   6.087
10947TIP3   OH232783   7.539   4.289   1.978
10947TIP3    H132784   7.529   4.308   2.072
10947TIP3    H232785   7.487   4.357   1.935
10948TIP3   OH232786   2.390   3.336   3.971
10948TIP3    H132787   2.340   3.416   3.987
10948TIP3    H232788   2.356   3.273   4.034
10949TIP3   OH232789   5.900   1.500   4.744
10949TIP3    H132790   5.844   1.575   4.724
10949TIP3    H232791   5.875   1.433   4.680
10950TIP3   OH232792   6.985   1.180   4.108
10950TIP3    H132793   6.975   1.262   4.060
10950TIP3    H232794   6.903   1.170   4.157
10951TIP3   OH232795   7.036   6.705   1.171
10951TIP3    H132796   7.085   6.662   1.242
10951TIP3    H232797   7.074   6.669   1.091
10952TIP3   OH232798   7.784   2.196   1.025
10952TIP3    H132799   7.785   2.113   1.074
10952TIP3    H232800   7.861   2.243   1.056
10953TIP3   OH232801   4.967   5.415   1.294
10953TIP3    H132802   4.895   5.366   1.254
10953TIP3    H232803   5.043   5.393   1.241
10954TIP3   OH232804   4.156   7.007   1.765
10954TIP3    H132805   4.227   7.071   1.757
10954TIP3    H232806   4.115   7.007   1.678
10955TIP3   OH232807   5.200   6.507   5.561
10955TIP3    H132808   5.154   6.513   5.644
10955TIP3    H232809   5.231   6.595   5.544
10956TIP3   OH232810   4.734   5.490   4.904
10956TIP3    H132811   4.782   5.530   4.977
10956TIP3    H232812   4.770   5.533   4.826
10957TIP3   OH232813   3.878   0.324   6.570
10957TIP3    H132814   3.887   0.390   6.638
10957TIP3    H232815   3.784   0.315   6.558
10958TIP3   OH232816   7.257   2.266   4.548
10958TIP3    H132817   7.211   2.203   4.603
10958TIP3    H232818   7.215   2.260   4.463
10959TIP3   OH232819   5.390   6.362   4.486
10959TIP3    H132820   5.404   6.268   4.503
10959TIP3    H232821   5.477   6.396   4.466
10960TIP3   OH232822   6.856   4.942   2.936
10960TIP3    H132823   6.832   4.866   2.989
10960TIP3    H232824   6.940   4.919   2.898
10961TIP3   OH232825   7.589   7.187   4.717
10961TIP3    H132826   7.558   7.266   4.761
10961TIP3    H232827   7.515   7.157   4.665
10962TIP3   OH232828   5.732   3.022   1.129
10962TIP3    H132829   5.700   3.106   1.095
10962TIP3    H232830   5.776   2.982   1.054
10963TIP3   OH232831   6.083   1.658   5.822
10963TIP3    H132832   6.018   1.598   5.786
10963TIP3    H232833   6.045   1.688   5.904
10964TIP3   OH232834   6.820   1.372   3.084
10964TIP3    H132835   6.752   1.376   3.016
10964TIP3    H232836   6.897   1.411   3.044
10965TIP3   OH232837   2.608   2.675   3.638
10965TIP3    H132838   2.632   2.586   3.664
10965TIP3    H232839   2.691   2.724   3.642
10966TIP3   OH232840   5.861   0.874   2.233
10966TIP3    H132841   5.864   0.961   2.273
10966TIP3    H232842   5.859   0.891   2.139
10967TIP3   OH232843   7.702   5.946   3.032
10967TIP3    H132844   7.666   5.894   2.959
10967TIP3    H232845   7.778   5.896   3.062
10968TIP3   OH232846   5.920   6.746   5.141
10968TIP3    H132847   5.995   6.805   5.131
10968TIP3    H232848   5.900   6.717   5.052
10969TIP3   OH232849   7.408   3.398   4.211
10969TIP3    H132850   7.396   3.401   4.116
10969TIP3    H232851   7.326   3.363   4.245
10970TIP3   OH232852   3.916   5.287   2.015
10970TIP3    H132853   3.898   5.327   2.101
10970TIP3    H232854   3.875   5.201   2.020
10971TIP3   OH232855   3.575   0.429   3.522
10971TIP3    H132856   3.643   0.404   3.459
10971TIP3    H232857   3.607   0.395   3.606
10972TIP3   OH232858   1.366   1.528   3.345
10972TIP3    H132859   1.395   1.485   3.426
10972TIP3    H232860   1.446   1.569   3.310
10973TIP3   OH232861   3.631   1.257   2.142
10973TIP3    H132862   3.644   1.352   2.136
10973TIP3    H232863   3.660   1.224   2.057
10974TIP3   OH232864   6.156   2.403   0.808
10974TIP3    H132865   6.159   2.391   0.713
10974TIP3    H232866   6.212   2.479   0.824
10975TIP3   OH232867   2.717   6.903   5.276
10975TIP3    H132868   2.765   6.985   5.289
10975TIP3    H232869   2.782   6.834   5.288
10976TIP3   OH232870   5.641   5.776   6.025
10976TIP3    H132871   5.689   5.821   5.954
10976TIP3    H232872   5.590   5.709   5.980
10977TIP3   OH232873   1.088   2.529   1.119
10977TIP3    H132874   1.039   2.570   1.048
10977TIP3    H232875   1.144   2.598   1.153
10978TIP3   OH232876   2.085   4.123   5.826
10978TIP3    H132877   2.093   4.217   5.812
10978TIP3    H232878   2.054   4.089   5.743
10979TIP3   OH232879   8.023   5.250   0.236
10979TIP3    H132880   8.101   5.233   0.184
10979TIP3    H232881   7.960   5.288   0.174
10980TIP3   OH232882   6.750   2.468   6.565
10980TIP3    H132883   6.733   2.464   6.471
10980TIP3    H232884   6.747   2.561   6.587
10981TIP3   OH232885   5.304   1.688   1.968
10981TIP3    H132886   5.375   1.726   2.020
10981TIP3    H232887   5.347   1.624   1.911
10982TIP3   OH232888   7.777   2.498   2.820
10982TIP3    H132889   7.799   2.568   2.882
10982TIP3    H232890   7.693   2.527   2.782
10983TIP3   OH232891   8.169   6.376   6.536
10983TIP3    H132892   8.242   6.356   6.594
10983TIP3    H232893   8.160   6.471   6.540
10984TIP3   OH232894   5.943   7.381   3.439
10984TIP3    H132895   6.014   7.326   3.405
10984TIP3    H232896   5.890   7.401   3.362
10985TIP3   OH232897   4.440   4.652   2.933
10985TIP3    H132898   4.517   4.666   2.879
10985TIP3    H232899   4.413   4.562   2.915
10986TIP3   OH232900   0.249   4.353   3.580
10986TIP3    H132901   0.308   4.389   3.645
10986TIP3    H232902   0.265   4.258   3.583
10987TIP3   OH232903   6.419   5.012   5.523
10987TIP3    H132904   6.327   4.988   5.509
10987TIP3    H232905   6.417   5.105   5.544
10988TIP3   OH232906   6.544   5.327   2.002
10988TIP3    H132907   6.549   5.421   2.019
10988TIP3    H232908   6.612   5.311   1.937
10989TIP3   OH232909   7.507   5.935   4.495
10989TIP3    H132910   7.589   5.900   4.529
10989TIP3    H232911   7.478   5.871   4.430
10990TIP3   OH232912   6.610   0.964   0.989
10990TIP3    H132913   6.657   1.044   0.966
10990TIP3    H232914   6.547   0.991   1.056
10991TIP3   OH232915   4.827   5.806   6.211
10991TIP3    H132916   4.911   5.765   6.231
10991TIP3    H232917   4.834   5.895   6.246
10992TIP3   OH232918   1.823   6.415   3.046
10992TIP3    H132919   1.788   6.345   3.101
10992TIP3    H232920   1.745   6.462   3.014
10993TIP3   OH232921   4.330   5.962   5.967
10993TIP3    H132922   4.294   5.926   6.048
10993TIP3    H232923   4.396   6.025   5.996
10994TIP3   OH232924   2.990   7.572   3.258
10994TIP3    H132925   3.001   7.477   3.252
10994TIP3    H232926   3.040   7.606   3.183
10995TIP3   OH232927   2.910   2.941   0.643
10995TIP3    H132928   2.898   2.847   0.632
10995TIP3    H232929   2.821   2.974   0.660
10996TIP3   OH232930   6.101   1.777   3.211
10996TIP3    H132931   6.062   1.700   3.170
10996TIP3    H232932   6.041   1.849   3.189
10997TIP3   OH232933   6.750   1.427   0.787
10997TIP3    H132934   6.693   1.403   0.860
10997TIP3    H232935   6.743   1.523   0.782
10998TIP3   OH232936   1.611   0.865   2.239
10998TIP3    H132937   1.525   0.890   2.273
10998TIP3    H232938   1.642   0.797   2.298
10999TIP3   OH232939   6.918   4.736   2.298
10999TIP3    H132940   6.957   4.805   2.245
10999TIP3    H232941   6.837   4.713   2.252
11000TIP3   OH232942   6.807   1.881   6.565
11000TIP3    H132943   6.823   1.834   6.647
11000TIP3    H232944   6.884   1.863   6.511
11001TIP3   OH232945   3.509   0.360   1.751
11001TIP3    H132946   3.572   0.323   1.812
11001TIP3    H232947   3.549   0.348   1.665
11002TIP3   OH232948   4.456   4.241   0.795
11002TIP3    H132949   4.415   4.222   0.879
11002TIP3    H232950   4.385   4.233   0.731
11003TIP3   OH232951   4.776   0.725   0.652
11003TIP3    H132952   4.810   0.640   0.625
11003TIP3    H232953   4.695   0.735   0.602
11004TIP3   OH232954   6.626   4.673   6.172
11004TIP3    H132955   6.627   4.702   6.264
11004TIP3    H232956   6.717   4.679   6.144
11005TIP3   OH232957   4.437   6.702   6.728
11005TIP3    H132958   4.389   6.619   6.723
11005TIP3    H232959   4.426   6.740   6.640
11006TIP3   OH232960   0.230   1.559   0.471
11006TIP3    H132961   0.241   1.643   0.514
11006TIP3    H232962   0.319   1.528   0.456
11007TIP3   OH232963   4.864   6.035   2.300
11007TIP3    H132964   4.804   6.107   2.321
11007TIP3    H232965   4.892   6.001   2.385
11008TIP3   OH232966   1.897   4.768   6.365
11008TIP3    H132967   1.959   4.710   6.409
11008TIP3    H232968   1.819   4.766   6.421
11009TIP3   OH232969   3.427   2.817   5.095
11009TIP3    H132970   3.370   2.866   5.036
11009TIP3    H232971   3.443   2.877   5.168
11010TIP3   OH232972   1.201   3.916   4.200
11010TIP3    H132973   1.218   3.850   4.133
11010TIP3    H232974   1.114   3.894   4.234
11011TIP3   OH232975   0.372   2.747   4.987
11011TIP3    H132976   0.336   2.677   4.933
11011TIP3    H232977   0.340   2.827   4.946
11012TIP3   OH232978   7.695   1.920   1.947
11012TIP3    H132979   7.750   1.976   2.002
11012TIP3    H232980   7.633   1.979   1.906
11013TIP3   OH232981   7.454   6.116   2.438
11013TIP3    H132982   7.440   6.046   2.501
11013TIP3    H232983   7.400   6.091   2.362
11014TIP3   OH232984   1.822   1.924   5.858
11014TIP3    H132985   1.756   1.856   5.868
11014TIP3    H232986   1.827   1.939   5.763
11015TIP3   OH232987   0.462   3.673   5.126
11015TIP3    H132988   0.412   3.661   5.207
11015TIP3    H232989   0.432   3.757   5.092
11016TIP3   OH232990   6.322   4.108   6.363
11016TIP3    H132991   6.404   4.154   6.381
11016TIP3    H232992   6.273   4.167   6.307
11017TIP3   OH232993   5.721   0.208   5.662
11017TIP3    H132994   5.751   0.151   5.591
11017TIP3    H232995   5.755   0.294   5.639
11018TIP3   OH232996   1.277   3.012   5.644
11018TIP3    H132997   1.251   2.934   5.595
11018TIP3    H232998   1.218   3.081   5.611
11019TIP3   OH232999   3.675   4.564   4.626
11019TIP3    H133000   3.708   4.497   4.566
11019TIP3    H233001   3.678   4.645   4.576
11020TIP3   OH233002   5.304   5.590   4.638
11020TIP3    H133003   5.263   5.578   4.552
11020TIP3    H233004   5.360   5.513   4.649
11021TIP3   OH233005   8.050   5.569   3.070
11021TIP3    H133006   8.090   5.635   3.014
11021TIP3    H233007   8.124   5.529   3.116
11022TIP3   OH233008   4.931   2.468   5.824
11022TIP3    H133009   4.960   2.452   5.914
11022TIP3    H233010   4.901   2.382   5.792
11023TIP3   OH233011   0.430   5.240   1.184
11023TIP3    H133012   0.479   5.251   1.265
11023TIP3    H233013   0.380   5.159   1.197
11024TIP3   OH233014   6.624   5.931   3.287
11024TIP3    H133015   6.621   5.925   3.191
11024TIP3    H233016   6.718   5.938   3.307
11025TIP3   OH233017   3.868   4.651   3.676
11025TIP3    H133018   3.830   4.720   3.731
11025TIP3    H233019   3.942   4.693   3.633
11026TIP3   OH233020   0.353   5.734   0.050
11026TIP3    H133021   0.332   5.715  -0.041
11026TIP3    H233022   0.393   5.821   0.048
11027TIP3   OH233023   1.727   5.358   3.868
11027TIP3    H133024   1.774   5.275   3.878
11027TIP3    H233025   1.772   5.402   3.795
11028TIP3   OH233026   4.964   1.129   2.765
11028TIP3    H133027   4.949   1.221   2.784
11028TIP3    H233028   5.029   1.102   2.830
11029TIP3   OH233029   2.668   6.511   4.061
11029TIP3    H133030   2.641   6.464   4.140
11029TIP3    H233031   2.747   6.466   4.032
11030TIP3   OH233032   4.142   0.352   5.859
11030TIP3    H133033   4.114   0.394   5.777
11030TIP3    H233034   4.146   0.424   5.922
11031TIP3   OH233035   2.761   5.532   4.468
11031TIP3    H133036   2.835   5.592   4.474
11031TIP3    H233037   2.765   5.481   4.549
11032TIP3   OH233038   3.597   4.456   2.241
11032TIP3    H133039   3.561   4.417   2.320
11032TIP3    H233040   3.647   4.532   2.273
11033TIP3   OH233041   7.283   5.407   0.283
11033TIP3    H133042   7.198   5.375   0.255
11033TIP3    H233043   7.341   5.389   0.209
11034TIP3   OH233044   3.482   2.846   2.290
11034TIP3    H133045   3.422   2.884   2.353
11034TIP3    H233046   3.563   2.833   2.340
11035TIP3   OH233047   8.020   2.290   0.572
11035TIP3    H133048   8.000   2.381   0.594
11035TIP3    H233049   7.940   2.242   0.593
11036TIP3   OH233050   2.713   4.295   3.816
11036TIP3    H133051   2.804   4.316   3.796
11036TIP3    H233052   2.663   4.342   3.749
11037TIP3   OH233053   2.591   5.018   2.139
11037TIP3    H133054   2.636   4.992   2.220
11037TIP3    H233055   2.528   5.084   2.167
11038TIP3   OH233056   4.090   1.530   3.641
11038TIP3    H133057   4.015   1.589   3.639
11038TIP3    H233058   4.087   1.490   3.728
11039TIP3   OH233059   6.788   4.978   6.003
11039TIP3    H133060   6.883   4.977   6.015
11039TIP3    H233061   6.773   5.042   5.933
11040TIP3   OH233062   6.174   1.060   3.743
11040TIP3    H133063   6.225   1.002   3.799
11040TIP3    H233064   6.103   1.005   3.710
11041TIP3   OH233065   8.059   4.469   1.334
11041TIP3    H133066   8.137   4.522   1.355
11041TIP3    H233067   8.029   4.504   1.249
11042TIP3   OH233068   1.667   1.625   3.822
11042TIP3    H133069   1.631   1.574   3.749
11042TIP3    H233070   1.661   1.567   3.898
11043TIP3   OH233071   1.204   7.149   6.141
11043TIP3    H133072   1.195   7.209   6.066
11043TIP3    H233073   1.298   7.132   6.147
11044TIP3   OH233074   6.311   7.010   5.630
11044TIP3    H133075   6.386   7.049   5.585
11044TIP3    H233076   6.303   6.922   5.594
11045TIP3   OH233077   5.264   3.005   3.505
11045TIP3    H133078   5.229   2.968   3.586
11045TIP3    H233079   5.288   3.095   3.528
11046TIP3   OH233080   2.693   4.163   4.803
11046TIP3    H133081   2.747   4.113   4.740
11046TIP3    H233082   2.741   4.244   4.817
11047TIP3   OH233083   2.757   4.428   4.845
11047TIP3    H133084   2.678   4.443   4.793
11047TIP3    H233085   2.798   4.515   4.851
11048TIP3   OH233086   6.548   3.758   2.378
11048TIP3    H133087   6.490   3.761   2.303
11048TIP3    H233088   6.634   3.783   2.343
11049TIP3   OH233089   6.074   3.672   1.508
11049TIP3    H133090   6.153   3.630   1.542
11049TIP3    H233091   6.087   3.765   1.526
11050TIP3   OH233092   4.103   5.874   2.458
11050TIP3    H133093   4.037   5.817   2.418
11050TIP3    H233094   4.186   5.839   2.428
11051TIP3   OH233095   4.693   6.585   4.675
11051TIP3    H133096   4.712   6.511   4.617
11051TIP3    H233097   4.598   6.588   4.681
11052TIP3   OH233098   1.331   2.701   1.751
11052TIP3    H133099   1.386   2.770   1.788
11052TIP3    H233100   1.242   2.735   1.759
11053TIP3   OH233101   8.084   2.575   0.656
11053TIP3    H133102   8.133   2.560   0.737
11053TIP3    H233103   8.145   2.550   0.586
11054TIP3   OH233104   8.003   3.756   0.897
11054TIP3    H133105   8.039   3.785   0.814
11054TIP3    H233106   8.046   3.809   0.963
11055TIP3   OH233107   2.375   1.627   0.328
11055TIP3    H133108   2.442   1.581   0.278
11055TIP3    H233109   2.423   1.690   0.382
11056TIP3   OH233110   7.225   1.546   6.564
11056TIP3    H133111   7.303   1.523   6.614
11056TIP3    H233112   7.224   1.485   6.490
11057TIP3   OH233113   6.082   7.772   2.835
11057TIP3    H133114   6.145   7.802   2.900
11057TIP3    H233115   5.997   7.801   2.868
11058TIP3   OH233116   1.197   5.058   6.075
11058TIP3    H133117   1.165   4.982   6.027
11058TIP3    H233118   1.197   5.030   6.167
11059TIP3   OH233119   1.652   6.167   2.287
11059TIP3    H133120   1.687   6.247   2.247
11059TIP3    H233121   1.558   6.171   2.273
11060TIP3   OH233122   4.987   7.052   5.136
11060TIP3    H133123   4.977   6.999   5.056
11060TIP3    H233124   5.037   6.997   5.195
11061TIP3   OH233125   1.089   0.580   4.635
11061TIP3    H133126   1.170   0.530   4.624
11061TIP3    H233127   1.020   0.514   4.632
11062TIP3   OH233128   6.330   5.616   4.388
11062TIP3    H133129   6.422   5.602   4.408
11062TIP3    H233130   6.328   5.698   4.340
11063TIP3   OH233131   1.540   4.016   2.580
11063TIP3    H133132   1.633   4.011   2.558
11063TIP3    H233133   1.504   4.077   2.515
11064TIP3   OH233134   4.445   2.475   1.275
11064TIP3    H133135   4.503   2.467   1.200
11064TIP3    H233136   4.471   2.405   1.335
11065TIP3   OH233137   5.232   4.618   1.550
11065TIP3    H133138   5.303   4.668   1.510
11065TIP3    H233139   5.215   4.547   1.488
11066TIP3   OH233140   5.269   7.515   3.342
11066TIP3    H133141   5.285   7.602   3.377
11066TIP3    H233142   5.325   7.510   3.264
11067TIP3   OH233143   2.883   4.668   5.209
11067TIP3    H133144   2.886   4.690   5.303
11067TIP3    H233145   2.955   4.717   5.171
11068TIP3   OH233146   1.087   3.409   5.363
11068TIP3    H133147   1.079   3.398   5.268
11068TIP3    H233148   1.150   3.480   5.373
11069TIP3   OH233149   7.930   4.150   5.016
11069TIP3    H133150   7.879   4.076   5.050
11069TIP3    H233151   8.004   4.110   4.971
11070TIP3   OH233152   4.823   5.811   3.125
11070TIP3    H133153   4.900   5.758   3.145
11070TIP3    H233154   4.756   5.748   3.101
11071TIP3   OH233155   0.557   0.895   5.208
11071TIP3    H133156   0.599   0.810   5.196
11071TIP3    H233157   0.544   0.902   5.303
11072TIP3   OH233158   4.263   0.784   6.094
11072TIP3    H133159   4.264   0.834   6.176
11072TIP3    H233160   4.226   0.844   6.030
11073TIP3   OH233161   6.970   1.686   0.913
11073TIP3    H133162   6.897   1.691   0.851
11073TIP3    H233163   6.962   1.766   0.965
11074TIP3   OH233164   4.496   0.852   4.646
11074TIP3    H133165   4.432   0.876   4.578
11074TIP3    H233166   4.524   0.936   4.683
11075TIP3   OH233167   1.919   7.043   1.818
11075TIP3    H133168   1.837   7.090   1.829
11075TIP3    H233169   1.918   7.013   1.727
11076TIP3   OH233170   6.390   5.075   4.091
11076TIP3    H133171   6.318   5.131   4.063
11076TIP3    H233172   6.355   4.986   4.083
11077TIP3   OH233173   0.948   5.403   4.108
11077TIP3    H133174   0.879   5.399   4.042
11077TIP3    H233175   1.007   5.471   4.077
11078TIP3   OH233176   0.431   4.729   6.093
11078TIP3    H133177   0.429   4.634   6.080
11078TIP3    H233178   0.374   4.764   6.024
11079TIP3   OH233179   6.381   7.087   6.703
11079TIP3    H133180   6.389   7.169   6.752
11079TIP3    H233181   6.467   7.046   6.711
11080TIP3   OH233182   0.073   4.190   0.474
11080TIP3    H133183   0.140   4.238   0.522
11080TIP3    H233184   0.002   4.180   0.538
11081TIP3   OH233185   5.215   1.999   0.747
11081TIP3    H133186   5.289   2.045   0.786
11081TIP3    H233187   5.239   1.987   0.655
11082TIP3   OH233188   3.883   5.771   6.628
11082TIP3    H133189   3.908   5.706   6.693
11082TIP3    H233190   3.841   5.720   6.558
11083TIP3   OH233191   1.549   4.341   6.542
11083TIP3    H133192   1.472   4.394   6.521
11083TIP3    H233193   1.532   4.307   6.629
11084TIP3   OH233194   3.660   4.658   6.197
11084TIP3    H133195   3.632   4.725   6.134
11084TIP3    H233196   3.583   4.601   6.206
11085TIP3   OH233197   1.349   2.517   5.455
11085TIP3    H133198   1.402   2.589   5.488
11085TIP3    H233199   1.322   2.469   5.533
11086TIP3   OH233200   5.806   0.167   1.213
11086TIP3    H133201   5.760   0.235   1.262
11086TIP3    H233202   5.814   0.201   1.124
11087TIP3   OH233203   5.119   3.200   0.155
11087TIP3    H133204   5.154   3.286   0.175
11087TIP3    H233205   5.157   3.142   0.222
11088TIP3   OH233206   7.552   6.114   0.956
11088TIP3    H133207   7.468   6.109   1.003
11088TIP3    H233208   7.608   6.051   1.000
11089TIP3   OH233209   0.461   2.127   5.307
11089TIP3    H133210   0.479   2.048   5.256
11089TIP3    H233211   0.384   2.166   5.265
11090TIP3   OH233212   0.110   5.332   0.756
11090TIP3    H133213   0.128   5.416   0.713
11090TIP3    H233214   0.196   5.292   0.767
11091TIP3   OH233215   3.600   1.347   1.340
11091TIP3    H133216   3.546   1.337   1.262
11091TIP3    H233217   3.549   1.406   1.396
11092TIP3   OH233218   2.392   5.656   1.349
11092TIP3    H133219   2.487   5.646   1.342
11092TIP3    H233220   2.356   5.590   1.289
11093TIP3   OH233221   0.225   6.294   3.069
11093TIP3    H133222   0.298   6.292   3.131
11093TIP3    H233223   0.223   6.385   3.038
11094TIP3   OH233224   6.711   4.589   1.687
11094TIP3    H133225   6.764   4.512   1.704
11094TIP3    H233226   6.734   4.615   1.598
11095TIP3   OH233227   0.905   1.745   4.356
11095TIP3    H133228   0.898   1.767   4.449
11095TIP3    H233229   0.863   1.818   4.311
11096TIP3   OH233230   5.699   6.073   4.379
11096TIP3    H133231   5.776   6.099   4.429
11096TIP3    H233232   5.706   5.978   4.371
11097TIP3   OH233233   3.085   3.444   6.238
11097TIP3    H133234   3.099   3.538   6.248
11097TIP3    H233235   3.099   3.408   6.325
11098TIP3   OH233236   2.936   6.222   2.813
11098TIP3    H133237   2.855   6.212   2.764
11098TIP3    H233238   3.002   6.243   2.746
11099TIP3   OH233239   0.776   2.584   5.741
11099TIP3    H133240   0.866   2.602   5.713
11099TIP3    H233241   0.772   2.489   5.750
11100TIP3   OH233242   6.152   3.254   2.839
11100TIP3    H133243   6.073   3.302   2.816
11100TIP3    H233244   6.164   3.191   2.768
11101TIP3   OH233245   5.920   1.863   6.544
11101TIP3    H133246   5.859   1.934   6.562
11101TIP3    H233247   5.972   1.894   6.470
11102TIP3   OH233248   4.883   2.439   3.914
11102TIP3    H133249   4.858   2.471   3.827
11102TIP3    H233250   4.801   2.410   3.954
11103TIP3   OH233251   2.156   1.574   2.420
11103TIP3    H133252   2.076   1.616   2.389
11103TIP3    H233253   2.224   1.640   2.408
11104TIP3   OH233254   2.385   4.471   4.188
11104TIP3    H133255   2.461   4.450   4.241
11104TIP3    H233256   2.406   4.438   4.101
11105TIP3   OH233257   6.718   3.680   1.258
11105TIP3    H133258   6.753   3.759   1.299
11105TIP3    H233259   6.638   3.709   1.213
11106TIP3   OH233260   2.832   3.273   6.350
11106TIP3    H133261   2.760   3.278   6.287
11106TIP3    H233262   2.849   3.179   6.360
11107TIP3   OH233263   2.151   0.184   3.222
11107TIP3    H133264   2.215   0.118   3.252
11107TIP3    H233265   2.100   0.139   3.155
11108TIP3   OH233266   0.557   7.688   1.928
11108TIP3    H133267   0.515   7.622   1.983
11108TIP3    H233268   0.650   7.682   1.950
11109TIP3   OH233269   5.298   7.268   4.188
11109TIP3    H133270   5.346   7.274   4.106
11109TIP3    H233271   5.216   7.224   4.165
11110TIP3   OH233272   5.622   6.283   0.993
11110TIP3    H133273   5.578   6.248   0.916
11110TIP3    H233274   5.619   6.212   1.057
11111TIP3   OH233275   3.782   3.968   5.206
11111TIP3    H133276   3.857   3.910   5.190
11111TIP3    H233277   3.713   3.934   5.148
11112TIP3   OH233278   2.521   0.515   3.762
11112TIP3    H133279   2.494   0.429   3.729
11112TIP3    H233280   2.445   0.546   3.811
11113TIP3   OH233281   4.645   6.012   3.150
11113TIP3    H133282   4.687   6.036   3.232
11113TIP3    H233283   4.700   5.943   3.113
11114TIP3   OH233284   0.059   7.627   4.459
11114TIP3    H133285   0.071   7.721   4.447
11114TIP3    H233286  -0.026   7.619   4.502
11115TIP3   OH233287   5.821   3.690   4.894
11115TIP3    H133288   5.763   3.766   4.891
11115TIP3    H233289   5.902   3.724   4.933
11116TIP3   OH233290   6.518   5.216   0.806
11116TIP3    H133291   6.608   5.231   0.834
11116TIP3    H233292   6.526   5.193   0.713
11117TIP3   OH233293   2.094   4.710   0.697
11117TIP3    H133294   2.155   4.649   0.655
11117TIP3    H233295   2.131   4.725   0.783
11118TIP3   OH233296   1.010   5.007   2.278
11118TIP3    H133297   1.052   5.092   2.268
11118TIP3    H233298   0.968   4.991   2.193
11119TIP3   OH233299   2.423   1.430   6.552
11119TIP3    H133300   2.370   1.495   6.504
11119TIP3    H233301   2.407   1.450   6.644
11120TIP3   OH233302   3.685   2.820   0.856
11120TIP3    H133303   3.589   2.822   0.851
11120TIP3    H233304   3.705   2.746   0.913
11121TIP3   OH233305   1.534   4.839   6.137
11121TIP3    H133306   1.520   4.907   6.071
11121TIP3    H233307   1.486   4.871   6.214
11122TIP3   OH233308   2.895   1.873   2.036
11122TIP3    H133309   2.920   1.926   1.960
11122TIP3    H233310   2.800   1.863   2.027
11123TIP3   OH233311   2.676   1.514   1.221
11123TIP3    H133312   2.678   1.582   1.289
11123TIP3    H233313   2.599   1.461   1.243
11124TIP3   OH233314   4.416   2.263   0.093
11124TIP3    H133315   4.440   2.176   0.123
11124TIP3    H233316   4.393   2.252   0.000
11125TIP3   OH233317   3.844   5.736   0.615
11125TIP3    H133318   3.752   5.760   0.608
11125TIP3    H233319   3.887   5.788   0.547
11126TIP3   OH233320   4.983   5.996   4.317
11126TIP3    H133321   5.055   5.982   4.379
11126TIP3    H233322   4.989   5.922   4.256
11127TIP3   OH233323   0.371   1.398   2.542
11127TIP3    H133324   0.384   1.342   2.619
11127TIP3    H233325   0.279   1.424   2.548
11128TIP3   OH233326   4.185   4.588   5.445
11128TIP3    H133327   4.172   4.500   5.479
11128TIP3    H233328   4.114   4.639   5.485
11129TIP3   OH233329   4.357   1.866   3.485
11129TIP3    H133330   4.350   1.913   3.569
11129TIP3    H233331   4.327   1.777   3.505
11130TIP3   OH233332   4.370   1.364   1.549
11130TIP3    H133333   4.309   1.290   1.552
11130TIP3    H233334   4.452   1.326   1.517
11131TIP3   OH233335   2.325   0.843   0.731
11131TIP3    H133336   2.393   0.778   0.718
11131TIP3    H233337   2.320   0.891   0.649
11132TIP3   OH233338   2.478   2.279   4.160
11132TIP3    H133339   2.440   2.366   4.169
11132TIP3    H233340   2.501   2.272   4.067
11133TIP3   OH233341   6.317   3.030   1.505
11133TIP3    H133342   6.241   3.083   1.530
11133TIP3    H233343   6.388   3.093   1.499
11134TIP3   OH233344   5.593   6.883   4.572
11134TIP3    H133345   5.535   6.947   4.613
11134TIP3    H233346   5.646   6.849   4.644
11135TIP3   OH233347   3.170   5.075   0.995
11135TIP3    H133348   3.091   5.081   0.942
11135TIP3    H233349   3.214   4.996   0.965
11136TIP3   OH233350   2.020   4.810   3.629
11136TIP3    H133351   1.930   4.808   3.595
11136TIP3    H233352   2.075   4.819   3.552
11137TIP3   OH233353   1.943   5.047   5.119
11137TIP3    H133354   1.939   5.112   5.049
11137TIP3    H233355   1.908   4.967   5.080
11138TIP3   OH233356   6.620   3.427   3.494
11138TIP3    H133357   6.704   3.443   3.536
11138TIP3    H233358   6.610   3.500   3.433
11139TIP3   OH233359   1.802   3.011   0.685
11139TIP3    H133360   1.716   3.029   0.722
11139TIP3    H233361   1.809   2.916   0.684
11140TIP3   OH233362   1.135   2.920   4.401
11140TIP3    H133363   1.223   2.957   4.402
11140TIP3    H233364   1.128   2.876   4.316
11141TIP3   OH233365   0.784   2.117   2.614
11141TIP3    H133366   0.861   2.085   2.567
11141TIP3    H233367   0.813   2.200   2.652
11142TIP3   OH233368   0.814   2.628   1.382
11142TIP3    H133369   0.778   2.540   1.374
11142TIP3    H233370   0.810   2.664   1.293
11143TIP3   OH233371   6.134   3.332   1.889
11143TIP3    H133372   6.151   3.425   1.907
11143TIP3    H233373   6.042   3.320   1.911
11144TIP3   OH233374   3.677   2.245   4.946
11144TIP3    H133375   3.678   2.150   4.954
11144TIP3    H233376   3.764   2.273   4.977
11145TIP3   OH233377   7.705   1.990   2.385
11145TIP3    H133378   7.700   2.053   2.457
11145TIP3    H233379   7.615   1.980   2.356
11146TIP3   OH233380   3.468   6.687   4.733
11146TIP3    H133381   3.431   6.718   4.815
11146TIP3    H233382   3.392   6.673   4.676
11147TIP3   OH233383   4.902   4.037   5.574
11147TIP3    H133384   4.955   4.039   5.653
11147TIP3    H233385   4.957   4.078   5.507
11148TIP3   OH233386   2.742   5.230   3.252
11148TIP3    H133387   2.741   5.284   3.332
11148TIP3    H233388   2.765   5.143   3.284
11149TIP3   OH233389   5.614   3.560   4.635
11149TIP3    H133390   5.672   3.487   4.615
11149TIP3    H233391   5.589   3.546   4.727
11150TIP3   OH233392   1.237   6.507   2.171
11150TIP3    H133393   1.186   6.438   2.128
11150TIP3    H233394   1.176   6.549   2.232
11151TIP3   OH233395   7.487   6.640   3.181
11151TIP3    H133396   7.423   6.674   3.244
11151TIP3    H233397   7.556   6.707   3.178
11152TIP3   OH233398   4.099   5.233   5.673
11152TIP3    H133399   4.179   5.235   5.726
11152TIP3    H233400   4.126   5.271   5.589
11153TIP3   OH233401   6.535   2.628   3.698
11153TIP3    H133402   6.561   2.664   3.613
11153TIP3    H233403   6.593   2.553   3.711
11154TIP3   OH233404   1.146   7.769   3.937
11154TIP3    H133405   1.230   7.815   3.937
11154TIP3    H233406   1.105   7.795   3.855
11155TIP3   OH233407   0.515   5.640   2.195
11155TIP3    H133408   0.473   5.720   2.166
11155TIP3    H233409   0.604   5.645   2.160
11156TIP3   OH233410   4.439   4.623   0.974
11156TIP3    H133411   4.473   4.578   0.898
11156TIP3    H233412   4.437   4.556   1.043
11157TIP3   OH233413   1.814   7.716   2.236
11157TIP3    H133414   1.834   7.809   2.224
11157TIP3    H233415   1.765   7.691   2.158
11158TIP3   OH233416   7.664   6.601   1.224
11158TIP3    H133417   7.704   6.563   1.146
11158TIP3    H233418   7.651   6.694   1.202
11159TIP3   OH233419   1.592   5.243   2.062
11159TIP3    H133420   1.587   5.305   2.135
11159TIP3    H233421   1.525   5.177   2.082
11160TIP3   OH233422   0.830   4.873   3.523
11160TIP3    H133423   0.809   4.854   3.431
11160TIP3    H233424   0.909   4.822   3.540
11161TIP3   OH233425   3.154   3.911   4.716
11161TIP3    H133426   3.088   3.975   4.742
11161TIP3    H233427   3.117   3.827   4.743
11162TIP3   OH233428   4.084   4.511   6.311
11162TIP3    H133429   4.107   4.479   6.224
11162TIP3    H233430   4.102   4.437   6.369
11163TIP3   OH233431   1.221   2.950   1.962
11163TIP3    H133432   1.152   2.947   2.028
11163TIP3    H233433   1.178   2.981   1.883
11164TIP3   OH233434   2.354   2.810   1.216
11164TIP3    H133435   2.291   2.854   1.159
11164TIP3    H233436   2.301   2.750   1.269
11165TIP3   OH233437   0.825   6.292   2.168
11165TIP3    H133438   0.805   6.199   2.177
11165TIP3    H233439   0.916   6.300   2.197
11166TIP3   OH233440   2.817   5.999   4.272
11166TIP3    H133441   2.795   5.948   4.350
11166TIP3    H233442   2.815   6.090   4.301
11167TIP3   OH233443   4.129   0.528   1.673
11167TIP3    H133444   4.082   0.534   1.589
11167TIP3    H233445   4.220   0.512   1.649
11168TIP3   OH233446   4.746   3.538   0.880
11168TIP3    H133447   4.668   3.483   0.886
11168TIP3    H233448   4.817   3.477   0.860
11169TIP3   OH233449   5.722   1.811   0.658
11169TIP3    H133450   5.639   1.767   0.674
11169TIP3    H233451   5.714   1.844   0.568
11170TIP3   OH233452   0.505   7.360   2.485
11170TIP3    H133453   0.587   7.317   2.511
11170TIP3    H233454   0.533   7.444   2.448
11171TIP3   OH233455   4.419   5.535   0.630
11171TIP3    H133456   4.444   5.600   0.696
11171TIP3    H233457   4.347   5.487   0.671
11172TIP3   OH233458   2.087   7.263   1.450
11172TIP3    H133459   2.141   7.341   1.440
11172TIP3    H233460   1.998   7.297   1.461
11173TIP3   OH233461   4.214   1.257   3.500
11173TIP3    H133462   4.302   1.246   3.534
11173TIP3    H233463   4.157   1.218   3.567
11174TIP3   OH233464   7.121   3.123   3.736
11174TIP3    H133465   7.140   3.065   3.662
11174TIP3    H233466   7.025   3.127   3.739
11175TIP3   OH233467   3.397   5.628   6.035
11175TIP3    H133468   3.361   5.712   6.005
11175TIP3    H233469   3.390   5.571   5.958
11176TIP3   OH233470   7.368   5.503   1.860
11176TIP3    H133471   7.399   5.417   1.890
11176TIP3    H233472   7.420   5.520   1.781
11177TIP3   OH233473   2.499   3.370   2.055
11177TIP3    H133474   2.507   3.280   2.024
11177TIP3    H233475   2.590   3.399   2.068
11178TIP3   OH233476   0.504   4.265   2.289
11178TIP3    H133477   0.467   4.198   2.231
11178TIP3    H233478   0.597   4.266   2.267
11179TIP3   OH233479   2.157   7.765   6.417
11179TIP3    H133480   2.105   7.807   6.486
11179TIP3    H233481   2.205   7.696   6.463
11180TIP3   OH233482   1.158   3.221   3.364
11180TIP3    H133483   1.131   3.308   3.394
11180TIP3    H233484   1.223   3.192   3.429
11181TIP3   OH233485   3.232   5.901   3.472
11181TIP3    H133486   3.286   5.925   3.397
11181TIP3    H233487   3.257   5.964   3.540
11182TIP3   OH233488   5.096   5.069   4.897
11182TIP3    H133489   5.053   5.087   4.814
11182TIP3    H233490   5.136   4.983   4.886
11183TIP3   OH233491   1.825   0.865   6.502
11183TIP3    H133492   1.826   0.960   6.495
11183TIP3    H233493   1.801   0.835   6.414
11184TIP3   OH233494   2.944   7.030   0.660
11184TIP3    H133495   2.860   7.052   0.618
11184TIP3    H233496   2.986   7.115   0.673
11185TIP3   OH233497   4.540   5.600   1.741
11185TIP3    H133498   4.510   5.527   1.796
11185TIP3    H233499   4.463   5.655   1.730
11186TIP3   OH233500   5.541   3.258   1.578
11186TIP3    H133501   5.535   3.168   1.547
11186TIP3    H233502   5.535   3.311   1.498
11187TIP3   OH233503   4.949   6.672   6.555
11187TIP3    H133504   4.965   6.710   6.641
11187TIP3    H233505   4.897   6.593   6.572
11188TIP3   OH233506   2.999   6.432   2.230
11188TIP3    H133507   2.974   6.399   2.317
11188TIP3    H233508   3.080   6.385   2.209
11189TIP3   OH233509   0.922   5.703   5.276
11189TIP3    H133510   0.860   5.735   5.211
11189TIP3    H233511   0.970   5.780   5.305
11190TIP3   OH233512   1.112   0.012   1.315
11190TIP3    H133513   1.129   0.078   1.248
11190TIP3    H233514   1.177   0.029   1.383
11191TIP3   OH233515   3.380   5.518   3.958
11191TIP3    H133516   3.442   5.567   4.011
11191TIP3    H233517   3.330   5.585   3.911
11192TIP3   OH233518   0.766   1.243   6.647
11192TIP3    H133519   0.845   1.295   6.660
11192TIP3    H233520   0.694   1.304   6.659
11193TIP3   OH233521   2.868   7.483   2.484
11193TIP3    H133522   2.931   7.542   2.526
11193TIP3    H233523   2.879   7.400   2.530
11194TIP3   OH233524   1.040   2.112   2.495
11194TIP3    H133525   1.021   2.042   2.432
11194TIP3    H233526   1.104   2.074   2.555
11195TIP3   OH233527   7.901   3.183   0.098
11195TIP3    H133528   7.833   3.130   0.139
11195TIP3    H233529   7.978   3.172   0.154
11196TIP3   OH233530   6.054   5.145   2.699
11196TIP3    H133531   6.016   5.058   2.684
11196TIP3    H233532   6.012   5.177   2.779
11197TIP3   OH233533   5.991   3.816   0.408
11197TIP3    H133534   6.060   3.778   0.354
11197TIP3    H233535   6.037   3.875   0.468
11198TIP3   OH233536   5.553   4.558   1.456
11198TIP3    H133537   5.540   4.549   1.362
11198TIP3    H233538   5.557   4.652   1.471
11199TIP3   OH233539   7.227   1.318   4.161
11199TIP3    H133540   7.146   1.269   4.172
11199TIP3    H233541   7.224   1.385   4.230
11200TIP3   OH233542   6.962   3.939   6.602
11200TIP3    H133543   6.937   3.853   6.634
11200TIP3    H233544   7.029   3.969   6.662
11201TIP3   OH233545   4.223   6.350   0.583
11201TIP3    H133546   4.258   6.289   0.648
11201TIP3    H233547   4.138   6.377   0.619
11202TIP3   OH233548   7.798   7.154   5.427
11202TIP3    H133549   7.708   7.183   5.444
11202TIP3    H233550   7.813   7.176   5.335
11203TIP3   OH233551   4.195   1.806   5.931
11203TIP3    H133552   4.178   1.844   6.017
11203TIP3    H233553   4.161   1.717   5.937
11204TIP3   OH233554   5.627   2.997   4.477
11204TIP3    H133555   5.602   2.978   4.387
11204TIP3    H233556   5.545   3.021   4.521
11205TIP3   OH233557   2.444   2.224   1.131
11205TIP3    H133558   2.403   2.281   1.197
11205TIP3    H233559   2.376   2.213   1.064
11206TIP3   OH233560   0.729   4.869   5.578
11206TIP3    H133561   0.753   4.951   5.620
11206TIP3    H233562   0.790   4.804   5.612
11207TIP3   OH233563   6.651   3.809   5.215
11207TIP3    H133564   6.578   3.849   5.168
11207TIP3    H233565   6.724   3.870   5.201
11208TIP3   OH233566   0.820   6.262   0.457
11208TIP3    H133567   0.812   6.221   0.543
11208TIP3    H233568   0.893   6.217   0.415
11209TIP3   OH233569   3.138   5.135   4.125
11209TIP3    H133570   3.168   5.209   4.072
11209TIP3    H233571   3.192   5.139   4.205
11210TIP3   OH233572   5.682   2.190   0.708
11210TIP3    H133573   5.608   2.129   0.711
11210TIP3    H233574   5.739   2.161   0.779
11211TIP3   OH233575   0.174   5.786   1.514
11211TIP3    H133576   0.163   5.879   1.493
11211TIP3    H233577   0.100   5.766   1.572
11212TIP3   OH233578   6.273   6.044   0.639
11212TIP3    H133579   6.323   6.052   0.720
11212TIP3    H233580   6.294   6.123   0.589
11213TIP3   OH233581   2.614   6.796   4.059
11213TIP3    H133582   2.655   6.710   4.059
11213TIP3    H233583   2.533   6.783   4.109
11214TIP3   OH233584   5.444   0.362   4.256
11214TIP3    H133585   5.458   0.380   4.350
11214TIP3    H233586   5.384   0.288   4.254
11215TIP3   OH233587   4.184   5.775   2.953
11215TIP3    H133588   4.161   5.694   2.908
11215TIP3    H233589   4.217   5.833   2.883
11216TIP3   OH233590   5.999   1.667   0.687
11216TIP3    H133591   5.929   1.705   0.635
11216TIP3    H233592   6.042   1.605   0.628
11217TIP3   OH233593   5.271   3.334   5.058
11217TIP3    H133594   5.304   3.285   5.133
11217TIP3    H233595   5.260   3.269   4.989
11218TIP3   OH233596   6.989   7.150   2.286
11218TIP3    H133597   7.029   7.203   2.217
11218TIP3    H233598   6.985   7.208   2.362
11219TIP3   OH233599   4.203   4.831   5.263
11219TIP3    H133600   4.138   4.874   5.319
11219TIP3    H233601   4.153   4.765   5.215
11220TIP3   OH233602   4.509   4.148   6.086
11220TIP3    H133603   4.566   4.164   6.161
11220TIP3    H233604   4.445   4.219   6.089
11221TIP3   OH233605   0.169   2.065   5.581
11221TIP3    H133606   0.135   2.008   5.512
11221TIP3    H233607   0.137   2.152   5.559
11222TIP3   OH233608   1.820   3.672   3.376
11222TIP3    H133609   1.766   3.740   3.416
11222TIP3    H233610   1.906   3.682   3.419
11223TIP3   OH233611   7.553   2.825   6.434
11223TIP3    H133612   7.494   2.756   6.464
11223TIP3    H233613   7.606   2.782   6.366
11224TIP3   OH233614   3.546   5.157   6.545
11224TIP3    H133615   3.556   5.063   6.557
11224TIP3    H233616   3.625   5.185   6.500
11225TIP3   OH233617   2.442   4.829   6.035
11225TIP3    H133618   2.512   4.779   5.993
11225TIP3    H233619   2.409   4.887   5.966
11226TIP3   OH233620   3.413   0.789   4.965
11226TIP3    H133621   3.427   0.847   4.891
11226TIP3    H233622   3.343   0.730   4.937
11227TIP3   OH233623   6.973   4.668   3.549
11227TIP3    H133624   6.883   4.675   3.515
11227TIP3    H233625   6.989   4.754   3.588
11228TIP3   OH233626   6.721   4.418   0.033
11228TIP3    H133627   6.779   4.472   0.086
11228TIP3    H233628   6.632   4.444   0.060
11229TIP3   OH233629   5.935   2.252   3.038
11229TIP3    H133630   5.864   2.305   3.074
11229TIP3    H233631   6.002   2.315   3.013
11230TIP3   OH233632   5.148   5.734   2.400
11230TIP3    H133633   5.078   5.695   2.453
11230TIP3    H233634   5.176   5.811   2.450
11231TIP3   OH233635   1.979   6.675   1.182
11231TIP3    H133636   1.973   6.661   1.276
11231TIP3    H233637   1.901   6.725   1.160
11232TIP3   OH233638   1.765   6.328   6.573
11232TIP3    H133639   1.850   6.364   6.599
11232TIP3    H233640   1.771   6.235   6.595
11233TIP3   OH233641   0.691   4.766   4.317
11233TIP3    H133642   0.611   4.808   4.285
11233TIP3    H233643   0.703   4.691   4.259
11234TIP3   OH233644   0.108   6.552   1.272
11234TIP3    H133645   0.055   6.605   1.213
11234TIP3    H233646   0.048   6.486   1.306
11235TIP3   OH233647   0.796   4.458   6.042
11235TIP3    H133648   0.821   4.378   6.087
11235TIP3    H233649   0.768   4.518   6.111
11236TIP3   OH233650   3.000   4.271   5.057
11236TIP3    H133651   2.918   4.274   5.105
11236TIP3    H233652   2.977   4.297   4.967
11237TIP3   OH233653   3.726   7.577   3.048
11237TIP3    H133654   3.752   7.485   3.053
11237TIP3    H233655   3.766   7.617   3.125
11238TIP3   OH233656   6.898   5.999   6.619
11238TIP3    H133657   6.940   5.963   6.697
11238TIP3    H233658   6.810   6.025   6.648
11239TIP3   OH233659   1.690   1.105   1.017
11239TIP3    H133660   1.640   1.163   0.959
11239TIP3    H233661   1.653   1.118   1.103
11240TIP3   OH233662   1.659   0.930   2.583
11240TIP3    H133663   1.613   0.889   2.510
11240TIP3    H233664   1.599   0.997   2.616
11241TIP3   OH233665   6.495   0.043   0.609
11241TIP3    H133666   6.421   0.085   0.566
11241TIP3    H233667   6.491   0.074   0.700
11242TIP3   OH233668   7.355   6.961   1.321
11242TIP3    H133669   7.311   6.879   1.342
11242TIP3    H233670   7.317   7.025   1.381
11243TIP3   OH233671   6.077   3.943   3.776
11243TIP3    H133672   6.162   3.980   3.752
11243TIP3    H233673   6.032   3.931   3.692
11244TIP3   OH233674   4.640   0.561   2.283
11244TIP3    H133675   4.677   0.644   2.311
11244TIP3    H233676   4.621   0.573   2.190
11245TIP3   OH233677   2.714   5.343   1.151
11245TIP3    H133678   2.809   5.334   1.158
11245TIP3    H233679   2.682   5.253   1.141
11246TIP3   OH233680   5.256   0.815   1.210
11246TIP3    H133681   5.218   0.729   1.190
11246TIP3    H233682   5.298   0.842   1.128
11247TIP3   OH233683   3.752   1.315   1.702
11247TIP3    H133684   3.802   1.384   1.745
11247TIP3    H233685   3.741   1.248   1.770
11248TIP3   OH233686   2.371   5.357   5.585
11248TIP3    H133687   2.445   5.296   5.579
11248TIP3    H233688   2.392   5.427   5.523
11249TIP3   OH233689   2.795   7.536   5.045
11249TIP3    H133690   2.833   7.624   5.046
11249TIP3    H233691   2.727   7.540   4.978
11250TIP3   OH233692   6.459   0.692   4.737
11250TIP3    H133693   6.423   0.683   4.649
11250TIP3    H233694   6.539   0.744   4.726
11251TIP3   OH233695   4.545   7.731   4.762
11251TIP3    H133696   4.521   7.641   4.785
11251TIP3    H233697   4.543   7.779   4.845
11252TIP3   OH233698   8.137   6.660   6.540
11252TIP3    H133699   8.080   6.687   6.467
11252TIP3    H233700   8.165   6.743   6.580
11253TIP3   OH233701   0.501   6.601   4.680
11253TIP3    H133702   0.414   6.569   4.704
11253TIP3    H233703   0.561   6.537   4.719
11254TIP3   OH233704   2.697   5.459   2.544
11254TIP3    H133705   2.685   5.433   2.635
11254TIP3    H233706   2.731   5.381   2.500
11255TIP3   OH233707   6.448   5.805   4.041
11255TIP3    H133708   6.464   5.711   4.043
11255TIP3    H233709   6.507   5.838   3.973
11256TIP3   OH233710   2.706   1.979   3.151
11256TIP3    H133711   2.792   1.950   3.120
11256TIP3    H233712   2.710   1.968   3.246
11257TIP3   OH233713   0.077   7.748   1.280
11257TIP3    H133714   0.146   7.697   1.323
11257TIP3    H233715   0.084   7.725   1.188
11258TIP3   OH233716   1.575   1.725   0.886
11258TIP3    H133717   1.669   1.705   0.892
11258TIP3    H233718   1.541   1.660   0.824
11259TIP3   OH233719   7.907   1.134   2.194
11259TIP3    H133720   7.913   1.223   2.160
11259TIP3    H233721   7.814   1.119   2.205
11260TIP3   OH233722   5.574   3.390   3.181
11260TIP3    H133723   5.516   3.444   3.128
11260TIP3    H233724   5.615   3.452   3.241
11261TIP3   OH233725   2.659   1.471   5.946
11261TIP3    H133726   2.700   1.544   5.898
11261TIP3    H233727   2.595   1.514   6.002
11262TIP3   OH233728   1.795   2.865   5.648
11262TIP3    H133729   1.788   2.838   5.739
11262TIP3    H233730   1.843   2.794   5.605
11263TIP3   OH233731   4.089   5.013   2.624
11263TIP3    H133732   4.102   4.921   2.648
11263TIP3    H233733   4.081   5.058   2.708
11264TIP3   OH233734   4.588   2.701   3.281
11264TIP3    H133735   4.615   2.770   3.341
11264TIP3    H233736   4.510   2.736   3.237
11265TIP3   OH233737   5.878   5.501   2.864
11265TIP3    H133738   5.802   5.507   2.806
11265TIP3    H233739   5.892   5.408   2.877
11266TIP3   OH233740   0.533   0.781   4.213
11266TIP3    H133741   0.625   0.794   4.234
11266TIP3    H233742   0.525   0.687   4.195
11267TIP3   OH233743   4.150   7.241   1.063
11267TIP3    H133744   4.228   7.202   1.103
11267TIP3    H233745   4.101   7.278   1.136
11268TIP3   OH233746   0.156   4.319   4.867
11268TIP3    H133747   0.216   4.324   4.793
11268TIP3    H233748   0.188   4.245   4.919
11269TIP3   OH233749   3.238   7.566   0.687
11269TIP3    H133750   3.208   7.638   0.631
11269TIP3    H233751   3.292   7.512   0.629
11270TIP3   OH233752   7.697   3.265   0.571
11270TIP3    H133753   7.650   3.193   0.528
11270TIP3    H233754   7.631   3.333   0.584
11271TIP3   OH233755   2.626   6.495   1.939
11271TIP3    H133756   2.556   6.473   2.001
11271TIP3    H233757   2.580   6.542   1.868
11272TIP3   OH233758   0.800   5.162   3.293
11272TIP3    H133759   0.745   5.233   3.327
11272TIP3    H233760   0.741   5.112   3.237
11273TIP3   OH233761   0.549   0.152   4.005
11273TIP3    H133762   0.490   0.193   3.942
11273TIP3    H233763   0.587   0.078   3.957
11274TIP3   OH233764   7.194   4.200   1.745
11274TIP3    H133765   7.275   4.177   1.700
11274TIP3    H233766   7.181   4.129   1.808
11275TIP3   OH233767   1.716   0.526   4.977
11275TIP3    H133768   1.791   0.495   5.028
11275TIP3    H233769   1.653   0.556   5.042
11276TIP3   OH233770   0.846   6.396   2.953
11276TIP3    H133771   0.813   6.322   3.005
11276TIP3    H233772   0.887   6.454   3.017
11277TIP3   OH233773   3.654   2.369   1.626
11277TIP3    H133774   3.695   2.300   1.575
11277TIP3    H233775   3.563   2.342   1.634
11278TIP3   OH233776   2.493   0.063   1.024
11278TIP3    H133777   2.513   0.143   1.073
11278TIP3    H233778   2.547   0.068   0.946
11279TIP3   OH233779   7.398   0.035   4.161
11279TIP3    H133780   7.400   0.109   4.222
11279TIP3    H233781   7.380   0.074   4.076
11280TIP3   OH233782   2.452   5.328   4.967
11280TIP3    H133783   2.371   5.372   4.994
11280TIP3    H233784   2.521   5.377   5.012
11281TIP3   OH233785   1.175   1.170   3.235
11281TIP3    H133786   1.152   1.139   3.147
11281TIP3    H233787   1.137   1.258   3.240
11282TIP3   OH233788   5.144   6.133   0.766
11282TIP3    H133789   5.052   6.133   0.794
11282TIP3    H233790   5.143   6.173   0.679
11283TIP3   OH233791   6.093   4.334   5.497
11283TIP3    H133792   6.185   4.310   5.481
11283TIP3    H233793   6.048   4.251   5.508
11284TIP3   OH233794   6.188   0.680   3.815
11284TIP3    H133795   6.230   0.747   3.869
11284TIP3    H233796   6.233   0.598   3.839
11285TIP3   OH233797   0.523   2.769   2.329
11285TIP3    H133798   0.515   2.674   2.318
11285TIP3    H233799   0.526   2.781   2.424
11286TIP3   OH233800   4.631   2.860   0.438
11286TIP3    H133801   4.665   2.849   0.527
11286TIP3    H233802   4.579   2.782   0.423
11287TIP3   OH233803   5.753   3.809   2.980
11287TIP3    H133804   5.833   3.758   2.965
11287TIP3    H233805   5.760   3.836   3.072
11288TIP3   OH233806   0.749   3.319   4.744
11288TIP3    H133807   0.772   3.368   4.665
11288TIP3    H233808   0.748   3.386   4.813
11289TIP3   OH233809   7.689   5.220   6.239
11289TIP3    H133810   7.649   5.300   6.204
11289TIP3    H233811   7.732   5.248   6.320
11290TIP3   OH233812   3.702   5.988   3.216
11290TIP3    H133813   3.762   6.060   3.237
11290TIP3    H233814   3.638   6.027   3.157
11291TIP3   OH233815   4.643   3.443   4.349
11291TIP3    H133816   4.592   3.444   4.430
11291TIP3    H233817   4.709   3.375   4.363
11292TIP3   OH233818   7.900   2.636   2.170
11292TIP3    H133819   7.971   2.572   2.177
11292TIP3    H233820   7.890   2.670   2.259
11293TIP3   OH233821   6.252   0.398   3.922
11293TIP3    H133822   6.258   0.313   3.878
11293TIP3    H233823   6.247   0.375   4.015
11294TIP3   OH233824   3.452   2.446   0.239
11294TIP3    H133825   3.490   2.437   0.152
11294TIP3    H233826   3.462   2.539   0.259
11295TIP3   OH233827   6.358   0.473   0.483
11295TIP3    H133828   6.374   0.567   0.487
11295TIP3    H233829   6.417   0.435   0.547
11296TIP3   OH233830   5.805   2.555   5.292
11296TIP3    H133831   5.876   2.492   5.280
11296TIP3    H233832   5.846   2.640   5.285
11297TIP3   OH233833   7.382   5.849   6.108
11297TIP3    H133834   7.413   5.913   6.172
11297TIP3    H233835   7.339   5.901   6.040
11298TIP3   OH233836   6.519   3.554   5.188
11298TIP3    H133837   6.562   3.512   5.113
11298TIP3    H233838   6.591   3.583   5.244
11299TIP3   OH233839   7.547   1.223   5.714
11299TIP3    H133840   7.626   1.273   5.694
11299TIP3    H233841   7.524   1.180   5.632
11300TIP3   OH233842   3.661   3.807   0.121
11300TIP3    H133843   3.582   3.758   0.096
11300TIP3    H233844   3.628   3.882   0.171
11301TIP3   OH233845   8.073   1.956   0.506
11301TIP3    H133846   8.077   2.000   0.591
11301TIP3    H233847   7.988   1.911   0.507
11302TIP3   OH233848   0.163   2.585   5.441
11302TIP3    H133849   0.241   2.636   5.418
11302TIP3    H233850   0.095   2.651   5.455
11303TIP3   OH233851   4.722   6.951   0.683
11303TIP3    H133852   4.747   6.960   0.775
11303TIP3    H233853   4.769   6.873   0.652
11304TIP3   OH233854   2.631   5.169   5.261
11304TIP3    H133855   2.591   5.086   5.285
11304TIP3    H233856   2.722   5.147   5.239
11305TIP3   OH233857   5.134   3.906   5.022
11305TIP3    H133858   5.091   3.904   4.937
11305TIP3    H233859   5.214   3.855   5.010
11306TIP3   OH233860   3.309   4.211   3.090
11306TIP3    H133861   3.341   4.125   3.115
11306TIP3    H233862   3.248   4.194   3.018
11307TIP3   OH233863   4.106   7.349   1.937
11307TIP3    H133864   4.104   7.294   2.015
11307TIP3    H233865   4.036   7.413   1.951
11308TIP3   OH233866   0.419   2.341   5.703
11308TIP3    H133867   0.484   2.349   5.633
11308TIP3    H233868   0.469   2.323   5.782
11309TIP3   OH233869   0.321   7.178   4.346
11309TIP3    H133870   0.238   7.147   4.311
11309TIP3    H233871   0.313   7.274   4.348
11310TIP3   OH233872   0.702   3.272   3.121
11310TIP3    H133873   0.769   3.231   3.065
11310TIP3    H233874   0.620   3.232   3.092
11311TIP3   OH233875   3.577   5.735   5.243
11311TIP3    H133876   3.663   5.695   5.230
11311TIP3    H233877   3.593   5.829   5.229
11312TIP3   OH233878   6.226   7.397   5.229
11312TIP3    H133879   6.242   7.333   5.160
11312TIP3    H233880   6.229   7.346   5.310
11313TIP3   OH233881   1.264   1.415   0.379
11313TIP3    H133882   1.331   1.459   0.326
11313TIP3    H233883   1.286   1.322   0.374
11314TIP3   OH233884   6.347   7.114   6.097
11314TIP3    H133885   6.394   7.138   6.018
11314TIP3    H233886   6.303   7.194   6.125
11315TIP3   OH233887   6.461   3.467   5.736
11315TIP3    H133888   6.552   3.445   5.719
11315TIP3    H233889   6.463   3.557   5.768
11316TIP3   OH233890   1.444   7.496   0.649
11316TIP3    H133891   1.360   7.469   0.612
11316TIP3    H233892   1.465   7.429   0.714
11317TIP3   OH233893   3.403   3.622   4.113
11317TIP3    H133894   3.475   3.605   4.174
11317TIP3    H233895   3.436   3.592   4.028
11318TIP3   OH233896   5.671   5.789   0.188
11318TIP3    H133897   5.587   5.760   0.225
11318TIP3    H233898   5.647   5.851   0.120
11319TIP3   OH233899   3.047   6.448   3.011
11319TIP3    H133900   3.107   6.521   3.002
11319TIP3    H233901   3.025   6.424   2.920
11320TIP3   OH233902   4.029   0.363   3.058
11320TIP3    H133903   4.071   0.281   3.082
11320TIP3    H233904   4.056   0.425   3.125
11321TIP3   OH233905   6.723   7.322   5.879
11321TIP3    H133906   6.787   7.253   5.859
11321TIP3    H233907   6.647   7.274   5.912
11322TIP3   OH233908   4.700   1.970   1.863
11322TIP3    H133909   4.791   1.985   1.885
11322TIP3    H233910   4.687   1.875   1.876
11323TIP3   OH233911   7.255   5.562   4.392
11323TIP3    H133912   7.350   5.568   4.399
11323TIP3    H233913   7.240   5.507   4.315
11324TIP3   OH233914   1.604   5.711   6.394
11324TIP3    H133915   1.648   5.733   6.476
11324TIP3    H233916   1.511   5.710   6.416
11325TIP3   OH233917   7.548   6.979   0.762
11325TIP3    H133918   7.608   6.909   0.790
11325TIP3    H233919   7.497   6.999   0.841
11326TIP3   OH233920   3.534   1.695   4.639
11326TIP3    H133921   3.455   1.644   4.656
11326TIP3    H233922   3.533   1.711   4.545
11327TIP3   OH233923   0.672   1.699   5.528
11327TIP3    H133924   0.716   1.741   5.455
11327TIP3    H233925   0.653   1.771   5.589
11328TIP3   OH233926   2.842   7.628   2.250
11328TIP3    H133927   2.932   7.642   2.220
11328TIP3    H233928   2.853   7.573   2.328
11329TIP3   OH233929   5.564   2.512   5.129
11329TIP3    H133930   5.641   2.566   5.146
11329TIP3    H233931   5.589   2.424   5.157
11330TIP3   OH233932   2.373   5.963   2.400
11330TIP3    H133933   2.426   5.892   2.363
11330TIP3    H233934   2.292   5.961   2.349
11331TIP3   OH233935   5.013   6.275   3.152
11331TIP3    H133936   5.040   6.230   3.232
11331TIP3    H233937   5.004   6.367   3.178
11332TIP3   OH233938   2.294   0.254   5.938
11332TIP3    H133939   2.314   0.340   5.901
11332TIP3    H233940   2.353   0.246   6.013
11333TIP3   OH233941   5.247   0.473   0.759
11333TIP3    H133942   5.184   0.402   0.765
11333TIP3    H233943   5.314   0.451   0.823
11334TIP3   OH233944   8.006   0.285   0.064
11334TIP3    H133945   8.039   0.234  -0.009
11334TIP3    H233946   7.987   0.372   0.027
11335TIP3   OH233947   6.197   2.274   0.559
11335TIP3    H133948   6.209   2.188   0.600
11335TIP3    H233949   6.115   2.266   0.510
11336TIP3   OH233950   8.223   5.842   6.728
11336TIP3    H133951   8.231   5.936   6.716
11336TIP3    H233952   8.193   5.831   6.818
11337TIP3   OH233953   2.559   1.149   4.169
11337TIP3    H133954   2.570   1.137   4.263
11337TIP3    H233955   2.504   1.227   4.161
11338TIP3   OH233956   5.266   4.360   5.661
11338TIP3    H133957   5.228   4.363   5.749
11338TIP3    H233958   5.352   4.322   5.673
11339TIP3   OH233959   8.095   3.704   0.322
11339TIP3    H133960   8.109   3.757   0.243
11339TIP3    H233961   8.127   3.759   0.394
11340TIP3   OH233962   4.851   3.981   1.577
11340TIP3    H133963   4.805   3.897   1.573
11340TIP3    H233964   4.839   4.011   1.667
11341TIP3   OH233965   4.056   2.092   2.860
11341TIP3    H133966   4.008   2.171   2.886
11341TIP3    H233967   4.148   2.114   2.876
11342TIP3   OH233968   4.238   4.491   2.399
11342TIP3    H133969   4.199   4.573   2.368
11342TIP3    H233970   4.248   4.504   2.494
11343TIP3   OH233971   3.726   1.587   1.201
11343TIP3    H133972   3.680   1.569   1.120
11343TIP3    H233973   3.713   1.508   1.254
11344TIP3   OH233974   6.940   1.963   4.772
11344TIP3    H133975   6.859   1.995   4.810
11344TIP3    H233976   6.952   1.876   4.811
11345TIP3   OH233977   5.830   3.856   6.499
11345TIP3    H133978   5.756   3.795   6.499
11345TIP3    H233979   5.800   3.929   6.444
11346TIP3   OH233980   0.355   2.062   0.383
11346TIP3    H133981   0.286   2.016   0.334
11346TIP3    H233982   0.400   1.993   0.432
11347TIP3   OH233983   4.245   5.151   0.142
11347TIP3    H133984   4.206   5.071   0.177
11347TIP3    H233985   4.317   5.121   0.087
11348TIP3   OH233986   5.310   6.024   0.129
11348TIP3    H133987   5.218   6.001   0.132
11348TIP3    H233988   5.350   5.977   0.202
11349TIP3   OH233989   3.554   3.784   1.012
11349TIP3    H133990   3.578   3.694   0.989
11349TIP3    H233991   3.615   3.809   1.081
11350TIP3   OH233992   1.168   3.097   4.066
11350TIP3    H133993   1.207   3.068   3.983
11350TIP3    H233994   1.243   3.105   4.126
11351TIP3   OH233995   2.991   5.313   1.492
11351TIP3    H133996   3.067   5.311   1.549
11351TIP3    H233997   3.017   5.265   1.414
11352TIP3   OH233998   5.527   6.922   5.210
11352TIP3    H133999   5.580   6.948   5.286
11352TIP3    H234000   5.591   6.902   5.142
11353TIP3   OH234001   2.320   7.346   6.771
11353TIP3    H134002   2.230   7.313   6.765
11353TIP3    H234003   2.364   7.285   6.829
11354TIP3   OH234004   2.905   1.696   2.910
11354TIP3    H134005   2.880   1.654   2.992
11354TIP3    H234006   2.942   1.780   2.936
11355TIP3   OH234007   7.083   5.132   6.582
11355TIP3    H134008   7.004   5.186   6.576
11355TIP3    H234009   7.051   5.043   6.595
11356TIP3   OH234010   4.659   5.371   0.964
11356TIP3    H134011   4.680   5.280   0.946
11356TIP3    H234012   4.662   5.378   1.060
11357TIP3   OH234013   1.610   1.277   6.392
11357TIP3    H134014   1.584   1.327   6.314
11357TIP3    H234015   1.554   1.311   6.461
11358TIP3   OH234016   4.867   1.346   6.446
11358TIP3    H134017   4.918   1.333   6.366
11358TIP3    H234018   4.830   1.260   6.464
11359TIP3   OH234019   3.169   0.993   0.534
11359TIP3    H134020   3.120   0.913   0.512
11359TIP3    H234021   3.143   1.013   0.624
11360TIP3   OH234022   7.936   4.198   4.587
11360TIP3    H134023   7.907   4.244   4.665
11360TIP3    H234024   8.021   4.160   4.612
11361TIP3   OH234025   2.556   1.171   0.083
11361TIP3    H134026   2.537   1.264   0.071
11361TIP3    H234027   2.479   1.126   0.047
11362TIP3   OH234028   5.447   4.588   2.169
11362TIP3    H134029   5.481   4.534   2.097
11362TIP3    H234030   5.485   4.674   2.153
11363TIP3   OH234031   2.626   2.027   4.957
11363TIP3    H134032   2.640   1.934   4.979
11363TIP3    H234033   2.618   2.071   5.041
11364TIP3   OH234034   2.035   7.546   2.289
11364TIP3    H134035   1.964   7.608   2.274
11364TIP3    H234036   2.012   7.469   2.236
11365TIP3   OH234037   4.230   3.360   0.842
11365TIP3    H134038   4.231   3.435   0.901
11365TIP3    H234039   4.257   3.286   0.895
11366TIP3   OH234040   2.094   0.668   2.714
11366TIP3    H134041   2.148   0.746   2.726
11366TIP3    H234042   2.072   0.668   2.621
11367TIP3   OH234043   1.922   0.164   3.991
11367TIP3    H134044   1.836   0.122   3.996
11367TIP3    H234045   1.968   0.116   3.921
11368TIP3   OH234046   4.306   0.022   6.297
11368TIP3    H134047   4.309  -0.032   6.219
11368TIP3    H234048   4.224   0.070   6.291
11369TIP3   OH234049   3.057   0.278   6.388
11369TIP3    H134050   2.973   0.266   6.433
11369TIP3    H234051   3.034   0.277   6.295
11370TIP3   OH234052   3.587   1.554   2.178
11370TIP3    H134053   3.613   1.643   2.154
11370TIP3    H234054   3.610   1.546   2.271
11371TIP3   OH234055   0.492   6.985   5.379
11371TIP3    H134056   0.524   6.918   5.440
11371TIP3    H234057   0.491   7.066   5.430
11372TIP3   OH234058   8.064   7.704   1.519
11372TIP3    H134059   8.101   7.619   1.545
11372TIP3    H234060   8.025   7.738   1.599
11373TIP3   OH234061   6.348   3.496   3.857
11373TIP3    H134062   6.400   3.484   3.936
11373TIP3    H234063   6.313   3.409   3.837
11374TIP3   OH234064   5.528   0.403   6.189
11374TIP3    H134065   5.579   0.362   6.259
11374TIP3    H234066   5.439   0.409   6.225
11375TIP3   OH234067   1.650   6.635   6.309
11375TIP3    H134068   1.735   6.677   6.320
11375TIP3    H234069   1.667   6.542   6.329
11376TIP3   OH234070   2.572   1.334   5.700
11376TIP3    H134071   2.596   1.369   5.786
11376TIP3    H234072   2.655   1.322   5.655
11377TIP3   OH234073   7.728   5.937   2.635
11377TIP3    H134074   7.712   6.024   2.671
11377TIP3    H234075   7.643   5.907   2.605
11378TIP3   OH234076   2.231   2.816   1.952
11378TIP3    H134077   2.201   2.819   2.043
11378TIP3    H234078   2.326   2.811   1.958
11379TIP3   OH234079   0.779   3.314   1.323
11379TIP3    H134080   0.717   3.376   1.284
11379TIP3    H234081   0.723   3.247   1.363
11380TIP3   OH234082   5.352   6.474   3.734
11380TIP3    H134083   5.259   6.454   3.727
11380TIP3    H234084   5.356   6.567   3.756
11381TIP3   OH234085   5.114   3.276   1.168
11381TIP3    H134086   5.104   3.204   1.230
11381TIP3    H234087   5.171   3.240   1.100
11382TIP3   OH234088   2.798   1.045   5.979
11382TIP3    H134089   2.741   0.976   5.944
11382TIP3    H234090   2.750   1.080   6.054
11383TIP3   OH234091   7.820   0.184   5.969
11383TIP3    H134092   7.788   0.097   5.945
11383TIP3    H234093   7.743   0.241   5.962
11384TIP3   OH234094   0.464   1.069   1.445
11384TIP3    H134095   0.370   1.083   1.433
11384TIP3    H234096   0.486   1.000   1.381
11385TIP3   OH234097   2.168   3.610   5.096
11385TIP3    H134098   2.195   3.649   5.179
11385TIP3    H234099   2.170   3.515   5.112
11386TIP3   OH234100   6.648   3.123   3.824
11386TIP3    H134101   6.644   3.068   3.903
11386TIP3    H234102   6.628   3.062   3.752
11387TIP3   OH234103   0.001   1.624   3.490
11387TIP3    H134104   0.017   1.690   3.424
11387TIP3    H234105   0.080   1.571   3.492
11388TIP3   OH234106   4.933   7.034   3.186
11388TIP3    H134107   4.881   7.028   3.106
11388TIP3    H234108   4.955   7.127   3.193
11389TIP3   OH234109   3.571   1.322   0.362
11389TIP3    H134110   3.564   1.302   0.269
11389TIP3    H234111   3.665   1.324   0.378
11390TIP3   OH234112   3.119   6.167   5.328
11390TIP3    H134113   3.026   6.187   5.338
11390TIP3    H234114   3.163   6.221   5.393
11391TIP3   OH234115   5.840   6.851   6.181
11391TIP3    H134116   5.876   6.906   6.112
11391TIP3    H234117   5.789   6.910   6.235
11392TIP3   OH234118   3.830   5.843   6.286
11392TIP3    H134119   3.809   5.759   6.327
11392TIP3    H234120   3.765   5.853   6.216
11393TIP3   OH234121   1.588   3.757   6.785
11393TIP3    H134122   1.493   3.747   6.795
11393TIP3    H234123   1.600   3.793   6.697
11394TIP3   OH234124   6.057   1.984   6.280
11394TIP3    H134125   5.969   2.005   6.249
11394TIP3    H234126   6.112   1.989   6.202
11395TIP3   OH234127   7.385   5.241   1.675
11395TIP3    H134128   7.307   5.293   1.652
11395TIP3    H234129   7.458   5.295   1.646
11396TIP3   OH234130   4.998   4.007   3.850
11396TIP3    H134131   5.077   3.973   3.809
11396TIP3    H234132   4.939   3.931   3.856
11397TIP3   OH234133   3.266   2.088   4.257
11397TIP3    H134134   3.277   2.033   4.180
11397TIP3    H234135   3.354   2.096   4.293
11398TIP3   OH234136   2.553   7.430   1.078
11398TIP3    H134137   2.561   7.506   1.134
11398TIP3    H234138   2.460   7.427   1.054
11399TIP3   OH234139   1.449   4.771   2.281
11399TIP3    H134140   1.457   4.677   2.262
11399TIP3    H234141   1.356   4.783   2.299
11400TIP3   OH234142   2.881   1.761   5.058
11400TIP3    H134143   2.792   1.727   5.047
11400TIP3    H234144   2.904   1.798   4.973
11401TIP3   OH234145   4.713   2.925   1.901
11401TIP3    H134146   4.655   2.976   1.845
11401TIP3    H234147   4.677   2.934   1.989
11402TIP3   OH234148   0.827   1.347   2.788
11402TIP3    H134149   0.804   1.361   2.696
11402TIP3    H234150   0.918   1.316   2.785
11403TIP3   OH234151   8.324   5.066   0.218
11403TIP3    H134152   8.259   5.031   0.156
11403TIP3    H234153   8.272   5.092   0.294
11404TIP3   OH234154   7.431   0.913   2.238
11404TIP3    H134155   7.434   0.832   2.290
11404TIP3    H234156   7.339   0.920   2.212
11405TIP3   OH234157   1.091   1.479   3.301
11405TIP3    H134158   1.103   1.475   3.206
11405TIP3    H234159   1.175   1.510   3.335
11406TIP3   OH234160   4.176   1.403   2.956
11406TIP3    H134161   4.241   1.415   3.026
11406TIP3    H234162   4.114   1.339   2.992
11407TIP3   OH234163   0.339   0.960   5.800
11407TIP3    H134164   0.398   1.026   5.836
11407TIP3    H234165   0.254   1.004   5.794
11408TIP3   OH234166   2.613   6.992   1.083
11408TIP3    H134167   2.673   6.935   1.035
11408TIP3    H234168   2.665   7.070   1.103
11409TIP3   OH234169   0.569   2.325   5.922
11409TIP3    H134170   0.652   2.278   5.910
11409TIP3    H234171   0.593   2.403   5.972
11410TIP3   OH234172   0.980   7.510   0.460
11410TIP3    H134173   1.041   7.553   0.400
11410TIP3    H234174   0.943   7.582   0.512
11411TIP3   OH234175   3.352   0.693   1.114
11411TIP3    H134176   3.323   0.664   1.027
11411TIP3    H234177   3.401   0.774   1.097
11412TIP3   OH234178   6.130   1.749   5.029
11412TIP3    H134179   6.205   1.723   5.082
11412TIP3    H234180   6.155   1.725   4.939
11413TIP3   OH234181   7.346   2.384   1.104
11413TIP3    H134182   7.255   2.363   1.126
11413TIP3    H234183   7.356   2.476   1.128
11414TIP3   OH234184   4.027   0.043   0.555
11414TIP3    H134185   3.991   0.045   0.643
11414TIP3    H234186   3.960   0.083   0.500
11415TIP3   OH234187   2.299   6.087   5.764
11415TIP3    H134188   2.328   6.120   5.679
11415TIP3    H234189   2.303   5.992   5.756
11416TIP3   OH234190   3.197   0.694   0.562
11416TIP3    H134191   3.134   0.727   0.499
11416TIP3    H234192   3.234   0.616   0.522
11417TIP3   OH234193   4.166   1.547   1.546
11417TIP3    H134194   4.224   1.472   1.559
11417TIP3    H234195   4.187   1.606   1.618
11418TIP3   OH234196   7.447   3.554   5.905
11418TIP3    H134197   7.540   3.578   5.902
11418TIP3    H234198   7.434   3.499   5.828
11419TIP3   OH234199   4.278   1.548   6.620
11419TIP3    H134200   4.247   1.575   6.533
11419TIP3    H234201   4.356   1.601   6.636
11420TIP3   OH234202   3.977   5.578   2.775
11420TIP3    H134203   3.944   5.604   2.688
11420TIP3    H234204   4.038   5.507   2.757
11421TIP3   OH234205   3.005   3.474   5.371
11421TIP3    H134206   3.097   3.498   5.360
11421TIP3    H234207   2.994   3.466   5.466
11422TIP3   OH234208   7.732   6.475   6.182
11422TIP3    H134209   7.782   6.496   6.261
11422TIP3    H234210   7.798   6.464   6.113
11423TIP3   OH234211   3.292   1.670   3.455
11423TIP3    H134212   3.351   1.733   3.496
11423TIP3    H234213   3.297   1.689   3.361
11424TIP3   OH234214   1.201   4.574   0.279
11424TIP3    H134215   1.108   4.570   0.257
11424TIP3    H234216   1.214   4.503   0.342
11425TIP3   OH234217   1.996   3.684   5.958
11425TIP3    H134218   1.900   3.681   5.958
11425TIP3    H234219   2.020   3.681   5.865
11426TIP3   OH234220   5.385   4.913   6.552
11426TIP3    H134221   5.441   4.963   6.612
11426TIP3    H234222   5.372   4.829   6.596
11427TIP3   OH234223   5.096   1.657   3.820
11427TIP3    H134224   5.013   1.678   3.777
11427TIP3    H234225   5.153   1.732   3.802
11428TIP3   OH234226   5.498   5.102   1.601
11428TIP3    H134227   5.500   5.186   1.554
11428TIP3    H234228   5.551   5.117   1.679
11429TIP3   OH234229   1.699   4.084   6.683
11429TIP3    H134230   1.761   4.027   6.728
11429TIP3    H234231   1.753   4.149   6.640
11430TIP3   OH234232   1.177   4.189   4.368
11430TIP3    H134233   1.259   4.178   4.416
11430TIP3    H234234   1.184   4.126   4.295
11431TIP3   OH234235   3.712   6.047   1.505
11431TIP3    H134236   3.625   6.037   1.543
11431TIP3    H234237   3.772   6.040   1.579
11432TIP3   OH234238   2.486   5.311   3.161
11432TIP3    H134239   2.576   5.288   3.184
11432TIP3    H234240   2.464   5.250   3.090
11433TIP3   OH234241   3.313   0.334   0.222
11433TIP3    H134242   3.240   0.354   0.163
11433TIP3    H234243   3.324   0.240   0.215
11434TIP3   OH234244   5.233   4.478   1.093
11434TIP3    H134245   5.219   4.422   1.016
11434TIP3    H234246   5.178   4.440   1.161
11435TIP3   OH234247   7.081   7.580   0.404
11435TIP3    H134248   7.066   7.592   0.310
11435TIP3    H234249   6.999   7.608   0.445
11436TIP3   OH234250   3.479   5.931   1.247
11436TIP3    H134251   3.538   5.859   1.224
11436TIP3    H234252   3.529   6.010   1.227
11437TIP3   OH234253   8.091   2.488   3.841
11437TIP3    H134254   8.107   2.538   3.762
11437TIP3    H234255   7.996   2.484   3.849
11438TIP3   OH234256   4.904   4.173   1.151
11438TIP3    H134257   4.893   4.192   1.244
11438TIP3    H234258   4.868   4.249   1.106
11439TIP3   OH234259   2.210   0.072   0.995
11439TIP3    H134260   2.196   0.068   0.901
11439TIP3    H234261   2.302   0.094   1.006
11440TIP3   OH234262   0.653   6.947   2.091
11440TIP3    H134263   0.735   6.903   2.070
11440TIP3    H234264   0.663   6.975   2.182
11441TIP3   OH234265   7.823   7.497   4.438
11441TIP3    H134266   7.779   7.418   4.406
11441TIP3    H234267   7.767   7.569   4.409
11442TIP3   OH234268   5.860   6.594   6.068
11442TIP3    H134269   5.841   6.680   6.104
11442TIP3    H234270   5.871   6.537   6.144
11443TIP3   OH234271   1.237   7.101   5.598
11443TIP3    H134272   1.161   7.083   5.544
11443TIP3    H234273   1.304   7.041   5.566
11444TIP3   OH234274   2.920   3.894   4.354
11444TIP3    H134275   3.001   3.938   4.381
11444TIP3    H234276   2.950   3.809   4.321
11445TIP3   OH234277   3.269   0.454   3.610
11445TIP3    H134278   3.221   0.373   3.596
11445TIP3    H234279   3.356   0.426   3.640
11446TIP3   OH234280   3.779   2.411   5.642
11446TIP3    H134281   3.695   2.388   5.603
11446TIP3    H234282   3.767   2.398   5.736
11447TIP3   OH234283   2.454   2.335   2.147
11447TIP3    H134284   2.533   2.353   2.197
11447TIP3    H234285   2.432   2.245   2.168
11448TIP3   OH234286   1.129   6.665   4.127
11448TIP3    H134287   1.212   6.620   4.143
11448TIP3    H234288   1.065   6.594   4.119
11449TIP3   OH234289   7.997   1.028   3.302
11449TIP3    H134290   8.029   0.962   3.365
11449TIP3    H234291   7.902   1.025   3.311
11450TIP3   OH234292   1.876   6.576   5.356
11450TIP3    H134293   1.858   6.669   5.339
11450TIP3    H234294   1.886   6.570   5.451
11451TIP3   OH234295   5.376   1.161   3.987
11451TIP3    H134296   5.366   1.255   4.003
11451TIP3    H234297   5.289   1.124   4.003
11452TIP3   OH234298   1.210   1.868   1.304
11452TIP3    H134299   1.221   1.963   1.309
11452TIP3    H234300   1.171   1.844   1.388
11453TIP3   OH234301   5.707   4.834   1.301
11453TIP3    H134302   5.669   4.868   1.219
11453TIP3    H234303   5.789   4.882   1.311
11454TIP3   OH234304   4.513   5.302   5.752
11454TIP3    H134305   4.440   5.282   5.809
11454TIP3    H234306   4.504   5.396   5.733
11455TIP3   OH234307   1.131   3.321   6.297
11455TIP3    H134308   1.056   3.369   6.333
11455TIP3    H234309   1.091   3.252   6.243
11456TIP3   OH234310   0.872   0.748   0.845
11456TIP3    H134311   0.939   0.711   0.787
11456TIP3    H234312   0.804   0.681   0.849
11457TIP3   OH234313   0.787   7.541   2.096
11457TIP3    H134314   0.854   7.565   2.161
11457TIP3    H234315   0.836   7.501   2.024
11458TIP3   OH234316   1.895   5.176   1.476
11458TIP3    H134317   1.900   5.113   1.548
11458TIP3    H234318   1.827   5.142   1.418
11459TIP3   OH234319   7.897   1.796   2.435
11459TIP3    H134320   7.963   1.859   2.407
11459TIP3    H234321   7.814   1.841   2.423
11460TIP3   OH234322   6.706   3.714   6.178
11460TIP3    H134323   6.639   3.661   6.136
11460TIP3    H234324   6.763   3.743   6.107
11461TIP3   OH234325   3.318   2.471   1.522
11461TIP3    H134326   3.229   2.489   1.490
11461TIP3    H234327   3.375   2.517   1.461
11462TIP3   OH234328   3.091   1.437   6.734
11462TIP3    H134329   3.069   1.497   6.805
11462TIP3    H234330   3.178   1.404   6.757
11463TIP3   OH234331   0.095   1.418   3.791
11463TIP3    H134332   0.083   1.395   3.883
11463TIP3    H234333   0.007   1.424   3.755
11464TIP3   OH234334   7.606   5.843   3.260
11464TIP3    H134335   7.674   5.856   3.327
11464TIP3    H234336   7.651   5.860   3.177
11465TIP3   OH234337   7.746   7.408   5.754
11465TIP3    H134338   7.802   7.386   5.828
11465TIP3    H234339   7.748   7.504   5.750
11466TIP3   OH234340   3.169   5.582   4.609
11466TIP3    H134341   3.156   5.492   4.638
11466TIP3    H234342   3.095   5.630   4.647
11467TIP3   OH234343   7.123   3.928   2.946
11467TIP3    H134344   7.038   3.894   2.972
11467TIP3    H234345   7.127   4.015   2.986
11468TIP3   OH234346   1.652   1.676   6.418
11468TIP3    H134347   1.593   1.654   6.346
11468TIP3    H234348   1.595   1.711   6.487
11469TIP3   OH234349   2.871   2.805   6.114
11469TIP3    H134350   2.893   2.732   6.057
11469TIP3    H234351   2.790   2.841   6.079
11470TIP3   OH234352   3.769   4.897   3.474
11470TIP3    H134353   3.857   4.881   3.508
11470TIP3    H234354   3.782   4.918   3.382
11471TIP3   OH234355   2.938   4.490   5.708
11471TIP3    H134356   2.939   4.395   5.707
11471TIP3    H234357   3.015   4.514   5.760
11472TIP3   OH234358   5.511   4.291   6.639
11472TIP3    H134359   5.516   4.385   6.621
11472TIP3    H234360   5.523   4.284   6.734
11473TIP3   OH234361   0.079   6.882   6.671
11473TIP3    H134362   0.171   6.870   6.693
11473TIP3    H234363   0.074   6.972   6.638
11474TIP3   OH234364   4.595   7.295   3.593
11474TIP3    H134365   4.521   7.351   3.615
11474TIP3    H234366   4.672   7.344   3.623
11475TIP3   OH234367   0.384   5.292   0.774
11475TIP3    H134368   0.472   5.288   0.738
11475TIP3    H234369   0.394   5.264   0.865
11476TIP3   OH234370   4.405   1.921   4.572
11476TIP3    H134371   4.320   1.962   4.555
11476TIP3    H234372   4.424   1.872   4.491
11477TIP3   OH234373   1.871   6.848   2.142
11477TIP3    H134374   1.922   6.929   2.142
11477TIP3    H234375   1.894   6.805   2.060
11478TIP3   OH234376   2.989   4.068   2.563
11478TIP3    H134377   2.994   4.156   2.527
11478TIP3    H234378   2.896   4.056   2.584
11479TIP3   OH234379   1.103   1.387   0.611
11479TIP3    H134380   1.085   1.481   0.619
11479TIP3    H234381   1.169   1.381   0.542
11480TIP3   OH234382   1.358   4.115   5.446
11480TIP3    H134383   1.394   4.201   5.467
11480TIP3    H234384   1.420   4.076   5.385
11481TIP3   OH234385   1.988   3.182   1.124
11481TIP3    H134386   1.995   3.105   1.068
11481TIP3    H234387   1.969   3.147   1.211
11482TIP3   OH234388   7.823   7.256   3.204
11482TIP3    H134389   7.748   7.298   3.162
11482TIP3    H234390   7.825   7.168   3.167
11483TIP3   OH234391   6.595   1.972   4.571
11483TIP3    H134392   6.658   1.982   4.500
11483TIP3    H234393   6.511   1.998   4.534
11484TIP3   OH234394   0.813   3.083   4.509
11484TIP3    H134395   0.835   3.175   4.522
11484TIP3    H234396   0.745   3.064   4.574
11485TIP3   OH234397   0.716   0.619   4.487
11485TIP3    H134398   0.756   0.631   4.573
11485TIP3    H234399   0.774   0.665   4.427
11486TIP3   OH234400   5.082   7.592   2.093
11486TIP3    H134401   5.097   7.592   2.188
11486TIP3    H234402   5.104   7.502   2.066
11487TIP3   OH234403   3.577   4.078   2.880
11487TIP3    H134404   3.494   4.070   2.926
11487TIP3    H234405   3.615   3.990   2.884
11488TIP3   OH234406   6.146   4.645   0.442
11488TIP3    H134407   6.106   4.701   0.376
11488TIP3    H234408   6.102   4.668   0.524
11489TIP3   OH234409   5.830   3.144   2.177
11489TIP3    H134410   5.740   3.113   2.189
11489TIP3    H234411   5.871   3.133   2.262
11490TIP3   OH234412   4.312   0.067   2.455
11490TIP3    H134413   4.234   0.095   2.406
11490TIP3    H234414   4.370   0.144   2.453
11491TIP3   OH234415   4.758   6.973   6.379
11491TIP3    H134416   4.852   6.991   6.380
11491TIP3    H234417   4.717   7.059   6.374
11492TIP3   OH234418   5.252   2.451   3.502
11492TIP3    H134419   5.228   2.428   3.412
11492TIP3    H234420   5.221   2.378   3.555
11493TIP3   OH234421   7.941   5.750   2.471
11493TIP3    H134422   7.904   5.703   2.546
11493TIP3    H234423   8.011   5.693   2.439
11494TIP3   OH234424   1.878   1.678   3.175
11494TIP3    H134425   1.949   1.715   3.123
11494TIP3    H234426   1.867   1.590   3.140
11495TIP3   OH234427   3.772   2.241   2.810
11495TIP3    H134428   3.761   2.268   2.718
11495TIP3    H234429   3.761   2.146   2.808
11496TIP3   OH234430   2.794   6.794   1.002
11496TIP3    H134431   2.825   6.722   1.057
11496TIP3    H234432   2.869   6.815   0.947
11497TIP3   OH234433   6.334   1.664   3.501
11497TIP3    H134434   6.293   1.732   3.555
11497TIP3    H234435   6.427   1.670   3.521
11498TIP3   OH234436   2.612   0.111   2.318
11498TIP3    H134437   2.678   0.064   2.368
11498TIP3    H234438   2.569   0.044   2.266
11499TIP3   OH234439   8.263   1.543   2.596
11499TIP3    H134440   8.264   1.563   2.503
11499TIP3    H234441   8.194   1.598   2.633
11500TIP3   OH234442   7.832   5.960   4.021
11500TIP3    H134443   7.867   5.952   4.110
11500TIP3    H234444   7.834   6.054   4.003
11501TIP3   OH234445   4.745   6.688   2.468
11501TIP3    H134446   4.655   6.659   2.452
11501TIP3    H234447   4.796   6.608   2.467
11502TIP3   OH234448   2.996   3.273   6.018
11502TIP3    H134449   2.913   3.245   6.057
11502TIP3    H234450   3.037   3.328   6.086
11503TIP3   OH234451   0.240   5.066   2.868
11503TIP3    H134452   0.280   5.057   2.954
11503TIP3    H234453   0.146   5.056   2.884
11504TIP3   OH234454   0.017   2.624   0.998
11504TIP3    H134455   0.033   2.579   0.915
11504TIP3    H234456   0.009   2.717   0.974
11505TIP3   OH234457   7.346   5.006   3.021
11505TIP3    H134458   7.321   4.945   2.952
11505TIP3    H234459   7.263   5.030   3.063
11506TIP3   OH234460   3.439   5.048   4.636
11506TIP3    H134461   3.366   5.039   4.697
11506TIP3    H234462   3.398   5.080   4.555
11507TIP3   OH234463   7.192   0.061   4.567
11507TIP3    H134464   7.198  -0.010   4.503
11507TIP3    H234465   7.233   0.026   4.646
11508TIP3   OH234466   1.148   0.364   3.739
11508TIP3    H134467   1.156   0.316   3.657
11508TIP3    H234468   1.186   0.306   3.805
11509TIP3   OH234469   2.204   7.304   2.945
11509TIP3    H134470   2.234   7.328   2.858
11509TIP3    H234471   2.133   7.241   2.930
11510TIP3   OH234472   7.219   3.814   1.161
11510TIP3    H134473   7.281   3.823   1.089
11510TIP3    H234474   7.189   3.724   1.157
11511TIP3   OH234475   2.653   4.650   5.645
11511TIP3    H134476   2.613   4.667   5.730
11511TIP3    H234477   2.735   4.605   5.665
11512TIP3   OH234478   2.320   4.934   0.304
11512TIP3    H134479   2.412   4.905   0.303
11512TIP3    H234480   2.304   4.959   0.395
11513TIP3   OH234481   3.228   0.139   4.604
11513TIP3    H134482   3.323   0.153   4.604
11513TIP3    H234483   3.192   0.219   4.568
11514TIP3   OH234484   8.277   0.347   2.149
11514TIP3    H134485   8.280   0.255   2.174
11514TIP3    H234486   8.318   0.349   2.062
11515TIP3   OH234487   1.514   7.384   2.046
11515TIP3    H134488   1.436   7.437   2.027
11515TIP3    H234489   1.587   7.445   2.037
11516TIP3   OH234490   2.271   4.298   3.703
11516TIP3    H134491   2.326   4.339   3.769
11516TIP3    H234492   2.184   4.292   3.745
11517TIP3   OH234493   1.375   6.147   1.924
11517TIP3    H134494   1.467   6.133   1.945
11517TIP3    H234495   1.370   6.239   1.898
11518TIP3   OH234496   4.154   3.163   4.991
11518TIP3    H134497   4.191   3.074   4.988
11518TIP3    H234498   4.231   3.220   4.986
11519TIP3   OH234499   4.468   3.844   0.732
11519TIP3    H134500   4.377   3.813   0.732
11519TIP3    H234501   4.500   3.823   0.645
11520TIP3   OH234502   2.233   7.514   6.525
11520TIP3    H134503   2.146   7.481   6.499
11520TIP3    H234504   2.259   7.457   6.598
11521TIP3   OH234505   2.436   5.528   5.822
11521TIP3    H134506   2.423   5.470   5.747
11521TIP3    H234507   2.349   5.535   5.862
11522TIP3   OH234508   5.366   4.167   4.562
11522TIP3    H134509   5.342   4.260   4.564
11522TIP3    H234510   5.315   4.130   4.490
11523TIP3   OH234511   8.141   5.126   3.803
11523TIP3    H134512   8.169   5.207   3.761
11523TIP3    H234513   8.046   5.124   3.791
11524TIP3   OH234514   2.910   6.913   2.200
11524TIP3    H134515   2.944   6.997   2.231
11524TIP3    H234516   2.832   6.936   2.151
11525TIP3   OH234517   7.322   3.952   0.543
11525TIP3    H134518   7.403   3.901   0.546
11525TIP3    H234519   7.300   3.958   0.451
11526TIP3   OH234520   3.606   0.403   0.503
11526TIP3    H134521   3.656   0.342   0.449
11526TIP3    H234522   3.673   0.453   0.551
11527TIP3   OH234523   1.635   0.938   0.812
11527TIP3    H134524   1.546   0.967   0.790
11527TIP3    H234525   1.653   0.976   0.898
11528TIP3   OH234526   0.084   4.443   6.033
11528TIP3    H134527   0.095   4.425   6.127
11528TIP3    H234528  -0.005   4.414   6.014
11529TIP3   OH234529   1.182   1.068   5.655
11529TIP3    H134530   1.250   1.058   5.721
11529TIP3    H234531   1.127   1.139   5.687
11530TIP3   OH234532   6.299   0.299   4.184
11530TIP3    H134533   6.343   0.215   4.167
11530TIP3    H234534   6.358   0.346   4.242
11531TIP3   OH234535   6.286   7.345   3.406
11531TIP3    H134536   6.304   7.289   3.481
11531TIP3    H234537   6.213   7.303   3.360
11532TIP3   OH234538   4.024   5.002   0.175
11532TIP3    H134539   3.975   4.932   0.220
11532TIP3    H234540   4.004   5.081   0.226
11533TIP3   OH234541   2.416   4.386   0.073
11533TIP3    H134542   2.432   4.344  -0.012
11533TIP3    H234543   2.370   4.467   0.052
11534TIP3   OH234544   1.875   5.672   1.709
11534TIP3    H134545   1.847   5.716   1.629
11534TIP3    H234546   1.820   5.593   1.714
11535TIP3   OH234547   3.078   1.311   0.687
11535TIP3    H134548   2.989   1.275   0.694
11535TIP3    H234549   3.118   1.296   0.772
11536TIP3   OH234550   3.643   1.108   6.177
11536TIP3    H134551   3.621   1.034   6.120
11536TIP3    H234552   3.565   1.121   6.230
11537TIP3   OH234553   0.996   3.944   5.879
11537TIP3    H134554   1.003   3.911   5.968
11537TIP3    H234555   1.074   3.998   5.866
11538TIP3   OH234556   2.654   1.267   2.552
11538TIP3    H134557   2.658   1.352   2.596
11538TIP3    H234558   2.742   1.232   2.560
11539TIP3   OH234559   5.245   0.174   4.220
11539TIP3    H134560   5.243   0.109   4.150
11539TIP3    H234561   5.246   0.122   4.301
11540TIP3   OH234562   7.854   1.114   3.780
11540TIP3    H134563   7.926   1.108   3.717
11540TIP3    H234564   7.794   1.044   3.755
11541TIP3   OH234565   6.824   5.305   5.986
11541TIP3    H134566   6.820   5.235   5.920
11541TIP3    H234567   6.735   5.308   6.023
11542TIP3   OH234568   2.513   0.400   1.036
11542TIP3    H134569   2.590   0.344   1.051
11542TIP3    H234570   2.474   0.409   1.123
11543TIP3   OH234571   5.771   5.168   4.400
11543TIP3    H134572   5.829   5.186   4.327
11543TIP3    H234573   5.717   5.247   4.408
11544TIP3   OH234574   1.343   6.899   4.324
11544TIP3    H134575   1.394   6.863   4.396
11544TIP3    H234576   1.397   6.885   4.246
11545TIP3   OH234577   4.821   1.716   1.871
11545TIP3    H134578   4.865   1.710   1.786
11545TIP3    H234579   4.892   1.708   1.934
11546TIP3   OH234580   7.526   0.142   1.394
11546TIP3    H134581   7.560   0.226   1.364
11546TIP3    H234582   7.584   0.077   1.355
11547TIP3   OH234583   6.124   6.163   3.671
11547TIP3    H134584   6.111   6.248   3.628
11547TIP3    H234585   6.182   6.183   3.745
11548TIP3   OH234586   6.331   0.697   3.259
11548TIP3    H134587   6.300   0.788   3.258
11548TIP3    H234588   6.427   0.705   3.260
11549TIP3   OH234589   0.194   6.881   1.803
11549TIP3    H134590   0.280   6.905   1.839
11549TIP3    H234591   0.160   6.814   1.863
11550TIP3   OH234592   0.015   6.014   6.083
11550TIP3    H134593  -0.010   5.964   6.161
11550TIP3    H234594  -0.060   6.006   6.024
11551TIP3   OH234595   6.317   5.296   5.194
11551TIP3    H134596   6.303   5.323   5.104
11551TIP3    H234597   6.265   5.216   5.203
11552TIP3   OH234598   7.019   3.882   2.546
11552TIP3    H134599   7.009   3.795   2.585
11552TIP3    H234600   7.013   3.943   2.620
11553TIP3   OH234601   6.784   0.834   0.366
11553TIP3    H134602   6.835   0.781   0.304
11553TIP3    H234603   6.757   0.772   0.434
11554TIP3   OH234604   4.642   0.641   5.489
11554TIP3    H134605   4.732   0.618   5.467
11554TIP3    H234606   4.645   0.667   5.581
11555TIP3   OH234607   6.397   4.255   3.625
11555TIP3    H134608   6.448   4.176   3.644
11555TIP3    H234609   6.320   4.224   3.578
11556TIP3   OH234610   5.143   6.649   3.486
11556TIP3    H134611   5.168   6.707   3.559
11556TIP3    H234612   5.218   6.592   3.473
11557TIP3   OH234613   6.192   3.825   3.212
11557TIP3    H134614   6.157   3.741   3.244
11557TIP3    H234615   6.231   3.865   3.289
11558TIP3   OH234616   1.303   1.384   4.513
11558TIP3    H134617   1.305   1.480   4.503
11558TIP3    H234618   1.325   1.351   4.426
11559TIP3   OH234619   6.717   0.573   3.618
11559TIP3    H134620   6.687   0.651   3.571
11559TIP3    H234621   6.650   0.557   3.684
11560TIP3   OH234622   3.031   5.946   1.374
11560TIP3    H134623   3.053   5.884   1.443
11560TIP3    H234624   2.973   6.010   1.416
11561TIP3   OH234625   1.940   7.758   4.003
11561TIP3    H134626   1.960   7.676   4.048
11561TIP3    H234627   2.013   7.816   4.024
11562TIP3   OH234628   0.128   4.179   2.039
11562TIP3    H134629   0.200   4.126   2.074
11562TIP3    H234630   0.118   4.250   2.103
11563TIP3   OH234631   0.902   1.153   5.421
11563TIP3    H134632   0.990   1.178   5.449
11563TIP3    H234633   0.850   1.157   5.501
11564TIP3   OH234634   3.875   5.640   4.855
11564TIP3    H134635   3.800   5.615   4.800
11564TIP3    H234636   3.898   5.559   4.901
11565TIP3   OH234637   4.762   7.413   6.689
11565TIP3    H134638   4.790   7.504   6.695
11565TIP3    H234639   4.840   7.366   6.662
11566TIP3   OH234640   1.912   7.086   4.799
11566TIP3    H134641   1.882   7.142   4.728
11566TIP3    H234642   1.962   7.017   4.755
11567TIP3   OH234643   1.918   6.676   3.077
11567TIP3    H134644   1.893   6.585   3.093
11567TIP3    H234645   1.838   6.726   3.096
11568TIP3   OH234646   2.692   2.235   4.339
11568TIP3    H134647   2.736   2.315   4.312
11568TIP3    H234648   2.618   2.227   4.279
11569TIP3   OH234649   4.965   6.508   2.431
11569TIP3    H134650   4.971   6.418   2.463
11569TIP3    H234651   5.055   6.534   2.415
11570TIP3   OH234652   7.769   4.139   6.124
11570TIP3    H134653   7.707   4.124   6.195
11570TIP3    H234654   7.743   4.223   6.087
11571TIP3   OH234655   2.311   3.935   3.461
11571TIP3    H134656   2.280   3.876   3.392
11571TIP3    H234657   2.390   3.976   3.423
11572TIP3   OH234658   0.932   4.230   0.842
11572TIP3    H134659   1.025   4.207   0.838
11572TIP3    H234660   0.909   4.224   0.934
11573TIP3   OH234661   2.960   6.042   3.056
11573TIP3    H134662   3.003   6.092   3.125
11573TIP3    H234663   2.948   6.105   2.985
11574TIP3   OH234664   3.656   4.186   6.351
11574TIP3    H134665   3.696   4.273   6.344
11574TIP3    H234666   3.588   4.196   6.417
11575TIP3   OH234667   8.295   5.756   6.332
11575TIP3    H134668   8.226   5.711   6.381
11575TIP3    H234669   8.356   5.787   6.399
11576TIP3   OH234670   0.216   1.605   1.123
11576TIP3    H134671   0.301   1.627   1.160
11576TIP3    H234672   0.231   1.523   1.075
11577TIP3   OH234673   0.267   0.299   1.287
11577TIP3    H134674   0.318   0.251   1.222
11577TIP3    H234675   0.211   0.358   1.235
11578TIP3   OH234676   1.836   0.653   6.676
11578TIP3    H134677   1.863   0.737   6.638
11578TIP3    H234678   1.823   0.595   6.602
11579TIP3   OH234679   5.297   0.327   5.618
11579TIP3    H134680   5.285   0.279   5.535
11579TIP3    H234681   5.319   0.416   5.592
11580TIP3   OH234682   2.449   3.246   2.919
11580TIP3    H134683   2.369   3.295   2.937
11580TIP3    H234684   2.421   3.174   2.863
11581TIP3   OH234685   7.627   3.323   3.551
11581TIP3    H134686   7.532   3.319   3.546
11581TIP3    H234687   7.647   3.308   3.643
11582TIP3   OH234688   4.215   2.228   5.378
11582TIP3    H134689   4.165   2.310   5.380
11582TIP3    H234690   4.148   2.159   5.384
11583TIP3   OH234691   2.999   2.852   5.647
11583TIP3    H134692   3.078   2.903   5.667
11583TIP3    H234693   2.927   2.903   5.684
11584TIP3   OH234694   0.309   3.235   3.878
11584TIP3    H134695   0.322   3.279   3.962
11584TIP3    H234696   0.218   3.253   3.855
11585TIP3   OH234697   6.097   4.515   6.040
11585TIP3    H134698   6.187   4.540   6.021
11585TIP3    H234699   6.065   4.583   6.099
11586TIP3   OH234700   6.515   4.503   5.504
11586TIP3    H134701   6.600   4.461   5.519
11586TIP3    H234702   6.532   4.596   5.513
11587TIP3   OH234703   4.876   3.771   3.563
11587TIP3    H134704   4.864   3.803   3.653
11587TIP3    H234705   4.849   3.679   3.567
11588TIP3   OH234706   5.547   5.946   3.226
11588TIP3    H134707   5.558   5.880   3.158
11588TIP3    H234708   5.605   6.018   3.200
11589TIP3   OH234709   1.647   3.899   3.473
11589TIP3    H134710   1.591   3.896   3.395
11589TIP3    H234711   1.670   3.992   3.482
11590TIP3   OH234712   1.932   0.492   2.246
11590TIP3    H134713   1.867   0.528   2.186
11590TIP3    H234714   1.994   0.444   2.191
11591TIP3   OH234715   7.891   6.831   0.197
11591TIP3    H134716   7.811   6.873   0.166
11591TIP3    H234717   7.926   6.786   0.119
11592TIP3   OH234718   7.525   6.502   2.935
11592TIP3    H134719   7.496   6.549   3.013
11592TIP3    H234720   7.614   6.475   2.955
11593TIP3   OH234721   6.874   2.656   6.131
11593TIP3    H134722   6.865   2.751   6.120
11593TIP3    H234723   6.968   2.639   6.121
11594TIP3   OH234724   8.277   6.075   3.866
11594TIP3    H134725   8.251   5.984   3.851
11594TIP3    H234726   8.255   6.091   3.958
11595TIP3   OH234727   5.906   7.414   2.347
11595TIP3    H134728   5.950   7.331   2.327
11595TIP3    H234729   5.880   7.448   2.261
11596TIP3   OH234730   5.139   0.075   6.218
11596TIP3    H134731   5.130  -0.019   6.202
11596TIP3    H234732   5.084   0.092   6.295
11597TIP3   OH234733   1.653   1.820   1.154
11597TIP3    H134734   1.630   1.880   1.225
11597TIP3    H234735   1.600   1.743   1.170
11598TIP3   OH234736   5.458   7.577   1.278
11598TIP3    H134737   5.370   7.540   1.275
11598TIP3    H234738   5.507   7.518   1.334
11599TIP3   OH234739   4.241   5.760   4.341
11599TIP3    H134740   4.290   5.730   4.417
11599TIP3    H234741   4.307   5.765   4.271
11600TIP3   OH234742   5.712   4.208   0.790
11600TIP3    H134743   5.719   4.257   0.708
11600TIP3    H234744   5.753   4.123   0.771
11601TIP3   OH234745   6.211   5.282   4.021
11601TIP3    H134746   6.146   5.347   3.993
11601TIP3    H234747   6.172   5.198   3.997
11602TIP3   OH234748   4.390   1.442   5.869
11602TIP3    H134749   4.431   1.477   5.790
11602TIP3    H234750   4.409   1.507   5.937
11603TIP3   OH234751   6.700   7.734   5.077
11603TIP3    H134752   6.744   7.678   5.141
11603TIP3    H234753   6.614   7.752   5.114
11604TIP3   OH234754   3.529   0.114   1.918
11604TIP3    H134755   3.448   0.076   1.886
11604TIP3    H234756   3.598   0.071   1.867
11605TIP3   OH234757   3.730   2.189   3.405
11605TIP3    H134758   3.692   2.277   3.407
11605TIP3    H234759   3.716   2.155   3.493
11606TIP3   OH234760   5.125   2.545   0.259
11606TIP3    H134761   5.165   2.631   0.247
11606TIP3    H234762   5.173   2.487   0.201
11607TIP3   OH234763   2.373   1.224   3.109
11607TIP3    H134764   2.395   1.313   3.135
11607TIP3    H234765   2.445   1.171   3.143
11608TIP3   OH234766   2.032   6.379   1.244
11608TIP3    H134767   2.053   6.308   1.305
11608TIP3    H234768   1.978   6.440   1.295
11609TIP3   OH234769   4.414   3.118   6.699
11609TIP3    H134770   4.351   3.182   6.731
11609TIP3    H234771   4.496   3.140   6.744
11610TIP3   OH234772   2.260   1.383   5.711
11610TIP3    H134773   2.206   1.306   5.691
11610TIP3    H234774   2.344   1.347   5.737
11611TIP3   OH234775   7.821   7.736   6.073
11611TIP3    H134776   7.742   7.729   6.020
11611TIP3    H234777   7.814   7.666   6.137
11612TIP3   OH234778   4.064   1.618   4.678
11612TIP3    H134779   4.110   1.646   4.598
11612TIP3    H234780   3.972   1.631   4.658
11613TIP3   OH234781   3.324   7.433   5.417
11613TIP3    H134782   3.384   7.362   5.393
11613TIP3    H234783   3.380   7.496   5.462
11614TIP3   OH234784   4.392   3.142   4.711
11614TIP3    H134785   4.406   3.176   4.799
11614TIP3    H234786   4.308   3.096   4.716
11615TIP3   OH234787   6.311   5.391   1.688
11615TIP3    H134788   6.269   5.472   1.718
11615TIP3    H234789   6.403   5.415   1.677
11616TIP3   OH234790   1.825   6.198   3.302
11616TIP3    H134791   1.839   6.243   3.386
11616TIP3    H234792   1.741   6.232   3.271
11617TIP3   OH234793   0.835   2.737   4.324
11617TIP3    H134794   0.776   2.755   4.251
11617TIP3    H234795   0.922   2.750   4.288
11618TIP3   OH234796   2.942   0.514   6.544
11618TIP3    H134797   3.011   0.460   6.584
11618TIP3    H234798   2.965   0.604   6.566
11619TIP3   OH234799   7.940   1.712   6.668
11619TIP3    H134800   8.013   1.774   6.673
11619TIP3    H234801   7.919   1.706   6.575
11620TIP3   OH234802   0.838   7.517   3.440
11620TIP3    H134803   0.775   7.559   3.498
11620TIP3    H234804   0.845   7.427   3.472
11621TIP3   OH234805   2.243   4.365   2.116
11621TIP3    H134806   2.166   4.421   2.108
11621TIP3    H234807   2.227   4.293   2.055
11622TIP3   OH234808   1.140   5.354   2.683
11622TIP3    H134809   1.103   5.288   2.741
11622TIP3    H234810   1.174   5.422   2.742
11623TIP3   OH234811   0.678   4.656   5.894
11623TIP3    H134812   0.618   4.684   5.963
11623TIP3    H234813   0.731   4.587   5.935
11624TIP3   OH234814   0.233   3.422   0.232
11624TIP3    H134815   0.138   3.415   0.227
11624TIP3    H234816   0.249   3.511   0.264
11625TIP3   OH234817   1.955   0.342   6.679
11625TIP3    H134818   1.881   0.349   6.619
11625TIP3    H234819   1.927   0.280   6.746
11626TIP3   OH234820   2.318   4.127   6.381
11626TIP3    H134821   2.227   4.107   6.403
11626TIP3    H234822   2.312   4.197   6.317
11627TIP3   OH234823   2.288   6.623   6.589
11627TIP3    H134824   2.210   6.669   6.618
11627TIP3    H234825   2.323   6.582   6.668
11628TIP3   OH234826   2.536   4.126   0.186
11628TIP3    H134827   2.478   4.199   0.164
11628TIP3    H234828   2.478   4.059   0.222
11629TIP3   OH234829   6.493   3.701   3.442
11629TIP3    H134830   6.566   3.740   3.492
11629TIP3    H234831   6.532   3.673   3.360
11630TIP3   OH234832   5.240   3.164   1.605
11630TIP3    H134833   5.264   3.212   1.685
11630TIP3    H234834   5.317   3.113   1.583
11631TIP3   OH234835   8.247   2.740   5.812
11631TIP3    H134836   8.234   2.830   5.840
11631TIP3    H234837   8.329   2.713   5.851
11632TIP3   OH234838   3.403  -0.008   0.140
11632TIP3    H134839   3.342   0.008   0.067
11632TIP3    H234840   3.490  -0.001   0.100
11633TIP3   OH234841   1.241   5.063   2.525
11633TIP3    H134842   1.214   5.099   2.609
11633TIP3    H234843   1.230   4.969   2.534
11634TIP3   OH234844   5.411   7.761   3.430
11634TIP3    H134845   5.404   7.750   3.525
11634TIP3    H234846   5.398   7.855   3.417
11635TIP3   OH234847   6.270   0.924   0.856
11635TIP3    H134848   6.311   0.973   0.927
11635TIP3    H234849   6.326   0.940   0.780
11636TIP3   OH234850   1.244   2.758   3.997
11636TIP3    H134851   1.267   2.666   4.008
11636TIP3    H234852   1.327   2.806   4.007
11637TIP3   OH234853   1.420   4.704   0.678
11637TIP3    H134854   1.409   4.611   0.699
11637TIP3    H234855   1.474   4.705   0.599
11638TIP3   OH234856   4.415   0.624   4.774
11638TIP3    H134857   4.414   0.578   4.690
11638TIP3    H234858   4.450   0.711   4.754
11639TIP3   OH234859   1.041   6.415   3.477
11639TIP3    H134860   1.007   6.338   3.522
11639TIP3    H234861   1.098   6.458   3.542
11640TIP3   OH234862   2.681   6.856   1.867
11640TIP3    H134863   2.750   6.798   1.900
11640TIP3    H234864   2.709   6.944   1.894
11641TIP3   OH234865   7.551   0.766   0.057
11641TIP3    H134866   7.554   0.696   0.122
11641TIP3    H234867   7.469   0.751   0.010
11642TIP3   OH234868   4.456   4.576   5.789
11642TIP3    H134869   4.512   4.648   5.820
11642TIP3    H234870   4.369   4.598   5.822
11643TIP3   OH234871   0.598   5.424   1.060
11643TIP3    H134872   0.528   5.485   1.039
11643TIP3    H234873   0.554   5.340   1.075
11644TIP3   OH234874   7.787   3.378   5.666
11644TIP3    H134875   7.844   3.454   5.656
11644TIP3    H234876   7.810   3.322   5.592
11645TIP3   OH234877   0.628   2.454   3.533
11645TIP3    H134878   0.655   2.486   3.619
11645TIP3    H234879   0.594   2.532   3.488
11646TIP3   OH234880   2.141   7.157   3.914
11646TIP3    H134881   2.163   7.208   3.836
11646TIP3    H234882   2.059   7.114   3.892
11647TIP3   OH234883   7.978   4.657   2.260
11647TIP3    H134884   7.989   4.636   2.168
11647TIP3    H234885   7.915   4.729   2.261
11648TIP3   OH234886   3.042   1.340   0.405
11648TIP3    H134887   3.077   1.354   0.493
11648TIP3    H234888   2.948   1.332   0.417
11649TIP3   OH234889   8.020   2.153   3.476
11649TIP3    H134890   8.024   2.065   3.438
11649TIP3    H234891   8.080   2.205   3.423
11650TIP3   OH234892   5.761   5.579   1.421
11650TIP3    H134893   5.812   5.649   1.380
11650TIP3    H234894   5.671   5.609   1.415
11651TIP3   OH234895   7.162   2.249   3.527
11651TIP3    H134896   7.156   2.155   3.545
11651TIP3    H234897   7.196   2.254   3.437
11652TIP3   OH234898   1.033   5.169   4.599
11652TIP3    H134899   1.030   5.200   4.509
11652TIP3    H234900   1.010   5.245   4.652
11653TIP3   OH234901   1.829   6.437   3.538
11653TIP3    H134902   1.915   6.395   3.526
11653TIP3    H234903   1.836   6.520   3.491
11654TIP3   OH234904   7.654   0.663   4.881
11654TIP3    H134905   7.748   0.677   4.894
11654TIP3    H234906   7.641   0.571   4.906
11655TIP3   OH234907   1.264   7.351   0.868
11655TIP3    H134908   1.238   7.404   0.943
11655TIP3    H234909   1.183   7.309   0.838
11656TIP3   OH234910   6.961   2.965   3.334
11656TIP3    H134911   6.935   2.994   3.421
11656TIP3    H234912   7.032   3.025   3.309
11657TIP3   OH234913   8.345   6.108   5.134
11657TIP3    H134914   8.355   6.018   5.163
11657TIP3    H234915   8.253   6.128   5.151
11658TIP3   OH234916   5.851   6.371   3.115
11658TIP3    H134917   5.849   6.456   3.070
11658TIP3    H234918   5.845   6.394   3.208
11659TIP3   OH234919   5.489   7.296   6.437
11659TIP3    H134920   5.493   7.387   6.467
11659TIP3    H234921   5.574   7.281   6.396
11660TIP3   OH234922   3.175   2.822   5.359
11660TIP3    H134923   3.195   2.732   5.383
11660TIP3    H234924   3.121   2.855   5.432
11661TIP3   OH234925   5.680   7.182   2.790
11661TIP3    H134926   5.743   7.254   2.789
11661TIP3    H234927   5.607   7.213   2.737
11662TIP3   OH234928   6.101   5.199   1.113
11662TIP3    H134929   6.166   5.171   1.048
11662TIP3    H234930   6.018   5.164   1.080
11663TIP3   OH234931   2.784   0.186   6.420
11663TIP3    H134932   2.763   0.097   6.393
11663TIP3    H234933   2.724   0.241   6.369
11664TIP3   OH234934   2.157   0.484   0.800
11664TIP3    H134935   2.118   0.418   0.857
11664TIP3    H234936   2.200   0.545   0.860
11665TIP3   OH234937   5.932   7.429   0.823
11665TIP3    H134938   5.842   7.423   0.855
11665TIP3    H234939   5.976   7.353   0.860
11666TIP3   OH234940   3.482   6.332   1.250
11666TIP3    H134941   3.534   6.252   1.249
11666TIP3    H234942   3.442   6.336   1.163
11667TIP3   OH234943   2.617   5.050   0.118
11667TIP3    H134944   2.592   4.958   0.109
11667TIP3    H234945   2.547   5.089   0.170
11668TIP3   OH234946   2.765   1.252   0.417
11668TIP3    H134947   2.775   1.162   0.448
11668TIP3    H234948   2.672   1.271   0.428
11669TIP3   OH234949   0.247   5.194   2.317
11669TIP3    H134950   0.280   5.115   2.273
11669TIP3    H234951   0.323   5.251   2.324
11670TIP3   OH234952   0.207   7.036   1.570
11670TIP3    H134953   0.294   7.020   1.533
11670TIP3    H234954   0.205   6.983   1.650
11671TIP3   OH234955   6.008   1.272   6.420
11671TIP3    H134956   5.923   1.304   6.390
11671TIP3    H234957   6.028   1.326   6.496
11672TIP3   OH234958   0.529   6.348   2.992
11672TIP3    H134959   0.576   6.429   3.012
11672TIP3    H234960   0.514   6.308   3.078
11673TIP3   OH234961   1.254   2.345   0.994
11673TIP3    H134962   1.196   2.415   1.025
11673TIP3    H234963   1.273   2.293   1.071
11674TIP3   OH234964   6.173   3.260   2.289
11674TIP3    H134965   6.129   3.213   2.360
11674TIP3    H234966   6.247   3.204   2.266
11675TIP3   OH234967   1.900   1.226   1.740
11675TIP3    H134968   1.868   1.315   1.723
11675TIP3    H234969   1.985   1.223   1.696
11676TIP3   OH234970   2.854   3.433   0.754
11676TIP3    H134971   2.823   3.491   0.824
11676TIP3    H234972   2.942   3.464   0.735
11677TIP3   OH234973   5.676   3.839   6.196
11677TIP3    H134974   5.682   3.858   6.103
11677TIP3    H234975   5.606   3.774   6.203
11678TIP3   OH234976   1.727   5.332   0.197
11678TIP3    H134977   1.732   5.248   0.241
11678TIP3    H234978   1.681   5.314   0.115
11679TIP3   OH234979   0.080   4.402   3.847
11679TIP3    H134980   0.115   4.446   3.924
11679TIP3    H234981   0.062   4.473   3.785
11680TIP3   OH234982   3.357   7.188   4.833
11680TIP3    H134983   3.370   7.240   4.754
11680TIP3    H234984   3.314   7.247   4.894
11681TIP3   OH234985   4.213   1.965   6.689
11681TIP3    H134986   4.198   2.048   6.643
11681TIP3    H234987   4.231   1.902   6.619
11682TIP3   OH234988   7.414   3.123   5.332
11682TIP3    H134989   7.472   3.131   5.256
11682TIP3    H234990   7.452   3.050   5.382
11683TIP3   OH234991   4.617   4.561   2.332
11683TIP3    H134992   4.703   4.526   2.310
11683TIP3    H234993   4.555   4.499   2.293
11684TIP3   OH234994   3.474   7.828   4.420
11684TIP3    H134995   3.512   7.745   4.450
11684TIP3    H234996   3.417   7.803   4.348
11685TIP3   OH234997   6.484   0.387   0.711
11685TIP3    H134998   6.536   0.317   0.751
11685TIP3    H234999   6.515   0.467   0.755
11686TIP3   OH235000   4.724   4.094   2.668
11686TIP3    H135001   4.701   4.148   2.593
11686TIP3    H235002   4.747   4.009   2.630
11687TIP3   OH235003   7.453   1.284   3.171
11687TIP3    H135004   7.475   1.331   3.251
11687TIP3    H235005   7.537   1.262   3.132
11688TIP3   OH235006   7.245   3.732   3.555
11688TIP3    H135007   7.184   3.732   3.629
11688TIP3    H235008   7.331   3.717   3.596
11689TIP3   OH235009   6.832   1.041   5.553
11689TIP3    H135010   6.743   1.005   5.545
11689TIP3    H235011   6.821   1.124   5.598
11690TIP3   OH235012   1.076   6.369   4.614
11690TIP3    H135013   1.028   6.446   4.585
11690TIP3    H235014   1.160   6.373   4.568
11691TIP3   OH235015   2.754   0.563   1.064
11691TIP3    H135016   2.750   0.489   1.004
11691TIP3    H235017   2.766   0.523   1.150
11692TIP3   OH235018   2.154   7.209   5.286
11692TIP3    H135019   2.208   7.285   5.265
11692TIP3    H235020   2.124   7.226   5.376
11693TIP3   OH235021   8.109   3.114   0.296
11693TIP3    H135022   8.070   3.033   0.329
11693TIP3    H235023   8.203   3.101   0.304
11694TIP3   OH235024   2.397   6.556   0.564
11694TIP3    H135025   2.348   6.636   0.579
11694TIP3    H235026   2.401   6.513   0.650
11695TIP3   OH235027   6.787   1.619   5.774
11695TIP3    H135028   6.734   1.559   5.827
11695TIP3    H235029   6.726   1.687   5.745
11696TIP3   OH235030   2.755   0.906   6.358
11696TIP3    H135031   2.850   0.913   6.369
11696TIP3    H235032   2.734   0.972   6.293
11697TIP3   OH235033   5.692   0.806   0.295
11697TIP3    H135034   5.769   0.815   0.352
11697TIP3    H235035   5.715   0.735   0.236
11698TIP3   OH235036   3.821   3.517   1.437
11698TIP3    H135037   3.908   3.553   1.456
11698TIP3    H235038   3.762   3.564   1.496
11699TIP3   OH235039   3.744   6.683   1.173
11699TIP3    H135040   3.762   6.731   1.254
11699TIP3    H235041   3.722   6.594   1.202
11700TIP3   OH235042   0.583   3.492   5.897
11700TIP3    H135043   0.662   3.449   5.930
11700TIP3    H235044   0.524   3.493   5.973
11701TIP3   OH235045   6.617   6.919   3.483
11701TIP3    H135046   6.693   6.870   3.452
11701TIP3    H235047   6.562   6.930   3.405
11702TIP3   OH235048   6.428   7.393   1.722
11702TIP3    H135049   6.462   7.304   1.726
11702TIP3    H235050   6.395   7.411   1.810
11703TIP3   OH235051   7.914   4.881   4.241
11703TIP3    H135052   7.843   4.944   4.253
11703TIP3    H235053   7.872   4.807   4.198
11704TIP3   OH235054   2.724   7.221   1.189
11704TIP3    H135055   2.670   7.289   1.149
11704TIP3    H235056   2.811   7.233   1.151
11705TIP3   OH235057   6.214   5.933   3.543
11705TIP3    H135058   6.140   5.910   3.487
11705TIP3    H235059   6.197   6.023   3.571
11706TIP3   OH235060   6.989   6.792   0.336
11706TIP3    H135061   7.020   6.761   0.250
11706TIP3    H235062   6.957   6.713   0.380
11707TIP3   OH235063   2.267   0.062   6.470
11707TIP3    H135064   2.251  -0.024   6.431
11707TIP3    H235065   2.340   0.048   6.531
11708TIP3   OH235066   7.481   2.531   3.410
11708TIP3    H135067   7.412   2.582   3.452
11708TIP3    H235068   7.477   2.556   3.318
11709TIP3   OH235069   2.032   0.094   4.573
11709TIP3    H135070   2.095   0.127   4.510
11709TIP3    H235071   1.950   0.137   4.549
11710TIP3   OH235072   7.105   5.697   4.220
11710TIP3    H135073   7.177   5.693   4.283
11710TIP3    H235074   7.039   5.638   4.255
11711TIP3   OH235075   2.395   0.406   3.990
11711TIP3    H135076   2.356   0.318   3.987
11711TIP3    H235077   2.489   0.391   3.982
11712TIP3   OH235078   7.851   5.210   3.157
11712TIP3    H135079   7.795   5.148   3.203
11712TIP3    H235080   7.907   5.246   3.225
11713TIP3   OH235081   0.958   5.704   4.097
11713TIP3    H135082   1.025   5.744   4.041
11713TIP3    H235083   0.982   5.731   4.185
11714TIP3   OH235084   5.858   3.811   5.534
11714TIP3    H135085   5.786   3.770   5.486
11714TIP3    H235086   5.933   3.804   5.475
11715TIP3   OH235087   3.642   7.188   2.164
11715TIP3    H135088   3.564   7.236   2.192
11715TIP3    H235089   3.679   7.242   2.094
11716TIP3   OH235090   4.322   7.395  -0.018
11716TIP3    H135091   4.384   7.458   0.018
11716TIP3    H235092   4.283   7.353   0.059
11717TIP3   OH235093   2.536   7.045   1.637
11717TIP3    H135094   2.622   7.029   1.598
11717TIP3    H235095   2.515   7.135   1.613
11718TIP3   OH235096   4.462   4.020   6.572
11718TIP3    H135097   4.479   3.926   6.563
11718TIP3    H235098   4.450   4.050   6.482
11719TIP3   OH235099   2.280   4.809   2.978
11719TIP3    H135100   2.245   4.808   3.067
11719TIP3    H235101   2.363   4.762   2.984
11720TIP3   OH235102   4.963   5.192   6.424
11720TIP3    H135103   4.885   5.244   6.405
11720TIP3    H235104   4.968   5.128   6.354
11721TIP3   OH235105   1.482   6.925   5.027
11721TIP3    H135106   1.418   6.858   5.047
11721TIP3    H235107   1.432   6.994   4.982
11722TIP3   OH235108   2.881   3.338   0.108
11722TIP3    H135109   2.912   3.388   0.033
11722TIP3    H235110   2.792   3.312   0.084
11723TIP3   OH235111   5.553   5.569   5.877
11723TIP3    H135112   5.566   5.560   5.783
11723TIP3    H235113   5.623   5.517   5.917
11724TIP3   OH235114   3.585   2.821   5.895
11724TIP3    H135115   3.572   2.792   5.804
11724TIP3    H235116   3.626   2.747   5.939
11725TIP3   OH235117   7.204   2.214   6.371
11725TIP3    H135118   7.236   2.130   6.341
11725TIP3    H235119   7.279   2.254   6.416
11726TIP3   OH235120   0.164   6.207   6.455
11726TIP3    H135121   0.083   6.224   6.407
11726TIP3    H235122   0.135   6.180   6.542
11727TIP3   OH235123   4.423   2.207   5.221
11727TIP3    H135124   4.358   2.222   5.290
11727TIP3    H235125   4.421   2.112   5.207
11728TIP3   OH235126   6.985   6.657   4.182
11728TIP3    H135127   7.072   6.696   4.182
11728TIP3    H235128   6.939   6.701   4.253
11729TIP3   OH235129   0.101   5.498   4.420
11729TIP3    H135130   0.171   5.447   4.461
11729TIP3    H235131   0.023   5.474   4.469
11730TIP3   OH235132   1.246   5.250   5.588
11730TIP3    H135133   1.342   5.247   5.590
11730TIP3    H235134   1.219   5.233   5.678
11731TIP3   OH235135   1.192   5.023   4.261
11731TIP3    H135136   1.184   5.047   4.169
11731TIP3    H235137   1.255   5.086   4.297
11732TIP3   OH235138   7.170   0.952   2.126
11732TIP3    H135139   7.113   0.885   2.089
11732TIP3    H235140   7.210   0.995   2.050
11733TIP3   OH235141   5.981   5.062   1.683
11733TIP3    H135142   6.059   5.037   1.732
11733TIP3    H235143   6.013   5.122   1.616
11734TIP3   OH235144   0.436   2.478   6.331
11734TIP3    H135145   0.462   2.556   6.282
11734TIP3    H235146   0.423   2.411   6.264
11735TIP3   OH235147   4.227   4.715   2.068
11735TIP3    H135148   4.292   4.774   2.106
11735TIP3    H235149   4.172   4.771   2.013
11736TIP3   OH235150   2.809   0.919   6.642
11736TIP3    H135151   2.777   0.920   6.552
11736TIP3    H235152   2.759   0.989   6.685
11737TIP3   OH235153   8.116   2.613   1.910
11737TIP3    H135154   8.196   2.562   1.923
11737TIP3    H235155   8.045   2.551   1.924
11738TIP3   OH235156   5.511   3.510   2.684
11738TIP3    H135157   5.554   3.433   2.720
11738TIP3    H235158   5.429   3.477   2.648
11739TIP3   OH235159   2.146   1.269   1.654
11739TIP3    H135160   2.173   1.360   1.649
11739TIP3    H235161   2.192   1.233   1.729
11740TIP3   OH235162   0.572   4.800   2.934
11740TIP3    H135163   0.618   4.852   2.869
11740TIP3    H235164   0.626   4.721   2.943
11741TIP3   OH235165   7.680   4.539   2.117
11741TIP3    H135166   7.636   4.489   2.186
11741TIP3    H235167   7.612   4.553   2.051
11742TIP3   OH235168   4.987   6.001   2.057
11742TIP3    H135169   5.009   5.995   2.150
11742TIP3    H235170   5.066   5.973   2.011
11743TIP3   OH235171   5.245   4.791   3.130
11743TIP3    H135172   5.208   4.838   3.205
11743TIP3    H235173   5.210   4.702   3.137
11744TIP3   OH235174   4.016   2.702   3.186
11744TIP3    H135175   3.941   2.669   3.236
11744TIP3    H235176   4.042   2.628   3.130
11745TIP3   OH235177   6.137   7.133   0.306
11745TIP3    H135178   6.117   7.208   0.250
11745TIP3    H235179   6.214   7.160   0.355
11746TIP3   OH235180   2.604   2.513   1.330
11746TIP3    H135181   2.682   2.466   1.300
11746TIP3    H235182   2.612   2.513   1.426
11747TIP3   OH235183   1.531   5.056   4.084
11747TIP3    H135184   1.544   5.044   4.178
11747TIP3    H235185   1.599   5.002   4.044
11748TIP3   OH235186   0.012   1.830   0.679
11748TIP3    H135187  -0.058   1.876   0.633
11748TIP3    H235188   0.060   1.899   0.725
11749TIP3   OH235189   7.576   1.474   2.631
11749TIP3    H135190   7.666   1.504   2.645
11749TIP3    H235191   7.524   1.555   2.630
11750TIP3   OH235192   3.082   7.820   5.209
11750TIP3    H135193   3.013   7.886   5.200
11750TIP3    H235194   3.046   7.743   5.164
11751TIP3   OH235195   6.743   6.420   4.259
11751TIP3    H135196   6.683   6.370   4.314
11751TIP3    H235197   6.775   6.490   4.316
11752TIP3   OH235198   1.107   3.757   5.711
11752TIP3    H135199   1.109   3.813   5.633
11752TIP3    H235200   1.058   3.808   5.775
11753TIP3   OH235201   4.403   3.125   0.537
11753TIP3    H135202   4.420   3.090   0.449
11753TIP3    H235203   4.308   3.119   0.546
11754TIP3   OH235204   2.640   1.325   1.750
11754TIP3    H135205   2.684   1.270   1.685
11754TIP3    H235206   2.608   1.263   1.816
11755TIP3   OH235207   5.665   6.843   5.001
11755TIP3    H135208   5.724   6.918   4.991
11755TIP3    H235209   5.653   6.809   4.913
11756TIP3   OH235210   3.267   1.980   6.200
11756TIP3    H135211   3.359   1.980   6.173
11756TIP3    H235212   3.250   2.071   6.224
11757TIP3   OH235213   7.598   5.570   3.025
11757TIP3    H135214   7.606   5.646   2.968
11757TIP3    H235215   7.688   5.542   3.040
11758TIP3   OH235216   6.676   4.705   3.836
11758TIP3    H135217   6.616   4.637   3.868
11758TIP3    H235218   6.758   4.688   3.882
11759TIP3   OH235219   3.537   0.097   2.305
11759TIP3    H135220   3.455   0.072   2.263
11759TIP3    H235221   3.553   0.029   2.370
11760TIP3   OH235222   5.458   3.875   0.314
11760TIP3    H135223   5.364   3.881   0.331
11760TIP3    H235224   5.466   3.804   0.249
11761TIP3   OH235225   2.689   5.992   2.006
11761TIP3    H135226   2.759   5.940   1.966
11761TIP3    H235227   2.672   6.062   1.943
11762TIP3   OH235228   4.734   5.346   6.375
11762TIP3    H135229   4.699   5.435   6.372
11762TIP3    H235230   4.740   5.320   6.284
11763TIP3   OH235231   0.887   5.434   3.792
11763TIP3    H135232   0.978   5.463   3.791
11763TIP3    H235233   0.890   5.343   3.761
11764TIP3   OH235234   0.300   1.094   1.001
11764TIP3    H135235   0.374   1.039   1.028
11764TIP3    H235236   0.223   1.045   1.028
11765TIP3   OH235237   6.391   6.358   3.148
11765TIP3    H135238   6.393   6.406   3.064
11765TIP3    H235239   6.391   6.266   3.122
11766TIP3   OH235240   7.604   5.117   1.547
11766TIP3    H135241   7.548   5.118   1.469
11766TIP3    H235242   7.546   5.142   1.619
11767TIP3   OH235243   6.568   6.810   3.211
11767TIP3    H135244   6.579   6.721   3.246
11767TIP3    H235245   6.636   6.817   3.144
11768TIP3   OH235246   1.365   0.700   0.151
11768TIP3    H135247   1.293   0.666   0.204
11768TIP3    H235248   1.354   0.658   0.065
11769TIP3   OH235249   0.308   2.402   0.527
11769TIP3    H135250   0.250   2.329   0.509
11769TIP3    H235251   0.331   2.437   0.441
11770TIP3   OH235252   5.055   2.805   2.537
11770TIP3    H135253   5.012   2.876   2.585
11770TIP3    H235254   5.090   2.748   2.605
11771TIP3   OH235255   1.154   5.988   5.923
11771TIP3    H135256   1.138   5.969   5.831
11771TIP3    H235257   1.244   6.020   5.926
11772TIP3   OH235258   4.237   7.145   2.985
11772TIP3    H135259   4.298   7.098   3.042
11772TIP3    H235260   4.233   7.092   2.905
11773TIP3   OH235261   7.494   3.820   5.500
11773TIP3    H135262   7.560   3.752   5.513
11773TIP3    H235263   7.412   3.772   5.488
11774TIP3   OH235264   1.562   5.530   4.792
11774TIP3    H135265   1.597   5.441   4.794
11774TIP3    H235266   1.495   5.531   4.860
11775TIP3   OH235267   1.135   5.837   3.821
11775TIP3    H135268   1.145   5.891   3.742
11775TIP3    H235269   1.179   5.886   3.890
11776TIP3   OH235270   0.638   0.762   0.558
11776TIP3    H135271   0.650   0.834   0.620
11776TIP3    H235272   0.571   0.794   0.497
11777TIP3   OH235273   3.653   1.697   0.462
11777TIP3    H135274   3.683   1.774   0.414
11777TIP3    H235275   3.578   1.665   0.412
11778TIP3   OH235276   6.290   2.209   5.885
11778TIP3    H135277   6.259   2.284   5.935
11778TIP3    H235278   6.299   2.241   5.796
11779TIP3   OH235279   4.210   2.996   5.832
11779TIP3    H135280   4.149   3.062   5.800
11779TIP3    H235281   4.156   2.937   5.885
11780TIP3   OH235282   5.626   2.904   4.914
11780TIP3    H135283   5.621   2.939   4.825
11780TIP3    H235284   5.720   2.897   4.932
11781TIP3   OH235285   6.503   6.455   2.620
11781TIP3    H135286   6.506   6.369   2.579
11781TIP3    H235287   6.459   6.511   2.556
11782TIP3   OH235288   6.363   4.474   5.038
11782TIP3    H135289   6.419   4.470   4.961
11782TIP3    H235290   6.424   4.484   5.111
11783TIP3   OH235291   2.219   4.605   2.328
11783TIP3    H135292   2.196   4.623   2.419
11783TIP3    H235293   2.187   4.681   2.280
11784TIP3   OH235294   6.852   6.516   5.398
11784TIP3    H135295   6.900   6.437   5.424
11784TIP3    H235296   6.766   6.507   5.439
11785TIP3   OH235297   5.874   5.623   5.926
11785TIP3    H135298   5.815   5.569   5.979
11785TIP3    H235299   5.817   5.689   5.888
11786TIP3   OH235300   1.694   3.167   5.333
11786TIP3    H135301   1.644   3.225   5.275
11786TIP3    H235302   1.706   3.218   5.413
11787TIP3   OH235303   1.708   1.464   4.054
11787TIP3    H135304   1.687   1.519   4.129
11787TIP3    H235305   1.803   1.466   4.049
11788TIP3   OH235306   7.228   0.424   1.610
11788TIP3    H135307   7.239   0.491   1.678
11788TIP3    H235308   7.301   0.439   1.550
11789TIP3   OH235309   3.328   7.179   3.222
11789TIP3    H135310   3.420   7.205   3.214
11789TIP3    H235311   3.288   7.248   3.276
11790TIP3   OH235312   1.723   7.665   2.492
11790TIP3    H135313   1.769   7.692   2.412
11790TIP3    H235314   1.648   7.724   2.496
11791TIP3   OH235315   3.083   5.446   0.892
11791TIP3    H135316   3.043   5.360   0.905
11791TIP3    H235317   3.015   5.497   0.848
11792TIP3   OH235318   6.102   0.709   0.931
11792TIP3    H135319   6.148   0.781   0.888
11792TIP3    H235320   6.010   0.735   0.932
11793TIP3   OH235321   0.305   4.578   6.767
11793TIP3    H135322   0.238   4.524   6.725
11793TIP3    H235323   0.367   4.516   6.803
11794TIP3   OH235324   2.422   0.367   0.755
11794TIP3    H135325   2.457   0.391   0.840
11794TIP3    H235326   2.327   0.374   0.766
11795TIP3   OH235327   6.076   5.414   0.400
11795TIP3    H135328   6.015   5.485   0.418
11795TIP3    H235329   6.138   5.416   0.473
11796TIP3   OH235330   6.714   1.137   0.792
11796TIP3    H135331   6.733   1.226   0.763
11796TIP3    H235332   6.711   1.085   0.712
11797TIP3   OH235333   3.842   2.846   6.175
11797TIP3    H135334   3.768   2.820   6.230
11797TIP3    H235335   3.907   2.778   6.188
11798TIP3   OH235336   3.351   3.435   5.475
11798TIP3    H135337   3.374   3.491   5.550
11798TIP3    H235338   3.407   3.358   5.485
11799TIP3   OH235339   1.850   2.886   3.057
11799TIP3    H135340   1.821   2.964   3.104
11799TIP3    H235341   1.785   2.873   2.989
11800TIP3   OH235342   4.619   1.516   4.860
11800TIP3    H135343   4.625   1.491   4.952
11800TIP3    H235344   4.657   1.442   4.813
11801TIP3   OH235345   1.559   6.713   0.090
11801TIP3    H135346   1.581   6.671   0.173
11801TIP3    H235347   1.530   6.801   0.114
11802TIP3   OH235348   5.283   7.717   5.377
11802TIP3    H135349   5.312   7.743   5.464
11802TIP3    H235350   5.211   7.655   5.393
11803TIP3   OH235351   3.818   6.558   2.705
11803TIP3    H135352   3.851   6.470   2.685
11803TIP3    H235353   3.728   6.558   2.672
11804TIP3   OH235354   0.378   1.120   6.134
11804TIP3    H135355   0.360   1.037   6.177
11804TIP3    H235356   0.424   1.171   6.201
11805TIP3   OH235357   6.883   1.097   4.561
11805TIP3    H135358   6.858   1.005   4.563
11805TIP3    H235359   6.827   1.139   4.626
11806TIP3   OH235360   0.562   4.997   0.400
11806TIP3    H135361   0.475   4.979   0.366
11806TIP3    H235362   0.618   4.930   0.361
11807TIP3   OH235363   2.911   4.451   2.207
11807TIP3    H135364   2.817   4.470   2.218
11807TIP3    H235365   2.952   4.537   2.205
11808TIP3   OH235366   1.017   6.491   0.120
11808TIP3    H135367   1.093   6.441   0.150
11808TIP3    H235368   0.965   6.506   0.199
11809TIP3   OH235369   3.901   0.399   2.081
11809TIP3    H135370   3.973   0.343   2.052
11809TIP3    H235371   3.830   0.379   2.020
11810TIP3   OH235372   0.204   3.535   6.213
11810TIP3    H135373   0.291   3.563   6.240
11810TIP3    H235374   0.146   3.567   6.283
11811TIP3   OH235375   5.553   4.930   0.603
11811TIP3    H135376   5.619   4.868   0.572
11811TIP3    H235377   5.553   4.920   0.698
11812TIP3   OH235378   0.542   4.974   4.590
11812TIP3    H135379   0.608   4.908   4.568
11812TIP3    H235380   0.498   4.938   4.667
11813TIP3   OH235381   0.865   5.792   5.882
11813TIP3    H135382   0.771   5.788   5.897
11813TIP3    H235383   0.900   5.833   5.962
11814TIP3   OH235384   2.715   0.449   4.389
11814TIP3    H135385   2.748   0.366   4.355
11814TIP3    H235386   2.620   0.445   4.375
11815TIP3   OH235387   6.254   4.101   4.608
11815TIP3    H135388   6.307   4.165   4.656
11815TIP3    H235389   6.188   4.153   4.563
11816TIP3   OH235390   0.702   3.740   1.089
11816TIP3    H135391   0.776   3.706   1.139
11816TIP3    H235392   0.674   3.667   1.034
11817TIP3   OH235393   3.028   0.701   2.247
11817TIP3    H135394   3.089   0.659   2.187
11817TIP3    H235395   3.065   0.686   2.334
11818TIP3   OH235396   4.181   6.624   6.572
11818TIP3    H135397   4.177   6.719   6.577
11818TIP3    H235398   4.165   6.604   6.480
11819TIP3   OH235399   0.761   2.958   1.888
11819TIP3    H135400   0.802   3.033   1.932
11819TIP3    H235401   0.808   2.882   1.922
11820TIP3   OH235402   6.734   6.689   6.788
11820TIP3    H135403   6.729   6.651   6.700
11820TIP3    H235404   6.717   6.616   6.847
11821TIP3   OH235405   1.418   6.922   3.028
11821TIP3    H135406   1.382   6.971   2.954
11821TIP3    H235407   1.349   6.926   3.095
11822TIP3   OH235408   2.850   5.673   1.552
11822TIP3    H135409   2.877   5.581   1.560
11822TIP3    H235410   2.932   5.722   1.557
11823TIP3   OH235411   0.319   1.024   0.462
11823TIP3    H135412   0.282   1.081   0.395
11823TIP3    H235413   0.306   1.073   0.544
11824TIP3   OH235414   4.750   2.718   3.036
11824TIP3    H135415   4.694   2.719   3.113
11824TIP3    H235416   4.690   2.705   2.962
11825TIP3   OH235417   5.575   3.336   5.168
11825TIP3    H135418   5.494   3.335   5.219
11825TIP3    H235419   5.593   3.429   5.153
11826TIP3   OH235420   3.149   3.145   5.468
11826TIP3    H135421   3.203   3.072   5.497
11826TIP3    H235422   3.123   3.189   5.549
11827TIP3   OH235423   4.308   4.890   6.563
11827TIP3    H135424   4.288   4.800   6.588
11827TIP3    H235425   4.375   4.918   6.625
11828TIP3   OH235426   0.589   6.102   0.212
11828TIP3    H135427   0.509   6.140   0.247
11828TIP3    H235428   0.646   6.177   0.196
11829TIP3   OH235429   1.736   4.747   1.594
11829TIP3    H135430   1.681   4.823   1.610
11829TIP3    H235431   1.730   4.733   1.499
11830TIP3   OH235432   1.187   1.775   2.497
11830TIP3    H135433   1.272   1.730   2.496
11830TIP3    H235434   1.123   1.704   2.495
11831TIP3   OH235435   1.087   2.422   1.399
11831TIP3    H135436   1.101   2.459   1.312
11831TIP3    H235437   1.147   2.470   1.455
11832TIP3   OH235438   6.433   3.841   5.992
11832TIP3    H135439   6.343   3.874   5.994
11832TIP3    H235440   6.485   3.910   6.033
11833TIP3   OH235441   1.296   0.191   1.192
11833TIP3    H135442   1.249   0.189   1.108
11833TIP3    H235443   1.327   0.282   1.200
11834TIP3   OH235444   6.991   4.135   4.591
11834TIP3    H135445   7.052   4.170   4.656
11834TIP3    H235446   7.047   4.095   4.524
11835TIP3   OH235447   0.330   2.285   1.084
11835TIP3    H135448   0.423   2.278   1.107
11835TIP3    H235449   0.328   2.276   0.989
11836TIP3   OH235450   4.328   1.318   2.352
11836TIP3    H135451   4.308   1.234   2.311
11836TIP3    H235452   4.305   1.306   2.444
11837TIP3   OH235453   7.607   1.562   6.448
11837TIP3    H135454   7.574   1.515   6.525
11837TIP3    H235455   7.691   1.598   6.477
11838TIP3   OH235456   7.340   5.776   0.700
11838TIP3    H135457   7.420   5.829   0.695
11838TIP3    H235458   7.366   5.691   0.664
11839TIP3   OH235459   1.842   4.398   1.031
11839TIP3    H135460   1.788   4.347   1.091
11839TIP3    H235461   1.920   4.345   1.018
11840TIP3   OH235462   5.101   0.177   5.245
11840TIP3    H135463   5.122   0.086   5.226
11840TIP3    H235464   5.015   0.191   5.206
11841TIP3   OH235465   6.505   7.723   4.436
11841TIP3    H135466   6.567   7.792   4.411
11841TIP3    H235467   6.555   7.642   4.429
11842TIP3   OH235468   3.201   5.136   3.306
11842TIP3    H135469   3.261   5.141   3.381
11842TIP3    H235470   3.119   5.173   3.340
11843TIP3   OH235471   3.902   7.775   3.615
11843TIP3    H135472   3.849   7.774   3.694
11843TIP3    H235473   3.848   7.821   3.550
11844TIP3   OH235474   5.675   5.259   3.204
11844TIP3    H135475   5.640   5.316   3.272
11844TIP3    H235476   5.698   5.178   3.249
11845TIP3   OH235477   3.545   3.800   3.498
11845TIP3    H135478   3.583   3.874   3.545
11845TIP3    H235479   3.533   3.732   3.564
11846TIP3   OH235480   3.750   0.752   2.272
11846TIP3    H135481   3.696   0.713   2.204
11846TIP3    H235482   3.740   0.846   2.259
11847TIP3   OH235483   3.411   5.852   5.534
11847TIP3    H135484   3.506   5.854   5.524
11847TIP3    H235485   3.396   5.799   5.612
11848TIP3   OH235486   4.788   3.681   1.918
11848TIP3    H135487   4.803   3.669   2.012
11848TIP3    H235488   4.695   3.703   1.912
11849TIP3   OH235489   1.568   0.381   0.152
11849TIP3    H135490   1.522   0.339   0.079
11849TIP3    H235491   1.617   0.310   0.193
11850TIP3   OH235492   6.354   0.350   6.273
11850TIP3    H135493   6.437   0.377   6.233
11850TIP3    H235494   6.366   0.257   6.292
11851TIP3   OH235495   2.786   2.189   6.551
11851TIP3    H135496   2.789   2.212   6.459
11851TIP3    H235497   2.692   2.179   6.570
11852TIP3   OH235498   0.787   3.673   2.941
11852TIP3    H135499   0.707   3.703   2.983
11852TIP3    H235500   0.761   3.657   2.850
11853TIP3   OH235501   0.232   5.449   5.304
11853TIP3    H135502   0.246   5.506   5.229
11853TIP3    H235503   0.138   5.455   5.321
11854TIP3   OH235504   1.227  -0.021   2.201
11854TIP3    H135505   1.278   0.010   2.276
11854TIP3    H235506   1.136  -0.017   2.231
11855TIP3   OH235507   7.840   6.429   3.161
11855TIP3    H135508   7.772   6.411   3.227
11855TIP3    H235509   7.911   6.369   3.183
11856TIP3   OH235510   4.892   4.659   2.660
11856TIP3    H135511   4.903   4.581   2.605
11856TIP3    H235512   4.982   4.685   2.682
11857TIP3   OH235513   2.689   4.822   0.577
11857TIP3    H135514   2.658   4.764   0.647
11857TIP3    H235515   2.783   4.831   0.593
11858TIP3   OH235516   7.391   7.377   6.672
11858TIP3    H135517   7.398   7.328   6.753
11858TIP3    H235518   7.298   7.371   6.648
11859TIP3   OH235519   4.441   5.791   4.148
11859TIP3    H135520   4.500   5.718   4.129
11859TIP3    H235521   4.383   5.795   4.072
11860TIP3   OH235522   3.571   1.365   6.059
11860TIP3    H135523   3.513   1.293   6.035
11860TIP3    H235524   3.656   1.324   6.075
11861TIP3   OH235525   0.236   0.835   6.233
11861TIP3    H135526   0.243   0.753   6.184
11861TIP3    H235527   0.283   0.818   6.315
11862TIP3   OH235528   0.836   3.137   2.067
11862TIP3    H135529   0.930   3.153   2.057
11862TIP3    H235530   0.819   3.149   2.160
11863TIP3   OH235531   2.697   2.617   1.885
11863TIP3    H135532   2.736   2.696   1.848
11863TIP3    H235533   2.656   2.573   1.810
11864TIP3   OH235534   8.007   7.264   5.563
11864TIP3    H135535   7.925   7.223   5.535
11864TIP3    H235536   7.989   7.358   5.563
11865TIP3   OH235537   6.632   4.382   3.559
11865TIP3    H135538   6.612   4.435   3.482
11865TIP3    H235539   6.547   4.349   3.588
11866TIP3   OH235540   4.089   7.549   3.787
11866TIP3    H135541   4.044   7.625   3.823
11866TIP3    H235542   4.127   7.505   3.864
11867TIP3   OH235543   6.046   0.625   2.002
11867TIP3    H135544   6.061   0.584   2.087
11867TIP3    H235545   6.108   0.698   2.000
11868TIP3   OH235546   0.988   1.317   1.931
11868TIP3    H135547   0.900   1.339   1.900
11868TIP3    H235548   1.045   1.333   1.856
11869TIP3   OH235549   1.863   7.056   3.620
11869TIP3    H135550   1.931   7.120   3.601
11869TIP3    H235551   1.784   7.090   3.577
11870TIP3   OH235552   7.100   3.695   2.006
11870TIP3    H135553   7.113   3.723   2.097
11870TIP3    H235554   7.017   3.647   2.008
11871TIP3   OH235555   5.938   6.931   3.065
11871TIP3    H135556   5.959   6.874   2.991
11871TIP3    H235557   6.012   6.991   3.071
11872TIP3   OH235558   8.133   5.018   6.588
11872TIP3    H135559   8.073   5.047   6.519
11872TIP3    H235560   8.098   5.057   6.668
11873TIP3   OH235561   0.898   6.508   2.515
11873TIP3    H135562   0.915   6.548   2.600
11873TIP3    H235563   0.879   6.416   2.535
11874TIP3   OH235564   1.192   0.298   0.124
11874TIP3    H135565   1.259   0.233   0.144
11874TIP3    H235566   1.177   0.289   0.030
11875TIP3   OH235567   1.090   1.340   3.998
11875TIP3    H135568   1.047   1.423   4.020
11875TIP3    H235569   1.083   1.334   3.903
11876TIP3   OH235570   4.013   2.714   1.005
11876TIP3    H135571   4.059   2.748   1.082
11876TIP3    H235572   3.922   2.738   1.018
11877TIP3   OH235573   6.251   5.525   2.481
11877TIP3    H135574   6.246   5.608   2.433
11877TIP3    H235575   6.283   5.549   2.568
11878TIP3   OH235576   6.870   5.984   3.310
11878TIP3    H135577   6.918   5.981   3.227
11878TIP3    H235578   6.939   5.985   3.377
11879TIP3   OH235579   5.993   4.201   2.861
11879TIP3    H135580   5.900   4.215   2.844
11879TIP3    H235581   6.036   4.278   2.823
11880TIP3   OH235582   4.152   6.967   1.213
11880TIP3    H135583   4.070   6.932   1.179
11880TIP3    H235584   4.127   7.047   1.258
11881TIP3   OH235585   8.006   2.067   0.056
11881TIP3    H135586   8.028   1.987   0.103
11881TIP3    H235587   8.091   2.106   0.033
11882TIP3   OH235588   5.291   7.242   0.802
11882TIP3    H135589   5.285   7.277   0.891
11882TIP3    H235590   5.373   7.278   0.768
11883TIP3   OH235591   2.893   1.916   6.675
11883TIP3    H135592   2.957   1.874   6.618
11883TIP3    H235593   2.820   1.854   6.679
11884TIP3   OH235594   6.181   2.524   5.309
11884TIP3    H135595   6.161   2.617   5.295
11884TIP3    H235596   6.184   2.486   5.222
11885TIP3   OH235597   3.915   6.163   3.427
11885TIP3    H135598   3.969   6.089   3.454
11885TIP3    H235599   3.962   6.240   3.458
11886TIP3   OH235600   1.071   1.591   4.669
11886TIP3    H135601   1.129   1.578   4.745
11886TIP3    H235602   1.106   1.532   4.602
11887TIP3   OH235603   3.362   7.155   5.684
11887TIP3    H135604   3.314   7.238   5.688
11887TIP3    H235605   3.412   7.151   5.766
11888TIP3   OH235606   1.439   7.513   2.981
11888TIP3    H135607   1.527   7.488   2.953
11888TIP3    H235608   1.444   7.513   3.077
11889TIP3   OH235609   5.067   0.436   1.263
11889TIP3    H135610   4.999   0.490   1.302
11889TIP3    H235611   5.119   0.405   1.337
11890TIP3   OH235612   4.760   3.072   0.859
11890TIP3    H135613   4.718   3.021   0.929
11890TIP3    H235614   4.730   3.031   0.778
11891TIP3   OH235615   1.108   2.030   6.225
11891TIP3    H135616   1.098   1.975   6.302
11891TIP3    H235617   1.198   2.013   6.195
11892TIP3   OH235618   5.819   7.409   2.726
11892TIP3    H135619   5.901   7.443   2.690
11892TIP3    H235620   5.775   7.485   2.763
11893TIP3   OH235621   1.747   2.462   4.381
11893TIP3    H135622   1.819   2.523   4.397
11893TIP3    H235623   1.784   2.376   4.403
11894TIP3   OH235624   1.207   5.533   3.552
11894TIP3    H135625   1.219   5.542   3.646
11894TIP3    H235626   1.135   5.471   3.543
11895TIP3   OH235627   1.324   1.728   4.177
11895TIP3    H135628   1.267   1.800   4.205
11895TIP3    H235629   1.409   1.769   4.163
11896TIP3   OH235630   5.131   1.991   1.737
11896TIP3    H135631   5.068   1.973   1.668
11896TIP3    H235632   5.169   2.076   1.714
11897TIP3   OH235633   2.763   4.170   3.530
11897TIP3    H135634   2.854   4.153   3.555
11897TIP3    H235635   2.760   4.264   3.512
11898TIP3   OH235636   5.160   3.393   2.303
11898TIP3    H135637   5.221   3.336   2.256
11898TIP3    H235638   5.173   3.372   2.395
11899TIP3   OH235639   6.419   3.794   1.784
11899TIP3    H135640   6.387   3.778   1.695
11899TIP3    H235641   6.364   3.865   1.818
11900TIP3   OH235642   2.737   4.201   6.540
11900TIP3    H135643   2.647   4.170   6.533
11900TIP3    H235644   2.777   4.145   6.606
11901TIP3   OH235645   4.427   0.192   4.608
11901TIP3    H135646   4.466   0.194   4.695
11901TIP3    H235647   4.498   0.218   4.549
11902TIP3   OH235648   5.652   1.372   4.254
11902TIP3    H135649   5.693   1.426   4.186
11902TIP3    H235650   5.685   1.284   4.238
11903TIP3   OH235651   8.007   2.152   3.120
11903TIP3    H135652   7.955   2.215   3.170
11903TIP3    H235653   7.996   2.179   3.029
11904TIP3   OH235654   3.989   3.814   0.226
11904TIP3    H135655   4.024   3.896   0.259
11904TIP3    H235656   4.020   3.810   0.135
11905TIP3   OH235657   0.687   5.465   0.539
11905TIP3    H135658   0.728   5.385   0.506
11905TIP3    H235659   0.667   5.446   0.631
11906TIP3   OH235660   8.137   2.252   5.620
11906TIP3    H135661   8.210   2.301   5.582
11906TIP3    H235662   8.178   2.184   5.673
11907TIP3   OH235663   7.532   1.242   4.004
11907TIP3    H135664   7.541   1.235   4.100
11907TIP3    H235665   7.478   1.319   3.990
11908TIP3   OH235666   4.881   7.209   0.151
11908TIP3    H135667   4.841   7.132   0.112
11908TIP3    H235668   4.942   7.241   0.084
11909TIP3   OH235669   2.803   7.838   2.676
11909TIP3    H135670   2.877   7.777   2.662
11909TIP3    H235671   2.772   7.859   2.588
11910TIP3   OH235672   4.150   2.065   5.104
11910TIP3    H135673   4.238   2.028   5.100
11910TIP3    H235674   4.150   2.134   5.038
11911TIP3   OH235675   2.742   5.831   3.286
11911TIP3    H135676   2.813   5.896   3.288
11911TIP3    H235677   2.676   5.870   3.228
11912TIP3   OH235678   3.016   0.055   5.387
11912TIP3    H135679   3.028  -0.004   5.461
11912TIP3    H235680   2.923   0.051   5.368
11913TIP3   OH235681   5.420   2.638   0.104
11913TIP3    H135682   5.356   2.694   0.148
11913TIP3    H235683   5.473   2.698   0.052
11914TIP3   OH235684   1.114   3.385   4.702
11914TIP3    H135685   1.206   3.379   4.676
11914TIP3    H235686   1.115   3.448   4.774
11915TIP3   OH235687   4.924   5.196   0.234
11915TIP3    H135688   4.892   5.273   0.280
11915TIP3    H235689   5.013   5.219   0.206
11916TIP3   OH235690   0.735   1.841   4.885
11916TIP3    H135691   0.816   1.893   4.884
11916TIP3    H235692   0.666   1.904   4.867
11917TIP3   OH235693   7.856   2.698   0.585
11917TIP3    H135694   7.947   2.689   0.612
11917TIP3    H235695   7.810   2.629   0.632
11918TIP3   OH235696   2.264   0.944   5.543
11918TIP3    H135697   2.255   0.854   5.577
11918TIP3    H235698   2.346   0.975   5.580
11919TIP3   OH235699   3.006   6.049   5.787
11919TIP3    H135700   2.962   5.983   5.841
11919TIP3    H235701   3.063   5.999   5.729
11920TIP3   OH235702   7.890   7.763   2.632
11920TIP3    H135703   7.846   7.806   2.705
11920TIP3    H235704   7.927   7.835   2.580
11921TIP3   OH235705   8.090   5.225   1.940
11921TIP3    H135706   8.010   5.190   1.900
11921TIP3    H235707   8.079   5.207   2.033
11922TIP3   OH235708   4.794   5.721   1.354
11922TIP3    H135709   4.794   5.656   1.425
11922TIP3    H235710   4.766   5.671   1.277
11923TIP3   OH235711   7.189   1.226   1.670
11923TIP3    H135712   7.151   1.306   1.705
11923TIP3    H235713   7.193   1.240   1.576
11924TIP3   OH235714   7.556   2.110   0.865
11924TIP3    H135715   7.480   2.168   0.875
11924TIP3    H235716   7.614   2.134   0.937
11925TIP3   OH235717   4.446   2.254   5.552
11925TIP3    H135718   4.385   2.284   5.485
11925TIP3    H235719   4.448   2.159   5.542
11926TIP3   OH235720   1.063   0.391   6.461
11926TIP3    H135721   1.135   0.449   6.437
11926TIP3    H235722   1.105   0.310   6.489
11927TIP3   OH235723   1.107   2.170   5.872
11927TIP3    H135724   1.122   2.160   5.778
11927TIP3    H235725   1.103   2.080   5.905
11928TIP3   OH235726   2.481   2.186   5.779
11928TIP3    H135727   2.435   2.223   5.855
11928TIP3    H235728   2.547   2.127   5.818
11929TIP3   OH235729   3.035   6.202   2.517
11929TIP3    H135730   3.096   6.129   2.503
11929TIP3    H235731   2.949   6.164   2.499
11930TIP3   OH235732   6.089   6.828   2.435
11930TIP3    H135733   6.012   6.875   2.466
11930TIP3    H235734   6.092   6.846   2.341
11931TIP3   OH235735   6.796   2.187   5.753
11931TIP3    H135736   6.789   2.174   5.848
11931TIP3    H235737   6.879   2.234   5.742
11932TIP3   OH235738   5.459   4.464   3.534
11932TIP3    H135739   5.512   4.384   3.538
11932TIP3    H235740   5.413   4.466   3.618
11933TIP3   OH235741   0.922   7.233   5.665
11933TIP3    H135742   0.991   7.296   5.645
11933TIP3    H235743   0.903   7.191   5.581
11934TIP3   OH235744   5.249   3.415   3.355
11934TIP3    H135745   5.193   3.485   3.387
11934TIP3    H235746   5.324   3.461   3.315
11935TIP3   OH235747   6.801   4.525   5.949
11935TIP3    H135748   6.829   4.522   6.041
11935TIP3    H235749   6.858   4.591   5.909
11936TIP3   OH235750   2.366   5.047   0.919
11936TIP3    H135751   2.389   5.126   0.870
11936TIP3    H235752   2.271   5.041   0.912
11937TIP3   OH235753   2.197   0.841   3.074
11937TIP3    H135754   2.195   0.867   2.982
11937TIP3    H235755   2.141   0.906   3.118
11938TIP3   OH235756   0.144   1.589   5.593
11938TIP3    H135757   0.171   1.624   5.678
11938TIP3    H235758   0.203   1.629   5.530
11939TIP3   OH235759   7.398   7.791   4.725
11939TIP3    H135760   7.476   7.814   4.676
11939TIP3    H235761   7.326   7.809   4.665
11940TIP3   OH235762   0.406   6.161   2.815
11940TIP3    H135763   0.320   6.184   2.850
11940TIP3    H235764   0.468   6.208   2.871
11941TIP3   OH235765   7.228   0.969   4.442
11941TIP3    H135766   7.320   0.986   4.427
11941TIP3    H235767   7.226   0.892   4.499
11942TIP3   OH235768   1.219   7.680   6.781
11942TIP3    H135769   1.147   7.741   6.798
11942TIP3    H235770   1.286   7.733   6.738
11943TIP3   OH235771   7.650   1.708   3.287
11943TIP3    H135772   7.715   1.763   3.245
11943TIP3    H235773   7.619   1.650   3.218
11944TIP3   OH235774   7.966   0.226   1.448
11944TIP3    H135775   7.977   0.319   1.426
11944TIP3    H235776   8.026   0.180   1.390
11945TIP3   OH235777   6.581   0.045   2.962
11945TIP3    H135778   6.530   0.004   2.892
11945TIP3    H235779   6.609   0.129   2.925
11946TIP3   OH235780   5.872   1.328   2.169
11946TIP3    H135781   5.906   1.370   2.247
11946TIP3    H235782   5.778   1.320   2.186
11947TIP3   OH235783   3.114   2.761   1.743
11947TIP3    H135784   3.167   2.683   1.760
11947TIP3    H235785   3.088   2.792   1.830
11948TIP3   OH235786   5.286   1.175   3.686
11948TIP3    H135787   5.238   1.115   3.629
11948TIP3    H235788   5.264   1.147   3.774
11949TIP3   OH235789   2.355   1.460   5.139
11949TIP3    H135790   2.273   1.417   5.162
11949TIP3    H235791   2.404   1.464   5.221
11950TIP3   OH235792   2.974   3.545   0.506
11950TIP3    H135793   2.987   3.457   0.469
11950TIP3    H235794   2.879   3.556   0.510
11951TIP3   OH235795   3.995   3.701   2.249
11951TIP3    H135796   4.039   3.688   2.166
11951TIP3    H235797   4.042   3.773   2.291
11952TIP3   OH235798   1.207   3.397   2.088
11952TIP3    H135799   1.295   3.427   2.068
11952TIP3    H235800   1.191   3.429   2.177
11953TIP3   OH235801   6.140   6.038   1.070
11953TIP3    H135802   6.098   5.955   1.047
11953TIP3    H235803   6.113   6.054   1.161
11954TIP3   OH235804   4.318   1.282   0.953
11954TIP3    H135805   4.250   1.261   1.017
11954TIP3    H235806   4.400   1.266   0.999
11955TIP3   OH235807   8.247   5.317   0.079
11955TIP3    H135808   8.268   5.396   0.028
11955TIP3    H235809   8.285   5.245   0.028
11956TIP3   OH235810   5.787   1.854   3.317
11956TIP3    H135811   5.822   1.849   3.406
11956TIP3    H235812   5.765   1.946   3.304
11957TIP3   OH235813   7.165   6.042   2.577
11957TIP3    H135814   7.118   5.983   2.518
11957TIP3    H235815   7.110   6.119   2.584
11958TIP3   OH235816   8.193   6.902   2.051
11958TIP3    H135817   8.236   6.982   2.021
11958TIP3    H235818   8.145   6.870   1.975
11959TIP3   OH235819   7.981   5.159   6.359
11959TIP3    H135820   7.971   5.105   6.281
11959TIP3    H235821   7.926   5.236   6.343
11960TIP3   OH235822   8.186   2.571   4.607
11960TIP3    H135823   8.256   2.552   4.544
11960TIP3    H235824   8.213   2.526   4.687
11961TIP3   OH235825   3.636   6.636   3.615
11961TIP3    H135826   3.687   6.558   3.637
11961TIP3    H235827   3.615   6.675   3.700
11962TIP3   OH235828   2.369   4.252   5.044
11962TIP3    H135829   2.394   4.344   5.055
11962TIP3    H235830   2.439   4.202   5.085
11963TIP3   OH235831   2.716   0.076   3.289
11963TIP3    H135832   2.743   0.045   3.375
11963TIP3    H235833   2.705   0.171   3.300
11964TIP3   OH235834   3.604   0.272   0.781
11964TIP3    H135835   3.527   0.217   0.768
11964TIP3    H235836   3.601   0.337   0.711
11965TIP3   OH235837   3.577   4.960   3.695
11965TIP3    H135838   3.542   4.999   3.615
11965TIP3    H235839   3.636   4.891   3.664
11966TIP3   OH235840   3.194   4.236   4.324
11966TIP3    H135841   3.194   4.142   4.342
11966TIP3    H235842   3.125   4.271   4.380
11967TIP3   OH235843   1.543   5.847   4.870
11967TIP3    H135844   1.603   5.806   4.808
11967TIP3    H235845   1.519   5.777   4.931
11968TIP3   OH235846   6.359   2.951   0.370
11968TIP3    H135847   6.413   3.025   0.396
11968TIP3    H235848   6.391   2.927   0.283
11969TIP3   OH235849   0.767   4.212   1.133
11969TIP3    H135850   0.683   4.199   1.177
11969TIP3    H235851   0.830   4.221   1.204
11970TIP3   OH235852   6.368   3.731   5.332
11970TIP3    H135853   6.439   3.753   5.393
11970TIP3    H235854   6.402   3.659   5.280
11971TIP3   OH235855   6.114   1.202   1.505
11971TIP3    H135856   6.072   1.284   1.479
11971TIP3    H235857   6.110   1.203   1.601
11972TIP3   OH235858   6.973   6.474   0.712
11972TIP3    H135859   7.002   6.528   0.638
11972TIP3    H235860   6.991   6.384   0.683
11973TIP3   OH235861   7.542   6.310   1.581
11973TIP3    H135862   7.476   6.279   1.644
11973TIP3    H235863   7.616   6.251   1.593
11974TIP3   OH235864   0.801   3.690   4.047
11974TIP3    H135865   0.788   3.738   4.129
11974TIP3    H235866   0.734   3.724   3.988
11975TIP3   OH235867   1.390   3.709   0.823
11975TIP3    H135868   1.479   3.674   0.820
11975TIP3    H235869   1.334   3.634   0.842
11976TIP3   OH235870   2.169   2.430   1.515
11976TIP3    H135871   2.074   2.422   1.507
11976TIP3    H235872   2.195   2.357   1.571
11977TIP3   OH235873   5.704   3.877   4.137
11977TIP3    H135874   5.674   3.805   4.193
11977TIP3    H235875   5.659   3.954   4.172
11978TIP3   OH235876   6.823   7.459   0.954
11978TIP3    H135877   6.832   7.493   1.043
11978TIP3    H235878   6.844   7.534   0.898
11979TIP3   OH235879   2.063   6.835   5.509
11979TIP3    H135880   2.008   6.773   5.557
11979TIP3    H235881   2.011   6.860   5.433
11980TIP3   OH235882   7.559   1.884   5.796
11980TIP3    H135883   7.623   1.851   5.733
11980TIP3    H235884   7.611   1.933   5.859
11981TIP3   OH235885   5.780   0.764   4.766
11981TIP3    H135886   5.698   0.785   4.722
11981TIP3    H235887   5.846   0.772   4.697
11982TIP3   OH235888   3.242   3.976   0.180
11982TIP3    H135889   3.192   3.916   0.236
11982TIP3    H235890   3.176   4.031   0.138
11983TIP3   OH235891   4.167   6.248   2.119
11983TIP3    H135892   4.260   6.267   2.126
11983TIP3    H235893   4.134   6.257   2.209
11984TIP3   OH235894   8.302   4.245   2.872
11984TIP3    H135895   8.393   4.273   2.858
11984TIP3    H235896   8.269   4.225   2.785
11985TIP3   OH235897   5.268   4.489   1.918
11985TIP3    H135898   5.297   4.502   1.827
11985TIP3    H235899   5.272   4.394   1.930
11986TIP3   OH235900   1.746   1.100   3.451
11986TIP3    H135901   1.813   1.033   3.467
11986TIP3    H235902   1.681   1.085   3.519
11987TIP3   OH235903   6.122   0.885   1.960
11987TIP3    H135904   6.090   0.923   2.042
11987TIP3    H235905   6.202   0.934   1.941
11988TIP3   OH235906   4.378   1.647   1.261
11988TIP3    H135907   4.374   1.665   1.355
11988TIP3    H235908   4.470   1.660   1.237
11989TIP3   OH235909   5.968   2.001   3.132
11989TIP3    H135910   5.943   2.093   3.125
11989TIP3    H235911   5.889   1.956   3.162
11990TIP3   OH235912   8.011   3.299   2.796
11990TIP3    H135913   8.091   3.296   2.848
11990TIP3    H235914   8.027   3.368   2.731
11991TIP3   OH235915   6.166   2.199   2.631
11991TIP3    H135916   6.104   2.138   2.670
11991TIP3    H235917   6.250   2.178   2.673
11992TIP3   OH235918   6.868   1.594   2.254
11992TIP3    H135919   6.883   1.671   2.198
11992TIP3    H235920   6.951   1.582   2.300
11993TIP3   OH235921   2.544   1.827   0.397
11993TIP3    H135922   2.613   1.810   0.460
11993TIP3    H235923   2.478   1.876   0.446
11994TIP3   OH235924   3.133   5.884   0.200
11994TIP3    H135925   3.089   5.961   0.237
11994TIP3    H235926   3.076   5.811   0.224
11995TIP3   OH235927   1.108   7.038   3.527
11995TIP3    H135928   1.075   6.961   3.574
11995TIP3    H235929   1.100   7.109   3.591
11996TIP3   OH235930   7.462   0.378   0.041
11996TIP3    H135931   7.375   0.383   0.082
11996TIP3    H235932   7.500   0.297   0.077
11997TIP3   OH235933   1.829   0.911   1.378
11997TIP3    H135934   1.791   0.881   1.296
11997TIP3    H235935   1.808   1.004   1.382
11998TIP3   OH235936   1.362   6.651   5.092
11998TIP3    H135937   1.344   6.611   5.007
11998TIP3    H235938   1.286   6.628   5.146
11999TIP3   OH235939   5.577   2.862   6.545
11999TIP3    H135940   5.666   2.852   6.510
11999TIP3    H235941   5.580   2.816   6.629
12000TIP3   OH235942   4.129   1.658   0.910
12000TIP3    H135943   4.202   1.715   0.931
12000TIP3    H235944   4.077   1.654   0.990
12001TIP3   OH235945   4.664   0.644   2.742
12001TIP3    H135946   4.744   0.604   2.709
12001TIP3    H235947   4.622   0.575   2.792
12002TIP3   OH235948   8.021   2.373   2.226
12002TIP3    H135949   7.981   2.335   2.304
12002TIP3    H235950   8.115   2.366   2.241
12003TIP3   OH235951   4.635   7.232   6.358
12003TIP3    H135952   4.705   7.282   6.314
12003TIP3    H235953   4.603   7.291   6.425
12004TIP3   OH235954   8.013   5.915   5.094
12004TIP3    H135955   8.014   5.993   5.149
12004TIP3    H235956   7.992   5.843   5.154
12005TIP3   OH235957   5.000   4.395   4.281
12005TIP3    H135958   5.007   4.345   4.200
12005TIP3    H235959   5.015   4.486   4.255
12006TIP3   OH235960   2.152   2.011   1.311
12006TIP3    H135961   2.135   2.099   1.277
12006TIP3    H235962   2.082   1.957   1.273
12007TIP3   OH235963   1.222   3.740   2.893
12007TIP3    H135964   1.142   3.755   2.943
12007TIP3    H235965   1.192   3.727   2.803
12008TIP3   OH235966   0.386   7.365   2.908
12008TIP3    H135967   0.466   7.403   2.872
12008TIP3    H235968   0.412   7.278   2.938
12009TIP3   OH235969   0.662   7.447   5.474
12009TIP3    H135970   0.684   7.426   5.384
12009TIP3    H235971   0.636   7.539   5.472
12010TIP3   OH235972   8.174   6.204   4.627
12010TIP3    H135973   8.192   6.131   4.568
12010TIP3    H235974   8.243   6.200   4.693
12011TIP3   OH235975   6.797   4.272   4.150
12011TIP3    H135976   6.750   4.230   4.222
12011TIP3    H235977   6.729   4.304   4.091
12012TIP3   OH235978   3.623   1.035   1.469
12012TIP3    H135979   3.629   0.949   1.510
12012TIP3    H235980   3.659   1.096   1.534
12013TIP3   OH235981   7.436   0.054   2.823
12013TIP3    H135982   7.528   0.035   2.841
12013TIP3    H235983   7.412   0.120   2.888
12014TIP3   OH235984   0.079   7.284   1.022
12014TIP3    H135985   0.097   7.318   0.935
12014TIP3    H235986   0.155   7.229   1.043
12015TIP3   OH235987   3.317   5.894   2.667
12015TIP3    H135988   3.312   5.808   2.709
12015TIP3    H235989   3.241   5.941   2.701
12016TIP3   OH235990   3.534   4.218   1.435
12016TIP3    H135991   3.508   4.132   1.402
12016TIP3    H235992   3.609   4.242   1.382
12017TIP3   OH235993   3.303   4.722   3.527
12017TIP3    H135994   3.241   4.773   3.580
12017TIP3    H235995   3.383   4.718   3.579
12018TIP3   OH235996   2.993   2.508   3.890
12018TIP3    H135997   3.075   2.464   3.870
12018TIP3    H235998   3.005   2.541   3.979
12019TIP3   OH235999   1.302   4.030   6.670
12019TIP3    H136000   1.265   4.024   6.758
12019TIP3    H236001   1.226   4.019   6.612
12020TIP3   OH236002   7.933   3.328   5.448
12020TIP3    H136003   7.957   3.366   5.364
12020TIP3    H236004   8.016   3.319   5.495
12021TIP3   OH236005   2.767   3.489   4.282
12021TIP3    H136006   2.695   3.444   4.236
12021TIP3    H236007   2.812   3.538   4.213
12022TIP3   OH236008   7.934   5.806   6.338
12022TIP3    H136009   7.967   5.727   6.380
12022TIP3    H236010   7.872   5.774   6.272
12023TIP3   OH236011   7.717   6.860   1.816
12023TIP3    H136012   7.749   6.924   1.880
12023TIP3    H236013   7.716   6.908   1.733
12024TIP3   OH236014   5.817   5.543   4.367
12024TIP3    H136015   5.821   5.530   4.272
12024TIP3    H236016   5.908   5.541   4.395
12025TIP3   OH236017   4.763   6.233   3.433
12025TIP3    H136018   4.723   6.269   3.354
12025TIP3    H236019   4.789   6.144   3.408
12026TIP3   OH236020   3.990   4.210   3.826
12026TIP3    H136021   3.923   4.226   3.893
12026TIP3    H236022   3.982   4.283   3.765
12027TIP3   OH236023   2.352   3.974   1.049
12027TIP3    H136024   2.371   4.052   1.101
12027TIP3    H236025   2.287   3.926   1.100
12028TIP3   OH236026   4.496   1.700   5.720
12028TIP3    H136027   4.409   1.704   5.681
12028TIP3    H236028   4.540   1.631   5.671
12029TIP3   OH236029   7.489   6.383   2.405
12029TIP3    H136030   7.463   6.431   2.484
12029TIP3    H236031   7.471   6.292   2.425
12030TIP3   OH236032   2.554   0.315   6.229
12030TIP3    H136033   2.613   0.323   6.153
12030TIP3    H236034   2.483   0.259   6.199
12031TIP3   OH236035   5.811   3.958   1.396
12031TIP3    H136036   5.830   3.866   1.379
12031TIP3    H236037   5.830   4.002   1.313
12032TIP3   OH236038   3.859   6.555   0.322
12032TIP3    H136039   3.795   6.617   0.358
12032TIP3    H236040   3.943   6.598   0.333
12033TIP3   OH236041   2.458   2.210   6.545
12033TIP3    H136042   2.457   2.126   6.590
12033TIP3    H236043   2.502   2.192   6.462
12034TIP3   OH236044   5.485   1.013   4.626
12034TIP3    H136045   5.576   1.043   4.636
12034TIP3    H236046   5.460   0.983   4.714
12035TIP3   OH236047   6.683   1.736   1.407
12035TIP3    H136048   6.735   1.703   1.480
12035TIP3    H236049   6.621   1.666   1.388
12036TIP3   OH236050   4.694   6.952   4.598
12036TIP3    H136051   4.679   6.892   4.525
12036TIP3    H236052   4.789   6.959   4.603
12037TIP3   OH236053   5.583   5.662   1.717
12037TIP3    H136054   5.612   5.589   1.772
12037TIP3    H236055   5.657   5.722   1.716
12038TIP3   OH236056   1.224   0.168   5.048
12038TIP3    H136057   1.200   0.076   5.053
12038TIP3    H236058   1.209   0.202   5.136
12039TIP3   OH236059   0.262   2.810   0.954
12039TIP3    H136060   0.289   2.889   0.907
12039TIP3    H236061   0.234   2.841   1.040
12040TIP3   OH236062   4.516   6.104   2.710
12040TIP3    H136063   4.501   6.134   2.800
12040TIP3    H236064   4.477   6.172   2.655
12041TIP3   OH236065   8.097   2.119   6.035
12041TIP3    H136066   8.135   2.106   5.948
12041TIP3    H236067   8.005   2.140   6.019
12042TIP3   OH236068   2.965   0.621   1.441
12042TIP3    H136069   3.006   0.599   1.357
12042TIP3    H236070   2.874   0.594   1.431
12043TIP3   OH236071   7.025   4.412   0.735
12043TIP3    H136072   7.112   4.442   0.763
12043TIP3    H236073   7.041   4.368   0.652
12044TIP3   OH236074   3.559   4.860   4.933
12044TIP3    H136075   3.578   4.775   4.974
12044TIP3    H236076   3.568   4.844   4.839
12045TIP3   OH236077   7.319   0.228   2.656
12045TIP3    H136078   7.304   0.296   2.722
12045TIP3    H236079   7.372   0.162   2.701
12046TIP3   OH236080   0.553   4.989   1.532
12046TIP3    H136081   0.479   4.985   1.470
12046TIP3    H236082   0.529   4.930   1.602
12047TIP3   OH236083   8.024   4.982   0.421
12047TIP3    H136084   7.965   4.997   0.348
12047TIP3    H236085   8.010   5.056   0.480
12048TIP3   OH236086   7.941   7.704   3.981
12048TIP3    H136087   7.939   7.697   3.886
12048TIP3    H236088   7.959   7.615   4.011
12049TIP3   OH236089   0.615   7.192   5.583
12049TIP3    H136090   0.700   7.166   5.547
12049TIP3    H236091   0.613   7.287   5.573
12050TIP3   OH236092   2.765   3.736   3.673
12050TIP3    H136093   2.735   3.786   3.597
12050TIP3    H236094   2.776   3.646   3.640
12051TIP3   OH236095   6.049   7.222   2.202
12051TIP3    H136096   6.142   7.227   2.180
12051TIP3    H236097   6.004   7.221   2.118
12052TIP3   OH236098   1.123   7.723   5.016
12052TIP3    H136099   1.087   7.780   4.948
12052TIP3    H236100   1.168   7.653   4.968
12053TIP3   OH236101   7.614   0.670   2.047
12053TIP3    H136102   7.607   0.668   2.143
12053TIP3    H236103   7.662   0.590   2.025
12054TIP3   OH236104   1.134   2.389   2.597
12054TIP3    H136105   1.134   2.481   2.569
12054TIP3    H236106   1.216   2.354   2.564
12055TIP3   OH236107   3.768   4.437   6.352
12055TIP3    H136108   3.725   4.510   6.308
12055TIP3    H236109   3.860   4.445   6.329
12056TIP3   OH236110   4.494   1.703   6.039
12056TIP3    H136111   4.510   1.784   6.088
12056TIP3    H236112   4.496   1.729   5.947
12057TIP3   OH236113  -0.048   4.861   3.450
12057TIP3    H136114   0.023   4.797   3.439
12057TIP3    H236115  -0.017   4.919   3.520
12058TIP3   OH236116   8.072   3.485   3.712
12058TIP3    H136117   8.107   3.574   3.706
12058TIP3    H236118   8.006   3.480   3.644
12059TIP3   OH236119   0.538   6.666   2.158
12059TIP3    H136120   0.445   6.649   2.168
12059TIP3    H236121   0.580   6.613   2.226
12060TIP3   OH236122   4.250   6.546   5.938
12060TIP3    H136123   4.216   6.513   6.021
12060TIP3    H236124   4.205   6.494   5.871
12061TIP3   OH236125   4.913   0.321   5.620
12061TIP3    H136126   4.851   0.249   5.613
12061TIP3    H236127   4.972   0.295   5.692
12062TIP3   OH236128   6.558   3.470   4.086
12062TIP3    H136129   6.617   3.423   4.027
12062TIP3    H236130   6.573   3.563   4.066
12063TIP3   OH236131   1.721   6.587   5.811
12063TIP3    H136132   1.748   6.669   5.851
12063TIP3    H236133   1.677   6.539   5.881
12064TIP3   OH236134   7.479   0.711   5.642
12064TIP3    H136135   7.402   0.756   5.608
12064TIP3    H236136   7.492   0.637   5.583
12065TIP3   OH236137   1.064   4.682   1.095
12065TIP3    H136138   1.039   4.646   1.010
12065TIP3    H236139   0.984   4.677   1.148
12066TIP3   OH236140   2.337   2.206   5.143
12066TIP3    H136141   2.395   2.230   5.216
12066TIP3    H236142   2.296   2.124   5.171
12067TIP3   OH236143   4.365   7.185   0.735
12067TIP3    H136144   4.357   7.279   0.745
12067TIP3    H236145   4.296   7.149   0.790
12068TIP3   OH236146   4.089   2.885   4.421
12068TIP3    H136147   4.134   2.919   4.344
12068TIP3    H236148   4.107   2.791   4.420
12069TIP3   OH236149   7.245   0.220   0.240
12069TIP3    H136150   7.236   0.126   0.254
12069TIP3    H236151   7.166   0.258   0.278
12070TIP3   OH236152   3.929   1.988   1.325
12070TIP3    H136153   3.907   1.934   1.250
12070TIP3    H236154   3.973   1.928   1.386
12071TIP3   OH236155   0.260   4.103   6.049
12071TIP3    H136156   0.174   4.117   6.089
12071TIP3    H236157   0.261   4.010   6.026
12072TIP3   OH236158   7.667   3.375   4.277
12072TIP3    H136159   7.656   3.417   4.363
12072TIP3    H236160   7.578   3.369   4.242
12073TIP3   OH236161   1.738   3.026   1.969
12073TIP3    H136162   1.657   3.001   1.925
12073TIP3    H236163   1.806   2.973   1.927
12074TIP3   OH236164   5.227   2.748   0.981
12074TIP3    H136165   5.178   2.767   1.060
12074TIP3    H236166   5.301   2.808   0.982
12075TIP3   OH236167   5.378   6.909   2.897
12075TIP3    H136168   5.392   6.966   2.973
12075TIP3    H236169   5.362   6.970   2.825
12076TIP3   OH236170   0.963   3.782   5.400
12076TIP3    H136171   0.986   3.717   5.334
12076TIP3    H236172   1.044   3.832   5.414
12077TIP3   OH236173   3.659   6.927   4.114
12077TIP3    H136174   3.655   6.844   4.161
12077TIP3    H236175   3.572   6.938   4.077
12078TIP3   OH236176   2.776   1.139   2.895
12078TIP3    H136177   2.743   1.220   2.934
12078TIP3    H236178   2.867   1.158   2.874
12079TIP3   OH236179   5.433   0.651   4.922
12079TIP3    H136180   5.459   0.731   4.968
12079TIP3    H236181   5.485   0.582   4.963
12080TIP3   OH236182   3.432   5.339   5.549
12080TIP3    H136183   3.436   5.294   5.633
12080TIP3    H236184   3.358   5.299   5.504
12081TIP3   OH236185   7.687   6.113   4.389
12081TIP3    H136186   7.608   6.060   4.398
12081TIP3    H236187   7.749   6.056   4.343
12082TIP3   OH236188   3.268   6.939   4.537
12082TIP3    H136189   3.182   6.914   4.572
12082TIP3    H236190   3.261   7.033   4.521
12083TIP3   OH236191   5.233   4.483   4.714
12083TIP3    H136192   5.281   4.553   4.759
12083TIP3    H236193   5.191   4.526   4.639
12084TIP3   OH236194   7.668   5.468   4.029
12084TIP3    H136195   7.637   5.408   3.961
12084TIP3    H236196   7.588   5.502   4.069
12085TIP3   OH236197   6.795   3.062   5.542
12085TIP3    H136198   6.749   3.037   5.461
12085TIP3    H236199   6.764   3.151   5.561
12086TIP3   OH236200   0.233   1.491   5.893
12086TIP3    H136201   0.174   1.417   5.881
12086TIP3    H236202   0.218   1.520   5.982
12087TIP3   OH236203   3.602   5.285   3.303
12087TIP3    H136204   3.674   5.271   3.364
12087TIP3    H236205   3.637   5.347   3.239
12088TIP3   OH236206   7.504   3.568   4.410
12088TIP3    H136207   7.439   3.638   4.417
12088TIP3    H236208   7.489   3.530   4.324
12089TIP3   OH236209   4.573   0.937   4.315
12089TIP3    H136210   4.561   0.977   4.229
12089TIP3    H236211   4.494   0.958   4.364
12090TIP3   OH236212   7.540   6.059   4.074
12090TIP3    H136213   7.623   6.100   4.097
12090TIP3    H236214   7.547   6.042   3.980
12091TIP3   OH236215   4.359   3.468   1.886
12091TIP3    H136216   4.386   3.511   1.805
12091TIP3    H236217   4.295   3.403   1.859
12092TIP3   OH236218   0.108   1.823   4.554
12092TIP3    H136219   0.042   1.805   4.487
12092TIP3    H236220   0.162   1.743   4.556
12093TIP3   OH236221   1.737   3.432   5.989
12093TIP3    H136222   1.697   3.481   5.917
12093TIP3    H236223   1.683   3.451   6.065
12094TIP3   OH236224   0.678   5.688   4.047
12094TIP3    H136225   0.770   5.680   4.072
12094TIP3    H236226   0.664   5.781   4.033
12095TIP3   OH236227   1.171   2.664   2.619
12095TIP3    H136228   1.095   2.685   2.565
12095TIP3    H236229   1.245   2.705   2.574
12096TIP3   OH236230   5.873   1.373   1.251
12096TIP3    H136231   5.896   1.456   1.211
12096TIP3    H236232   5.781   1.382   1.275
12097TIP3   OH236233   2.910   4.932   3.193
12097TIP3    H136234   2.841   4.949   3.128
12097TIP3    H236235   2.863   4.919   3.275
12098TIP3   OH236236   5.203   4.229   0.028
12098TIP3    H136237   5.141   4.192  -0.034
12098TIP3    H236238   5.284   4.239  -0.021
12099TIP3   OH236239   2.322   7.775   2.402
12099TIP3    H136240   2.349   7.843   2.463
12099TIP3    H236241   2.235   7.803   2.372
12100TIP3   OH236242   6.320   3.064   3.743
12100TIP3    H136243   6.280   3.037   3.659
12100TIP3    H236244   6.396   3.116   3.717
12101TIP3   OH236245   3.548   3.162   6.143
12101TIP3    H136246   3.605   3.193   6.213
12101TIP3    H236247   3.484   3.232   6.130
12102TIP3   OH236248   0.317   3.282   0.494
12102TIP3    H136249   0.285   3.287   0.404
12102TIP3    H236250   0.396   3.336   0.495
12103TIP3   OH236251   2.547   5.067   0.640
12103TIP3    H136252   2.454   5.052   0.622
12103TIP3    H236253   2.591   4.991   0.601
12104TIP3   OH236254   3.114   3.518   0.846
12104TIP3    H136255   3.160   3.594   0.810
12104TIP3    H236256   3.181   3.450   0.853
12105TIP3   OH236257   1.740   0.470   1.804
12105TIP3    H136258   1.763   0.493   1.714
12105TIP3    H236259   1.816   0.494   1.856
12106TIP3   OH236260   7.496   7.821   2.380
12106TIP3    H136261   7.434   7.758   2.342
12106TIP3    H236262   7.535   7.775   2.454
12107TIP3   OH236263   1.209   2.699   0.428
12107TIP3    H136264   1.215   2.604   0.418
12107TIP3    H236265   1.291   2.732   0.393
12108TIP3   OH236266   7.512   5.335   0.129
12108TIP3    H136267   7.579   5.362   0.067
12108TIP3    H236268   7.557   5.278   0.191
12109TIP3   OH236269   4.160   3.579   5.119
12109TIP3    H136270   4.086   3.531   5.155
12109TIP3    H236271   4.153   3.566   5.024
12110TIP3   OH236272   7.421   7.364   3.583
12110TIP3    H136273   7.388   7.442   3.538
12110TIP3    H236274   7.389   7.291   3.530
12111TIP3   OH236275   7.765   6.476   6.498
12111TIP3    H136276   7.704   6.549   6.510
12111TIP3    H236277   7.709   6.399   6.496
12112TIP3   OH236278   1.559   7.182   5.419
12112TIP3    H136279   1.582   7.140   5.336
12112TIP3    H236280   1.642   7.188   5.467
12113TIP3   OH236281   0.631   2.588   3.782
12113TIP3    H136282   0.689   2.658   3.753
12113TIP3    H236283   0.553   2.633   3.814
12114TIP3   OH236284   4.031   5.285   3.363
12114TIP3    H136285   3.995   5.367   3.330
12114TIP3    H236286   3.965   5.252   3.424
12115TIP3   OH236287   3.555   3.916   1.805
12115TIP3    H136288   3.563   3.993   1.748
12115TIP3    H236289   3.471   3.877   1.780
12116TIP3   OH236290   6.530   1.964   6.068
12116TIP3    H136291   6.453   1.923   6.108
12116TIP3    H236292   6.604   1.911   6.098
12117TIP3   OH236293   5.942   3.061   3.053
12117TIP3    H136294   5.918   3.131   3.113
12117TIP3    H236295   6.036   3.047   3.069
12118TIP3   OH236296   6.716   2.131   2.722
12118TIP3    H136297   6.677   2.059   2.773
12118TIP3    H236298   6.809   2.127   2.742
12119TIP3   OH236299   2.885   1.233   5.814
12119TIP3    H136300   2.978   1.209   5.808
12119TIP3    H236301   2.856   1.192   5.896
12120TIP3   OH236302   1.691   1.377   5.732
12120TIP3    H136303   1.679   1.326   5.811
12120TIP3    H236304   1.750   1.448   5.758
12121TIP3   OH236305   4.303   5.422   5.457
12121TIP3    H136306   4.359   5.486   5.412
12121TIP3    H236307   4.352   5.340   5.452
12122TIP3   OH236308   7.340   6.053   6.617
12122TIP3    H136309   7.365   6.050   6.709
12122TIP3    H236310   7.305   5.966   6.599
12123TIP3   OH236311   6.481   5.965   6.109
12123TIP3    H136312   6.450   5.880   6.077
12123TIP3    H236313   6.403   6.021   6.107
12124TIP3   OH236314   6.334   5.242   2.463
12124TIP3    H136315   6.401   5.263   2.527
12124TIP3    H236316   6.293   5.326   2.442
12125TIP3   OH236317   7.959   0.666   0.654
12125TIP3    H136318   8.052   0.689   0.661
12125TIP3    H236319   7.951   0.584   0.703
12126TIP3   OH236320   6.611   1.892   2.834
12126TIP3    H136321   6.559   1.849   2.765
12126TIP3    H236322   6.647   1.820   2.885
12127TIP3   OH236323   5.146   1.302   0.398
12127TIP3    H136324   5.101   1.385   0.382
12127TIP3    H236325   5.186   1.280   0.314
12128TIP3   OH236326   3.955   1.695   1.125
12128TIP3    H136327   4.008   1.657   1.194
12128TIP3    H236328   3.867   1.660   1.140
12129TIP3   OH236329   7.639   1.986   0.408
12129TIP3    H136330   7.689   1.928   0.350
12129TIP3    H236331   7.597   2.049   0.349
12130TIP3   OH236332   3.170   4.330   1.681
12130TIP3    H136333   3.213   4.246   1.697
12130TIP3    H236334   3.241   4.393   1.670
12131TIP3   OH236335   0.505   3.903   6.082
12131TIP3    H136336   0.557   3.981   6.063
12131TIP3    H236337   0.469   3.876   5.998
12132TIP3   OH236338   7.058   7.252   2.547
12132TIP3    H136339   7.151   7.233   2.552
12132TIP3    H236340   7.016   7.178   2.592
12133TIP3   OH236341   4.831   7.406   1.989
12133TIP3    H136342   4.926   7.403   1.981
12133TIP3    H236343   4.811   7.497   2.010
12134TIP3   OH236344   0.049   7.132   4.555
12134TIP3    H136345   0.113   7.066   4.582
12134TIP3    H236346   0.099   7.214   4.554
12135TIP3   OH236347   5.886   0.502   0.588
12135TIP3    H136348   5.964   0.449   0.599
12135TIP3    H236349   5.861   0.526   0.678
12136TIP3   OH236350   1.501   5.504   2.373
12136TIP3    H136351   1.433   5.549   2.424
12136TIP3    H236352   1.484   5.531   2.283
12137TIP3   OH236353   4.554   5.617   0.392
12137TIP3    H136354   4.603   5.699   0.402
12137TIP3    H236355   4.521   5.597   0.480
12138TIP3   OH236356   3.939   5.596   5.991
12138TIP3    H136357   3.956   5.666   5.929
12138TIP3    H236358   3.846   5.576   5.980
12139TIP3   OH236359   0.941   7.510   1.527
12139TIP3    H136360   0.856   7.476   1.500
12139TIP3    H236361   0.920   7.586   1.582
12140TIP3   OH236362   0.926   5.088   5.682
12140TIP3    H136363   0.888   5.166   5.722
12140TIP3    H236364   0.930   5.107   5.589
12141TIP3   OH236365   5.474   0.291   1.391
12141TIP3    H136366   5.397   0.321   1.440
12141TIP3    H236367   5.489   0.202   1.424
12142TIP3   OH236368   7.288   6.742   2.139
12142TIP3    H136369   7.356   6.719   2.203
12142TIP3    H236370   7.232   6.665   2.135
12143TIP3   OH236371   7.404   1.818   3.342
12143TIP3    H136372   7.423   1.902   3.384
12143TIP3    H236373   7.490   1.780   3.325
12144TIP3   OH236374   2.780   1.641   6.445
12144TIP3    H136375   2.746   1.630   6.356
12144TIP3    H236376   2.859   1.587   6.447
12145TIP3   OH236377   3.880   3.906   1.446
12145TIP3    H136378   3.957   3.883   1.498
12145TIP3    H236379   3.899   3.994   1.414
12146TIP3   OH236380   1.037   3.057   1.790
12146TIP3    H136381   0.971   3.126   1.781
12146TIP3    H236382   1.019   2.997   1.718
12147TIP3   OH236383   6.148   6.737   0.166
12147TIP3    H136384   6.208   6.707   0.098
12147TIP3    H236385   6.061   6.726   0.128
12148TIP3   OH236386   5.410   1.524   2.387
12148TIP3    H136387   5.495   1.481   2.395
12148TIP3    H236388   5.431   1.613   2.359
12149TIP3   OH236389   5.920   3.248   1.033
12149TIP3    H136390   5.926   3.331   1.081
12149TIP3    H236391   5.826   3.228   1.033
12150TIP3   OH236392   6.098   7.247   0.952
12150TIP3    H136393   6.112   7.185   1.024
12150TIP3    H236394   6.162   7.223   0.886
12151TIP3   OH236395   6.646   4.648   2.114
12151TIP3    H136396   6.659   4.555   2.099
12151TIP3    H236397   6.611   4.653   2.203
12152TIP3   OH236398   1.553   3.368   0.907
12152TIP3    H136399   1.502   3.429   0.961
12152TIP3    H236400   1.579   3.299   0.968
12153TIP3   OH236401   7.207   4.480   5.631
12153TIP3    H136402   7.220   4.469   5.537
12153TIP3    H236403   7.205   4.575   5.645
12154TIP3   OH236404   2.442   0.941   3.908
12154TIP3    H136405   2.443   0.931   3.813
12154TIP3    H236406   2.384   1.016   3.923
12155TIP3   OH236407   5.958   6.948   0.866
12155TIP3    H136408   5.916   7.011   0.808
12155TIP3    H236409   6.018   7.000   0.919
12156TIP3   OH236410   4.064   2.764   2.866
12156TIP3    H136411   3.985   2.798   2.909
12156TIP3    H236412   4.051   2.670   2.862
12157TIP3   OH236413   0.136   6.614   6.509
12157TIP3    H136414   0.094   6.685   6.558
12157TIP3    H236415   0.068   6.579   6.453
12158TIP3   OH236416   1.999   4.180   5.139
12158TIP3    H136417   2.046   4.217   5.065
12158TIP3    H236418   2.058   4.113   5.174
12159TIP3   OH236419   5.562   4.986   6.748
12159TIP3    H136420   5.516   5.049   6.803
12159TIP3    H236421   5.655   4.998   6.769
12160TIP3   OH236422   5.073   6.515   3.758
12160TIP3    H136423   4.983   6.493   3.734
12160TIP3    H236424   5.066   6.553   3.846
12161TIP3   OH236425   5.791   1.275   5.880
12161TIP3    H136426   5.851   1.334   5.834
12161TIP3    H236427   5.704   1.296   5.845
12162TIP3   OH236428   0.045   0.765   3.267
12162TIP3    H136429   0.022   0.834   3.206
12162TIP3    H236430   0.082   0.695   3.213
12163TIP3   OH236431   7.327   2.729   2.555
12163TIP3    H136432   7.413   2.735   2.513
12163TIP3    H236433   7.306   2.820   2.578
12164TIP3   OH236434   0.677   7.172   1.904
12164TIP3    H136435   0.634   7.119   1.836
12164TIP3    H236436   0.693   7.111   1.976
12165TIP3   OH236437   4.518   4.087   2.872
12165TIP3    H136438   4.597   4.085   2.819
12165TIP3    H236439   4.528   4.014   2.934
12166TIP3   OH236440   7.010   1.410   1.754
12166TIP3    H136441   6.967   1.491   1.729
12166TIP3    H236442   7.012   1.412   1.850
12167TIP3   OH236443   2.201   7.077   3.599
12167TIP3    H136444   2.182   7.166   3.627
12167TIP3    H236445   2.216   7.085   3.505
12168TIP3   OH236446   1.820   4.200   6.436
12168TIP3    H136447   1.822   4.161   6.349
12168TIP3    H236448   1.732   4.237   6.444
12169TIP3   OH236449   5.141   0.769   3.316
12169TIP3    H136450   5.182   0.686   3.294
12169TIP3    H236451   5.081   0.786   3.244
12170TIP3   OH236452   2.356   3.259   4.377
12170TIP3    H136453   2.410   3.237   4.453
12170TIP3    H236454   2.381   3.349   4.355
12171TIP3   OH236455   1.862   2.482   5.897
12171TIP3    H136456   1.927   2.412   5.893
12171TIP3    H236457   1.864   2.513   5.987
12172TIP3   OH236458   7.661   3.193   1.056
12172TIP3    H136459   7.605   3.231   0.989
12172TIP3    H236460   7.641   3.099   1.055
12173TIP3   OH236461   8.185   3.990   3.774
12173TIP3    H136462   8.175   4.070   3.825
12173TIP3    H236463   8.097   3.952   3.770
12174TIP3   OH236464   2.724   3.455   5.273
12174TIP3    H136465   2.820   3.451   5.272
12174TIP3    H236466   2.705   3.545   5.298
12175TIP3   OH236467   0.796   3.244   0.094
12175TIP3    H136468   0.850   3.177   0.137
12175TIP3    H236469   0.762   3.201   0.016
12176TIP3   OH236470   1.673   5.964   5.658
12176TIP3    H136471   1.702   6.004   5.740
12176TIP3    H236472   1.597   5.911   5.682
12177TIP3   OH236473   7.498   0.596   0.260
12177TIP3    H136474   7.410   0.569   0.285
12177TIP3    H236475   7.544   0.513   0.243
12178TIP3   OH236476   4.170   4.755   2.382
12178TIP3    H136477   4.246   4.780   2.330
12178TIP3    H236478   4.100   4.812   2.350
12179TIP3   OH236479   5.597   1.458   1.280
12179TIP3    H136480   5.544   1.455   1.200
12179TIP3    H236481   5.617   1.551   1.292
12180TIP3   OH236482   3.654   5.342   1.416
12180TIP3    H136483   3.588   5.349   1.486
12180TIP3    H236484   3.614   5.386   1.341
12181TIP3   OH236485   6.779   6.548   2.026
12181TIP3    H136486   6.872   6.559   2.048
12181TIP3    H236487   6.738   6.522   2.109
12182TIP3   OH236488   4.651   4.690   0.365
12182TIP3    H136489   4.616   4.734   0.288
12182TIP3    H236490   4.646   4.756   0.434
12183TIP3   OH236491   6.153   2.430   4.567
12183TIP3    H136492   6.197   2.481   4.635
12183TIP3    H236493   6.223   2.403   4.508
12184TIP3   OH236494   6.127   7.432   2.967
12184TIP3    H136495   6.198   7.496   2.965
12184TIP3    H236496   6.096   7.428   2.876
12185TIP3   OH236497   3.012   0.968   6.358
12185TIP3    H136498   3.036   1.043   6.412
12185TIP3    H236499   3.079   0.964   6.291
12186TIP3   OH236500   3.467   2.655   1.319
12186TIP3    H136501   3.435   2.735   1.360
12186TIP3    H236502   3.562   2.664   1.320
12187TIP3   OH236503   3.313   4.174   1.967
12187TIP3    H136504   3.222   4.148   1.955
12187TIP3    H236505   3.308   4.255   2.019
12188TIP3   OH236506   1.242   6.787   4.620
12188TIP3    H136507   1.332   6.768   4.644
12188TIP3    H236508   1.190   6.757   4.695
12189TIP3   OH236509   7.199   1.019   3.379
12189TIP3    H136510   7.137   1.078   3.337
12189TIP3    H236511   7.150   0.939   3.395
12190TIP3   OH236512   2.290   6.659   2.192
12190TIP3    H136513   2.366   6.702   2.152
12190TIP3    H236514   2.285   6.574   2.150
12191TIP3   OH236515   4.568   3.941   4.796
12191TIP3    H136516   4.519   4.016   4.764
12191TIP3    H236517   4.659   3.961   4.774
12192TIP3   OH236518   0.083   5.918   5.725
12192TIP3    H136519   0.157   5.942   5.780
12192TIP3    H236520   0.014   5.894   5.787
12193TIP3   OH236521   3.196   5.490   5.748
12193TIP3    H136522   3.168   5.582   5.748
12193TIP3    H236523   3.288   5.493   5.724
12194TIP3   OH236524   1.600   4.783   2.565
12194TIP3    H136525   1.550   4.788   2.484
12194TIP3    H236526   1.545   4.733   2.625
12195TIP3   OH236527   7.689   1.266   3.009
12195TIP3    H136528   7.711   1.190   3.062
12195TIP3    H236529   7.703   1.237   2.919
12196TIP3   OH236530   7.875   3.361   1.090
12196TIP3    H136531   7.806   3.298   1.072
12196TIP3    H236532   7.892   3.405   1.007
12197TIP3   OH236533   3.773   3.581   0.359
12197TIP3    H136534   3.806   3.493   0.380
12197TIP3    H236535   3.688   3.565   0.319
12198TIP3   OH236536   7.535   4.295   6.274
12198TIP3    H136537   7.518   4.277   6.182
12198TIP3    H236538   7.535   4.209   6.317
12199TIP3   OH236539   6.038   3.122   5.250
12199TIP3    H136540   6.053   3.033   5.219
12199TIP3    H236541   5.943   3.132   5.253
12200TIP3   OH236542   5.048   7.274   2.288
12200TIP3    H136543   4.987   7.344   2.308
12200TIP3    H236544   5.082   7.296   2.201
12201TIP3   OH236545   0.134   4.893   3.161
12201TIP3    H136546   0.116   4.871   3.252
12201TIP3    H236547   0.227   4.916   3.160
12202TIP3   OH236548   4.350   1.041   1.162
12202TIP3    H136549   4.259   1.027   1.189
12202TIP3    H236550   4.355   1.003   1.075
12203TIP3   OH236551   6.676   3.453   2.812
12203TIP3    H136552   6.692   3.373   2.862
12203TIP3    H236553   6.584   3.445   2.783
12204TIP3   OH236554   7.522   0.265   2.435
12204TIP3    H136555   7.533   0.273   2.530
12204TIP3    H236556   7.465   0.338   2.412
12205TIP3   OH236557   1.985   7.488   3.117
12205TIP3    H136558   2.050   7.445   3.061
12205TIP3    H236559   1.928   7.535   3.055
12206TIP3   OH236560   7.932   2.967   6.099
12206TIP3    H136561   7.843   2.964   6.134
12206TIP3    H236562   7.929   3.032   6.029
12207TIP3   OH236563   6.819   6.329   0.380
12207TIP3    H136564   6.879   6.260   0.353
12207TIP3    H236565   6.761   6.287   0.444
12208TIP3   OH236566   6.143   6.282   2.631
12208TIP3    H136567   6.131   6.370   2.668
12208TIP3    H236568   6.185   6.233   2.702
12209TIP3   OH236569   3.043   4.831   5.039
12209TIP3    H136570   3.065   4.771   4.967
12209TIP3    H236571   3.127   4.852   5.079
12210TIP3   OH236572   4.042   6.228   6.363
12210TIP3    H136573   4.065   6.207   6.453
12210TIP3    H236574   4.059   6.148   6.314
12211TIP3   OH236575   1.045   4.554   4.658
12211TIP3    H136576   0.978   4.614   4.625
12211TIP3    H236577   1.112   4.611   4.694
12212TIP3   OH236578   2.589   1.961   2.844
12212TIP3    H136579   2.655   1.983   2.779
12212TIP3    H236580   2.633   1.974   2.928
12213TIP3   OH236581   1.929   1.580   1.826
12213TIP3    H136582   1.937   1.644   1.756
12213TIP3    H236583   1.837   1.552   1.823
12214TIP3   OH236584   3.902   7.659   2.622
12214TIP3    H136585   3.881   7.592   2.556
12214TIP3    H236586   3.817   7.686   2.657
12215TIP3   OH236587   6.650   0.898   4.725
12215TIP3    H136588   6.673   0.973   4.780
12215TIP3    H236589   6.727   0.840   4.729
12216TIP3   OH236590   7.536   6.098   1.367
12216TIP3    H136591   7.577   6.185   1.365
12216TIP3    H236592   7.468   6.103   1.300
12217TIP3   OH236593   3.948   6.811   2.811
12217TIP3    H136594   3.871   6.757   2.793
12217TIP3    H236595   4.005   6.754   2.863
12218TIP3   OH236596   7.341   1.528   6.096
12218TIP3    H136597   7.409   1.473   6.059
12218TIP3    H236598   7.341   1.607   6.041
12219TIP3   OH236599   0.716   4.837   4.884
12219TIP3    H136600   0.629   4.875   4.880
12219TIP3    H236601   0.726   4.791   4.800
12220TIP3   OH236602   5.574   7.834   1.157
12220TIP3    H136603   5.532   7.919   1.161
12220TIP3    H236604   5.507   7.772   1.185
12221TIP3   OH236605   6.982   1.887   1.098
12221TIP3    H136606   7.065   1.934   1.104
12221TIP3    H236607   6.990   1.815   1.161
12222TIP3   OH236608   4.974   4.269   4.762
12222TIP3    H136609   4.966   4.219   4.680
12222TIP3    H236610   4.889   4.314   4.770
12223TIP3   OH236611   1.524   3.644   3.801
12223TIP3    H136612   1.531   3.723   3.855
12223TIP3    H236613   1.533   3.572   3.863
12224TIP3   OH236614   2.131   1.212   4.358
12224TIP3    H136615   2.199   1.265   4.401
12224TIP3    H236616   2.124   1.248   4.270
12225TIP3   OH236617   3.413   6.248   4.752
12225TIP3    H136618   3.489   6.245   4.810
12225TIP3    H236619   3.358   6.318   4.788
12226TIP3   OH236620   0.637   5.571   0.120
12226TIP3    H136621   0.595   5.493   0.157
12226TIP3    H236622   0.730   5.556   0.132
12227TIP3   OH236623   0.074   3.543   5.644
12227TIP3    H136624   0.154   3.506   5.681
12227TIP3    H236625   0.102   3.587   5.564
12228TIP3   OH236626   6.287   0.488   1.351
12228TIP3    H136627   6.193   0.506   1.357
12228TIP3    H236628   6.293   0.401   1.312
12229TIP3   OH236629   5.217   5.740   3.274
12229TIP3    H136630   5.157   5.734   3.348
12229TIP3    H236631   5.266   5.821   3.288
12230TIP3   OH236632   3.083   0.189   2.414
12230TIP3    H136633   3.037   0.246   2.475
12230TIP3    H236634   3.014   0.141   2.369
12231TIP3   OH236635   0.890   2.043   3.918
12231TIP3    H136636   0.801   2.035   3.883
12231TIP3    H236637   0.905   2.138   3.922
12232TIP3   OH236638   6.775   0.657   1.319
12232TIP3    H136639   6.749   0.566   1.334
12232TIP3    H236640   6.794   0.661   1.225
12233TIP3   OH236641   8.301   2.317   2.030
12233TIP3    H136642   8.352   2.398   2.044
12233TIP3    H236643   8.279   2.318   1.937
12234TIP3   OH236644   2.413   3.702   3.211
12234TIP3    H136645   2.481   3.764   3.185
12234TIP3    H236646   2.445   3.617   3.180
12235TIP3   OH236647   3.913   1.167   0.147
12235TIP3    H136648   3.847   1.097   0.143
12235TIP3    H236649   3.895   1.221   0.070
12236TIP3   OH236650   6.450   4.493   1.778
12236TIP3    H136651   6.538   4.526   1.760
12236TIP3    H236652   6.393   4.547   1.724
12237TIP3   OH236653   0.179   3.041   3.215
12237TIP3    H136654   0.195   3.036   3.120
12237TIP3    H236655   0.178   3.134   3.234
12238TIP3   OH236656   7.136   1.086   5.559
12238TIP3    H136657   7.127   1.152   5.490
12238TIP3    H236658   7.046   1.056   5.575
12239TIP3   OH236659   2.381   6.354   0.764
12239TIP3    H136660   2.384   6.276   0.821
12239TIP3    H236661   2.289   6.381   0.767
12240TIP3   OH236662   4.842   3.109   5.848
12240TIP3    H136663   4.928   3.137   5.817
12240TIP3    H236664   4.787   3.112   5.770
12241TIP3   OH236665   6.911   2.424   5.901
12241TIP3    H136666   6.991   2.474   5.917
12241TIP3    H236667   6.909   2.358   5.970
12242TIP3   OH236668   0.878   2.269   0.847
12242TIP3    H136669   0.814   2.286   0.778
12242TIP3    H236670   0.829   2.280   0.928
12243TIP3   OH236671   4.387   6.735   5.748
12243TIP3    H136672   4.356   6.688   5.825
12243TIP3    H236673   4.407   6.667   5.684
12244TIP3   OH236674   0.293   3.866   3.422
12244TIP3    H136675   0.320   3.952   3.453
12244TIP3    H236676   0.352   3.847   3.349
12245TIP3   OH236677   1.732   4.111   4.928
12245TIP3    H136678   1.827   4.100   4.935
12245TIP3    H236679   1.707   4.056   4.853
12246TIP3   OH236680   5.573   2.404   3.916
12246TIP3    H136681   5.652   2.433   3.961
12246TIP3    H236682   5.590   2.419   3.823
12247TIP3   OH236683   2.745   5.174   4.818
12247TIP3    H136684   2.743   5.125   4.901
12247TIP3    H236685   2.660   5.155   4.778
12248TIP3   OH236686   0.727   0.790   6.693
12248TIP3    H136687   0.788   0.864   6.691
12248TIP3    H236688   0.672   0.807   6.770
12249TIP3   OH236689   7.638   2.215   6.301
12249TIP3    H136690   7.594   2.300   6.305
12249TIP3    H236691   7.722   2.230   6.344
12250TIP3   OH236692   6.263   3.084   4.797
12250TIP3    H136693   6.275   3.131   4.880
12250TIP3    H236694   6.304   3.141   4.732
12251TIP3   OH236695   1.727   3.425   2.821
12251TIP3    H136696   1.653   3.482   2.802
12251TIP3    H236697   1.696   3.337   2.800
12252TIP3   OH236698   2.534   7.432   6.517
12252TIP3    H136699   2.459   7.478   6.479
12252TIP3    H236700   2.498   7.388   6.594
12253TIP3   OH236701   0.680   2.869   2.621
12253TIP3    H136702   0.626   2.947   2.606
12253TIP3    H236703   0.700   2.871   2.714
12254TIP3   OH236704   2.888   5.525   6.508
12254TIP3    H136705   2.917   5.590   6.572
12254TIP3    H236706   2.792   5.529   6.512
12255TIP3   OH236707   3.545   1.953   6.049
12255TIP3    H136708   3.511   1.876   6.003
12255TIP3    H236709   3.540   2.024   5.984
12256TIP3   OH236710   5.243   3.477   0.605
12256TIP3    H136711   5.183   3.403   0.594
12256TIP3    H236712   5.192   3.554   0.578
12257TIP3   OH236713   4.341   3.778   5.603
12257TIP3    H136714   4.437   3.781   5.594
12257TIP3    H236715   4.316   3.870   5.616
12258TIP3   OH236716   7.251   4.683   4.440
12258TIP3    H136717   7.224   4.653   4.353
12258TIP3    H236718   7.243   4.778   4.436
12259TIP3   OH236719   3.175   6.875   2.547
12259TIP3    H136720   3.263   6.884   2.509
12259TIP3    H236721   3.137   6.799   2.503
12260TIP3   OH236722   0.508   2.226   0.252
12260TIP3    H136723   0.447   2.160   0.285
12260TIP3    H236724   0.535   2.275   0.330
12261TIP3   OH236725   3.997   1.638   5.737
12261TIP3    H136726   4.030   1.680   5.816
12261TIP3    H236727   3.916   1.685   5.717
12262TIP3   OH236728   3.184   1.568   2.885
12262TIP3    H136729   3.240   1.617   2.945
12262TIP3    H236730   3.096   1.580   2.919
12263TIP3   OH236731   4.395   7.387   2.957
12263TIP3    H136732   4.343   7.431   2.890
12263TIP3    H236733   4.346   7.306   2.975
12264TIP3   OH236734   2.952   4.694   5.512
12264TIP3    H136735   2.962   4.615   5.565
12264TIP3    H236736   2.953   4.766   5.576
12265TIP3   OH236737   2.407   0.286   1.356
12265TIP3    H136738   2.469   0.286   1.429
12265TIP3    H236739   2.363   0.371   1.362
12266TIP3   OH236740   2.764   1.239   6.517
12266TIP3    H136741   2.689   1.248   6.457
12266TIP3    H236742   2.841   1.252   6.462
12267TIP3   OH236743   6.197   6.677   3.957
12267TIP3    H136744   6.204   6.603   3.896
12267TIP3    H236745   6.137   6.738   3.913
12268TIP3   OH236746   0.841   3.957   1.554
12268TIP3    H136747   0.874   3.868   1.536
12268TIP3    H236748   0.752   3.957   1.517
12269TIP3   OH236749   1.095   4.293   6.558
12269TIP3    H136750   1.113   4.200   6.545
12269TIP3    H236751   1.013   4.308   6.513
12270TIP3   OH236752   6.516   7.592   5.400
12270TIP3    H136753   6.553   7.623   5.482
12270TIP3    H236754   6.569   7.515   5.377
12271TIP3   OH236755   3.286   6.808   0.700
12271TIP3    H136756   3.346   6.868   0.656
12271TIP3    H236757   3.307   6.817   0.793
12272TIP3   OH236758   1.859   1.796   0.057
12272TIP3    H136759   1.765   1.789   0.041
12272TIP3    H236760   1.893   1.709   0.038
12273TIP3   OH236761   0.337   5.783   5.410
12273TIP3    H136762   0.330   5.688   5.411
12273TIP3    H236763   0.293   5.811   5.490
12274TIP3   OH236764   3.040   5.148   0.154
12274TIP3    H136765   3.029   5.126   0.062
12274TIP3    H236766   3.019   5.067   0.201
12275TIP3   OH236767   6.432   2.915   6.542
12275TIP3    H136768   6.430   2.880   6.631
12275TIP3    H236769   6.496   2.986   6.546
12276TIP3   OH236770   3.244   3.597   0.316
12276TIP3    H136771   3.198   3.595   0.232
12276TIP3    H236772   3.184   3.554   0.377
12277TIP3   OH236773   3.091   7.721   4.610
12277TIP3    H136774   3.113   7.637   4.569
12277TIP3    H236775   3.109   7.786   4.542
12278TIP3   OH236776   3.839   6.283   6.629
12278TIP3    H136777   3.815   6.278   6.721
12278TIP3    H236778   3.842   6.192   6.600
12279TIP3   OH236779   3.182   3.031   1.884
12279TIP3    H136780   3.252   3.030   1.950
12279TIP3    H236781   3.103   3.010   1.932
12280TIP3   OH236782   1.388   6.514   4.130
12280TIP3    H136783   1.334   6.443   4.094
12280TIP3    H236784   1.478   6.488   4.108
12281TIP3   OH236785   3.844   1.222   1.001
12281TIP3    H136786   3.891   1.144   1.032
12281TIP3    H236787   3.772   1.233   1.063
12282TIP3   OH236788   7.144   5.024   2.699
12282TIP3    H136789   7.159   4.932   2.720
12282TIP3    H236790   7.073   5.023   2.634
12283TIP3   OH236791   6.628   5.822   1.078
12283TIP3    H136792   6.544   5.865   1.092
12283TIP3    H236793   6.632   5.809   0.983
12284TIP3   OH236794   3.922   1.096   6.228
12284TIP3    H136795   3.933   1.014   6.180
12284TIP3    H236796   3.828   1.114   6.223
12285TIP3   OH236797   5.183   0.559   1.058
12285TIP3    H136798   5.268   0.515   1.050
12285TIP3    H236799   5.137   0.510   1.126
12286TIP3   OH236800   0.909   0.211   6.312
12286TIP3    H136801   0.956   0.275   6.366
12286TIP3    H236802   0.832   0.187   6.363
12287TIP3   OH236803   2.342   5.074   3.248
12287TIP3    H136804   2.287   5.152   3.238
12287TIP3    H236805   2.290   5.004   3.207
12288TIP3   OH236806   2.849   6.897   2.652
12288TIP3    H136807   2.863   6.852   2.736
12288TIP3    H236808   2.816   6.828   2.594
12289TIP3   OH236809   1.991   2.675   1.723
12289TIP3    H136810   2.051   2.611   1.761
12289TIP3    H236811   1.910   2.626   1.708
12290TIP3   OH236812   0.398   6.894   3.655
12290TIP3    H136813   0.405   6.889   3.750
12290TIP3    H236814   0.322   6.949   3.639
12291TIP3   OH236815   5.072   3.407   1.400
12291TIP3    H136816   5.114   3.371   1.322
12291TIP3    H236817   5.006   3.467   1.366
12292TIP3   OH236818   7.787   7.024   4.592
12292TIP3    H136819   7.742   7.107   4.606
12292TIP3    H236820   7.795   6.986   4.680
12293TIP3   OH236821   7.355   4.163   6.655
12293TIP3    H136822   7.342   4.112   6.575
12293TIP3    H236823   7.303   4.242   6.642
12294TIP3   OH236824   6.341   0.341   2.179
12294TIP3    H136825   6.360   0.271   2.241
12294TIP3    H236826   6.371   0.421   2.222
12295TIP3   OH236827   4.773   5.277   5.110
12295TIP3    H136828   4.701   5.302   5.168
12295TIP3    H236829   4.761   5.332   5.032
12296TIP3   OH236830   2.300   2.568   2.220
12296TIP3    H136831   2.360   2.638   2.195
12296TIP3    H236832   2.339   2.489   2.183
12297TIP3   OH236833   7.598   0.772   0.689
12297TIP3    H136834   7.575   0.795   0.599
12297TIP3    H236835   7.635   0.852   0.726
12298TIP3   OH236836   5.071   0.282   6.450
12298TIP3    H136837   5.062   0.256   6.541
12298TIP3    H236838   4.981   0.281   6.416
12299TIP3   OH236839   8.278   2.669   2.874
12299TIP3    H136840   8.203   2.625   2.834
12299TIP3    H236841   8.241   2.744   2.919
12300TIP3   OH236842   7.429   0.790   3.096
12300TIP3    H136843   7.495   0.744   3.043
12300TIP3    H236844   7.354   0.730   3.098
12301TIP3   OH236845   0.572   3.339   4.301
12301TIP3    H136846   0.613   3.425   4.308
12301TIP3    H236847   0.638   3.285   4.258
12302TIP3   OH236848   0.345   3.000   4.838
12302TIP3    H136849   0.436   3.009   4.810
12302TIP3    H236850   0.343   3.038   4.925
12303TIP3   OH236851   6.129   2.604   2.367
12303TIP3    H136852   6.093   2.665   2.431
12303TIP3    H236853   6.182   2.543   2.420
12304TIP3   OH236854   2.914   0.804   0.677
12304TIP3    H136855   2.887   0.787   0.587
12304TIP3    H236856   2.910   0.719   0.721
12305TIP3   OH236857   7.859   0.961   4.124
12305TIP3    H136858   7.794   0.922   4.066
12305TIP3    H236859   7.886   1.042   4.081
12306TIP3   OH236860   2.421   1.052   0.904
12306TIP3    H136861   2.354   0.985   0.890
12306TIP3    H236862   2.389   1.103   0.978
12307TIP3   OH236863   7.852   7.420   5.141
12307TIP3    H136864   7.777   7.449   5.193
12307TIP3    H236865   7.906   7.499   5.130
12308TIP3   OH236866   1.531   2.620   4.779
12308TIP3    H136867   1.566   2.684   4.841
12308TIP3    H236868   1.441   2.649   4.763
12309TIP3   OH236869   6.497   7.640   1.407
12309TIP3    H136870   6.502   7.555   1.363
12309TIP3    H236871   6.553   7.698   1.356
12310TIP3   OH236872   6.289   3.588   2.309
12310TIP3    H136873   6.277   3.631   2.394
12310TIP3    H236874   6.208   3.540   2.295
12311TIP3   OH236875   4.036   3.190   5.682
12311TIP3    H136876   4.080   3.126   5.627
12311TIP3    H236877   4.091   3.268   5.677
12312TIP3   OH236878   8.150   7.439   1.742
12312TIP3    H136879   8.230   7.490   1.729
12312TIP3    H236880   8.145   7.382   1.666
12313TIP3   OH236881   3.960   4.400   3.633
12313TIP3    H136882   3.996   4.397   3.544
12313TIP3    H236883   3.944   4.493   3.650
12314TIP3   OH236884   1.767   2.242   5.161
12314TIP3    H136885   1.747   2.336   5.162
12314TIP3    H236886   1.862   2.238   5.154
12315TIP3   OH236887   3.348   7.105   0.239
12315TIP3    H136888   3.442   7.087   0.247
12315TIP3    H236889   3.322   7.136   0.325
12316TIP3   OH236890   1.036   0.904   4.024
12316TIP3    H136891   1.104   0.927   3.960
12316TIP3    H236892   0.954   0.920   3.978
12317TIP3   OH236893   4.494   5.260   3.370
12317TIP3    H136894   4.429   5.325   3.344
12317TIP3    H236895   4.531   5.294   3.451
12318TIP3   OH236896   6.224   1.293   6.108
12318TIP3    H136897   6.165   1.259   6.175
12318TIP3    H236898   6.207   1.238   6.032
12319TIP3   OH236899   7.936   4.384   3.491
12319TIP3    H136900   7.877   4.443   3.539
12319TIP3    H236901   8.023   4.404   3.526
12320TIP3   OH236902   2.550   1.177   5.338
12320TIP3    H136903   2.493   1.253   5.350
12320TIP3    H236904   2.562   1.171   5.244
12321TIP3   OH236905   7.846   7.395   2.868
12321TIP3    H136906   7.810   7.371   2.953
12321TIP3    H236907   7.814   7.484   2.853
12322TIP3   OH236908   4.278   5.006   6.288
12322TIP3    H136909   4.232   4.975   6.365
12322TIP3    H236910   4.368   5.022   6.318
12323TIP3   OH236911   1.872   1.637   1.036
12323TIP3    H136912   1.860   1.715   1.090
12323TIP3    H236913   1.956   1.650   0.992
12324TIP3   OH236914   2.729   1.038   0.905
12324TIP3    H136915   2.684   1.010   0.825
12324TIP3    H236916   2.722   0.963   0.964
12325TIP3   OH236917   2.918   2.883   6.640
12325TIP3    H136918   2.830   2.909   6.612
12325TIP3    H236919   2.909   2.862   6.733
12326TIP3   OH236920   5.641   6.583   5.107
12326TIP3    H136921   5.553   6.618   5.115
12326TIP3    H236922   5.693   6.657   5.074
12327TIP3   OH236923   5.556   7.571   6.450
12327TIP3    H136924   5.555   7.663   6.424
12327TIP3    H236925   5.598   7.526   6.378
12328TIP3   OH236926   5.486   5.527   0.561
12328TIP3    H136927   5.433   5.482   0.626
12328TIP3    H236928   5.549   5.578   0.612
12329TIP3   OH236929   7.509   1.856   0.765
12329TIP3    H136930   7.535   1.947   0.782
12329TIP3    H236931   7.444   1.863   0.694
12330TIP3   OH236932   3.651   6.733   4.540
12330TIP3    H136933   3.613   6.697   4.620
12330TIP3    H236934   3.655   6.828   4.555
12331TIP3   OH236935   6.731   0.720   1.023
12331TIP3    H136936   6.816   0.713   0.979
12331TIP3    H236937   6.702   0.809   1.006
12332TIP3   OH236938   5.418   1.235   5.000
12332TIP3    H136939   5.373   1.316   4.977
12332TIP3    H236940   5.455   1.251   5.087
12333TIP3   OH236941   7.628   6.781   0.914
12333TIP3    H136942   7.719   6.775   0.885
12333TIP3    H236943   7.632   6.830   0.996
12334TIP3   OH236944   0.425   1.689   2.349
12334TIP3    H136945   0.382   1.622   2.297
12334TIP3    H236946   0.377   1.770   2.329
12335TIP3   OH236947   2.797   7.063   1.967
12335TIP3    H136948   2.890   7.075   1.950
12335TIP3    H236949   2.757   7.146   1.940
12336TIP3   OH236950   3.177   7.656   1.584
12336TIP3    H136951   3.223   7.739   1.595
12336TIP3    H236952   3.087   7.682   1.563
12337TIP3   OH236953   7.812   6.184   1.249
12337TIP3    H136954   7.737   6.240   1.233
12337TIP3    H236955   7.884   6.244   1.266
12338TIP3   OH236956   2.505   3.146   4.883
12338TIP3    H136957   2.551   3.155   4.966
12338TIP3    H236958   2.519   3.055   4.857
12339TIP3   OH236959   1.830   2.592   3.180
12339TIP3    H136960   1.752   2.601   3.126
12339TIP3    H236961   1.890   2.659   3.148
12340TIP3   OH236962   2.186   4.645   0.377
12340TIP3    H136963   2.249   4.674   0.311
12340TIP3    H236964   2.240   4.609   0.447
12341TIP3   OH236965   4.862   0.807   4.988
12341TIP3    H136966   4.774   0.817   4.953
12341TIP3    H236967   4.902   0.740   4.933
12342TIP3   OH236968   7.181   6.805   0.627
12342TIP3    H136969   7.245   6.875   0.612
12342TIP3    H236970   7.211   6.761   0.706
12343TIP3   OH236971   1.128   3.027   0.604
12343TIP3    H136972   1.156   3.019   0.695
12343TIP3    H236973   1.063   2.958   0.592
12344TIP3   OH236974   4.137   5.610   0.541
12344TIP3    H136975   4.155   5.567   0.625
12344TIP3    H236976   4.198   5.684   0.539
12345TIP3   OH236977   1.686   3.934   1.341
12345TIP3    H136978   1.684   3.958   1.434
12345TIP3    H236979   1.611   3.980   1.303
12346TIP3   OH236980   6.360   2.130   2.821
12346TIP3    H136981   6.387   2.039   2.808
12346TIP3    H236982   6.306   2.129   2.900
12347TIP3   OH236983   7.728   7.534   4.743
12347TIP3    H136984   7.740   7.512   4.651
12347TIP3    H236985   7.637   7.565   4.749
12348TIP3   OH236986   6.934   3.621   0.259
12348TIP3    H136987   6.945   3.628   0.354
12348TIP3    H236988   6.978   3.699   0.224
12349TIP3   OH236989   5.399   2.019   3.394
12349TIP3    H136990   5.445   2.075   3.456
12349TIP3    H236991   5.307   2.044   3.403
12350TIP3   OH236992   1.439   6.594   2.764
12350TIP3    H136993   1.480   6.527   2.709
12350TIP3    H236994   1.475   6.677   2.732
12351TIP3   OH236995   2.582   1.674   4.058
12351TIP3    H136996   2.628   1.611   4.002
12351TIP3    H236997   2.528   1.621   4.116
12352TIP3   OH236998   5.765   2.927   1.649
12352TIP3    H136999   5.773   2.936   1.744
12352TIP3    H237000   5.811   2.846   1.629
12353TIP3   OH237001   5.649   5.411   0.913
12353TIP3    H137002   5.593   5.339   0.885
12353TIP3    H237003   5.702   5.374   0.985
12354TIP3   OH237004   7.584   1.340   4.789
12354TIP3    H137005   7.666   1.291   4.800
12354TIP3    H237006   7.517   1.273   4.776
12355TIP3   OH237007   3.583   7.271   4.316
12355TIP3    H137008   3.610   7.360   4.341
12355TIP3    H237009   3.574   7.274   4.221
12356TIP3   OH237010   2.209   5.596   3.059
12356TIP3    H137011   2.161   5.551   3.129
12356TIP3    H237012   2.253   5.526   3.011
12357TIP3   OH237013   2.050   5.101   0.187
12357TIP3    H137014   2.119   5.118   0.123
12357TIP3    H237015   1.971   5.089   0.135
12358TIP3   OH237016   3.298   4.421   5.006
12358TIP3    H137017   3.355   4.453   5.075
12358TIP3    H237018   3.276   4.332   5.033
12359TIP3   OH237019   2.903   0.035   3.494
12359TIP3    H137020   2.911  -0.045   3.545
12359TIP3    H237021   2.968   0.095   3.532
12360TIP3   OH237022   5.250   7.500   6.442
12360TIP3    H137023   5.271   7.423   6.496
12360TIP3    H237024   5.245   7.572   6.504
12361TIP3   OH237025   1.124   1.403   1.425
12361TIP3    H137026   1.117   1.454   1.506
12361TIP3    H237027   1.065   1.448   1.364
12362TIP3   OH237028   6.722   3.549   2.479
12362TIP3    H137029   6.666   3.500   2.419
12362TIP3    H237030   6.682   3.636   2.484
12363TIP3   OH237031   4.371   6.915   3.690
12363TIP3    H137032   4.328   6.972   3.626
12363TIP3    H237033   4.390   6.973   3.764
12364TIP3   OH237034   2.140   4.293   0.269
12364TIP3    H137035   2.233   4.290   0.291
12364TIP3    H237036   2.097   4.320   0.350
12365TIP3   OH237037   3.921   3.563   6.501
12365TIP3    H137038   3.907   3.535   6.410
12365TIP3    H237039   3.836   3.556   6.542
12366TIP3   OH237040   3.774   7.164   1.388
12366TIP3    H137041   3.680   7.175   1.401
12366TIP3    H237042   3.801   7.241   1.338
12367TIP3   OH237043   6.798   5.019   3.523
12367TIP3    H137044   6.729   5.008   3.457
12367TIP3    H237045   6.791   5.111   3.549
12368TIP3   OH237046   3.937   3.893   2.885
12368TIP3    H137047   3.969   3.874   2.797
12368TIP3    H237048   3.850   3.930   2.872
12369TIP3   OH237049   7.770   4.749   5.548
12369TIP3    H137050   7.741   4.704   5.468
12369TIP3    H237051   7.855   4.710   5.567
12370TIP3   OH237052   6.185   6.903   6.200
12370TIP3    H137053   6.241   6.980   6.193
12370TIP3    H237054   6.151   6.890   6.112
12371TIP3   OH237055   0.854   2.577   2.701
12371TIP3    H137056   0.858   2.619   2.615
12371TIP3    H237057   0.821   2.645   2.760
12372TIP3   OH237058   5.928   1.208   4.415
12372TIP3    H137059   5.899   1.292   4.450
12372TIP3    H237060   5.851   1.172   4.371
12373TIP3   OH237061   4.157   1.622   2.185
12373TIP3    H137062   4.101   1.696   2.160
12373TIP3    H237063   4.128   1.598   2.273
12374TIP3   OH237064   6.702   5.663   2.735
12374TIP3    H137065   6.686   5.673   2.829
12374TIP3    H237066   6.772   5.598   2.730
12375TIP3   OH237067   5.727   2.907   3.541
12375TIP3    H137068   5.678   2.972   3.592
12375TIP3    H237069   5.663   2.873   3.478
12376TIP3   OH237070   1.104   1.095   0.693
12376TIP3    H137071   1.058   1.138   0.622
12376TIP3    H237072   1.054   1.117   0.772
12377TIP3   OH237073   4.602   3.731   1.425
12377TIP3    H137074   4.680   3.702   1.472
12377TIP3    H237075   4.576   3.812   1.470
12378TIP3   OH237076   1.996   6.468   6.663
12378TIP3    H137077   2.051   6.440   6.736
12378TIP3    H237078   2.012   6.562   6.657
12379TIP3   OH237079   2.115   1.239   3.061
12379TIP3    H137080   2.086   1.163   3.111
12379TIP3    H237081   2.211   1.235   3.065
12380TIP3   OH237082   1.363   2.266   2.498
12380TIP3    H137083   1.399   2.322   2.566
12380TIP3    H237084   1.362   2.178   2.537
12381TIP3   OH237085   8.063   6.211   3.531
12381TIP3    H137086   8.130   6.144   3.518
12381TIP3    H237087   7.990   6.165   3.570
12382TIP3   OH237088   4.894   4.027   5.244
12382TIP3    H137089   4.826   3.989   5.188
12382TIP3    H237090   4.939   3.952   5.282
12383TIP3   OH237091   7.475   0.516   3.236
12383TIP3    H137092   7.488   0.608   3.260
12383TIP3    H237093   7.543   0.499   3.171
12384TIP3   OH237094   2.193   3.470   6.221
12384TIP3    H137095   2.150   3.447   6.303
12384TIP3    H237096   2.133   3.439   6.153
12385TIP3   OH237097   2.160   5.269   5.971
12385TIP3    H137098   2.241   5.232   5.936
12385TIP3    H237099   2.184   5.359   5.996
12386TIP3   OH237100   3.730   1.616   3.779
12386TIP3    H137101   3.749   1.567   3.859
12386TIP3    H237102   3.716   1.706   3.809
12387TIP3   OH237103   6.916   0.323   5.333
12387TIP3    H137104   6.948   0.235   5.353
12387TIP3    H237105   6.948   0.341   5.244
12388TIP3   OH237106   7.115   5.778   2.134
12388TIP3    H137107   7.052   5.849   2.135
12388TIP3    H237108   7.101   5.734   2.050
12389TIP3   OH237109   1.124   5.563   6.275
12389TIP3    H137110   1.029   5.575   6.272
12389TIP3    H237111   1.156   5.603   6.194
12390TIP3   OH237112   0.029   4.030   3.513
12390TIP3    H137113  -0.017   4.007   3.593
12390TIP3    H237114   0.116   3.991   3.523
12391TIP3   OH237115   3.401   5.647   4.389
12391TIP3    H137116   3.446   5.562   4.392
12391TIP3    H237117   3.327   5.638   4.449
12392TIP3   OH237118   5.466   1.560   5.165
12392TIP3    H137119   5.515   1.616   5.225
12392TIP3    H237120   5.497   1.585   5.078
12393TIP3   OH237121   2.038   7.001   1.538
12393TIP3    H137122   2.062   7.094   1.533
12393TIP3    H237123   2.083   6.961   1.464
12394TIP3   OH237124   1.517   4.497   3.643
12394TIP3    H137125   1.545   4.406   3.633
12394TIP3    H237126   1.585   4.538   3.696
12395TIP3   OH237127   3.817   7.449   3.604
12395TIP3    H137128   3.728   7.484   3.608
12395TIP3    H237129   3.873   7.525   3.618
12396TIP3   OH237130  -0.035   1.759   5.416
12396TIP3    H137131   0.015   1.703   5.476
12396TIP3    H237132   0.032   1.809   5.369
12397TIP3   OH237133   0.817   0.877   4.214
12397TIP3    H137134   0.894   0.844   4.168
12397TIP3    H237135   0.789   0.953   4.163
12398TIP3   OH237136   4.755   4.981   0.229
12398TIP3    H137137   4.700   5.052   0.263
12398TIP3    H237138   4.841   5.021   0.216
12399TIP3   OH237139   0.242   3.784   2.754
12399TIP3    H137140   0.212   3.719   2.818
12399TIP3    H237141   0.192   3.863   2.775
12400TIP3   OH237142   3.722   2.025   5.453
12400TIP3    H137143   3.664   2.055   5.523
12400TIP3    H237144   3.673   2.039   5.372
12401TIP3   OH237145   4.978   0.203   0.514
12401TIP3    H137146   5.044   0.249   0.566
12401TIP3    H237147   5.025   0.129   0.475
12402TIP3   OH237148   6.865   2.700   0.903
12402TIP3    H137149   6.910   2.720   0.821
12402TIP3    H237150   6.774   2.726   0.887
12403TIP3   OH237151   2.493   5.830   4.636
12403TIP3    H137152   2.500   5.737   4.658
12403TIP3    H237153   2.584   5.858   4.623
12404TIP3   OH237154   2.741   4.658   3.689
12404TIP3    H137155   2.692   4.579   3.714
12404TIP3    H237156   2.788   4.683   3.769
12405TIP3   OH237157   2.250   5.271   2.144
12405TIP3    H137158   2.304   5.350   2.134
12405TIP3    H237159   2.291   5.222   2.215
12406TIP3   OH237160   1.937   2.671   6.607
12406TIP3    H137161   1.955   2.693   6.698
12406TIP3    H237162   1.873   2.736   6.579
12407TIP3   OH237163   3.279   0.986   5.716
12407TIP3    H137164   3.373   0.970   5.704
12407TIP3    H237165   3.259   0.949   5.802
12408TIP3   OH237166   0.198   7.444   0.479
12408TIP3    H137167   0.223   7.375   0.417
12408TIP3    H237168   0.278   7.496   0.490
12409TIP3   OH237169   7.643   4.119   1.315
12409TIP3    H137170   7.705   4.149   1.381
12409TIP3    H237171   7.586   4.194   1.299
12410TIP3   OH237172   1.622   0.600   2.356
12410TIP3    H137173   1.712   0.579   2.382
12410TIP3    H237174   1.620   0.583   2.262
12411TIP3   OH237175   4.704   2.325   0.777
12411TIP3    H137176   4.653   2.381   0.719
12411TIP3    H237177   4.740   2.258   0.719
12412TIP3   OH237178   7.915   7.079   2.309
12412TIP3    H137179   7.840   7.078   2.369
12412TIP3    H237180   7.976   7.141   2.348
12413TIP3   OH237181   0.394   1.032   3.564
12413TIP3    H137182   0.452   1.038   3.639
12413TIP3    H237183   0.452   1.037   3.488
12414TIP3   OH237184   0.908   6.697   1.757
12414TIP3    H137185   0.983   6.638   1.763
12414TIP3    H237186   0.852   6.672   1.831
12415TIP3   OH237187   8.250   3.493   2.540
12415TIP3    H137188   8.175   3.485   2.480
12415TIP3    H237189   8.309   3.554   2.496
12416TIP3   OH237190   8.217   5.071   2.593
12416TIP3    H137191   8.207   5.161   2.623
12416TIP3    H237192   8.168   5.019   2.657
12417TIP3   OH237193   4.544   2.495   0.635
12417TIP3    H137194   4.479   2.563   0.650
12417TIP3    H237195   4.504   2.436   0.572
12418TIP3   OH237196   8.071   6.305   3.263
12418TIP3    H137197   8.042   6.296   3.354
12418TIP3    H237198   8.154   6.258   3.260
12419TIP3   OH237199   3.709   4.662   6.717
12419TIP3    H137200   3.724   4.569   6.701
12419TIP3    H237201   3.752   4.679   6.801
12420TIP3   OH237202   0.313   3.545   3.846
12420TIP3    H137203   0.311   3.616   3.782
12420TIP3    H237204   0.353   3.472   3.799
12421TIP3   OH237205   5.122   5.816   4.703
12421TIP3    H137206   5.081   5.843   4.784
12421TIP3    H237207   5.184   5.748   4.729
12422TIP3   OH237208   4.949   6.659   4.577
12422TIP3    H137209   4.932   6.635   4.486
12422TIP3    H237210   4.863   6.650   4.620
12423TIP3   OH237211   0.303   1.065   6.701
12423TIP3    H137212   0.373   1.030   6.757
12423TIP3    H237213   0.267   0.988   6.657
12424TIP3   OH237214   2.383   6.542   3.995
12424TIP3    H137215   2.387   6.566   3.903
12424TIP3    H237216   2.467   6.498   4.012
12425TIP3   OH237217   4.983   7.223   6.620
12425TIP3    H137218   5.024   7.246   6.704
12425TIP3    H237219   5.049   7.248   6.555
12426TIP3   OH237220   4.165   3.645   2.004
12426TIP3    H137221   4.237   3.612   1.951
12426TIP3    H237222   4.152   3.735   1.974
12427TIP3   OH237223   2.829   2.973   1.544
12427TIP3    H137224   2.912   3.019   1.556
12427TIP3    H237225   2.845   2.913   1.471
12428TIP3   OH237226   7.388   5.809   0.296
12428TIP3    H137227   7.453   5.739   0.307
12428TIP3    H237228   7.440   5.887   0.278
12429TIP3   OH237229   0.425   0.393   6.325
12429TIP3    H137230   0.466   0.405   6.239
12429TIP3    H237231   0.342   0.440   6.319
12430TIP3   OH237232   0.990   3.147   3.870
12430TIP3    H137233   1.001   3.133   3.964
12430TIP3    H237234   1.066   3.198   3.844
12431TIP3   OH237235   6.842   0.625   4.001
12431TIP3    H137236   6.824   0.698   3.941
12431TIP3    H237237   6.777   0.559   3.978
12432TIP3   OH237238   5.674   6.682   1.907
12432TIP3    H137239   5.750   6.693   1.964
12432TIP3    H237240   5.599   6.689   1.966
12433TIP3   OH237241   7.497   1.505   5.042
12433TIP3    H137242   7.546   1.495   4.961
12433TIP3    H237243   7.410   1.535   5.015
12434TIP3   OH237244   6.365   6.033   5.794
12434TIP3    H137245   6.294   6.013   5.855
12434TIP3    H237246   6.429   5.962   5.808
12435TIP3   OH237247   6.214   5.848   5.590
12435TIP3    H137248   6.255   5.882   5.510
12435TIP3    H237249   6.265   5.889   5.660
12436TIP3   OH237250   7.557   2.546   5.982
12436TIP3    H137251   7.478   2.594   5.959
12436TIP3    H237252   7.616   2.614   6.016
12437TIP3   OH237253   6.421   3.968   1.423
12437TIP3    H137254   6.506   3.961   1.467
12437TIP3    H237255   6.357   3.971   1.495
12438TIP3   OH237256   4.688   2.484   5.976
12438TIP3    H137257   4.745   2.486   5.899
12438TIP3    H237258   4.633   2.407   5.963
12439TIP3   OH237259   6.899   5.407   3.968
12439TIP3    H137260   6.895   5.456   3.886
12439TIP3    H237261   6.811   5.372   3.980
12440TIP3   OH237262   4.345   0.177   5.917
12440TIP3    H137263   4.283   0.250   5.911
12440TIP3    H237264   4.401   0.200   5.991
12441TIP3   OH237265   0.450   0.154   4.830
12441TIP3    H137266   0.471   0.063   4.811
12441TIP3    H237267   0.534   0.194   4.852
12442TIP3   OH237268   7.271   2.118   2.580
12442TIP3    H137269   7.357   2.160   2.583
12442TIP3    H237270   7.270   2.060   2.656
12443TIP3   OH237271   4.087   2.202   0.233
12443TIP3    H137272   4.100   2.190   0.328
12443TIP3    H237273   4.168   2.242   0.203
12444TIP3   OH237274   2.217   5.652   1.770
12444TIP3    H137275   2.265   5.672   1.850
12444TIP3    H237276   2.284   5.633   1.705
12445TIP3   OH237277   1.968   2.511   0.160
12445TIP3    H137278   2.025   2.532   0.086
12445TIP3    H237279   1.963   2.593   0.210
12446TIP3   OH237280   3.006   2.644   3.465
12446TIP3    H137281   2.936   2.674   3.524
12446TIP3    H237282   2.959   2.603   3.392
12447TIP3   OH237283   0.555   2.068   1.346
12447TIP3    H137284   0.511   2.150   1.367
12447TIP3    H237285   0.539   2.012   1.422
12448TIP3   OH237286   7.698   7.185   1.374
12448TIP3    H137287   7.790   7.210   1.362
12448TIP3    H237288   7.663   7.177   1.285
12449TIP3   OH237289   2.326   7.782   0.451
12449TIP3    H137290   2.358   7.695   0.474
12449TIP3    H237291   2.312   7.778   0.356
12450TIP3   OH237292   6.011   5.345   6.224
12450TIP3    H137293   5.932   5.317   6.270
12450TIP3    H237294   5.989   5.433   6.191
12451TIP3   OH237295   2.741   2.746   0.413
12451TIP3    H137296   2.762   2.697   0.492
12451TIP3    H237297   2.826   2.780   0.383
12452TIP3   OH237298   2.930   1.403   3.018
12452TIP3    H137299   2.863   1.399   3.086
12452TIP3    H237300   3.006   1.360   3.056
12453TIP3   OH237301   2.952   7.853   5.453
12453TIP3    H137302   2.999   7.822   5.376
12453TIP3    H237303   2.860   7.837   5.434
12454TIP3   OH237304   0.005   7.763   2.488
12454TIP3    H137305   0.082   7.728   2.444
12454TIP3    H237306  -0.044   7.686   2.517
12455TIP3   OH237307   2.914   2.197   5.508
12455TIP3    H137308   2.991   2.217   5.454
12455TIP3    H237309   2.881   2.283   5.534
12456TIP3   OH237310   3.848   0.974   6.715
12456TIP3    H137311   3.890   1.040   6.770
12456TIP3    H237312   3.902   0.970   6.636
12457TIP3   OH237313  -0.019   7.263   0.326
12457TIP3    H137314  -0.065   7.221   0.253
12457TIP3    H237315   0.073   7.241   0.313
12458TIP3   OH237316   8.018   0.080   6.189
12458TIP3    H137317   8.088   0.127   6.144
12458TIP3    H237318   7.950   0.146   6.203
12459TIP3   OH237319   2.872   0.699   3.374
12459TIP3    H137320   2.934   0.771   3.367
12459TIP3    H237321   2.812   0.726   3.444
12460TIP3   OH237322   7.115   4.887   5.365
12460TIP3    H137323   7.049   4.956   5.367
12460TIP3    H237324   7.174   4.912   5.293
12461TIP3   OH237325   1.333   0.779   3.525
12461TIP3    H137326   1.339   0.755   3.433
12461TIP3    H237327   1.349   0.697   3.572
12462TIP3   OH237328   4.647   1.846   1.268
12462TIP3    H137329   4.666   1.836   1.361
12462TIP3    H237330   4.600   1.930   1.262
12463TIP3   OH237331   0.404   5.576   1.679
12463TIP3    H137332   0.448   5.661   1.678
12463TIP3    H237333   0.369   5.568   1.768
12464TIP3   OH237334   4.368   7.615   3.697
12464TIP3    H137335   4.375   7.574   3.611
12464TIP3    H237336   4.390   7.546   3.759
12465TIP3   OH237337   4.612   1.387   2.260
12465TIP3    H137338   4.564   1.332   2.198
12465TIP3    H237339   4.609   1.339   2.343
12466TIP3   OH237340   6.829   5.857   3.717
12466TIP3    H137341   6.812   5.944   3.680
12466TIP3    H237342   6.831   5.872   3.812
12467TIP3   OH237343   0.387   7.221   5.071
12467TIP3    H137344   0.478   7.197   5.091
12467TIP3    H237345   0.336   7.173   5.136
12468TIP3   OH237346   2.146   4.802   0.959
12468TIP3    H137347   2.139   4.898   0.961
12468TIP3    H237348   2.133   4.775   1.050
12469TIP3   OH237349   1.518   7.171   2.827
12469TIP3    H137350   1.522   7.177   2.922
12469TIP3    H237351   1.609   7.159   2.800
12470TIP3   OH237352   6.512   1.700   3.858
12470TIP3    H137353   6.572   1.638   3.899
12470TIP3    H237354   6.568   1.768   3.822
12471TIP3   OH237355   2.459   1.587   6.176
12471TIP3    H137356   2.492   1.663   6.224
12471TIP3    H237357   2.372   1.614   6.146
12472TIP3   OH237358   6.441   5.072   5.866
12472TIP3    H137359   6.379   5.138   5.836
12472TIP3    H237360   6.520   5.088   5.814
12473TIP3   OH237361   0.902   3.028   3.633
12473TIP3    H137362   0.936   3.114   3.657
12473TIP3    H237363   0.961   2.966   3.676
12474TIP3   OH237364   6.067   4.834   3.329
12474TIP3    H137365   6.011   4.758   3.346
12474TIP3    H237366   6.028   4.874   3.251
12475TIP3   OH237367   7.096   4.391   3.365
12475TIP3    H137368   7.027   4.356   3.422
12475TIP3    H237369   7.175   4.386   3.417
12476TIP3   OH237370   3.445   1.590   0.305
12476TIP3    H137371   3.352   1.608   0.297
12476TIP3    H237372   3.450   1.508   0.355
12477TIP3   OH237373   5.357   4.145   0.266
12477TIP3    H137374   5.300   4.160   0.190
12477TIP3    H237375   5.317   4.071   0.311
12478TIP3   OH237376   1.559   7.483   5.668
12478TIP3    H137377   1.632   7.544   5.657
12478TIP3    H237378   1.487   7.522   5.619
12479TIP3   OH237379   3.899   5.827   1.135
12479TIP3    H137380   3.974   5.878   1.165
12479TIP3    H237381   3.921   5.801   1.045
12480TIP3   OH237382   0.567   1.227   3.716
12480TIP3    H137383   0.661   1.235   3.695
12480TIP3    H237384   0.555   1.282   3.793
12481TIP3   OH237385   5.043   6.839   4.398
12481TIP3    H137386   4.990   6.803   4.468
12481TIP3    H237387   5.093   6.910   4.439
12482TIP3   OH237388   6.772   0.694   1.854
12482TIP3    H137389   6.854   0.648   1.838
12482TIP3    H237390   6.731   0.700   1.768
12483TIP3   OH237391   3.536   3.221   5.279
12483TIP3    H137392   3.486   3.139   5.276
12483TIP3    H237393   3.471   3.288   5.300
12484TIP3   OH237394   1.096   1.123   2.375
12484TIP3    H137395   1.050   1.158   2.298
12484TIP3    H237396   1.165   1.186   2.393
12485TIP3   OH237397   7.510   4.950   1.039
12485TIP3    H137398   7.469   5.032   1.065
12485TIP3    H237399   7.455   4.918   0.967
12486TIP3   OH237400   3.710   0.619   6.507
12486TIP3    H137401   3.790   0.670   6.518
12486TIP3    H237402   3.648   0.657   6.570
12487TIP3   OH237403   5.930   6.148   5.035
12487TIP3    H137404   5.946   6.055   5.024
12487TIP3    H237405   5.849   6.153   5.087
12488TIP3   OH237406   7.713   6.767   6.353
12488TIP3    H137407   7.799   6.727   6.341
12488TIP3    H237408   7.731   6.849   6.400
12489TIP3   OH237409   5.674   2.636   4.448
12489TIP3    H137410   5.642   2.682   4.526
12489TIP3    H237411   5.769   2.634   4.459
12490TIP3   OH237412   7.171   6.835   5.600
12490TIP3    H137413   7.139   6.913   5.646
12490TIP3    H237414   7.232   6.794   5.662
12491TIP3   OH237415   6.519   5.801   0.182
12491TIP3    H137416   6.546   5.721   0.227
12491TIP3    H237417   6.455   5.841   0.240
12492TIP3   OH237418   2.634   3.109   3.218
12492TIP3    H137419   2.551   3.074   3.250
12492TIP3    H237420   2.679   3.141   3.297
12493TIP3   OH237421   6.892   1.779   0.095
12493TIP3    H137422   6.870   1.853   0.039
12493TIP3    H237423   6.895   1.704   0.036
12494TIP3   OH237424   0.468   1.498   1.834
12494TIP3    H137425   0.417   1.432   1.787
12494TIP3    H237426   0.403   1.546   1.886
12495TIP3   OH237427   7.663   6.058   6.690
12495TIP3    H137428   7.752   6.026   6.673
12495TIP3    H237429   7.673   6.116   6.766
12496TIP3   OH237430   1.372   6.484   3.563
12496TIP3    H137431   1.440   6.474   3.630
12496TIP3    H237432   1.316   6.554   3.596
12497TIP3   OH237433   2.344   3.836   0.582
12497TIP3    H137434   2.365   3.894   0.655
12497TIP3    H237435   2.409   3.765   0.590
12498TIP3   OH237436   2.587   1.924   0.748
12498TIP3    H137437   2.631   2.005   0.723
12498TIP3    H237438   2.630   1.856   0.696
12499TIP3   OH237439   2.778   2.544   4.678
12499TIP3    H137440   2.816   2.479   4.619
12499TIP3    H237441   2.804   2.515   4.765
12500TIP3   OH237442   2.701   3.796   0.770
12500TIP3    H137443   2.766   3.814   0.837
12500TIP3    H237444   2.617   3.818   0.812
12501TIP3   OH237445   0.812   4.784   4.580
12501TIP3    H137446   0.765   4.780   4.497
12501TIP3    H237447   0.892   4.832   4.560
12502TIP3   OH237448   2.052   2.255   0.621
12502TIP3    H137449   2.084   2.294   0.540
12502TIP3    H237450   2.030   2.330   0.677
12503TIP3   OH237451   5.357   7.442   1.873
12503TIP3    H137452   5.348   7.457   1.779
12503TIP3    H237453   5.449   7.459   1.891
12504TIP3   OH237454   0.221   6.079   3.639
12504TIP3    H137455   0.179   6.098   3.722
12504TIP3    H237456   0.279   6.154   3.623
12505TIP3   OH237457   0.190   5.591   5.040
12505TIP3    H137458   0.115   5.651   5.041
12505TIP3    H237459   0.265   5.647   5.021
12506TIP3   OH237460   4.417   1.806   0.213
12506TIP3    H137461   4.349   1.742   0.198
12506TIP3    H237462   4.481   1.761   0.269
12507TIP3   OH237463   2.019   2.030   0.430
12507TIP3    H137464   1.992   2.107   0.480
12507TIP3    H237465   2.113   2.021   0.446
12508TIP3   OH237466   3.549   2.019   5.209
12508TIP3    H137467   3.480   2.082   5.185
12508TIP3    H237468   3.594   2.001   5.126
12509TIP3   OH237469   6.397   2.323   4.718
12509TIP3    H137470   6.453   2.400   4.711
12509TIP3    H237471   6.434   2.273   4.791
12510TIP3   OH237472   1.888   0.708   0.921
12510TIP3    H137473   1.830   0.680   0.850
12510TIP3    H237474   1.953   0.763   0.878
12511TIP3   OH237475   0.655   1.029   2.235
12511TIP3    H137476   0.728   1.029   2.297
12511TIP3    H237477   0.610   1.113   2.250
12512TIP3   OH237478   0.628   1.914   6.021
12512TIP3    H137479   0.678   1.842   6.061
12512TIP3    H237480   0.591   1.961   6.095
12513TIP3   OH237481   3.911   6.819   6.586
12513TIP3    H137482   3.923   6.734   6.628
12513TIP3    H237483   3.900   6.881   6.658
12514TIP3   OH237484   4.279   3.970   1.428
12514TIP3    H137485   4.216   3.942   1.494
12514TIP3    H237486   4.266   3.908   1.356
12515TIP3   OH237487   5.865   1.327   0.599
12515TIP3    H137488   5.833   1.250   0.646
12515TIP3    H237489   5.930   1.365   0.658
12516TIP3   OH237490   1.694   7.000   5.189
12516TIP3    H137491   1.771   7.040   5.149
12516TIP3    H237492   1.627   7.003   5.121
12517TIP3   OH237493   1.613   0.335   4.808
12517TIP3    H137494   1.643   0.410   4.859
12517TIP3    H237495   1.519   0.330   4.826
12518TIP3   OH237496   3.745   1.747   1.635
12518TIP3    H137497   3.725   1.711   1.722
12518TIP3    H237498   3.665   1.731   1.584
12519TIP3   OH237499   3.859   6.998   5.931
12519TIP3    H137500   3.945   7.009   5.891
12519TIP3    H237501   3.875   7.011   6.025
12520TIP3   OH237502   8.262   5.127   1.411
12520TIP3    H137503   8.172   5.152   1.390
12520TIP3    H237504   8.300   5.102   1.327
12521TIP3   OH237505   4.725   6.611   0.089
12521TIP3    H137506   4.726   6.529   0.139
12521TIP3    H237507   4.698   6.677   0.153
12522TIP3   OH237508   2.371   4.205   5.684
12522TIP3    H137509   2.445   4.170   5.635
12522TIP3    H237510   2.310   4.130   5.690
12523TIP3   OH237511   1.893   6.310   0.187
12523TIP3    H137512   1.830   6.262   0.133
12523TIP3    H237513   1.946   6.242   0.228
12524TIP3   OH237514   1.486   1.946   1.326
12524TIP3    H137515   1.480   2.041   1.327
12524TIP3    H237516   1.397   1.917   1.305
12525TIP3   OH237517   1.339   1.048   2.777
12525TIP3    H137518   1.342   1.006   2.863
12525TIP3    H237519   1.429   1.079   2.762
12526TIP3   OH237520   7.791   7.205   0.754
12526TIP3    H137521   7.699   7.199   0.728
12526TIP3    H237522   7.814   7.297   0.744
12527TIP3   OH237523   6.276   0.719   0.188
12527TIP3    H137524   6.283   0.672   0.271
12527TIP3    H237525   6.231   0.658   0.130
12528TIP3   OH237526   3.779   6.470   4.794
12528TIP3    H137527   3.792   6.450   4.701
12528TIP3    H237528   3.845   6.537   4.814
12529TIP3   OH237529   4.688   2.815   0.722
12529TIP3    H137530   4.595   2.793   0.732
12529TIP3    H237531   4.733   2.758   0.785
12530TIP3   OH237532   2.937   7.064   5.191
12530TIP3    H137533   2.894   7.149   5.198
12530TIP3    H237534   2.979   7.052   5.276
12531TIP3   OH237535   6.987   6.129   0.335
12531TIP3    H137536   6.924   6.058   0.331
12531TIP3    H237537   7.069   6.087   0.364
12532TIP3   OH237538   5.407   5.555   1.954
12532TIP3    H137539   5.388   5.626   1.893
12532TIP3    H237540   5.371   5.476   1.913
12533TIP3   OH237541   1.007   6.960   3.026
12533TIP3    H137542   0.938   7.010   2.983
12533TIP3    H237543   0.986   6.868   3.007
12534TIP3   OH237544   6.188   2.710   5.895
12534TIP3    H137545   6.189   2.623   5.856
12534TIP3    H237546   6.146   2.766   5.829
12535TIP3   OH237547   6.152   5.484   3.162
12535TIP3    H137548   6.192   5.513   3.244
12535TIP3    H237549   6.058   5.498   3.174
12536TIP3   OH237550   3.600   3.390   2.223
12536TIP3    H137551   3.692   3.379   2.198
12536TIP3    H237552   3.596   3.478   2.261
12537TIP3   OH237553   1.064   5.299   3.521
12537TIP3    H137554   0.995   5.253   3.569
12537TIP3    H237555   1.145   5.255   3.547
12538TIP3   OH237556   3.564   6.205   4.998
12538TIP3    H137557   3.481   6.172   5.031
12538TIP3    H237558   3.552   6.300   4.994
12539TIP3   OH237559   1.666   4.075   3.764
12539TIP3    H137560   1.679   4.063   3.858
12539TIP3    H237561   1.714   4.004   3.723
12540TIP3   OH237562   0.913   1.736   6.311
12540TIP3    H137563   0.881   1.825   6.321
12540TIP3    H237564   0.874   1.704   6.230
12541TIP3   OH237565   4.103   3.758   6.429
12541TIP3    H137566   4.049   3.689   6.468
12541TIP3    H237567   4.134   3.720   6.347
12542TIP3   OH237568   4.404   4.224   1.344
12542TIP3    H137569   4.394   4.129   1.331
12542TIP3    H237570   4.327   4.250   1.393
12543TIP3   OH237571   3.846   4.080   3.393
12543TIP3    H137572   3.791   4.003   3.377
12543TIP3    H237573   3.874   4.071   3.484
12544TIP3   OH237574   0.716   3.535   0.881
12544TIP3    H137575   0.747   3.480   0.810
12544TIP3    H237576   0.621   3.519   0.885
12545TIP3   OH237577   1.030   2.035   4.503
12545TIP3    H137578   0.993   2.061   4.418
12545TIP3    H237579   0.960   1.984   4.544
12546TIP3   OH237580   4.652   6.718   6.355
12546TIP3    H137581   4.566   6.754   6.335
12546TIP3    H237582   4.708   6.795   6.365
12547TIP3   OH237583   5.674   0.211   3.537
12547TIP3    H137584   5.621   0.266   3.479
12547TIP3    H237585   5.750   0.187   3.484
12548TIP3   OH237586   5.636   7.365   3.674
12548TIP3    H137587   5.627   7.395   3.583
12548TIP3    H237588   5.570   7.415   3.722
12549TIP3   OH237589   6.530   2.344   5.609
12549TIP3    H137590   6.563   2.263   5.649
12549TIP3    H237591   6.447   2.318   5.568
12550TIP3   OH237592   6.331   4.788   5.796
12550TIP3    H137593   6.359   4.877   5.777
12550TIP3    H237594   6.411   4.743   5.825
12551TIP3   OH237595   7.270   5.120   4.945
12551TIP3    H137596   7.364   5.127   4.931
12551TIP3    H237597   7.232   5.181   4.881
12552TIP3   OH237598   0.764   5.583   3.588
12552TIP3    H137599   0.816   5.513   3.628
12552TIP3    H237600   0.785   5.577   3.495
12553TIP3   OH237601   3.122   3.683   1.263
12553TIP3    H137602   3.187   3.687   1.193
12553TIP3    H237603   3.079   3.599   1.251
12554TIP3   OH237604   1.067   6.005   2.201
12554TIP3    H137605   1.089   5.918   2.234
12554TIP3    H237606   0.972   6.012   2.212
12555TIP3   OH237607   4.955   7.109   4.639
12555TIP3    H137608   5.007   7.036   4.671
12555TIP3    H237609   4.955   7.173   4.711
12556TIP3   OH237610   0.113   6.445   1.822
12556TIP3    H137611   0.096   6.491   1.904
12556TIP3    H237612   0.079   6.503   1.754
12557TIP3   OH237613   4.175   5.579   0.142
12557TIP3    H137614   4.139   5.657   0.100
12557TIP3    H237615   4.264   5.604   0.167
12558TIP3   OH237616   2.978   3.418   3.464
12558TIP3    H137617   3.067   3.397   3.435
12558TIP3    H237618   2.948   3.486   3.403
12559TIP3   OH237619   0.815   7.235   1.036
12559TIP3    H137620   0.760   7.163   1.005
12559TIP3    H237621   0.764   7.277   1.105
12560TIP3   OH237622   0.231   1.438   4.994
12560TIP3    H137623   0.215   1.361   4.940
12560TIP3    H237624   0.145   1.476   5.007
12561TIP3   OH237625   4.226   4.235   0.592
12561TIP3    H137626   4.273   4.185   0.525
12561TIP3    H237627   4.134   4.224   0.569
12562TIP3   OH237628   6.471   6.489   0.504
12562TIP3    H137629   6.540   6.532   0.555
12562TIP3    H237630   6.517   6.453   0.428
12563TIP3   OH237631   4.521   4.603   2.595
12563TIP3    H137632   4.556   4.549   2.665
12563TIP3    H237633   4.562   4.569   2.516
12564TIP3   OH237634   5.552   3.885   3.243
12564TIP3    H137635   5.612   3.958   3.223
12564TIP3    H237636   5.539   3.890   3.337
12565TIP3   OH237637   5.528   6.192   2.559
12565TIP3    H137638   5.587   6.172   2.487
12565TIP3    H237639   5.530   6.288   2.566
12566TIP3   OH237640   0.078   4.788   5.122
12566TIP3    H137641   0.104   4.698   5.099
12566TIP3    H237642  -0.017   4.786   5.125
12567TIP3   OH237643   5.112   4.863   6.509
12567TIP3    H137644   5.105   4.810   6.589
12567TIP3    H237645   5.204   4.890   6.506
12568TIP3   OH237646   1.431   5.584   0.761
12568TIP3    H137647   1.397   5.497   0.783
12568TIP3    H237648   1.522   5.582   0.790
12569TIP3   OH237649   5.312   1.030   5.384
12569TIP3    H137650   5.344   1.101   5.329
12569TIP3    H237651   5.341   0.950   5.341
12570TIP3   OH237652   7.949   2.778   3.361
12570TIP3    H137653   7.854   2.769   3.355
12570TIP3    H237654   7.964   2.822   3.445
12571TIP3   OH237655   6.783   7.372   1.833
12571TIP3    H137656   6.753   7.462   1.819
12571TIP3    H237657   6.817   7.345   1.748
12572TIP3   OH237658   5.514   6.836   6.142
12572TIP3    H137659   5.440   6.841   6.202
12572TIP3    H237660   5.552   6.749   6.157
12573TIP3   OH237661   3.997   7.380   6.193
12573TIP3    H137662   4.048   7.352   6.268
12573TIP3    H237663   4.061   7.419   6.133
12574TIP3   OH237664   8.189   1.945   3.142
12574TIP3    H137665   8.216   1.936   3.050
12574TIP3    H237666   8.138   2.026   3.144
12575TIP3   OH237667   3.337   5.278   1.055
12575TIP3    H137668   3.283   5.206   1.024
12575TIP3    H237669   3.297   5.357   1.017
12576TIP3   OH237670   0.424   5.243   5.244
12576TIP3    H137671   0.427   5.223   5.151
12576TIP3    H237672   0.367   5.320   5.251
12577TIP3   OH237673   5.430   3.871   0.746
12577TIP3    H137674   5.412   3.951   0.795
12577TIP3    H237675   5.499   3.895   0.684
12578TIP3   OH237676   4.812   0.424   1.511
12578TIP3    H137677   4.896   0.391   1.543
12578TIP3    H237678   4.772   0.349   1.468
12579TIP3   OH237679   4.665   7.209   1.894
12579TIP3    H137680   4.741   7.254   1.932
12579TIP3    H237681   4.629   7.272   1.832
12580TIP3   OH237682   8.164   3.636   5.810
12580TIP3    H137683   8.178   3.598   5.896
12580TIP3    H237684   8.233   3.599   5.755
12581TIP3   OH237685   1.141   2.212   2.018
12581TIP3    H137686   1.174   2.279   1.958
12581TIP3    H237687   1.175   2.238   2.104
12582TIP3   OH237688   4.358   2.670   5.976
12582TIP3    H137689   4.318   2.653   5.891
12582TIP3    H237690   4.317   2.751   6.006
12583TIP3   OH237691   5.673   6.206   3.436
12583TIP3    H137692   5.719   6.282   3.400
12583TIP3    H237693   5.603   6.190   3.372
12584TIP3   OH237694   2.059   0.759   6.357
12584TIP3    H137695   2.007   0.761   6.277
12584TIP3    H237696   2.003   0.800   6.423
12585TIP3   OH237697   3.321   6.687   3.985
12585TIP3    H137698   3.324   6.646   4.071
12585TIP3    H237699   3.327   6.615   3.923
12586TIP3   OH237700   3.362   3.010   1.612
12586TIP3    H137701   3.454   2.991   1.631
12586TIP3    H237702   3.314   2.962   1.679
12587TIP3   OH237703   3.440   6.830   2.506
12587TIP3    H137704   3.531   6.802   2.509
12587TIP3    H237705   3.400   6.777   2.437
12588TIP3   OH237706   5.411   6.709   2.536
12588TIP3    H137707   5.357   6.635   2.508
12588TIP3    H237708   5.473   6.722   2.464
12589TIP3   OH237709   7.072   4.490   3.751
12589TIP3    H137710   7.027   4.555   3.697
12589TIP3    H237711   7.101   4.539   3.828
12590TIP3   OH237712   6.446   5.221   0.253
12590TIP3    H137713   6.434   5.316   0.252
12590TIP3    H237714   6.361   5.186   0.279
12591TIP3   OH237715   7.362   5.816   1.872
12591TIP3    H137716   7.278   5.855   1.898
12591TIP3    H237717   7.428   5.873   1.911
12592TIP3   OH237718   3.598   4.788   1.676
12592TIP3    H137719   3.677   4.835   1.648
12592TIP3    H237720   3.626   4.737   1.752
12593TIP3   OH237721   6.581   5.170   0.539
12593TIP3    H137722   6.518   5.151   0.469
12593TIP3    H237723   6.653   5.108   0.525
12594TIP3   OH237724   6.989   4.908   3.343
12594TIP3    H137725   6.950   4.880   3.261
12594TIP3    H237726   6.915   4.932   3.399
12595TIP3   OH237727   0.654   6.509   6.382
12595TIP3    H137728   0.561   6.520   6.400
12595TIP3    H237729   0.659   6.436   6.321
12596TIP3   OH237730   4.854   1.889   3.942
12596TIP3    H137731   4.874   1.832   4.016
12596TIP3    H237732   4.770   1.857   3.909
12597TIP3   OH237733   7.470   2.092   4.997
12597TIP3    H137734   7.384   2.117   5.030
12597TIP3    H237735   7.523   2.172   5.006
12598TIP3   OH237736   2.742   7.223   4.775
12598TIP3    H137737   2.696   7.139   4.773
12598TIP3    H237738   2.706   7.273   4.702
12599TIP3   OH237739   5.342   3.729   5.145
12599TIP3    H137740   5.278   3.658   5.147
12599TIP3    H237741   5.368   3.741   5.236
12600TIP3   OH237742   3.056   7.351   0.936
12600TIP3    H137743   2.964   7.366   0.916
12600TIP3    H237744   3.056   7.277   0.998
12601TIP3   OH237745   4.484   1.701   6.755
12601TIP3    H137746   4.462   1.700   6.848
12601TIP3    H237747   4.544   1.775   6.746
12602TIP3   OH237748   4.216   5.691   1.490
12602TIP3    H137749   4.125   5.708   1.514
12602TIP3    H237750   4.234   5.603   1.523
12603TIP3   OH237751   0.636   2.877   6.654
12603TIP3    H137752   0.651   2.794   6.609
12603TIP3    H237753   0.547   2.902   6.630
12604TIP3   OH237754   5.110   1.648   6.658
12604TIP3    H137755   5.046   1.717   6.641
12604TIP3    H237756   5.059   1.577   6.696
12605TIP3   OH237757   0.426   3.597   4.869
12605TIP3    H137758   0.452   3.611   4.960
12605TIP3    H237759   0.418   3.502   4.861
12606TIP3   OH237760   4.241   7.825   5.293
12606TIP3    H137761   4.153   7.837   5.328
12606TIP3    H237762   4.230   7.768   5.218
12607TIP3   OH237763   3.359   6.634   6.307
12607TIP3    H137764   3.384   6.725   6.321
12607TIP3    H237765   3.434   6.583   6.337
12608TIP3   OH237766   0.999   0.952   1.293
12608TIP3    H137767   1.025   0.882   1.233
12608TIP3    H237768   0.911   0.976   1.265
12609TIP3   OH237769   3.064   5.302   5.882
12609TIP3    H137770   3.116   5.340   5.811
12609TIP3    H237771   3.104   5.337   5.962
12610TIP3   OH237772   0.922   2.310   2.754
12610TIP3    H137773   0.881   2.397   2.754
12610TIP3    H237774   1.005   2.323   2.708
12611TIP3   OH237775   0.332   0.947   3.229
12611TIP3    H137776   0.378   1.027   3.254
12611TIP3    H237777   0.240   0.969   3.234
12612TIP3   OH237778   1.759   2.950   0.393
12612TIP3    H137779   1.739   3.021   0.332
12612TIP3    H237780   1.798   2.993   0.468
12613TIP3   OH237781   7.252   7.060   3.808
12613TIP3    H137782   7.266   7.024   3.720
12613TIP3    H237783   7.240   7.154   3.795
12614TIP3   OH237784   1.967   5.683   5.778
12614TIP3    H137785   1.877   5.658   5.757
12614TIP3    H237786   1.983   5.644   5.864
12615TIP3   OH237787   7.881   3.326   2.470
12615TIP3    H137788   7.794   3.365   2.473
12615TIP3    H237789   7.941   3.400   2.460
12616TIP3   OH237790   6.498   1.048   1.681
12616TIP3    H137791   6.561   1.053   1.752
12616TIP3    H237792   6.463   0.959   1.685
12617TIP3   OH237793   6.969   7.268   1.632
12617TIP3    H137794   7.032   7.338   1.647
12617TIP3    H237795   6.986   7.205   1.702
12618TIP3   OH237796   5.714   4.949   5.572
12618TIP3    H137797   5.758   4.901   5.502
12618TIP3    H237798   5.661   5.014   5.527
12619TIP3   OH237799   1.555   1.488   2.734
12619TIP3    H137800   1.522   1.504   2.645
12619TIP3    H237801   1.543   1.571   2.779
12620TIP3   OH237802   5.626   2.762   2.894
12620TIP3    H137803   5.721   2.754   2.901
12620TIP3    H237804   5.603   2.837   2.949
12621TIP3   OH237805   4.330   5.056   3.708
12621TIP3    H137806   4.398   4.988   3.710
12621TIP3    H237807   4.276   5.034   3.633
12622TIP3   OH237808   0.948   4.183   2.134
12622TIP3    H137809   0.958   4.278   2.134
12622TIP3    H237810   0.877   4.166   2.071
12623TIP3   OH237811   2.265   3.880   4.076
12623TIP3    H137812   2.360   3.880   4.081
12623TIP3    H237813   2.245   3.928   3.995
12624TIP3   OH237814   7.973   1.278   5.159
12624TIP3    H137815   7.925   1.277   5.242
12624TIP3    H237816   7.922   1.338   5.104
12625TIP3   OH237817   2.946   7.134   6.378
12625TIP3    H137818   2.870   7.162   6.431
12625TIP3    H237819   3.019   7.135   6.440
12626TIP3   OH237820   4.485   6.120   0.979
12626TIP3    H137821   4.536   6.183   1.031
12626TIP3    H237822   4.463   6.168   0.899
12627TIP3   OH237823   5.829   2.055   1.259
12627TIP3    H137824   5.796   2.139   1.227
12627TIP3    H237825   5.853   2.007   1.180
12628TIP3   OH237826   8.038   6.230   4.919
12628TIP3    H137827   8.044   6.312   4.967
12628TIP3    H237828   8.119   6.225   4.869
12629TIP3   OH237829   8.206   4.364   2.618
12629TIP3    H137830   8.238   4.441   2.665
12629TIP3    H237831   8.197   4.393   2.527
12630TIP3   OH237832   2.124   0.173   0.175
12630TIP3    H137833   2.114   0.257   0.219
12630TIP3    H237834   2.056   0.118   0.215
12631TIP3   OH237835   4.547   3.088   6.452
12631TIP3    H137836   4.582   3.176   6.462
12631TIP3    H237837   4.490   3.075   6.528
12632TIP3   OH237838   4.015   2.139   0.873
12632TIP3    H137839   4.062   2.109   0.951
12632TIP3    H237840   4.083   2.158   0.809
12633TIP3   OH237841   4.159   7.143   6.224
12633TIP3    H137842   4.120   7.062   6.258
12633TIP3    H237843   4.159   7.132   6.129
12634TIP3   OH237844   1.461   6.966   1.176
12634TIP3    H137845   1.391   7.030   1.160
12634TIP3    H237846   1.503   6.954   1.091
12635TIP3   OH237847   6.317   0.363   4.940
12635TIP3    H137848   6.334   0.445   4.986
12635TIP3    H237849   6.235   0.331   4.976
12636TIP3   OH237850   4.794   1.239   3.497
12636TIP3    H137851   4.725   1.298   3.466
12636TIP3    H237852   4.792   1.248   3.592
12637TIP3   OH237853   6.792   0.100   1.358
12637TIP3    H137854   6.877   0.105   1.314
12637TIP3    H237855   6.800   0.026   1.417
12638TIP3   OH237856   1.768   3.396   3.469
12638TIP3    H137857   1.767   3.470   3.409
12638TIP3    H237858   1.682   3.399   3.512
12639TIP3   OH237859   7.382   2.812   0.301
12639TIP3    H137860   7.440   2.809   0.378
12639TIP3    H237861   7.311   2.871   0.328
12640TIP3   OH237862   3.321   2.946   1.352
12640TIP3    H137863   3.333   2.986   1.438
12640TIP3    H237864   3.236   2.979   1.322
12641TIP3   OH237865   4.355   2.039   0.397
12641TIP3    H137866   4.267   2.007   0.413
12641TIP3    H237867   4.385   1.991   0.320
12642TIP3   OH237868   3.580   6.260   2.558
12642TIP3    H137869   3.541   6.240   2.474
12642TIP3    H237870   3.583   6.175   2.604
12643TIP3   OH237871   0.565   2.942   5.021
12643TIP3    H137872   0.514   2.862   5.007
12643TIP3    H237873   0.585   2.942   5.115
12644TIP3   OH237874   4.385   4.239   5.710
12644TIP3    H137875   4.345   4.324   5.731
12644TIP3    H237876   4.476   4.261   5.688
12645TIP3   OH237877   1.256   0.598   6.411
12645TIP3    H137878   1.340   0.631   6.440
12645TIP3    H237879   1.192   0.661   6.444
12646TIP3   OH237880   7.090   6.396   1.651
12646TIP3    H137881   7.163   6.394   1.713
12646TIP3    H237882   7.132   6.407   1.565
12647TIP3   OH237883   6.569   6.007   2.970
12647TIP3    H137884   6.494   6.045   3.016
12647TIP3    H237885   6.621   6.083   2.942
12648TIP3   OH237886   5.332   1.875   5.567
12648TIP3    H137887   5.378   1.957   5.585
12648TIP3    H237888   5.239   1.897   5.577
12649TIP3   OH237889   4.891   0.292   4.344
12649TIP3    H137890   4.966   0.247   4.382
12649TIP3    H237891   4.926   0.337   4.268
12650TIP3   OH237892   4.412   5.488   2.845
12650TIP3    H137893   4.447   5.425   2.908
12650TIP3    H237894   4.343   5.440   2.799
12651TIP3   OH237895   0.533   6.641   2.555
12651TIP3    H137896   0.540   6.588   2.634
12651TIP3    H237897   0.443   6.627   2.524
12652TIP3   OH237898   7.637   7.125   1.107
12652TIP3    H137899   7.547   7.125   1.073
12652TIP3    H237900   7.684   7.186   1.051
12653TIP3   OH237901   3.691   3.785   6.669
12653TIP3    H137902   3.755   3.828   6.613
12653TIP3    H237903   3.716   3.692   6.666
12654TIP3   OH237904   4.450   1.962   5.510
12654TIP3    H137905   4.382   1.920   5.564
12654TIP3    H237906   4.450   1.911   5.429
12655TIP3   OH237907   6.109   4.671   3.646
12655TIP3    H137908   6.028   4.620   3.638
12655TIP3    H237909   6.131   4.667   3.739
12656TIP3   OH237910   2.185   6.093   1.810
12656TIP3    H137911   2.279   6.106   1.802
12656TIP3    H237912   2.151   6.179   1.838
12657TIP3   OH237913   0.403   4.524   2.802
12657TIP3    H137914   0.470   4.577   2.760
12657TIP3    H237915   0.364   4.582   2.867
12658TIP3   OH237916   5.504   3.881   3.517
12658TIP3    H137917   5.584   3.917   3.555
12658TIP3    H237918   5.494   3.796   3.560
12659TIP3   OH237919   5.306   0.636   5.675
12659TIP3    H137920   5.340   0.601   5.592
12659TIP3    H237921   5.220   0.670   5.653
12660TIP3   OH237922   4.883   1.380   5.827
12660TIP3    H137923   4.897   1.350   5.737
12660TIP3    H237924   4.843   1.305   5.871
12661TIP3   OH237925   4.421   2.954   2.381
12661TIP3    H137926   4.345   3.006   2.406
12661TIP3    H237927   4.393   2.863   2.394
12662TIP3   OH237928   5.058   2.843   4.405
12662TIP3    H137929   5.079   2.924   4.359
12662TIP3    H237930   4.963   2.839   4.404
12663TIP3   OH237931   3.467   3.074   5.899
12663TIP3    H137932   3.494   3.084   5.991
12663TIP3    H237933   3.499   2.987   5.875
12664TIP3   OH237934   4.242   0.372   3.758
12664TIP3    H137935   4.323   0.355   3.710
12664TIP3    H237936   4.217   0.461   3.732
12665TIP3   OH237937   7.250   7.610   2.685
12665TIP3    H137938   7.229   7.643   2.773
12665TIP3    H237939   7.168   7.619   2.636
12666TIP3   OH237940   3.422   0.451   5.569
12666TIP3    H137941   3.368   0.412   5.500
12666TIP3    H237942   3.448   0.377   5.624
12667TIP3   OH237943   2.645   7.651   1.786
12667TIP3    H137944   2.647   7.627   1.693
12667TIP3    H237945   2.706   7.590   1.828
12668TIP3   OH237946   0.789   0.682   3.407
12668TIP3    H137947   0.866   0.627   3.397
12668TIP3    H237948   0.813   0.744   3.476
12669TIP3   OH237949   4.857   2.494   6.445
12669TIP3    H137950   4.805   2.461   6.518
12669TIP3    H237951   4.815   2.458   6.367
12670TIP3   OH237952   5.180   2.653   4.235
12670TIP3    H137953   5.150   2.711   4.305
12670TIP3    H237954   5.276   2.657   4.239
12671TIP3   OH237955   3.248   3.072   3.762
12671TIP3    H137956   3.199   3.135   3.815
12671TIP3    H237957   3.258   2.995   3.818
12672TIP3   OH237958   0.967   6.365   1.335
12672TIP3    H137959   0.942   6.452   1.365
12672TIP3    H237960   1.062   6.370   1.322
12673TIP3   OH237961   0.650   0.107   6.740
12673TIP3    H137962   0.570   0.100   6.687
12673TIP3    H237963   0.618   0.109   6.830
12674TIP3   OH237964   1.926   4.758   6.073
12674TIP3    H137965   2.020   4.756   6.058
12674TIP3    H237966   1.916   4.801   6.158
12675TIP3   OH237967   0.876   3.010   6.453
12675TIP3    H137968   0.944   3.073   6.426
12675TIP3    H237969   0.800   3.032   6.399
12676TIP3   OH237970   5.218   4.277   4.858
12676TIP3    H137971   5.125   4.265   4.841
12676TIP3    H237972   5.242   4.355   4.809
12677TIP3   OH237973   6.493   7.357   1.402
12677TIP3    H137974   6.537   7.359   1.487
12677TIP3    H237975   6.560   7.324   1.341
12678TIP3   OH237976   7.846   5.408   2.969
12678TIP3    H137977   7.927   5.440   3.008
12678TIP3    H237978   7.827   5.327   3.016
12679TIP3   OH237979   5.299   1.838   6.242
12679TIP3    H137980   5.208   1.868   6.247
12679TIP3    H237981   5.338   1.890   6.172
12680TIP3   OH237982   0.708   3.800   5.008
12680TIP3    H137983   0.689   3.837   4.922
12680TIP3    H237984   0.625   3.761   5.036
12681TIP3   OH237985   3.945   7.713   3.229
12681TIP3    H137986   4.024   7.739   3.277
12681TIP3    H237987   3.970   7.719   3.137
12682TIP3   OH237988   2.497   6.744   3.206
12682TIP3    H137989   2.408   6.730   3.173
12682TIP3    H237990   2.488   6.737   3.301
12683TIP3   OH237991   4.362   7.162   1.761
12683TIP3    H137992   4.401   7.191   1.843
12683TIP3    H237993   4.408   7.212   1.693
12684TIP3   OH237994   6.118   4.119   0.928
12684TIP3    H137995   6.158   4.063   0.994
12684TIP3    H237996   6.192   4.156   0.880
12685TIP3   OH237997   6.641   5.029   3.264
12685TIP3    H137998   6.613   4.971   3.193
12685TIP3    H237999   6.657   5.113   3.222
12686TIP3   OH238000   6.537   3.553   6.015
12686TIP3    H138001   6.540   3.459   6.034
12686TIP3    H238002   6.445   3.577   6.026
12687TIP3   OH238003   1.434   1.606   2.188
12687TIP3    H138004   1.359   1.555   2.160
12687TIP3    H238005   1.509   1.561   2.149
12688TIP3   OH238006   5.507   5.787   2.955
12688TIP3    H138007   5.535   5.818   2.869
12688TIP3    H238008   5.568   5.716   2.976
12689TIP3   OH238009   1.019   3.023   5.395
12689TIP3    H138010   1.111   3.036   5.415
12689TIP3    H238011   1.015   2.935   5.356
12690TIP3   OH238012   7.038   7.086   5.107
12690TIP3    H138013   7.042   6.991   5.098
12690TIP3    H238014   7.099   7.119   5.041
12691TIP3   OH238015   2.419   2.962   0.771
12691TIP3    H138016   2.384   2.876   0.749
12691TIP3    H238017   2.346   3.023   0.757
12692TIP3   OH238018   3.861   4.761   1.437
12692TIP3    H138019   3.864   4.839   1.493
12692TIP3    H238020   3.780   4.771   1.387
12693TIP3   OH238021   1.789   5.445   4.116
12693TIP3    H138022   1.764   5.444   4.023
12693TIP3    H238023   1.858   5.379   4.124
12694TIP3   OH238024   2.377   5.115   2.614
12694TIP3    H138025   2.343   5.041   2.665
12694TIP3    H238026   2.303   5.175   2.607
12695TIP3   OH238027   1.590   1.438   6.188
12695TIP3    H138028   1.545   1.521   6.201
12695TIP3    H238029   1.667   1.460   6.134
12696TIP3   OH238030   0.012   6.363   1.465
12696TIP3    H138031   0.053   6.344   1.550
12696TIP3    H238032  -0.050   6.291   1.452
12697TIP3   OH238033   7.479   7.819   0.293
12697TIP3    H138034   7.463   7.737   0.247
12697TIP3    H238035   7.417   7.819   0.366
12698TIP3   OH238036   1.997   0.072   3.010
12698TIP3    H138037   1.917   0.125   3.014
12698TIP3    H238038   1.989   0.023   2.928
12699TIP3   OH238039   5.358   4.081   0.912
12699TIP3    H138040   5.315   4.072   0.997
12699TIP3    H238041   5.383   4.174   0.908
12700TIP3   OH238042   6.997   1.356   2.031
12700TIP3    H138043   6.915   1.362   2.081
12700TIP3    H238044   7.055   1.420   2.072
12701TIP3   OH238045   0.072   1.945   5.031
12701TIP3    H138046   0.056   1.852   5.014
12701TIP3    H238047  -0.014   1.982   5.047
12702TIP3   OH238048   6.959   5.130   0.124
12702TIP3    H138049   6.871   5.156   0.152
12702TIP3    H238050   6.944   5.064   0.056
12703TIP3   OH238051   7.500   0.432   1.835
12703TIP3    H138052   7.569   0.441   1.901
12703TIP3    H238053   7.488   0.521   1.802
12704TIP3   OH238054   5.824   4.591   1.499
12704TIP3    H138055   5.810   4.683   1.521
12704TIP3    H238056   5.737   4.558   1.477
12705TIP3   OH238057   1.134   0.426   1.840
12705TIP3    H138058   1.053   0.377   1.856
12705TIP3    H238059   1.127   0.454   1.748
12706TIP3   OH238060   5.724   1.935   4.824
12706TIP3    H138061   5.765   1.996   4.886
12706TIP3    H238062   5.685   1.992   4.758
12707TIP3   OH238063   2.698   0.892   2.763
12707TIP3    H138064   2.757   0.822   2.793
12707TIP3    H238065   2.726   0.969   2.812
12708TIP3   OH238066   6.234   1.117   6.500
12708TIP3    H138067   6.231   1.024   6.477
12708TIP3    H238068   6.149   1.151   6.474
12709TIP3   OH238069   0.593   0.254   3.105
12709TIP3    H138070   0.573   0.291   3.019
12709TIP3    H238071   0.563   0.320   3.167
12710TIP3   OH238072   7.731   5.619   1.422
12710TIP3    H138073   7.765   5.555   1.360
12710TIP3    H238074   7.730   5.702   1.373
12711TIP3   OH238075   0.785   4.013   5.390
12711TIP3    H138076   0.844   3.945   5.422
12711TIP3    H238077   0.748   4.052   5.469
12712TIP3   OH238078   3.679   1.634   3.515
12712TIP3    H138079   3.627   1.561   3.482
12712TIP3    H238080   3.700   1.610   3.605
12713TIP3   OH238081   0.977   4.706   0.204
12713TIP3    H138082   0.997   4.798   0.221
12713TIP3    H238083   0.887   4.695   0.235
12714TIP3   OH238084   4.160   5.015   1.508
12714TIP3    H138085   4.084   4.984   1.556
12714TIP3    H238086   4.131   5.096   1.467
12715TIP3   OH238087   6.202   4.452   4.503
12715TIP3    H138088   6.108   4.459   4.514
12715TIP3    H238089   6.229   4.536   4.465
12716TIP3   OH238090   5.509   6.636   5.705
12716TIP3    H138091   5.534   6.579   5.633
12716TIP3    H238092   5.592   6.652   5.752
12717TIP3   OH238093   4.133   2.264   5.824
12717TIP3    H138094   4.223   2.241   5.848
12717TIP3    H238095   4.102   2.317   5.897
12718TIP3   OH238096   2.101   1.310   5.145
12718TIP3    H138097   2.105   1.228   5.194
12718TIP3    H238098   2.059   1.372   5.204
12719TIP3   OH238099   6.057   3.355   0.196
12719TIP3    H138100   6.100   3.406   0.264
12719TIP3    H238101   5.987   3.411   0.164
12720TIP3   OH238102   3.071   4.884   5.336
12720TIP3    H138103   3.143   4.825   5.315
12720TIP3    H238104   3.021   4.839   5.404
12721TIP3   OH238105   0.319   2.317   6.099
12721TIP3    H138106   0.251   2.367   6.053
12721TIP3    H238107   0.401   2.354   6.067
12722TIP3   OH238108   2.695   6.229   3.461
12722TIP3    H138109   2.640   6.165   3.506
12722TIP3    H238110   2.668   6.224   3.370
12723TIP3   OH238111   3.470   6.170   2.325
12723TIP3    H138112   3.460   6.076   2.339
12723TIP3    H238113   3.529   6.176   2.249
12724TIP3   OH238114   7.159   3.918   6.200
12724TIP3    H138115   7.152   4.013   6.205
12724TIP3    H238116   7.227   3.902   6.135
12725TIP3   OH238117   2.087   6.558   2.540
12725TIP3    H138118   2.067   6.554   2.633
12725TIP3    H238119   2.156   6.494   2.528
12726TIP3   OH238120   6.784   2.102   1.629
12726TIP3    H138121   6.710   2.087   1.570
12726TIP3    H238122   6.755   2.068   1.714
12727TIP3   OH238123   4.983   3.104   2.956
12727TIP3    H138124   4.939   3.164   3.017
12727TIP3    H238125   5.059   3.072   3.005
12728TIP3   OH238126   6.733   5.652   4.032
12728TIP3    H138127   6.765   5.628   4.119
12728TIP3    H238128   6.806   5.698   3.992
12729TIP3   OH238129   3.766   5.086   4.104
12729TIP3    H138130   3.825   5.159   4.081
12729TIP3    H238131   3.706   5.080   4.030
12730TIP3   OH238132   2.304   4.292   3.346
12730TIP3    H138133   2.384   4.269   3.392
12730TIP3    H238134   2.274   4.373   3.387
12731TIP3   OH238135   2.818   4.733   2.646
12731TIP3    H138136   2.735   4.756   2.688
12731TIP3    H238137   2.877   4.713   2.718
12732TIP3   OH238138   2.818   0.067   0.440
12732TIP3    H138139   2.862   0.063   0.525
12732TIP3    H238140   2.731   0.101   0.460
12733TIP3   OH238141   1.490   5.194   1.793
12733TIP3    H138142   1.493   5.119   1.853
12733TIP3    H238143   1.477   5.270   1.850
12734TIP3   OH238144   1.657   6.520   1.349
12734TIP3    H138145   1.643   6.426   1.366
12734TIP3    H238146   1.613   6.536   1.266
12735TIP3   OH238147   4.694   6.760   3.961
12735TIP3    H138148   4.736   6.827   3.907
12735TIP3    H238149   4.602   6.788   3.966
12736TIP3   OH238150   5.541   1.689   6.711
12736TIP3    H138151   5.486   1.738   6.772
12736TIP3    H238152   5.531   1.736   6.628
12737TIP3   OH238153   1.144   3.556   4.893
12737TIP3    H138154   1.129   3.544   4.987
12737TIP3    H238155   1.239   3.557   4.883
12738TIP3   OH238156   2.326   4.902   3.896
12738TIP3    H138157   2.367   4.988   3.888
12738TIP3    H238158   2.360   4.866   3.978
12739TIP3   OH238159   3.127   7.526   5.148
12739TIP3    H138160   3.209   7.573   5.162
12739TIP3    H238161   3.097   7.504   5.236
12740TIP3   OH238162   2.937   2.551   6.012
12740TIP3    H138163   2.979   2.474   6.049
12740TIP3    H238164   3.009   2.607   5.985
12741TIP3   OH238165   0.317   6.664   1.601
12741TIP3    H138166   0.230   6.653   1.641
12741TIP3    H238167   0.378   6.636   1.669
12742TIP3   OH238168   2.506   7.233   0.579
12742TIP3    H138169   2.582   7.184   0.612
12742TIP3    H238170   2.529   7.253   0.488
12743TIP3   OH238171   5.804   7.758   5.116
12743TIP3    H138172   5.884   7.705   5.114
12743TIP3    H238173   5.735   7.697   5.090
12744TIP3   OH238174   1.092   0.542   1.579
12744TIP3    H138175   1.001   0.570   1.569
12744TIP3    H238176   1.108   0.483   1.506
12745TIP3   OH238177   5.845   0.954   5.019
12745TIP3    H138178   5.938   0.932   5.021
12745TIP3    H238179   5.806   0.891   4.959
12746TIP3   OH238180   7.563   7.300   5.498
12746TIP3    H138181   7.521   7.351   5.430
12746TIP3    H238182   7.627   7.359   5.537
12747TIP3   OH238183   4.425   2.684   0.411
12747TIP3    H138184   4.394   2.753   0.352
12747TIP3    H238185   4.354   2.620   0.412
12748TIP3   OH238186   5.127   1.399   1.886
12748TIP3    H138187   5.087   1.389   1.973
12748TIP3    H238188   5.110   1.490   1.863
12749TIP3   OH238189   7.574   5.777   2.818
12749TIP3    H138190   7.590   5.716   2.746
12749TIP3    H238191   7.528   5.850   2.778
12750TIP3   OH238192   8.047   4.672   0.144
12750TIP3    H138193   8.121   4.611   0.146
12750TIP3    H238194   8.025   4.680   0.052
12751TIP3   OH238195   0.567   2.679   1.698
12751TIP3    H138196   0.628   2.606   1.693
12751TIP3    H238197   0.552   2.692   1.791
12752TIP3   OH238198   1.201   4.456   4.171
12752TIP3    H138199   1.182   4.477   4.263
12752TIP3    H238200   1.138   4.507   4.121
12753TIP3   OH238201   3.540   6.146   3.048
12753TIP3    H138202   3.531   6.236   3.017
12753TIP3    H238203   3.466   6.100   3.008
12754TIP3   OH238204   7.082   4.265   6.624
12754TIP3    H138205   6.988   4.283   6.626
12754TIP3    H238206   7.119   4.320   6.693
12755TIP3   OH238207   8.067   0.165   6.481
12755TIP3    H138208   8.060   0.104   6.407
12755TIP3    H238209   8.071   0.108   6.558
12756TIP3   OH238210   0.202   3.217   0.727
12756TIP3    H138211   0.266   3.247   0.663
12756TIP3    H238212   0.132   3.179   0.675
12757TIP3   OH238213   1.945   7.657   0.372
12757TIP3    H138214   1.936   7.561   0.371
12757TIP3    H238215   1.883   7.686   0.439
12758TIP3   OH238216   3.377   4.378   3.593
12758TIP3    H138217   3.379   4.430   3.674
12758TIP3    H238218   3.286   4.349   3.586
12759TIP3   OH238219   5.111   6.663   6.312
12759TIP3    H138220   5.070   6.691   6.394
12759TIP3    H238221   5.160   6.584   6.336
12760TIP3   OH238222   1.249   2.980   1.368
12760TIP3    H138223   1.186   3.021   1.309
12760TIP3    H238224   1.197   2.956   1.445
12761TIP3   OH238225   0.849   6.066   4.220
12761TIP3    H138226   0.824   6.121   4.295
12761TIP3    H238227   0.912   6.003   4.257
12762TIP3   OH238228   1.507   5.589   1.814
12762TIP3    H138229   1.519   5.642   1.735
12762TIP3    H238230   1.540   5.502   1.791
12763TIP3   OH238231   6.924   4.784   4.232
12763TIP3    H138232   6.912   4.872   4.197
12763TIP3    H238233   6.922   4.796   4.327
12764TIP3   OH238234   2.700   0.257   1.203
12764TIP3    H138235   2.795   0.265   1.213
12764TIP3    H238236   2.671   0.219   1.286
12765TIP3   OH238237   7.792   2.666   0.975
12765TIP3    H138238   7.872   2.649   1.026
12765TIP3    H238239   7.806   2.753   0.937
12766TIP3   OH238240   0.156   0.639   4.148
12766TIP3    H138241   0.220   0.570   4.134
12766TIP3    H238242   0.190   0.714   4.099
12767TIP3   OH238243   1.514   1.240   4.083
12767TIP3    H138244   1.528   1.213   3.992
12767TIP3    H238245   1.567   1.319   4.093
12768TIP3   OH238246   3.204   4.527   5.815
12768TIP3    H138247   3.225   4.579   5.892
12768TIP3    H238248   3.265   4.558   5.748
12769TIP3   OH238249   4.208   6.563   6.308
12769TIP3    H138250   4.166   6.626   6.248
12769TIP3    H238251   4.189   6.477   6.269
12770TIP3   OH238252   0.788   2.948   6.078
12770TIP3    H138253   0.747   2.966   6.163
12770TIP3    H238254   0.727   2.986   6.014
12771TIP3   OH238255   5.278   3.061   6.727
12771TIP3    H138256   5.343   3.066   6.657
12771TIP3    H238257   5.282   2.969   6.756
12772TIP3   OH238258   7.246   2.225   0.862
12772TIP3    H138259   7.194   2.305   0.862
12772TIP3    H238260   7.202   2.167   0.801
12773TIP3   OH238261   6.412   3.329   6.116
12773TIP3    H138262   6.356   3.404   6.101
12773TIP3    H238263   6.389   3.267   6.047
12774TIP3   OH238264   2.164   3.722   1.819
12774TIP3    H138265   2.083   3.678   1.795
12774TIP3    H238266   2.233   3.662   1.792
12775TIP3   OH238267   3.235   4.684   4.247
12775TIP3    H138268   3.166   4.673   4.183
12775TIP3    H238269   3.215   4.768   4.290
12776TIP3   OH238270   4.511   4.182   3.372
12776TIP3    H138271   4.560   4.106   3.340
12776TIP3    H238272   4.576   4.237   3.415
12777TIP3   OH238273   6.348   1.783   2.383
12777TIP3    H138274   6.255   1.766   2.371
12777TIP3    H238275   6.391   1.699   2.370
12778TIP3   OH238276   2.438   2.486   4.637
12778TIP3    H138277   2.403   2.534   4.712
12778TIP3    H238278   2.490   2.551   4.589
12779TIP3   OH238279   5.896   0.587   5.928
12779TIP3    H138280   5.868   0.552   5.843
12779TIP3    H238281   5.817   0.582   5.982
12780TIP3   OH238282   2.092   7.467   3.385
12780TIP3    H138283   2.157   7.538   3.382
12780TIP3    H238284   2.045   7.475   3.303
12781TIP3   OH238285   4.539   2.004   5.856
12781TIP3    H138286   4.571   1.929   5.806
12781TIP3    H238287   4.500   2.062   5.790
12782TIP3   OH238288   2.025   6.309   4.386
12782TIP3    H138289   2.099   6.248   4.382
12782TIP3    H238290   2.009   6.320   4.480
12783TIP3   OH238291   6.790   2.766   0.064
12783TIP3    H138292   6.836   2.842   0.027
12783TIP3    H238293   6.858   2.718   0.112
12784TIP3   OH238294   2.458   6.911   5.920
12784TIP3    H138295   2.420   6.824   5.932
12784TIP3    H238296   2.548   6.902   5.953
12785TIP3   OH238297   5.937   1.004   6.751
12785TIP3    H138298   5.890   1.006   6.668
12785TIP3    H238299   5.937   1.095   6.781
12786TIP3   OH238300   2.993   6.044   1.639
12786TIP3    H138301   2.975   6.134   1.666
12786TIP3    H238302   2.971   5.992   1.716
12787TIP3   OH238303   2.317   3.936   5.874
12787TIP3    H138304   2.370   3.950   5.952
12787TIP3    H238305   2.234   3.980   5.893
12788TIP3   OH238306   2.793   7.504   6.429
12788TIP3    H138307   2.714   7.489   6.481
12788TIP3    H238308   2.761   7.513   6.340
12789TIP3   OH238309   4.487   2.366   3.583
12789TIP3    H138310   4.496   2.309   3.507
12789TIP3    H238311   4.404   2.340   3.623
12790TIP3   OH238312   5.381   6.183   3.580
12790TIP3    H138313   5.386   6.158   3.672
12790TIP3    H238314   5.325   6.261   3.579
12791TIP3   OH238315   6.118   4.166   3.464
12791TIP3    H138316   6.162   4.167   3.379
12791TIP3    H238317   6.081   4.078   3.470
12792TIP3   OH238318   2.533   3.369   3.435
12792TIP3    H138319   2.619   3.326   3.427
12792TIP3    H238320   2.504   3.380   3.344
12793TIP3   OH238321   7.829   2.130   5.918
12793TIP3    H138322   7.810   2.223   5.931
12793TIP3    H238323   7.762   2.085   5.968
12794TIP3   OH238324   6.603   3.060   6.332
12794TIP3    H138325   6.591   3.067   6.237
12794TIP3    H238326   6.526   3.102   6.369
12795TIP3   OH238327   2.372   0.125   2.449
12795TIP3    H138328   2.335   0.213   2.455
12795TIP3    H238329   2.456   0.138   2.404
12796TIP3   OH238330   4.736   2.441   2.663
12796TIP3    H138331   4.822   2.451   2.704
12796TIP3    H238332   4.734   2.506   2.593
12797TIP3   OH238333   6.611   0.304   6.148
12797TIP3    H138334   6.579   0.352   6.072
12797TIP3    H238335   6.620   0.214   6.118
12798TIP3   OH238336   3.017   2.443   5.399
12798TIP3    H138337   2.960   2.498   5.454
12798TIP3    H238338   3.104   2.481   5.409
12799TIP3   OH238339   3.431   5.716   0.306
12799TIP3    H138340   3.393   5.683   0.225
12799TIP3    H238341   3.373   5.787   0.333
12800TIP3   OH238342   6.500   6.702   5.178
12800TIP3    H138343   6.451   6.640   5.125
12800TIP3    H238344   6.494   6.667   5.267
12801TIP3   OH238345   0.498   5.162   6.207
12801TIP3    H138346   0.432   5.168   6.138
12801TIP3    H238347   0.547   5.082   6.187
12802TIP3   OH238348   0.616   7.086   5.118
12802TIP3    H138349   0.584   7.019   5.179
12802TIP3    H238350   0.687   7.043   5.071
12803TIP3   OH238351   1.372   4.650   5.208
12803TIP3    H138352   1.412   4.665   5.293
12803TIP3    H238353   1.397   4.561   5.185
12804TIP3   OH238354   6.562   6.176   2.550
12804TIP3    H138355   6.627   6.157   2.482
12804TIP3    H238356   6.581   6.112   2.619
12805TIP3   OH238357   0.137   5.675   6.123
12805TIP3    H138358   0.066   5.697   6.184
12805TIP3    H238359   0.215   5.714   6.161
12806TIP3   OH238360   3.113   3.157   5.164
12806TIP3    H138361   3.106   3.156   5.260
12806TIP3    H238362   3.168   3.233   5.145
12807TIP3   OH238363   8.232   0.027   2.668
12807TIP3    H138364   8.317   0.054   2.701
12807TIP3    H238365   8.239   0.035   2.573
12808TIP3   OH238366   1.957   0.199   5.626
12808TIP3    H138367   1.884   0.243   5.583
12808TIP3    H238368   1.978   0.256   5.701
12809TIP3   OH238369   1.312   6.941   0.847
12809TIP3    H138370   1.374   7.013   0.839
12809TIP3    H238371   1.365   6.868   0.882
12810TIP3   OH238372   2.221   2.751   4.279
12810TIP3    H138373   2.284   2.708   4.337
12810TIP3    H238374   2.197   2.832   4.325
12811TIP3   OH238375   0.581   1.071   0.292
12811TIP3    H138376   0.576   1.061   0.197
12811TIP3    H238377   0.496   1.107   0.317
12812TIP3   OH238378   3.698   7.729   6.205
12812TIP3    H138379   3.626   7.701   6.148
12812TIP3    H238380   3.732   7.648   6.243
12813TIP3   OH238381   1.155   3.137   6.532
12813TIP3    H138382   1.233   3.095   6.496
12813TIP3    H238383   1.144   3.216   6.479
12814TIP3   OH238384   7.806   4.552   2.885
12814TIP3    H138385   7.890   4.578   2.922
12814TIP3    H238386   7.767   4.634   2.855
12815TIP3   OH238387   3.665   4.038   6.103
12815TIP3    H138388   3.664   4.105   6.171
12815TIP3    H238389   3.618   3.964   6.141
12816TIP3   OH238390   0.541   2.506   4.868
12816TIP3    H138391   0.453   2.468   4.867
12816TIP3    H238392   0.599   2.430   4.860
12817TIP3   OH238393   6.605   4.853   2.781
12817TIP3    H138394   6.547   4.923   2.752
12817TIP3    H238395   6.674   4.850   2.716
12818TIP3   OH238396   4.908   7.482   2.394
12818TIP3    H138397   4.849   7.470   2.469
12818TIP3    H238398   4.969   7.550   2.422
12819TIP3   OH238399   2.650   7.256   5.040
12819TIP3    H138400   2.693   7.259   4.955
12819TIP3    H238401   2.722   7.255   5.103
12820TIP3   OH238402   7.454   6.872   5.686
12820TIP3    H138403   7.492   6.866   5.774
12820TIP3    H238404   7.527   6.851   5.627
12821TIP3   OH238405   6.046   0.116   2.985
12821TIP3    H138406   6.066   0.105   3.078
12821TIP3    H238407   6.006   0.203   2.980
12822TIP3   OH238408   8.008   3.264   4.862
12822TIP3    H138409   8.061   3.298   4.790
12822TIP3    H238410   8.067   3.205   4.909
12823TIP3   OH238411   0.305   3.678   4.098
12823TIP3    H138412   0.302   3.613   4.027
12823TIP3    H238413   0.258   3.753   4.063
12824TIP3   OH238414   6.344   4.825   3.126
12824TIP3    H138415   6.386   4.790   3.205
12824TIP3    H238416   6.265   4.867   3.157
12825TIP3   OH238417   5.970   7.542   4.543
12825TIP3    H138418   5.961   7.595   4.622
12825TIP3    H238419   6.038   7.585   4.492
12826TIP3   OH238420   7.191   7.792   1.318
12826TIP3    H138421   7.191   7.773   1.224
12826TIP3    H238422   7.222   7.710   1.359
12827TIP3   OH238423   0.714   2.706   4.808
12827TIP3    H138424   0.741   2.735   4.895
12827TIP3    H238425   0.658   2.631   4.824
12828TIP3   OH238426   5.142   2.658   4.869
12828TIP3    H138427   5.128   2.618   4.783
12828TIP3    H238428   5.164   2.584   4.926
12829TIP3   OH238429   5.638   2.273   4.873
12829TIP3    H138430   5.543   2.273   4.877
12829TIP3    H238431   5.662   2.360   4.841
12830TIP3   OH238432   4.377   0.914   5.630
12830TIP3    H138433   4.394   1.001   5.664
12830TIP3    H238434   4.464   0.876   5.616
12831TIP3   OH238435   6.298   1.324   0.561
12831TIP3    H138436   6.375   1.287   0.518
12831TIP3    H238437   6.327   1.346   0.649
12832TIP3   OH238438   8.188   1.030   3.958
12832TIP3    H138439   8.108   1.072   3.991
12832TIP3    H238440   8.158   0.948   3.920
12833TIP3   OH238441   0.747   4.848   0.838
12833TIP3    H138442   0.766   4.794   0.761
12833TIP3    H238443   0.833   4.871   0.873
12834TIP3   OH238444   7.825   7.449   6.107
12834TIP3    H138445   7.783   7.368   6.137
12834TIP3    H238446   7.905   7.419   6.063
12835TIP3   OH238447   7.315   2.932   4.980
12835TIP3    H138448   7.300   2.905   4.889
12835TIP3    H238449   7.256   3.006   4.993
12836TIP3   OH238450   8.259   0.567   6.665
12836TIP3    H138451   8.289   0.501   6.727
12836TIP3    H238452   8.176   0.533   6.631
12837TIP3   OH238453   7.467   4.584   1.932
12837TIP3    H138454   7.381   4.562   1.967
12837TIP3    H238455   7.458   4.576   1.837
12838TIP3   OH238456   1.078   0.443   5.805
12838TIP3    H138457   1.143   0.401   5.749
12838TIP3    H238458   1.111   0.432   5.894
12839TIP3   OH238459   2.536   1.600   1.747
12839TIP3    H138460   2.477   1.526   1.747
12839TIP3    H238461   2.605   1.577   1.809
12840TIP3   OH238462   8.219   4.675   2.921
12840TIP3    H138463   8.311   4.698   2.928
12840TIP3    H238464   8.175   4.739   2.978
12841TIP3   OH238465   5.877   2.509   0.201
12841TIP3    H138466   5.797   2.535   0.246
12841TIP3    H238467   5.930   2.589   0.198
12842TIP3   OH238468   0.868   2.752   5.065
12842TIP3    H138469   0.872   2.794   5.151
12842TIP3    H238470   0.820   2.670   5.080
12843TIP3   OH238471   3.817   0.161   3.197
12843TIP3    H138472   3.803   0.072   3.227
12843TIP3    H238473   3.843   0.152   3.105
12844TIP3   OH238474   3.846   0.788   2.927
12844TIP3    H138475   3.791   0.744   2.991
12844TIP3    H238476   3.794   0.862   2.897
12845TIP3   OH238477   1.136   6.571   5.204
12845TIP3    H138478   1.046   6.559   5.173
12845TIP3    H238479   1.153   6.495   5.259
12846TIP3   OH238480   6.874   5.451   1.862
12846TIP3    H138481   6.827   5.369   1.847
12846TIP3    H238482   6.880   5.491   1.775
12847TIP3   OH238483   5.755   2.851   6.338
12847TIP3    H138484   5.741   2.946   6.335
12847TIP3    H238485   5.841   2.839   6.298
12848TIP3   OH238486   6.929   5.669   6.646
12848TIP3    H138487   6.871   5.596   6.622
12848TIP3    H238488   6.877   5.721   6.707
12849TIP3   OH238489   5.311   3.263   3.591
12849TIP3    H138490   5.380   3.325   3.615
12849TIP3    H238491   5.268   3.304   3.515
12850TIP3   OH238492   1.960   5.057   0.437
12850TIP3    H138493   2.036   5.050   0.380
12850TIP3    H238494   1.886   5.071   0.378
12851TIP3   OH238495   7.507   2.188   4.650
12851TIP3    H138496   7.431   2.226   4.605
12851TIP3    H238497   7.507   2.228   4.736
12852TIP3   OH238498   8.024   1.040   1.719
12852TIP3    H138499   8.052   1.024   1.809
12852TIP3    H238500   8.030   1.135   1.708
12853TIP3   OH238501   5.807   3.223   0.578
12853TIP3    H138502   5.858   3.202   0.500
12853TIP3    H238503   5.813   3.318   0.586
12854TIP3   OH238504   4.724   1.882   3.016
12854TIP3    H138505   4.734   1.924   3.101
12854TIP3    H238506   4.726   1.954   2.953
12855TIP3   OH238507   0.981   0.652   4.127
12855TIP3    H138508   0.885   0.649   4.121
12855TIP3    H238509   1.005   0.731   4.079
12856TIP3   OH238510   5.857   4.257   6.352
12856TIP3    H138511   5.946   4.249   6.318
12856TIP3    H238512   5.847   4.351   6.371
12857TIP3   OH238513   7.145   6.371   6.230
12857TIP3    H138514   7.152   6.276   6.246
12857TIP3    H238515   7.056   6.393   6.255
12858TIP3   OH238516   5.055   2.095   4.973
12858TIP3    H138517   5.022   2.157   5.038
12858TIP3    H238518   5.079   2.018   5.024
12859TIP3   OH238519   5.244   4.244   4.011
12859TIP3    H138520   5.183   4.184   4.053
12859TIP3    H238521   5.285   4.292   4.083
12860TIP3   OH238522   0.336   5.789   2.532
12860TIP3    H138523   0.245   5.812   2.550
12860TIP3    H238524   0.335   5.693   2.527
12861TIP3   OH238525   5.749   7.781   2.458
12861TIP3    H138526   5.783   7.699   2.494
12861TIP3    H238527   5.828   7.830   2.433
12862TIP3   OH238528   4.308   0.959   4.087
12862TIP3    H138529   4.328   0.880   4.038
12862TIP3    H238530   4.388   1.011   4.082
12863TIP3   OH238531   5.371   5.737   6.295
12863TIP3    H138532   5.375   5.826   6.260
12863TIP3    H238533   5.457   5.723   6.335
12864TIP3   OH238534   6.926   5.402   0.980
12864TIP3    H138535   6.918   5.381   1.073
12864TIP3    H238536   7.000   5.462   0.976
12865TIP3   OH238537   0.878   0.881   3.577
12865TIP3    H138538   0.866   0.919   3.664
12865TIP3    H238539   0.957   0.923   3.544
12866TIP3   OH238540   5.910   3.949   1.926
12866TIP3    H138541   5.855   3.948   1.848
12866TIP3    H238542   5.856   3.993   1.992
12867TIP3   OH238543   1.491   4.449   0.988
12867TIP3    H138544   1.469   4.503   1.064
12867TIP3    H238545   1.408   4.438   0.942
12868TIP3   OH238546   1.497   5.315   2.992
12868TIP3    H138547   1.473   5.408   2.994
12868TIP3    H238548   1.592   5.315   2.987
12869TIP3   OH238549   1.898   2.893   2.325
12869TIP3    H138550   1.813   2.933   2.344
12869TIP3    H238551   1.897   2.811   2.374
12870TIP3   OH238552   4.957   3.124   2.199
12870TIP3    H138553   4.951   3.031   2.180
12870TIP3    H238554   4.979   3.128   2.292
12871TIP3   OH238555   0.392   0.745   3.807
12871TIP3    H138556   0.323   0.789   3.856
12871TIP3    H238557   0.473   0.777   3.846
12872TIP3   OH238558   2.490   7.054   2.959
12872TIP3    H138559   2.552   6.982   2.963
12872TIP3    H238560   2.408   7.013   2.929
12873TIP3   OH238561   4.016   3.122   0.332
12873TIP3    H138562   3.964   3.044   0.313
12873TIP3    H238563   4.043   3.154   0.246
12874TIP3   OH238564   0.027   3.540  -0.022
12874TIP3    H138565   0.008   3.471  -0.086
12874TIP3    H238566  -0.047   3.539   0.038
12875TIP3   OH238567   0.273   7.338   1.570
12875TIP3    H138568   0.271   7.334   1.474
12875TIP3    H238569   0.309   7.254   1.597
12876TIP3   OH238570   2.617   0.904   5.361
12876TIP3    H138571   2.696   0.913   5.308
12876TIP3    H238572   2.580   0.993   5.364
12877TIP3   OH238573   1.200   0.774   3.069
12877TIP3    H138574   1.287   0.797   3.036
12877TIP3    H238575   1.141   0.836   3.027
12878TIP3   OH238576   3.551   5.580   6.252
12878TIP3    H138577   3.528   5.635   6.327
12878TIP3    H238578   3.467   5.558   6.211
12879TIP3   OH238579   2.415   1.508   1.254
12879TIP3    H138580   2.320   1.520   1.257
12879TIP3    H238581   2.435   1.453   1.330
12880TIP3   OH238582   5.751   2.126   3.273
12880TIP3    H138583   5.836   2.145   3.312
12880TIP3    H238584   5.725   2.207   3.230
12881TIP3   OH238585   5.315   4.023   2.057
12881TIP3    H138586   5.403   3.993   2.079
12881TIP3    H238587   5.267   3.944   2.036
12882TIP3   OH238588   5.265   7.808   0.483
12882TIP3    H138589   5.192   7.751   0.461
12882TIP3    H238590   5.242   7.893   0.444
12883TIP3   OH238591   0.594   4.628   4.025
12883TIP3    H138592   0.509   4.617   4.068
12883TIP3    H238593   0.609   4.722   4.026
12884TIP3   OH238594   3.560   0.087   5.033
12884TIP3    H138595   3.534   0.107   5.123
12884TIP3    H238596   3.632   0.147   5.014
12885TIP3   OH238597   1.543   3.215   4.429
12885TIP3    H138598   1.490   3.279   4.476
12885TIP3    H238599   1.595   3.173   4.497
12886TIP3   OH238600   4.060   3.350   2.579
12886TIP3    H138601   4.103   3.390   2.654
12886TIP3    H238602   4.095   3.261   2.576
12887TIP3   OH238603   2.827   1.178   0.691
12887TIP3    H138604   2.785   1.176   0.777
12887TIP3    H238605   2.838   1.086   0.667
12888TIP3   OH238606   0.775   3.247   4.122
12888TIP3    H138607   0.822   3.331   4.128
12888TIP3    H238608   0.839   3.182   4.150
12889TIP3   OH238609   1.691   4.594   6.495
12889TIP3    H138610   1.619   4.531   6.501
12889TIP3    H238611   1.734   4.573   6.413
12890TIP3   OH238612   6.098   2.805   5.376
12890TIP3    H138613   6.039   2.860   5.324
12890TIP3    H238614   6.045   2.729   5.400
12891TIP3   OH238615   3.758   6.067   0.350
12891TIP3    H138616   3.800   6.148   0.377
12891TIP3    H238617   3.718   6.087   0.265
12892TIP3   OH238618   5.125   1.856   5.138
12892TIP3    H138619   5.141   1.790   5.070
12892TIP3    H238620   5.103   1.804   5.216
12893TIP3   OH238621   5.768   2.302   1.486
12893TIP3    H138622   5.748   2.216   1.524
12893TIP3    H238623   5.790   2.283   1.395
12894TIP3   OH238624   6.750   3.881   4.722
12894TIP3    H138625   6.665   3.866   4.764
12894TIP3    H238626   6.730   3.937   4.647
12895TIP3   OH238627   3.422   1.586   5.777
12895TIP3    H138628   3.329   1.573   5.793
12895TIP3    H238629   3.455   1.625   5.859
12896TIP3   OH238630   3.449   3.594   5.977
12896TIP3    H138631   3.391   3.524   6.008
12896TIP3    H238632   3.527   3.548   5.945
12897TIP3   OH238633   3.963   2.784   1.694
12897TIP3    H138634   4.022   2.720   1.653
12897TIP3    H238635   3.877   2.742   1.692
12898TIP3   OH238636   3.394   7.009   5.464
12898TIP3    H138637   3.424   7.063   5.391
12898TIP3    H238638   3.378   7.071   5.535
12899TIP3   OH238639   0.936   3.535   5.665
12899TIP3    H138640   0.907   3.618   5.703
12899TIP3    H238641   1.031   3.545   5.656
12900TIP3   OH238642   6.923   3.282   4.878
12900TIP3    H138643   6.902   3.277   4.785
12900TIP3    H238644   6.988   3.352   4.884
12901TIP3   OH238645   5.661   7.297   1.782
12901TIP3    H138646   5.687   7.352   1.708
12901TIP3    H238647   5.673   7.208   1.751
12902TIP3   OH238648   5.896   3.017  -0.035
12902TIP3    H138649   5.910   2.941   0.020
12902TIP3    H238650   5.978   3.067  -0.028
12903TIP3   OH238651   3.709   6.943   3.242
12903TIP3    H138652   3.714   6.872   3.178
12903TIP3    H238653   3.791   6.939   3.290
12904TIP3   OH238654   5.899   5.258   5.112
12904TIP3    H138655   5.984   5.279   5.151
12904TIP3    H238656   5.877   5.172   5.147
12905TIP3   OH238657   3.278   5.862   6.307
12905TIP3    H138658   3.306   5.793   6.368
12905TIP3    H238659   3.191   5.887   6.339
12906TIP3   OH238660   4.662   1.178   0.987
12906TIP3    H138661   4.740   1.232   1.000
12906TIP3    H238662   4.599   1.212   1.050
12907TIP3   OH238663   7.647   4.192   3.643
12907TIP3    H138664   7.713   4.146   3.591
12907TIP3    H238665   7.568   4.188   3.590
12908TIP3   OH238666   1.995   5.459   6.744
12908TIP3    H138667   2.069   5.471   6.686
12908TIP3    H238668   1.975   5.365   6.739
12909TIP3   OH238669   8.056   5.491   5.508
12909TIP3    H138670   8.033   5.552   5.578
12909TIP3    H238671   8.117   5.429   5.549
12910TIP3   OH238672   1.913   5.826   1.096
12910TIP3    H138673   1.987   5.795   1.147
12910TIP3    H238674   1.931   5.918   1.080
12911TIP3   OH238675   0.935   0.687   5.699
12911TIP3    H138676   0.917   0.694   5.792
12911TIP3    H238677   0.985   0.606   5.689
12912TIP3   OH238678   8.112   7.305   2.756
12912TIP3    H138679   8.121   7.292   2.850
12912TIP3    H238680   8.019   7.325   2.742
12913TIP3   OH238681   0.755   1.753   1.923
12913TIP3    H138682   0.738   1.675   1.871
12913TIP3    H238683   0.668   1.780   1.954
12914TIP3   OH238684   1.175   0.163   4.629
12914TIP3    H138685   1.158   0.175   4.536
12914TIP3    H238686   1.090   0.173   4.671
12915TIP3   OH238687   1.253   5.961   3.038
12915TIP3    H138688   1.210   5.881   3.006
12915TIP3    H238689   1.185   6.028   3.034
12916TIP3   OH238690   7.540   6.354   3.576
12916TIP3    H138691   7.559   6.325   3.666
12916TIP3    H238692   7.526   6.273   3.528
12917TIP3   OH238693  -0.001   6.338   0.234
12917TIP3    H138694  -0.077   6.285   0.209
12917TIP3    H238695   0.042   6.287   0.304
12918TIP3   OH238696   6.052   4.465   0.195
12918TIP3    H138697   6.101   4.540   0.227
12918TIP3    H238698   6.077   4.393   0.253
12919TIP3   OH238699   3.903   2.517   2.855
12919TIP3    H138700   3.850   2.595   2.871
12919TIP3    H238701   3.885   2.460   2.930
12920TIP3   OH238702   8.146   6.276   2.995
12920TIP3    H138703   8.118   6.275   3.087
12920TIP3    H238704   8.076   6.231   2.948
12921TIP3   OH238705   7.510   0.283   0.342
12921TIP3    H138706   7.432   0.255   0.294
12921TIP3    H238707   7.476   0.314   0.426
12922TIP3   OH238708   8.117   6.822   1.079
12922TIP3    H138709   8.102   6.908   1.119
12922TIP3    H238710   8.037   6.806   1.027
12923TIP3   OH238711   3.585   1.650   0.088
12923TIP3    H138712   3.675   1.650   0.120
12923TIP3    H238713   3.534   1.618   0.163
12924TIP3   OH238714   6.001   6.870   2.813
12924TIP3    H138715   6.022   6.795   2.758
12924TIP3    H238716   5.980   6.940   2.751
12925TIP3   OH238717   4.062   0.158   5.598
12925TIP3    H138718   4.131   0.224   5.587
12925TIP3    H238719   4.003   0.172   5.524
12926TIP3   OH238720   7.036   2.729   0.698
12926TIP3    H138721   6.991   2.757   0.618
12926TIP3    H238722   7.116   2.686   0.666
12927TIP3   OH238723   2.506   3.210   0.072
12927TIP3    H138724   2.425   3.163   0.052
12927TIP3    H238725   2.497   3.234   0.164
12928TIP3   OH238726   0.197   4.328   3.324
12928TIP3    H138727   0.112   4.293   3.350
12928TIP3    H238728   0.245   4.338   3.406
12929TIP3   OH238729   4.940   1.089   0.397
12929TIP3    H138730   5.007   1.157   0.392
12929TIP3    H238731   4.916   1.087   0.490
12930TIP3   OH238732   2.531   1.379   4.560
12930TIP3    H138733   2.556   1.364   4.651
12930TIP3    H238734   2.611   1.409   4.518
12931TIP3   OH238735   6.330   6.765   1.078
12931TIP3    H138736   6.313   6.679   1.039
12931TIP3    H238737   6.327   6.826   1.003
12932TIP3   OH238738   7.715   1.330   3.291
12932TIP3    H138739   7.808   1.337   3.315
12932TIP3    H238740   7.699   1.407   3.236
12933TIP3   OH238741   1.674   5.754   1.213
12933TIP3    H138742   1.750   5.783   1.162
12933TIP3    H238743   1.610   5.825   1.203
12934TIP3   OH238744   5.287   7.629   2.765
12934TIP3    H138745   5.348   7.558   2.785
12934TIP3    H238746   5.342   7.698   2.728
12935TIP3   OH238747   6.909   7.799   1.054
12935TIP3    H138748   6.906   7.883   1.099
12935TIP3    H238749   6.984   7.806   0.994
12936TIP3   OH238750   2.510   4.473   5.490
12936TIP3    H138751   2.540   4.553   5.534
12936TIP3    H238752   2.415   4.475   5.501
12937TIP3   OH238753   8.252   3.654   4.289
12937TIP3    H138754   8.205   3.621   4.366
12937TIP3    H238755   8.343   3.625   4.303
12938TIP3   OH238756   6.191   0.368   2.681
12938TIP3    H138757   6.115   0.312   2.692
12938TIP3    H238758   6.155   0.455   2.664
12939TIP3   OH238759   3.186   0.039   1.287
12939TIP3    H138760   3.246   0.103   1.250
12939TIP3    H238761   3.104   0.085   1.297
12940TIP3   OH238762   7.777   5.180   4.866
12940TIP3    H138763   7.735   5.116   4.808
12940TIP3    H238764   7.711   5.247   4.879
12941TIP3   OH238765   2.543   4.094   1.600
12941TIP3    H138766   2.530   4.059   1.688
12941TIP3    H238767   2.480   4.166   1.594
12942TIP3   OH238768   1.775   6.266   0.839
12942TIP3    H138769   1.843   6.328   0.867
12942TIP3    H238770   1.737   6.234   0.920
12943TIP3   OH238771   1.539   7.505   4.136
12943TIP3    H138772   1.494   7.555   4.204
12943TIP3    H238773   1.509   7.543   4.054
12944TIP3   OH238774   7.231   0.294   5.465
12944TIP3    H138775   7.146   0.293   5.509
12944TIP3    H238776   7.234   0.377   5.418
12945TIP3   OH238777   3.352   0.498   2.589
12945TIP3    H138778   3.420   0.443   2.551
12945TIP3    H238779   3.382   0.516   2.678
12946TIP3   OH238780   5.079   7.540   1.708
12946TIP3    H138781   5.115   7.550   1.796
12946TIP3    H238782   5.102   7.621   1.663
12947TIP3   OH238783   0.563   0.947   3.990
12947TIP3    H138784   0.536   1.030   4.029
12947TIP3    H238785   0.562   0.885   4.062
12948TIP3   OH238786   2.855   2.392   4.193
12948TIP3    H138787   2.833   2.406   4.101
12948TIP3    H238788   2.945   2.358   4.191
12949TIP3   OH238789   2.440   7.026   5.674
12949TIP3    H138790   2.458   6.986   5.760
12949TIP3    H238791   2.459   6.957   5.611
12950TIP3   OH238792   4.338   2.274   6.239
12950TIP3    H138793   4.299   2.358   6.217
12950TIP3    H238794   4.295   2.212   6.180
12951TIP3   OH238795   2.466   0.752   2.797
12951TIP3    H138796   2.536   0.817   2.803
12951TIP3    H238797   2.500   0.687   2.736
12952TIP3   OH238798   7.005   6.282   3.394
12952TIP3    H138799   6.974   6.370   3.416
12952TIP3    H238800   7.029   6.288   3.301
12953TIP3   OH238801   7.342   4.493   3.099
12953TIP3    H138802   7.279   4.546   3.148
12953TIP3    H238803   7.395   4.556   3.051
12954TIP3   OH238804   4.852   7.654   0.046
12954TIP3    H138805   4.787   7.724   0.057
12954TIP3    H238806   4.915   7.690  -0.016
12955TIP3   OH238807   6.275   5.505   2.046
12955TIP3    H138808   6.364   5.535   2.026
12955TIP3    H238809   6.286   5.415   2.077
12956TIP3   OH238810   6.579   0.465   5.930
12956TIP3    H138811   6.661   0.512   5.945
12956TIP3    H238812   6.561   0.479   5.837
12957TIP3   OH238813   2.400   1.510   2.077
12957TIP3    H138814   2.327   1.470   2.124
12957TIP3    H238815   2.460   1.539   2.145
12958TIP3   OH238816   2.227   5.727   6.724
12958TIP3    H138817   2.302   5.719   6.783
12958TIP3    H238818   2.153   5.696   6.777
12959TIP3   OH238819   7.402   3.213   6.010
12959TIP3    H138820   7.342   3.235   5.939
12959TIP3    H238821   7.357   3.145   6.060
12960TIP3   OH238822   7.085   4.015   0.380
12960TIP3    H138823   7.155   4.039   0.320
12960TIP3    H238824   7.006   4.018   0.326
12961TIP3   OH238825   8.101   7.579   1.262
12961TIP3    H138826   8.134   7.490   1.277
12961TIP3    H238827   8.167   7.635   1.300
12962TIP3   OH238828   4.942   7.712   6.737
12962TIP3    H138829   4.854   7.719   6.701
12962TIP3    H238830   4.930   7.703   6.831
12963TIP3   OH238831   6.614   4.610   4.862
12963TIP3    H138832   6.674   4.632   4.791
12963TIP3    H238833   6.654   4.534   4.905
12964TIP3   OH238834   2.462   3.061   1.992
12964TIP3    H138835   2.558   3.065   1.997
12964TIP3    H238836   2.444   2.980   1.944
12965TIP3   OH238837   3.086   6.890   3.838
12965TIP3    H138838   3.005   6.920   3.797
12965TIP3    H238839   3.065   6.806   3.877
12966TIP3   OH238840   7.386   7.264   0.718
12966TIP3    H138841   7.426   7.327   0.658
12966TIP3    H238842   7.430   7.278   0.801
12967TIP3   OH238843   0.687   0.827   3.010
12967TIP3    H138844   0.598   0.803   3.036
12967TIP3    H238845   0.677   0.913   2.969
12968TIP3   OH238846   3.065   5.958   2.776
12968TIP3    H138847   3.010   6.007   2.837
12968TIP3    H238848   3.027   5.870   2.774
12969TIP3   OH238849   1.920   4.293   0.691
12969TIP3    H138850   1.993   4.294   0.752
12969TIP3    H238851   1.842   4.299   0.747
12970TIP3   OH238852   8.026   7.510   0.096
12970TIP3    H138853   8.117   7.538   0.080
12970TIP3    H238854   8.019   7.506   0.191
12971TIP3   OH238855   4.239   7.397   5.248
12971TIP3    H138856   4.150   7.427   5.227
12971TIP3    H238857   4.297   7.463   5.210
12972TIP3   OH238858   3.785   0.133   3.534
12972TIP3    H138859   3.849   0.202   3.517
12972TIP3    H238860   3.831   0.052   3.510
12973TIP3   OH238861   3.105   3.326   1.402
12973TIP3    H138862   3.019   3.361   1.377
12973TIP3    H238863   3.129   3.268   1.330
12974TIP3   OH238864   3.861   3.404   1.184
12974TIP3    H138865   3.905   3.320   1.201
12974TIP3    H238866   3.851   3.443   1.271
12975TIP3   OH238867   5.082   0.762   4.190
12975TIP3    H138868   5.050   0.776   4.279
12975TIP3    H238869   5.166   0.717   4.202
12976TIP3   OH238870   5.774   4.138   0.495
12976TIP3    H138871   5.796   4.109   0.406
12976TIP3    H238872   5.795   4.232   0.495
12977TIP3   OH238873   1.678   3.641   4.216
12977TIP3    H138874   1.666   3.726   4.260
12977TIP3    H238875   1.590   3.615   4.191
12978TIP3   OH238876   5.349   1.114   1.208
12978TIP3    H138877   5.398   1.037   1.177
12978TIP3    H238878   5.355   1.107   1.304
12979TIP3   OH238879   4.109   4.667   1.564
12979TIP3    H138880   4.026   4.688   1.520
12979TIP3    H238881   4.082   4.638   1.652
12980TIP3   OH238882   6.197   2.593   6.159
12980TIP3    H138883   6.214   2.662   6.093
12980TIP3    H238884   6.226   2.632   6.241
12981TIP3   OH238885   1.330   1.220   1.788
12981TIP3    H138886   1.416   1.253   1.761
12981TIP3    H238887   1.269   1.290   1.764
12982TIP3   OH238888   0.028   1.746   6.324
12982TIP3    H138889   0.025   1.829   6.277
12982TIP3    H238890   0.062   1.769   6.411
12983TIP3   OH238891   3.941   0.530   6.099
12983TIP3    H138892   3.972   0.521   6.189
12983TIP3    H238893   3.902   0.444   6.078
12984TIP3   OH238894   3.564   4.219   4.721
12984TIP3    H138895   3.487   4.164   4.740
12984TIP3    H238896   3.553   4.295   4.777
12985TIP3   OH238897   6.157   3.817   6.242
12985TIP3    H138898   6.121   3.899   6.278
12985TIP3    H238899   6.181   3.840   6.152
12986TIP3   OH238900   0.263   0.581   2.740
12986TIP3    H138901   0.347   0.544   2.771
12986TIP3    H238902   0.286   0.667   2.705
12987TIP3   OH238903   5.212   7.806   1.075
12987TIP3    H138904   5.181   7.732   1.022
12987TIP3    H238905   5.152   7.877   1.055
12988TIP3   OH238906   2.854   5.573   0.795
12988TIP3    H138907   2.808   5.641   0.843
12988TIP3    H238908   2.787   5.532   0.740
12989TIP3   OH238909   1.585   4.346   6.249
12989TIP3    H138910   1.536   4.312   6.324
12989TIP3    H238911   1.529   4.415   6.214
12990TIP3   OH238912   5.493   3.473   4.871
12990TIP3    H138913   5.407   3.434   4.856
12990TIP3    H238914   5.489   3.507   4.960
12991TIP3   OH238915   5.814   6.898   1.536
12991TIP3    H138916   5.755   6.914   1.462
12991TIP3    H238917   5.807   6.804   1.551
12992TIP3   OH238918   4.718   5.457   6.766
12992TIP3    H138919   4.782   5.470   6.697
12992TIP3    H238920   4.699   5.363   6.765
12993TIP3   OH238921   7.461   3.712   2.566
12993TIP3    H138922   7.430   3.755   2.486
12993TIP3    H238923   7.458   3.780   2.633
12994TIP3   OH238924   5.002   1.251   4.476
12994TIP3    H138925   4.950   1.319   4.433
12994TIP3    H238926   4.976   1.170   4.432
12995TIP3   OH238927   7.763   6.997   3.106
12995TIP3    H138928   7.669   6.984   3.094
12995TIP3    H238929   7.791   6.921   3.157
12996TIP3   OH238930   0.189   2.138   0.561
12996TIP3    H138931   0.099   2.150   0.528
12996TIP3    H238932   0.242   2.128   0.481
12997TIP3   OH238933   3.881   3.317   2.182
12997TIP3    H138934   3.932   3.272   2.114
12997TIP3    H238935   3.942   3.382   2.217
12998TIP3   OH238936   7.842   0.118   6.702
12998TIP3    H138937   7.782   0.060   6.748
12998TIP3    H238938   7.811   0.207   6.722
12999TIP3   OH238939   0.491   3.917   1.160
12999TIP3    H138940   0.542   3.851   1.111
12999TIP3    H238941   0.496   3.888   1.251
13000TIP3   OH238942   3.739   4.251   1.236
13000TIP3    H138943   3.821   4.206   1.256
13000TIP3    H238944   3.764   4.343   1.226
13001TIP3   OH238945   0.082   4.325   1.806
13001TIP3    H138946   0.134   4.299   1.883
13001TIP3    H238947  -0.003   4.350   1.842
13002TIP3   OH238948   4.728   6.293   4.260
13002TIP3    H138949   4.636   6.318   4.250
13002TIP3    H238950   4.729   6.198   4.254
13003TIP3   OH238951   6.685   6.865   1.520
13003TIP3    H138952   6.746   6.923   1.474
13003TIP3    H238953   6.604   6.872   1.469
13004TIP3   OH238954   4.252   1.963   5.708
13004TIP3    H138955   4.174   2.003   5.669
13004TIP3    H238956   4.219   1.914   5.783
13005TIP3   OH238957   0.083   7.086   3.826
13005TIP3    H138958   0.132   7.059   3.748
13005TIP3    H238959   0.014   7.020   3.834
13006TIP3   OH238960   1.027   2.629   6.117
13006TIP3    H138961   1.013   2.534   6.121
13006TIP3    H238962   0.945   2.664   6.082
13007TIP3   OH238963   4.817   7.218   4.162
13007TIP3    H138964   4.751   7.213   4.231
13007TIP3    H238965   4.890   7.265   4.202
13008TIP3   OH238966   1.939   2.313   2.406
13008TIP3    H138967   2.027   2.282   2.424
13008TIP3    H238968   1.948   2.363   2.324
13009TIP3   OH238969   6.722   4.843   5.658
13009TIP3    H138970   6.694   4.820   5.569
13009TIP3    H238971   6.658   4.800   5.715
13010TIP3   OH238972   4.234   5.639   5.966
13010TIP3    H138973   4.296   5.602   6.029
13010TIP3    H238974   4.151   5.640   6.012
13011TIP3   OH238975   6.492   1.940   0.613
13011TIP3    H138976   6.396   1.936   0.610
13011TIP3    H238977   6.519   1.849   0.601
13012TIP3   OH238978   2.682   3.564   0.313
13012TIP3    H138979   2.653   3.539   0.225
13012TIP3    H238980   2.668   3.659   0.317
13013TIP3   OH238981   3.906   3.537   1.857
13013TIP3    H138982   3.958   3.600   1.907
13013TIP3    H238983   3.816   3.569   1.866
13014TIP3   OH238984   2.494   2.615   1.098
13014TIP3    H138985   2.527   2.567   1.174
13014TIP3    H238986   2.466   2.699   1.133
13015TIP3   OH238987   6.321   6.836   6.593
13015TIP3    H138988   6.269   6.823   6.514
13015TIP3    H238989   6.313   6.929   6.613
13016TIP3   OH238990   5.883   1.372   3.120
13016TIP3    H138991   5.873   1.451   3.172
13016TIP3    H238992   5.794   1.336   3.114
13017TIP3   OH238993   0.498   2.213   3.411
13017TIP3    H138994   0.429   2.208   3.478
13017TIP3    H238995   0.550   2.289   3.435
13018TIP3   OH238996   4.693   7.295   5.281
13018TIP3    H138997   4.734   7.212   5.306
13018TIP3    H238998   4.605   7.270   5.252
13019TIP3   OH238999   7.413   7.724   0.777
13019TIP3    H139000   7.340   7.716   0.715
13019TIP3    H239001   7.491   7.724   0.722
13020TIP3   OH239002   6.161   0.242   5.330
13020TIP3    H139003   6.176   0.317   5.388
13020TIP3    H239004   6.244   0.194   5.331
13021TIP3   OH239005   3.987   7.264   0.028
13021TIP3    H139006   4.058   7.201   0.026
13021TIP3    H239007   3.908   7.211   0.039
13022TIP3   OH239008   4.905   0.779   1.632
13022TIP3    H139009   4.937   0.858   1.677
13022TIP3    H239010   4.855   0.732   1.698
13023TIP3   OH239011   4.069   7.193   1.340
13023TIP3    H139012   4.101   7.270   1.387
13023TIP3    H239013   3.988   7.170   1.385
13024TIP3   OH239014   6.837   1.079   2.340
13024TIP3    H139015   6.927   1.061   2.369
13024TIP3    H239016   6.820   1.010   2.275
13025TIP3   OH239017   3.847   5.870   2.691
13025TIP3    H139018   3.933   5.898   2.660
13025TIP3    H239019   3.859   5.856   2.785
13026TIP3   OH239020   4.318   1.726   1.765
13026TIP3    H139021   4.245   1.788   1.775
13026TIP3    H239022   4.337   1.696   1.854
13027TIP3   OH239023   7.105   4.539   6.533
13027TIP3    H139024   7.158   4.608   6.491
13027TIP3    H239025   7.150   4.458   6.511
13028TIP3   OH239026   2.981   5.852   1.134
13028TIP3    H139027   2.960   5.762   1.156
13028TIP3    H239028   2.983   5.898   1.218
13029TIP3   OH239029   4.257   4.668   3.587
13029TIP3    H139030   4.321   4.618   3.538
13029TIP3    H239031   4.271   4.642   3.678
13030TIP3   OH239032   2.587   3.713   5.138
13030TIP3    H139033   2.652   3.784   5.132
13030TIP3    H239034   2.588   3.672   5.052
13031TIP3   OH239035   1.617   2.902   2.863
13031TIP3    H139036   1.524   2.921   2.875
13031TIP3    H239037   1.641   2.949   2.783
13032TIP3   OH239038   3.756   4.739   5.863
13032TIP3    H139039   3.812   4.696   5.927
13032TIP3    H239040   3.727   4.819   5.906
13033TIP3   OH239041   7.234   4.070   4.441
13033TIP3    H139042   7.254   3.991   4.490
13033TIP3    H239043   7.257   4.049   4.350
13034TIP3   OH239044   8.018   5.759   1.219
13034TIP3    H139045   8.003   5.666   1.237
13034TIP3    H239046   8.110   5.765   1.196
13035TIP3   OH239047   2.621   2.824   1.311
13035TIP3    H139048   2.530   2.835   1.283
13035TIP3    H239049   2.633   2.729   1.315
13036TIP3   OH239050   0.785   7.402   3.742
13036TIP3    H139051   0.704   7.416   3.694
13036TIP3    H239052   0.806   7.310   3.727
13037TIP3   OH239053   3.218   0.669   5.776
13037TIP3    H139054   3.178   0.587   5.750
13037TIP3    H239055   3.170   0.696   5.855
13038TIP3   OH239056   7.477   3.040   2.208
13038TIP3    H139057   7.403   2.993   2.246
13038TIP3    H239058   7.514   3.089   2.281
13039TIP3   OH239059   6.936   4.764   5.144
13039TIP3    H139060   7.015   4.797   5.101
13039TIP3    H239061   6.895   4.842   5.182
13040TIP3   OH239062   2.501   1.130   3.560
13040TIP3    H139063   2.573   1.069   3.541
13040TIP3    H239064   2.541   1.217   3.555
13041TIP3   OH239065   5.662   1.708   5.304
13041TIP3    H139066   5.732   1.690   5.241
13041TIP3    H239067   5.639   1.800   5.289
13042TIP3   OH239068   4.424   4.589   0.107
13042TIP3    H139069   4.449   4.671   0.148
13042TIP3    H239070   4.481   4.582   0.031
13043TIP3   OH239071   0.016   5.601   2.742
13043TIP3    H139072   0.104   5.588   2.777
13043TIP3    H239073  -0.034   5.636   2.815
13044TIP3   OH239074   7.477   1.964   4.045
13044TIP3    H139075   7.488   1.880   3.999
13044TIP3    H239076   7.511   2.029   3.985
13045TIP3   OH239077   1.985   2.362   3.739
13045TIP3    H139078   2.059   2.399   3.787
13045TIP3    H239079   1.919   2.431   3.739
13046TIP3   OH239080   5.036   6.813   0.357
13046TIP3    H139081   5.068   6.896   0.391
13046TIP3    H239082   5.066   6.811   0.266
13047TIP3   OH239083   2.162   4.313   1.762
13047TIP3    H139084   2.097   4.330   1.831
13047TIP3    H239085   2.133   4.231   1.722
13048TIP3   OH239086   4.412   3.272   4.969
13048TIP3    H139087   4.415   3.333   5.042
13048TIP3    H239088   4.490   3.219   4.979
13049TIP3   OH239089   3.534   3.390   4.535
13049TIP3    H139090   3.565   3.426   4.452
13049TIP3    H239091   3.598   3.419   4.599
13050TIP3   OH239092   7.438   4.419   0.587
13050TIP3    H139093   7.438   4.478   0.662
13050TIP3    H239094   7.406   4.336   0.621
13051TIP3   OH239095   5.133   7.795   4.092
13051TIP3    H139096   5.192   7.867   4.070
13051TIP3    H239097   5.127   7.744   4.012
13052TIP3   OH239098   7.759   7.461   0.056
13052TIP3    H139099   7.741   7.523   0.127
13052TIP3    H239100   7.850   7.480   0.031
13053TIP3   OH239101   3.798   0.902   4.232
13053TIP3    H139102   3.891   0.878   4.239
13053TIP3    H239103   3.774   0.934   4.319
13054TIP3   OH239104   2.371   0.384   5.603
13054TIP3    H139105   2.377   0.289   5.589
13054TIP3    H239106   2.290   0.410   5.560
13055TIP3   OH239107   8.172   0.763   3.838
13055TIP3    H139108   8.184   0.679   3.884
13055TIP3    H239109   8.119   0.740   3.762
13056TIP3   OH239110   6.080   5.509   5.740
13056TIP3    H139111   6.035   5.472   5.664
13056TIP3    H239112   6.010   5.542   5.796
13057TIP3   OH239113   1.071   5.633   1.645
13057TIP3    H139114   1.024   5.716   1.644
13057TIP3    H239115   1.086   5.612   1.553
13058TIP3   OH239116   0.430   3.913   4.990
13058TIP3    H139117   0.345   3.928   4.948
13058TIP3    H239118   0.494   3.920   4.919
13059TIP3   OH239119   1.599   3.041   0.851
13059TIP3    H139120   1.552   2.960   0.869
13059TIP3    H239121   1.544   3.109   0.892
13060TIP3   OH239122   3.316   3.747   1.777
13060TIP3    H139123   3.265   3.715   1.703
13060TIP3    H239124   3.255   3.802   1.826
13061TIP3   OH239125   5.049   4.968   6.747
13061TIP3    H139126   5.042   4.950   6.653
13061TIP3    H239127   4.962   4.946   6.781
13062TIP3   OH239128   5.992   6.998   6.389
13062TIP3    H139129   6.045   7.014   6.467
13062TIP3    H239130   6.042   6.935   6.338
13063TIP3   OH239131   7.339   7.329   6.004
13063TIP3    H139132   7.295   7.374   5.932
13063TIP3    H239133   7.429   7.362   6.002
13064TIP3   OH239134   5.607   3.805   2.741
13064TIP3    H139135   5.592   3.711   2.739
13064TIP3    H239136   5.660   3.820   2.820
13065TIP3   OH239137   7.024   4.053   0.033
13065TIP3    H139138   6.934   4.064   0.065
13065TIP3    H239139   7.017   3.986  -0.035
13066TIP3   OH239140   8.269   5.086   4.560
13066TIP3    H139141   8.186   5.100   4.516
13066TIP3    H239142   8.335   5.096   4.491
13067TIP3   OH239143   6.221   3.610   6.708
13067TIP3    H139144   6.250   3.699   6.729
13067TIP3    H239145   6.139   3.622   6.660
13068TIP3   OH239146   2.674   5.813   1.713
13068TIP3    H139147   2.701   5.902   1.689
13068TIP3    H239148   2.727   5.757   1.656
13069TIP3   OH239149   8.146   5.148   6.094
13069TIP3    H139150   8.216   5.206   6.123
13069TIP3    H239151   8.114   5.186   6.013
13070TIP3   OH239152   7.434   5.537   5.292
13070TIP3    H139153   7.493   5.490   5.233
13070TIP3    H239154   7.348   5.497   5.277
13071TIP3   OH239155   3.298   4.148   0.787
13071TIP3    H139156   3.297   4.165   0.881
13071TIP3    H239157   3.356   4.073   0.776
13072TIP3   OH239158   2.950   2.231   0.605
13072TIP3    H139159   3.031   2.281   0.608
13072TIP3    H239160   2.886   2.290   0.567
13073TIP3   OH239161   2.961   2.956   3.151
13073TIP3    H139162   2.892   2.921   3.208
13073TIP3    H239163   3.003   3.025   3.202
13074TIP3   OH239164   5.219   3.634   4.084
13074TIP3    H139165   5.225   3.627   3.989
13074TIP3    H239166   5.301   3.596   4.116
13075TIP3   OH239167   6.880   3.489   3.073
13075TIP3    H139168   6.973   3.477   3.050
13075TIP3    H239169   6.840   3.403   3.057
13076TIP3   OH239170   0.496   7.800   2.237
13076TIP3    H139171   0.453   7.783   2.154
13076TIP3    H239172   0.428   7.836   2.293
13077TIP3   OH239173   5.902   4.613   4.891
13077TIP3    H139174   5.962   4.687   4.898
13077TIP3    H239175   5.957   4.542   4.858
13078TIP3   OH239176   2.051   6.017   1.558
13078TIP3    H139177   2.110   5.956   1.514
13078TIP3    H239178   2.053   5.991   1.650
13079TIP3   OH239179   6.966   0.432   3.578
13079TIP3    H139180   6.918   0.511   3.604
13079TIP3    H239181   7.039   0.427   3.639
13080TIP3   OH239182   1.482   3.372   1.455
13080TIP3    H139183   1.568   3.409   1.473
13080TIP3    H239184   1.500   3.295   1.401
13081TIP3   OH239185   1.038   4.424   0.668
13081TIP3    H139186   1.085   4.433   0.585
13081TIP3    H239187   1.026   4.329   0.679
13082TIP3   OH239188   6.077   0.201   2.089
13082TIP3    H139189   6.147   0.188   2.153
13082TIP3    H239190   6.120   0.243   2.015
13083TIP3   OH239191   4.461   3.978   1.812
13083TIP3    H139192   4.521   4.052   1.820
13083TIP3    H239193   4.507   3.905   1.854
13084TIP3   OH239194   7.565   4.676   6.736
13084TIP3    H139195   7.561   4.738   6.808
13084TIP3    H239196   7.475   4.649   6.721
13085TIP3   OH239197   2.898   3.861   1.791
13085TIP3    H139198   2.861   3.890   1.875
13085TIP3    H239199   2.839   3.899   1.725
13086TIP3   OH239200   1.643   2.535   6.247
13086TIP3    H139201   1.624   2.450   6.289
13086TIP3    H239202   1.729   2.523   6.208
13087TIP3   OH239203   6.828   1.983   5.573
13087TIP3    H139204   6.805   2.061   5.624
13087TIP3    H239205   6.886   1.933   5.630
13088TIP3   OH239206   4.714   0.206   0.620
13088TIP3    H139207   4.677   0.254   0.546
13088TIP3    H239208   4.808   0.198   0.599
13089TIP3   OH239209   4.737   1.887   6.755
13089TIP3    H139210   4.764   1.921   6.840
13089TIP3    H239211   4.759   1.956   6.693
13090TIP3   OH239212   8.029   3.101   2.589
13090TIP3    H139213   7.987   3.168   2.643
13090TIP3    H239214   8.060   3.148   2.512
13091TIP3   OH239215   5.846   1.582   3.294
13091TIP3    H139216   5.830   1.673   3.267
13091TIP3    H239217   5.809   1.577   3.382
13092TIP3   OH239218   5.547   7.457   4.705
13092TIP3    H139219   5.511   7.480   4.790
13092TIP3    H239220   5.636   7.492   4.706
13093TIP3   OH239221   5.553   6.903   2.646
13093TIP3    H139222   5.499   6.831   2.613
13093TIP3    H239223   5.584   6.871   2.731
13094TIP3   OH239224   4.777   7.459   2.623
13094TIP3    H139225   4.846   7.421   2.677
13094TIP3    H239226   4.711   7.489   2.685
13095TIP3   OH239227   7.631   3.118   4.054
13095TIP3    H139228   7.652   3.180   4.123
13095TIP3    H239229   7.587   3.045   4.099
13096TIP3   OH239230   4.009   6.403   3.554
13096TIP3    H139231   3.941   6.412   3.621
13096TIP3    H239232   4.087   6.376   3.602
13097TIP3   OH239233   0.473   1.585   3.115
13097TIP3    H139234   0.558   1.548   3.092
13097TIP3    H239235   0.436   1.615   3.032
13098TIP3   OH239236   7.451   5.578   2.402
13098TIP3    H139237   7.477   5.593   2.311
13098TIP3    H239238   7.362   5.613   2.407
13099TIP3   OH239239   5.527   0.576   0.625
13099TIP3    H139240   5.498   0.630   0.551
13099TIP3    H239241   5.446   0.536   0.658
13100TIP3   OH239242   1.311   2.363   5.144
13100TIP3    H139243   1.386   2.419   5.161
13100TIP3    H239244   1.247   2.420   5.101
13101TIP3   OH239245   4.467   0.306   5.543
13101TIP3    H139246   4.434   0.270   5.460
13101TIP3    H239247   4.560   0.287   5.543
13102TIP3   OH239248   3.631   2.492   1.890
13102TIP3    H139249   3.618   2.579   1.928
13102TIP3    H239250   3.688   2.507   1.815
13103TIP3   OH239251   7.093   3.847   1.784
13103TIP3    H139252   7.086   3.781   1.854
13103TIP3    H239253   7.187   3.852   1.766
13104TIP3   OH239254   1.848   5.809   2.877
13104TIP3    H139255   1.791   5.801   2.800
13104TIP3    H239256   1.834   5.899   2.907
13105TIP3   OH239257   3.694   7.339   0.760
13105TIP3    H139258   3.608   7.360   0.724
13105TIP3    H239259   3.682   7.345   0.855
13106TIP3   OH239260   3.582   0.752   4.673
13106TIP3    H139261   3.624   0.789   4.752
13106TIP3    H239262   3.649   0.760   4.605
13107TIP3   OH239263   0.930   6.573   4.517
13107TIP3    H139264   0.849   6.622   4.500
13107TIP3    H239265   0.999   6.638   4.510
13108TIP3   OH239266   0.375   6.520   5.942
13108TIP3    H139267   0.401   6.597   5.993
13108TIP3    H239268   0.293   6.491   5.982
13109TIP3   OH239269   4.290   2.310   2.601
13109TIP3    H139270   4.369   2.313   2.655
13109TIP3    H239271   4.290   2.223   2.562
13110TIP3   OH239272   0.655   0.184   2.143
13110TIP3    H139273   0.653   0.089   2.129
13110TIP3    H239274   0.588   0.218   2.085
13111TIP3   OH239275   0.809   0.076   2.581
13111TIP3    H139276   0.806   0.117   2.667
13111TIP3    H239277   0.900   0.051   2.569
13112TIP3   OH239278   2.235   6.117   4.324
13112TIP3    H139279   2.313   6.108   4.270
13112TIP3    H239280   2.167   6.069   4.276
13113TIP3   OH239281   1.589   2.099   1.780
13113TIP3    H139282   1.646   2.163   1.737
13113TIP3    H239283   1.505   2.143   1.789
13114TIP3   OH239284   2.065   3.108   5.727
13114TIP3    H139285   1.974   3.119   5.700
13114TIP3    H239286   2.087   3.019   5.700
13115TIP3   OH239287   3.049   3.770   6.713
13115TIP3    H139288   3.012   3.774   6.625
13115TIP3    H239289   3.105   3.848   6.719
13116TIP3   OH239290   1.138   0.796   4.798
13116TIP3    H139291   1.155   0.861   4.729
13116TIP3    H239292   1.110   0.718   4.751
13117TIP3   OH239293   5.420   2.954   2.667
13117TIP3    H139294   5.512   2.930   2.654
13117TIP3    H239295   5.373   2.871   2.669
13118TIP3   OH239296   5.273   5.241   3.426
13118TIP3    H139297   5.238   5.289   3.351
13118TIP3    H239298   5.363   5.274   3.436
13119TIP3   OH239299   6.843   4.278   3.401
13119TIP3    H139300   6.839   4.329   3.320
13119TIP3    H239301   6.776   4.316   3.457
13120TIP3   OH239302   0.832   2.897   1.409
13120TIP3    H139303   0.827   2.803   1.396
13120TIP3    H239304   0.770   2.916   1.479
13121TIP3   OH239305   2.694   2.837   5.111
13121TIP3    H139306   2.655   2.751   5.128
13121TIP3    H239307   2.788   2.820   5.103
13122TIP3   OH239308   1.390   2.657   2.348
13122TIP3    H139309   1.425   2.715   2.414
13122TIP3    H239310   1.302   2.690   2.330
13123TIP3   OH239311   7.012   6.264   5.182
13123TIP3    H139312   7.034   6.172   5.199
13123TIP3    H239313   7.085   6.313   5.221
13124TIP3   OH239314   5.804   5.636   0.902
13124TIP3    H139315   5.736   5.696   0.931
13124TIP3    H239316   5.770   5.548   0.921
13125TIP3   OH239317   3.732   6.041   5.714
13125TIP3    H139318   3.738   6.034   5.619
13125TIP3    H239319   3.719   6.134   5.731
13126TIP3   OH239320   5.526   2.325   2.810
13126TIP3    H139321   5.517   2.240   2.852
13126TIP3    H239322   5.614   2.324   2.772
13127TIP3   OH239323   0.987   4.860   2.798
13127TIP3    H139324   0.998   4.849   2.893
13127TIP3    H239325   0.942   4.779   2.770
13128TIP3   OH239326   6.492   0.123   0.031
13128TIP3    H139327   6.419   0.183   0.021
13128TIP3    H239328   6.569   0.176   0.010
13129TIP3   OH239329   1.208   6.976   3.245
13129TIP3    H139330   1.170   6.971   3.333
13129TIP3    H239331   1.133   6.966   3.186
13130TIP3   OH239332   6.862   3.308   2.061
13130TIP3    H139333   6.953   3.331   2.042
13130TIP3    H239334   6.850   3.330   2.153
13131TIP3   OH239335   2.194   7.790   2.689
13131TIP3    H139336   2.136   7.824   2.621
13131TIP3    H239337   2.276   7.836   2.676
13132TIP3   OH239338   5.313   5.455   4.350
13132TIP3    H139339   5.272   5.407   4.278
13132TIP3    H239340   5.407   5.446   4.333
13133TIP3   OH239341   1.648   2.834   4.294
13133TIP3    H139342   1.738   2.802   4.294
13133TIP3    H239343   1.610   2.798   4.374
13134TIP3   OH239344   0.842   1.290   1.331
13134TIP3    H139345   0.886   1.358   1.280
13134TIP3    H239346   0.833   1.216   1.270
13135TIP3   OH239347   0.924   3.516   1.865
13135TIP3    H139348   0.907   3.500   1.958
13135TIP3    H239349   0.843   3.555   1.832
13136TIP3   OH239350   2.235   5.081   5.009
13136TIP3    H139351   2.251   5.120   5.095
13136TIP3    H239352   2.166   5.134   4.971
13137TIP3   OH239353   0.498   5.951   2.390
13137TIP3    H139354   0.434   5.883   2.412
13137TIP3    H239355   0.577   5.902   2.366
13138TIP3   OH239356   2.421   6.097   2.644
13138TIP3    H139357   2.371   6.031   2.693
13138TIP3    H239358   2.411   6.071   2.552
13139TIP3   OH239359   1.542   1.322   5.338
13139TIP3    H139360   1.470   1.260   5.338
13139TIP3    H239361   1.597   1.295   5.264
13140TIP3   OH239362   4.320   5.563   4.652
13140TIP3    H139363   4.237   5.609   4.645
13140TIP3    H239364   4.386   5.631   4.641
13141TIP3   OH239365   2.844   5.209   2.463
13141TIP3    H139366   2.864   5.256   2.382
13141TIP3    H239367   2.924   5.160   2.483
13142TIP3   OH239368   8.095   4.570   0.916
13142TIP3    H139369   8.166   4.530   0.966
13142TIP3    H239370   8.028   4.502   0.911
13143TIP3   OH239371   5.134   5.126   2.408
13143TIP3    H139372   5.126   5.048   2.463
13143TIP3    H239373   5.044   5.150   2.388
13144TIP3   OH239374   0.357   4.778   5.103
13144TIP3    H139375   0.367   4.683   5.105
13144TIP3    H239376   0.446   4.812   5.108
13145TIP3   OH239377   1.836   6.729   4.527
13145TIP3    H139378   1.859   6.676   4.604
13145TIP3    H239379   1.807   6.665   4.462
13146TIP3   OH239380   0.054   4.676  -0.010
13146TIP3    H139381   0.024   4.602   0.043
13146TIP3    H239382   0.136   4.645  -0.049
13147TIP3   OH239383   7.211   0.613   3.031
13147TIP3    H139384   7.172   0.556   3.098
13147TIP3    H239385   7.138   0.635   2.973
13148TIP3   OH239386   3.101   5.753   1.548
13148TIP3    H139387   3.173   5.738   1.487
13148TIP3    H239388   3.143   5.777   1.630
13149TIP3   OH239389   5.380   0.883   3.350
13149TIP3    H139390   5.340   0.945   3.410
13149TIP3    H239391   5.313   0.816   3.336
13150TIP3   OH239392   1.459   4.268   2.998
13150TIP3    H139393   1.430   4.311   3.078
13150TIP3    H239394   1.383   4.218   2.969
13151TIP3   OH239395   3.154   1.023   3.645
13151TIP3    H139396   3.082   0.961   3.633
13151TIP3    H239397   3.187   1.005   3.733
13152TIP3   OH239398   0.664   4.993   2.762
13152TIP3    H139399   0.714   5.075   2.765
13152TIP3    H239400   0.580   5.018   2.725
13153TIP3   OH239401   2.467   3.400   0.316
13153TIP3    H139402   2.416   3.481   0.325
13153TIP3    H239403   2.554   3.423   0.347
13154TIP3   OH239404   6.330   7.684   1.155
13154TIP3    H139405   6.416   7.654   1.183
13154TIP3    H239406   6.346   7.767   1.111
13155TIP3   OH239407   3.356   0.526   1.340
13155TIP3    H139408   3.392   0.561   1.421
13155TIP3    H239409   3.375   0.593   1.274
13156TIP3   OH239410   7.808   2.340   4.801
13156TIP3    H139411   7.847   2.332   4.714
13156TIP3    H239412   7.733   2.398   4.788
13157TIP3   OH239413   0.607   4.739   0.048
13157TIP3    H139414   0.571   4.657   0.080
13157TIP3    H239415   0.540   4.775  -0.010
13158TIP3   OH239416   6.416   1.149   4.864
13158TIP3    H139417   6.494   1.204   4.855
13158TIP3    H239418   6.397   1.121   4.774
13159TIP3   OH239419   4.398   6.234   0.219
13159TIP3    H139420   4.433   6.286   0.147
13159TIP3    H239421   4.475   6.197   0.262
13160TIP3   OH239422   5.457   0.836   0.518
13160TIP3    H139423   5.385   0.820   0.457
13160TIP3    H239424   5.528   0.869   0.463
13161TIP3   OH239425   0.811   3.325   6.589
13161TIP3    H139426   0.731   3.317   6.641
13161TIP3    H239427   0.881   3.306   6.650
13162TIP3   OH239428   3.324   7.681   3.509
13162TIP3    H139429   3.356   7.662   3.421
13162TIP3    H239430   3.232   7.656   3.508
13163TIP3   OH239431   0.229   4.893   2.471
13163TIP3    H139432   0.140   4.876   2.440
13163TIP3    H239433   0.229   4.862   2.561
13164TIP3   OH239434   3.560   4.355   0.910
13164TIP3    H139435   3.509   4.280   0.941
13164TIP3    H239436   3.607   4.386   0.988
13165TIP3   OH239437   5.700   1.756   4.275
13165TIP3    H139438   5.640   1.813   4.225
13165TIP3    H239439   5.708   1.677   4.221
13166TIP3   OH239440   6.783   3.179   1.090
13166TIP3    H139441   6.730   3.101   1.076
13166TIP3    H239442   6.769   3.202   1.182
13167TIP3   OH239443   7.289   7.788   5.577
13167TIP3    H139444   7.273   7.738   5.497
13167TIP3    H239445   7.363   7.844   5.555
13168TIP3   OH239446   5.825   0.128   4.032
13168TIP3    H139447   5.809   0.103   3.941
13168TIP3    H239448   5.846   0.222   4.027
13169TIP3   OH239449   1.847   7.035   6.336
13169TIP3    H139450   1.811   7.075   6.257
13169TIP3    H239451   1.854   6.942   6.314
13170TIP3   OH239452   5.583   6.702   2.320
13170TIP3    H139453   5.622   6.775   2.273
13170TIP3    H239454   5.524   6.660   2.257
13171TIP3   OH239455   0.056   4.480   0.798
13171TIP3    H139456   0.009   4.502   0.879
13171TIP3    H239457   0.116   4.553   0.785
13172TIP3   OH239458   0.542   6.152   5.197
13172TIP3    H139459   0.540   6.150   5.293
13172TIP3    H239460   0.581   6.237   5.176
13173TIP3   OH239461   7.449   5.253   1.380
13173TIP3    H139462   7.437   5.207   1.297
13173TIP3    H239463   7.362   5.286   1.402
13174TIP3   OH239464   5.832   3.391   3.826
13174TIP3    H139465   5.807   3.317   3.881
13174TIP3    H239466   5.827   3.467   3.883
13175TIP3   OH239467   4.559   5.691   2.173
13175TIP3    H139468   4.635   5.737   2.208
13175TIP3    H239469   4.576   5.685   2.079
13176TIP3   OH239470   7.284   5.440   5.022
13176TIP3    H139471   7.373   5.473   5.010
13176TIP3    H239472   7.249   5.431   4.933
13177TIP3   OH239473   6.974   0.747   0.205
13177TIP3    H139474   6.994   0.835   0.175
13177TIP3    H239475   7.058   0.702   0.204
13178TIP3   OH239476   4.637   4.341   1.488
13178TIP3    H139477   4.633   4.432   1.458
13178TIP3    H239478   4.568   4.297   1.438
13179TIP3   OH239479   0.829   6.641   5.773
13179TIP3    H139480   0.878   6.723   5.781
13179TIP3    H239481   0.775   6.638   5.852
13180TIP3   OH239482   5.853   4.740   4.156
13180TIP3    H139483   5.797   4.802   4.203
13180TIP3    H239484   5.892   4.791   4.085
13181TIP3   OH239485   2.512   0.705   4.712
13181TIP3    H139486   2.603   0.708   4.680
13181TIP3    H239487   2.471   0.782   4.675
13182TIP3   OH239488   6.678   5.687   1.808
13182TIP3    H139489   6.641   5.761   1.856
13182TIP3    H239490   6.668   5.710   1.716
13183TIP3   OH239491   4.097   2.274   2.382
13183TIP3    H139492   4.079   2.184   2.409
13183TIP3    H239493   4.166   2.303   2.443
13184TIP3   OH239494   4.600   7.617   0.354
13184TIP3    H139495   4.692   7.593   0.344
13184TIP3    H239496   4.552   7.537   0.332
13185TIP3   OH239497   7.110   7.399   5.847
13185TIP3    H139498   7.174   7.417   5.779
13185TIP3    H239499   7.074   7.313   5.824
13186TIP3   OH239500   8.195   5.225   0.870
13186TIP3    H139501   8.204   5.131   0.884
13186TIP3    H239502   8.277   5.251   0.828
13187TIP3   OH239503   3.811   1.439   4.014
13187TIP3    H139504   3.890   1.431   3.961
13187TIP3    H239505   3.790   1.349   4.040
13188TIP3   OH239506   0.674   7.673   3.625
13188TIP3    H139507   0.604   7.645   3.684
13188TIP3    H239508   0.639   7.751   3.581
13189TIP3   OH239509   5.065   0.156   4.497
13189TIP3    H139510   4.999   0.098   4.535
13189TIP3    H239511   5.146   0.105   4.501
13190TIP3   OH239512   1.357   3.167   4.812
13190TIP3    H139513   1.343   3.090   4.866
13190TIP3    H239514   1.269   3.194   4.786
13191TIP3   OH239515   6.202   7.845   0.151
13191TIP3    H139516   6.243   7.762   0.178
13191TIP3    H239517   6.157   7.875   0.230
13192TIP3   OH239518   0.142   5.894   4.176
13192TIP3    H139519   0.203   5.856   4.238
13192TIP3    H239520   0.094   5.819   4.141
13193TIP3   OH239521   4.455   2.824   2.962
13193TIP3    H139522   4.500   2.764   2.902
13193TIP3    H239523   4.388   2.770   3.004
13194TIP3   OH239524   7.853   6.905   4.222
13194TIP3    H139525   7.883   6.979   4.275
13194TIP3    H239526   7.907   6.831   4.250
13195TIP3   OH239527   7.878   0.995   1.273
13195TIP3    H139528   7.794   1.015   1.232
13195TIP3    H239529   7.907   1.078   1.311
13196TIP3   OH239530   8.216   6.518   2.306
13196TIP3    H139531   8.205   6.601   2.261
13196TIP3    H239532   8.270   6.465   2.247
13197TIP3   OH239533   2.093   6.473   3.242
13197TIP3    H139534   2.084   6.417   3.165
13197TIP3    H239535   2.088   6.413   3.317
13198TIP3   OH239536   6.451   7.311   4.508
13198TIP3    H139537   6.520   7.366   4.472
13198TIP3    H239538   6.376   7.370   4.519
13199TIP3   OH239539   0.382   3.176   1.132
13199TIP3    H139540   0.365   3.135   1.217
13199TIP3    H239541   0.356   3.110   1.068
13200TIP3   OH239542   6.582   0.703   6.309
13200TIP3    H139543   6.496   0.661   6.306
13200TIP3    H239544   6.562   0.797   6.314
13201TIP3   OH239545   5.166   1.206   4.727
13201TIP3    H139546   5.111   1.216   4.649
13201TIP3    H239547   5.253   1.185   4.693
13202TIP3   OH239548   7.703   5.164   0.316
13202TIP3    H139549   7.711   5.104   0.242
13202TIP3    H239550   7.720   5.110   0.393
13203TIP3   OH239551   6.721   3.400   5.648
13203TIP3    H139552   6.799   3.435   5.691
13203TIP3    H239553   6.713   3.451   5.567
13204TIP3   OH239554   8.291   2.792   4.366
13204TIP3    H139555   8.310   2.699   4.351
13204TIP3    H239556   8.197   2.800   4.355
13205TIP3   OH239557   2.205   5.324   2.865
13205TIP3    H139558   2.185   5.257   2.930
13205TIP3    H239559   2.174   5.287   2.782
13206TIP3   OH239560   1.657   2.784   1.771
13206TIP3    H139561   1.672   2.775   1.865
13206TIP3    H239562   1.670   2.696   1.736
13207TIP3   OH239563   3.702   2.786   3.982
13207TIP3    H139564   3.635   2.749   3.924
13207TIP3    H239565   3.653   2.848   4.037
13208TIP3   OH239566   3.591   1.985   4.121
13208TIP3    H139567   3.555   2.054   4.177
13208TIP3    H239568   3.662   1.947   4.173
13209TIP3   OH239569   7.880   5.134   6.774
13209TIP3    H139570   7.868   5.228   6.760
13209TIP3    H239571   7.796   5.096   6.751
13210TIP3   OH239572   3.797   5.441   0.601
13210TIP3    H139573   3.884   5.418   0.636
13210TIP3    H239574   3.785   5.533   0.625
13211TIP3   OH239575   1.470   7.611   1.767
13211TIP3    H139576   1.480   7.547   1.837
13211TIP3    H239577   1.382   7.595   1.733
13212TIP3   OH239578   0.057   7.337   0.731
13212TIP3    H139579   0.117   7.369   0.664
13212TIP3    H239580  -0.007   7.284   0.683
13213TIP3   OH239581   3.433   2.264   0.786
13213TIP3    H139582   3.500   2.196   0.785
13213TIP3    H239583   3.405   2.268   0.878
13214TIP3   OH239584   3.063   6.388   1.409
13214TIP3    H139585   3.090   6.403   1.318
13214TIP3    H239586   3.027   6.472   1.437
13215TIP3   OH239587   7.807   5.104   5.844
13215TIP3    H139588   7.773   5.132   5.929
13215TIP3    H239589   7.885   5.158   5.830
13216TIP3   OH239590   4.008   3.066   4.011
13216TIP3    H139591   4.096   3.095   3.987
13216TIP3    H239592   3.986   3.000   3.945
13217TIP3   OH239593   3.375   0.345   4.005
13217TIP3    H139594   3.417   0.309   4.083
13217TIP3    H239595   3.439   0.406   3.969
13218TIP3   OH239596   6.054   2.454   2.734
13218TIP3    H139597   6.086   2.369   2.705
13218TIP3    H239598   6.094   2.466   2.820
13219TIP3   OH239599   6.472   3.719   0.745
13219TIP3    H139600   6.448   3.695   0.655
13219TIP3    H239601   6.519   3.643   0.779
13220TIP3   OH239602   3.284   1.640   0.900
13220TIP3    H139603   3.330   1.598   0.972
13220TIP3    H239604   3.193   1.613   0.911
13221TIP3   OH239605   0.113   3.671   1.078
13221TIP3    H139606   0.132   3.656   0.986
13221TIP3    H239607   0.107   3.766   1.086
13222TIP3   OH239608   4.469   6.169   2.981
13222TIP3    H139609   4.502   6.259   2.989
13222TIP3    H239610   4.527   6.117   3.037
13223TIP3   OH239611   1.777   0.351   5.431
13223TIP3    H139612   1.728   0.424   5.468
13223TIP3    H239613   1.819   0.387   5.353
13224TIP3   OH239614   0.853   6.378   5.466
13224TIP3    H139615   0.763   6.401   5.487
13224TIP3    H239616   0.851   6.284   5.452
13225TIP3   OH239617   3.799   2.796   1.155
13225TIP3    H139618   3.724   2.830   1.106
13225TIP3    H239619   3.767   2.714   1.193
13226TIP3   OH239620   3.194   6.146   3.663
13226TIP3    H139621   3.268   6.165   3.606
13226TIP3    H239622   3.119   6.187   3.619
13227TIP3   OH239623   0.462   5.378   2.280
13227TIP3    H139624   0.533   5.329   2.238
13227TIP3    H239625   0.457   5.460   2.231
13228TIP3   OH239626   2.966   0.238   0.283
13228TIP3    H139627   2.928   0.161   0.326
13228TIP3    H239628   3.052   0.209   0.253
13229TIP3   OH239629   6.469   0.862   0.049
13229TIP3    H139630   6.384   0.832   0.080
13229TIP3    H239631   6.513   0.781   0.021
13230TIP3   OH239632   5.678   5.132   2.769
13230TIP3    H139633   5.713   5.137   2.680
13230TIP3    H239634   5.586   5.154   2.759
13231TIP3   OH239635   3.613   0.015   3.731
13231TIP3    H139636   3.651   0.061   3.656
13231TIP3    H239637   3.570  -0.061   3.693
13232TIP3   OH239638   7.447   6.812   6.656
13232TIP3    H139639   7.493   6.885   6.698
13232TIP3    H239640   7.414   6.848   6.574
13233TIP3   OH239641   4.119   4.661   5.926
13233TIP3    H139642   4.049   4.687   5.986
13233TIP3    H239643   4.189   4.724   5.941
13234TIP3   OH239644   1.783   4.666   4.491
13234TIP3    H139645   1.865   4.716   4.489
13234TIP3    H239646   1.718   4.729   4.523
13235TIP3   OH239647   6.365   0.623   6.052
13235TIP3    H139648   6.387   0.573   5.973
13235TIP3    H239649   6.289   0.578   6.089
13236TIP3   OH239650   6.028   7.770   2.409
13236TIP3    H139651   6.016   7.715   2.331
13236TIP3    H239652   6.098   7.727   2.458
13237TIP3   OH239653   2.747   4.253   5.963
13237TIP3    H139654   2.733   4.234   5.870
13237TIP3    H239655   2.841   4.241   5.976
13238TIP3   OH239656   0.018   5.242   4.806
13238TIP3    H139657   0.001   5.149   4.820
13238TIP3    H239658  -0.029   5.263   4.725
13239TIP3   OH239659   4.766   0.213   3.687
13239TIP3    H139660   4.799   0.216   3.597
13239TIP3    H239661   4.675   0.242   3.679
13240TIP3   OH239662   8.178   7.628   3.154
13240TIP3    H139663   8.233   7.584   3.089
13240TIP3    H239664   8.224   7.710   3.172
13241TIP3   OH239665   2.787   0.897   2.505
13241TIP3    H139666   2.746   0.925   2.587
13241TIP3    H239667   2.819   0.809   2.523
13242TIP3   OH239668   8.085   2.815   0.108
13242TIP3    H139669   8.106   2.837   0.199
13242TIP3    H239670   8.125   2.886   0.057
13243TIP3   OH239671   6.792   7.221   3.491
13243TIP3    H139672   6.704   7.250   3.515
13243TIP3    H239673   6.788   7.206   3.397
13244TIP3   OH239674   1.276   7.292   2.750
13244TIP3    H139675   1.291   7.377   2.708
13244TIP3    H239676   1.364   7.257   2.763
13245TIP3   OH239677   2.042   7.421   3.996
13245TIP3    H139678   2.039   7.327   4.012
13245TIP3    H239679   1.950   7.449   3.999
13246TIP3   OH239680   0.667   0.260   2.415
13246TIP3    H139681   0.681   0.174   2.455
13246TIP3    H239682   0.681   0.245   2.321
13247TIP3   OH239683   1.778   6.220   2.643
13247TIP3    H139684   1.775   6.226   2.548
13247TIP3    H239685   1.826   6.298   2.671
13248TIP3   OH239686   0.336   3.956   0.813
13248TIP3    H139687   0.411   3.901   0.792
13248TIP3    H239688   0.371   4.045   0.817
13249TIP3   OH239689   7.299   6.013   5.455
13249TIP3    H139690   7.323   5.942   5.514
13249TIP3    H239691   7.371   6.075   5.462
13250TIP3   OH239692   4.231   0.506   6.075
13250TIP3    H139693   4.231   0.602   6.072
13250TIP3    H239694   4.154   0.484   6.127
13251TIP3   OH239695   6.484   5.529   3.667
13251TIP3    H139696   6.464   5.620   3.646
13251TIP3    H239697   6.480   5.525   3.762
13252TIP3   OH239698   7.172   1.036   3.658
13252TIP3    H139699   7.112   1.106   3.682
13252TIP3    H239700   7.199   1.057   3.569
13253TIP3   OH239701   3.105   5.740   4.319
13253TIP3    H139702   3.061   5.714   4.238
13253TIP3    H239703   3.164   5.666   4.338
13254TIP3   OH239704   5.571   4.718   3.707
13254TIP3    H139705   5.491   4.769   3.694
13254TIP3    H239706   5.541   4.629   3.725
13255TIP3   OH239707   4.754   4.986   5.081
13255TIP3    H139708   4.775   5.079   5.073
13255TIP3    H239709   4.744   4.972   5.175
13256TIP3   OH239710   0.714   1.362   1.893
13256TIP3    H139711   0.628   1.405   1.886
13256TIP3    H239712   0.733   1.361   1.987
13257TIP3   OH239713   4.934   3.900   0.435
13257TIP3    H139714   4.885   3.979   0.457
13257TIP3    H239715   4.868   3.839   0.401
13258TIP3   OH239716   0.612   0.591   5.521
13258TIP3    H139717   0.658   0.629   5.446
13258TIP3    H239718   0.536   0.647   5.534
13259TIP3   OH239719   1.602   4.212   5.797
13259TIP3    H139720   1.645   4.193   5.880
13259TIP3    H239721   1.642   4.293   5.767
13260TIP3   OH239722   2.105   3.060   4.874
13260TIP3    H139723   2.170   2.989   4.870
13260TIP3    H239724   2.130   3.110   4.952
13261TIP3   OH239725   8.037   1.690   0.039
13261TIP3    H139726   8.047   1.609   0.090
13261TIP3    H239727   8.057   1.760   0.100
13262TIP3   OH239728   1.391   5.961   5.607
13262TIP3    H139729   1.328   6.023   5.571
13262TIP3    H239730   1.441   5.931   5.531
13263TIP3   OH239731   4.919   7.229   3.917
13263TIP3    H139732   4.876   7.315   3.918
13263TIP3    H239733   4.881   7.183   3.992
13264TIP3   OH239734   6.114   2.259   1.976
13264TIP3    H139735   6.126   2.165   1.992
13264TIP3    H239736   6.194   2.286   1.932
13265TIP3   OH239737   5.039   0.987   5.447
13265TIP3    H139738   4.999   0.967   5.362
13265TIP3    H239739   5.127   1.017   5.425
13266TIP3   OH239740   0.257   6.593   2.169
13266TIP3    H139741   0.202   6.517   2.149
13266TIP3    H239742   0.196   6.664   2.186
13267TIP3   OH239743   5.805   3.419   4.900
13267TIP3    H139744   5.715   3.392   4.922
13267TIP3    H239745   5.803   3.514   4.907
13268TIP3   OH239746   5.193   1.111   1.863
13268TIP3    H139747   5.178   1.203   1.841
13268TIP3    H239748   5.172   1.105   1.956
13269TIP3   OH239749   7.677   0.390   4.911
13269TIP3    H139750   7.696   0.339   4.833
13269TIP3    H239751   7.649   0.325   4.976
13270TIP3   OH239752   6.980   0.650   2.870
13270TIP3    H139753   6.955   0.673   2.780
13270TIP3    H239754   6.936   0.566   2.886
13271TIP3   OH239755   4.001   5.698   0.838
13271TIP3    H139756   4.061   5.756   0.792
13271TIP3    H239757   3.926   5.688   0.780
13272TIP3   OH239758   0.741   6.386   3.348
13272TIP3    H139759   0.645   6.377   3.349
13272TIP3    H239760   0.773   6.295   3.346
13273TIP3   OH239761   1.395   6.133   5.949
13273TIP3    H139762   1.342   6.213   5.947
13273TIP3    H239763   1.477   6.158   5.905
13274TIP3   OH239764   0.171   2.638   6.287
13274TIP3    H139765   0.254   2.643   6.240
13274TIP3    H239766   0.195   2.620   6.378
13275TIP3   OH239767   1.817   6.547  -0.028
13275TIP3    H139768   1.820   6.468   0.027
13275TIP3    H239769   1.776   6.613   0.028
13276TIP3   OH239770   0.781   3.699   6.099
13276TIP3    H139771   0.848   3.630   6.100
13276TIP3    H239772   0.733   3.688   6.180
13277TIP3   OH239773   1.988   1.722   4.903
13277TIP3    H139774   2.037   1.795   4.938
13277TIP3    H239775   1.896   1.747   4.915
13278TIP3   OH239776   0.693   5.303   2.101
13278TIP3    H139777   0.772   5.250   2.108
13278TIP3    H239778   0.645   5.266   2.027
13279TIP3   OH239779   7.101   0.947   1.706
13279TIP3    H139780   7.136   1.035   1.724
13279TIP3    H239781   7.108   0.938   1.611
13280TIP3   OH239782   5.916   6.167   4.502
13280TIP3    H139783   5.931   6.194   4.593
13280TIP3    H239784   5.958   6.235   4.450
13281TIP3   OH239785   4.474   3.006   1.426
13281TIP3    H139786   4.468   2.917   1.391
13281TIP3    H239787   4.385   3.040   1.419
13282TIP3   OH239788   5.864   2.668   2.230
13282TIP3    H139789   5.864   2.725   2.153
13282TIP3    H239790   5.955   2.639   2.237
13283TIP3   OH239791   0.090   3.369   2.054
13283TIP3    H139792   0.127   3.361   2.142
13283TIP3    H239793   0.026   3.439   2.062
13284TIP3   OH239794   0.104   6.552   4.198
13284TIP3    H139795   0.118   6.646   4.193
13284TIP3    H239796   0.056   6.539   4.280
13285TIP3   OH239797   6.916   6.317   1.019
13285TIP3    H139798   6.862   6.396   1.014
13285TIP3    H239799   6.855   6.245   1.004
13286TIP3   OH239800   5.368   1.994   4.809
13286TIP3    H139801   5.294   2.055   4.815
13286TIP3    H239802   5.437   2.045   4.767
13287TIP3   OH239803   7.728   2.457   0.066
13287TIP3    H139804   7.654   2.482   0.122
13287TIP3    H239805   7.760   2.375   0.105
13288TIP3   OH239806   6.376   1.648   5.888
13288TIP3    H139807   6.286   1.652   5.920
13288TIP3    H239808   6.398   1.738   5.865
13289TIP3   OH239809   6.517   7.166   3.193
13289TIP3    H139810   6.476   7.199   3.114
13289TIP3    H239811   6.446   7.162   3.257
13290TIP3   OH239812   7.374   6.402   4.361
13290TIP3    H139813   7.371   6.324   4.415
13290TIP3    H239814   7.386   6.369   4.272
13291TIP3   OH239815   3.208   3.543   1.633
13291TIP3    H139816   3.152   3.517   1.559
13291TIP3    H239817   3.243   3.461   1.666
13292TIP3   OH239818   0.457   1.610   4.099
13292TIP3    H139819   0.376   1.661   4.093
13292TIP3    H239820   0.527   1.675   4.092
13293TIP3   OH239821   7.993   3.371   2.006
13293TIP3    H139822   8.071   3.319   1.985
13293TIP3    H239823   7.943   3.315   2.065
13294TIP3   OH239824   0.746   5.679   3.023
13294TIP3    H139825   0.784   5.765   3.005
13294TIP3    H239826   0.791   5.620   2.962
13295TIP3   OH239827   5.420   6.484   2.184
13295TIP3    H139828   5.372   6.491   2.101
13295TIP3    H239829   5.464   6.399   2.179
13296TIP3   OH239830   1.412   6.196   1.515
13296TIP3    H139831   1.401   6.249   1.594
13296TIP3    H239832   1.323   6.187   1.480
13297TIP3   OH239833   6.695   6.818   4.663
13297TIP3    H139834   6.741   6.901   4.659
13297TIP3    H239835   6.755   6.759   4.709
13298TIP3   OH239836   3.509   5.429   4.992
13298TIP3    H139837   3.484   5.406   5.081
13298TIP3    H239838   3.539   5.346   4.953
13299TIP3   OH239839   1.052   0.665   3.829
13299TIP3    H139840   0.971   0.639   3.784
13299TIP3    H239841   1.087   0.736   3.776
13300TIP3   OH239842   3.752   5.532   6.699
13300TIP3    H139843   3.816   5.461   6.707
13300TIP3    H239844   3.677   5.503   6.751
13301TIP3   OH239845   1.251   7.415   6.702
13301TIP3    H139846   1.163   7.397   6.732
13301TIP3    H239847   1.273   7.500   6.740
13302TIP3   OH239848   2.164   5.720   5.114
13302TIP3    H139849   2.135   5.806   5.147
13302TIP3    H239850   2.251   5.736   5.078
13303TIP3   OH239851   6.195   4.122   3.208
13303TIP3    H139852   6.214   4.172   3.129
13303TIP3    H239853   6.150   4.044   3.177
13304TIP3   OH239854   5.835   4.159   2.070
13304TIP3    H139855   5.917   4.181   2.114
13304TIP3    H239856   5.775   4.231   2.094
13305TIP3   OH239857   2.096   2.199   2.096
13305TIP3    H139858   2.182   2.205   2.137
13305TIP3    H239859   2.049   2.276   2.128
13306TIP3   OH239860   0.860   4.544   3.271
13306TIP3    H139861   0.854   4.522   3.364
13306TIP3    H239862   0.954   4.553   3.255
13307TIP3   OH239863   0.843   2.335   1.108
13307TIP3    H139864   0.866   2.417   1.152
13307TIP3    H239865   0.918   2.278   1.123
13308TIP3   OH239866   4.768   1.389   1.785
13308TIP3    H139867   4.675   1.382   1.806
13308TIP3    H239868   4.813   1.343   1.856
13309TIP3   OH239869   4.525   7.758   2.094
13309TIP3    H139870   4.538   7.850   2.115
13309TIP3    H239871   4.605   7.715   2.126
13310TIP3   OH239872   4.047   3.730   3.368
13310TIP3    H139873   4.005   3.782   3.300
13310TIP3    H239874   3.974   3.692   3.417
13311TIP3   OH239875   6.669   7.131   4.889
13311TIP3    H139876   6.719   7.105   4.966
13311TIP3    H239877   6.596   7.070   4.885
13312TIP3   OH239878   8.135   4.337   4.190
13312TIP3    H139879   8.123   4.399   4.118
13312TIP3    H239880   8.122   4.251   4.150
13313TIP3   OH239881   0.488   4.407   1.980
13313TIP3    H139882   0.423   4.408   1.910
13313TIP3    H239883   0.459   4.476   2.040
13314TIP3   OH239884   6.136   4.301   6.283
13314TIP3    H139885   6.145   4.380   6.337
13314TIP3    H239886   6.160   4.329   6.195
13315TIP3   OH239887   5.037   6.827   4.980
13315TIP3    H139888   4.947   6.807   4.955
13315TIP3    H239889   5.079   6.741   4.988
13316TIP3   OH239890   1.242   0.465   0.586
13316TIP3    H139891   1.246   0.370   0.573
13316TIP3    H239892   1.321   0.498   0.545
13317TIP3   OH239893   4.972   4.072   2.456
13317TIP3    H139894   5.045   4.068   2.394
13317TIP3    H239895   5.006   4.032   2.536
13318TIP3   OH239896   0.624   1.556   3.361
13318TIP3    H139897   0.560   1.573   3.293
13318TIP3    H239898   0.573   1.523   3.435
13319TIP3   OH239899   7.418   4.178   0.672
13319TIP3    H139900   7.404   4.088   0.640
13319TIP3    H239901   7.437   4.167   0.766
13320TIP3   OH239902   8.017   3.545   2.389
13320TIP3    H139903   7.939   3.529   2.336
13320TIP3    H239904   7.989   3.606   2.457
13321TIP3   OH239905   5.443   4.651   3.313
13321TIP3    H139906   5.458   4.603   3.395
13321TIP3    H239907   5.352   4.677   3.317
13322TIP3   OH239908   5.908   6.462   3.785
13322TIP3    H139909   5.854   6.398   3.738
13322TIP3    H239910   5.854   6.541   3.787
13323TIP3   OH239911   6.007   0.911   1.725
13323TIP3    H139912   6.017   0.869   1.811
13323TIP3    H239913   6.023   1.004   1.742
13324TIP3   OH239914   4.608   1.063   5.234
13324TIP3    H139915   4.607   0.969   5.251
13324TIP3    H239916   4.624   1.070   5.139
13325TIP3   OH239917   1.960   5.333   4.334
13325TIP3    H139918   1.932   5.380   4.413
13325TIP3    H239919   1.915   5.248   4.341
13326TIP3   OH239920   2.255   3.145   2.426
13326TIP3    H139921   2.243   3.179   2.337
13326TIP3    H239922   2.342   3.174   2.451
13327TIP3   OH239923   0.884   0.956   0.407
13327TIP3    H139924   0.857   0.929   0.495
13327TIP3    H239925   0.879   1.052   0.409
13328TIP3   OH239926   2.707   5.338   6.331
13328TIP3    H139927   2.774   5.357   6.266
13328TIP3    H239928   2.656   5.267   6.292
13329TIP3   OH239929   0.303   5.400   6.202
13329TIP3    H139930   0.380   5.376   6.149
13329TIP3    H239931   0.316   5.492   6.223
13330TIP3   OH239932   8.078   6.155   5.242
13330TIP3    H139933   8.068   6.186   5.332
13330TIP3    H239934   8.103   6.233   5.193
13331TIP3   OH239935   2.813   5.003   3.699
13331TIP3    H139936   2.725   4.996   3.737
13331TIP3    H239937   2.854   5.076   3.745
13332TIP3   OH239938   7.817   5.857   4.295
13332TIP3    H139939   7.813   5.869   4.390
13332TIP3    H239940   7.846   5.767   4.283
13333TIP3   OH239941   3.858   6.307   5.011
13333TIP3    H139942   3.783   6.324   4.953
13333TIP3    H239943   3.822   6.252   5.080
13334TIP3   OH239944   1.197   2.911   3.374
13334TIP3    H139945   1.284   2.913   3.333
13334TIP3    H239946   1.170   3.003   3.375
13335TIP3   OH239947   2.665   4.464   2.658
13335TIP3    H139948   2.707   4.475   2.744
13335TIP3    H239949   2.704   4.532   2.604
13336TIP3   OH239950   2.214   0.227   6.685
13336TIP3    H139951   2.132   0.277   6.691
13336TIP3    H239952   2.216   0.196   6.595
13337TIP3   OH239953   8.121   4.214   3.927
13337TIP3    H139954   8.158   4.299   3.904
13337TIP3    H239955   8.034   4.214   3.887
13338TIP3   OH239956   5.746   4.279   1.212
13338TIP3    H139957   5.767   4.359   1.163
13338TIP3    H239958   5.825   4.226   1.206
13339TIP3   OH239959   6.007   2.297   4.752
13339TIP3    H139960   6.079   2.323   4.694
13339TIP3    H239961   5.942   2.367   4.742
13340TIP3   OH239962   4.611   5.992   2.491
13340TIP3    H139963   4.585   6.019   2.580
13340TIP3    H239964   4.613   6.074   2.442
13341TIP3   OH239965   1.266   1.145   0.337
13341TIP3    H139966   1.240   1.075   0.396
13341TIP3    H239967   1.241   1.114   0.250
13342TIP3   OH239968   5.951   5.817   3.931
13342TIP3    H139969   5.931   5.735   3.885
13342TIP3    H239970   6.044   5.810   3.953
13343TIP3   OH239971   4.161   6.606   0.022
13343TIP3    H139972   4.162   6.662  -0.057
13343TIP3    H239973   4.232   6.544   0.008
13344TIP3   OH239974   4.625   0.047   2.663
13344TIP3    H139975   4.560   0.015   2.600
13344TIP3    H239976   4.598   0.137   2.681
13345TIP3   OH239977   6.694   0.755   1.583
13345TIP3    H139978   6.721   0.714   1.501
13345TIP3    H239979   6.608   0.717   1.601
13346TIP3   OH239980   1.997   4.177   0.968
13346TIP3    H139981   2.005   4.082   0.959
13346TIP3    H239982   2.075   4.212   0.925
13347TIP3   OH239983  -0.025   1.182   3.394
13347TIP3    H139984  -0.021   1.260   3.339
13347TIP3    H239985   0.032   1.201   3.468
13348TIP3   OH239986   0.698   1.368   2.166
13348TIP3    H139987   0.705   1.460   2.193
13348TIP3    H239988   0.629   1.333   2.222
13349TIP3   OH239989   7.038   5.652   6.351
13349TIP3    H139990   7.058   5.624   6.441
13349TIP3    H239991   7.039   5.748   6.356
13350TIP3   OH239992   1.927   6.693   5.004
13350TIP3    H139993   1.884   6.635   5.067
13350TIP3    H239994   1.855   6.736   4.958
13351TIP3   OH239995   2.826   3.983   0.215
13351TIP3    H139996   2.901   4.039   0.199
13351TIP3    H239997   2.863   3.895   0.227
13352TIP3   OH239998   7.808   3.625   6.756
13352TIP3    H139999   7.851   3.579   6.828
13352TIP3    H240000   7.872   3.623   6.685
13353TIP3   OH240001   1.837   3.866   6.779
13353TIP3    H140002   1.865   3.817   6.702
13353TIP3    H240003   1.778   3.807   6.825
13354TIP3   OH240004   2.311   1.140   0.275
13354TIP3    H140005   2.293   1.221   0.322
13354TIP3    H240006   2.286   1.158   0.184
13355TIP3   OH240007   0.306   6.102   0.621
13355TIP3    H140008   0.371   6.064   0.562
13355TIP3    H240009   0.223   6.093   0.575
13356TIP3   OH240010   2.051   7.095   0.729
13356TIP3    H140011   1.966   7.051   0.738
13356TIP3    H240012   2.092   7.054   0.653
13357TIP3   OH240013   6.728   1.224   5.697
13357TIP3    H140014   6.767   1.199   5.780
13357TIP3    H240015   6.685   1.308   5.716
13358TIP3   OH240016   1.359   3.276   5.778
13358TIP3    H140017   1.291   3.219   5.743
13358TIP3    H240018   1.329   3.365   5.755
13359TIP3   OH240019   4.287   4.672   6.210
13359TIP3    H140020   4.220   4.654   6.277
13359TIP3    H240021   4.277   4.601   6.147
13360TIP3   OH240022   1.753   6.828   1.193
13360TIP3    H140023   1.788   6.869   1.114
13360TIP3    H240024   1.660   6.850   1.193
13361TIP3   OH240025   1.807   7.663   3.497
13361TIP3    H140026   1.803   7.714   3.577
13361TIP3    H240027   1.722   7.677   3.455
13362TIP3   OH240028   1.139   7.059   2.002
13362TIP3    H140029   1.125   7.151   1.982
13362TIP3    H240030   1.099   7.047   2.088
13363TIP3   OH240031   0.241   1.553   4.553
13363TIP3    H140032   0.229   1.478   4.612
13363TIP3    H240033   0.313   1.603   4.593
13364TIP3   OH240034   5.273   3.590   1.507
13364TIP3    H140035   5.215   3.518   1.481
13364TIP3    H240036   5.326   3.553   1.577
13365TIP3   OH240037   4.348   0.980   4.459
13365TIP3    H140038   4.366   1.067   4.494
13365TIP3    H240039   4.255   0.982   4.438
13366TIP3   OH240040   0.287  -0.006   5.931
13366TIP3    H140041   0.295   0.037   6.016
13366TIP3    H240042   0.369   0.014   5.886
13367TIP3   OH240043   8.249   5.067   2.935
13367TIP3    H140044   8.192   5.142   2.919
13367TIP3    H240045   8.202   5.013   2.998
13368TIP3   OH240046   0.660   5.383   0.806
13368TIP3    H140047   0.656   5.407   0.898
13368TIP3    H240048   0.719   5.308   0.803
13369TIP3   OH240049   7.828   5.946   0.295
13369TIP3    H140050   7.882   5.930   0.217
13369TIP3    H240051   7.856   5.880   0.357
13370TIP3   OH240052   6.187   7.788   1.915
13370TIP3    H140053   6.101   7.782   1.955
13370TIP3    H240054   6.229   7.704   1.934
13371TIP3   OH240055   1.476   0.525   0.416
13371TIP3    H140056   1.526   0.447   0.441
13371TIP3    H240057   1.459   0.514   0.322
13372TIP3   OH240058   1.880   5.476   3.660
13372TIP3    H140059   1.887   5.555   3.608
13372TIP3    H240060   1.970   5.448   3.675
13373TIP3   OH240061   5.300   0.038   5.937
13373TIP3    H140062   5.288   0.112   5.996
13373TIP3    H240063   5.334   0.077   5.857
13374TIP3   OH240064   3.592   6.843   5.840
13374TIP3    H140065   3.598   6.843   5.745
13374TIP3    H240066   3.628   6.928   5.867
13375TIP3   OH240067   3.178   3.026   5.995
13375TIP3    H140068   3.122   3.096   5.962
13375TIP3    H240069   3.264   3.044   5.956
13376TIP3   OH240070   4.398   6.416   6.442
13376TIP3    H140071   4.316   6.461   6.424
13376TIP3    H240072   4.396   6.339   6.386
13377TIP3   OH240073   6.188   3.948   1.602
13377TIP3    H140074   6.195   3.989   1.688
13377TIP3    H240075   6.115   3.992   1.559
13378TIP3   OH240076   7.428   2.459   2.997
13378TIP3    H140077   7.407   2.517   2.924
13378TIP3    H240078   7.345   2.419   3.021
13379TIP3   OH240079   7.464   1.261   1.973
13379TIP3    H140080   7.377   1.225   1.991
13379TIP3    H240081   7.481   1.321   2.046
13380TIP3   OH240082   3.783   0.485   4.536
13380TIP3    H140083   3.749   0.491   4.625
13380TIP3    H240084   3.866   0.532   4.539
13381TIP3   OH240085   3.705   5.670   0.227
13381TIP3    H140086   3.636   5.731   0.254
13381TIP3    H240087   3.683   5.588   0.271
13382TIP3   OH240088   1.418   0.883   1.481
13382TIP3    H140089   1.454   0.901   1.394
13382TIP3    H240090   1.435   0.964   1.530
13383TIP3   OH240091   6.396   3.128   1.218
13383TIP3    H140092   6.301   3.112   1.222
13383TIP3    H240093   6.434   3.042   1.200
13384TIP3   OH240094   2.980   4.973   6.537
13384TIP3    H140095   2.886   4.966   6.520
13384TIP3    H240096   3.010   5.040   6.477
13385TIP3   OH240097   7.683   6.533   0.161
13385TIP3    H140098   7.651   6.568   0.077
13385TIP3    H240099   7.773   6.508   0.144
13386TIP3   OH240100   3.080   2.065   0.834
13386TIP3    H140101   3.167   2.025   0.835
13386TIP3    H240102   3.062   2.080   0.741
13387TIP3   OH240103   8.027   3.625   5.402
13387TIP3    H140104   7.993   3.610   5.313
13387TIP3    H240105   8.112   3.581   5.403
13388TIP3   OH240106   2.463   3.649   4.850
13388TIP3    H140107   2.368   3.647   4.859
13388TIP3    H240108   2.485   3.569   4.801
13389TIP3   OH240109   5.437   1.336   1.059
13389TIP3    H140110   5.509   1.290   1.017
13389TIP3    H240111   5.388   1.267   1.104
13390TIP3   OH240112   7.706   3.392   5.153
13390TIP3    H140113   7.656   3.310   5.144
13390TIP3    H240114   7.797   3.365   5.143
13391TIP3   OH240115   0.238   0.053   5.352
13391TIP3    H140116   0.163   0.019   5.401
13391TIP3    H240117   0.247  -0.006   5.277
13392TIP3   OH240118   1.928   3.601   2.742
13392TIP3    H140119   1.873   3.537   2.787
13392TIP3    H240120   1.917   3.682   2.791
13393TIP3   OH240121   1.889   3.535   0.280
13393TIP3    H140122   1.880   3.460   0.221
13393TIP3    H240123   1.801   3.548   0.316
13394TIP3   OH240124   7.232   5.230   5.450
13394TIP3    H140125   7.157   5.170   5.453
13394TIP3    H240126   7.302   5.182   5.495
13395TIP3   OH240127   1.747   5.419   1.695
13395TIP3    H140128   1.764   5.367   1.774
13395TIP3    H240129   1.760   5.357   1.623
13396TIP3   OH240130   8.033   2.894   1.154
13396TIP3    H140131   8.049   2.956   1.083
13396TIP3    H240132   8.073   2.935   1.231
13397TIP3   OH240133   8.150   5.497   0.634
13397TIP3    H140134   8.100   5.462   0.708
13397TIP3    H240135   8.241   5.489   0.660
13398TIP3   OH240136   3.443   4.478   6.186
13398TIP3    H140137   3.469   4.412   6.122
13398TIP3    H240138   3.416   4.427   6.263
13399TIP3   OH240139   1.262   5.914   6.708
13399TIP3    H140140   1.353   5.933   6.689
13399TIP3    H240141   1.224   5.998   6.733
13400TIP3   OH240142   0.445   4.637   5.699
13400TIP3    H140143   0.407   4.572   5.640
13400TIP3    H240144   0.507   4.587   5.752
13401TIP3   OH240145   3.429   7.705   6.149
13401TIP3    H140146   3.393   7.626   6.189
13401TIP3    H240147   3.358   7.739   6.095
13402TIP3   OH240148   2.009   5.130   2.070
13402TIP3    H140149   2.091   5.180   2.071
13402TIP3    H240150   2.028   5.054   2.015
13403TIP3   OH240151   2.184   5.393   0.472
13403TIP3    H140152   2.236   5.313   0.471
13403TIP3    H240153   2.163   5.407   0.565
13404TIP3   OH240154   7.656   7.513   1.928
13404TIP3    H140155   7.675   7.605   1.942
13404TIP3    H240156   7.731   7.466   1.964
13405TIP3   OH240157   7.940   7.632   1.055
13405TIP3    H140158   8.007   7.615   1.122
13405TIP3    H240159   7.951   7.725   1.034
13406TIP3   OH240160   0.307   6.296   1.013
13406TIP3    H140161   0.326   6.387   0.990
13406TIP3    H240162   0.288   6.298   1.107
13407TIP3   OH240163   6.687   5.510   6.558
13407TIP3    H140164   6.694   5.452   6.482
13407TIP3    H240165   6.595   5.505   6.584
13408TIP3   OH240166   5.515   6.942   1.724
13408TIP3    H140167   5.602   6.978   1.741
13408TIP3    H240168   5.461   6.974   1.797
13409TIP3   OH240169   6.772   4.800   0.974
13409TIP3    H140170   6.692   4.817   0.925
13409TIP3    H240171   6.843   4.822   0.914
13410TIP3   OH240172   1.399   1.592   5.242
13410TIP3    H140173   1.420   1.500   5.260
13410TIP3    H240174   1.321   1.589   5.187
13411TIP3   OH240175   0.145   7.538   5.744
13411TIP3    H140176   0.069   7.556   5.799
13411TIP3    H240177   0.148   7.443   5.739
13412TIP3   OH240178   3.247   4.857   0.128
13412TIP3    H140179   3.337   4.872   0.100
13412TIP3    H240180   3.249   4.869   0.223
13413TIP3   OH240181   1.946   1.468   5.287
13413TIP3    H140182   1.876   1.462   5.351
13413TIP3    H240183   1.983   1.555   5.300
13414TIP3   OH240184   6.194   2.217   3.731
13414TIP3    H140185   6.106   2.186   3.709
13414TIP3    H240186   6.181   2.306   3.762
13415TIP3   OH240187   1.419   7.043   2.029
13415TIP3    H140188   1.336   7.089   2.013
13415TIP3    H240189   1.406   6.998   2.112
13416TIP3   OH240190   6.015   7.302   5.927
13416TIP3    H140191   6.083   7.365   5.951
13416TIP3    H240192   6.061   7.233   5.879
13417TIP3   OH240193   0.043   2.230   4.937
13417TIP3    H140194  -0.034   2.199   4.984
13417TIP3    H240195   0.052   2.170   4.863
13418TIP3   OH240196   4.106   5.397   1.852
13418TIP3    H140197   4.025   5.357   1.885
13418TIP3    H240198   4.132   5.339   1.780
13419TIP3   OH240199   0.140   1.160   4.563
13419TIP3    H140200   0.193   1.099   4.613
13419TIP3    H240201   0.163   1.143   4.472
13420TIP3   OH240202   6.546   4.466   3.977
13420TIP3    H140203   6.534   4.391   3.919
13420TIP3    H240204   6.462   4.476   4.022
13421TIP3   OH240205   2.770   0.302   3.599
13421TIP3    H140206   2.765   0.206   3.596
13421TIP3    H240207   2.798   0.322   3.689
13422TIP3   OH240208   7.192   5.998   5.962
13422TIP3    H140209   7.224   6.051   5.889
13422TIP3    H240210   7.137   6.057   6.013
13423TIP3   OH240211   0.586   2.833   0.995
13423TIP3    H140212   0.637   2.913   0.982
13423TIP3    H240213   0.523   2.832   0.924
13424TIP3   OH240214   2.847   4.883   3.990
13424TIP3    H140215   2.891   4.888   4.074
13424TIP3    H240216   2.908   4.923   3.928
13425TIP3   OH240217   5.920   0.460   1.141
13425TIP3    H140218   5.944   0.471   1.233
13425TIP3    H240219   5.907   0.549   1.109
13426TIP3   OH240220   3.765   2.330   4.273
13426TIP3    H140221   3.853   2.333   4.234
13426TIP3    H240222   3.767   2.398   4.341
13427TIP3   OH240223   1.898   5.772   0.609
13427TIP3    H140224   1.854   5.776   0.694
13427TIP3    H240225   1.974   5.829   0.618
13428TIP3   OH240226   5.178   4.593   2.573
13428TIP3    H140227   5.152   4.502   2.558
13428TIP3    H240228   5.249   4.587   2.638
13429TIP3   OH240229   1.574   6.510   2.982
13429TIP3    H140230   1.517   6.450   3.030
13429TIP3    H240231   1.518   6.546   2.913
13430TIP3   OH240232   6.362   2.001   6.358
13430TIP3    H140233   6.296   2.007   6.427
13430TIP3    H240234   6.331   1.930   6.302
13431TIP3   OH240235   2.716   5.986   5.866
13431TIP3    H140236   2.731   5.942   5.950
13431TIP3    H240237   2.640   6.042   5.881
13432TIP3   OH240238   6.065   0.115   6.639
13432TIP3    H140239   6.100   0.126   6.551
13432TIP3    H240240   6.032   0.202   6.663
13433TIP3   OH240241   7.245   3.706   5.440
13433TIP3    H140242   7.178   3.691   5.373
13433TIP3    H240243   7.210   3.664   5.518
13434TIP3   OH240244   7.881   1.925   3.239
13434TIP3    H140245   7.920   1.877   3.312
13434TIP3    H240246   7.943   1.996   3.222
13435TIP3   OH240247   0.148   1.235   6.060
13435TIP3    H140248   0.100   1.156   6.034
13435TIP3    H240249   0.235   1.203   6.083
13436TIP3   OH240250   0.221   2.803   5.949
13436TIP3    H140251   0.224   2.894   5.981
13436TIP3    H240252   0.288   2.758   6.000
13437TIP3   OH240253   4.506   6.965   1.372
13437TIP3    H140254   4.585   7.018   1.382
13437TIP3    H240255   4.466   6.965   1.459
13438TIP3   OH240256   7.389   4.652   5.210
13438TIP3    H140257   7.387   4.640   5.305
13438TIP3    H240258   7.378   4.746   5.197
13439TIP3   OH240259   1.837   4.462   2.594
13439TIP3    H140260   1.921   4.428   2.564
13439TIP3    H240261   1.789   4.481   2.514
13440TIP3   OH240262   0.744   0.676   5.216
13440TIP3    H140263   0.696   0.597   5.194
13440TIP3    H240264   0.807   0.687   5.145
13441TIP3   OH240265   4.324   3.420   4.090
13441TIP3    H140266   4.362   3.478   4.155
13441TIP3    H240267   4.287   3.478   4.024
13442TIP3   OH240268   6.195   3.740   0.848
13442TIP3    H140269   6.284   3.769   0.828
13442TIP3    H240270   6.186   3.657   0.803
13443TIP3   OH240271   3.442   1.841   3.605
13443TIP3    H140272   3.531   1.849   3.638
13443TIP3    H240273   3.393   1.801   3.677
13444TIP3   OH240274   7.176   5.648   0.244
13444TIP3    H140275   7.239   5.715   0.269
13444TIP3    H240276   7.215   5.566   0.272
13445TIP3   OH240277   4.810   2.812   5.831
13445TIP3    H140278   4.828   2.904   5.849
13445TIP3    H240279   4.757   2.783   5.905
13446TIP3   OH240280   4.965   0.238   6.091
13446TIP3    H140281   4.961   0.314   6.149
13446TIP3    H240282   5.025   0.178   6.133
13447TIP3   OH240283   0.895   6.415   6.521
13447TIP3    H140284   0.933   6.483   6.577
13447TIP3    H240285   0.807   6.447   6.501
13448TIP3   OH240286   2.013   5.355   6.309
13448TIP3    H140287   2.039   5.349   6.401
13448TIP3    H240288   1.955   5.431   6.306
13449TIP3   OH240289   7.157   3.321   2.026
13449TIP3    H140290   7.175   3.231   2.054
13449TIP3    H240291   7.205   3.331   1.944
13450TIP3   OH240292   0.453   4.235   5.294
13450TIP3    H140293   0.490   4.152   5.266
13450TIP3    H240294   0.493   4.252   5.380
13451TIP3   OH240295   4.155   1.088   6.632
13451TIP3    H140296   4.075   1.114   6.586
13451TIP3    H240297   4.226   1.130   6.582
13452TIP3   OH240298   0.404   3.709   3.622
13452TIP3    H140299   0.447   3.639   3.573
13452TIP3    H240300   0.370   3.769   3.556
13453TIP3   OH240301   3.108   6.931   2.927
13453TIP3    H140302   3.029   6.877   2.930
13453TIP3    H240303   3.172   6.877   2.880
13454TIP3   OH240304   7.732   2.919   1.201
13454TIP3    H140305   7.688   2.912   1.117
13454TIP3    H240306   7.814   2.965   1.182
13455TIP3   OH240307   0.277   1.194   4.319
13455TIP3    H140308   0.207   1.184   4.255
13455TIP3    H240309   0.311   1.105   4.331
13456TIP3   OH240310   6.687   6.163   0.542
13456TIP3    H140311   6.766   6.123   0.579
13456TIP3    H240312   6.622   6.158   0.612
13457TIP3   OH240313   7.494   7.329   5.222
13457TIP3    H140314   7.536   7.309   5.139
13457TIP3    H240315   7.438   7.404   5.202
13458TIP3   OH240316   0.188   0.867   2.894
13458TIP3    H140317   0.133   0.794   2.865
13458TIP3    H240318   0.135   0.945   2.878
13459TIP3   OH240319   6.903   6.486   6.301
13459TIP3    H140320   6.893   6.576   6.271
13459TIP3    H240321   6.813   6.454   6.310
13460TIP3   OH240322   3.753   5.097   5.372
13460TIP3    H140323   3.763   5.018   5.425
13460TIP3    H240324   3.726   5.165   5.434
13461TIP3   OH240325   1.153   2.211   3.983
13461TIP3    H140326   1.169   2.183   3.893
13461TIP3    H240327   1.218   2.165   4.035
13462TIP3   OH240328   8.173   4.085   2.611
13462TIP3    H140329   8.179   4.180   2.626
13462TIP3    H240330   8.123   4.077   2.530
13463TIP3   OH240331   3.710   5.998   4.854
13463TIP3    H140332   3.646   6.051   4.903
13463TIP3    H240333   3.656   5.937   4.803
13464TIP3   OH240334   0.830   2.416   5.308
13464TIP3    H140335   0.753   2.370   5.340
13464TIP3    H240336   0.796   2.490   5.259
13465TIP3   OH240337   7.585   3.068   6.596
13465TIP3    H140338   7.496   3.092   6.622
13465TIP3    H240339   7.580   2.975   6.575
13466TIP3   OH240340   1.581   6.451   6.038
13466TIP3    H140341   1.618   6.430   6.124
13466TIP3    H240342   1.503   6.502   6.058
13467TIP3   OH240343   5.723   5.998   1.330
13467TIP3    H140344   5.691   6.030   1.414
13467TIP3    H240345   5.644   5.979   1.280
13468TIP3   OH240346   8.262   5.377   5.770
13468TIP3    H140347   8.353   5.350   5.755
13468TIP3    H240348   8.269   5.446   5.836
13469TIP3   OH240349   2.180   4.853   6.289
13469TIP3    H140350   2.099   4.826   6.333
13469TIP3    H240351   2.246   4.790   6.319
13470TIP3   OH240352   6.873   7.469   6.084
13470TIP3    H140353   6.795   7.435   6.040
13470TIP3    H240354   6.841   7.501   6.168
13471TIP3   OH240355   0.963   7.228   5.139
13471TIP3    H140356   0.909   7.288   5.190
13471TIP3    H240357   1.053   7.256   5.158
13472TIP3   OH240358   5.716   1.749   0.985
13472TIP3    H140359   5.641   1.786   1.032
13472TIP3    H240360   5.692   1.756   0.892
13473TIP3   OH240361   6.683   0.968   6.033
13473TIP3    H140362   6.758   0.953   6.091
13473TIP3    H240363   6.719   0.958   5.945
13474TIP3   OH240364   2.455   6.854   0.661
13474TIP3    H140365   2.376   6.866   0.608
13474TIP3    H240366   2.425   6.807   0.739
13475TIP3   OH240367   7.910   5.043   2.915
13475TIP3    H140368   7.923   5.134   2.941
13475TIP3    H240369   7.822   5.021   2.945
13476TIP3   OH240370   0.586   3.401   6.745
13476TIP3    H140371   0.526   3.436   6.810
13476TIP3    H240372   0.621   3.321   6.785
13477TIP3   OH240373   2.073   0.343   3.839
13477TIP3    H140374   2.009   0.292   3.888
13477TIP3    H240375   2.068   0.310   3.750
13478TIP3   OH240376   2.269   1.753   3.913
13478TIP3    H140377   2.305   1.787   3.995
13478TIP3    H240378   2.186   1.800   3.903
13479TIP3   OH240379   7.969   3.283   1.322
13479TIP3    H140380   7.922   3.338   1.384
13479TIP3    H240381   7.938   3.312   1.236
13480TIP3   OH240382   7.621   2.333   5.077
13480TIP3    H140383   7.539   2.358   5.118
13480TIP3    H240384   7.682   2.403   5.100
13481TIP3   OH240385   5.225   5.866   3.001
13481TIP3    H140386   5.308   5.823   2.980
13481TIP3    H240387   5.250   5.956   3.023
13482TIP3   OH240388   1.624   1.092   6.739
13482TIP3    H140389   1.682   1.060   6.670
13482TIP3    H240390   1.539   1.103   6.696
13483TIP3   OH240391   3.717   5.036   0.250
13483TIP3    H140392   3.790   5.057   0.309
13483TIP3    H240393   3.714   5.110   0.189
13484TIP3   OH240394   3.228   3.983   6.751
13484TIP3    H140395   3.276   3.967   6.670
13484TIP3    H240396   3.285   3.950   6.820
13485TIP3   OH240397   3.922   7.322   1.590
13485TIP3    H140398   3.893   7.231   1.590
13485TIP3    H240399   3.842   7.374   1.592
13486TIP3   OH240400   3.291   2.692   5.722
13486TIP3    H140401   3.259   2.645   5.645
13486TIP3    H240402   3.219   2.688   5.785
13487TIP3   OH240403   2.788   4.470   0.356
13487TIP3    H140404   2.748   4.514   0.281
13487TIP3    H240405   2.874   4.512   0.365
13488TIP3   OH240406   4.718   2.755   5.556
13488TIP3    H140407   4.677   2.832   5.518
13488TIP3    H240408   4.764   2.787   5.634
13489TIP3   OH240409   5.521   7.641   0.410
13489TIP3    H140410   5.598   7.654   0.465
13489TIP3    H240411   5.448   7.675   0.462
13490TIP3   OH240412   3.404   0.191   3.491
13490TIP3    H140413   3.436   0.253   3.556
13490TIP3    H240414   3.472   0.188   3.424
13491TIP3   OH240415   5.332   2.694   1.344
13491TIP3    H140416   5.385   2.744   1.406
13491TIP3    H240417   5.395   2.651   1.286
13492TIP3   OH240418   6.755   3.882   4.272
13492TIP3    H140419   6.770   3.976   4.274
13492TIP3    H240420   6.818   3.846   4.334
13493TIP3   OH240421   2.876   7.777   1.155
13493TIP3    H140422   2.911   7.691   1.174
13493TIP3    H240423   2.943   7.838   1.187
13494TIP3   OH240424   1.766   5.778   4.708
13494TIP3    H140425   1.787   5.684   4.709
13494TIP3    H240426   1.842   5.819   4.669
13495TIP3   OH240427   1.632   1.206   1.951
13495TIP3    H140428   1.628   1.135   1.888
13495TIP3    H240429   1.717   1.196   1.994
13496TIP3   OH240430   1.898   2.402   1.103
13496TIP3    H140431   1.914   2.491   1.135
13496TIP3    H240432   1.841   2.414   1.028
13497TIP3   OH240433   7.319   2.650   5.807
13497TIP3    H140434   7.389   2.677   5.747
13497TIP3    H240435   7.307   2.557   5.789
13498TIP3   OH240436   5.938   6.047   3.396
13498TIP3    H140437   5.857   6.065   3.348
13498TIP3    H240438   5.943   6.116   3.462
13499TIP3   OH240439   3.320   7.193   4.463
13499TIP3    H140440   3.380   7.259   4.496
13499TIP3    H240441   3.345   7.181   4.371
13500TIP3   OH240442   3.563   1.984   0.041
13500TIP3    H140443   3.560   1.902   0.091
13500TIP3    H240444   3.546   2.052   0.106
13501TIP3   OH240445   3.646   2.306   3.065
13501TIP3    H140446   3.555   2.285   3.045
13501TIP3    H240447   3.693   2.294   2.983
13502TIP3   OH240448   5.952   0.280   2.379
13502TIP3    H140449   6.005   0.339   2.326
13502TIP3    H240450   5.904   0.227   2.316
13503TIP3   OH240451   4.033   4.746   2.665
13503TIP3    H140452   4.083   4.689   2.724
13503TIP3    H240453   3.964   4.690   2.630
13504TIP3   OH240454   0.671   5.818   0.948
13504TIP3    H140455   0.626   5.834   1.032
13504TIP3    H240456   0.600   5.807   0.885
13505TIP3   OH240457   3.701   2.280   4.004
13505TIP3    H140458   3.732   2.313   4.088
13505TIP3    H240459   3.611   2.254   4.020
13506TIP3   OH240460   4.185   5.387   1.582
13506TIP3    H140461   4.143   5.327   1.521
13506TIP3    H240462   4.118   5.453   1.600
13507TIP3   OH240463   2.475   0.756   1.874
13507TIP3    H140464   2.477   0.683   1.936
13507TIP3    H240465   2.446   0.831   1.927
13508TIP3   OH240466   1.594   0.887   4.723
13508TIP3    H140467   1.614   0.866   4.632
13508TIP3    H240468   1.668   0.853   4.772
13509TIP3   OH240469   3.646   6.433   0.107
13509TIP3    H140470   3.655   6.426   0.012
13509TIP3    H240471   3.728   6.474   0.136
13510TIP3   OH240472   2.051   2.337   1.760
13510TIP3    H140473   2.123   2.291   1.717
13510TIP3    H240474   2.092   2.412   1.802
13511TIP3   OH240475   8.039   3.088   4.031
13511TIP3    H140476   8.031   3.182   4.012
13511TIP3    H240477   8.103   3.083   4.102
13512TIP3   OH240478   2.375   3.440   2.330
13512TIP3    H140479   2.376   3.381   2.254
13512TIP3    H240480   2.409   3.387   2.402
13513TIP3   OH240481   3.755   2.567   1.313
13513TIP3    H140482   3.827   2.514   1.347
13513TIP3    H240483   3.704   2.507   1.259
13514TIP3   OH240484   4.118   6.650   0.326
13514TIP3    H140485   4.143   6.690   0.243
13514TIP3    H240486   4.192   6.593   0.349
13515TIP3   OH240487   6.397   0.423   3.499
13515TIP3    H140488   6.456   0.446   3.428
13515TIP3    H240489   6.316   0.397   3.456
13516TIP3   OH240490   4.684   4.966   6.612
13516TIP3    H140491   4.620   5.005   6.552
13516TIP3    H240492   4.737   4.909   6.556
13517TIP3   OH240493   4.675   3.317   1.797
13517TIP3    H140494   4.726   3.331   1.877
13517TIP3    H240495   4.615   3.246   1.818
13518TIP3   OH240496   2.503   7.444   3.628
13518TIP3    H140497   2.548   7.458   3.545
13518TIP3    H240498   2.491   7.532   3.664
13519TIP3   OH240499   8.190   3.843   5.603
13519TIP3    H140500   8.187   3.770   5.665
13519TIP3    H240501   8.276   3.882   5.616
13520TIP3   OH240502   7.990   7.025   1.194
13520TIP3    H140503   7.988   7.028   1.290
13520TIP3    H240504   7.952   7.108   1.167
13521TIP3   OH240505   6.277   2.165   4.260
13521TIP3    H140506   6.298   2.143   4.351
13521TIP3    H240507   6.258   2.080   4.219
13522TIP3   OH240508   0.262   4.829   2.733
13522TIP3    H140509   0.241   4.775   2.809
13522TIP3    H240510   0.286   4.914   2.769
13523TIP3   OH240511   4.681   2.082   5.516
13523TIP3    H140512   4.600   2.038   5.491
13523TIP3    H240513   4.677   2.166   5.470
13524TIP3   OH240514   6.914   5.759   0.172
13524TIP3    H140515   6.939   5.797   0.088
13524TIP3    H240516   6.985   5.700   0.194
13525TIP3   OH240517   2.378   1.899   4.593
13525TIP3    H140518   2.397   1.962   4.662
13525TIP3    H240519   2.382   1.950   4.512
13526TIP3   OH240520   3.832   0.825   0.606
13526TIP3    H140521   3.758   0.781   0.562
13526TIP3    H240522   3.792   0.901   0.649
13527TIP3   OH240523   2.553   6.801   2.470
13527TIP3    H140524   2.559   6.896   2.480
13527TIP3    H240525   2.644   6.772   2.464
13528TIP3   OH240526   1.532   2.872   4.033
13528TIP3    H140527   1.606   2.905   3.983
13528TIP3    H240528   1.565   2.867   4.123
13529TIP3   OH240529   5.241   2.174   6.607
13529TIP3    H140530   5.191   2.198   6.529
13529TIP3    H240531   5.282   2.091   6.585
13530TIP3   OH240532   1.880   1.848   2.636
13530TIP3    H140533   1.975   1.861   2.642
13530TIP3    H240534   1.856   1.811   2.721
13531TIP3   OH240535   1.351   5.397   1.948
13531TIP3    H140536   1.266   5.400   1.905
13531TIP3    H240537   1.401   5.468   1.909
13532TIP3   OH240538   6.693   5.081   2.322
13532TIP3    H140539   6.687   5.175   2.339
13532TIP3    H240540   6.748   5.075   2.243
13533TIP3   OH240541   0.282   1.569   3.671
13533TIP3    H140542   0.231   1.512   3.729
13533TIP3    H240543   0.359   1.518   3.649
13534TIP3   OH240544   3.437   6.860   0.408
13534TIP3    H140545   3.432   6.808   0.327
13534TIP3    H240546   3.352   6.904   0.413
13535TIP3   OH240547   6.855   5.557   4.257
13535TIP3    H140548   6.807   5.477   4.280
13535TIP3    H240549   6.867   5.602   4.341
13536TIP3   OH240550   7.723   3.769   3.088
13536TIP3    H140551   7.676   3.804   3.012
13536TIP3    H240552   7.814   3.796   3.075
13537TIP3   OH240553   6.919   6.277   1.958
13537TIP3    H140554   6.985   6.311   2.018
13537TIP3    H240555   6.900   6.350   1.899
13538TIP3   OH240556   4.374   1.158   5.778
13538TIP3    H140557   4.466   1.138   5.794
13538TIP3    H240558   4.368   1.253   5.786
13539TIP3   OH240559   2.655   4.800   6.689
13539TIP3    H140560   2.665   4.786   6.594
13539TIP3    H240561   2.639   4.712   6.723
13540TIP3   OH240562   3.314   1.080   6.290
13540TIP3    H140563   3.311   1.170   6.321
13540TIP3    H240564   3.341   1.029   6.367
13541TIP3   OH240565   4.040   0.679   2.218
13541TIP3    H140566   4.027   0.662   2.125
13541TIP3    H240567   3.951   0.694   2.252
13542TIP3   OH240568   1.849   4.894   2.615
13542TIP3    H140569   1.770   4.857   2.575
13542TIP3    H240570   1.876   4.828   2.679
13543TIP3   OH240571   0.359   6.181   2.029
13543TIP3    H140572   0.327   6.260   1.987
13543TIP3    H240573   0.406   6.212   2.107
13544TIP3   OH240574   2.618   3.284   0.793
13544TIP3    H140575   2.608   3.259   0.885
13544TIP3    H240576   2.687   3.350   0.794
13545TIP3   OH240577   4.724   1.749   4.416
13545TIP3    H140578   4.690   1.746   4.506
13545TIP3    H240579   4.647   1.766   4.362
13546TIP3   OH240580   3.701   2.119   0.753
13546TIP3    H140581   3.730   2.035   0.788
13546TIP3    H240582   3.766   2.143   0.688
13547TIP3   OH240583   5.182   1.372   0.856
13547TIP3    H140584   5.137   1.448   0.818
13547TIP3    H240585   5.264   1.408   0.889
13548TIP3   OH240586   3.716   2.635   1.650
13548TIP3    H140587   3.692   2.544   1.632
13548TIP3    H240588   3.664   2.687   1.589
13549TIP3   OH240589   0.913   1.364   4.860
13549TIP3    H140590   0.880   1.450   4.885
13549TIP3    H240591   1.008   1.371   4.871
13550TIP3   OH240592   7.337   5.645   6.548
13550TIP3    H140593   7.418   5.660   6.597
13550TIP3    H240594   7.362   5.582   6.479
13551TIP3   OH240595   2.562   2.311   5.268
13551TIP3    H140596   2.654   2.300   5.244
13551TIP3    H240597   2.557   2.281   5.359
13552TIP3   OH240598   6.688   0.018   0.420
13552TIP3    H140599   6.653  -0.032   0.346
13552TIP3    H240600   6.610   0.044   0.470
13553TIP3   OH240601   0.929   0.094   5.112
13553TIP3    H140602   0.855   0.073   5.169
13553TIP3    H240603   0.959   0.179   5.143
13554TIP3   OH240604   6.244   6.994   3.195
13554TIP3    H140605   6.274   6.971   3.107
13554TIP3    H240606   6.229   6.910   3.238
13555TIP3   OH240607   1.661   6.754   3.138
13555TIP3    H140608   1.616   6.820   3.084
13555TIP3    H240609   1.621   6.671   3.111
13556TIP3   OH240610   4.322   2.084   1.463
13556TIP3    H140611   4.315   2.152   1.397
13556TIP3    H240612   4.257   2.109   1.530
13557TIP3   OH240613   2.006   3.427   6.427
13557TIP3    H140614   2.049   3.398   6.507
13557TIP3    H240615   1.924   3.378   6.425
13558TIP3   OH240616   5.165   4.109   0.699
13558TIP3    H140617   5.229   4.081   0.764
13558TIP3    H240618   5.216   4.156   0.633
13559TIP3   OH240619   5.717   1.029   2.606
13559TIP3    H140620   5.721   1.044   2.701
13559TIP3    H240621   5.685   1.112   2.570
13560TIP3   OH240622   7.777   4.379   0.738
13560TIP3    H140623   7.844   4.420   0.683
13560TIP3    H240624   7.765   4.292   0.700
13561TIP3   OH240625   5.015   2.479   2.730
13561TIP3    H140626   5.006   2.569   2.761
13561TIP3    H240627   5.109   2.468   2.715
13562TIP3   OH240628   1.752   0.295   3.657
13562TIP3    H140629   1.673   0.314   3.606
13562TIP3    H240630   1.743   0.348   3.736
13563TIP3   OH240631   6.138   6.943   4.089
13563TIP3    H140632   6.145   6.953   4.184
13563TIP3    H240633   6.149   6.849   4.074
13564TIP3   OH240634   4.193   4.337   4.423
13564TIP3    H140635   4.284   4.308   4.421
13564TIP3    H240636   4.143   4.259   4.446
13565TIP3   OH240637   6.399   0.546   2.651
13565TIP3    H140638   6.377   0.617   2.713
13565TIP3    H240639   6.335   0.478   2.670
13566TIP3   OH240640   0.728   6.801   5.499
13566TIP3    H140641   0.692   6.762   5.579
13566TIP3    H240642   0.810   6.842   5.527
13567TIP3   OH240643   7.045   2.123   2.147
13567TIP3    H140644   7.099   2.060   2.195
13567TIP3    H240645   7.075   2.209   2.176
13568TIP3   OH240646   6.169   0.969   1.239
13568TIP3    H140647   6.217   0.910   1.297
13568TIP3    H240648   6.105   1.012   1.296
13569TIP3   OH240649   1.518   0.981   4.189
13569TIP3    H140650   1.512   1.073   4.166
13569TIP3    H240651   1.443   0.940   4.145
13570TIP3   OH240652   1.050   2.823   4.886
13570TIP3    H140653   1.001   2.832   4.805
13570TIP3    H240654   0.984   2.827   4.956
13571TIP3   OH240655   4.801   1.585   0.125
13571TIP3    H140656   4.796   1.524   0.052
13571TIP3    H240657   4.722   1.567   0.177
13572TIP3   OH240658   2.399   6.303   0.392
13572TIP3    H140659   2.420   6.394   0.409
13572TIP3    H240660   2.446   6.254   0.459
13573TIP3   OH240661   0.170   3.860   5.937
13573TIP3    H140662   0.172   3.866   5.842
13573TIP3    H240663   0.182   3.767   5.956
13574TIP3   OH240664   2.638   3.796   6.032
13574TIP3    H140665   2.700   3.763   6.098
13574TIP3    H240666   2.557   3.809   6.081
13575TIP3   OH240667   5.536   3.640   0.109
13575TIP3    H140668   5.500   3.581   0.043
13575TIP3    H240669   5.580   3.583   0.172
13576TIP3   OH240670   5.544   1.636   5.555
13576TIP3    H140671   5.473   1.699   5.541
13576TIP3    H240672   5.599   1.645   5.477
13577TIP3   OH240673   7.695   2.232   1.633
13577TIP3    H140674   7.678   2.286   1.556
13577TIP3    H240675   7.626   2.165   1.630
13578TIP3   OH240676   3.289   2.526   5.130
13578TIP3    H140677   3.308   2.507   5.222
13578TIP3    H240678   3.300   2.620   5.122
13579TIP3   OH240679   4.643   3.299   2.411
13579TIP3    H140680   4.578   3.317   2.344
13579TIP3    H240681   4.668   3.208   2.396
13580TIP3   OH240682   2.014   6.061   0.472
13580TIP3    H140683   2.107   6.050   0.490
13580TIP3    H240684   2.004   6.039   0.380
13581TIP3   OH240685   8.175   3.126   1.259
13581TIP3    H140686   8.096   3.180   1.271
13581TIP3    H240687   8.247   3.187   1.274
13582TIP3   OH240688   5.411   4.510   5.466
13582TIP3    H140689   5.375   4.451   5.532
13582TIP3    H240690   5.469   4.455   5.414
13583TIP3   OH240691   7.255   0.610   3.535
13583TIP3    H140692   7.188   0.656   3.485
13583TIP3    H240693   7.272   0.530   3.486
13584TIP3   OH240694   1.073   1.558   5.821
13584TIP3    H140695   1.141   1.623   5.802
13584TIP3    H240696   1.060   1.564   5.915
13585TIP3   OH240697   1.971   6.411   4.142
13585TIP3    H140698   1.995   6.387   4.231
13585TIP3    H240699   1.930   6.333   4.106
13586TIP3   OH240700   5.689   7.033   6.338
13586TIP3    H140701   5.635   7.017   6.416
13586TIP3    H240702   5.770   7.071   6.373
13587TIP3   OH240703   5.593   1.480   5.768
13587TIP3    H140704   5.559   1.526   5.691
13587TIP3    H240705   5.519   1.480   5.830
13588TIP3   OH240706   5.626   3.265   3.986
13588TIP3    H140707   5.646   3.172   3.995
13588TIP3    H240708   5.617   3.296   4.076
13589TIP3   OH240709   0.157   0.365   2.371
13589TIP3    H140710   0.130   0.369   2.279
13589TIP3    H240711   0.238   0.415   2.375
13590TIP3   OH240712   5.595   7.522   1.922
13590TIP3    H140713   5.628   7.450   1.868
13590TIP3    H240714   5.673   7.575   1.941
13591TIP3   OH240715   2.457   6.682   4.953
13591TIP3    H140716   2.502   6.668   4.869
13591TIP3    H240717   2.459   6.777   4.965
13592TIP3   OH240718   2.237   3.911   6.664
13592TIP3    H140719   2.220   3.935   6.573
13592TIP3    H240720   2.331   3.893   6.667
13593TIP3   OH240721   3.921   0.541   0.940
13593TIP3    H140722   3.952   0.630   0.952
13593TIP3    H240723   3.827   0.550   0.922
13594TIP3   OH240724   0.561   5.360   3.268
13594TIP3    H140725   0.509   5.306   3.210
13594TIP3    H240726   0.512   5.362   3.350
13595TIP3   OH240727   7.186   0.820   1.038
13595TIP3    H140728   7.264   0.801   0.987
13595TIP3    H240729   7.206   0.901   1.084
13596TIP3   OH240730   3.076   3.207   3.256
13596TIP3    H140731   3.146   3.253   3.301
13596TIP3    H240732   3.050   3.266   3.185
13597TIP3   OH240733   4.056   2.701   6.222
13597TIP3    H140734   4.112   2.774   6.198
13597TIP3    H240735   4.111   2.623   6.209
13598TIP3   OH240736   1.405   0.856   5.012
13598TIP3    H140737   1.364   0.796   4.950
13598TIP3    H240738   1.356   0.843   5.093
13599TIP3   OH240739   2.811   0.541   0.752
13599TIP3    H140740   2.771   0.494   0.679
13599TIP3    H240741   2.786   0.491   0.829
13600TIP3   OH240742   4.280   0.836   6.646
13600TIP3    H140743   4.233   0.911   6.608
13600TIP3    H240744   4.357   0.825   6.590
13601TIP3   OH240745   3.227   6.639   3.031
13601TIP3    H140746   3.273   6.712   3.071
13601TIP3    H240747   3.231   6.657   2.937
13602TIP3   OH240748   5.905   7.086   0.588
13602TIP3    H140749   5.987   7.134   0.602
13602TIP3    H240750   5.908   7.059   0.496
13603TIP3   OH240751   0.708   4.781   1.981
13603TIP3    H140752   0.713   4.709   1.918
13603TIP3    H240753   0.718   4.860   1.929
13604TIP3   OH240754   6.778   3.126   4.612
13604TIP3    H140755   6.715   3.191   4.644
13604TIP3    H240756   6.837   3.177   4.557
13605TIP3   OH240757   7.140   7.563   4.042
13605TIP3    H140758   7.094   7.501   4.099
13605TIP3    H240759   7.094   7.558   3.958
13606TIP3   OH240760   5.668   3.613   4.220
13606TIP3    H140761   5.730   3.541   4.229
13606TIP3    H240762   5.605   3.600   4.290
13607TIP3   OH240763   6.439   5.876   2.695
13607TIP3    H140764   6.451   5.854   2.602
13607TIP3    H240765   6.519   5.923   2.718
13608TIP3   OH240766   8.106   2.347   4.383
13608TIP3    H140767   8.104   2.260   4.343
13608TIP3    H240768   8.125   2.406   4.311
13609TIP3   OH240769   7.036   4.041   1.553
13609TIP3    H140770   7.111   3.984   1.536
13609TIP3    H240771   7.040   4.058   1.647
13610TIP3   OH240772   5.868   3.435   5.505
13610TIP3    H140773   5.841   3.477   5.423
13610TIP3    H240774   5.963   3.427   5.497
13611TIP3   OH240775   6.945   3.333   4.561
13611TIP3    H140776   7.026   3.381   4.576
13611TIP3    H240777   6.878   3.401   4.556
13612TIP3   OH240778   2.433   0.498   4.865
13612TIP3    H140779   2.432   0.565   4.796
13612TIP3    H240780   2.346   0.458   4.860
13613TIP3   OH240781   8.066   4.737   3.301
13613TIP3    H140782   8.105   4.650   3.311
13613TIP3    H240783   8.112   4.791   3.365
13614TIP3   OH240784   7.263   3.080   2.031
13614TIP3    H140785   7.356   3.084   2.052
13614TIP3    H240786   7.243   2.986   2.031
13615TIP3   OH240787   5.159   2.140   3.353
13615TIP3    H140788   5.148   2.151   3.447
13615TIP3    H240789   5.088   2.190   3.313
13616TIP3   OH240790   2.876   6.182   1.384
13616TIP3    H140791   2.928   6.249   1.430
13616TIP3    H240792   2.916   6.178   1.297
13617TIP3   OH240793   5.272   6.418   6.399
13617TIP3    H140794   5.331   6.392   6.328
13617TIP3    H240795   5.315   6.386   6.478
13618TIP3   OH240796   6.024   7.449   6.521
13618TIP3    H140797   5.983   7.534   6.536
13618TIP3    H240798   6.117   7.468   6.513
13619TIP3   OH240799   0.665   3.478   3.803
13619TIP3    H140800   0.696   3.567   3.817
13619TIP3    H240801   0.591   3.468   3.862
13620TIP3   OH240802   1.912   4.644   0.469
13620TIP3    H140803   1.958   4.668   0.549
13620TIP3    H240804   1.972   4.667   0.398
13621TIP3   OH240805   0.298   3.911   6.277
13621TIP3    H140806   0.375   3.932   6.223
13621TIP3    H240807   0.272   3.995   6.315
13622TIP3   OH240808   4.051   3.020   2.321
13622TIP3    H140809   4.042   2.943   2.376
13622TIP3    H240810   3.979   3.014   2.258
13623TIP3   OH240811   6.148   6.287   5.099
13623TIP3    H140812   6.172   6.265   5.189
13623TIP3    H240813   6.057   6.258   5.091
13624TIP3   OH240814   0.959   2.551   0.854
13624TIP3    H140815   0.944   2.540   0.760
13624TIP3    H240816   0.906   2.482   0.894
13625TIP3   OH240817   2.027   6.840   3.560
13625TIP3    H140818   1.946   6.888   3.578
13625TIP3    H240819   2.097   6.901   3.584
13626TIP3   OH240820   6.352   6.521   6.629
13626TIP3    H140821   6.376   6.528   6.537
13626TIP3    H240822   6.281   6.584   6.641
13627TIP3   OH240823   4.624   4.607   4.346
13627TIP3    H140824   4.572   4.685   4.366
13627TIP3    H240825   4.582   4.537   4.395
13628TIP3   OH240826   3.599   2.885   4.457
13628TIP3    H140827   3.553   2.960   4.495
13628TIP3    H240828   3.692   2.900   4.477
13629TIP3   OH240829   3.268   2.938   5.612
13629TIP3    H140830   3.342   2.993   5.638
13629TIP3    H240831   3.295   2.849   5.635
13630TIP3   OH240832   5.750   0.409   0.232
13630TIP3    H140833   5.827   0.466   0.232
13630TIP3    H240834   5.771   0.341   0.296
13631TIP3   OH240835   2.664   2.475   5.962
13631TIP3    H140836   2.739   2.521   5.998
13631TIP3    H240837   2.686   2.382   5.972
13632TIP3   OH240838   0.386   4.405   1.022
13632TIP3    H140839   0.464   4.415   1.076
13632TIP3    H240840   0.331   4.343   1.070
13633TIP3   OH240841   6.141   7.537   0.579
13633TIP3    H140842   6.083   7.573   0.512
13633TIP3    H240843   6.126   7.590   0.656
13634TIP3   OH240844   7.870   4.112   3.490
13634TIP3    H140845   7.902   4.063   3.414
13634TIP3    H240846   7.877   4.204   3.464
13635TIP3   OH240847   0.588   2.420   2.793
13635TIP3    H140848   0.681   2.445   2.793
13635TIP3    H240849   0.549   2.474   2.862
13636TIP3   OH240850   6.624   4.057   5.430
13636TIP3    H140851   6.602   4.119   5.499
13636TIP3    H240852   6.548   4.057   5.372
13637TIP3   OH240853   0.264   1.910   2.348
13637TIP3    H140854   0.289   2.003   2.347
13637TIP3    H240855   0.280   1.882   2.438
13638TIP3   OH240856   1.198   6.684   3.360
13638TIP3    H140857   1.252   6.665   3.437
13638TIP3    H240858   1.259   6.680   3.287
13639TIP3   OH240859   4.903   2.970   2.748
13639TIP3    H140860   4.809   2.981   2.760
13639TIP3    H240861   4.942   3.027   2.814
13640TIP3   OH240862   2.769   1.885   1.441
13640TIP3    H140863   2.813   1.851   1.363
13640TIP3    H240864   2.681   1.846   1.439
13641TIP3   OH240865   0.766   2.369   6.143
13641TIP3    H140866   0.787   2.435   6.209
13641TIP3    H240867   0.832   2.381   6.075
13642TIP3   OH240868   8.116   7.587   2.570
13642TIP3    H140869   8.028   7.620   2.584
13642TIP3    H240870   8.140   7.547   2.654
13643TIP3   OH240871   0.078   2.782   3.534
13643TIP3    H140872   0.150   2.759   3.475
13643TIP3    H240873   0.089   2.876   3.549
13644TIP3   OH240874   5.724   3.162   6.175
13644TIP3    H140875   5.671   3.236   6.144
13644TIP3    H240876   5.679   3.085   6.140
13645TIP3   OH240877   6.715   3.610   0.555
13645TIP3    H140878   6.717   3.642   0.465
13645TIP3    H240879   6.753   3.682   0.606
13646TIP3   OH240880   1.797   3.344   5.550
13646TIP3    H140881   1.775   3.276   5.614
13646TIP3    H240882   1.811   3.422   5.603
13647TIP3   OH240883   3.641   6.635   6.020
13647TIP3    H140884   3.704   6.669   6.083
13647TIP3    H240885   3.622   6.709   5.962
13648TIP3   OH240886   2.156   7.569   1.320
13648TIP3    H140887   2.147   7.650   1.268
13648TIP3    H240888   2.234   7.584   1.373
13649TIP3   OH240889   6.926   5.008   1.345
13649TIP3    H140890   6.894   4.923   1.377
13649TIP3    H240891   7.021   5.003   1.354
13650TIP3   OH240892   0.457   7.204   0.846
13650TIP3    H140893   0.422   7.126   0.803
13650TIP3    H240894   0.507   7.170   0.921
13651TIP3   OH240895   3.189   4.274   4.023
13651TIP3    H140896   3.265   4.332   4.011
13651TIP3    H240897   3.174   4.274   4.117
13652TIP3   OH240898   0.844   0.490   4.927
13652TIP3    H140899   0.785   0.535   4.867
13652TIP3    H240900   0.894   0.560   4.969
13653TIP3   OH240901   4.089   5.576   3.902
13653TIP3    H140902   4.130   5.526   3.831
13653TIP3    H240903   4.160   5.590   3.965
13654TIP3   OH240904   0.469   4.426   3.751
13654TIP3    H140905   0.487   4.472   3.833
13654TIP3    H240906   0.545   4.370   3.737
13655TIP3   OH240907   2.331   1.936   0.194
13655TIP3    H140908   2.268   1.867   0.174
13655TIP3    H240909   2.391   1.935   0.120
13656TIP3   OH240910   2.705   1.350   4.812
13656TIP3    H140911   2.762   1.275   4.829
13656TIP3    H240912   2.766   1.421   4.787
13657TIP3   OH240913   6.695   5.312   5.024
13657TIP3    H140914   6.624   5.254   4.997
13657TIP3    H240915   6.772   5.277   4.980
13658TIP3   OH240916   4.016   4.842   3.985
13658TIP3    H140917   4.040   4.931   3.960
13658TIP3    H240918   4.049   4.833   4.075
13659TIP3   OH240919   3.580   2.041   3.192
13659TIP3    H140920   3.602   2.073   3.105
13659TIP3    H240921   3.641   2.087   3.250
13660TIP3   OH240922   5.027   3.493   1.666
13660TIP3    H140923   5.034   3.428   1.595
13660TIP3    H240924   5.017   3.441   1.745
13661TIP3   OH240925   0.064   6.686   4.813
13661TIP3    H140926   0.056   6.735   4.895
13661TIP3    H240927  -0.005   6.620   4.817
13662TIP3   OH240928   6.628   3.707   5.800
13662TIP3    H140929   6.679   3.781   5.833
13662TIP3    H240930   6.577   3.677   5.875
13663TIP3   OH240931   5.198   7.775   3.103
13663TIP3    H140932   5.167   7.725   3.027
13663TIP3    H240933   5.291   7.787   3.086
13664TIP3   OH240934   4.053   6.673   0.594
13664TIP3    H140935   4.086   6.696   0.508
13664TIP3    H240936   4.037   6.757   0.637
13665TIP3   OH240937   3.178   1.152   4.993
13665TIP3    H140938   3.215   1.196   5.070
13665TIP3    H240939   3.154   1.065   5.024
13666TIP3   OH240940   6.596   7.401   4.990
13666TIP3    H140941   6.594   7.307   4.976
13666TIP3    H240942   6.663   7.415   5.056
13667TIP3   OH240943   7.413   2.771   1.585
13667TIP3    H140944   7.430   2.680   1.561
13667TIP3    H240945   7.347   2.800   1.522
13668TIP3   OH240946   3.117   0.510   1.233
13668TIP3    H140947   3.118   0.501   1.138
13668TIP3    H240948   3.208   0.496   1.260
13669TIP3   OH240949   7.508   1.502   1.579
13669TIP3    H140950   7.460   1.494   1.497
13669TIP3    H240951   7.481   1.587   1.614
13670TIP3   OH240952   1.706   0.842   5.229
13670TIP3    H140953   1.659   0.759   5.223
13670TIP3    H240954   1.678   0.880   5.313
13671TIP3   OH240955   0.925   5.130   1.578
13671TIP3    H140956   0.910   5.225   1.571
13671TIP3    H240957   0.996   5.122   1.642
13672TIP3   OH240958   7.625   0.378   6.008
13672TIP3    H140959   7.576   0.446   5.961
13672TIP3    H240960   7.598   0.388   6.099
13673TIP3   OH240961   7.878   3.867   6.296
13673TIP3    H140962   7.809   3.863   6.363
13673TIP3    H240963   7.960   3.864   6.346
13674TIP3   OH240964   0.958   2.377   4.911
13674TIP3    H140965   0.924   2.398   4.824
13674TIP3    H240966   1.048   2.410   4.910
13675TIP3   OH240967   1.865   0.226   2.700
13675TIP3    H140968   1.939   0.277   2.734
13675TIP3    H240969   1.883   0.136   2.728
13676TIP3   OH240970   0.393   4.056   2.140
13676TIP3    H140971   0.461   3.999   2.175
13676TIP3    H240972   0.401   4.046   2.045
13677TIP3   OH240973   7.738   3.870   6.533
13677TIP3    H140974   7.801   3.805   6.564
13677TIP3    H240975   7.689   3.895   6.611
13678TIP3   OH240976   8.143   0.974   6.402
13678TIP3    H140977   8.193   0.963   6.483
13678TIP3    H240978   8.056   1.003   6.432
13679TIP3   OH240979   7.063   6.120   5.615
13679TIP3    H140980   7.098   6.105   5.527
13679TIP3    H240981   6.991   6.182   5.602
13680TIP3   OH240982   1.768   1.516   6.011
13680TIP3    H140983   1.859   1.489   6.014
13680TIP3    H240984   1.766   1.599   6.059
13681TIP3   OH240985   7.587   0.132   6.400
13681TIP3    H140986   7.531   0.067   6.358
13681TIP3    H240987   7.665   0.136   6.344
13682TIP3   OH240988   1.949   3.031   2.719
13682TIP3    H140989   1.868   3.056   2.675
13682TIP3    H240990   1.928   2.948   2.762
13683TIP3   OH240991   5.935   2.089   4.591
13683TIP3    H140992   6.014   2.041   4.566
13683TIP3    H240993   5.961   2.137   4.670
13684TIP3   OH240994   3.497   2.869   1.165
13684TIP3    H140995   3.469   2.781   1.139
13684TIP3    H240996   3.428   2.900   1.223
13685TIP3   OH240997   6.576   4.756   6.733
13685TIP3    H140998   6.613   4.669   6.718
13685TIP3    H240999   6.496   4.740   6.782
13686TIP3   OH241000   8.083   1.301   3.813
13686TIP3    H141001   8.070   1.228   3.751
13686TIP3    H241002   8.074   1.380   3.759
13687TIP3   OH241003   1.198   2.523   3.387
13687TIP3    H141004   1.183   2.437   3.427
13687TIP3    H241005   1.111   2.562   3.381
13688TIP3   OH241006   3.405   5.313   2.760
13688TIP3    H141007   3.497   5.322   2.787
13688TIP3    H241008   3.355   5.327   2.840
13689TIP3   OH241009   7.547   2.416   5.438
13689TIP3    H141010   7.455   2.420   5.414
13689TIP3    H241011   7.573   2.326   5.419
13690TIP3   OH241012   2.843   6.467   5.653
13690TIP3    H141013   2.865   6.425   5.736
13690TIP3    H241014   2.869   6.403   5.586
13691TIP3   OH241015   6.448   2.159   0.395
13691TIP3    H141016   6.533   2.171   0.353
13691TIP3    H241017   6.463   2.092   0.462
13692TIP3   OH241018   0.509   3.522   0.399
13692TIP3    H141019   0.537   3.596   0.452
13692TIP3    H241020   0.434   3.554   0.349
13693TIP3   OH241021   8.122   3.988   2.138
13693TIP3    H141022   8.063   4.010   2.210
13693TIP3    H241023   8.186   3.928   2.176
13694TIP3   OH241024   5.094   3.719   1.813
13694TIP3    H141025   5.051   3.674   1.740
13694TIP3    H241026   5.139   3.650   1.861
13695TIP3   OH241027   4.130   2.260   0.500
13695TIP3    H141028   4.186   2.271   0.576
13695TIP3    H241029   4.142   2.340   0.449
13696TIP3   OH241030   1.406   6.775   1.382
13696TIP3    H141031   1.418   6.841   1.313
13696TIP3    H241032   1.367   6.824   1.454
13697TIP3   OH241033   4.931   5.652   0.579
13697TIP3    H141034   4.966   5.568   0.609
13697TIP3    H241035   4.873   5.680   0.650
13698TIP3   OH241036   4.686   7.779   6.216
13698TIP3    H141037   4.605   7.732   6.236
13698TIP3    H241038   4.738   7.716   6.165
13699TIP3   OH241039   4.160   6.369   5.442
13699TIP3    H141040   4.087   6.318   5.478
13699TIP3    H241041   4.192   6.317   5.369
13700TIP3   OH241042   2.863   6.949   6.754
13700TIP3    H141043   2.832   6.902   6.677
13700TIP3    H241044   2.930   7.009   6.720
13701TIP3   OH241045   3.233   1.620   4.377
13701TIP3    H141046   3.159   1.676   4.355
13701TIP3    H241047   3.293   1.628   4.303
13702TIP3   OH241048   3.106   2.627   0.793
13702TIP3    H141049   3.110   2.540   0.832
13702TIP3    H241050   3.189   2.668   0.816
13703TIP3   OH241051   2.414   1.517   4.873
13703TIP3    H141052   2.381   1.436   4.833
13703TIP3    H241053   2.377   1.517   4.962
13704TIP3   OH241054   2.416   2.843   3.517
13704TIP3    H141055   2.469   2.773   3.556
13704TIP3    H241056   2.467   2.873   3.442
13705TIP3   OH241057   1.009   3.555   6.091
13705TIP3    H141058   0.993   3.520   6.179
13705TIP3    H241059   1.079   3.501   6.056
13706TIP3   OH241060   7.197   6.514   1.286
13706TIP3    H141061   7.230   6.454   1.353
13706TIP3    H241062   7.274   6.533   1.232
13707TIP3   OH241063   3.250   4.626   3.272
13707TIP3    H141064   3.341   4.627   3.242
13707TIP3    H241065   3.256   4.650   3.365
13708TIP3   OH241066   0.751   2.667   6.095
13708TIP3    H141067   0.771   2.754   6.062
13708TIP3    H241068   0.656   2.666   6.103
13709TIP3   OH241069   8.126   4.912   5.083
13709TIP3    H141070   8.171   4.982   5.037
13709TIP3    H241071   8.046   4.897   5.032
13710TIP3   OH241072   5.080   3.709   0.553
13710TIP3    H141073   5.086   3.711   0.649
13710TIP3    H241074   5.007   3.769   0.533
13711TIP3   OH241075   4.218   1.379   2.004
13711TIP3    H141076   4.206   1.467   2.041
13711TIP3    H241077   4.169   1.322   2.064
13712TIP3   OH241078   7.805   3.224   2.182
13712TIP3    H141079   7.793   3.182   2.097
13712TIP3    H241080   7.832   3.152   2.241
13713TIP3   OH241081   5.655   0.009   4.963
13713TIP3    H141082   5.657  -0.065   4.902
13713TIP3    H241083   5.705   0.078   4.920
13714TIP3   OH241084   1.228   6.614   0.653
13714TIP3    H141085   1.248   6.581   0.565
13714TIP3    H241086   1.168   6.687   0.639
13715TIP3   OH241087   7.474   6.548   6.588
13715TIP3    H141088   7.488   6.493   6.665
13715TIP3    H241089   7.477   6.638   6.621
13716TIP3   OH241090   2.160   5.537   5.561
13716TIP3    H141091   2.188   5.602   5.625
13716TIP3    H241092   2.185   5.453   5.600
13717TIP3   OH241093   7.694   7.239   0.369
13717TIP3    H141094   7.648   7.223   0.286
13717TIP3    H241095   7.694   7.153   0.412
13718TIP3   OH241096   4.382   5.064   3.209
13718TIP3    H141097   4.434   5.122   3.264
13718TIP3    H241098   4.442   5.036   3.140
13719TIP3   OH241099   2.706   3.381   5.658
13719TIP3    H141100   2.710   3.477   5.658
13719TIP3    H241101   2.774   3.354   5.720
13720TIP3   OH241102   4.421   2.735   0.705
13720TIP3    H141103   4.353   2.790   0.744
13720TIP3    H241104   4.418   2.754   0.612
13721TIP3   OH241105   2.222   3.322   5.085
13721TIP3    H141106   2.311   3.354   5.072
13721TIP3    H241107   2.218   3.297   5.177
13722TIP3   OH241108   7.337   1.414   3.923
13722TIP3    H141109   7.277   1.371   3.984
13722TIP3    H241110   7.307   1.505   3.919
13723TIP3   OH241111   1.080   1.571   6.093
13723TIP3    H141112   1.036   1.536   6.170
13723TIP3    H241113   1.168   1.533   6.096
13724TIP3   OH241114   1.338   3.231   5.110
13724TIP3    H141115   1.245   3.218   5.089
13724TIP3    H241116   1.384   3.172   5.050
13725TIP3   OH241117   0.392   5.305   4.288
13725TIP3    H141118   0.483   5.332   4.300
13725TIP3    H241119   0.342   5.365   4.342
13726TIP3   OH241120   0.194   3.754   1.706
13726TIP3    H141121   0.099   3.756   1.722
13726TIP3    H241122   0.219   3.664   1.724
13727TIP3   OH241123   4.659   6.437   3.238
13727TIP3    H141124   4.600   6.509   3.262
13727TIP3    H241125   4.651   6.432   3.142
13728TIP3   OH241126   0.877   4.066   3.093
13728TIP3    H141127   0.882   4.161   3.085
13728TIP3    H241128   0.843   4.052   3.182
13729TIP3   OH241129   2.176   5.249   1.526
13729TIP3    H141130   2.191   5.175   1.466
13729TIP3    H241131   2.081   5.248   1.541
13730TIP3   OH241132   1.989   1.176   2.830
13730TIP3    H141133   2.031   1.219   2.904
13730TIP3    H241134   1.912   1.133   2.868
13731TIP3   OH241135   3.357   4.124   1.696
13731TIP3    H141136   3.394   4.137   1.783
13731TIP3    H241137   3.432   4.109   1.639
13732TIP3   OH241138   4.111   3.565   1.487
13732TIP3    H141139   4.113   3.646   1.538
13732TIP3    H241140   4.203   3.548   1.466
13733TIP3   OH241141   1.702   5.941   0.150
13733TIP3    H141142   1.626   5.893   0.183
13733TIP3    H241143   1.674   5.971   0.063
13734TIP3   OH241144   2.907   4.705   3.401
13734TIP3    H141145   2.945   4.756   3.472
13734TIP3    H241146   2.955   4.733   3.323
13735TIP3   OH241147   3.880   1.090   4.652
13735TIP3    H141148   3.789   1.081   4.623
13735TIP3    H241149   3.894   1.016   4.711
13736TIP3   OH241150   6.517   6.499   0.169
13736TIP3    H141151   6.555   6.435   0.108
13736TIP3    H241152   6.587   6.563   0.183
13737TIP3   OH241153   2.556   4.463   0.516
13737TIP3    H141154   2.618   4.504   0.455
13737TIP3    H241155   2.612   4.419   0.581
13738TIP3   OH241156   6.479   1.332   1.569
13738TIP3    H141157   6.500   1.240   1.583
13738TIP3    H241158   6.429   1.334   1.487
13739TIP3   OH241159   6.210   6.851   0.597
13739TIP3    H141160   6.221   6.804   0.514
13739TIP3    H241161   6.175   6.937   0.571
13740TIP3   OH241162   4.213   3.737   0.680
13740TIP3    H141163   4.122   3.709   0.692
13740TIP3    H241164   4.259   3.658   0.652
13741TIP3   OH241165   7.168   4.342   4.384
13741TIP3    H141166   7.159   4.265   4.440
13741TIP3    H241167   7.259   4.342   4.357
13742TIP3   OH241168   2.351   2.829   0.109
13742TIP3    H141169   2.430   2.792   0.149
13742TIP3    H241170   2.292   2.754   0.098
13743TIP3   OH241171   7.537   0.913   5.272
13743TIP3    H141172   7.557   0.984   5.211
13743TIP3    H241173   7.623   0.876   5.295
13744TIP3   OH241174   0.384   0.744   5.993
13744TIP3    H141175   0.385   0.802   5.917
13744TIP3    H241176   0.314   0.682   5.976
13745TIP3   OH241177   5.923   6.402   5.263
13745TIP3    H141178   5.871   6.462   5.318
13745TIP3    H241179   5.989   6.458   5.224
13746TIP3   OH241180   4.514   0.276   6.345
13746TIP3    H141181   4.440   0.215   6.343
13746TIP3    H241182   4.524   0.304   6.254
13747TIP3   OH241183   7.047   4.874   4.888
13747TIP3    H141184   7.109   4.917   4.830
13747TIP3    H241185   6.976   4.846   4.831
13748TIP3   OH241186   4.057   6.178   4.895
13748TIP3    H141187   4.011   6.253   4.859
13748TIP3    H241188   4.002   6.147   4.966
13749TIP3   OH241189   3.933   6.249   2.700
13749TIP3    H141190   3.918   6.192   2.624
13749TIP3    H241191   3.880   6.211   2.769
13750TIP3   OH241192   2.419   5.784   5.001
13750TIP3    H141193   2.497   5.737   5.030
13750TIP3    H241194   2.452   5.867   4.967
13751TIP3   OH241195   0.724   2.081   4.559
13751TIP3    H141196   0.697   2.169   4.584
13751TIP3    H241197   0.648   2.026   4.576
13752TIP3   OH241198   8.010   5.288   4.753
13752TIP3    H141199   8.024   5.209   4.701
13752TIP3    H241200   7.942   5.264   4.816
13753TIP3   OH241201   3.962   2.818   3.869
13753TIP3    H141202   3.952   2.791   3.778
13753TIP3    H241203   3.874   2.809   3.906
13754TIP3   OH241204   0.375   7.765   4.330
13754TIP3    H141205   0.444   7.781   4.265
13754TIP3    H241206   0.411   7.697   4.387
13755TIP3   OH241207   2.913   0.208   1.830
13755TIP3    H141208   2.921   0.198   1.924
13755TIP3    H241209   2.958   0.132   1.793
13756TIP3   OH241210   5.472   4.768   4.415
13756TIP3    H141211   5.386   4.787   4.378
13756TIP3    H241212   5.534   4.805   4.352
13757TIP3   OH241213   7.987   1.323   4.787
13757TIP3    H141214   8.056   1.261   4.810
13757TIP3    H241215   7.915   1.269   4.755
13758TIP3   OH241216   7.253   1.632   2.443
13758TIP3    H141217   7.348   1.635   2.451
13758TIP3    H241218   7.221   1.691   2.512
13759TIP3   OH241219   6.031   1.449   1.763
13759TIP3    H141220   6.057   1.449   1.671
13759TIP3    H241221   5.944   1.489   1.763
13760TIP3   OH241222   1.073   6.514   5.698
13760TIP3    H141223   1.054   6.467   5.618
13760TIP3    H241224   0.988   6.549   5.727
13761TIP3   OH241225   3.037   4.520   0.967
13761TIP3    H141226   3.029   4.439   1.017
13761TIP3    H241227   3.045   4.589   1.033
13762TIP3   OH241228   4.463   4.125   2.329
13762TIP3    H141229   4.468   4.103   2.236
13762TIP3    H241230   4.369   4.133   2.347
13763TIP3   OH241231   0.946   3.652   5.142
13763TIP3    H141232   0.948   3.562   5.110
13763TIP3    H241233   0.858   3.662   5.179
13764TIP3   OH241234   5.317   4.251   0.529
13764TIP3    H141235   5.329   4.205   0.446
13764TIP3    H241236   5.348   4.340   0.513
13765TIP3   OH241237   0.795   1.397   0.951
13765TIP3    H141238   0.803   1.399   0.856
13765TIP3    H241239   0.717   1.346   0.968
13766TIP3   OH241240   4.972   2.654   6.255
13766TIP3    H141241   5.042   2.614   6.203
13766TIP3    H241242   4.960   2.594   6.329
13767TIP3   OH241243   7.313   5.043   1.825
13767TIP3    H141244   7.276   5.008   1.744
13767TIP3    H241245   7.360   5.122   1.798
13768TIP3   OH241246   3.099   2.967   3.560
13768TIP3    H141247   3.149   2.919   3.493
13768TIP3    H241248   3.165   3.017   3.608
13769TIP3   OH241249   6.333   4.196   6.054
13769TIP3    H141250   6.357   4.282   6.019
13769TIP3    H241251   6.416   4.159   6.084
13770TIP3   OH241252   7.272   1.808   0.928
13770TIP3    H141253   7.341   1.798   0.862
13770TIP3    H241254   7.193   1.774   0.885
13771TIP3   OH241255   8.018   4.507   0.619
13771TIP3    H141256   8.082   4.522   0.689
13771TIP3    H241257   8.033   4.578   0.557
13772TIP3   OH241258   4.408   5.040   2.762
13772TIP3    H141259   4.449   5.114   2.717
13772TIP3    H241260   4.392   4.975   2.694
13773TIP3   OH241261   5.291   0.952   0.775
13773TIP3    H141262   5.236   0.877   0.748
13773TIP3    H241263   5.374   0.938   0.729
13774TIP3   OH241264   0.704   7.280   6.270
13774TIP3    H141265   0.793   7.246   6.265
13774TIP3    H241266   0.675   7.286   6.179
13775TIP3   OH241267   6.606   7.675   6.708
13775TIP3    H141268   6.605   7.581   6.695
13775TIP3    H241269   6.555   7.689   6.788
13776TIP3   OH241270   4.872   2.791   5.316
13776TIP3    H141271   4.831   2.777   5.401
13776TIP3    H241272   4.956   2.746   5.322
13777TIP3   OH241273   4.688   6.683   2.152
13777TIP3    H141274   4.618   6.727   2.201
13777TIP3    H241275   4.754   6.751   2.139
13778TIP3   OH241276   7.260   6.308   3.852
13778TIP3    H141277   7.220   6.377   3.906
13778TIP3    H241278   7.196   6.237   3.853
13779TIP3   OH241279   7.588   2.751   2.770
13779TIP3    H141280   7.510   2.788   2.813
13779TIP3    H241281   7.613   2.818   2.706
13780TIP3   OH241282   5.044   3.686   2.257
13780TIP3    H141283   5.001   3.601   2.265
13780TIP3    H241284   4.979   3.743   2.215
13781TIP3   OH241285   5.420   6.048   1.250
13781TIP3    H141286   5.380   5.961   1.239
13781TIP3    H241287   5.360   6.107   1.203
13782TIP3   OH241288   8.252   5.176   2.351
13782TIP3    H141289   8.346   5.158   2.346
13782TIP3    H241290   8.223   5.129   2.429
13783TIP3   OH241291   3.554   1.449   6.327
13783TIP3    H141292   3.562   1.427   6.235
13783TIP3    H241293   3.643   1.477   6.352
13784TIP3   OH241294   2.252   2.203   0.922
13784TIP3    H141295   2.280   2.135   0.861
13784TIP3    H241296   2.234   2.279   0.866
13785TIP3   OH241297   7.609   7.358   3.038
13785TIP3    H141298   7.546   7.318   2.979
13785TIP3    H241299   7.574   7.446   3.054
13786TIP3   OH241300   5.598   6.047   0.064
13786TIP3    H141301   5.503   6.042   0.072
13786TIP3    H241302   5.619   5.992  -0.012
13787TIP3   OH241303   6.300   1.831   6.140
13787TIP3    H141304   6.231   1.884   6.101
13787TIP3    H241305   6.272   1.741   6.123
13788TIP3   OH241306   7.962   1.219   4.039
13788TIP3    H141307   8.007   1.256   3.963
13788TIP3    H241308   7.962   1.289   4.104
13789TIP3   OH241309   2.967   6.799   1.861
13789TIP3    H141310   3.015   6.735   1.914
13789TIP3    H241311   3.028   6.821   1.790
13790TIP3   OH241312   6.957   7.277   2.027
13790TIP3    H141313   6.915   7.315   1.949
13790TIP3    H241314   6.915   7.191   2.037
13791TIP3   OH241315   2.795   4.265   0.059
13791TIP3    H141316   2.881   4.239   0.091
13791TIP3    H241317   2.735   4.199   0.094
13792TIP3   OH241318   5.181   7.415   5.947
13792TIP3    H141319   5.170   7.329   5.987
13792TIP3    H241320   5.091   7.444   5.929
13793TIP3   OH241321   1.091   7.509   4.571
13793TIP3    H141322   1.097   7.437   4.507
13793TIP3    H241323   1.007   7.550   4.553
13794TIP3   OH241324   1.309   0.059   0.196
13794TIP3    H141325   1.370  -0.007   0.165
13794TIP3    H241326   1.356   0.103   0.267
13795TIP3   OH241327   5.788   0.860   3.827
13795TIP3    H141328   5.841   0.880   3.750
13795TIP3    H241329   5.853   0.844   3.896
13796TIP3   OH241330   0.825   0.335   5.758
13796TIP3    H141331   0.917   0.356   5.769
13796TIP3    H241332   0.779   0.415   5.787
13797TIP3   OH241333   5.831   0.051   3.769
13797TIP3    H141334   5.837   0.089   3.682
13797TIP3    H241335   5.766  -0.019   3.759
13798TIP3   OH241336   1.038   1.717   1.160
13798TIP3    H141337   1.067   1.795   1.207
13798TIP3    H241338   0.953   1.743   1.122
13799TIP3   OH241339   4.320   0.327   4.370
13799TIP3    H141340   4.339   0.255   4.430
13799TIP3    H241341   4.373   0.309   4.293
13800TIP3   OH241342   0.378   7.319   5.939
13800TIP3    H141343   0.468   7.300   5.964
13800TIP3    H241344   0.353   7.248   5.880
13801TIP3   OH241345   4.121   7.586   2.781
13801TIP3    H141346   4.149   7.495   2.773
13801TIP3    H241347   4.032   7.587   2.744
13802TIP3   OH241348   5.957   1.730   4.445
13802TIP3    H141349   5.899   1.744   4.370
13802TIP3    H241350   6.016   1.805   4.445
13803TIP3   OH241351   0.144   2.748   1.802
13803TIP3    H141352   0.207   2.796   1.748
13803TIP3    H241353   0.065   2.744   1.747
13804TIP3   OH241354   5.258   2.688   6.344
13804TIP3    H141355   5.253   2.625   6.273
13804TIP3    H241356   5.318   2.755   6.313
13805TIP3   OH241357   3.090   3.678   3.664
13805TIP3    H141358   3.167   3.649   3.714
13805TIP3    H241359   3.032   3.602   3.662
13806TIP3   OH241360   4.887   6.780   5.460
13806TIP3    H141361   4.821   6.722   5.497
13806TIP3    H241362   4.870   6.777   5.365
13807TIP3   OH241363   3.089   2.368   4.572
13807TIP3    H141364   3.060   2.282   4.540
13807TIP3    H241365   3.145   2.347   4.647
13808TIP3   OH241366   3.598   2.905   4.193
13808TIP3    H141367   3.628   2.914   4.283
13808TIP3    H241368   3.504   2.922   4.196
13809TIP3   OH241369   1.647   2.009   6.503
13809TIP3    H141370   1.608   1.943   6.560
13809TIP3    H241371   1.693   1.957   6.436
13810TIP3   OH241372   5.038   2.277   2.405
13810TIP3    H141373   5.102   2.215   2.439
13810TIP3    H241374   5.086   2.359   2.394
13811TIP3   OH241375   7.047   4.158   2.708
13811TIP3    H141376   7.122   4.205   2.746
13811TIP3    H241377   7.051   4.180   2.615
13812TIP3   OH241378   0.737   4.500   1.462
13812TIP3    H141379   0.669   4.540   1.408
13812TIP3    H241380   0.806   4.566   1.467
13813TIP3   OH241381   1.718   3.703   1.928
13813TIP3    H141382   1.725   3.789   1.968
13813TIP3    H241383   1.642   3.709   1.870
13814TIP3   OH241384   1.084   0.112   6.087
13814TIP3    H141385   1.049   0.146   6.170
13814TIP3    H241386   1.106   0.191   6.036
13815TIP3   OH241387   0.379   6.208   4.704
13815TIP3    H141388   0.324   6.286   4.715
13815TIP3    H241389   0.336   6.158   4.636
13816TIP3   OH241390   1.008   1.897   5.959
13816TIP3    H141391   0.917   1.870   5.951
13816TIP3    H241392   1.020   1.916   6.052
13817TIP3   OH241393   1.504   3.828   3.246
13817TIP3    H141394   1.464   3.880   3.176
13817TIP3    H241395   1.563   3.768   3.201
13818TIP3   OH241396   1.562   1.118   1.541
13818TIP3    H141397   1.579   1.095   1.633
13818TIP3    H241398   1.547   1.212   1.542
13819TIP3   OH241399   3.782   3.279   2.902
13819TIP3    H141400   3.853   3.215   2.913
13819TIP3    H241401   3.721   3.236   2.842
13820TIP3   OH241402   5.334   6.745   3.804
13820TIP3    H141403   5.289   6.829   3.812
13820TIP3    H241404   5.402   6.748   3.872
13821TIP3   OH241405   1.319   2.284   6.329
13821TIP3    H141406   1.361   2.278   6.415
13821TIP3    H241407   1.390   2.270   6.266
13822TIP3   OH241408   8.323   7.225   2.343
13822TIP3    H141409   8.259   7.277   2.294
13822TIP3    H241410   8.270   7.176   2.406
13823TIP3   OH241411   7.639   5.578   6.557
13823TIP3    H141412   7.610   5.663   6.591
13823TIP3    H241413   7.590   5.514   6.609
13824TIP3   OH241414   0.566   3.483   6.456
13824TIP3    H141415   0.574   3.449   6.545
13824TIP3    H241416   0.560   3.404   6.401
13825TIP3   OH241417   0.696   6.967   4.836
13825TIP3    H141418   0.614   6.921   4.819
13825TIP3    H241419   0.673   7.059   4.833
13826TIP3   OH241420   6.124   2.342   6.292
13826TIP3    H141421   6.207   2.324   6.335
13826TIP3    H241422   6.142   2.416   6.235
13827TIP3   OH241423   6.823   1.669   1.640
13827TIP3    H141424   6.796   1.673   1.731
13827TIP3    H241425   6.917   1.687   1.642
13828TIP3   OH241426   7.864   0.391   0.750
13828TIP3    H141427   7.881   0.303   0.717
13828TIP3    H241428   7.779   0.415   0.712
13829TIP3   OH241429   3.968   4.404   1.632
13829TIP3    H141430   3.992   4.447   1.714
13829TIP3    H241431   3.880   4.434   1.613
13830TIP3   OH241432   0.934   3.467   4.094
13830TIP3    H141433   1.005   3.453   4.031
13830TIP3    H241434   0.894   3.549   4.067
13831TIP3   OH241435   3.178   2.950   0.813
13831TIP3    H141436   3.090   2.976   0.785
13831TIP3    H241437   3.207   3.021   0.871
13832TIP3   OH241438   0.594   3.259   3.403
13832TIP3    H141439   0.603   3.230   3.312
13832TIP3    H241440   0.518   3.211   3.436
13833TIP3   OH241441   3.544   5.874   4.222
13833TIP3    H141442   3.624   5.887   4.272
13833TIP3    H241443   3.534   5.778   4.216
13834TIP3   OH241444   5.803   0.704   3.572
13834TIP3    H141445   5.707   0.710   3.568
13834TIP3    H241446   5.820   0.620   3.616
13835TIP3   OH241447   4.842   7.748   5.720
13835TIP3    H141448   4.753   7.737   5.685
13835TIP3    H241449   4.830   7.770   5.812
13836TIP3   OH241450   2.722   6.087   6.742
13836TIP3    H141451   2.750   6.016   6.685
13836TIP3    H241452   2.749   6.167   6.697
13837TIP3   OH241453   4.460   6.860   6.503
13837TIP3    H141454   4.429   6.833   6.417
13837TIP3    H241455   4.533   6.919   6.485
13838TIP3   OH241456   4.594   2.620   2.850
13838TIP3    H141457   4.655   2.634   2.777
13838TIP3    H241458   4.535   2.552   2.819
13839TIP3   OH241459   3.412   3.712   4.853
13839TIP3    H141460   3.320   3.713   4.879
13839TIP3    H241461   3.411   3.703   4.758
13840TIP3   OH241462   0.952   2.147   0.540
13840TIP3    H141463   0.881   2.125   0.600
13840TIP3    H241464   0.988   2.062   0.513
13841TIP3   OH241465   5.845   0.484   4.431
13841TIP3    H141466   5.793   0.452   4.357
13841TIP3    H241467   5.918   0.422   4.437
13842TIP3   OH241468   8.239   6.819   0.169
13842TIP3    H141469   8.175   6.756   0.202
13842TIP3    H241470   8.288   6.771   0.102
13843TIP3   OH241471   4.901   3.839   6.416
13843TIP3    H141472   4.975   3.826   6.356
13843TIP3    H241473   4.830   3.872   6.359
13844TIP3   OH241474   7.067   5.923   3.024
13844TIP3    H141475   7.156   5.956   3.016
13844TIP3    H241476   7.011   5.996   2.996
13845TIP3   OH241477   1.326   3.536   3.054
13845TIP3    H141478   1.318   3.598   2.981
13845TIP3    H241479   1.242   3.543   3.100
13846TIP3   OH241480   0.796   4.998   1.390
13846TIP3    H141481   0.847   5.041   1.459
13846TIP3    H241482   0.716   4.970   1.434
13847TIP3   OH241483   2.980   3.838   2.366
13847TIP3    H141484   2.892   3.874   2.352
13847TIP3    H241485   3.004   3.800   2.281
13848TIP3   OH241486   5.041   1.926   1.483
13848TIP3    H141487   5.124   1.891   1.453
13848TIP3    H241488   4.985   1.928   1.405
13849TIP3   OH241489   1.638   2.993   2.291
13849TIP3    H141490   1.627   3.078   2.249
13849TIP3    H241491   1.561   2.943   2.262
13850TIP3   OH241492   0.173   7.086   2.946
13850TIP3    H141493   0.181   7.101   2.852
13850TIP3    H241494   0.117   7.008   2.953
13851TIP3   OH241495   1.582   0.185   2.842
13851TIP3    H141496   1.605   0.097   2.814
13851TIP3    H241497   1.608   0.242   2.769
13852TIP3   OH241498   5.091   2.223   5.736
13852TIP3    H141499   5.159   2.291   5.735
13852TIP3    H241500   5.065   2.216   5.828
13853TIP3   OH241501   5.490   0.036   3.941
13853TIP3    H141502   5.409   0.005   3.982
13853TIP3    H241503   5.496   0.128   3.965
13854TIP3   OH241504   4.819   7.690   5.327
13854TIP3    H141505   4.739   7.639   5.342
13854TIP3    H241506   4.889   7.625   5.331
13855TIP3   OH241507   6.538   0.210   2.571
13855TIP3    H141508   6.606   0.143   2.567
13855TIP3    H241509   6.568   0.278   2.511
13856TIP3   OH241510   5.750   2.455   0.878
13856TIP3    H141511   5.787   2.369   0.862
13856TIP3    H241512   5.677   2.463   0.816
13857TIP3   OH241513   7.130   4.818   6.336
13857TIP3    H141514   7.161   4.831   6.426
13857TIP3    H241515   7.203   4.772   6.293
13858TIP3   OH241516   2.058   3.263   0.385
13858TIP3    H141517   2.040   3.230   0.298
13858TIP3    H241518   2.137   3.216   0.413
13859TIP3   OH241519   2.888   1.568   4.780
13859TIP3    H141520   2.917   1.653   4.813
13859TIP3    H241521   2.941   1.553   4.702
13860TIP3   OH241522   1.142   3.896   3.322
13860TIP3    H141523   1.120   3.804   3.309
13860TIP3    H241524   1.213   3.913   3.259
13861TIP3   OH241525   6.310   6.153   0.889
13861TIP3    H141526   6.274   6.239   0.867
13861TIP3    H241527   6.251   6.118   0.956
13862TIP3   OH241528   4.984   4.693   0.504
13862TIP3    H141529   5.045   4.621   0.487
13862TIP3    H241530   4.971   4.734   0.418
13863TIP3   OH241531   6.439   1.785   1.626
13863TIP3    H141532   6.436   1.855   1.691
13863TIP3    H241533   6.463   1.707   1.675
13864TIP3   OH241534   3.363   2.823   2.889
13864TIP3    H141535   3.403   2.801   2.804
13864TIP3    H241536   3.375   2.917   2.897
13865TIP3   OH241537   2.311   3.467   0.055
13865TIP3    H141538   2.342   3.557   0.066
13865TIP3    H241539   2.327   3.426   0.140
13866TIP3   OH241540   2.034   5.872   5.412
13866TIP3    H141541   1.942   5.861   5.389
13866TIP3    H241542   2.044   5.965   5.432
13867TIP3   OH241543   4.397   7.582   5.116
13867TIP3    H141544   4.481   7.619   5.088
13867TIP3    H241545   4.343   7.582   5.037
13868TIP3   OH241546   7.242   2.058   1.080
13868TIP3    H141547   7.237   2.134   1.021
13868TIP3    H241548   7.277   1.988   1.025
13869TIP3   OH241549   1.036   2.683   1.741
13869TIP3    H141550   1.022   2.722   1.827
13869TIP3    H241551   0.949   2.655   1.712
13870TIP3   OH241552   8.271   1.981   6.190
13870TIP3    H141553   8.295   2.073   6.206
13870TIP3    H241554   8.192   1.985   6.137
13871TIP3   OH241555   0.021   7.253   3.128
13871TIP3    H141556   0.080   7.307   3.182
13871TIP3    H241557   0.077   7.185   3.092
13872TIP3   OH241558   5.594   3.172   1.839
13872TIP3    H141559   5.574   3.194   1.748
13872TIP3    H241560   5.515   3.129   1.872
13873TIP3   OH241561   2.038   3.417   1.838
13873TIP3    H141562   2.093   3.435   1.915
13873TIP3    H241563   1.970   3.358   1.870
13874TIP3   OH241564   2.637   0.612   2.624
13874TIP3    H141565   2.729   0.636   2.640
13874TIP3    H241566   2.636   0.582   2.533
13875TIP3   OH241567   0.635   3.383   2.821
13875TIP3    H141568   0.594   3.425   2.897
13875TIP3    H241569   0.630   3.289   2.840
13876TIP3   OH241570   3.435   1.166   5.869
13876TIP3    H141571   3.495   1.093   5.854
13876TIP3    H241572   3.374   1.134   5.935
13877TIP3   OH241573   2.675   7.510   0.516
13877TIP3    H141574   2.680   7.483   0.424
13877TIP3    H241575   2.717   7.439   0.564
13878TIP3   OH241576   6.508   1.554   4.429
13878TIP3    H141577   6.582   1.522   4.377
13878TIP3    H241578   6.483   1.479   4.483
13879TIP3   OH241579   4.151   6.821   3.139
13879TIP3    H141580   4.168   6.815   3.233
13879TIP3    H241581   4.103   6.741   3.119
13880TIP3   OH241582   1.955   5.119   3.106
13880TIP3    H141583   1.916   5.193   3.060
13880TIP3    H241584   1.886   5.087   3.164
13881TIP3   OH241585   3.291   6.423   3.805
13881TIP3    H141586   3.258   6.340   3.771
13881TIP3    H241587   3.301   6.479   3.728
13882TIP3   OH241588   1.400   6.665   0.850
13882TIP3    H141589   1.453   6.591   0.819
13882TIP3    H241590   1.327   6.669   0.788
13883TIP3   OH241591   4.837   7.187   2.489
13883TIP3    H141592   4.845   7.267   2.437
13883TIP3    H241593   4.794   7.125   2.430
13884TIP3   OH241594   4.465   3.507   3.558
13884TIP3    H141595   4.450   3.450   3.483
13884TIP3    H241596   4.476   3.595   3.520
13885TIP3   OH241597   0.619   6.587   3.099
13885TIP3    H141598   0.536   6.573   3.143
13885TIP3    H241599   0.676   6.625   3.166
13886TIP3   OH241600   3.050   4.512   6.514
13886TIP3    H141601   2.971   4.543   6.557
13886TIP3    H241602   3.065   4.425   6.551
13887TIP3   OH241603   3.020   4.955   1.689
13887TIP3    H141604   3.079   4.890   1.727
13887TIP3    H241605   3.051   5.039   1.721
13888TIP3   OH241606   7.529   2.951   0.077
13888TIP3    H141607   7.514   2.885   0.144
13888TIP3    H241608   7.472   3.024   0.102
13889TIP3   OH241609   1.106   5.081   5.336
13889TIP3    H141610   1.158   5.160   5.350
13889TIP3    H241611   1.015   5.108   5.352
13890TIP3   OH241612   3.483   5.106   2.192
13890TIP3    H141613   3.456   5.035   2.251
13890TIP3    H241614   3.402   5.152   2.170
13891TIP3   OH241615   2.095   3.393   0.976
13891TIP3    H141616   2.038   3.370   0.903
13891TIP3    H241617   2.068   3.335   1.047
13892TIP3   OH241618   7.237   2.571   2.783
13892TIP3    H141619   7.236   2.591   2.689
13892TIP3    H241620   7.217   2.655   2.825
13893TIP3   OH241621   2.213   6.801   1.650
13893TIP3    H141622   2.198   6.803   1.745
13893TIP3    H241623   2.152   6.866   1.615
13894TIP3   OH241624   5.386   1.597   2.743
13894TIP3    H141625   5.451   1.537   2.708
13894TIP3    H241626   5.302   1.557   2.719
13895TIP3   OH241627   4.795   4.486   0.621
13895TIP3    H141628   4.860   4.552   0.598
13895TIP3    H241629   4.770   4.446   0.538
13896TIP3   OH241630   7.820   4.961   5.066
13896TIP3    H141631   7.856   5.049   5.056
13896TIP3    H241632   7.879   4.917   5.127
13897TIP3   OH241633   0.704   4.425   4.327
13897TIP3    H141634   0.798   4.443   4.317
13897TIP3    H241635   0.685   4.357   4.262
13898TIP3   OH241636  -0.012   4.036   1.307
13898TIP3    H141637   0.012   3.947   1.280
13898TIP3    H241638   0.028   4.046   1.393
13899TIP3   OH241639   3.342   1.415   4.728
13899TIP3    H141640   3.263   1.437   4.777
13899TIP3    H241641   3.386   1.348   4.780
13900TIP3   OH241642   5.582   5.136   1.088
13900TIP3    H141643   5.573   5.043   1.066
13900TIP3    H241644   5.510   5.179   1.042
13901TIP3   OH241645   2.190   2.705   4.012
13901TIP3    H141646   2.113   2.735   3.965
13901TIP3    H241647   2.188   2.752   4.095
13902TIP3   OH241648   2.749   1.761   1.038
13902TIP3    H141649   2.703   1.844   1.026
13902TIP3    H241650   2.680   1.700   1.067
13903TIP3   OH241651   6.794   0.275   1.633
13903TIP3    H141652   6.772   0.196   1.681
13903TIP3    H241653   6.833   0.333   1.699
13904TIP3   OH241654   7.041   3.533   6.040
13904TIP3    H141655   7.037   3.515   6.134
13904TIP3    H241656   7.072   3.624   6.035
13905TIP3   OH241657   3.177   2.299   3.405
13905TIP3    H141658   3.235   2.373   3.385
13905TIP3    H241659   3.174   2.249   3.323
13906TIP3   OH241660   4.323   2.000   1.951
13906TIP3    H141661   4.228   1.993   1.960
13906TIP3    H241662   4.356   1.914   1.978
13907TIP3   OH241663   8.025   3.135   3.118
13907TIP3    H141664   8.068   3.067   3.170
13907TIP3    H241665   8.095   3.174   3.066
13908TIP3   OH241666   1.977   4.461   5.741
13908TIP3    H141667   1.971   4.428   5.831
13908TIP3    H241668   1.886   4.460   5.710
13909TIP3   OH241669   0.020   4.659   3.669
13909TIP3    H141670   0.054   4.635   3.583
13909TIP3    H241671   0.077   4.731   3.698
13910TIP3   OH241672   3.613   0.308   5.724
13910TIP3    H141673   3.699   0.335   5.691
13910TIP3    H241674   3.608   0.345   5.812
13911TIP3   OH241675   0.155   5.338   0.299
13911TIP3    H141676   0.107   5.330   0.217
13911TIP3    H241677   0.102   5.291   0.363
13912TIP3   OH241678   2.798   5.700   3.724
13912TIP3    H141679   2.784   5.640   3.797
13912TIP3    H241680   2.714   5.704   3.679
13913TIP3   OH241681   6.483   6.899   1.303
13913TIP3    H141682   6.414   6.879   1.366
13913TIP3    H241683   6.457   6.852   1.224
13914TIP3   OH241684   1.581   5.582   2.136
13914TIP3    H141685   1.666   5.540   2.150
13914TIP3    H241686   1.547   5.541   2.056
13915TIP3   OH241687   7.361   7.116   4.585
13915TIP3    H141688   7.283   7.166   4.562
13915TIP3    H241689   7.385   7.069   4.505
13916TIP3   OH241690   8.133   5.853   1.885
13916TIP3    H141691   8.218   5.820   1.857
13916TIP3    H241692   8.077   5.844   1.808
13917TIP3   OH241693   7.398   7.030   1.002
13917TIP3    H141694   7.412   6.962   1.068
13917TIP3    H241695   7.310   7.063   1.020
13918TIP3   OH241696   6.419   0.725   0.514
13918TIP3    H141697   6.378   0.811   0.505
13918TIP3    H241698   6.457   0.727   0.603
13919TIP3   OH241699   7.917   0.781   5.553
13919TIP3    H141700   7.980   0.790   5.625
13919TIP3    H241701   7.858   0.855   5.563
13920TIP3   OH241702   0.274   6.764   6.275
13920TIP3    H141703   0.342   6.821   6.312
13920TIP3    H241704   0.220   6.739   6.350
13921TIP3   OH241705   6.227   7.161   2.711
13921TIP3    H141706   6.210   7.180   2.619
13921TIP3    H241707   6.303   7.102   2.711
13922TIP3   OH241708   4.448   3.681   6.318
13922TIP3    H141709   4.527   3.725   6.284
13922TIP3    H241710   4.378   3.745   6.305
13923TIP3   OH241711   6.028   3.121   5.643
13923TIP3    H141712   6.094   3.158   5.584
13923TIP3    H241713   6.002   3.194   5.699
13924TIP3   OH241714   6.361   1.803   6.585
13924TIP3    H141715   6.289   1.740   6.586
13924TIP3    H241716   6.420   1.771   6.517
13925TIP3   OH241717   0.070   5.748   0.815
13925TIP3    H141718   0.126   5.824   0.827
13925TIP3    H241719   0.128   5.682   0.776
13926TIP3   OH241720   1.341   5.798   2.145
13926TIP3    H141721   1.308   5.793   2.055
13926TIP3    H241722   1.330   5.709   2.178
13927TIP3   OH241723   4.510   3.985   1.551
13927TIP3    H141724   4.422   3.990   1.512
13927TIP3    H241725   4.495   3.990   1.645
13928TIP3   OH241726   6.375   3.793   2.133
13928TIP3    H141727   6.343   3.719   2.184
13928TIP3    H241728   6.295   3.838   2.103
13929TIP3   OH241729   4.524   3.725   1.920
13929TIP3    H141730   4.541   3.750   2.011
13929TIP3    H241731   4.491   3.635   1.926
13930TIP3   OH241732   5.256   1.427   3.054
13930TIP3    H141733   5.204   1.370   3.111
13930TIP3    H241734   5.338   1.441   3.102
13931TIP3   OH241735   3.803   2.888   0.312
13931TIP3    H141736   3.858   2.812   0.331
13931TIP3    H241737   3.739   2.890   0.383
13932TIP3   OH241738   3.867   6.125   2.203
13932TIP3    H141739   3.917   6.094   2.127
13932TIP3    H241740   3.779   6.089   2.189
13933TIP3   OH241741   4.046   2.511   2.000
13933TIP3    H141742   4.061   2.447   2.070
13933TIP3    H241743   4.026   2.457   1.923
13934TIP3   OH241744   1.495   3.915   2.834
13934TIP3    H141745   1.423   3.962   2.876
13934TIP3    H241746   1.508   3.960   2.751
13935TIP3   OH241747   5.001   1.831   4.423
13935TIP3    H141748   5.014   1.839   4.517
13935TIP3    H241749   4.911   1.803   4.413
13936TIP3   OH241750   5.487   7.627   2.168
13936TIP3    H141751   5.458   7.564   2.102
13936TIP3    H241752   5.581   7.637   2.151
13937TIP3   OH241753   2.014   1.037   3.226
13937TIP3    H141754   2.017   1.080   3.311
13937TIP3    H241755   1.932   0.987   3.227
13938TIP3   OH241756   6.044   3.909   6.647
13938TIP3    H141757   6.124   3.918   6.596
13938TIP3    H241758   5.974   3.922   6.584
13939TIP3   OH241759   2.069   7.573   5.365
13939TIP3    H141760   2.096   7.633   5.435
13939TIP3    H241761   1.992   7.616   5.326
13940TIP3   OH241762   5.431   1.196   2.650
13940TIP3    H141763   5.492   1.218   2.580
13940TIP3    H241764   5.477   1.219   2.730
13941TIP3   OH241765   3.899   0.519   4.042
13941TIP3    H141766   3.967   0.487   4.101
13941TIP3    H241767   3.941   0.588   3.991
13942TIP3   OH241768   6.660   5.719   4.949
13942TIP3    H141769   6.648   5.652   4.881
13942TIP3    H241770   6.620   5.681   5.027
13943TIP3   OH241771   7.417   0.483   1.430
13943TIP3    H141772   7.410   0.578   1.425
13943TIP3    H241773   7.509   0.464   1.416
13944TIP3   OH241774   2.010   0.079   1.175
13944TIP3    H141775   2.081   0.067   1.112
13944TIP3    H241776   1.930   0.069   1.123
13945TIP3   OH241777   6.419   1.112   6.716
13945TIP3    H141778   6.341   1.127   6.662
13945TIP3    H241779   6.401   1.157   6.798
13946TIP3   OH241780   7.150   5.010   4.688
13946TIP3    H141781   7.172   5.100   4.712
13946TIP3    H241782   7.218   4.984   4.624
13947TIP3   OH241783   3.687   4.559   0.737
13947TIP3    H141784   3.631   4.496   0.783
13947TIP3    H241785   3.704   4.519   0.652
13948TIP3   OH241786   7.120   0.207   0.538
13948TIP3    H141787   7.092   0.117   0.523
13948TIP3    H241788   7.210   0.200   0.571
13949TIP3   OH241789   5.687   6.118   5.957
13949TIP3    H141790   5.664   6.081   6.042
13949TIP3    H241791   5.603   6.133   5.913
13950TIP3   OH241792   6.264   3.565   6.047
13950TIP3    H141793   6.257   3.607   5.961
13950TIP3    H241794   6.183   3.589   6.093
13951TIP3   OH241795   1.345   1.018   1.093
13951TIP3    H141796   1.397   0.972   1.159
13951TIP3    H241797   1.283   1.071   1.145
13952TIP3   OH241798   6.543   5.454   5.877
13952TIP3    H141799   6.468   5.460   5.818
13952TIP3    H241800   6.615   5.423   5.822
13953TIP3   OH241801   2.652   4.564   2.281
13953TIP3    H141802   2.585   4.509   2.323
13953TIP3    H241803   2.602   4.637   2.244
13954TIP3   OH241804   4.355   6.574   5.301
13954TIP3    H141805   4.292   6.611   5.363
13954TIP3    H241806   4.396   6.502   5.348
13955TIP3   OH241807   7.556   2.136   0.151
13955TIP3    H141808   7.542   2.230   0.146
13955TIP3    H241809   7.474   2.101   0.185
13956TIP3   OH241810   1.713   4.639   0.957
13956TIP3    H141811   1.801   4.601   0.959
13956TIP3    H241812   1.654   4.565   0.967
13957TIP3   OH241813   8.234   2.633   6.440
13957TIP3    H141814   8.264   2.624   6.349
13957TIP3    H241815   8.168   2.702   6.436
13958TIP3   OH241816   7.680   2.975   6.201
13958TIP3    H141817   7.734   3.009   6.273
13958TIP3    H241818   7.596   3.020   6.212
13959TIP3   OH241819   6.076   7.742   6.371
13959TIP3    H141820   6.122   7.825   6.381
13959TIP3    H241821   6.086   7.721   6.278
13960TIP3   OH241822   7.311   5.405   5.971
13960TIP3    H141823   7.300   5.346   5.896
13960TIP3    H241824   7.256   5.481   5.950
13961TIP3   OH241825   8.025   4.259   2.027
13961TIP3    H141826   8.035   4.165   2.009
13961TIP3    H241827   7.985   4.263   2.113
13962TIP3   OH241828   0.612   1.197   4.929
13962TIP3    H141829   0.568   1.245   4.999
13962TIP3    H241830   0.629   1.262   4.862
13963TIP3   OH241831   7.285   4.674   5.966
13963TIP3    H141832   7.376   4.666   5.936
13963TIP3    H241833   7.286   4.749   6.025
13964TIP3   OH241834   3.289   3.446   2.364
13964TIP3    H141835   3.227   3.476   2.431
13964TIP3    H241836   3.294   3.519   2.302
13965TIP3   OH241837   2.052   6.725   6.645
13965TIP3    H141838   2.059   6.788   6.573
13965TIP3    H241839   2.003   6.771   6.713
13966TIP3   OH241840   3.414   0.645   3.466
13966TIP3    H141841   3.483   0.585   3.494
13966TIP3    H241842   3.333   0.602   3.492
13967TIP3   OH241843   4.829   6.506   2.821
13967TIP3    H141844   4.906   6.450   2.808
13967TIP3    H241845   4.865   6.594   2.832
13968TIP3   OH241846   3.023   4.217   6.520
13968TIP3    H141847   3.022   4.133   6.474
13968TIP3    H241848   2.932   4.229   6.549
13969TIP3   OH241849   4.377   6.288   2.559
13969TIP3    H141850   4.435   6.349   2.514
13969TIP3    H241851   4.300   6.282   2.502
13970TIP3   OH241852   7.718   1.094   2.783
13970TIP3    H141853   7.702   1.000   2.793
13970TIP3    H241854   7.631   1.133   2.773
13971TIP3   OH241855   6.368   0.267   5.681
13971TIP3    H141856   6.362   0.211   5.758
13971TIP3    H241857   6.278   0.292   5.661
13972TIP3   OH241858   3.641   1.800   2.491
13972TIP3    H141859   3.620   1.707   2.502
13972TIP3    H241860   3.561   1.846   2.517
13973TIP3   OH241861   6.038   3.410   5.233
13973TIP3    H141862   6.037   3.315   5.244
13973TIP3    H241863   6.131   3.432   5.225
13974TIP3   OH241864   0.233   2.813   2.061
13974TIP3    H141865   0.196   2.752   1.998
13974TIP3    H241866   0.205   2.779   2.146
13975TIP3   OH241867   3.992   6.344   4.279
13975TIP3    H141868   3.953   6.289   4.212
13975TIP3    H241869   3.968   6.433   4.254
13976TIP3   OH241870   7.802   4.039   0.773
13976TIP3    H141871   7.839   4.034   0.685
13976TIP3    H241872   7.790   3.948   0.800
13977TIP3   OH241873   5.413   6.688   5.186
13977TIP3    H141874   5.450   6.652   5.266
13977TIP3    H241875   5.444   6.778   5.184
13978TIP3   OH241876   0.200   1.273   2.959
13978TIP3    H141877   0.131   1.324   2.917
13978TIP3    H241878   0.277   1.286   2.905
13979TIP3   OH241879   1.115   1.633   3.998
13979TIP3    H141880   1.044   1.602   4.054
13979TIP3    H241881   1.187   1.652   4.058
13980TIP3   OH241882   2.266   0.727   6.155
13980TIP3    H141883   2.217   0.785   6.214
13980TIP3    H241884   2.254   0.640   6.192
13981TIP3   OH241885   3.661   4.110   5.425
13981TIP3    H141886   3.674   4.202   5.403
13981TIP3    H241887   3.703   4.062   5.354
13982TIP3   OH241888   7.488   3.241   3.201
13982TIP3    H141889   7.563   3.292   3.233
13982TIP3    H241890   7.412   3.289   3.233
13983TIP3   OH241891   1.818   1.568   2.486
13983TIP3    H141892   1.881   1.604   2.548
13983TIP3    H241893   1.758   1.641   2.468
13984TIP3   OH241894   4.410   2.890   5.653
13984TIP3    H141895   4.468   2.964   5.669
13984TIP3    H241896   4.330   2.911   5.701
13985TIP3   OH241897   1.464   4.116   5.022
13985TIP3    H141898   1.425   4.036   5.060
13985TIP3    H241899   1.558   4.099   5.021
13986TIP3   OH241900   2.503   3.443   3.162
13986TIP3    H141901   2.590   3.462   3.126
13986TIP3    H241902   2.457   3.399   3.090
13987TIP3   OH241903   0.312   0.044   2.997
13987TIP3    H141904   0.281   0.097   2.923
13987TIP3    H241905   0.319   0.107   3.069
13988TIP3   OH241906   1.127   0.641   2.423
13988TIP3    H141907   1.204   0.634   2.479
13988TIP3    H241908   1.146   0.715   2.365
13989TIP3   OH241909   4.525   1.174   2.125
13989TIP3    H141910   4.448   1.142   2.079
13989TIP3    H241911   4.571   1.095   2.154
13990TIP3   OH241912   6.998   5.099   2.210
13990TIP3    H141913   6.953   5.064   2.133
13990TIP3    H241914   7.090   5.106   2.184
13991TIP3   OH241915   3.333   6.775   5.962
13991TIP3    H141916   3.299   6.827   5.889
13991TIP3    H241917   3.428   6.781   5.952
13992TIP3   OH241918   4.062   0.533   4.590
13992TIP3    H141919   4.138   0.590   4.584
13992TIP3    H241920   4.047   0.522   4.684
13993TIP3   OH241921   7.317   5.090   4.194
13993TIP3    H141922   7.274   5.130   4.118
13993TIP3    H241923   7.247   5.080   4.258
13994TIP3   OH241924   0.509   1.220   4.047
13994TIP3    H141925   0.536   1.255   4.132
13994TIP3    H241926   0.468   1.295   4.002
13995TIP3   OH241927   7.394   1.797   6.615
13995TIP3    H141928   7.450   1.872   6.598
13995TIP3    H241929   7.372   1.763   6.528
13996TIP3   OH241930   6.183   2.519   3.521
13996TIP3    H141931   6.235   2.591   3.486
13996TIP3    H241932   6.184   2.534   3.616
13997TIP3   OH241933   6.260   7.544   4.113
13997TIP3    H141934   6.356   7.546   4.113
13997TIP3    H241935   6.237   7.515   4.025
13998TIP3   OH241936   2.560   5.474   0.962
13998TIP3    H141937   2.618   5.475   1.039
13998TIP3    H241938   2.542   5.566   0.945
13999TIP3   OH241939   5.237   2.465   1.535
13999TIP3    H141940   5.268   2.543   1.489
13999TIP3    H241941   5.172   2.426   1.476
14000TIP3   OH241942   2.235   0.559   1.290
14000TIP3    H141943   2.144   0.543   1.268
14000TIP3    H241944   2.263   0.629   1.231
14001TIP3   OH241945   5.621   0.556   5.990
14001TIP3    H141946   5.624   0.493   6.062
14001TIP3    H241947   5.530   0.585   5.987
14002TIP3   OH241948   3.800   6.396   4.525
14002TIP3    H141949   3.842   6.381   4.441
14002TIP3    H241950   3.768   6.310   4.552
14003TIP3   OH241951   3.555   0.898   6.046
14003TIP3    H141952   3.583   0.807   6.055
14003TIP3    H241953   3.459   0.894   6.048
14004TIP3   OH241954   7.456   7.018   3.359
14004TIP3    H141955   7.541   7.003   3.401
14004TIP3    H241956   7.431   6.931   3.326
14005TIP3   OH241957   2.721   4.767   4.495
14005TIP3    H141958   2.663   4.737   4.425
14005TIP3    H241959   2.691   4.856   4.515
14006TIP3   OH241960   0.107   2.160   3.675
14006TIP3    H141961   0.085   2.233   3.733
14006TIP3    H241962   0.030   2.104   3.676
14007TIP3   OH241963   5.973   0.907   3.619
14007TIP3    H141964   5.927   0.828   3.589
14007TIP3    H241965   6.017   0.940   3.540
14008TIP3   OH241966   3.195   5.703   3.847
14008TIP3    H141967   3.234   5.789   3.829
14008TIP3    H241968   3.166   5.672   3.761
14009TIP3   OH241969   1.947   7.534   4.690
14009TIP3    H141970   1.944   7.625   4.661
14009TIP3    H241971   2.006   7.491   4.628
14010TIP3   OH241972   3.964   1.237   3.025
14010TIP3    H141973   3.988   1.174   3.094
14010TIP3    H241974   3.871   1.253   3.039
14011TIP3   OH241975   3.904   4.359   4.323
14011TIP3    H141976   3.920   4.280   4.272
14011TIP3    H241977   3.880   4.326   4.410
14012TIP3   OH241978   3.969   0.800   0.908
14012TIP3    H141979   3.887   0.809   0.955
14012TIP3    H241980   3.948   0.824   0.818
14013TIP3   OH241981   2.716   2.354   0.523
14013TIP3    H141982   2.769   2.412   0.468
14013TIP3    H241983   2.641   2.408   0.549
14014TIP3   OH241984   2.970   1.652   5.332
14014TIP3    H141985   3.013   1.602   5.401
14014TIP3    H241986   2.878   1.624   5.336
14015TIP3   OH241987   2.965   6.239   5.550
14015TIP3    H141988   3.018   6.204   5.622
14015TIP3    H241989   2.884   6.188   5.552
14016TIP3   OH241990   4.276   4.002   2.792
14016TIP3    H141991   4.277   3.922   2.845
14016TIP3    H241992   4.356   4.048   2.818
14017TIP3   OH241993   2.698   3.768   3.977
14017TIP3    H141994   2.759   3.702   4.011
14017TIP3    H241995   2.736   3.795   3.893
14018TIP3   OH241996   3.322   4.108   2.661
14018TIP3    H141997   3.299   4.108   2.568
14018TIP3    H241998   3.407   4.065   2.665
14019TIP3   OH241999   2.741   3.424   4.891
14019TIP3    H142000   2.749   3.360   4.962
14019TIP3    H242001   2.811   3.401   4.829
14020TIP3   OH242002   7.005   7.424   4.638
14020TIP3    H142003   7.053   7.492   4.685
14020TIP3    H242004   6.913   7.443   4.655
14021TIP3   OH242005   1.152   3.237   1.525
14021TIP3    H142006   1.111   3.192   1.450
14021TIP3    H242007   1.244   3.247   1.500
14022TIP3   OH242008   4.702   6.941   5.164
14022TIP3    H142009   4.683   6.981   5.080
14022TIP3    H242010   4.617   6.906   5.193
14023TIP3   OH242011   0.579   2.757   5.835
14023TIP3    H142012   0.656   2.702   5.822
14023TIP3    H242013   0.522   2.707   5.892
14024TIP3   OH242014   5.268   2.357   2.708
14024TIP3    H142015   5.244   2.289   2.645
14024TIP3    H242016   5.364   2.355   2.711
14025TIP3   OH242017   5.434   5.278   5.308
14025TIP3    H142018   5.402   5.338   5.241
14025TIP3    H242019   5.364   5.273   5.373
14026TIP3   OH242020   0.610   6.317   4.213
14026TIP3    H142021   0.528   6.349   4.250
14026TIP3    H242022   0.671   6.319   4.287
14027TIP3   OH242023   5.883   7.808   1.409
14027TIP3    H142024   5.818   7.870   1.376
14027TIP3    H242025   5.955   7.813   1.347
14028TIP3   OH242026   4.852   3.771   3.869
14028TIP3    H142027   4.786   3.822   3.917
14028TIP3    H242028   4.812   3.685   3.858
14029TIP3   OH242029   7.394   0.759   1.472
14029TIP3    H142030   7.465   0.777   1.533
14029TIP3    H242031   7.320   0.809   1.507
14030TIP3   OH242032   1.297   1.744   2.945
14030TIP3    H142033   1.329   1.691   3.018
14030TIP3    H242034   1.239   1.808   2.986
14031TIP3   OH242035   1.703   0.524   3.302
14031TIP3    H142036   1.637   0.487   3.244
14031TIP3    H242037   1.768   0.454   3.313
14032TIP3   OH242038   6.065   1.375   0.771
14032TIP3    H142039   6.119   1.410   0.842
14032TIP3    H242040   6.128   1.340   0.708
14033TIP3   OH242041   1.238   6.519   6.432
14033TIP3    H142042   1.221   6.512   6.526
14033TIP3    H242043   1.248   6.613   6.415
14034TIP3   OH242044   7.719   6.350   4.269
14034TIP3    H142045   7.682   6.271   4.308
14034TIP3    H242046   7.710   6.417   4.338
14035TIP3   OH242047   5.769   6.161   1.708
14035TIP3    H142048   5.835   6.138   1.642
14035TIP3    H242049   5.716   6.228   1.667
14036TIP3   OH242050   5.109   7.806   5.047
14036TIP3    H142051   5.039   7.866   5.074
14036TIP3    H242052   5.148   7.776   5.129
14037TIP3   OH242053   5.790   4.515   0.344
14037TIP3    H142054   5.839   4.515   0.262
14037TIP3    H242055   5.712   4.463   0.325
14038TIP3   OH242056   8.111   7.197   3.925
14038TIP3    H142057   8.067   7.203   3.841
14038TIP3    H242058   8.203   7.215   3.905
14039TIP3   OH242059   5.428   0.529   5.457
14039TIP3    H142060   5.507   0.566   5.498
14039TIP3    H242061   5.462   0.459   5.401
14040TIP3   OH242062   6.326   4.825   3.578
14040TIP3    H142063   6.322   4.911   3.618
14040TIP3    H242064   6.236   4.793   3.579
14041TIP3   OH242065   3.469   3.118   4.526
14041TIP3    H142066   3.400   3.127   4.591
14041TIP3    H242067   3.522   3.198   4.536
14042TIP3   OH242068   6.495   5.109   4.975
14042TIP3    H142069   6.508   5.095   4.881
14042TIP3    H242070   6.504   5.022   5.014
14043TIP3   OH242071   2.627   5.574   2.304
14043TIP3    H142072   2.655   5.550   2.392
14043TIP3    H242073   2.699   5.625   2.269
14044TIP3   OH242074   3.553   5.062   5.188
14044TIP3    H142075   3.561   5.112   5.107
14044TIP3    H242076   3.585   5.122   5.256
14045TIP3   OH242077   2.204   6.018   5.162
14045TIP3    H142078   2.119   6.020   5.205
14045TIP3    H242079   2.211   6.103   5.119
14046TIP3   OH242080   4.744   4.019   4.208
14046TIP3    H142081   4.758   3.955   4.278
14046TIP3    H242082   4.732   4.102   4.254
14047TIP3   OH242083   6.129   3.863   4.619
14047TIP3    H142084   6.109   3.850   4.527
14047TIP3    H242085   6.208   3.918   4.620
14048TIP3   OH242086   8.121   5.308   2.874
14048TIP3    H142087   8.088   5.377   2.932
14048TIP3    H242088   8.118   5.347   2.787
14049TIP3   OH242089   0.408   4.957   3.107
14049TIP3    H142090   0.434   4.905   3.031
14049TIP3    H242091   0.490   4.984   3.148
14050TIP3   OH242092   7.439   6.638   6.249
14050TIP3    H142093   7.525   6.657   6.285
14050TIP3    H242094   7.421   6.548   6.276
14051TIP3   OH242095   4.520   2.919   6.237
14051TIP3    H142096   4.604   2.874   6.237
14051TIP3    H242097   4.529   2.987   6.304
14052TIP3   OH242098   7.589   1.149   5.431
14052TIP3    H142099   7.570   1.056   5.417
14052TIP3    H242100   7.553   1.193   5.353
14053TIP3   OH242101   3.757   0.050   1.075
14053TIP3    H142102   3.824   0.108   1.109
14053TIP3    H242103   3.696   0.107   1.029
14054TIP3   OH242104   3.029   2.447   1.845
14054TIP3    H142105   2.994   2.414   1.762
14054TIP3    H242106   3.123   2.451   1.830
14055TIP3   OH242107   1.202   5.748   0.751
14055TIP3    H142108   1.257   5.675   0.779
14055TIP3    H242109   1.135   5.707   0.696
14056TIP3   OH242110   7.515   5.297   4.356
14056TIP3    H142111   7.576   5.225   4.372
14056TIP3    H242112   7.483   5.281   4.267
14057TIP3   OH242113   5.002   7.478   1.073
14057TIP3    H142114   4.959   7.393   1.066
14057TIP3    H242115   5.092   7.461   1.044
14058TIP3   OH242116   4.035   5.346   0.083
14058TIP3    H142117   4.076   5.432   0.089
14058TIP3    H242118   4.108   5.286   0.071
14059TIP3   OH242119   7.927   5.932   5.738
14059TIP3    H142120   7.890   5.952   5.652
14059TIP3    H242121   7.855   5.945   5.799
14060TIP3   OH242122   6.472   2.606   5.466
14060TIP3    H142123   6.457   2.529   5.521
14060TIP3    H242124   6.539   2.656   5.512
14061TIP3   OH242125   4.248   5.516   1.189
14061TIP3    H142126   4.319   5.531   1.251
14061TIP3    H242127   4.285   5.455   1.125
14062TIP3   OH242128   8.006   5.860   0.904
14062TIP3    H142129   8.051   5.826   0.981
14062TIP3    H242130   8.067   5.843   0.832
14063TIP3   OH242131   5.988   4.564   5.380
14063TIP3    H142132   6.043   4.546   5.303
14063TIP3    H242133   6.009   4.493   5.441
14064TIP3   OH242134   3.651   4.350   2.795
14064TIP3    H142135   3.617   4.263   2.813
14064TIP3    H242136   3.702   4.372   2.873
14065TIP3   OH242137   4.080   3.407   0.621
14065TIP3    H142138   4.166   3.383   0.656
14065TIP3    H242139   4.053   3.482   0.674
14066TIP3   OH242140   8.055   5.143   0.658
14066TIP3    H142141   8.095   5.155   0.744
14066TIP3    H242142   7.963   5.124   0.676
14067TIP3   OH242143   8.236   3.611   6.071
14067TIP3    H142144   8.305   3.624   6.136
14067TIP3    H242145   8.170   3.676   6.094
14068TIP3   OH242146   2.176   7.628   3.788
14068TIP3    H142147   2.110   7.573   3.830
14068TIP3    H242148   2.126   7.683   3.727
14069TIP3   OH242149   2.120   6.996   2.177
14069TIP3    H142150   2.126   7.063   2.245
14069TIP3    H242151   2.145   6.915   2.222
14070TIP3   OH242152   0.189   7.742   3.852
14070TIP3    H142153   0.099   7.769   3.833
14070TIP3    H242154   0.188   7.722   3.946
14071TIP3   OH242155   3.488   7.301   2.914
14071TIP3    H142156   3.398   7.292   2.943
14071TIP3    H242157   3.540   7.297   2.994
14072TIP3   OH242158   7.086   0.025   3.357
14072TIP3    H142159   7.033  -0.017   3.425
14072TIP3    H242160   7.084   0.118   3.379
14073TIP3   OH242161   6.330   4.620   0.793
14073TIP3    H142162   6.407   4.609   0.849
14073TIP3    H242163   6.352   4.693   0.735
14074TIP3   OH242164   6.983   6.235   6.039
14074TIP3    H142165   6.994   6.276   5.953
14074TIP3    H242166   7.057   6.267   6.090
14075TIP3   OH242167   2.506   4.946   4.607
14075TIP3    H142168   2.424   4.985   4.576
14075TIP3    H242169   2.531   4.999   4.683
14076TIP3   OH242170   2.574   4.834   3.553
14076TIP3    H142171   2.635   4.828   3.627
14076TIP3    H242172   2.594   4.758   3.499
14077TIP3   OH242173  -0.002   6.016   5.456
14077TIP3    H142174  -0.011   6.108   5.484
14077TIP3    H242175   0.055   5.977   5.522
14078TIP3   OH242176   0.989   2.682   2.426
14078TIP3    H142177   0.938   2.604   2.402
14078TIP3    H242178   0.934   2.755   2.399
14079TIP3   OH242179   1.479   4.028   1.114
14079TIP3    H142180   1.452   4.032   1.023
14079TIP3    H242181   1.551   4.091   1.121
14080TIP3   OH242182   2.441   3.218   1.472
14080TIP3    H142183   2.391   3.274   1.532
14080TIP3    H242184   2.531   3.222   1.505
14081TIP3   OH242185   5.087   3.993   1.025
14081TIP3    H142186   5.015   4.052   1.047
14081TIP3    H242187   5.153   4.009   1.092
14082TIP3   OH242188   1.422   7.062   2.543
14082TIP3    H142189   1.396   7.030   2.629
14082TIP3    H242190   1.484   7.133   2.561
14083TIP3   OH242191   6.963   0.319   0.323
14083TIP3    H142192   6.997   0.294   0.410
14083TIP3    H242193   6.872   0.344   0.339
14084TIP3   OH242194   7.510   1.804   2.116
14084TIP3    H142195   7.501   1.895   2.142
14084TIP3    H242196   7.572   1.806   2.043
14085TIP3   OH242197   2.575   2.898   4.079
14085TIP3    H142198   2.663   2.915   4.045
14085TIP3    H242199   2.520   2.890   4.001
14086TIP3   OH242200   8.245   6.317   1.137
14086TIP3    H142201   8.267   6.225   1.122
14086TIP3    H242202   8.291   6.365   1.069
14087TIP3   OH242203   6.210   7.004   1.930
14087TIP3    H142204   6.232   7.030   2.019
14087TIP3    H242205   6.229   6.910   1.926
14088TIP3   OH242206   7.683   3.601   4.938
14088TIP3    H142207   7.696   3.514   4.978
14088TIP3    H242208   7.594   3.599   4.905
14089TIP3   OH242209   4.498   6.140   5.527
14089TIP3    H142210   4.517   6.229   5.498
14089TIP3    H242211   4.491   6.147   5.622
14090TIP3   OH242212   2.735   4.004   4.534
14090TIP3    H142213   2.716   3.949   4.610
14090TIP3    H242214   2.808   3.960   4.490
14091TIP3   OH242215   7.204   2.481   0.141
14091TIP3    H142216   7.134   2.461   0.203
14091TIP3    H242217   7.165   2.464   0.055
14092TIP3   OH242218   7.465   2.146   0.592
14092TIP3    H142219   7.466   2.139   0.687
14092TIP3    H242220   7.531   2.083   0.563
14093TIP3   OH242221   1.843   7.794   3.746
14093TIP3    H142222   1.864   7.772   3.837
14093TIP3    H242223   1.910   7.856   3.719
14094TIP3   OH242224   7.409   3.424   6.481
14094TIP3    H142225   7.450   3.503   6.515
14094TIP3    H242226   7.454   3.406   6.399
14095TIP3   OH242227   7.465   1.979   4.489
14095TIP3    H142228   7.529   1.997   4.420
14095TIP3    H242229   7.490   2.038   4.561
14096TIP3   OH242230   1.085   5.765   0.189
14096TIP3    H142231   1.162   5.713   0.212
14096TIP3    H242232   1.011   5.715   0.226
14097TIP3   OH242233   2.730   6.390   2.530
14097TIP3    H142234   2.655   6.407   2.474
14097TIP3    H242235   2.720   6.299   2.557
14098TIP3   OH242236   3.214   4.872   4.017
14098TIP3    H142237   3.171   4.947   4.057
14098TIP3    H242238   3.301   4.870   4.057
14099TIP3   OH242239   7.417   5.554   0.548
14099TIP3    H142240   7.469   5.483   0.587
14099TIP3    H242241   7.430   5.544   0.454
14100TIP3   OH242242   2.474   6.796   4.632
14100TIP3    H142243   2.482   6.855   4.558
14100TIP3    H242244   2.397   6.827   4.680
14101TIP3   OH242245   5.701   7.296   0.478
14101TIP3    H142246   5.725   7.274   0.388
14101TIP3    H242247   5.763   7.365   0.503
14102TIP3   OH242248   2.578   1.647   3.060
14102TIP3    H142249   2.659   1.680   3.100
14102TIP3    H242250   2.575   1.688   2.974
14103TIP3   OH242251   3.889   7.572   0.707
14103TIP3    H142252   3.852   7.649   0.662
14103TIP3    H242253   3.820   7.506   0.702
14104TIP3   OH242254   2.179   2.899   2.549
14104TIP3    H142255   2.193   2.979   2.499
14104TIP3    H242256   2.112   2.922   2.614
14105TIP3   OH242257   7.945   7.399   0.359
14105TIP3    H142258   8.015   7.351   0.404
14105TIP3    H242259   7.868   7.344   0.369
14106TIP3   OH242260   2.207   2.860   0.375
14106TIP3    H142261   2.127   2.808   0.368
14106TIP3    H242262   2.244   2.859   0.286
14107TIP3   OH242263   1.073   7.028   2.274
14107TIP3    H142264   1.163   6.998   2.281
14107TIP3    H242265   1.048   7.051   2.363
14108TIP3   OH242266   5.372   0.567   2.112
14108TIP3    H142267   5.459   0.542   2.143
14108TIP3    H242268   5.389   0.631   2.042
14109TIP3   OH242269   2.891   6.297   5.864
14109TIP3    H142270   2.873   6.211   5.826
14109TIP3    H242271   2.881   6.284   5.958
14110TIP3   OH242272   7.166   4.912   1.607
14110TIP3    H142273   7.207   4.838   1.652
14110TIP3    H242274   7.082   4.924   1.651
14111TIP3   OH242275   6.069   4.860   6.750
14111TIP3    H142276   6.163   4.868   6.736
14111TIP3    H242277   6.046   4.776   6.709
14112TIP3   OH242278   5.538   2.943   3.080
14112TIP3    H142279   5.515   3.035   3.067
14112TIP3    H242280   5.555   2.935   3.174
14113TIP3   OH242281   6.458   2.455   0.558
14113TIP3    H142282   6.387   2.513   0.530
14113TIP3    H242283   6.428   2.367   0.535
14114TIP3   OH242284   6.432   1.922   5.828
14114TIP3    H142285   6.521   1.887   5.824
14114TIP3    H242286   6.428   1.970   5.911
14115TIP3   OH242287   3.522   5.970   6.627
14115TIP3    H142288   3.603   6.000   6.585
14115TIP3    H242289   3.507   6.033   6.697
14116TIP3   OH242290   2.342   3.168   1.224
14116TIP3    H142291   2.423   3.194   1.179
14116TIP3    H242292   2.364   3.174   1.317
14117TIP3   OH242293   8.216   1.235   5.069
14117TIP3    H142294   8.247   1.310   5.119
14117TIP3    H242295   8.125   1.225   5.095
14118TIP3   OH242296   4.116   4.359   5.560
14118TIP3    H142297   4.141   4.395   5.645
14118TIP3    H242298   4.025   4.333   5.570
14119TIP3   OH242299   7.526   5.991   0.703
14119TIP3    H142300   7.604   5.967   0.652
14119TIP3    H242301   7.560   6.026   0.785
14120TIP3   OH242302   1.069   4.969   4.825
14120TIP3    H142303   0.981   4.931   4.825
14120TIP3    H242304   1.067   5.034   4.755
14121TIP3   OH242305   5.788   6.832   3.299
14121TIP3    H142306   5.860   6.829   3.235
14121TIP3    H242307   5.831   6.850   3.382
14122TIP3   OH242308   4.738   3.491   5.760
14122TIP3    H142309   4.776   3.411   5.797
14122TIP3    H242310   4.696   3.534   5.834
14123TIP3   OH242311   0.928   2.741   5.392
14123TIP3    H142312   0.946   2.662   5.443
14123TIP3    H242313   0.852   2.780   5.434
14124TIP3   OH242314   0.465   4.028   0.144
14124TIP3    H142315   0.493   4.034   0.052
14124TIP3    H242316   0.508   3.950   0.177
14125TIP3   OH242317   4.640   1.140   0.536
14125TIP3    H142318   4.609   1.183   0.615
14125TIP3    H242319   4.713   1.086   0.566
14126TIP3   OH242320   6.926   2.308   0.158
14126TIP3    H142321   6.959   2.250   0.227
14126TIP3    H242322   6.999   2.315   0.096
14127TIP3   OH242323   2.500   5.385   6.062
14127TIP3    H142324   2.561   5.443   6.017
14127TIP3    H242325   2.463   5.331   5.992
14128TIP3   OH242326   7.378   4.164   2.577
14128TIP3    H142327   7.381   4.173   2.672
14128TIP3    H242328   7.305   4.219   2.549
14129TIP3   OH242329   7.057   7.656   6.344
14129TIP3    H142330   6.967   7.673   6.315
14129TIP3    H242331   7.076   7.726   6.407
14130TIP3   OH242332   5.198   4.598   0.247
14130TIP3    H142333   5.157   4.512   0.235
14130TIP3    H242334   5.127   4.660   0.228
14131TIP3   OH242335   2.351   4.961   5.777
14131TIP3    H142336   2.259   4.980   5.761
14131TIP3    H242337   2.390   4.958   5.690
14132TIP3   OH242338   2.258   6.704   1.148
14132TIP3    H142339   2.274   6.624   1.197
14132TIP3    H242340   2.171   6.693   1.111
14133TIP3   OH242341   6.600   0.623   2.987
14133TIP3    H142342   6.661   0.588   2.922
14133TIP3    H242343   6.553   0.692   2.941
14134TIP3   OH242344   4.175   5.593   2.384
14134TIP3    H142345   4.217   5.536   2.449
14134TIP3    H242346   4.245   5.650   2.354
14135TIP3   OH242347   5.821   3.484   2.538
14135TIP3    H142348   5.739   3.533   2.538
14135TIP3    H242349   5.832   3.456   2.629
14136TIP3   OH242350   1.945   4.632   2.768
14136TIP3    H142351   1.877   4.653   2.832
14136TIP3    H242352   1.906   4.564   2.714
14137TIP3   OH242353   8.129   2.484   3.007
14137TIP3    H142354   8.174   2.540   3.071
14137TIP3    H242355   8.055   2.537   2.977
14138TIP3   OH242356   5.743   6.664   1.620
14138TIP3    H142357   5.689   6.591   1.589
14138TIP3    H242358   5.689   6.706   1.687
14139TIP3   OH242359   7.309   7.194   2.570
14139TIP3    H142360   7.357   7.116   2.599
14139TIP3    H242361   7.376   7.251   2.533
14140TIP3   OH242362   6.810   0.044   4.402
14140TIP3    H142363   6.752  -0.021   4.441
14140TIP3    H242364   6.798   0.122   4.456
14141TIP3   OH242365   6.982   7.132   2.951
14141TIP3    H142366   6.904   7.092   2.989
14141TIP3    H242367   7.054   7.103   3.007
14142TIP3   OH242368   8.150   7.250   0.563
14142TIP3    H142369   8.195   7.261   0.479
14142TIP3    H242370   8.146   7.156   0.576
14143TIP3   OH242371   5.174   6.017   1.074
14143TIP3    H142372   5.113   5.982   1.010
14143TIP3    H242373   5.119   6.038   1.150
14144TIP3   OH242374   3.857   7.136   6.170
14144TIP3    H142375   3.896   7.078   6.235
14144TIP3    H242376   3.915   7.212   6.168
14145TIP3   OH242377   1.580   4.891   0.965
14145TIP3    H142378   1.486   4.871   0.960
14145TIP3    H242379   1.623   4.805   0.968
14146TIP3   OH242380   0.335   5.937   5.887
14146TIP3    H142381   0.413   5.954   5.940
14146TIP3    H242382   0.329   5.841   5.883
14147TIP3   OH242383   3.675   7.768   2.714
14147TIP3    H142384   3.642   7.855   2.739
14147TIP3    H242385   3.597   7.715   2.701
14148TIP3   OH242386   0.685   6.579   0.079
14148TIP3    H142387   0.657   6.582  -0.012
14148TIP3    H242388   0.745   6.653   0.088
14149TIP3   OH242389   1.407   3.113   1.041
14149TIP3    H142390   1.335   3.162   1.080
14149TIP3    H242391   1.455   3.077   1.116
14150TIP3   OH242392   1.837   2.626   2.454
14150TIP3    H142393   1.890   2.546   2.452
14150TIP3    H242394   1.774   2.615   2.382
14151TIP3   OH242395   3.148   3.397   4.790
14151TIP3    H142396   3.121   3.432   4.875
14151TIP3    H242397   3.160   3.475   4.734
14152TIP3   OH242398   5.997   6.657   3.165
14152TIP3    H142399   5.999   6.625   3.255
14152TIP3    H242400   6.088   6.677   3.144
14153TIP3   OH242401   0.147   6.315   2.591
14153TIP3    H142402   0.219   6.259   2.562
14153TIP3    H242403   0.135   6.291   2.683
14154TIP3   OH242404   2.067   0.814   4.654
14154TIP3    H142405   2.091   0.724   4.631
14154TIP3    H242406   2.010   0.842   4.582
14155TIP3   OH242407   5.190   4.148   2.261
14155TIP3    H142408   5.237   4.228   2.285
14155TIP3    H242409   5.236   4.115   2.184
14156TIP3   OH242410   6.609   7.538   5.772
14156TIP3    H142411   6.641   7.465   5.824
14156TIP3    H242412   6.676   7.606   5.780
14157TIP3   OH242413   1.607   0.240   1.349
14157TIP3    H142414   1.691   0.263   1.309
14157TIP3    H242415   1.600   0.145   1.335
14158TIP3   OH242416   7.057   3.158   2.885
14158TIP3    H142417   7.136   3.181   2.934
14158TIP3    H242418   6.993   3.136   2.953
14159TIP3   OH242419   8.194   4.770   5.431
14159TIP3    H142420   8.184   4.856   5.392
14159TIP3    H242421   8.124   4.717   5.391
14160TIP3   OH242422   5.879   1.714   3.001
14160TIP3    H142423   5.797   1.664   2.997
14160TIP3    H242424   5.854   1.803   2.976
14161TIP3   OH242425   4.668   6.017   4.124
14161TIP3    H142426   4.583   6.059   4.134
14161TIP3    H242427   4.659   5.934   4.172
14162TIP3   OH242428   6.062   0.889   2.604
14162TIP3    H142429   6.040   0.872   2.696
14162TIP3    H242430   5.993   0.947   2.573
14163TIP3   OH242431   2.834   0.740   3.993
14163TIP3    H142432   2.888   0.713   4.067
14163TIP3    H242433   2.830   0.662   3.938
14164TIP3   OH242434   4.432   6.907   0.617
14164TIP3    H142435   4.385   6.985   0.645
14164TIP3    H242436   4.522   6.921   0.647
14165TIP3   OH242437   4.481   5.795   4.914
14165TIP3    H142438   4.496   5.826   5.003
14165TIP3    H242439   4.425   5.718   4.925
14166TIP3   OH242440   1.375   3.055   2.756
14166TIP3    H142441   1.354   2.994   2.828
14166TIP3    H242442   1.425   3.125   2.798
14167TIP3   OH242443   4.661   0.534   3.496
14167TIP3    H142444   4.737   0.592   3.496
14167TIP3    H242445   4.606   0.567   3.567
14168TIP3   OH242446   1.708   7.393   0.607
14168TIP3    H142447   1.680   7.302   0.597
14168TIP3    H242448   1.637   7.445   0.567
14169TIP3   OH242449   2.612   6.277   3.212
14169TIP3    H142450   2.618   6.278   3.117
14169TIP3    H242451   2.660   6.355   3.240
14170TIP3   OH242452   6.407   3.434   2.771
14170TIP3    H142453   6.414   3.417   2.677
14170TIP3    H242454   6.313   3.443   2.787
14171TIP3   OH242455   0.332   2.811   1.577
14171TIP3    H142456   0.413   2.782   1.619
14171TIP3    H242457   0.313   2.745   1.511
14172TIP3   OH242458   1.544   6.510   2.398
14172TIP3    H142459   1.574   6.472   2.481
14172TIP3    H242460   1.486   6.444   2.361
14173TIP3   OH242461   5.142   0.785   1.963
14173TIP3    H142462   5.238   0.779   1.962
14173TIP3    H242463   5.113   0.700   1.929
14174TIP3   OH242464   0.235   0.731   1.472
14174TIP3    H142465   0.283   0.688   1.401
14174TIP3    H242466   0.302   0.781   1.519
14175TIP3   OH242467   8.229   7.581   5.322
14175TIP3    H142468   8.289   7.508   5.334
14175TIP3    H242469   8.283   7.659   5.334
14176TIP3   OH242470   4.636   1.611   1.136
14176TIP3    H142471   4.654   1.700   1.166
14176TIP3    H242472   4.621   1.619   1.042
14177TIP3   OH242473   0.027   7.275   5.089
14177TIP3    H142474  -0.025   7.354   5.081
14177TIP3    H242475   0.118   7.306   5.095
14178TIP3   OH242476   4.035   7.147   5.253
14178TIP3    H142477   4.065   7.077   5.195
14178TIP3    H242478   4.072   7.227   5.216
14179TIP3   OH242479   4.887   5.240   2.379
14179TIP3    H142480   4.892   5.334   2.364
14179TIP3    H242481   4.819   5.209   2.319
14180TIP3   OH242482   5.614   0.941   1.665
14180TIP3    H142483   5.519   0.935   1.675
14180TIP3    H242484   5.647   0.853   1.685
14181TIP3   OH242485   5.351   0.653   4.290
14181TIP3    H142486   5.330   0.697   4.372
14181TIP3    H242487   5.340   0.560   4.309
14182TIP3   OH242488   3.554   2.333   5.514
14182TIP3    H142489   3.477   2.383   5.487
14182TIP3    H242490   3.532   2.242   5.493
14183TIP3   OH242491   6.019   6.414   5.770
14183TIP3    H142492   6.033   6.403   5.676
14183TIP3    H242493   5.940   6.364   5.788
14184TIP3   OH242494   4.304   2.052   6.067
14184TIP3    H142495   4.313   1.991   5.994
14184TIP3    H242496   4.362   2.017   6.134
14185TIP3   OH242497   7.754   0.388   0.399
14185TIP3    H142498   7.687   0.327   0.366
14185TIP3    H242499   7.712   0.432   0.473
14186TIP3   OH242500   3.085   3.821   3.440
14186TIP3    H142501   3.033   3.760   3.388
14186TIP3    H242502   3.112   3.770   3.516
14187TIP3   OH242503   5.013   5.867   0.911
14187TIP3    H142504   4.959   5.945   0.898
14187TIP3    H242505   4.950   5.797   0.930
14188TIP3   OH242506   3.755   1.143   3.610
14188TIP3    H142507   3.814   1.068   3.615
14188TIP3    H242508   3.808   1.212   3.570
14189TIP3   OH242509   2.937   7.722   2.996
14189TIP3    H142510   2.852   7.680   2.998
14189TIP3    H242511   2.923   7.805   2.950
14190TIP3   OH242512   4.870   4.695   0.883
14190TIP3    H142513   4.866   4.646   0.965
14190TIP3    H242514   4.882   4.629   0.815
14191TIP3   OH242515   5.636   5.692   6.405
14191TIP3    H142516   5.634   5.650   6.491
14191TIP3    H242517   5.718   5.742   6.405
14192TIP3   OH242518   7.240   4.854   3.657
14192TIP3    H142519   7.226   4.894   3.572
14192TIP3    H242520   7.159   4.871   3.705
14193TIP3   OH242521   6.480   0.621   0.888
14193TIP3    H142522   6.408   0.674   0.923
14193TIP3    H242523   6.543   0.618   0.959
14194TIP3   OH242524   3.364   2.026   3.372
14194TIP3    H142525   3.428   2.061   3.310
14194TIP3    H242526   3.416   1.987   3.442
14195TIP3   OH242527   6.222   2.843   2.003
14195TIP3    H142528   6.156   2.902   1.967
14195TIP3    H242529   6.233   2.872   2.094
14196TIP3   OH242530   5.445   3.490   1.711
14196TIP3    H142531   5.503   3.417   1.687
14196TIP3    H242532   5.362   3.448   1.735
14197TIP3   OH242533   1.580   7.532   5.969
14197TIP3    H142534   1.580   7.528   5.873
14197TIP3    H242535   1.669   7.509   5.994
14198TIP3   OH242536   4.202   5.784   1.196
14198TIP3    H142537   4.210   5.705   1.143
14198TIP3    H242538   4.213   5.753   1.286
14199TIP3   OH242539   1.913   3.200   5.134
14199TIP3    H142540   1.862   3.151   5.197
14199TIP3    H242541   1.962   3.263   5.186
14200TIP3   OH242542   3.057   1.117   2.808
14200TIP3    H142543   3.119   1.188   2.788
14200TIP3    H242544   3.062   1.059   2.733
14201TIP3   OH242545   4.602   0.850   4.935
14201TIP3    H142546   4.513   0.824   4.912
14201TIP3    H242547   4.618   0.929   4.883
14202TIP3   OH242548   2.828   6.984   4.014
14202TIP3    H142549   2.776   6.910   4.045
14202TIP3    H242550   2.814   6.986   3.919
14203TIP3   OH242551   2.959   6.606   1.508
14203TIP3    H142552   3.003   6.603   1.593
14203TIP3    H242553   2.866   6.608   1.529
14204TIP3   OH242554   7.987   4.781   1.680
14204TIP3    H142555   7.907   4.728   1.683
14204TIP3    H242556   7.992   4.813   1.590
14205TIP3   OH242557   0.028   4.729   0.602
14205TIP3    H142558   0.027   4.783   0.523
14205TIP3    H242559   0.077   4.780   0.666
14206TIP3   OH242560   3.917   6.588   4.195
14206TIP3    H142561   3.932   6.651   4.266
14206TIP3    H242562   3.971   6.619   4.123
14207TIP3   OH242563   5.537   3.261   2.540
14207TIP3    H142564   5.463   3.318   2.519
14207TIP3    H242565   5.505   3.204   2.609
14208TIP3   OH242566   4.095   3.745   3.780
14208TIP3    H142567   4.134   3.799   3.712
14208TIP3    H242568   4.169   3.699   3.820
14209TIP3   OH242569   0.920   0.510   0.374
14209TIP3    H142570   0.835   0.471   0.353
14209TIP3    H242571   0.922   0.511   0.470
14210TIP3   OH242572   3.039   5.316   4.458
14210TIP3    H142573   3.100   5.244   4.443
14210TIP3    H242574   3.078   5.390   4.412
14211TIP3   OH242575   3.498   6.206   0.567
14211TIP3    H142576   3.506   6.112   0.548
14211TIP3    H242577   3.485   6.247   0.481
14212TIP3   OH242578   1.672   3.895   0.671
14212TIP3    H142579   1.663   3.805   0.702
14212TIP3    H242580   1.765   3.914   0.680
14213TIP3   OH242581   2.700   3.206   6.698
14213TIP3    H142582   2.792   3.210   6.724
14213TIP3    H242583   2.651   3.220   6.779
14214TIP3   OH242584   2.457   1.319   1.438
14214TIP3    H142585   2.508   1.242   1.462
14214TIP3    H242586   2.396   1.330   1.511
14215TIP3   OH242587   3.913   2.074   3.233
14215TIP3    H142588   3.851   2.119   3.290
14215TIP3    H242589   3.983   2.045   3.292
14216TIP3   OH242590   1.813   2.875   4.788
14216TIP3    H142591   1.789   2.965   4.763
14216TIP3    H242592   1.874   2.847   4.719
14217TIP3   OH242593   4.818   0.259   0.250
14217TIP3    H142594   4.879   0.312   0.199
14217TIP3    H242595   4.870   0.230   0.326
14218TIP3   OH242596   2.457   3.758   4.408
14218TIP3    H142597   2.385   3.805   4.451
14218TIP3    H242598   2.525   3.824   4.396
14219TIP3   OH242599   3.821   5.648   3.929
14219TIP3    H142600   3.777   5.587   3.870
14219TIP3    H242601   3.911   5.651   3.897
14220TIP3   OH242602   4.262   3.759   1.242
14220TIP3    H142603   4.350   3.768   1.206
14220TIP3    H242604   4.272   3.692   1.310
14221TIP3   OH242605   8.015   0.766   1.220
14221TIP3    H142606   8.095   0.787   1.268
14221TIP3    H242607   7.969   0.850   1.212
14222TIP3   OH242608   1.684   7.171   4.919
14222TIP3    H142609   1.778   7.150   4.924
14222TIP3    H242610   1.682   7.265   4.901
14223TIP3   OH242611   5.876   0.875   4.542
14223TIP3    H142612   5.802   0.826   4.507
14223TIP3    H242613   5.837   0.940   4.600
14224TIP3   OH242614   2.437   4.326   2.616
14224TIP3    H142615   2.424   4.301   2.525
14224TIP3    H242616   2.509   4.389   2.614
14225TIP3   OH242617   2.274   6.355   2.546
14225TIP3    H142618   2.356   6.394   2.517
14225TIP3    H242619   2.300   6.274   2.591
14226TIP3   OH242620   7.443   2.901   4.381
14226TIP3    H142621   7.391   2.978   4.356
14226TIP3    H242622   7.517   2.902   4.320
14227TIP3   OH242623   3.157   3.590   2.560
14227TIP3    H142624   3.071   3.613   2.596
14227TIP3    H242625   3.219   3.613   2.629
14228TIP3   OH242626   5.115   5.311   2.967
14228TIP3    H142627   5.140   5.286   2.878
14228TIP3    H242628   5.043   5.252   2.989
14229TIP3   OH242629   2.601   6.358   5.606
14229TIP3    H142630   2.615   6.360   5.512
14229TIP3    H242631   2.670   6.414   5.642
14230TIP3   OH242632   0.229   4.551   4.013
14230TIP3    H142633   0.234   4.644   3.990
14230TIP3    H242634   0.256   4.548   4.105
14231TIP3   OH242635   6.980   1.691   1.320
14231TIP3    H142636   6.945   1.766   1.368
14231TIP3    H242637   6.907   1.629   1.316
14232TIP3   OH242638   7.666   5.525   5.827
14232TIP3    H142639   7.607   5.598   5.843
14232TIP3    H242640   7.623   5.474   5.758
14233TIP3   OH242641   4.439   5.427   1.944
14233TIP3    H142642   4.507   5.361   1.934
14233TIP3    H242643   4.410   5.419   2.034
14234TIP3   OH242644   0.812   0.443   1.385
14234TIP3    H142645   0.787   0.418   1.296
14234TIP3    H242646   0.897   0.402   1.399
14235TIP3   OH242647   6.236   4.855   6.109
14235TIP3    H142648   6.319   4.882   6.071
14235TIP3    H242649   6.183   4.935   6.112
14236TIP3   OH242650   0.562   2.174   2.914
14236TIP3    H142651   0.559   2.251   2.857
14236TIP3    H242652   0.491   2.187   2.976
14237TIP3   OH242653   5.543   6.948   5.862
14237TIP3    H142654   5.526   6.870   5.915
14237TIP3    H242655   5.568   7.015   5.926
14238TIP3   OH242656   2.113   7.783   6.694
14238TIP3    H142657   2.031   7.770   6.743
14238TIP3    H242658   2.166   7.707   6.717
14239TIP3   OH242659   2.919   7.316   1.806
14239TIP3    H142660   2.979   7.244   1.824
14239TIP3    H242661   2.969   7.376   1.751
14240TIP3   OH242662   0.566   1.669   0.963
14240TIP3    H142663   0.554   1.594   1.021
14240TIP3    H242664   0.497   1.731   0.988
14241TIP3   OH242665   0.444   7.429   4.592
14241TIP3    H142666   0.415   7.391   4.675
14241TIP3    H242667   0.456   7.522   4.611
14242TIP3   OH242668   2.145   6.945   0.934
14242TIP3    H142669   2.116   6.999   0.860
14242TIP3    H242670   2.230   6.981   0.957
14243TIP3   OH242671   6.580   1.383   1.974
14243TIP3    H142672   6.625   1.409   1.894
14243TIP3    H242673   6.650   1.354   2.033
14244TIP3   OH242674   7.566   2.481   2.634
14244TIP3    H142675   7.523   2.444   2.556
14244TIP3    H242676   7.527   2.568   2.643
14245TIP3   OH242677   6.355   5.965   4.588
14245TIP3    H142678   6.262   5.954   4.612
14245TIP3    H242679   6.364   5.918   4.506
14246TIP3   OH242680   5.757   3.775   2.496
14246TIP3    H142681   5.831   3.799   2.552
14246TIP3    H242682   5.680   3.801   2.547
14247TIP3   OH242683   4.064   3.697   2.667
14247TIP3    H142684   4.153   3.664   2.667
14247TIP3    H242685   4.019   3.644   2.734
14248TIP3   OH242686   3.027   6.294   6.799
14248TIP3    H142687   3.118   6.302   6.771
14248TIP3    H242688   2.978   6.282   6.717
14249TIP3   OH242689   3.861   4.770   1.995
14249TIP3    H142690   3.943   4.806   1.962
14249TIP3    H242691   3.877   4.755   2.088
14250TIP3   OH242692   1.021   1.086   3.006
14250TIP3    H142693   1.008   1.062   2.914
14250TIP3    H242694   1.000   1.007   3.055
14251TIP3   OH242695   0.447   2.558   2.982
14251TIP3    H142696   0.435   2.515   3.067
14251TIP3    H242697   0.359   2.589   2.958
14252TIP3   OH242698   5.166   6.943   5.312
14252TIP3    H142699   5.135   6.937   5.402
14252TIP3    H242700   5.251   6.900   5.312
14253TIP3   OH242701   4.589   1.826   5.312
14253TIP3    H142702   4.570   1.767   5.238
14253TIP3    H242703   4.653   1.888   5.277
14254TIP3   OH242704   5.854   4.167   5.372
14254TIP3    H142705   5.862   4.074   5.352
14254TIP3    H242706   5.794   4.201   5.305
14255TIP3   OH242707   3.919   3.860   2.515
14255TIP3    H142708   3.950   3.845   2.426
14255TIP3    H242709   3.986   3.820   2.570
14256TIP3   OH242710   7.257   0.212   3.024
14256TIP3    H142711   7.270   0.227   3.117
14256TIP3    H242712   7.162   0.200   3.015
14257TIP3   OH242713   3.026   3.796   2.896
14257TIP3    H142714   3.080   3.818   2.972
14257TIP3    H242715   3.085   3.805   2.821
14258TIP3   OH242716   7.608   3.361   0.204
14258TIP3    H142717   7.602   3.351   0.109
14258TIP3    H242718   7.571   3.280   0.240
14259TIP3   OH242719   8.174   0.028   4.906
14259TIP3    H142720   8.223  -0.004   4.981
14259TIP3    H242721   8.082   0.012   4.928
14260TIP3   OH242722   6.760   6.759   5.114
14260TIP3    H142723   6.772   6.664   5.115
14260TIP3    H242724   6.665   6.771   5.116
14261TIP3   OH242725   4.738   5.726   2.465
14261TIP3    H142726   4.701   5.813   2.455
14261TIP3    H242727   4.754   5.717   2.559
14262TIP3   OH242728   6.065   1.475   1.485
14262TIP3    H142729   6.090   1.568   1.491
14262TIP3    H242730   6.015   1.469   1.404
14263TIP3   OH242731   5.446   1.510   0.231
14263TIP3    H142732   5.414   1.422   0.210
14263TIP3    H242733   5.448   1.513   0.327
14264TIP3   OH242734   8.259   4.869   1.539
14264TIP3    H142735   8.217   4.898   1.620
14264TIP3    H242736   8.250   4.943   1.479
14265TIP3   OH242737   4.433   3.939   0.179
14265TIP3    H142738   4.470   3.850   0.180
14265TIP3    H242739   4.396   3.949   0.091
14266TIP3   OH242740   0.351   6.311   3.762
14266TIP3    H142741   0.339   6.385   3.702
14266TIP3    H242742   0.304   6.337   3.841
14267TIP3   OH242743   1.294   3.550   5.716
14267TIP3    H142744   1.228   3.619   5.718
14267TIP3    H242745   1.328   3.552   5.626
14268TIP3   OH242746   8.051   2.861   4.969
14268TIP3    H142747   8.083   2.944   5.003
14268TIP3    H242748   8.068   2.865   4.875
14269TIP3   OH242749   6.361   4.596   6.086
14269TIP3    H142750   6.451   4.614   6.114
14269TIP3    H242751   6.314   4.678   6.102
14270TIP3   OH242752   2.676   4.384   1.021
14270TIP3    H142753   2.664   4.460   1.078
14270TIP3    H242754   2.771   4.378   1.008
14271TIP3   OH242755   6.257   1.561   6.161
14271TIP3    H142756   6.255   1.472   6.125
14271TIP3    H242757   6.182   1.563   6.221
14272TIP3   OH242758   7.642   1.570   3.076
14272TIP3    H142759   7.576   1.565   3.006
14272TIP3    H242760   7.711   1.509   3.048
14273TIP3   OH242761   1.992   5.201   6.632
14273TIP3    H142762   1.973   5.123   6.580
14273TIP3    H242763   2.081   5.187   6.664
14274TIP3   OH242764   7.384   3.287   3.962
14274TIP3    H142765   7.452   3.307   3.897
14274TIP3    H242766   7.394   3.193   3.979
14275TIP3   OH242767   5.419   4.758   1.327
14275TIP3    H142768   5.361   4.827   1.359
14275TIP3    H242769   5.501   4.803   1.307
14276TIP3   OH242770   0.044   4.647   5.795
14276TIP3    H142771  -0.039   4.662   5.839
14276TIP3    H242772   0.046   4.553   5.778
14277TIP3   OH242773   7.806   0.104   4.301
14277TIP3    H142774   7.771   0.189   4.276
14277TIP3    H242775   7.835   0.064   4.219
14278TIP3   OH242776   5.690   4.924   4.278
14278TIP3    H142777   5.653   4.938   4.191
14278TIP3    H242778   5.697   5.012   4.316
14279TIP3   OH242779   6.551   2.230   1.060
14279TIP3    H142780   6.626   2.200   1.008
14279TIP3    H242781   6.501   2.151   1.077
14280TIP3   OH242782   7.570   6.020   4.858
14280TIP3    H142783   7.524   6.095   4.820
14280TIP3    H242784   7.597   6.049   4.945
14281TIP3   OH242785   5.885   3.927   3.234
14281TIP3    H142786   5.892   4.018   3.263
14281TIP3    H242787   5.928   3.926   3.149
14282TIP3   OH242788   3.706   1.007   2.875
14282TIP3    H142789   3.733   1.085   2.925
14282TIP3    H242790   3.617   1.027   2.847
14283TIP3   OH242791   1.046   4.532   6.757
14283TIP3    H142792   1.042   4.468   6.686
14283TIP3    H242793   1.097   4.489   6.826
14284TIP3   OH242794   4.717   5.295   3.523
14284TIP3    H142795   4.736   5.275   3.614
14284TIP3    H242796   4.800   5.328   3.488
14285TIP3   OH242797   1.392   7.643   4.395
14285TIP3    H142798   1.407   7.724   4.443
14285TIP3    H242799   1.385   7.575   4.463
14286TIP3   OH242800   2.609   1.311   3.919
14286TIP3    H142801   2.617   1.271   4.006
14286TIP3    H242802   2.529   1.272   3.883
14287TIP3   OH242803   0.714   6.101   0.669
14287TIP3    H142804   0.753   6.021   0.634
14287TIP3    H242805   0.676   6.075   0.753
14288TIP3   OH242806   7.810   6.460   1.615
14288TIP3    H142807   7.723   6.421   1.604
14288TIP3    H242808   7.868   6.403   1.565
14289TIP3   OH242809   0.147   6.336   5.261
14289TIP3    H142810   0.057   6.345   5.292
14289TIP3    H242811   0.151   6.248   5.223
14290TIP3   OH242812   3.281   1.683   3.752
14290TIP3    H142813   3.293   1.607   3.696
14290TIP3    H242814   3.286   1.649   3.841
14291TIP3   OH242815   0.159   3.366   6.647
14291TIP3    H142816   0.072   3.405   6.647
14291TIP3    H242817   0.161   3.311   6.568
14292TIP3   OH242818   5.193   3.538   1.038
14292TIP3    H142819   5.226   3.573   1.121
14292TIP3    H242820   5.119   3.483   1.064
14293TIP3   OH242821   0.506   3.618   4.599
14293TIP3    H142822   0.515   3.609   4.694
14293TIP3    H242823   0.493   3.712   4.585
14294TIP3   OH242824   1.248   4.115   0.392
14294TIP3    H142825   1.304   4.048   0.352
14294TIP3    H242826   1.163   4.072   0.402
14295TIP3   OH242827   7.982   6.316   6.339
14295TIP3    H142828   8.027   6.353   6.415
14295TIP3    H242829   8.043   6.331   6.266
14296TIP3   OH242830   7.473   6.589   0.374
14296TIP3    H142831   7.566   6.595   0.354
14296TIP3    H242832   7.430   6.593   0.288
14297TIP3   OH242833   6.118   5.536   0.725
14297TIP3    H142834   6.028   5.502   0.725
14297TIP3    H242835   6.109   5.626   0.694
14298TIP3   OH242836   3.361   4.427   4.276
14298TIP3    H142837   3.311   4.508   4.270
14298TIP3    H242838   3.300   4.363   4.314
14299TIP3   OH242839   8.082   1.055   4.529
14299TIP3    H142840   8.116   1.095   4.609
14299TIP3    H242841   8.081   0.961   4.548
14300TIP3   OH242842   5.022   0.066   1.955
14300TIP3    H142843   5.076  -0.008   1.983
14300TIP3    H242844   5.074   0.110   1.888
14301TIP3   OH242845   7.082   1.209   1.172
14301TIP3    H142846   7.021   1.275   1.204
14301TIP3    H242847   7.030   1.157   1.110
14302TIP3   OH242848   0.155   6.996   0.001
14302TIP3    H142849   0.225   6.934   0.018
14302TIP3    H242850   0.181   7.076   0.046
14303TIP3   OH242851   1.509   0.362   3.846
14303TIP3    H142852   1.589   0.408   3.873
14303TIP3    H242853   1.461   0.425   3.792
14304TIP3   OH242854   3.340   0.166   0.730
14304TIP3    H142855   3.260   0.145   0.682
14304TIP3    H242856   3.310   0.213   0.808
14305TIP3   OH242857   3.410   3.936   5.504
14305TIP3    H142858   3.402   3.886   5.423
14305TIP3    H242859   3.373   4.022   5.482
14306TIP3   OH242860   1.182   6.320   5.336
14306TIP3    H142861   1.152   6.255   5.400
14306TIP3    H242862   1.278   6.316   5.342
14307TIP3   OH242863   1.802   2.206   1.291
14307TIP3    H142864   1.879   2.150   1.292
14307TIP3    H242865   1.765   2.194   1.203
14308TIP3   OH242866   7.498   1.254   0.272
14308TIP3    H142867   7.584   1.250   0.229
14308TIP3    H242868   7.514   1.302   0.353
14309TIP3   OH242869   2.444   2.644   6.599
14309TIP3    H142870   2.463   2.693   6.519
14309TIP3    H242871   2.530   2.625   6.636
14310TIP3   OH242872   4.722   4.929   1.545
14310TIP3    H142873   4.796   4.896   1.596
14310TIP3    H242874   4.664   4.854   1.537
14311TIP3   OH242875   8.121   7.146   6.284
14311TIP3    H142876   8.196   7.103   6.325
14311TIP3    H242877   8.100   7.090   6.209
14312TIP3   OH242878   7.117   6.560   5.588
14312TIP3    H142879   7.107   6.654   5.602
14312TIP3    H242880   7.158   6.552   5.502
14313TIP3   OH242881   1.402   2.003   3.880
14313TIP3    H142882   1.311   1.979   3.898
14313TIP3    H242883   1.429   1.942   3.811
14314TIP3   OH242884   0.006   1.384   5.747
14314TIP3    H142885   0.052   1.445   5.689
14314TIP3    H242886  -0.053   1.440   5.797
14315TIP3   OH242887   6.813   6.649   4.419
14315TIP3    H142888   6.798   6.733   4.375
14315TIP3    H242889   6.789   6.665   4.510
14316TIP3   OH242890   0.626   3.926   4.790
14316TIP3    H142891   0.676   4.000   4.823
14316TIP3    H242892   0.663   3.909   4.704
14317TIP3   OH242893   1.611   1.976   0.087
14317TIP3    H142894   1.684   1.979   0.026
14317TIP3    H242895   1.592   2.067   0.107
14318TIP3   OH242896   6.930   5.571   2.538
14318TIP3    H142897   6.964   5.579   2.628
14318TIP3    H242898   6.969   5.491   2.504
14319TIP3   OH242899   5.486   5.562   1.097
14319TIP3    H142900   5.434   5.621   1.042
14319TIP3    H242901   5.540   5.513   1.036
14320TIP3   OH242902   6.317   7.850   1.480
14320TIP3    H142903   6.395   7.822   1.433
14320TIP3    H242904   6.300   7.780   1.543
14321TIP3   OH242905   6.347   3.372   5.340
14321TIP3    H142906   6.392   3.438   5.288
14321TIP3    H242907   6.417   3.332   5.392
14322TIP3   OH242908   7.655   2.561   5.635
14322TIP3    H142909   7.745   2.531   5.624
14322TIP3    H242910   7.603   2.505   5.579
14323TIP3   OH242911   5.800   0.118   5.904
14323TIP3    H142912   5.793   0.159   5.818
14323TIP3    H242913   5.718   0.070   5.915
14324TIP3   OH242914   7.088   0.901   1.438
14324TIP3    H142915   7.056   0.813   1.456
14324TIP3    H242916   7.020   0.940   1.382
14325TIP3   OH242917   7.923   2.832   4.090
14325TIP3    H142918   7.957   2.916   4.060
14325TIP3    H242919   7.850   2.813   4.032
14326TIP3   OH242920   7.456   4.947   6.443
14326TIP3    H142921   7.462   4.878   6.376
14326TIP3    H242922   7.387   4.917   6.502
14327TIP3   OH242923   1.620   4.894   0.522
14327TIP3    H142924   1.583   4.956   0.585
14327TIP3    H242925   1.676   4.836   0.574
14328TIP3   OH242926   2.877   5.064   2.752
14328TIP3    H142927   2.847   5.093   2.838
14328TIP3    H242928   2.798   5.064   2.698
14329TIP3   OH242929   3.676   1.578   4.217
14329TIP3    H142930   3.689   1.502   4.275
14329TIP3    H242931   3.731   1.560   4.141
14330TIP3   OH242932   1.642   6.106   1.656
14330TIP3    H142933   1.619   6.128   1.746
14330TIP3    H242934   1.564   6.128   1.605
14331TIP3   OH242935   7.397   1.071   4.205
14331TIP3    H142936   7.338   1.147   4.203
14331TIP3    H242937   7.475   1.104   4.249
14332TIP3   OH242938   0.019   1.399   0.578
14332TIP3    H142939   0.099   1.419   0.528
14332TIP3    H242940  -0.027   1.483   0.582
14333TIP3   OH242941   1.425   1.853   2.294
14333TIP3    H142942   1.451   1.849   2.386
14333TIP3    H242943   1.443   1.766   2.260
14334TIP3   OH242944   7.625   0.115   3.491
14334TIP3    H142945   7.681   0.143   3.419
14334TIP3    H242946   7.545   0.083   3.449
14335TIP3   OH242947   0.737   0.346   4.102
14335TIP3    H142948   0.704   0.276   4.047
14335TIP3    H242949   0.728   0.313   4.191
14336TIP3   OH242950   3.690   3.751   0.695
14336TIP3    H142951   3.657   3.795   0.617
14336TIP3    H242952   3.665   3.659   0.683
14337TIP3   OH242953   5.627   4.197   4.615
14337TIP3    H142954   5.691   4.203   4.544
14337TIP3    H242955   5.543   4.181   4.570
14338TIP3   OH242956   3.459   2.486   4.724
14338TIP3    H142957   3.484   2.578   4.734
14338TIP3    H242958   3.385   2.475   4.783
14339TIP3   OH242959   4.205   0.914   3.520
14339TIP3    H142960   4.291   0.910   3.563
14339TIP3    H242961   4.224   0.895   3.428
14340TIP3   OH242962   2.589   7.583   5.868
14340TIP3    H142963   2.517   7.586   5.805
14340TIP3    H242964   2.600   7.674   5.895
14341TIP3   OH242965   2.620   6.260   3.750
14341TIP3    H142966   2.681   6.189   3.768
14341TIP3    H242967   2.547   6.245   3.809
14342TIP3   OH242968   1.930   1.889   1.185
14342TIP3    H142969   1.952   1.950   1.115
14342TIP3    H242970   1.834   1.887   1.186
14343TIP3   OH242971   2.079   0.777   2.024
14343TIP3    H142972   2.090   0.808   1.934
14343TIP3    H242973   2.168   0.762   2.055
14344TIP3   OH242974   6.289   3.183   5.036
14344TIP3    H142975   6.282   3.190   5.131
14344TIP3    H242976   6.364   3.237   5.013
14345TIP3   OH242977   4.661   6.218   2.356
14345TIP3    H142978   4.705   6.261   2.429
14345TIP3    H242979   4.648   6.287   2.292
14346TIP3   OH242980   0.854   3.267   1.782
14346TIP3    H142981   0.853   3.363   1.778
14346TIP3    H242982   0.786   3.244   1.845
14347TIP3   OH242983   0.165   0.755   4.656
14347TIP3    H142984   0.100   0.811   4.699
14347TIP3    H242985   0.126   0.732   4.572
14348TIP3   OH242986   7.441   2.117   1.579
14348TIP3    H142987   7.446   2.042   1.520
14348TIP3    H242988   7.353   2.153   1.564
14349TIP3   OH242989   6.741   1.998   0.706
14349TIP3    H142990   6.760   2.083   0.667
14349TIP3    H242991   6.647   1.985   0.690
14350TIP3   OH242992   4.207   4.262   2.696
14350TIP3    H142993   4.235   4.173   2.719
14350TIP3    H242994   4.112   4.256   2.685
14351TIP3   OH242995   5.601   2.215   3.525
14351TIP3    H142996   5.626   2.218   3.433
14351TIP3    H242997   5.595   2.306   3.551
14352TIP3   OH242998   2.413   5.215   5.857
14352TIP3    H142999   2.378   5.126   5.850
14352TIP3    H243000   2.477   5.222   5.786
14353TIP3   OH243001   6.151   3.277   3.838
14353TIP3    H143002   6.144   3.225   3.758
14353TIP3    H243003   6.064   3.315   3.849
14354TIP3   OH243004   6.452   5.642   4.719
14354TIP3    H143005   6.455   5.548   4.735
14354TIP3    H243006   6.477   5.651   4.627
14355TIP3   OH243007   4.147   3.861   1.647
14355TIP3    H143008   4.077   3.832   1.705
14355TIP3    H243009   4.215   3.893   1.706
14356TIP3   OH243010   0.994   1.042   2.036
14356TIP3    H143011   0.961   0.983   1.968
14356TIP3    H243012   0.957   1.127   2.015
14357TIP3   OH243013   3.671   7.100   2.424
14357TIP3    H143014   3.654   7.111   2.330
14357TIP3    H243015   3.765   7.113   2.433
14358TIP3   OH243016   7.593   7.316   3.797
14358TIP3    H143017   7.594   7.222   3.781
14358TIP3    H243018   7.529   7.350   3.734
14359TIP3   OH243019   0.151   6.454   3.948
14359TIP3    H143020   0.123   6.475   4.037
14359TIP3    H243021   0.109   6.520   3.893
14360TIP3   OH243022   6.664   3.699   0.297
14360TIP3    H143023   6.646   3.772   0.237
14360TIP3    H243024   6.739   3.654   0.258
14361TIP3   OH243025   6.048   4.706   6.215
14361TIP3    H143026   5.982   4.763   6.256
14361TIP3    H243027   6.109   4.767   6.173
14362TIP3   OH243028   0.119   2.657   3.256
14362TIP3    H143029   0.125   2.562   3.269
14362TIP3    H243030   0.025   2.675   3.256
14363TIP3   OH243031   1.616   5.932   4.465
14363TIP3    H143032   1.683   5.909   4.530
14363TIP3    H243033   1.625   6.026   4.453
14364TIP3   OH243034   4.520   4.840   0.148
14364TIP3    H143035   4.600   4.893   0.158
14364TIP3    H243036   4.471   4.884   0.079
14365TIP3   OH243037   6.346   1.249   3.650
14365TIP3    H143038   6.299   1.166   3.662
14365TIP3    H243039   6.342   1.291   3.736
14366TIP3   OH243040   0.369   1.636   1.411
14366TIP3    H143041   0.388   1.721   1.451
14366TIP3    H243042   0.434   1.577   1.447
14367TIP3   OH243043   0.114   1.385   1.604
14367TIP3    H143044   0.080   1.411   1.689
14367TIP3    H243045   0.096   1.460   1.547
14368TIP3   OH243046   7.196   4.927   2.382
14368TIP3    H143047   7.107   4.963   2.390
14368TIP3    H243048   7.253   4.998   2.410
14369TIP3   OH243049   0.486   5.939   6.194
14369TIP3    H143050   0.441   5.966   6.273
14369TIP3    H243051   0.578   5.963   6.208
14370TIP3   OH243052   1.122   7.764   1.957
14370TIP3    H143053   1.074   7.798   2.033
14370TIP3    H243054   1.069   7.792   1.882
14371TIP3   OH243055   5.427   3.641   3.288
14371TIP3    H143056   5.355   3.684   3.333
14371TIP3    H243057   5.462   3.707   3.229
14372TIP3   OH243058   6.681   0.409   5.473
14372TIP3    H143059   6.624   0.334   5.458
14372TIP3    H243060   6.737   0.414   5.396
14373TIP3   OH243061   2.769   5.046   6.379
14373TIP3    H143062   2.732   5.110   6.439
14373TIP3    H243063   2.712   4.970   6.387
14374TIP3   OH243064   5.356   6.401   5.920
14374TIP3    H143065   5.275   6.447   5.942
14374TIP3    H243066   5.410   6.466   5.875
14375TIP3   OH243067   4.544   1.503   0.157
14375TIP3    H143068   4.499   1.552   0.089
14375TIP3    H243069   4.561   1.417   0.118
14376TIP3   OH243070   5.407   4.111   4.970
14376TIP3    H143071   5.364   4.186   4.930
14376TIP3    H243072   5.401   4.042   4.904
14377TIP3   OH243073   5.874   5.784   1.256
14377TIP3    H143074   5.823   5.848   1.305
14377TIP3    H243075   5.887   5.825   1.170
14378TIP3   OH243076   2.222   0.635   1.593
14378TIP3    H143077   2.135   0.601   1.617
14378TIP3    H243078   2.243   0.591   1.511
14379TIP3   OH243079   4.974   5.226   0.837
14379TIP3    H143080   5.027   5.205   0.760
14379TIP3    H243081   4.931   5.143   0.860
14380TIP3   OH243082   6.770   0.160   3.433
14380TIP3    H143083   6.781   0.076   3.477
14380TIP3    H243084   6.859   0.190   3.415
14381TIP3   OH243085   0.058   2.535   1.570
14381TIP3    H143086  -0.007   2.599   1.543
14381TIP3    H243087   0.135   2.554   1.516
14382TIP3   OH243088   3.356   3.606   5.692
14382TIP3    H143089   3.407   3.611   5.773
14382TIP3    H243090   3.291   3.676   5.701
14383TIP3   OH243091   2.845   1.842   5.609
14383TIP3    H143092   2.806   1.758   5.586
14383TIP3    H243093   2.797   1.906   5.557
14384TIP3   OH243094   3.563   1.838   0.940
14384TIP3    H143095   3.659   1.843   0.945
14384TIP3    H243096   3.546   1.774   0.871
14385TIP3   OH243097   1.123   5.268   0.307
14385TIP3    H143098   1.079   5.183   0.307
14385TIP3    H243099   1.216   5.247   0.311
14386TIP3   OH243100   0.838   0.646   5.990
14386TIP3    H143101   0.791   0.682   6.065
14386TIP3    H243102   0.770   0.621   5.928
14387TIP3   OH243103   3.739   2.277   6.116
14387TIP3    H143104   3.770   2.358   6.156
14387TIP3    H243105   3.677   2.241   6.178
14388TIP3   OH243106   4.524   7.660   1.834
14388TIP3    H143107   4.544   7.704   1.916
14388TIP3    H243108   4.609   7.645   1.793
14389TIP3   OH243109   0.955   5.572   4.480
14389TIP3    H143110   1.029   5.515   4.460
14389TIP3    H243111   0.994   5.658   4.495
14390TIP3   OH243112   5.022   7.756   6.177
14390TIP3    H143113   5.100   7.806   6.151
14390TIP3    H243114   5.035   7.740   6.271
14391TIP3   OH243115   4.795   3.846   4.427
14391TIP3    H143116   4.764   3.850   4.518
14391TIP3    H243117   4.877   3.796   4.432
14392TIP3   OH243118   0.045   2.171   4.112
14392TIP3    H143119   0.063   2.115   4.037
14392TIP3    H243120   0.105   2.141   4.180
14393TIP3   OH243121   7.803   2.538   3.818
14393TIP3    H143122   7.733   2.476   3.839
14393TIP3    H243123   7.770   2.588   3.744
14394TIP3   OH243124   4.202   2.323   1.279
14394TIP3    H143125   4.280   2.374   1.258
14394TIP3    H243126   4.141   2.342   1.207
14395TIP3   OH243127   5.352   6.502   3.394
14395TIP3    H143128   5.387   6.450   3.322
14395TIP3    H243129   5.290   6.443   3.437
14396TIP3   OH243130   1.793   4.403   1.594
14396TIP3    H143131   1.711   4.381   1.551
14396TIP3    H243132   1.857   4.407   1.522
14397TIP3   OH243133   7.812   1.135   4.733
14397TIP3    H143134   7.806   1.084   4.653
14397TIP3    H243135   7.757   1.088   4.796
14398TIP3   OH243136   6.494   0.966   6.260
14398TIP3    H143137   6.561   0.991   6.195
14398TIP3    H243138   6.418   0.943   6.207
14399TIP3   OH243139   3.140   0.016   0.504
14399TIP3    H143140   3.205  -0.049   0.531
14399TIP3    H243141   3.106  -0.018   0.422
14400TIP3   OH243142   2.657   0.088   1.410
14400TIP3    H143143   2.584   0.029   1.430
14400TIP3    H243144   2.717   0.034   1.359
14401TIP3   OH243145   3.287   3.188   0.920
14401TIP3    H143146   3.286   3.259   0.984
14401TIP3    H243147   3.378   3.158   0.919
14402TIP3   OH243148   2.528   4.897   6.301
14402TIP3    H143149   2.521   4.992   6.299
14402TIP3    H243150   2.492   4.868   6.217
14403TIP3   OH243151   5.468   7.067   1.383
14403TIP3    H143152   5.450   6.989   1.435
14403TIP3    H243153   5.523   7.035   1.311
14404TIP3   OH243154   7.982   1.295   6.047
14404TIP3    H143155   7.954   1.304   6.138
14404TIP3    H243156   8.076   1.275   6.053
14405TIP3   OH243157   8.067   1.952   5.398
14405TIP3    H143158   8.094   1.861   5.412
14405TIP3    H243159   7.972   1.950   5.403
14406TIP3   OH243160   6.068   7.682   4.779
14406TIP3    H143161   6.102   7.689   4.868
14406TIP3    H243162   6.145   7.673   4.724
14407TIP3   OH243163   1.549   3.380   5.183
14407TIP3    H143164   1.464   3.349   5.150
14407TIP3    H243165   1.527   3.456   5.237
14408TIP3   OH243166   8.203   6.303   0.548
14408TIP3    H143167   8.248   6.345   0.622
14408TIP3    H243168   8.114   6.336   0.553
14409TIP3   OH243169   3.677   7.652   3.336
14409TIP3    H143170   3.645   7.741   3.343
14409TIP3    H243171   3.772   7.660   3.328
14410TIP3   OH243172   0.004   6.616   5.213
14410TIP3    H143173   0.099   6.615   5.197
14410TIP3    H243174  -0.027   6.694   5.166
14411TIP3   OH243175   4.029   5.905   3.456
14411TIP3    H143176   4.053   5.880   3.367
14411TIP3    H243177   4.105   5.955   3.488
14412TIP3   OH243178   1.588   6.276   5.728
14412TIP3    H143179   1.591   6.364   5.766
14412TIP3    H243180   1.679   6.256   5.706
14413TIP3   OH243181   2.992   7.365   0.372
14413TIP3    H143182   3.085   7.371   0.390
14413TIP3    H243183   2.955   7.447   0.405
14414TIP3   OH243184   3.134   0.419   6.746
14414TIP3    H143185   3.189   0.423   6.824
14414TIP3    H243186   3.196   0.413   6.673
14415TIP3   OH243187   2.125   2.346   5.776
14415TIP3    H143188   2.121   2.266   5.723
14415TIP3    H243189   2.165   2.319   5.858
14416TIP3   OH243190   7.590   6.170   5.118
14416TIP3    H143191   7.498   6.143   5.123
14416TIP3    H243192   7.610   6.202   5.206
14417TIP3   OH243193   0.502   7.033   6.088
14417TIP3    H143194   0.563   7.103   6.067
14417TIP3    H243195   0.458   7.063   6.168
14418TIP3   OH243196   4.267   2.862   3.901
14418TIP3    H143197   4.185   2.848   3.853
14418TIP3    H243198   4.240   2.899   3.985
14419TIP3   OH243199   1.469   5.254   3.876
14419TIP3    H143200   1.478   5.207   3.959
14419TIP3    H243201   1.554   5.297   3.864
14420TIP3   OH243202   1.879   3.387   2.503
14420TIP3    H143203   1.931   3.351   2.431
14420TIP3    H243204   1.937   3.382   2.579
14421TIP3   OH243205   2.386   4.814   0.743
14421TIP3    H143206   2.474   4.780   0.762
14421TIP3    H243207   2.373   4.883   0.807
14422TIP3   OH243208   8.183   0.588   2.319
14422TIP3    H143209   8.225   0.673   2.331
14422TIP3    H243210   8.232   0.547   2.248
14423TIP3   OH243211   1.958   3.435   0.559
14423TIP3    H143212   2.001   3.370   0.502
14423TIP3    H243213   2.013   3.513   0.552
14424TIP3   OH243214   7.473   4.782   4.033
14424TIP3    H143215   7.420   4.859   4.011
14424TIP3    H243216   7.510   4.754   3.949
14425TIP3   OH243217   7.193   4.748   2.159
14425TIP3    H143218   7.160   4.804   2.089
14425TIP3    H243219   7.196   4.805   2.236
14426TIP3   OH243220   5.920   6.096   6.679
14426TIP3    H143221   5.974   6.173   6.692
14426TIP3    H243222   5.839   6.129   6.640
14427TIP3   OH243223   7.057   0.780   3.444
14427TIP3    H143224   6.984   0.758   3.385
14427TIP3    H243225   7.019   0.775   3.532
14428TIP3   OH243226   2.234   1.144   3.974
14428TIP3    H143227   2.249   1.234   4.004
14428TIP3    H243228   2.142   1.127   3.996
14429TIP3   OH243229   6.336   3.697   5.794
14429TIP3    H143230   6.384   3.767   5.839
14429TIP3    H243231   6.292   3.741   5.722
14430TIP3   OH243232   0.449   6.222   2.277
14430TIP3    H143233   0.439   6.160   2.348
14430TIP3    H243234   0.515   6.284   2.308
14431TIP3   OH243235   3.978   7.759   6.824
14431TIP3    H143236   3.914   7.776   6.755
14431TIP3    H243237   4.007   7.846   6.852
14432TIP3   OH243238   7.657   0.452   6.345
14432TIP3    H143239   7.615   0.391   6.405
14432TIP3    H243240   7.594   0.524   6.337
14433TIP3   OH243241   2.636   5.438   5.385
14433TIP3    H143242   2.724   5.445   5.350
14433TIP3    H243243   2.610   5.348   5.369
14434TIP3   OH243244   1.218   4.166   2.941
14434TIP3    H143245   1.186   4.159   2.851
14434TIP3    H243246   1.155   4.224   2.984
14435TIP3   OH243247   7.019   3.899   5.379
14435TIP3    H143248   6.939   3.929   5.336
14435TIP3    H243249   7.033   3.810   5.345
14436TIP3   OH243250   0.028   3.299   3.827
14436TIP3    H143251  -0.042   3.344   3.874
14436TIP3    H243252   0.005   3.308   3.735
14437TIP3   OH243253   3.796   3.285   1.864
14437TIP3    H143254   3.866   3.221   1.853
14437TIP3    H243255   3.842   3.369   1.874
14438TIP3   OH243256   2.847   1.094   3.556
14438TIP3    H143257   2.828   1.153   3.628
14438TIP3    H243258   2.812   1.010   3.584
14439TIP3   OH243259   4.030   1.428   6.502
14439TIP3    H143260   3.948   1.418   6.454
14439TIP3    H243261   4.004   1.421   6.594
14440TIP3   OH243262   8.219   3.887   4.565
14440TIP3    H143263   8.133   3.846   4.553
14440TIP3    H243264   8.201   3.981   4.568
14441TIP3   OH243265   4.500   5.629   6.403
14441TIP3    H143266   4.456   5.708   6.371
14441TIP3    H243267   4.578   5.661   6.447
14442TIP3   OH243268   7.008   1.840   5.775
14442TIP3    H143269   7.001   1.840   5.870
14442TIP3    H243270   6.963   1.760   5.748
14443TIP3   OH243271   4.872   3.009   3.672
14443TIP3    H143272   4.956   2.968   3.690
14443TIP3    H243273   4.839   3.033   3.759
14444TIP3   OH243274   5.318   6.016   5.453
14444TIP3    H143275   5.291   6.081   5.518
14444TIP3    H243276   5.368   6.065   5.389
14445TIP3   OH243277   5.175   4.112   6.326
14445TIP3    H143278   5.255   4.160   6.346
14445TIP3    H243279   5.146   4.077   6.409
14446TIP3   OH243280   2.777   5.742   5.792
14446TIP3    H143281   2.809   5.723   5.703
14446TIP3    H243282   2.750   5.833   5.788
14447TIP3   OH243283   4.174   6.091   3.594
14447TIP3    H143284   4.227   6.132   3.525
14447TIP3    H243285   4.239   6.055   3.655
14448TIP3   OH243286   4.972   3.749   5.274
14448TIP3    H143287   5.009   3.745   5.362
14448TIP3    H243288   5.048   3.750   5.216
14449TIP3   OH243289   6.790   2.725   1.179
14449TIP3    H143290   6.820   2.666   1.248
14449TIP3    H243291   6.815   2.682   1.098
14450TIP3   OH243292   3.055   7.626   2.659
14450TIP3    H143293   3.090   7.537   2.663
14450TIP3    H243294   3.125   7.681   2.694
14451TIP3   OH243295   0.014   3.737   3.366
14451TIP3    H143296  -0.041   3.807   3.330
14451TIP3    H243297   0.082   3.783   3.416
14452TIP3   OH243298   3.558   1.065   4.673
14452TIP3    H143299   3.553   1.158   4.695
14452TIP3    H243300   3.476   1.029   4.708
14453TIP3   OH243301   1.687   3.541   2.164
14453TIP3    H143302   1.731   3.588   2.093
14453TIP3    H243303   1.709   3.589   2.243
14454TIP3   OH243304   3.442   6.489   3.212
14454TIP3    H143305   3.473   6.525   3.129
14454TIP3    H243306   3.353   6.458   3.192
14455TIP3   OH243307   5.300   1.648   0.058
14455TIP3    H143308   5.334   1.606   0.137
14455TIP3    H243309   5.378   1.686   0.016
14456TIP3   OH243310   0.619   2.482   0.874
14456TIP3    H143311   0.617   2.560   0.819
14456TIP3    H243312   0.575   2.509   0.955
14457TIP3   OH243313   6.302   3.285   5.869
14457TIP3    H143314   6.327   3.209   5.816
14457TIP3    H243315   6.340   3.360   5.823
14458TIP3   OH243316   0.103   6.723   0.370
14458TIP3    H143317   0.071   6.774   0.296
14458TIP3    H243318   0.154   6.652   0.330
14459TIP3   OH243319   3.780   0.653   1.512
14459TIP3    H143320   3.783   0.571   1.560
14459TIP3    H243321   3.872   0.681   1.507
14460TIP3   OH243322   2.514   5.583   4.542
14460TIP3    H143323   2.474   5.635   4.472
14460TIP3    H243324   2.595   5.550   4.504
14461TIP3   OH243325   4.906   0.459   2.737
14461TIP3    H143326   4.939   0.497   2.655
14461TIP3    H243327   4.985   0.428   2.782
14462TIP3   OH243328   7.313   6.770   3.359
14462TIP3    H143329   7.227   6.812   3.359
14462TIP3    H243330   7.319   6.727   3.444
14463TIP3   OH243331   1.004   6.752   6.435
14463TIP3    H143332   0.992   6.699   6.513
14463TIP3    H243333   0.966   6.837   6.457
14464TIP3   OH243334   4.545   5.701   2.753
14464TIP3    H143335   4.484   5.775   2.753
14464TIP3    H243336   4.492   5.627   2.782
14465TIP3   OH243337   6.525   2.204   1.545
14465TIP3    H143338   6.522   2.273   1.479
14465TIP3    H243339   6.433   2.182   1.561
14466TIP3   OH243340   7.554   0.306   3.662
14466TIP3    H143341   7.595   0.245   3.601
14466TIP3    H243342   7.460   0.296   3.646
14467TIP3   OH243343   2.982   4.144   4.716
14467TIP3    H143344   3.026   4.222   4.750
14467TIP3    H243345   2.982   4.156   4.621
14468TIP3   OH243346   1.531   0.861   5.658
14468TIP3    H143347   1.473   0.785   5.650
14468TIP3    H243348   1.500   0.907   5.735
14469TIP3   OH243349   1.915   7.189   1.206
14469TIP3    H143350   1.991   7.245   1.187
14469TIP3    H243351   1.886   7.217   1.292
14470TIP3   OH243352   2.997   6.205   1.130
14470TIP3    H143353   3.066   6.265   1.102
14470TIP3    H243354   3.015   6.123   1.083
14471TIP3   OH243355   3.294   1.746   1.306
14471TIP3    H143356   3.349   1.798   1.247
14471TIP3    H243357   3.269   1.807   1.375
14472TIP3   OH243358   1.082   7.654   3.489
14472TIP3    H143359   1.029   7.576   3.505
14472TIP3    H243360   1.064   7.677   3.398
14473TIP3   OH243361   2.885   4.293   3.256
14473TIP3    H143362   2.930   4.312   3.174
14473TIP3    H243363   2.930   4.348   3.321
14474TIP3   OH243364   2.937   6.002   3.461
14474TIP3    H143365   2.929   6.097   3.467
14474TIP3    H243366   3.032   5.986   3.459
14475TIP3   OH243367   4.830   5.495   2.303
14475TIP3    H143368   4.804   5.582   2.335
14475TIP3    H243369   4.883   5.513   2.225
14476TIP3   OH243370   6.758   1.749   4.238
14476TIP3    H143371   6.825   1.687   4.211
14476TIP3    H243372   6.745   1.732   4.331
14477TIP3   OH243373   8.248   5.410   5.220
14477TIP3    H143374   8.194   5.332   5.209
14477TIP3    H243375   8.239   5.458   5.138
14478TIP3   OH243376   6.794   0.529   0.111
14478TIP3    H143377   6.818   0.581   0.188
14478TIP3    H243378   6.877   0.495   0.079
14479TIP3   OH243379   0.415   0.743   3.052
14479TIP3    H143380   0.365   0.786   3.122
14479TIP3    H243381   0.348   0.708   2.993
14480TIP3   OH243382   0.076   6.527   0.603
14480TIP3    H143383   0.029   6.574   0.534
14480TIP3    H243384   0.153   6.490   0.560
14481TIP3   OH243385   4.974   6.501   1.923
14481TIP3    H143386   4.966   6.417   1.968
14481TIP3    H243387   4.947   6.483   1.833
14482TIP3   OH243388   8.007   5.245   2.242
14482TIP3    H143389   7.972   5.165   2.203
14482TIP3    H243390   8.092   5.219   2.278
14483TIP3   OH243391   2.919   0.291   2.797
14483TIP3    H143392   2.832   0.285   2.837
14483TIP3    H243393   2.946   0.200   2.784
14484TIP3   OH243394   1.406   1.561   0.686
14484TIP3    H143395   1.407   1.615   0.607
14484TIP3    H243396   1.411   1.471   0.653
14485TIP3   OH243397   0.900   3.433   6.367
14485TIP3    H143398   0.932   3.514   6.406
14485TIP3    H243399   0.848   3.392   6.436
14486TIP3   OH243400   4.777   4.821   3.633
14486TIP3    H143401   4.747   4.733   3.657
14486TIP3    H243402   4.825   4.852   3.710
14487TIP3   OH243403   2.767   1.422   0.986
14487TIP3    H143404   2.722   1.456   1.063
14487TIP3    H243405   2.699   1.416   0.919
14488TIP3   OH243406   1.114   6.094   6.303
14488TIP3    H143407   1.182   6.073   6.239
14488TIP3    H243408   1.113   6.189   6.308
14489TIP3   OH243409   5.880   5.722   6.542
14489TIP3    H143410   5.887   5.684   6.629
14489TIP3    H243411   5.959   5.777   6.533
14490TIP3   OH243412   3.571   0.828   4.056
14490TIP3    H143413   3.542   0.912   4.019
14490TIP3    H243414   3.652   0.849   4.102
14491TIP3   OH243415   6.110   0.966   3.385
14491TIP3    H143416   6.205   0.980   3.381
14491TIP3    H243417   6.073   1.046   3.347
14492TIP3   OH243418   3.628   3.009   1.651
14492TIP3    H143419   3.678   2.938   1.612
14492TIP3    H243420   3.651   3.086   1.599
14493TIP3   OH243421   6.731   3.587   5.394
14493TIP3    H143422   6.685   3.662   5.432
14493TIP3    H243423   6.817   3.621   5.371
14494TIP3   OH243424   7.852   3.521   4.102
14494TIP3    H143425   7.780   3.472   4.140
14494TIP3    H243426   7.873   3.589   4.166
14495TIP3   OH243427   1.429   1.686   0.433
14495TIP3    H143428   1.452   1.773   0.401
14495TIP3    H243429   1.421   1.632   0.354
14496TIP3   OH243430   7.425   5.122   3.647
14496TIP3    H143431   7.377   5.201   3.623
14496TIP3    H243432   7.372   5.050   3.612
14497TIP3   OH243433   3.068   1.850   3.975
14497TIP3    H143434   3.069   1.863   3.880
14497TIP3    H243435   3.012   1.920   4.008
14498TIP3   OH243436   2.892   7.325   5.639
14498TIP3    H143437   2.806   7.288   5.620
14498TIP3    H243438   2.878   7.377   5.719
14499TIP3   OH243439   2.884   2.707   3.711
14499TIP3    H143440   2.902   2.767   3.784
14499TIP3    H243441   2.916   2.622   3.742
14500TIP3   OH243442   0.467   6.425   0.269
14500TIP3    H143443   0.545   6.436   0.215
14500TIP3    H243444   0.459   6.507   0.317
14501TIP3   OH243445   3.002   4.185   5.457
14501TIP3    H143446   2.937   4.254   5.446
14501TIP3    H243447   2.993   4.158   5.549
14502TIP3   OH243448   1.353   6.110   4.049
14502TIP3    H143449   1.356   6.204   4.029
14502TIP3    H243450   1.266   6.082   4.020
14503TIP3   OH243451   3.794   5.142   1.336
14503TIP3    H143452   3.750   5.225   1.354
14503TIP3    H243453   3.822   5.110   1.421
14504TIP3   OH243454   6.203   4.421   3.112
14504TIP3    H143455   6.186   4.487   3.045
14504TIP3    H243456   6.130   4.429   3.174
14505TIP3   OH243457   3.773   1.918   4.403
14505TIP3    H143458   3.856   1.889   4.367
14505TIP3    H243459   3.786   2.010   4.425
14506TIP3   OH243460   1.867   5.532   4.700
14506TIP3    H143461   1.829   5.463   4.754
14506TIP3    H243462   1.957   5.503   4.684
14507TIP3   OH243463   8.241   4.111   0.202
14507TIP3    H143464   8.307   4.077   0.143
14507TIP3    H243465   8.277   4.099   0.290
14508TIP3   OH243466   5.220   3.267   2.584
14508TIP3    H143467   5.181   3.203   2.525
14508TIP3    H243468   5.245   3.216   2.662
14509TIP3   OH243469   4.700   1.132   6.533
14509TIP3    H143470   4.638   1.085   6.476
14509TIP3    H243471   4.646   1.197   6.578
14510TIP3   OH243472   0.385   1.863   3.793
14510TIP3    H143473   0.303   1.894   3.832
14510TIP3    H243474   0.380   1.767   3.800
14511TIP3   OH243475   6.881   0.940   2.961
14511TIP3    H143476   6.868   0.847   2.979
14511TIP3    H243477   6.809   0.983   3.008
14512TIP3   OH243478   0.385   6.475   4.317
14512TIP3    H143479   0.407   6.563   4.348
14512TIP3    H243480   0.301   6.486   4.273
14513TIP3   OH243481   7.828   3.579   1.948
14513TIP3    H143482   7.835   3.614   2.037
14513TIP3    H243483   7.892   3.508   1.945
14514TIP3   OH243484   1.014   1.665   5.223
14514TIP3    H143485   1.083   1.685   5.159
14514TIP3    H243486   0.937   1.645   5.170
14515TIP3   OH243487   2.043   3.763   3.504
14515TIP3    H143488   2.059   3.772   3.410
14515TIP3    H243489   2.024   3.852   3.534
14516TIP3   OH243490   3.316   7.457   5.938
14516TIP3    H143491   3.278   7.411   5.863
14516TIP3    H243492   3.407   7.425   5.943
14517TIP3   OH243493   7.712   7.026   3.522
14517TIP3    H143494   7.787   7.081   3.544
14517TIP3    H243495   7.642   7.054   3.582
14518TIP3   OH243496   1.592   2.548   3.938
14518TIP3    H143497   1.622   2.505   3.859
14518TIP3    H243498   1.509   2.506   3.959
14519TIP3   OH243499   8.095   1.040   1.990
14519TIP3    H143500   8.046   1.078   2.063
14519TIP3    H243501   8.104   0.947   2.013
14520TIP3   OH243502   6.389   2.839   1.709
14520TIP3    H143503   6.348   2.754   1.726
14520TIP3    H243504   6.332   2.879   1.643
14521TIP3   OH243505   0.771   6.608   0.808
14521TIP3    H143506   0.856   6.565   0.809
14521TIP3    H243507   0.710   6.539   0.781
14522TIP3   OH243508   2.930   4.148   5.720
14522TIP3    H143509   2.950   4.055   5.718
14522TIP3    H243510   2.965   4.179   5.804
14523TIP3   OH243511   1.317   1.893   3.351
14523TIP3    H143512   1.324   1.969   3.409
14523TIP3    H243513   1.362   1.823   3.398
14524TIP3   OH243514   4.955   0.724   6.661
14524TIP3    H143515   4.922   0.742   6.573
14524TIP3    H243516   5.016   0.796   6.679
14525TIP3   OH243517   5.913   5.893   0.564
14525TIP3    H143518   5.978   5.858   0.625
14525TIP3    H243519   5.897   5.982   0.595
14526TIP3   OH243520   6.325   6.783   0.371
14526TIP3    H143521   6.320   6.695   0.406
14526TIP3    H243522   6.265   6.783   0.296
14527TIP3   OH243523   1.977   1.720   2.268
14527TIP3    H143524   1.970   1.665   2.190
14527TIP3    H243525   1.940   1.804   2.241
14528TIP3   OH243526   2.274   3.151   4.135
14528TIP3    H143527   2.278   3.172   4.228
14528TIP3    H243528   2.181   3.132   4.119
14529TIP3   OH243529   6.922   5.824   1.803
14529TIP3    H143530   6.839   5.809   1.848
14529TIP3    H243531   6.968   5.740   1.809
14530TIP3   OH243532   2.413   3.055   2.714
14530TIP3    H143533   2.390   2.980   2.659
14530TIP3    H243534   2.471   3.108   2.659
14531TIP3   OH243535   7.364   4.099   0.263
14531TIP3    H143536   7.372   4.194   0.263
14531TIP3    H243537   7.453   4.068   0.285
14532TIP3   OH243538   3.084   6.166   4.836
14532TIP3    H143539   3.130   6.097   4.788
14532TIP3    H243540   3.052   6.122   4.915
14533TIP3   OH243541   4.973   4.820   5.304
14533TIP3    H143542   4.884   4.853   5.319
14533TIP3    H243543   4.963   4.750   5.240
14534TIP3   OH243544   2.233   4.852   5.149
14534TIP3    H143545   2.144   4.846   5.182
14534TIP3    H243546   2.228   4.918   5.079
14535TIP3   OH243547   7.800   6.962   3.966
14535TIP3    H143548   7.808   6.933   4.057
14535TIP3    H243549   7.885   7.000   3.946
14536TIP3   OH243550   6.083   3.496   5.815
14536TIP3    H143551   6.131   3.496   5.732
14536TIP3    H243552   6.107   3.413   5.856
14537TIP3   OH243553   7.566   4.357   1.117
14537TIP3    H143554   7.617   4.291   1.071
14537TIP3    H243555   7.580   4.437   1.066
14538TIP3   OH243556   0.941   7.114   4.542
14538TIP3    H143557   0.923   7.031   4.586
14538TIP3    H243558   0.925   7.181   4.607
14539TIP3   OH243559   0.126   6.322   4.987
14539TIP3    H143560   0.115   6.228   4.972
14539TIP3    H243561   0.156   6.328   5.078
14540TIP3   OH243562   8.199   6.458   4.744
14540TIP3    H143563   8.112   6.493   4.761
14540TIP3    H243564   8.184   6.377   4.694
14541TIP3   OH243565   4.189   7.364   4.483
14541TIP3    H143566   4.200   7.290   4.543
14541TIP3    H243567   4.266   7.359   4.425
14542TIP3   OH243568   0.270   2.092   0.022
14542TIP3    H143569   0.299   2.183   0.029
14542TIP3    H243570   0.202   2.083   0.089
14543TIP3   OH243571   6.563   1.033   3.595
14543TIP3    H143572   6.554   1.013   3.688
14543TIP3    H243573   6.578   1.128   3.592
14544TIP3   OH243574   5.899   2.801   1.978
14544TIP3    H143575   5.911   2.746   1.901
14544TIP3    H243576   5.878   2.888   1.942
14545TIP3   OH243577   1.329   0.305   2.031
14545TIP3    H143578   1.272   0.236   1.997
14545TIP3    H243579   1.407   0.258   2.062
14546TIP3   OH243580   8.241   6.500   2.876
14546TIP3    H143581   8.336   6.504   2.876
14546TIP3    H243582   8.220   6.425   2.932
14547TIP3   OH243583   7.957   1.008   5.301
14547TIP3    H143584   7.981   1.090   5.258
14547TIP3    H243585   7.930   1.033   5.389
14548TIP3   OH243586   2.984   1.518   2.669
14548TIP3    H143587   3.057   1.488   2.723
14548TIP3    H243588   2.915   1.541   2.731
14549TIP3   OH243589   0.024   0.773   1.930
14549TIP3    H143590  -0.066   0.749   1.956
14549TIP3    H243591   0.034   0.736   1.843
14550TIP3   OH243592   0.904   5.478   5.123
14550TIP3    H143593   0.988   5.448   5.089
14550TIP3    H243594   0.926   5.553   5.178
14551TIP3   OH243595   7.242   4.983   3.432
14551TIP3    H143596   7.155   4.955   3.402
14551TIP3    H243597   7.252   5.072   3.397
14552TIP3   OH243598   5.075   6.630   0.999
14552TIP3    H143599   5.014   6.622   0.926
14552TIP3    H243600   5.021   6.613   1.076
14553TIP3   OH243601   4.907   5.221   0.559
14553TIP3    H143602   4.874   5.131   0.564
14553TIP3    H243603   4.834   5.274   0.591
14554TIP3   OH243604   3.581   7.610   4.622
14554TIP3    H143605   3.648   7.541   4.632
14554TIP3    H243606   3.560   7.635   4.712
14555TIP3   OH243607   3.602   5.136   4.922
14555TIP3    H143608   3.622   5.042   4.928
14555TIP3    H243609   3.648   5.165   4.843
14556TIP3   OH243610   5.841   6.105   0.309
14556TIP3    H143611   5.931   6.095   0.277
14556TIP3    H243612   5.789   6.114   0.229
14557TIP3   OH243613   2.528   2.363   0.017
14557TIP3    H143614   2.553   2.277   0.051
14557TIP3    H243615   2.433   2.365   0.023
14558TIP3   OH243616   1.632   3.249   2.148
14558TIP3    H143617   1.640   3.344   2.158
14558TIP3    H243618   1.588   3.237   2.064
14559TIP3   OH243619   3.654   3.889   4.305
14559TIP3    H143620   3.686   3.880   4.215
14559TIP3    H243621   3.653   3.984   4.320
14560TIP3   OH243622   2.863   1.958   0.571
14560TIP3    H143623   2.898   2.045   0.589
14560TIP3    H243624   2.931   1.898   0.602
14561TIP3   OH243625   4.319   7.085   5.731
14561TIP3    H143626   4.366   7.002   5.720
14561TIP3    H243627   4.282   7.103   5.645
14562TIP3   OH243628   0.595   7.632   3.210
14562TIP3    H143629   0.615   7.548   3.168
14562TIP3    H243630   0.679   7.676   3.218
14563TIP3   OH243631   7.280   3.803   6.623
14563TIP3    H143632   7.338   3.794   6.699
14563TIP3    H243633   7.206   3.746   6.642
14564TIP3   OH243634   8.084   6.753   2.227
14564TIP3    H143635   8.024   6.732   2.155
14564TIP3    H243636   8.128   6.833   2.198
14565TIP3   OH243637   3.351   5.515   0.493
14565TIP3    H143638   3.411   5.587   0.472
14565TIP3    H243639   3.390   5.439   0.450
14566TIP3   OH243640   5.514   0.424   0.057
14566TIP3    H143641   5.504   0.333   0.031
14566TIP3    H243642   5.570   0.422   0.134
14567TIP3   OH243643   6.107   5.694   1.355
14567TIP3    H143644   6.022   5.721   1.319
14567TIP3    H243645   6.142   5.633   1.290
14568TIP3   OH243646   2.035   0.231   1.428
14568TIP3    H143647   2.038   0.182   1.346
14568TIP3    H243648   1.959   0.196   1.475
14569TIP3   OH243649   7.603   5.912   5.303
14569TIP3    H143650   7.613   5.994   5.255
14569TIP3    H243651   7.558   5.854   5.242
14570TIP3   OH243652   4.006   1.832   3.939
14570TIP3    H143653   4.031   1.899   4.003
14570TIP3    H243654   4.089   1.804   3.901
14571TIP3   OH243655   3.777   0.360   0.174
14571TIP3    H143656   3.868   0.366   0.146
14571TIP3    H243657   3.727   0.387   0.097
14572TIP3   OH243658   6.114   1.701   4.745
14572TIP3    H143659   6.041   1.639   4.746
14572TIP3    H243660   6.163   1.681   4.666
14573TIP3   OH243661   2.693   6.625   1.582
14573TIP3    H143662   2.669   6.595   1.494
14573TIP3    H243663   2.646   6.707   1.594
14574TIP3   OH243664   6.436   4.218   0.485
14574TIP3    H143665   6.467   4.195   0.397
14574TIP3    H243666   6.466   4.308   0.497
14575TIP3   OH243667   2.638   6.608   4.765
14575TIP3    H143668   2.587   6.658   4.702
14575TIP3    H243669   2.728   6.616   4.734
14576TIP3   OH243670   5.338   7.487   4.930
14576TIP3    H143671   5.288   7.519   4.855
14576TIP3    H243672   5.271   7.470   4.997
14577TIP3   OH243673   7.316   7.787   5.306
14577TIP3    H143674   7.234   7.765   5.260
14577TIP3    H243675   7.341   7.872   5.271
14578TIP3   OH243676   2.987   1.606   4.030
14578TIP3    H143677   3.009   1.562   3.949
14578TIP3    H243678   3.009   1.698   4.015
14579TIP3   OH243679   2.554   1.982   5.964
14579TIP3    H143680   2.601   1.908   6.001
14579TIP3    H243681   2.462   1.959   5.975
14580TIP3   OH243682   0.969   4.810   3.849
14580TIP3    H143683   1.061   4.828   3.867
14580TIP3    H243684   0.967   4.782   3.757
14581TIP3   OH243685   5.023   5.543   2.624
14581TIP3    H143686   5.079   5.532   2.701
14581TIP3    H243687   4.962   5.613   2.648
14582TIP3   OH243688   1.185   4.799   2.304
14582TIP3    H143689   1.134   4.880   2.311
14582TIP3    H243690   1.120   4.730   2.294
14583TIP3   OH243691   1.697   1.878   3.159
14583TIP3    H143692   1.764   1.810   3.159
14583TIP3    H243693   1.700   1.916   3.247
14584TIP3   OH243694   2.907   3.819   6.490
14584TIP3    H143695   2.904   3.904   6.446
14584TIP3    H243696   2.824   3.778   6.467
14585TIP3   OH243697   1.160   1.643   6.407
14585TIP3    H143698   1.118   1.577   6.463
14585TIP3    H243699   1.087   1.694   6.372
14586TIP3   OH243700   3.110   7.721   2.272
14586TIP3    H143701   3.143   7.631   2.273
14586TIP3    H243702   3.153   7.763   2.347
14587TIP3   OH243703   1.920   1.674   3.704
14587TIP3    H143704   1.915   1.599   3.644
14587TIP3    H243705   1.854   1.656   3.771
14588TIP3   OH243706   2.754   0.835   1.103
14588TIP3    H143707   2.736   0.742   1.112
14588TIP3    H243708   2.778   0.864   1.191
14589TIP3   OH243709   6.904   2.849   3.672
14589TIP3    H143710   6.884   2.941   3.652
14589TIP3    H243711   6.889   2.841   3.766
14590TIP3   OH243712   1.323   7.326   5.473
14590TIP3    H143713   1.290   7.243   5.508
14590TIP3    H243714   1.409   7.304   5.437
14591TIP3   OH243715   7.236   6.067   3.236
14591TIP3    H143716   7.263   6.002   3.301
14591TIP3    H243717   7.269   6.033   3.153
14592TIP3   OH243718   7.657   5.331   0.977
14592TIP3    H143719   7.589   5.390   1.011
14592TIP3    H243720   7.692   5.377   0.901
14593TIP3   OH243721   7.998   6.263   4.317
14593TIP3    H143722   7.983   6.291   4.226
14593TIP3    H243723   7.919   6.291   4.364
14594TIP3   OH243724   4.977   7.664   3.322
14594TIP3    H143725   4.948   7.574   3.309
14594TIP3    H243726   5.030   7.683   3.245
14595TIP3   OH243727   2.446   1.739   1.095
14595TIP3    H143728   2.442   1.805   1.164
14595TIP3    H243729   2.440   1.655   1.142
14596TIP3   OH243730   5.048   6.215   5.233
14596TIP3    H143731   4.970   6.236   5.284
14596TIP3    H243732   5.084   6.300   5.207
14597TIP3   OH243733   5.982   0.773   6.516
14597TIP3    H143734   5.927   0.849   6.496
14597TIP3    H243735   6.070   0.808   6.526
14598TIP3   OH243736   1.741   2.819   6.483
14598TIP3    H143737   1.677   2.796   6.415
14598TIP3    H243738   1.813   2.861   6.435
14599TIP3   OH243739   0.055   1.719   6.585
14599TIP3    H143740  -0.004   1.779   6.631
14599TIP3    H243741   0.125   1.700   6.648
14600TIP3   OH243742   5.420   6.110   5.947
14600TIP3    H143743   5.379   6.189   5.913
14600TIP3    H243744   5.385   6.039   5.893
14601TIP3   OH243745   0.935   7.067   4.270
14601TIP3    H143746   0.983   6.984   4.279
14601TIP3    H243747   0.944   7.109   4.356
14602TIP3   OH243748   6.999   2.865   4.913
14602TIP3    H143749   7.004   2.904   4.826
14602TIP3    H243750   7.016   2.937   4.974
14603TIP3   OH243751   2.653   3.045   0.683
14603TIP3    H143752   2.576   2.998   0.715
14603TIP3    H243753   2.635   3.137   0.702
14604TIP3   OH243754   5.864   3.198   3.350
14604TIP3    H143755   5.858   3.109   3.384
14604TIP3    H243756   5.871   3.253   3.428
14605TIP3   OH243757   1.954   1.115   4.027
14605TIP3    H143758   1.881   1.111   4.088
14605TIP3    H243759   1.946   1.200   3.985
14606TIP3   OH243760   2.393   5.264   0.196
14606TIP3    H143761   2.430   5.216   0.270
14606TIP3    H243762   2.458   5.333   0.179
14607TIP3   OH243763   8.227   7.661   0.690
14607TIP3    H143764   8.213   7.629   0.601
14607TIP3    H243765   8.178   7.600   0.745
14608TIP3   OH243766   1.293   3.157   2.518
14608TIP3    H143767   1.314   3.134   2.608
14608TIP3    H243768   1.356   3.225   2.495
14609TIP3   OH243769   0.658   3.082   1.096
14609TIP3    H143770   0.574   3.101   1.137
14609TIP3    H243771   0.709   3.039   1.165
14610TIP3   OH243772   7.470   5.969   3.824
14610TIP3    H143773   7.517   5.894   3.787
14610TIP3    H243774   7.377   5.945   3.818
14611TIP3   OH243775   0.231   3.969   6.702
14611TIP3    H143776   0.238   4.062   6.723
14611TIP3    H243777   0.309   3.950   6.650
14612TIP3   OH243778   7.565   3.492   1.921
14612TIP3    H143779   7.572   3.399   1.898
14612TIP3    H243780   7.654   3.517   1.946
14613TIP3   OH243781   5.598   1.662   4.938
14613TIP3    H143782   5.679   1.712   4.930
14613TIP3    H243783   5.563   1.658   4.850
14614TIP3   OH243784   1.011   3.152   0.955
14614TIP3    H143785   1.040   3.224   1.011
14614TIP3    H243786   0.957   3.193   0.888
14615TIP3   OH243787   1.225   6.209   6.705
14615TIP3    H143788   1.282   6.227   6.780
14615TIP3    H243789   1.274   6.240   6.629
14616TIP3   OH243790   7.610   1.452   0.449
14616TIP3    H143791   7.559   1.519   0.403
14616TIP3    H243792   7.570   1.446   0.536
14617TIP3   OH243793   2.369   6.147   3.878
14617TIP3    H143794   2.433   6.122   3.944
14617TIP3    H243795   2.299   6.189   3.927
14618TIP3   OH243796   6.420   7.358   6.389
14618TIP3    H143797   6.344   7.299   6.381
14618TIP3    H243798   6.384   7.445   6.375
14619TIP3   OH243799   2.285   2.958   1.502
14619TIP3    H143800   2.347   2.999   1.442
14619TIP3    H243801   2.277   3.021   1.574
14620TIP3   OH243802   4.786   0.614   0.298
14620TIP3    H143803   4.800   0.707   0.281
14620TIP3    H243804   4.818   0.570   0.219
14621TIP3   OH243805   4.236   2.542   0.551
14621TIP3    H143806   4.174   2.612   0.570
14621TIP3    H243807   4.277   2.523   0.635
14622TIP3   OH243808   5.841   0.066   0.662
14622TIP3    H143809   5.845   0.162   0.657
14622TIP3    H243810   5.884   0.045   0.745
14623TIP3   OH243811   7.775   3.105   5.355
14623TIP3    H143812   7.757   3.083   5.264
14623TIP3    H243813   7.800   3.198   5.353
14624TIP3   OH243814   7.494   4.566   4.567
14624TIP3    H143815   7.500   4.507   4.643
14624TIP3    H243816   7.401   4.587   4.560
14625TIP3   OH243817   0.517   4.574   0.474
14625TIP3    H143818   0.431   4.603   0.445
14625TIP3    H243819   0.507   4.480   0.488
14626TIP3   OH243820   0.998   5.140   6.377
14626TIP3    H143821   1.074   5.190   6.348
14626TIP3    H243822   0.995   5.155   6.472
14627TIP3   OH243823   8.179   3.113   6.307
14627TIP3    H143824   8.112   3.140   6.244
14627TIP3    H243825   8.154   3.025   6.333
14628TIP3   OH243826   4.101   7.773   5.003
14628TIP3    H143827   4.035   7.716   4.962
14628TIP3    H243828   4.064   7.795   5.088
14629TIP3   OH243829   3.887   4.948   6.619
14629TIP3    H143830   3.935   4.884   6.671
14629TIP3    H243831   3.812   4.972   6.674
14630TIP3   OH243832   3.612   4.482   3.357
14630TIP3    H143833   3.670   4.557   3.366
14630TIP3    H243834   3.592   4.478   3.264
14631TIP3   OH243835   0.010   1.165   0.365
14631TIP3    H143836   0.071   1.200   0.431
14631TIP3    H243837   0.064   1.153   0.287
14632TIP3   OH243838   4.618   0.948   3.808
14632TIP3    H143839   4.637   0.868   3.857
14632TIP3    H243840   4.689   0.956   3.745
14633TIP3   OH243841   7.090   5.872   5.053
14633TIP3    H143842   7.045   5.855   4.971
14633TIP3    H243843   7.116   5.785   5.085
14634TIP3   OH243844   3.119   5.061   0.624
14634TIP3    H143845   3.086   5.150   0.636
14634TIP3    H243846   3.214   5.072   0.615
14635TIP3   OH243847   3.898   1.768   2.105
14635TIP3    H143848   3.904   1.756   2.199
14635TIP3    H243849   3.807   1.794   2.090
14636TIP3   OH243850   0.870   0.942   2.653
14636TIP3    H143851   0.862   0.975   2.563
14636TIP3    H243852   0.807   0.994   2.704
14637TIP3   OH243853   7.880   4.051   1.182
14637TIP3    H143854   7.916   4.097   1.257
14637TIP3    H243855   7.785   4.056   1.194
14638TIP3   OH243856   2.987   0.388   5.739
14638TIP3    H143857   2.992   0.292   5.739
14638TIP3    H243858   2.939   0.409   5.659
14639TIP3   OH243859   2.077   2.956   6.630
14639TIP3    H143860   2.014   2.980   6.562
14639TIP3    H243861   2.163   2.966   6.588
14640TIP3   OH243862   3.407   1.090   0.210
14640TIP3    H143863   3.439   1.054   0.293
14640TIP3    H243864   3.381   1.013   0.159
14641TIP3   OH243865   4.000   6.811   3.714
14641TIP3    H143866   4.049   6.853   3.786
14641TIP3    H243867   3.933   6.759   3.758
14642TIP3   OH243868   0.842   5.157   0.748
14642TIP3    H143869   0.868   5.094   0.815
14642TIP3    H243870   0.920   5.211   0.735
14643TIP3   OH243871   6.380   0.174   0.888
14643TIP3    H143872   6.375   0.262   0.851
14643TIP3    H243873   6.325   0.120   0.831
14644TIP3   OH243874   5.172   6.008   4.499
14644TIP3    H143875   5.170   5.952   4.577
14644TIP3    H243876   5.180   6.097   4.533
14645TIP3   OH243877   7.435   1.784   1.626
14645TIP3    H143878   7.364   1.776   1.562
14645TIP3    H243879   7.394   1.822   1.703
14646TIP3   OH243880   5.447   1.252   6.133
14646TIP3    H143881   5.425   1.285   6.220
14646TIP3    H243882   5.363   1.236   6.090
14647TIP3   OH243883   2.042   0.826   4.923
14647TIP3    H143884   2.023   0.814   4.830
14647TIP3    H243885   1.957   0.849   4.961
14648TIP3   OH243886   5.958   4.649   4.493
14648TIP3    H143887   5.881   4.593   4.498
14648TIP3    H243888   5.928   4.733   4.527
14649TIP3   OH243889   6.624   0.661   5.365
14649TIP3    H143890   6.715   0.690   5.361
14649TIP3    H243891   6.625   0.572   5.330
14650TIP3   OH243892   4.784   6.931   1.593
14650TIP3    H143893   4.771   7.000   1.529
14650TIP3    H243894   4.794   6.851   1.541
14651TIP3   OH243895   5.020   7.142   1.824
14651TIP3    H143896   4.959   7.209   1.792
14651TIP3    H243897   4.979   7.059   1.798
14652TIP3   OH243898   3.686   1.568   4.862
14652TIP3    H143899   3.717   1.501   4.801
14652TIP3    H243900   3.645   1.635   4.806
14653TIP3   OH243901   2.797   7.299   0.620
14653TIP3    H143902   2.884   7.265   0.599
14653TIP3    H243903   2.797   7.309   0.715
14654TIP3   OH243904   6.490   7.045   4.510
14654TIP3    H143905   6.583   7.024   4.514
14654TIP3    H243906   6.486   7.139   4.526
14655TIP3   OH243907   7.258   1.797   3.017
14655TIP3    H143908   7.179   1.842   3.046
14655TIP3    H243909   7.282   1.741   3.090
14656TIP3   OH243910   0.513   7.384   1.936
14656TIP3    H143911   0.562   7.310   1.900
14656TIP3    H243912   0.511   7.367   2.030
14657TIP3   OH243913   1.032   0.308   4.357
14657TIP3    H143914   1.008   0.361   4.433
14657TIP3    H243915   1.032   0.369   4.283
14658TIP3   OH243916   4.136   4.012   6.497
14658TIP3    H143917   4.186   4.066   6.436
14658TIP3    H243918   4.134   3.926   6.455
14659TIP3   OH243919   2.945   4.284   1.079
14659TIP3    H143920   2.882   4.255   1.145
14659TIP3    H243921   2.992   4.204   1.055
14660TIP3   OH243922   1.414   1.485   5.867
14660TIP3    H143923   1.480   1.417   5.874
14660TIP3    H243924   1.379   1.477   5.778
14661TIP3   OH243925   4.753   1.504   3.268
14661TIP3    H143926   4.838   1.548   3.270
14661TIP3    H243927   4.709   1.543   3.193
14662TIP3   OH243928   0.261   0.194   5.009
14662TIP3    H143929   0.326   0.178   4.941
14662TIP3    H243930   0.256   0.112   5.058
14663TIP3   OH243931   7.225   2.922   2.288
14663TIP3    H143932   7.231   3.007   2.332
14663TIP3    H243933   7.165   2.871   2.343
14664TIP3   OH243934   6.133   1.921   1.192
14664TIP3    H143935   6.161   1.856   1.256
14664TIP3    H243936   6.050   1.888   1.159
14665TIP3   OH243937   8.203   0.892   2.959
14665TIP3    H143938   8.282   0.932   2.996
14665TIP3    H243939   8.209   0.800   2.986
14666TIP3   OH243940   7.508   2.151   5.769
14666TIP3    H143941   7.504   2.055   5.775
14666TIP3    H243942   7.539   2.179   5.855
14667TIP3   OH243943   3.882   0.624   3.668
14667TIP3    H143944   3.840   0.541   3.690
14667TIP3    H243945   3.854   0.642   3.578
14668TIP3   OH243946   1.541   1.394   1.659
14668TIP3    H143947   1.574   1.475   1.698
14668TIP3    H243948   1.507   1.421   1.573
14669TIP3   OH243949   5.737   0.853   6.201
14669TIP3    H143950   5.765   0.770   6.242
14669TIP3    H243951   5.666   0.885   6.257
14670TIP3   OH243952   4.195   5.493   0.806
14670TIP3    H143953   4.122   5.432   0.799
14670TIP3    H243954   4.155   5.573   0.840
14671TIP3   OH243955   0.247   2.739   4.591
14671TIP3    H143956   0.309   2.800   4.551
14671TIP3    H243957   0.198   2.703   4.518
14672TIP3   OH243958   0.495   1.291   2.319
14672TIP3    H143959   0.463   1.337   2.397
14672TIP3    H243960   0.415   1.258   2.277
14673TIP3   OH243961   2.623   1.775   2.529
14673TIP3    H143962   2.687   1.822   2.582
14673TIP3    H243963   2.614   1.828   2.450
14674TIP3   OH243964   5.991   4.126   4.740
14674TIP3    H143965   5.911   4.077   4.721
14674TIP3    H243966   6.060   4.075   4.699
14675TIP3   OH243967   1.489   4.672   5.835
14675TIP3    H143968   1.486   4.743   5.899
14675TIP3    H243969   1.397   4.646   5.825
14676TIP3   OH243970   7.602   4.259   5.218
14676TIP3    H143971   7.583   4.194   5.285
14676TIP3    H243972   7.541   4.331   5.235
14677TIP3   OH243973   4.120   1.899   0.361
14677TIP3    H143974   4.035   1.942   0.350
14677TIP3    H243975   4.116   1.823   0.303
14678TIP3   OH243976   7.718   0.354   5.622
14678TIP3    H143977   7.631   0.327   5.653
14678TIP3    H243978   7.749   0.279   5.571
14679TIP3   OH243979   6.295   5.321   5.875
14679TIP3    H143980   6.212   5.360   5.849
14679TIP3    H243981   6.326   5.375   5.948
14680TIP3   OH243982   7.976   4.952   6.113
14680TIP3    H143983   8.021   5.020   6.063
14680TIP3    H243984   8.046   4.892   6.139
14681TIP3   OH243985   5.427   1.095   4.262
14681TIP3    H143986   5.398   1.133   4.179
14681TIP3    H243987   5.391   1.153   4.329
14682TIP3   OH243988   7.796   1.968   3.992
14682TIP3    H143989   7.781   1.910   3.917
14682TIP3    H243990   7.795   1.909   4.068
14683TIP3   OH243991   2.795   4.127   1.259
14683TIP3    H143992   2.868   4.071   1.287
14683TIP3    H243993   2.747   4.073   1.196
14684TIP3   OH243994   5.858   0.226   0.406
14684TIP3    H143995   5.943   0.237   0.449
14684TIP3    H243996   5.853   0.132   0.389
14685TIP3   OH243997   7.244   7.830   3.969
14685TIP3    H143998   7.275   7.808   3.882
14685TIP3    H243999   7.184   7.758   3.992
14686TIP3   OH244000   2.043   3.371   6.005
14686TIP3    H144001   2.067   3.366   5.912
14686TIP3    H244002   1.958   3.416   6.005
14687TIP3   OH244003   2.289   5.889   6.052
14687TIP3    H144004   2.282   5.839   5.971
14687TIP3    H244005   2.358   5.845   6.101
14688TIP3   OH244006   3.010   4.903   2.540
14688TIP3    H144007   3.008   4.925   2.633
14688TIP3    H244008   2.939   4.840   2.529
14689TIP3   OH244009   1.845   0.094   0.955
14689TIP3    H144010   1.863   0.042   0.877
14689TIP3    H244011   1.767   0.144   0.932
14690TIP3   OH244012   7.075   5.073   3.066
14690TIP3    H144013   6.999   5.051   3.012
14690TIP3    H244014   7.044   5.066   3.156
14691TIP3   OH244015   7.167   0.938   0.127
14691TIP3    H144016   7.196   0.887   0.052
14691TIP3    H244017   7.244   0.944   0.184
14692TIP3   OH244018   7.411   6.498   5.685
14692TIP3    H144019   7.420   6.543   5.601
14692TIP3    H244020   7.321   6.465   5.685
14693TIP3   OH244021   0.639   7.252   5.982
14693TIP3    H144022   0.665   7.335   5.942
14693TIP3    H244023   0.707   7.190   5.957
14694TIP3   OH244024   2.198   4.554   4.346
14694TIP3    H144025   2.135   4.586   4.281
14694TIP3    H244026   2.275   4.531   4.295
14695TIP3   OH244027   7.032   7.732   5.419
14695TIP3    H144028   6.998   7.706   5.333
14695TIP3    H244029   7.045   7.649   5.466
14696TIP3   OH244030   3.367   1.804   4.887
14696TIP3    H144031   3.456   1.832   4.867
14696TIP3    H244032   3.327   1.787   4.801
14697TIP3   OH244033   2.971   7.225   6.703
14697TIP3    H144034   2.991   7.293   6.767
14697TIP3    H244035   3.022   7.249   6.625
14698TIP3   OH244036   3.393   5.331   6.707
14698TIP3    H144037   3.435   5.288   6.633
14698TIP3    H244038   3.447   5.307   6.783
14699TIP3   OH244039   6.348   1.324   2.176
14699TIP3    H144040   6.422   1.282   2.220
14699TIP3    H244041   6.272   1.273   2.205
14700TIP3   OH244042   4.846   4.010   6.647
14700TIP3    H144043   4.931   4.018   6.692
14700TIP3    H244044   4.864   3.953   6.572
14701TIP3   OH244045   0.822   3.552   3.184
14701TIP3    H144046   0.786   3.604   3.112
14701TIP3    H244047   0.800   3.461   3.160
14702TIP3   OH244048   5.607   0.433   3.366
14702TIP3    H144049   5.517   0.410   3.341
14702TIP3    H244050   5.619   0.522   3.334
14703TIP3   OH244051   7.316   5.215   6.180
14703TIP3    H144052   7.318   5.277   6.108
14703TIP3    H244053   7.225   5.218   6.211
14704TIP3   OH244054   3.017   6.559   3.590
14704TIP3    H144055   3.057   6.636   3.630
14704TIP3    H244056   2.929   6.555   3.626
14705TIP3   OH244057   3.520   2.693   0.272
14705TIP3    H144058   3.562   2.762   0.222
14705TIP3    H244059   3.472   2.739   0.341
14706TIP3   OH244060   1.340   2.185   4.183
14706TIP3    H144061   1.409   2.250   4.195
14706TIP3    H244062   1.265   2.219   4.233
14707TIP3   OH244063   5.778   5.030   5.230
14707TIP3    H144064   5.686   5.041   5.254
14707TIP3    H244065   5.811   4.964   5.291
14708TIP3   OH244066   6.159   2.885   6.265
14708TIP3    H144067   6.091   2.943   6.229
14708TIP3    H244068   6.188   2.930   6.345
14709TIP3   OH244069   3.561   5.671   2.341
14709TIP3    H144070   3.613   5.665   2.261
14709TIP3    H244071   3.542   5.580   2.365
14710TIP3   OH244072   2.842   6.869   5.887
14710TIP3    H144073   2.899   6.910   5.952
14710TIP3    H244074   2.788   6.809   5.938
14711TIP3   OH244075   4.545   6.508   0.671
14711TIP3    H144076   4.566   6.559   0.592
14711TIP3    H244077   4.463   6.545   0.703
14712TIP3   OH244078   5.607   4.289   5.460
14712TIP3    H144079   5.586   4.312   5.550
14712TIP3    H244080   5.703   4.296   5.455
14713TIP3   OH244081   1.912   6.068   3.093
14713TIP3    H144082   1.843   6.095   3.033
14713TIP3    H244083   1.889   6.108   3.177
14714TIP3   OH244084   7.021   0.658   1.168
14714TIP3    H144085   7.088   0.709   1.123
14714TIP3    H244086   7.005   0.705   1.249
14715TIP3   OH244087   0.623   2.994   0.748
14715TIP3    H144088   0.605   2.900   0.750
14715TIP3    H244089   0.606   3.020   0.657
14716TIP3   OH244090   1.976   6.153   5.044
14716TIP3    H144091   1.989   6.078   4.987
14716TIP3    H244092   1.915   6.121   5.111
14717TIP3   OH244093   7.849   5.205   1.618
14717TIP3    H144094   7.864   5.150   1.695
14717TIP3    H244095   7.761   5.182   1.589
14718TIP3   OH244096   1.250   0.228   5.696
14718TIP3    H144097   1.237   0.205   5.604
14718TIP3    H244098   1.345   0.235   5.706
14719TIP3   OH244099   0.996   3.198   6.748
14719TIP3    H144100   1.061   3.171   6.683
14719TIP3    H244101   0.953   3.116   6.774
14720TIP3   OH244102   7.657   0.727   3.434
14720TIP3    H144103   7.674   0.661   3.501
14720TIP3    H244104   7.598   0.790   3.477
14721TIP3   OH244105   3.123   6.231   3.200
14721TIP3    H144106   3.165   6.274   3.274
14721TIP3    H244107   3.079   6.301   3.152
14722TIP3   OH244108   1.038   2.820   3.772
14722TIP3    H144109   1.086   2.782   3.845
14722TIP3    H244110   0.949   2.784   3.780
14723TIP3   OH244111   6.850   0.736   2.623
14723TIP3    H144112   6.760   0.761   2.603
14723TIP3    H244113   6.863   0.654   2.575
14724TIP3   OH244114   0.295   3.855   1.471
14724TIP3    H144115   0.258   3.861   1.559
14724TIP3    H244116   0.222   3.826   1.416
14725TIP3   OH244117   1.281   1.905   4.482
14725TIP3    H144118   1.332   1.982   4.458
14725TIP3    H244119   1.190   1.934   4.480
14726TIP3   OH244120   3.925   2.427   1.777
14726TIP3    H144121   4.009   2.447   1.734
14726TIP3    H244122   3.859   2.447   1.711
14727TIP3   OH244123   0.647   3.355   2.318
14727TIP3    H144124   0.575   3.357   2.255
14727TIP3    H244125   0.619   3.416   2.387
14728TIP3   OH244126   2.701   7.292   3.443
14728TIP3    H144127   2.789   7.254   3.442
14728TIP3    H244128   2.643   7.218   3.460
14729TIP3   OH244129   5.393   1.344   5.547
14729TIP3    H144130   5.469   1.402   5.543
14729TIP3    H244131   5.412   1.275   5.483
14730TIP3   OH244132   7.215   4.224   4.755
14730TIP3    H144133   7.291   4.254   4.705
14730TIP3    H244134   7.252   4.164   4.820
14731TIP3   OH244135   6.394   7.436   5.608
14731TIP3    H144136   6.470   7.451   5.665
14731TIP3    H244137   6.411   7.492   5.532
14732TIP3   OH244138   6.265   0.789   1.414
14732TIP3    H144139   6.306   0.709   1.382
14732TIP3    H244140   6.285   0.790   1.507
14733TIP3   OH244141   1.539   1.068   4.934
14733TIP3    H144142   1.499   1.103   4.854
14733TIP3    H244143   1.513   0.976   4.937
14734TIP3   OH244144   1.136   7.340   4.297
14734TIP3    H144145   1.200   7.277   4.331
14734TIP3    H244146   1.136   7.324   4.202
14735TIP3   OH244147   2.676   3.747   3.418
14735TIP3    H144148   2.580   3.748   3.413
14735TIP3    H244149   2.704   3.819   3.362
14736TIP3   OH244150   7.408   7.746  -0.032
14736TIP3    H144151   7.474   7.682  -0.005
14736TIP3    H244152   7.447   7.790  -0.108
14737TIP3   OH244153   5.929   6.386   1.287
14737TIP3    H144154   5.872   6.394   1.364
14737TIP3    H244155   5.893   6.448   1.224
14738TIP3   OH244156   1.696   3.335   1.690
14738TIP3    H144157   1.608   3.319   1.723
14738TIP3    H244158   1.724   3.251   1.653
14739TIP3   OH244159   7.144   1.067   6.230
14739TIP3    H144160   7.184   1.029   6.308
14739TIP3    H244161   7.051   1.042   6.235
14740TIP3   OH244162   2.448   6.856   1.249
14740TIP3    H144163   2.488   6.911   1.182
14740TIP3    H244164   2.399   6.790   1.200
14741TIP3   OH244165   1.282   1.726   0.053
14741TIP3    H144166   1.363   1.739   0.004
14741TIP3    H244167   1.268   1.631   0.051
14742TIP3   OH244168   1.761   7.381   3.231
14742TIP3    H144169   1.789   7.311   3.172
14742TIP3    H244170   1.831   7.445   3.228
14743TIP3   OH244171   4.365   0.549   5.516
14743TIP3    H144172   4.389   0.458   5.531
14743TIP3    H244173   4.448   0.595   5.508
14744TIP3   OH244174   6.501   6.924   3.951
14744TIP3    H144175   6.429   6.978   3.984
14744TIP3    H244176   6.579   6.977   3.966
14745TIP3   OH244177   5.958   5.430   5.478
14745TIP3    H144178   5.863   5.422   5.487
14745TIP3    H244179   5.983   5.352   5.429
14746TIP3   OH244180   7.373   3.279   6.708
14746TIP3    H144181   7.386   3.308   6.618
14746TIP3    H244182   7.333   3.353   6.752
14747TIP3   OH244183   0.023   3.668   6.534
14747TIP3    H144184   0.111   3.693   6.505
14747TIP3    H244185   0.001   3.730   6.603
14748TIP3   OH244186   4.826   1.063   4.354
14748TIP3    H144187   4.741   1.022   4.371
14748TIP3    H244188   4.814   1.108   4.271
14749TIP3   OH244189   5.320   4.776   4.029
14749TIP3    H144190   5.286   4.850   3.979
14749TIP3    H244191   5.265   4.702   4.004
14750TIP3   OH244192   7.189   5.301   0.616
14750TIP3    H144193   7.152   5.261   0.537
14750TIP3    H244194   7.276   5.332   0.590
14751TIP3   OH244195   5.748   6.927   0.125
14751TIP3    H144196   5.807   6.913   0.199
14751TIP3    H244197   5.663   6.896   0.156
14752TIP3   OH244198   4.211   6.178   4.361
14752TIP3    H144199   4.167   6.094   4.351
14752TIP3    H244200   4.146   6.242   4.332
14753TIP3   OH244201   8.054   3.404   3.963
14753TIP3    H144202   7.981   3.458   3.995
14753TIP3    H244203   8.060   3.425   3.870
14754TIP3   OH244204   6.315   2.939   6.047
14754TIP3    H144205   6.264   2.889   5.983
14754TIP3    H244206   6.269   2.925   6.130
14755TIP3   OH244207   4.074   0.658   3.011
14755TIP3    H144208   3.984   0.681   2.986
14755TIP3    H244209   4.067   0.631   3.102
14756TIP3   OH244210   0.356   7.133   6.274
14756TIP3    H144211   0.381   7.089   6.355
14756TIP3    H244212   0.359   7.226   6.295
14757TIP3   OH244213   8.003   3.440   1.719
14757TIP3    H144214   7.994   3.403   1.807
14757TIP3    H244215   8.098   3.444   1.705
14758TIP3   OH244216   8.110   6.932   6.106
14758TIP3    H144217   8.202   6.910   6.115
14758TIP3    H244218   8.075   6.865   6.046
14759TIP3   OH244219   6.387   2.457   6.008
14759TIP3    H144220   6.473   2.493   5.985
14759TIP3    H244221   6.338   2.532   6.042
14760TIP3   OH244222   0.093   2.505   4.448
14760TIP3    H144223   0.070   2.455   4.369
14760TIP3    H244224   0.179   2.470   4.473
14761TIP3   OH244225   8.194   3.230   1.896
14761TIP3    H144226   8.285   3.248   1.920
14761TIP3    H244227   8.180   3.139   1.921
14762TIP3   OH244228   7.914   0.863   2.219
14762TIP3    H144229   7.972   0.924   2.263
14762TIP3    H244230   7.848   0.918   2.175
14763TIP3   OH244231   7.075   7.567   0.134
14763TIP3    H144232   7.139   7.546   0.065
14763TIP3    H244233   7.015   7.493   0.134
14764TIP3   OH244234   6.369   7.360   2.401
14764TIP3    H144235   6.455   7.391   2.374
14764TIP3    H244236   6.347   7.412   2.478
14765TIP3   OH244237   6.532   2.913   1.976
14765TIP3    H144238   6.566   2.908   1.887
14765TIP3    H244239   6.446   2.955   1.966
14766TIP3   OH244240   1.665   1.355   4.628
14766TIP3    H144241   1.760   1.345   4.633
14766TIP3    H244242   1.651   1.434   4.576
14767TIP3   OH244243   1.221   3.871   5.441
14767TIP3    H144244   1.235   3.867   5.346
14767TIP3    H244245   1.289   3.931   5.472
14768TIP3   OH244246   5.580   2.295   2.261
14768TIP3    H144247   5.548   2.248   2.184
14768TIP3    H244248   5.658   2.341   2.230
14769TIP3   OH244249   6.714   5.371   6.293
14769TIP3    H144250   6.787   5.316   6.263
14769TIP3    H244251   6.659   5.382   6.216
14770TIP3   OH244252   5.213   5.826   0.670
14770TIP3    H144253   5.168   5.902   0.706
14770TIP3    H244254   5.166   5.751   0.706
14771TIP3   OH244255   2.848   7.695   3.725
14771TIP3    H144256   2.815   7.762   3.786
14771TIP3    H244257   2.804   7.615   3.752
14772TIP3   OH244258   4.570   2.517   5.641
14772TIP3    H144259   4.531   2.482   5.561
14772TIP3    H244260   4.592   2.608   5.620
14773TIP3   OH244261   7.933   5.842   2.791
14773TIP3    H144262   7.922   5.748   2.778
14773TIP3    H244263   7.854   5.881   2.752
14774TIP3   OH244264   5.586   3.493   5.881
14774TIP3    H144265   5.665   3.463   5.925
14774TIP3    H244266   5.515   3.476   5.943
14775TIP3   OH244267   7.070   1.482   0.400
14775TIP3    H144268   7.129   1.409   0.384
14775TIP3    H244269   7.094   1.548   0.335
14776TIP3   OH244270   3.145   1.265   0.945
14776TIP3    H144271   3.092   1.191   0.973
14776TIP3    H244272   3.152   1.320   1.023
14777TIP3   OH244273   6.292   1.371   0.254
14777TIP3    H144274   6.354   1.418   0.309
14777TIP3    H244275   6.284   1.285   0.295
14778TIP3   OH244276   1.644   2.697   0.218
14778TIP3    H144277   1.587   2.761   0.261
14778TIP3    H244278   1.668   2.738   0.135
14779TIP3   OH244279   8.016   0.473   1.314
14779TIP3    H144280   7.961   0.537   1.358
14779TIP3    H244281   8.027   0.507   1.225
14780TIP3   OH244282   7.779   6.856   6.033
14780TIP3    H144283   7.789   6.840   6.127
14780TIP3    H244284   7.687   6.840   6.015
14781TIP3   OH244285   7.611   0.185   5.094
14781TIP3    H144286   7.573   0.098   5.081
14781TIP3    H244287   7.553   0.227   5.157
14782TIP3   OH244288   3.419   2.267   4.072
14782TIP3    H144289   3.385   2.347   4.032
14782TIP3    H244290   3.408   2.282   4.166
14783TIP3   OH244291   5.064   7.184   5.658
14783TIP3    H144292   4.982   7.221   5.624
14783TIP3    H244293   5.068   7.096   5.621
14784TIP3   OH244294   5.201   3.858   1.556
14784TIP3    H144295   5.214   3.814   1.639
14784TIP3    H244296   5.198   3.787   1.491
14785TIP3   OH244297   6.199   0.592   4.201
14785TIP3    H144298   6.275   0.555   4.245
14785TIP3    H244299   6.152   0.515   4.166
14786TIP3   OH244300   5.143   1.479   5.527
14786TIP3    H144301   5.213   1.415   5.533
14786TIP3    H244302   5.148   1.529   5.608
14787TIP3   OH244303   1.467   3.015   0.539
14787TIP3    H144304   1.403   3.065   0.589
14787TIP3    H244305   1.511   2.960   0.604
14788TIP3   OH244306   1.587   3.859   4.343
14788TIP3    H144307   1.563   3.938   4.294
14788TIP3    H244308   1.504   3.824   4.374
14789TIP3   OH244309   6.274   6.299   0.559
14789TIP3    H144310   6.224   6.358   0.615
14789TIP3    H244311   6.358   6.342   0.547
14790TIP3   OH244312   2.523   6.496   6.106
14790TIP3    H144313   2.487   6.511   6.193
14790TIP3    H244314   2.569   6.413   6.112
14791TIP3   OH244315   0.901   0.376   4.651
14791TIP3    H144316   0.882   0.375   4.745
14791TIP3    H244317   0.817   0.354   4.610
14792TIP3   OH244318   0.008   5.600   4.200
14792TIP3    H144319   0.033   5.547   4.276
14792TIP3    H244320   0.062   5.566   4.129
14793TIP3   OH244321   3.920   1.688   6.670
14793TIP3    H144322   3.948   1.604   6.707
14793TIP3    H244323   3.858   1.723   6.734
14794TIP3   OH244324   7.243   1.650   0.640
14794TIP3    H144325   7.308   1.706   0.598
14794TIP3    H244326   7.159   1.690   0.618
14795TIP3   OH244327   7.088   3.512   2.226
14795TIP3    H144328   7.113   3.468   2.145
14795TIP3    H244329   7.035   3.448   2.273
14796TIP3   OH244330   8.273   0.085   0.608
14796TIP3    H144331   8.241   0.072   0.698
14796TIP3    H244332   8.194   0.079   0.554
14797TIP3   OH244333   7.328   6.238   2.092
14797TIP3    H144334   7.407   6.281   2.060
14797TIP3    H244335   7.358   6.153   2.126
14798TIP3   OH244336   6.654   0.286   6.415
14798TIP3    H144337   6.694   0.371   6.433
14798TIP3    H244338   6.660   0.277   6.320
14799TIP3   OH244339   1.626   0.994   1.783
14799TIP3    H144340   1.699   0.969   1.726
14799TIP3    H244341   1.643   0.947   1.865
14800TIP3   OH244342   5.367   3.921   4.757
14800TIP3    H144343   5.375   3.981   4.683
14800TIP3    H244344   5.277   3.888   4.752
14801TIP3   OH244345   1.782   6.024   5.401
14801TIP3    H144346   1.702   6.041   5.351
14801TIP3    H244347   1.751   6.001   5.489
14802TIP3   OH244348   4.962   3.132   2.482
14802TIP3    H144349   4.952   3.128   2.577
14802TIP3    H244350   4.887   3.083   2.448
14803TIP3   OH244351   7.876   3.004   5.583
14803TIP3    H144352   7.859   3.032   5.492
14803TIP3    H244353   7.875   2.909   5.579
14804TIP3   OH244354   2.639   3.102   5.194
14804TIP3    H144355   2.664   3.106   5.286
14804TIP3    H244356   2.652   3.010   5.170
14805TIP3   OH244357   5.295   5.638   5.945
14805TIP3    H144358   5.265   5.572   6.008
14805TIP3    H244359   5.388   5.618   5.933
14806TIP3   OH244360   8.200   6.968   0.692
14806TIP3    H144361   8.161   6.890   0.652
14806TIP3    H244362   8.270   6.993   0.632
14807TIP3   OH244363   2.039   0.987   0.074
14807TIP3    H144364   1.983   0.991  -0.004
14807TIP3    H244365   1.986   1.023   0.144
14808TIP3   OH244366   1.766   0.348   0.523
14808TIP3    H144367   1.744   0.324   0.613
14808TIP3    H244368   1.740   0.439   0.514
14809TIP3   OH244369   6.250   1.347   4.669
14809TIP3    H144370   6.205   1.365   4.587
14809TIP3    H244371   6.333   1.395   4.662
14810TIP3   OH244372   5.002   1.850   3.225
14810TIP3    H144373   5.071   1.889   3.171
14810TIP3    H244374   4.976   1.919   3.286
14811TIP3   OH244375   2.911   2.282   3.570
14811TIP3    H144376   2.980   2.305   3.507
14811TIP3    H244377   2.921   2.188   3.584
14812TIP3   OH244378   4.409   4.469   2.212
14812TIP3    H144379   4.389   4.378   2.191
14812TIP3    H244380   4.344   4.494   2.278
14813TIP3   OH244381   3.984   7.320   0.351
14813TIP3    H144382   3.981   7.234   0.393
14813TIP3    H244383   3.905   7.323   0.297
14814TIP3   OH244384   2.023   7.776   1.792
14814TIP3    H144385   2.081   7.791   1.867
14814TIP3    H244386   2.046   7.844   1.729
14815TIP3   OH244387   1.935   7.244   0.357
14815TIP3    H144388   1.955   7.302   0.283
14815TIP3    H244389   1.996   7.271   0.426
14816TIP3   OH244390   6.083   0.461   6.255
14816TIP3    H144391   6.156   0.407   6.285
14816TIP3    H244392   6.048   0.414   6.179
14817TIP3   OH244393   5.342   0.339   5.940
14817TIP3    H144394   5.338   0.430   5.911
14817TIP3    H244395   5.429   0.330   5.979
14818TIP3   OH244396   4.611   3.406   3.753
14818TIP3    H144397   4.554   3.450   3.690
14818TIP3    H244398   4.691   3.459   3.753
14819TIP3   OH244399   0.154   6.334   5.951
14819TIP3    H144400   0.180   6.272   6.018
14819TIP3    H244401   0.118   6.280   5.881
14820TIP3   OH244402   3.460   5.462   0.122
14820TIP3    H144403   3.374   5.500   0.139
14820TIP3    H244404   3.458   5.377   0.167
14821TIP3   OH244405   1.752   5.737   5.489
14821TIP3    H144406   1.758   5.803   5.558
14821TIP3    H244407   1.662   5.744   5.457
14822TIP3   OH244408   2.252   5.441   5.306
14822TIP3    H144409   2.306   5.509   5.264
14822TIP3    H244410   2.220   5.482   5.386
14823TIP3   OH244411   1.469   6.736   2.009
14823TIP3    H144412   1.389   6.787   1.997
14823TIP3    H244413   1.482   6.731   2.103
14824TIP3   OH244414   0.918   1.034   4.556
14824TIP3    H144415   0.882   1.009   4.641
14824TIP3    H244416   0.930   0.951   4.510
14825TIP3   OH244417   5.193   6.171   0.487
14825TIP3    H144418   5.237   6.257   0.481
14825TIP3    H244419   5.254   6.111   0.444
14826TIP3   OH244420   5.517   7.242   5.393
14826TIP3    H144421   5.448   7.179   5.368
14826TIP3    H244422   5.517   7.240   5.489
14827TIP3   OH244423   7.637   2.151   3.904
14827TIP3    H144424   7.643   2.236   3.948
14827TIP3    H244425   7.698   2.096   3.953
14828TIP3   OH244426   0.380   0.482   3.199
14828TIP3    H144427   0.425   0.546   3.255
14828TIP3    H244428   0.360   0.530   3.119
14829TIP3   OH244429   0.617   4.936   6.065
14829TIP3    H144430   0.706   4.920   6.096
14829TIP3    H244431   0.565   4.863   6.101
14830TIP3   OH244432   7.921   4.438   4.328
14830TIP3    H144433   7.991   4.417   4.265
14830TIP3    H244434   7.967   4.449   4.411
   8.30192   7.82713   6.77849   0.00000   0.00000  -2.76730   0.00000  -2.76730  -3.91356
